FOO
138240
    1MOL0     O    1   5.134   6.342   7.033 -0.2865 -0.1525 -0.2953
    1MOL0     C    2   5.245   6.290   7.058 -0.2758 -0.1547  0.3407
    1MOL0     O    3   5.366   6.344   7.048 -0.5546 -0.2348 -0.1598
    1MOL0     C    4   5.389   6.470   6.992  0.1471 -0.0660 -0.8712
    1MOL0     C    5   5.302   6.576   6.955 -1.3698 -0.3741 -0.2929
    1MOL0     C    6   5.337   6.695   6.906  0.8944 -0.0412 -0.7541
    1MOL0     C    7   5.472   6.725   6.898 -0.5098 -0.0269 -0.6613
    1MOL0     O    8   5.526   6.851   6.867  0.5085  0.5590 -0.5356
    1MOL0     C    9   5.451   6.947   6.787 -0.3003 -0.4547  0.4571
    1MOL0     C   10   5.501   6.925   6.642 -0.0124 -0.1530 -0.2457
    1MOL0     C   11   5.406   6.819   6.571 -0.3003  0.3104  0.5537
    1MOL0     C   12   5.399   6.847   6.423 -0.2696 -1.1923  0.0652
    1MOL0     C   13   5.327   6.740   6.339  0.8761 -0.2283  0.3871
    1MOL0     C   14   5.178   6.734   6.359  0.5026  0.1394  0.0035
    1MOL0     C   15   5.099   6.864   6.372  0.2564 -0.3543  0.2236
    1MOL0     C   16   4.947   6.840   6.375  0.3551 -0.1450 -0.3578
    1MOL0     N   17   4.864   6.954   6.334  0.5644 -0.2750  0.1338
    1MOL0     C   18   4.755   6.952   6.245 -0.2203  0.3496 -0.0548
    1MOL0     C   19   4.715   7.081   6.229  0.5448 -0.6807  0.2094
    1MOL0     C   20   4.601   7.105   6.139  0.0460  0.3074 -0.0822
    1MOL0     C   21   4.554   7.253   6.126  0.8019 -0.8374  0.7084
    1MOL0     C   22   4.449   7.258   6.016 -0.0059  0.0488  0.4655
    1MOL0     C   23   4.313   7.194   6.052  0.6431 -0.0215 -0.8313
    1MOL0     O   24   4.310   7.058   6.005 -0.1075  0.3001 -0.0079
    1MOL0     C   25   4.246   7.038   5.880 -0.5321  0.2918 -0.3861
    1MOL0     C   26   4.320   7.057   5.765  0.2232 -1.3614 -0.0291
    1MOL0     C   27   4.270   7.031   5.641  0.4938  0.3950 -0.2485
    1MOL0     C   28   4.132   7.002   5.625  0.0279 -0.2573  0.2896
    1MOL0     C   29   4.081   6.947   5.499 -0.0578  0.2564  0.3109
    1MOL0     O   30   3.947   6.931   5.496 -0.5460  0.3247 -0.6845
    1MOL0     C   31   3.879   6.926   5.378  0.1666 -0.0563  0.7057
    1MOL0     C   32   3.781   6.826   5.361  0.0655  0.1451  0.2799
    1MOL0     C   33   3.701   6.841   5.238  0.7748  0.0959 -0.8240
    1MOL0     C   34   3.734   6.917   5.132  0.0237  0.1506  0.5988
    1MOL0     O   35   3.656   6.898   5.023 -0.4019 -0.4898 -0.2893
    1MOL0     C   36   3.517   6.925   5.030 -0.0969 -0.5639 -0.4814
    1MOL0     C   37   3.443   6.864   4.916  0.4870  0.2884 -0.1607
    1MOL0     C   38   3.461   6.712   4.908 -0.4096 -0.3130 -2.0750
    1MOL0     C   39   3.334   6.642   4.863  0.2114 -0.2475  0.3794
    1MOL0     C   40   3.318   6.704   4.720 -0.2420  0.1573 -0.3939
    1MOL0     C   41   3.225   6.605   4.641 -1.2392 -0.1708 -0.4518
    1MOL0     C   42   3.230   6.650   4.491 -0.9649 -0.5843 -0.3526
    1MOL0     C   43   3.110   6.615   4.412 -0.6403  0.2544  0.2014
    1MOL0    Cl   44   3.123   6.644   4.234 -0.8306  0.1891  0.0937
    1MOL0     C   45   3.830   7.018   5.151 -0.1219  0.3098  0.8868
    1MOL0     C   46   3.905   7.018   5.275  1.2529  0.3188 -0.5451
    1MOL0     O   47   4.157   6.931   5.408 -0.0117  0.2425  0.0761
    1MOL0     C   48   4.048   6.999   5.744  0.0614  0.2658  0.1118
    1MOL0     C   49   4.108   7.019   5.872 -0.2849  0.5681  0.6251
    1MOL0     N   50   4.791   7.158   6.314 -0.0205  0.3068  0.0423
    1MOL0     N   51   4.878   7.085   6.380 -0.4065  0.3978  0.8736
    1MOL0     C   52   5.571   6.631   6.935 -0.4419 -1.6002 -0.0218
    1MOL0     C   53   5.521   6.505   6.978  0.4256 -1.1949  0.6537
    1MOL0     C   54   5.237   6.168   7.137 -0.4436 -0.7962 -0.0724
    1MOL0     C   55   5.257   6.187   7.273 -0.8431 -0.4052 -0.2528
    1MOL0     C   56   5.263   6.081   7.367 -0.5027  0.0265 -0.2689
    1MOL0     C   57   5.249   5.953   7.318 -0.3103  0.6267 -0.8588
    1MOL0     O   58   5.235   5.849   7.405 -0.4258 -0.0707 -0.9488
    1MOL0     C   59   5.291   5.870   7.541 -0.4540 -0.4800 -0.3010
    1MOL0     C   60   5.305   5.719   7.607 -0.2234 -0.1906  0.1209
    1MOL0     C   61   5.172   5.650   7.606 -0.8435  1.1755  0.2617
    1MOL0     C   62   5.169   5.543   7.715 -0.4335  0.3522 -0.0822
    1MOL0     C   63   5.266   5.438   7.712 -0.9009  0.8067 -1.1744
    1MOL0     C   64   5.359   5.356   7.710 -0.4457  0.6640 -0.8095
    1MOL0     C   65   5.228   5.935   7.178  0.6424 -0.8633  0.2092
    1MOL0     C   66   5.214   6.034   7.083  0.5809 -0.5373  0.2744
    1MOL0     C   67   5.161   6.006   6.948 -0.3097 -0.0361 -1.0288
    1MOL0     H   68   5.195   6.565   6.966 -1.4990  0.5710 -0.5802
    1MOL0     H   69   5.270   6.774   6.875  2.6713  1.7927 -0.1667
    1MOL0     H   70   5.342   6.955   6.785 -0.1853  1.6434 -1.4282
    1MOL0     H   71   5.494   7.042   6.820  1.5786 -1.1621  0.1791
    1MOL0     H   72   5.600   6.880   6.649  0.3425  0.6198 -0.2212
    1MOL0     H   73   5.499   7.023   6.592  1.7005 -0.4073 -0.8698
    1MOL0     H   74   5.310   6.833   6.620 -0.5207  2.2637 -0.3117
    1MOL0     H   75   5.455   6.723   6.590  0.9433  0.1746 -2.6750
    1MOL0     H   76   5.362   6.946   6.393 -1.2630 -1.5213  0.1606
    1MOL0     H   77   5.501   6.839   6.383  0.1267 -2.0086  1.1952
    1MOL0     H   78   5.361   6.763   6.238  4.2869 -0.7273  1.3108
    1MOL0     H   79   5.363   6.638   6.349  0.8367 -0.1055  1.9929
    1MOL0     H   80   5.131   6.671   6.282 -1.1618  0.9649  0.2892
    1MOL0     H   81   5.151   6.661   6.436 -1.1280 -3.5545 -3.6448
    1MOL0     H   82   5.122   6.932   6.290 -0.7484 -1.4914 -1.0705
    1MOL0     H   83   5.128   6.919   6.462  1.3459  3.5197 -2.3019
    1MOL0     H   84   4.920   6.752   6.316 -1.4276  0.2617 -0.1872
    1MOL0     H   85   4.924   6.822   6.480  1.3125  0.1867 -0.0754
    1MOL0     H   86   4.704   6.866   6.203  0.3021 -1.1602  2.1969
    1MOL0     H   87   4.629   7.061   6.043 -0.7661  2.3854 -1.3492
    1MOL0     H   88   4.528   7.040   6.188  0.9862 -1.2936 -0.7107
    1MOL0     H   89   4.529   7.302   6.221  2.2186  4.1578 -1.1939
    1MOL0     H   90   4.635   7.318   6.091 -0.5612 -0.4925 -2.0140
    1MOL0     H   91   4.498   7.216   5.928  2.4098  0.3650  1.5716
    1MOL0     H   92   4.437   7.364   5.992  0.7846  0.1940  0.6712
    1MOL0     H   93   4.237   7.266   6.019  0.2885 -1.8515 -4.6009
    1MOL0     H   94   4.309   7.180   6.160 -0.2346 -1.3820 -1.0148
    1MOL0     H   95   4.429   7.057   5.761  0.2138 -2.5256 -0.5593
    1MOL0     H   96   4.330   7.040   5.551 -2.3863  0.5547 -2.2721
    1MOL0     H   97   3.762   6.745   5.431  0.1806  1.3193  1.7231
    1MOL0     H   98   3.631   6.759   5.230 -1.6289  2.0508 -0.9879
    1MOL0     H   99   3.469   6.906   5.126 -0.1609  3.0137  0.3545
    1MOL0     H  100   3.508   7.034   5.027  1.7851 -0.3777 -0.9601
    1MOL0     H  101   3.335   6.872   4.931  0.6309 -0.2170  1.3425
    1MOL0     H  102   3.489   6.922   4.835  2.3456  0.3260  0.8640
    1MOL0     H  103   3.541   6.690   4.836  0.0298 -0.5144 -1.5349
    1MOL0     H  104   3.484   6.674   5.008 -0.5260  0.6094 -1.6875
    1MOL0     H  105   3.249   6.681   4.918 -2.7617 -2.6386 -2.1739
    1MOL0     H  106   3.340   6.533   4.865 -0.7572 -0.4227 -2.0814
    1MOL0     H  107   3.414   6.700   4.667  0.0317 -4.7639 -0.0260
    1MOL0     H  108   3.275   6.804   4.728 -1.5130 -0.4815  1.4057
    1MOL0     H  109   3.259   6.502   4.655 -0.3799 -0.0057 -1.1970
    1MOL0     H  110   3.126   6.615   4.686  0.2401  0.5028  2.9158
    1MOL0     H  111   3.320   6.604   4.451 -0.7217 -2.1660  1.8319
    1MOL0     H  112   3.234   6.760   4.494  0.6029 -0.5366  4.4692
    1MOL0     H  113   3.088   6.508   4.417  2.4320 -0.4358  0.9631
    1MOL0     H  114   3.032   6.677   4.458 -1.5753  0.9249 -2.1489
    1MOL0     H  115   3.865   7.092   5.080  0.9597 -0.0302  1.0432
    1MOL0     H  116   3.987   7.088   5.285  1.2436  0.3357 -0.5838
    1MOL0     H  117   3.941   6.981   5.740 -0.0665  1.1230 -0.7591
    1MOL0     H  118   4.057   7.020   5.968 -0.9144 -0.8724  0.3226
    1MOL0     H  119   5.678   6.649   6.936 -0.6811 -0.0872  0.8512
    1MOL0     H  120   5.601   6.438   7.007  3.0095  1.1995 -0.4735
    1MOL0     H  121   5.247   6.286   7.315 -2.7302 -1.0508  0.9570
    1MOL0     H  122   5.264   6.114   7.471 -2.2940  3.2831 -1.1653
    1MOL0     H  123   5.217   5.925   7.599  0.4165  0.2522  0.1479
    1MOL0     H  124   5.389   5.920   7.542 -0.4562 -0.3983 -1.8142
    1MOL0     H  125   5.337   5.725   7.711 -0.6076  5.2614  0.1983
    1MOL0     H  126   5.378   5.662   7.548 -0.5351  0.0628 -0.5240
    1MOL0     H  127   5.157   5.601   7.509 -6.0427 -0.4842  1.5892
    1MOL0     H  128   5.084   5.711   7.625 -0.0764  2.4475 -0.1959
    1MOL0     H  129   5.170   5.604   7.805 -0.4438 -0.3102  0.3768
    1MOL0     H  130   5.067   5.503   7.705  0.1883 -1.6251  0.8416
    1MOL0     H  131   5.438   5.285   7.718  0.9472  2.2565  0.5322
    1MOL0     H  132   5.193   5.837   7.148  1.1117 -1.0849  0.3785
    1MOL0     H  133   5.198   6.081   6.878 -0.3804  1.1146  0.1125
    1MOL0     H  134   5.199   5.913   6.906 -0.6463 -1.7391  2.1497
    1MOL0     H  135   5.052   6.018   6.956 -0.7986 -2.4748 -2.8870
    2MOL0     O  136   9.507   4.847   4.973 -1.0748  0.2750  0.0359
    2MOL0     C  137   9.502   4.893   5.087 -0.3512  0.3222 -0.6234
    2MOL0     O  138   9.511   5.028   5.128 -0.1516  0.3972  0.1577
    2MOL0     C  139   9.525   5.118   5.027 -0.4660 -1.0716  0.2945
    2MOL0     C  140   9.411   5.194   5.009 -0.1445  0.9506 -0.0513
    2MOL0     C  141   9.408   5.281   4.901 -0.6492 -0.2319  0.3053
    2MOL0     C  142   9.524   5.303   4.827 -0.5093  0.3081 -1.4037
    2MOL0     O  143   9.504   5.412   4.740  0.7371 -0.1052 -0.7116
    2MOL0     C  144   9.629   5.469   4.687  0.6411 -0.5156  0.3906
    2MOL0     C  145   9.603   5.609   4.633  0.1956  0.8246 -0.2126
    2MOL0     C  146   9.724   5.660   4.566 -0.6017 -0.0568  0.4293
    2MOL0     C  147   9.821   5.742   4.663 -0.2010 -0.1276  0.0398
    2MOL0     C  148   9.823   5.893   4.634 -0.4646  0.3451  0.2835
    2MOL0     C  149   9.699   5.980   4.671 -0.0402 -0.4787 -0.5789
    2MOL0     C  150   9.702   6.006   4.829  0.5988  0.6434  0.4580
    2MOL0     C  151   9.581   5.978   4.907  0.3212 -0.0268  0.5210
    2MOL0     N  152   9.462   6.058   4.879  0.0772  0.1488 -0.3142
    2MOL0     C  153   9.378   6.048   4.768 -0.0821 -0.7493  0.4840
    2MOL0     C  154   9.318   6.173   4.755 -0.5743  0.4623 -1.2674
    2MOL0     C  155   9.220   6.229   4.656 -0.5105 -0.4611  0.1499
    2MOL0     C  156   9.264   6.357   4.591 -0.3630  0.2892 -0.4841
    2MOL0     C  157   9.170   6.399   4.490  0.0692  0.1750  0.5203
    2MOL0     C  158   9.231   6.518   4.406 -0.7111 -0.3382 -0.2764
    2MOL0     O  159   9.287   6.628   4.488  1.1845  0.3091  0.3823
    2MOL0     C  160   9.364   6.716   4.419 -0.4232  0.5857  0.6402
    2MOL0     C  161   9.432   6.805   4.497 -0.3461  0.0996 -0.0772
    2MOL0     C  162   9.530   6.891   4.449 -0.1714  0.4756  0.1112
    2MOL0     C  163   9.537   6.916   4.308 -0.7408 -0.2027 -0.3218
    2MOL0     C  164   9.629   7.015   4.249  0.3845 -0.2025 -0.1886
    2MOL0     O  165   9.720   7.065   4.334  0.2726  0.1924 -0.0476
    2MOL0     C  166   9.809   7.165   4.316 -0.7630 -1.5296 -0.0303
    2MOL0     C  167   9.823   7.266   4.220  0.6156  0.0456 -0.2752
    2MOL0     C  168   9.935   7.338   4.217 -0.3100  0.4569  0.4295
    2MOL0     C  169  10.032   7.332   4.313 -0.6303  0.1182  0.3967
    2MOL0     O  170  10.149   7.403   4.318  0.1329  0.7438 -0.1738
    2MOL0     C  171  10.190   7.483   4.208  0.9800 -0.2074  0.0107
    2MOL0     C  172  10.119   7.623   4.229  0.3520 -0.1860 -0.1288
    2MOL0     C  173  10.123   7.726   4.109  0.4227  0.9098  0.0038
    2MOL0     C  174  10.017   7.832   4.129 -0.5621 -0.5291  0.7428
    2MOL0     C  175  10.048   7.973   4.071 -0.2487  0.1998  0.2286
    2MOL0     C  176  10.159   8.051   4.149  0.6395 -0.1016  0.5106
    2MOL0     C  177  10.187   8.185   4.075 -0.4582  0.9346 -0.3371
    2MOL0     C  178  10.244   8.165   3.932 -0.6277 -0.2621  0.6965
    2MOL0    Cl  179  10.250   8.318   3.840 -0.2062  0.4467  0.0754
    2MOL0     C  180  10.021   7.244   4.423  0.2296 -0.1876  0.3772
    2MOL0     C  181   9.912   7.159   4.414 -0.4544 -0.0689  0.0320
    2MOL0     O  182   9.636   7.030   4.132 -0.3268  0.3164  0.6093
    2MOL0     C  183   9.449   6.839   4.230  0.6886 -0.3768  0.7123
    2MOL0     C  184   9.364   6.742   4.280  0.2616  0.4702  0.0764
    2MOL0     N  185   9.375   6.253   4.856  0.1776  0.0373 -0.1932
    2MOL0     N  186   9.451   6.185   4.926 -0.5056  0.7300  0.0761
    2MOL0     C  187   9.642   5.228   4.854 -0.3217 -0.3064 -0.7475
    2MOL0     C  188   9.645   5.139   4.958  0.0061 -0.6519  0.1437
    2MOL0     C  189   9.507   4.787   5.188  0.3971  0.2091  0.5696
    2MOL0     C  190   9.581   4.824   5.302 -0.3286  1.1524 -0.2302
    2MOL0     C  191   9.587   4.730   5.406 -0.8393  1.3125 -0.9673
    2MOL0     C  192   9.518   4.614   5.400  0.6158  1.1225 -0.3223
    2MOL0     O  193   9.498   4.523   5.504 -0.0709 -0.4791  0.2775
    2MOL0     C  194   9.431   4.570   5.626  0.4822 -0.2223  0.4999
    2MOL0     C  195   9.275   4.565   5.607 -0.0887  0.2714  0.4432
    2MOL0     C  196   9.199   4.656   5.697 -0.7580  0.3426 -0.0788
    2MOL0     C  197   9.053   4.649   5.658  0.2354 -0.3579  0.2621
    2MOL0     C  198   8.977   4.759   5.725 -0.3663  0.6600  0.1720
    2MOL0     C  199   8.922   4.855   5.772 -0.9954  0.1156  0.3824
    2MOL0     C  200   9.449   4.575   5.288 -0.0460 -0.0581 -0.7906
    2MOL0     C  201   9.443   4.661   5.175  0.5911  0.1582 -0.5474
    2MOL0     C  202   9.376   4.599   5.052 -0.2670 -0.2087 -0.0589
    2MOL0     H  203   9.333   5.172   5.082  0.1274 -0.6644 -0.2018
    2MOL0     H  204   9.320   5.344   4.889 -1.8758 -1.7744  0.8665
    2MOL0     H  205   9.698   5.492   4.769  0.8921  3.1254 -0.6780
    2MOL0     H  206   9.677   5.401   4.617 -2.7942 -1.2942 -1.4380
    2MOL0     H  207   9.587   5.678   4.716  1.1872 -2.3566  2.8461
    2MOL0     H  208   9.511   5.618   4.575  1.0286  2.1279 -1.4026
    2MOL0     H  209   9.683   5.731   4.494  1.1492 -0.0168 -0.5926
    2MOL0     H  210   9.775   5.579   4.513  0.3451 -2.0826  4.0944
    2MOL0     H  211   9.807   5.719   4.769  0.3629  0.4618  0.2507
    2MOL0     H  212   9.926   5.718   4.640 -0.8360 -1.8522 -1.2528
    2MOL0     H  213   9.917   5.940   4.667  0.2826 -0.1677 -1.0464
    2MOL0     H  214   9.840   5.910   4.527  1.0051  0.0319  0.4429
    2MOL0     H  215   9.707   6.080   4.628 -1.9294  0.9985  2.1402
    2MOL0     H  216   9.605   5.940   4.631 -0.7264 -0.8089  1.2529
    2MOL0     H  217   9.742   6.105   4.851  1.6708 -0.5238  4.7120
    2MOL0     H  218   9.772   5.940   4.882  1.9917  1.0004 -0.8587
    2MOL0     H  219   9.561   5.871   4.909 -1.2031  0.2455  0.6169
    2MOL0     H  220   9.609   6.013   5.007  4.3637  1.7396 -0.9952
    2MOL0     H  221   9.357   5.961   4.707  0.0184  0.2431 -1.0095
    2MOL0     H  222   9.208   6.145   4.586  2.6114  1.1653 -2.6115
    2MOL0     H  223   9.129   6.251   4.713  0.2450  2.6484  0.3630
    2MOL0     H  224   9.279   6.431   4.670 -3.3935 -0.1059  0.5957
    2MOL0     H  225   9.363   6.354   4.544 -0.3740  2.5970 -0.7690
    2MOL0     H  226   9.077   6.432   4.536 -1.2638 -1.7576 -0.6650
    2MOL0     H  227   9.126   6.320   4.429 -1.0267  0.3662  1.0429
    2MOL0     H  228   9.158   6.553   4.332  0.2123 -0.5834 -1.3340
    2MOL0     H  229   9.312   6.472   4.348  1.6222 -0.6737  2.9465
    2MOL0     H  230   9.440   6.790   4.604  2.0634 -2.4807 -0.5241
    2MOL0     H  231   9.605   6.925   4.520  1.8770  1.1643 -2.2105
    2MOL0     H  232   9.767   7.289   4.130  2.2732  2.2616 -0.8422
    2MOL0     H  233   9.944   7.410   4.136 -0.2741 -0.0427 -0.0107
    2MOL0     H  234  10.299   7.498   4.205  0.8937  1.2982  1.9199
    2MOL0     H  235  10.160   7.447   4.110  0.0585 -1.3788  0.6981
    2MOL0     H  236  10.013   7.606   4.252  0.9656 -3.2704  0.8401
    2MOL0     H  237  10.175   7.669   4.310  0.9832  1.0268 -1.2016
    2MOL0     H  238  10.226   7.754   4.086  0.9235  0.2170  1.3000
    2MOL0     H  239  10.093   7.663   4.024 -1.0208  0.2379  0.9687
    2MOL0     H  240  10.005   7.846   4.237  1.6292  2.0398  0.7625
    2MOL0     H  241   9.915   7.803   4.103 -0.6467 -0.4596  0.9935
    2MOL0     H  242   9.954   8.028   4.079 -1.1900 -1.5822  2.5787
    2MOL0     H  243  10.062   7.965   3.963 -2.0266  0.3632 -0.0402
    2MOL0     H  244  10.123   8.059   4.251  0.5320  2.0600  0.3665
    2MOL0     H  245  10.252   7.994   4.152  1.3398  1.0456  1.5935
    2MOL0     H  246  10.261   8.245   4.129  1.1110  0.9961 -2.4339
    2MOL0     H  247  10.101   8.249   4.056  0.0931  1.9085  0.3555
    2MOL0     H  248  10.351   8.143   3.937 -0.4300  0.7654  1.3447
    2MOL0     H  249  10.186   8.095   3.871  0.1086 -1.1982  1.0401
    2MOL0     H  250  10.094   7.261   4.502 -0.1948 -3.1637  1.5395
    2MOL0     H  251   9.907   7.077   4.484  2.2301 -1.0139 -0.7848
    2MOL0     H  252   9.443   6.847   4.122  1.3224 -1.2681  0.6064
    2MOL0     H  253   9.314   6.678   4.208  0.4009 -0.3364  0.6890
    2MOL0     H  254   9.735   5.253   4.805  0.8146 -2.8494 -0.0339
    2MOL0     H  255   9.736   5.081   4.976 -1.8181 -3.0921  2.2995
    2MOL0     H  256   9.629   4.920   5.320  0.0475  0.5737  2.1510
    2MOL0     H  257   9.651   4.737   5.494 -2.9956  0.2083  0.7914
    2MOL0     H  258   9.461   4.673   5.646  0.9534  0.1815 -1.9741
    2MOL0     H  259   9.462   4.513   5.714  1.6956 -0.8488 -0.3112
    2MOL0     H  260   9.251   4.460   5.627  1.0246 -0.2113 -0.6266
    2MOL0     H  261   9.257   4.571   5.500  1.8990 -0.9206  0.0005
    2MOL0     H  262   9.227   4.758   5.669 -3.4201  2.0382  2.8807
    2MOL0     H  263   9.215   4.632   5.802  1.3613 -2.7972 -0.9648
    2MOL0     H  264   9.036   4.662   5.551  0.7844  0.7577  0.2907
    2MOL0     H  265   9.007   4.552   5.677 -1.4938  0.7373  2.1221
    2MOL0     H  266   8.853   4.934   5.793 -1.8238 -0.4568 -0.1000
    2MOL0     H  267   9.412   4.473   5.283  1.2047 -0.7885  2.4687
    2MOL0     H  268   9.295   4.661   5.012  1.5838  0.9766 -2.1993
    2MOL0     H  269   9.448   4.592   4.970 -0.9603 -0.3754 -0.6642
    2MOL0     H  270   9.348   4.494   5.067  1.2546 -0.5449  0.6182
    3MOL0     O  271   8.935   5.642   1.273  0.8270  0.2922 -0.7453
    3MOL0     C  272   9.049   5.630   1.238 -0.5913 -0.1066  0.4524
    3MOL0     O  273   9.091   5.631   1.110 -0.6510 -0.3281  0.5557
    3MOL0     C  274   9.000   5.586   1.015  0.4615  0.2498 -0.2430
    3MOL0     C  275   8.888   5.669   0.977  0.7476 -0.3279  0.3360
    3MOL0     C  276   8.792   5.605   0.891 -0.4275  0.1085 -0.2875
    3MOL0     C  277   8.803   5.472   0.853 -0.7243 -0.4386  0.2375
    3MOL0     O  278   8.707   5.403   0.787 -0.4684 -0.7189 -0.2343
    3MOL0     C  279   8.568   5.451   0.786 -0.1090  0.2274  0.4670
    3MOL0     C  280   8.500   5.466   0.917  0.6007 -0.7270 -1.1825
    3MOL0     C  281   8.466   5.339   0.985  0.5471  0.2400 -0.0846
    3MOL0     C  282   8.313   5.297   0.969  0.0081  0.5427  0.0574
    3MOL0     C  283   8.268   5.250   0.827 -0.2871 -0.5933 -0.2889
    3MOL0     C  284   8.357   5.128   0.786  0.6003  0.6132 -0.3098
    3MOL0     C  285   8.336   5.082   0.638 -0.2974  0.0284 -0.3076
    3MOL0     C  286   8.218   5.148   0.552 -0.4402  0.3061  0.0386
    3MOL0     N  287   8.226   5.119   0.411  0.4553  1.1643  0.4636
    3MOL0     C  288   8.292   5.186   0.309 -0.4380 -0.0330  0.9785
    3MOL0     C  289   8.254   5.128   0.194 -0.6417 -0.6540  0.0094
    3MOL0     C  290   8.279   5.197   0.060 -0.4653 -0.1458  0.2947
    3MOL0     C  291   8.198   5.320   0.034  0.8706 -0.3197 -0.0247
    3MOL0     C  292   8.069   5.296  -0.058 -0.5572  0.2093 -0.7431
    3MOL0     C  293   7.945   5.231   0.010  0.3123 -0.2348  0.0133
    3MOL0     O  294   7.902   5.321   0.113  0.3727  0.4002 -0.1208
    3MOL0     C  295   7.796   5.261   0.172  1.3012  0.5352  0.3303
    3MOL0     C  296   7.816   5.149   0.249  0.3269  0.3936  0.1236
    3MOL0     C  297   7.715   5.062   0.285 -0.0020  0.7589  0.6631
    3MOL0     C  298   7.579   5.113   0.264  0.4930 -0.6132  0.3955
    3MOL0     C  299   7.457   5.036   0.318  0.4254  0.2260 -0.0697
    3MOL0     O  300   7.476   4.906   0.365  0.1989  0.3569  0.4773
    3MOL0     C  301   7.363   4.848   0.410  0.2886  0.3431 -0.4808
    3MOL0     C  302   7.353   4.818   0.543 -0.5200  0.4088 -0.5621
    3MOL0     C  303   7.250   4.751   0.604  0.4976  0.2850  0.8492
    3MOL0     C  304   7.144   4.709   0.526  0.8451 -0.4072 -0.1402
    3MOL0     O  305   7.050   4.636   0.592 -0.1797  0.3202 -0.3524
    3MOL0     C  306   6.944   4.566   0.520 -0.1827  1.2735  0.2237
    3MOL0     C  307   6.848   4.490   0.614  0.1801 -0.1761  0.3783
    3MOL0     C  308   6.791   4.571   0.731 -0.8309 -0.0736  0.5967
    3MOL0     C  309   6.771   4.488   0.859 -0.6053  0.1419  0.0433
    3MOL0     C  310   6.670   4.552   0.961  0.3652 -0.0350 -0.1340
    3MOL0     C  311   6.682   4.458   1.088 -0.3200  0.3855  0.0586
    3MOL0     C  312   6.577   4.509   1.189 -0.5827  0.1214  1.0379
    3MOL0     C  313   6.569   4.412   1.309 -0.0844  0.4844  0.2438
    3MOL0    Cl  314   6.720   4.396   1.393  0.4026  0.0047 -0.4792
    3MOL0     C  315   7.143   4.751   0.388 -0.4068 -0.2718 -0.1061
    3MOL0     C  316   7.257   4.810   0.328  0.5651 -1.1281 -0.0904
    3MOL0     O  317   7.346   5.095   0.302  0.4870 -0.4166  0.5378
    3MOL0     C  318   7.553   5.236   0.202 -0.1440  0.8145  0.1252
    3MOL0     C  319   7.662   5.305   0.148 -0.5273 -0.0570 -0.2171
    3MOL0     N  320   8.177   5.018   0.223  0.6781 -0.5943  0.4775
    3MOL0     N  321   8.154   5.018   0.349  0.0851 -0.5432  0.5354
    3MOL0     C  322   8.917   5.400   0.887  0.6416 -0.3287  0.3251
    3MOL0     C  323   9.013   5.457   0.970 -0.6707 -0.0874  0.1430
    3MOL0     C  324   9.154   5.627   1.345 -0.3032 -0.1237  0.6779
    3MOL0     C  325   9.286   5.650   1.317  1.1862 -0.2313  0.3437
    3MOL0     C  326   9.386   5.653   1.407  0.4268  0.0865 -0.4006
    3MOL0     C  327   9.362   5.633   1.542  0.9557 -1.1040 -0.0660
    3MOL0     O  328   9.469   5.627   1.624  0.2063 -0.1180 -0.4681
    3MOL0     C  329   9.490   5.746   1.704 -0.4281  0.1763  0.2337
    3MOL0     C  330   9.471   5.731   1.856 -0.3237  0.2849  0.2608
    3MOL0     C  331   9.490   5.864   1.921  0.8515 -0.5447  0.0099
    3MOL0     C  332   9.474   5.843   2.065  0.5858 -0.4838 -0.6900
    3MOL0     C  333   9.511   5.952   2.143 -0.4724  0.8698  0.8720
    3MOL0     C  334   9.560   6.033   2.219  0.8537  0.2362  0.0346
    3MOL0     C  335   9.230   5.628   1.582  0.6597 -0.1661  0.3866
    3MOL0     C  336   9.127   5.617   1.484 -0.0411  0.7675 -0.9417
    3MOL0     C  337   8.994   5.591   1.552 -0.3215 -0.0056 -0.3799
    3MOL0     H  338   8.872   5.773   1.002  0.4822 -0.4127  0.5237
    3MOL0     H  339   8.706   5.663   0.860 -1.9990 -2.1047 -0.2751
    3MOL0     H  340   8.565   5.546   0.733 -1.7185  0.5654  1.1165
    3MOL0     H  341   8.522   5.384   0.713  2.3376  2.7339 -3.7774
    3MOL0     H  342   8.410   5.525   0.896  0.6151  0.3611  1.4499
    3MOL0     H  343   8.568   5.524   0.979  1.2394 -2.1906 -0.4819
    3MOL0     H  344   8.477   5.354   1.093 -1.9228 -2.5834  0.6810
    3MOL0     H  345   8.542   5.263   0.961  0.0194 -0.8936  1.6862
    3MOL0     H  346   8.287   5.205   1.022 -1.8373 -0.7546 -2.8233
    3MOL0     H  347   8.241   5.374   0.995 -1.0458 -0.2198 -0.4944
    3MOL0     H  348   8.161   5.230   0.818 -0.6506 -0.9362  3.2207
    3MOL0     H  349   8.296   5.332   0.759 -1.7189  0.3730  0.2374
    3MOL0     H  350   8.461   5.161   0.798  0.7674 -0.4104  1.4585
    3MOL0     H  351   8.335   5.048   0.857 -1.9813  0.3805 -1.2551
    3MOL0     H  352   8.307   4.977   0.622  4.3915 -1.2363 -2.4370
    3MOL0     H  353   8.431   5.103   0.587  0.2746 -1.5944  0.0133
    3MOL0     H  354   8.128   5.105   0.596 -1.4032  3.5745  1.6378
    3MOL0     H  355   8.214   5.254   0.579  1.4296 -0.0951  2.2691
    3MOL0     H  356   8.340   5.284   0.311  0.7022 -0.5801  1.1461
    3MOL0     H  357   8.385   5.226   0.054 -0.5542 -0.0278 -0.8146
    3MOL0     H  358   8.269   5.125  -0.021  1.9076 -0.4261  0.1657
    3MOL0     H  359   8.164   5.379   0.119  0.4268  0.1841 -0.5367
    3MOL0     H  360   8.262   5.394  -0.015  0.7865 -1.3614 -1.8116
    3MOL0     H  361   8.100   5.242  -0.148 -1.7483  2.4091 -2.5696
    3MOL0     H  362   8.041   5.392  -0.103  1.1951  1.0948 -0.0698
    3MOL0     H  363   7.981   5.136   0.049  1.1527  0.2000  0.3160
    3MOL0     H  364   7.868   5.221  -0.067  2.5408 -2.7219 -2.0897
    3MOL0     H  365   7.922   5.132   0.269 -0.0696  0.3202  2.3759
    3MOL0     H  366   7.718   4.968   0.340 -3.1223 -0.1437 -0.4692
    3MOL0     H  367   7.434   4.854   0.607 -0.3110  1.4907 -1.4099
    3MOL0     H  368   7.261   4.734   0.710  1.3495 -0.7883  0.6103
    3MOL0     H  369   6.886   4.634   0.457  2.6392  2.5692 -1.1177
    3MOL0     H  370   7.000   4.488   0.468  2.2421  1.2281  2.6818
    3MOL0     H  371   6.768   4.461   0.545  0.6702 -1.6702  0.4102
    3MOL0     H  372   6.892   4.396   0.646  1.0018 -0.8140 -2.3410
    3MOL0     H  373   6.851   4.663   0.738 -2.1408  0.9368 -0.7746
    3MOL0     H  374   6.693   4.615   0.710  0.0088  2.4085  1.4258
    3MOL0     H  375   6.867   4.475   0.910 -1.0970 -0.3262  0.8717
    3MOL0     H  376   6.729   4.393   0.825 -1.2066  0.9164 -1.4240
    3MOL0     H  377   6.565   4.557   0.931  0.8212 -1.1184 -2.1216
    3MOL0     H  378   6.696   4.656   0.982 -3.1895  2.1350 -4.6740
    3MOL0     H  379   6.667   4.352   1.068  0.7236  0.1442  0.4637
    3MOL0     H  380   6.780   4.469   1.136  0.1321 -2.0391 -0.1946
    3MOL0     H  381   6.481   4.498   1.137 -0.3524 -3.3350  1.0733
    3MOL0     H  382   6.603   4.610   1.221  1.1223 -0.5765  2.0116
    3MOL0     H  383   6.483   4.448   1.367 -1.3294 -0.0982 -1.1607
    3MOL0     H  384   6.538   4.317   1.263  1.3614 -0.4947  1.2059
    3MOL0     H  385   7.063   4.735   0.317 -1.0680  0.6295  0.4222
    3MOL0     H  386   7.270   4.844   0.225 -1.8478  1.4088  0.3320
    3MOL0     H  387   7.453   5.276   0.186  0.0846  0.6242 -2.0403
    3MOL0     H  388   7.644   5.399   0.097 -0.7301  0.6714  1.1500
    3MOL0     H  389   8.934   5.301   0.846  0.7585  0.5047 -1.7743
    3MOL0     H  390   9.100   5.399   0.999 -0.7127 -0.5028 -0.5342
    3MOL0     H  391   9.320   5.681   1.219  1.4239  1.2369  0.8693
    3MOL0     H  392   9.487   5.662   1.368  0.3401 -0.2821 -0.7136
    3MOL0     H  393   9.416   5.822   1.676 -0.1453 -0.1861 -1.6298
    3MOL0     H  394   9.588   5.789   1.683 -2.2455  3.1435 -3.3687
    3MOL0     H  395   9.547   5.659   1.887 -0.3593 -0.6207 -1.6076
    3MOL0     H  396   9.377   5.684   1.885 -1.5071  3.0572  1.2030
    3MOL0     H  397   9.421   5.943   1.888  2.1398  0.0256 -1.4139
    3MOL0     H  398   9.588   5.906   1.896  1.9250 -2.8247  0.1870
    3MOL0     H  399   9.373   5.810   2.092  0.1580  0.7303 -0.7251
    3MOL0     H  400   9.545   5.766   2.098  1.1392  1.4555  3.2067
    3MOL0     H  401   9.601   6.086   2.303  3.0442 -1.3650  0.0780
    3MOL0     H  402   9.206   5.600   1.684  2.2815 -1.5589  0.4249
    3MOL0     H  403   8.936   5.508   1.510 -1.2745  0.6988 -0.4883
    3MOL0     H  404   9.000   5.577   1.660  0.9944 -2.5573 -0.7143
    3MOL0     H  405   8.924   5.674   1.540  0.9056  1.2902  1.0331
    4MOL0     O  406   6.097   9.246   0.510 -0.0005  0.1585  0.0453
    4MOL0     C  407   6.031   9.145   0.521 -1.0299 -0.1781 -0.8746
    4MOL0     O  408   6.058   9.020   0.475 -0.7034  0.8452 -0.1671
    4MOL0     C  409   6.168   8.994   0.400  0.4141 -0.3786  0.2774
    4MOL0     C  410   6.195   9.071   0.287 -0.2631  0.8357  0.6745
    4MOL0     C  411   6.295   9.031   0.198  0.5706 -1.0345  0.8283
    4MOL0     C  412   6.362   8.909   0.220  0.2270  0.1387 -0.1211
    4MOL0     O  413   6.459   8.862   0.136  0.1035  0.3482 -0.1372
    4MOL0     C  414   6.436   8.877  -0.001  0.2937 -0.6430  0.1726
    4MOL0     C  415   6.532   8.771  -0.060 -0.8279 -0.6172 -1.6922
    4MOL0     C  416   6.493   8.626  -0.023 -1.1560 -0.2196 -0.3158
    4MOL0     C  417   6.614   8.538  -0.059 -0.2892 -0.4863  0.9808
    4MOL0     C  418   6.613   8.398   0.011  0.1701  0.1671 -0.9348
    4MOL0     C  419   6.486   8.323  -0.027  0.5707  1.4280 -0.5660
    4MOL0     C  420   6.486   8.177   0.006 -0.3921 -0.7830  0.1019
    4MOL0     C  421   6.350   8.119   0.028  0.2944  0.1290 -0.5008
    4MOL0     N  422   6.269   8.132  -0.090  0.2262  0.9604  0.3528
    4MOL0     C  423   6.176   8.232  -0.106  0.0574 -0.3970 -0.0965
    4MOL0     C  424   6.148   8.246  -0.229  0.1100  0.1654  0.4372
    4MOL0     C  425   6.065   8.352  -0.297  0.4394  0.6300 -0.0308
    4MOL0     C  426   6.124   8.489  -0.270 -0.1924 -0.4886  0.1217
    4MOL0     C  427   6.025   8.592  -0.324 -0.5478  0.0766  0.7907
    4MOL0     C  428   6.093   8.730  -0.336  0.0068  0.2757 -0.6965
    4MOL0     O  429   6.124   8.786  -0.202  0.2721  0.5750 -0.6948
    4MOL0     C  430   6.162   8.918  -0.208  0.3654 -0.6213  0.7220
    4MOL0     C  431   6.082   9.016  -0.145 -0.2494 -0.5323  0.5720
    4MOL0     C  432   6.101   9.144  -0.164  0.1791 -1.2390  0.0123
    4MOL0     C  433   6.207   9.198  -0.248  0.4225  0.0680  0.4183
    4MOL0     C  434   6.232   9.338  -0.278 -0.3683 -0.6861 -0.0974
    4MOL0     O  435   6.331   9.364  -0.370  0.6292 -0.1341  0.4591
    4MOL0     C  436   6.354   9.491  -0.414  0.3044 -0.4216 -0.1634
    4MOL0     C  437   6.260   9.599  -0.437  0.0837  0.3303 -0.2936
    4MOL0     C  438   6.300   9.720  -0.480 -0.1624  0.3480  0.2893
    4MOL0     C  439   6.428   9.758  -0.514  0.2252  0.3706 -0.7455
    4MOL0     O  440   6.461   9.884  -0.549  0.0318  0.1386 -0.6401
    4MOL0     C  441   6.582   9.888  -0.629  0.0982  0.0417 -0.3588
    4MOL0     C  442   6.553  10.026  -0.689  0.8115 -0.0517  0.7435
    4MOL0     C  443   6.655  10.048  -0.800  0.0150 -0.6100  1.0674
    4MOL0     C  444   6.628  10.184  -0.864  0.3077  0.2840 -0.2734
    4MOL0     C  445   6.734  10.217  -0.970  0.1676 -0.9171  0.3183
    4MOL0     C  446   6.883  10.238  -0.919  0.5123  0.8327 -1.0323
    4MOL0     C  447   6.990  10.263  -1.027  0.9357 -0.4848 -0.3657
    4MOL0     C  448   7.135  10.224  -0.979  0.1493 -0.3858  1.1590
    4MOL0    Cl  449   7.260  10.289  -1.107 -0.0965  0.0308  0.0384
    4MOL0     C  450   6.523   9.657  -0.492  0.7455  0.3877 -1.0449
    4MOL0     C  451   6.485   9.525  -0.446  0.3691  0.8865  0.7183
    4MOL0     O  452   6.148   9.424  -0.244 -0.4563 -0.3331  0.0309
    4MOL0     C  453   6.286   9.097  -0.307  0.1077 -0.1208 -1.4228
    4MOL0     C  454   6.271   8.962  -0.284 -0.2032 -0.1632 -0.4026
    4MOL0     N  455   6.218   8.156  -0.311 -0.2534  0.0635 -0.1993
    4MOL0     N  456   6.284   8.092  -0.220 -0.9101  0.2583  0.0223
    4MOL0     C  457   6.346   8.840   0.342 -0.8668 -1.1584 -0.4739
    4MOL0     C  458   6.249   8.889   0.430 -0.0148  0.1724  0.7423
    4MOL0     C  459   5.893   9.168   0.570  0.7606  0.5998 -0.6274
    4MOL0     C  460   5.853   9.110   0.691 -0.4105  0.3604 -0.5424
    4MOL0     C  461   5.740   9.149   0.764 -0.5360 -0.7331  0.4325
    4MOL0     C  462   5.648   9.238   0.705  0.2884  0.0267  0.6109
    4MOL0     O  463   5.535   9.250   0.768 -0.0962 -0.6219  0.0035
    4MOL0     C  464   5.419   9.301   0.705 -0.6102 -0.3806  0.4177
    4MOL0     C  465   5.345   9.204   0.617  1.1220  0.5213  0.0332
    4MOL0     C  466   5.213   9.268   0.555  0.5900  0.0995 -0.0519
    4MOL0     C  467   5.123   9.156   0.492  0.2914  0.0872  0.0689
    4MOL0     C  468   5.061   9.074   0.600  0.8658  0.6418 -0.3476
    4MOL0     C  469   5.000   9.028   0.698  0.4172 -0.0925 -0.3513
    4MOL0     C  470   5.689   9.304   0.583  0.3410 -0.5271 -0.9647
    4MOL0     C  471   5.808   9.270   0.514  0.9051 -0.2005 -0.0030
    4MOL0     C  472   5.826   9.328   0.371  0.8657 -0.0854 -0.0994
    4MOL0     H  473   6.126   9.152   0.267  1.1725  2.0504  0.5161
    4MOL0     H  474   6.304   9.096   0.111  2.9179  0.3442  1.9823
    4MOL0     H  475   6.333   8.850  -0.026  1.1247 -2.2306 -1.8701
    4MOL0     H  476   6.469   8.973  -0.042  2.3190 -2.2713 -2.3886
    4MOL0     H  477   6.633   8.795  -0.022 -1.9161 -0.9316  1.7862
    4MOL0     H  478   6.532   8.773  -0.169  0.0629 -2.0963 -1.7557
    4MOL0     H  479   6.406   8.588  -0.076 -1.6623  0.1673  0.2174
    4MOL0     H  480   6.478   8.620   0.085  0.0996 -2.0757 -0.2115
    4MOL0     H  481   6.624   8.510  -0.164  3.0131 -3.2133  1.8692
    4MOL0     H  482   6.705   8.590  -0.028 -0.6717 -0.2114  1.6596
    4MOL0     H  483   6.695   8.345  -0.038  0.5329 -3.4086  3.0096
    4MOL0     H  484   6.623   8.391   0.119 -0.1555  3.3009 -0.5917
    4MOL0     H  485   6.400   8.372   0.021  0.7810  0.3070  1.0186
    4MOL0     H  486   6.474   8.321  -0.136 -1.7995  3.3060 -0.4225
    4MOL0     H  487   6.536   8.164   0.103 -2.8590 -0.7615  1.4550
    4MOL0     H  488   6.541   8.128  -0.075 -0.8666  2.7549 -2.5468
    4MOL0     H  489   6.370   8.013   0.046  4.0809  0.2742 -2.7701
    4MOL0     H  490   6.295   8.177   0.103 -0.3895 -0.1465 -0.7831
    4MOL0     H  491   6.137   8.298  -0.028  0.3591  1.5386 -1.5050
    4MOL0     H  492   6.047   8.334  -0.404  0.7099  0.9171 -0.1278
    4MOL0     H  493   5.965   8.346  -0.253  0.0162 -0.3331 -1.0731
    4MOL0     H  494   6.142   8.508  -0.164 -0.7918 -2.1622  0.5551
    4MOL0     H  495   6.219   8.502  -0.322 -0.1065 -1.8070 -0.0715
    4MOL0     H  496   5.935   8.604  -0.263 -2.5330  2.5929 -2.3291
    4MOL0     H  497   5.997   8.556  -0.424 -1.8121 -1.7822  1.7580
    4MOL0     H  498   6.025   8.796  -0.390  1.9882  2.3217 -0.8197
    4MOL0     H  499   6.189   8.713  -0.386  0.5758 -2.2277  1.0191
    4MOL0     H  500   6.017   8.985  -0.063 -1.3717 -0.1455 -0.1421
    4MOL0     H  501   6.054   9.211  -0.092  3.7540  0.5671  0.8793
    4MOL0     H  502   6.153   9.588  -0.424  0.0900  2.8252  3.4901
    4MOL0     H  503   6.222   9.795  -0.480 -0.0955  0.4205  0.7673
    4MOL0     H  504   6.676   9.888  -0.574  0.3125  1.7542 -0.6469
    4MOL0     H  505   6.599   9.815  -0.708 -1.8368 -0.2521 -0.5437
    4MOL0     H  506   6.456  10.023  -0.740  0.0414 -3.5205  2.1597
    4MOL0     H  507   6.548  10.106  -0.614  4.2606  1.0041  0.0229
    4MOL0     H  508   6.759  10.038  -0.768  0.2501  0.7491  0.7952
    4MOL0     H  509   6.651   9.981  -0.886 -2.5734  1.5464 -0.6460
    4MOL0     H  510   6.613  10.262  -0.789 -2.1817  0.1139 -0.4943
    4MOL0     H  511   6.537  10.171  -0.924 -0.2657  1.5950  0.2594
    4MOL0     H  512   6.698  10.315  -1.000 -0.3210 -0.5811  1.8822
    4MOL0     H  513   6.751  10.143  -1.048  2.2014  0.1420 -0.3189
    4MOL0     H  514   6.906  10.317  -0.848 -0.9624 -0.5559  1.1224
    4MOL0     H  515   6.894  10.139  -0.873 -1.8236 -0.4088 -2.9054
    4MOL0     H  516   6.985  10.366  -1.063 -4.6502 -0.4441 -0.2538
    4MOL0     H  517   6.962  10.208  -1.117 -1.7220 -0.3698  0.3032
    4MOL0     H  518   7.148  10.287  -0.891  1.9962  3.2352 -1.4445
    4MOL0     H  519   7.153  10.118  -0.957  0.3547 -0.1232  2.2735
    4MOL0     H  520   6.626   9.687  -0.504  0.0700  2.6607 -1.6671
    4MOL0     H  521   6.558   9.447  -0.426 -2.4391 -1.4281  2.7115
    4MOL0     H  522   6.369   9.120  -0.374  1.0358 -0.9067 -0.5816
    4MOL0     H  523   6.337   8.885  -0.324  0.8651 -0.0885  1.1374
    4MOL0     H  524   6.394   8.745   0.361 -0.1523 -0.2968  2.6536
    4MOL0     H  525   6.233   8.830   0.519  1.2139 -1.1090  0.1582
    4MOL0     H  526   5.925   9.041   0.733 -0.0052  0.2314 -1.4205
    4MOL0     H  527   5.706   9.114   0.861 -0.1738  0.2963  0.9392
    4MOL0     H  528   5.438   9.393   0.649 -0.9135  1.7815  3.5937
    4MOL0     H  529   5.349   9.336   0.782  0.3838  3.5752 -0.2408
    4MOL0     H  530   5.323   9.117   0.680  1.3680  1.1164  0.9680
    4MOL0     H  531   5.409   9.174   0.534 -2.0827 -0.4081 -2.2930
    4MOL0     H  532   5.237   9.342   0.478 -0.6968  1.2328  0.5824
    4MOL0     H  533   5.159   9.322   0.633 -0.6297  2.2022 -2.2292
    4MOL0     H  534   5.047   9.217   0.441  1.7263  4.0141  2.1711
    4MOL0     H  535   5.175   9.099   0.415  3.4055  0.9157  1.3973
    4MOL0     H  536   4.953   8.984   0.783 -1.6844 -1.6217 -2.1704
    4MOL0     H  537   5.626   9.385   0.547 -0.2802 -0.9643 -0.8833
    4MOL0     H  538   5.890   9.417   0.375  1.7220 -0.6947  0.2204
    4MOL0     H  539   5.875   9.260   0.301  0.3995 -1.6924  1.0829
    4MOL0     H  540   5.729   9.358   0.331  0.5063 -0.2629  0.6222
    5MOL0     O  541   2.130   8.099   6.070  0.5841 -0.0622  0.2913
    5MOL0     C  542   2.198   8.164   5.994  0.0310 -0.7709  0.2374
    5MOL0     O  543   2.141   8.217   5.877  0.7443 -0.0486  0.1012
    5MOL0     C  544   2.003   8.242   5.885 -1.1645 -0.2193  0.3659
    5MOL0     C  545   1.943   8.330   5.975  0.6406 -0.8245 -0.1287
    5MOL0     C  546   1.807   8.359   5.968 -0.1591 -1.0932  1.3440
    5MOL0     C  547   1.728   8.301   5.860 -0.6328 -0.5113  0.3687
    5MOL0     O  548   1.595   8.330   5.844 -0.2812 -0.0786 -0.4685
    5MOL0     C  549   1.497   8.227   5.884  0.0467  0.1415  0.1236
    5MOL0     C  550   1.479   8.222   6.034  0.1756 -0.7798 -0.3047
    5MOL0     C  551   1.428   8.351   6.083  0.0355  0.9148 -0.3427
    5MOL0     C  552   1.304   8.328   6.172  0.4411 -0.6310 -0.2198
    5MOL0     C  553   1.170   8.351   6.101  0.2920 -0.0720 -0.6098
    5MOL0     C  554   1.062   8.390   6.206  0.0106 -0.5374  0.2543
    5MOL0     C  555   0.914   8.387   6.144 -0.2632  0.4590  0.4482
    5MOL0     C  556   0.825   8.506   6.179 -0.6211  0.1539 -0.3268
    5MOL0     N  557   0.775   8.497   6.319 -0.1683 -0.3285  0.4853
    5MOL0     C  558   0.849   8.483   6.436 -0.8611  0.1978  1.0576
    5MOL0     C  559   0.748   8.461   6.522  0.5416 -0.9019  0.2127
    5MOL0     C  560   0.777   8.430   6.664 -0.6625 -0.6206  0.4870
    5MOL0     C  561   0.855   8.543   6.744  0.2517  0.3246  0.5583
    5MOL0     C  562   0.951   8.469   6.844  0.0653  0.1722 -0.8681
    5MOL0     C  563   1.069   8.387   6.789 -0.7420  0.6138 -0.2563
    5MOL0     O  564   1.119   8.455   6.671 -0.0941 -0.6235 -0.8355
    5MOL0     C  565   1.201   8.564   6.680 -0.5822  1.0788  0.0251
    5MOL0     C  566   1.234   8.642   6.564 -1.6652  0.9156  0.2116
    5MOL0     C  567   1.320   8.759   6.576  0.3589 -0.2870 -0.1812
    5MOL0     C  568   1.376   8.795   6.705  0.7699 -1.0717  0.2955
    5MOL0     C  569   1.462   8.917   6.709  0.4036 -1.0228 -0.3251
    5MOL0     O  570   1.509   8.971   6.579 -0.0996  0.5097  0.3218
    5MOL0     C  571   1.570   9.097   6.591  0.9350  0.2269 -0.1708
    5MOL0     C  572   1.702   9.107   6.563 -0.0423 -0.1627  0.8279
    5MOL0     C  573   1.769   9.233   6.545 -0.4710  1.5372  0.0622
    5MOL0     C  574   1.705   9.348   6.567  0.5715 -0.8361 -0.2105
    5MOL0     O  575   1.777   9.467   6.563 -0.3267  0.4896  0.5887
    5MOL0     C  576   1.750   9.558   6.448  0.6815 -0.2172 -0.4946
    5MOL0     C  577   1.837   9.543   6.333  0.7234  0.8008 -0.2902
    5MOL0     C  578   1.972   9.593   6.372 -0.4238 -0.6727  0.8356
    5MOL0     C  579   2.069   9.553   6.258  0.5386  0.3673 -0.6176
    5MOL0     C  580   2.226   9.578   6.277  0.0971 -0.6254  0.0540
    5MOL0     C  581   2.271   9.732   6.303  0.8794  0.1885 -0.5496
    5MOL0     C  582   2.415   9.754   6.327 -0.9487  1.4820  0.0922
    5MOL0     C  583   2.447   9.911   6.365  0.5101  0.2723 -0.5220
    5MOL0    Cl  584   2.425   9.956   6.541 -0.1347 -0.1700  0.4180
    5MOL0     C  585   1.567   9.342   6.594 -0.5298 -0.8071 -0.7772
    5MOL0     C  586   1.500   9.223   6.612  0.2464 -0.8045  0.2541
    5MOL0     O  587   1.499   8.955   6.824 -0.1722  0.3395  0.4132
    5MOL0     C  588   1.329   8.719   6.812  0.1774  0.4519  0.2387
    5MOL0     C  589   1.257   8.608   6.801 -0.0989 -0.9311  0.6024
    5MOL0     N  590   0.626   8.450   6.468 -0.3153  0.2348 -0.5986
    5MOL0     N  591   0.643   8.479   6.345  0.2542 -0.2889  0.3794
    5MOL0     C  592   1.785   8.204   5.775 -0.2082 -0.2101  0.3148
    5MOL0     C  593   1.922   8.182   5.780 -0.1567  0.0895  0.7706
    5MOL0     C  594   2.346   8.147   6.001 -0.4988  0.5519  0.2877
    5MOL0     C  595   2.422   8.133   5.883  0.4617 -0.2440 -1.1952
    5MOL0     C  596   2.567   8.125   5.884  0.6335 -0.3611 -0.0418
    5MOL0     C  597   2.636   8.101   6.003 -0.1313 -0.5136 -0.1452
    5MOL0     O  598   2.775   8.081   6.004  0.4490  0.1330 -0.5516
    5MOL0     C  599   2.850   8.073   5.891  0.2075 -0.1206 -0.0262
    5MOL0     C  600   2.975   8.023   5.930 -0.2449 -0.1090  0.5276
    5MOL0     C  601   2.958   7.896   6.024  1.0032  0.8303 -0.8240
    5MOL0     C  602   3.087   7.846   6.085 -0.1508  0.1333 -0.6876
    5MOL0     C  603   3.200   7.825   5.989 -0.2368 -0.0061 -0.0218
    5MOL0     C  604   3.294   7.794   5.920 -0.6200 -0.5388  0.0382
    5MOL0     C  605   2.564   8.101   6.117  0.4059 -0.1287  0.1546
    5MOL0     C  606   2.421   8.137   6.120 -0.1608 -0.1625  0.8304
    5MOL0     C  607   2.368   8.120   6.260 -0.0412 -0.3417  0.2248
    5MOL0     H  608   2.005   8.382   6.047 -0.1262  3.4944 -2.2672
    5MOL0     H  609   1.768   8.422   6.047 -1.4987 -0.8423  0.5196
    5MOL0     H  610   1.398   8.236   5.838 -1.2130 -0.5195  2.5229
    5MOL0     H  611   1.534   8.129   5.853 -2.5437 -0.8929  0.0178
    5MOL0     H  612   1.582   8.202   6.066  1.7903 -0.4119 -4.6673
    5MOL0     H  613   1.411   8.138   6.057  0.3028 -0.7002  0.3966
    5MOL0     H  614   1.397   8.423   6.006 -1.6353 -0.4467 -1.0178
    5MOL0     H  615   1.511   8.387   6.144 -4.1243  1.1226  6.0657
    5MOL0     H  616   1.297   8.226   6.212 -2.0862 -1.5232 -2.6376
    5MOL0     H  617   1.313   8.393   6.260 -0.8654 -0.0636 -0.4907
    5MOL0     H  618   1.189   8.424   6.022  2.8521 -1.7565 -1.7273
    5MOL0     H  619   1.134   8.263   6.046 -3.1452  1.5566 -1.2096
    5MOL0     H  620   1.059   8.319   6.289 -3.2336  0.8397  1.5026
    5MOL0     H  621   1.085   8.487   6.251  0.6250  1.0193 -3.1343
    5MOL0     H  622   0.869   8.290   6.169  1.7416 -0.8744 -0.7946
    5MOL0     H  623   0.932   8.385   6.037  2.2737 -1.0434  0.8102
    5MOL0     H  624   0.885   8.597   6.166  0.6230 -0.4951  0.6824
    5MOL0     H  625   0.736   8.519   6.117 -0.4657  3.1396 -0.0769
    5MOL0     H  626   0.950   8.491   6.475 -0.2469  3.1946 -0.7733
    5MOL0     H  627   0.685   8.413   6.721 -0.1128  4.4931  3.5719
    5MOL0     H  628   0.838   8.340   6.659 -0.7579 -0.6502 -0.2389
    5MOL0     H  629   0.925   8.604   6.687  0.8238 -0.9244 -0.1352
    5MOL0     H  630   0.779   8.606   6.791 -1.6985 -0.7386 -1.0097
    5MOL0     H  631   0.886   8.401   6.900 -2.1022  3.6699  1.3051
    5MOL0     H  632   0.992   8.541   6.916  3.2482 -1.5318 -0.7994
    5MOL0     H  633   1.037   8.289   6.753  0.6273 -0.0234  0.2282
    5MOL0     H  634   1.132   8.372   6.877  0.0416  0.9436 -0.7507
    5MOL0     H  635   1.168   8.615   6.481  2.4808 -0.4212 -2.9915
    5MOL0     H  636   1.340   8.806   6.481  2.8512 -0.0498  0.3957
    5MOL0     H  637   1.750   9.011   6.548 -3.4567 -1.7205 -1.7349
    5MOL0     H  638   1.878   9.230   6.535 -0.4309 -0.4351  0.5323
    5MOL0     H  639   1.648   9.550   6.408  0.8252 -2.2041 -0.5727
    5MOL0     H  640   1.758   9.662   6.479 -0.3647  0.6613 -2.9103
    5MOL0     H  641   1.840   9.440   6.297 -1.9982  1.2384 -2.0425
    5MOL0     H  642   1.792   9.599   6.251 -3.1320  0.8949  1.6150
    5MOL0     H  643   1.978   9.702   6.370  1.3049 -0.6862 -2.7251
    5MOL0     H  644   2.016   9.560   6.467  5.0319  2.7491 -0.0208
    5MOL0     H  645   2.022   9.607   6.175 -0.6787 -1.8734 -1.4457
    5MOL0     H  646   2.043   9.447   6.255 -1.7144  0.6538  2.9700
    5MOL0     H  647   2.293   9.547   6.196  2.1288 -0.3181  1.5284
    5MOL0     H  648   2.257   9.513   6.359  0.9784  0.1352  0.3453
    5MOL0     H  649   2.239   9.790   6.216  1.3933  0.2675 -0.6910
    5MOL0     H  650   2.221   9.777   6.389  0.5774  2.0887 -1.6581
    5MOL0     H  651   2.482   9.729   6.244  2.4482 -0.9773  3.2707
    5MOL0     H  652   2.462   9.696   6.406  0.5664  2.1999 -0.2387
    5MOL0     H  653   2.546   9.945   6.336  0.8081  0.5164  0.7385
    5MOL0     H  654   2.376   9.971   6.307 -0.5077  0.2288  0.6173
    5MOL0     H  655   1.522   9.436   6.626 -2.6565 -1.4202 -1.8021
    5MOL0     H  656   1.406   9.228   6.666  0.6689  1.3696  0.8825
    5MOL0     H  657   1.334   8.748   6.917  2.0364  0.2280  0.2404
    5MOL0     H  658   1.240   8.555   6.894 -2.3595 -1.4088 -0.0096
    5MOL0     H  659   1.729   8.161   5.692  0.3458  0.3154 -0.3461
    5MOL0     H  660   1.978   8.112   5.719 -0.9607 -3.1175  3.4222
    5MOL0     H  661   2.373   8.133   5.787 -3.1140  1.8217  0.4163
    5MOL0     H  662   2.609   8.124   5.784  1.2247  0.9516  0.1818
    5MOL0     H  663   2.859   8.163   5.829  0.2950  1.0342  1.6110
    5MOL0     H  664   2.818   7.994   5.822  5.5069 -0.1009 -3.0395
    5MOL0     H  665   3.041   8.096   5.976  2.0566 -1.3164 -0.6587
    5MOL0     H  666   3.022   7.999   5.834  1.2581 -0.6962  1.3657
    5MOL0     H  667   2.922   7.810   5.967 -1.0565 -0.1265  1.7758
    5MOL0     H  668   2.884   7.913   6.102  1.6641 -0.6661  0.1807
    5MOL0     H  669   3.118   7.920   6.159 -0.6333  1.2517 -1.5792
    5MOL0     H  670   3.060   7.749   6.129  0.0221 -0.2352 -1.3838
    5MOL0     H  671   3.378   7.770   5.858 -1.8018 -0.8912 -1.4715
    5MOL0     H  672   2.611   8.086   6.214  1.4515  4.6100  0.6098
    5MOL0     H  673   2.440   8.156   6.334  0.5571  1.2998 -1.0912
    5MOL0     H  674   2.277   8.172   6.290 -0.0045 -1.8886  3.4139
    5MOL0     H  675   2.351   8.012   6.264  2.0801 -0.8152 -1.5616
    6MOL0     O  676   2.084  10.711   5.792  0.6679  0.2946 -0.1668
    6MOL0     C  677   2.155  10.626   5.730 -0.2672  0.5371 -0.7061
    6MOL0     O  678   2.293  10.636   5.708  1.1638  0.3671 -0.5046
    6MOL0     C  679   2.363  10.759   5.725 -1.3238  0.1665  0.4118
    6MOL0     C  680   2.503  10.748   5.739  0.2789 -0.1218  0.2267
    6MOL0     C  681   2.588  10.862   5.746 -0.6326 -0.0708  0.3860
    6MOL0     C  682   2.540  10.997   5.733  0.1352 -0.3621 -0.1868
    6MOL0     O  683   2.618  11.108   5.729  0.9142 -1.3308  0.5418
    6MOL0     C  684   2.732  11.100   5.821 -0.2288  0.0843 -1.1803
    6MOL0     C  685   2.777  11.239   5.856  0.5438 -0.5991  0.4901
    6MOL0     C  686   2.884  11.234   5.969  0.3129 -0.1593  0.1845
    6MOL0     C  687   2.940  11.375   6.010  1.1974 -0.0752  0.6234
    6MOL0     C  688   3.046  11.365   6.116  0.1208  0.4366  0.3122
    6MOL0     C  689   3.030  11.469   6.222  0.6116 -0.2865  0.4545
    6MOL0     C  690   3.094  11.431   6.357  0.1455  0.9546  0.0588
    6MOL0     C  691   3.244  11.430   6.342  0.0945 -0.0040 -0.5505
    6MOL0     N  692   3.305  11.557   6.303  0.4155  0.6106  0.0079
    6MOL0     C  693   3.295  11.674   6.379  1.0651  0.6709  0.0319
    6MOL0     C  694   3.377  11.769   6.328  0.8520 -0.5062  1.2791
    6MOL0     C  695   3.408  11.904   6.390  1.3387 -0.4815 -0.4958
    6MOL0     C  696   3.333  12.003   6.301  0.9980 -0.8554 -0.3989
    6MOL0     C  697   3.186  11.999   6.323 -0.1114 -0.5454  0.1706
    6MOL0     C  698   3.127  12.135   6.294 -0.4406 -0.6491 -1.0251
    6MOL0     O  699   3.154  12.162   6.157 -0.1468 -1.0986 -0.6381
    6MOL0     C  700   3.132  12.291   6.105  0.9641  0.2112  0.1162
    6MOL0     C  701   3.186  12.327   5.976  0.2841 -0.9999  0.5209
    6MOL0     C  702   3.168  12.459   5.931  0.2761  0.7556 -0.0831
    6MOL0     C  703   3.081  12.546   5.996  0.7022 -0.5141  0.9130
    6MOL0     C  704   3.050  12.676   5.934 -0.1370 -0.8161  0.1139
    6MOL0     O  705   3.081  12.708   5.805  0.0256 -0.7779 -0.0169
    6MOL0     C  706   3.023  12.810   5.746  0.1769  0.3235  0.3347
    6MOL0     C  707   2.925  12.788   5.646 -1.5802 -0.2920  0.8995
    6MOL0     C  708   2.869  12.897   5.572  0.5079  0.9489 -0.4712
    6MOL0     C  709   2.913  13.023   5.596 -0.2366 -1.2702 -0.0825
    6MOL0     O  710   2.857  13.123   5.520 -0.7664  0.5208 -0.1126
    6MOL0     C  711   2.879  13.266   5.555 -0.1951  0.4426 -0.6948
    6MOL0     C  712   2.791  13.348   5.463 -0.2739 -0.7202  0.0735
    6MOL0     C  713   2.648  13.326   5.497  0.9387 -0.3404 -0.1642
    6MOL0     C  714   2.604  13.396   5.623  1.4073  0.3419  0.4412
    6MOL0     C  715   2.452  13.386   5.632  0.7571  0.5981  0.1822
    6MOL0     C  716   2.373  13.488   5.547  0.3218  0.1286 -1.4364
    6MOL0     C  717   2.221  13.476   5.576  0.3009  0.1825  1.0334
    6MOL0     C  718   2.138  13.371   5.518 -0.6481  0.7722 -0.2195
    6MOL0    Cl  719   2.170  13.358   5.338  0.2307  0.5052  0.0083
    6MOL0     C  720   3.002  13.051   5.688 -0.5925  0.4436 -0.2458
    6MOL0     C  721   3.063  12.943   5.766  1.1783  0.4799  0.5298
    6MOL0     O  722   2.995  12.753   6.005  0.6318 -0.1881  0.4576
    6MOL0     C  723   3.031  12.510   6.122 -0.6627 -0.0099  0.8786
    6MOL0     C  724   3.050  12.385   6.170 -0.2163  0.3444  0.8650
    6MOL0     N  725   3.430  11.705   6.217  0.1278  0.1772  0.0312
    6MOL0     N  726   3.385  11.587   6.200  0.1193 -0.8078  0.9013
    6MOL0     C  727   2.399  11.008   5.712 -0.2335  0.0507 -0.1639
    6MOL0     C  728   2.315  10.895   5.719  0.7245 -0.1822 -0.0241
    6MOL0     C  729   2.111  10.510   5.650  0.2981 -0.2755  0.2455
    6MOL0     C  730   2.168  10.501   5.520 -1.1753 -0.0648  0.0571
    6MOL0     C  731   2.131  10.392   5.439  0.3603 -0.3215  0.5606
    6MOL0     C  732   2.021  10.314   5.467 -0.7485  0.3794 -0.8030
    6MOL0     O  733   1.999  10.208   5.383  0.0873 -0.2125 -0.1179
    6MOL0     C  734   1.920  10.089   5.406 -0.0327  0.4391 -0.3533
    6MOL0     C  735   1.767  10.107   5.389 -0.6037  1.1080  0.5516
    6MOL0     C  736   1.736  10.136   5.243 -0.1170  0.1942 -0.1626
    6MOL0     C  737   1.784  10.013   5.161  0.2458 -0.6490  0.3690
    6MOL0     C  738   1.688  10.003   5.044 -0.5448  0.2385  0.3364
    6MOL0     C  739   1.621   9.994   4.942  0.1500 -0.3526 -0.1964
    6MOL0     C  740   1.968  10.326   5.596 -0.5159  0.3228  0.0290
    6MOL0     C  741   2.012  10.424   5.689  0.0153  0.3627  0.2512
    6MOL0     C  742   1.936  10.445   5.811 -0.2097 -0.0754 -0.6694
    6MOL0     H  743   2.543  10.648   5.745 -1.6387 -0.9820 -0.7318
    6MOL0     H  744   2.692  10.848   5.774 -0.9483 -0.6131  1.2833
    6MOL0     H  745   2.704  11.055   5.916 -1.5207  0.5005 -1.3391
    6MOL0     H  746   2.809  11.032   5.784  0.9717 -0.0455  1.3679
    6MOL0     H  747   2.694  11.290   5.906  1.8350  1.0674  0.9851
    6MOL0     H  748   2.811  11.279   5.760  3.9439 -2.1682  0.8917
    6MOL0     H  749   2.969  11.166   5.957  1.8407  1.3210  1.9637
    6MOL0     H  750   2.824  11.194   6.051 -2.3551  0.8733 -1.1214
    6MOL0     H  751   2.977  11.427   5.921 -1.0941 -2.6980 -2.1085
    6MOL0     H  752   2.855  11.428   6.055  1.4210 -1.8852  3.4681
    6MOL0     H  753   3.056  11.267   6.163 -1.2313  0.1168 -0.0051
    6MOL0     H  754   3.148  11.376   6.078  0.4199  1.3110  1.3473
    6MOL0     H  755   3.080  11.560   6.187 -4.1279  3.0169  1.3287
    6MOL0     H  756   2.924  11.492   6.237  0.8215 -0.3001  2.1612
    6MOL0     H  757   3.060  11.333   6.392 -1.0847  1.5345  0.5624
    6MOL0     H  758   3.053  11.496   6.436  0.8422 -0.1724  1.3933
    6MOL0     H  759   3.279  11.390   6.437 -2.0775 -1.7254 -0.4113
    6MOL0     H  760   3.270  11.358   6.263 -1.3742 -1.8951  0.6075
    6MOL0     H  761   3.235  11.690   6.468 -1.2097  0.5206 -1.3906
    6MOL0     H  762   3.381  11.919   6.495 -0.0037 -1.7551 -0.6313
    6MOL0     H  763   3.514  11.931   6.382  2.0161 -2.7098  0.1833
    6MOL0     H  764   3.359  12.099   6.345 -2.1143 -0.9426  1.9523
    6MOL0     H  765   3.363  11.996   6.195 -0.7924 -1.9905 -0.8696
    6MOL0     H  766   3.169  11.976   6.428 -1.0083 -0.0968  0.1318
    6MOL0     H  767   3.147  11.925   6.253  0.1548 -2.2331  1.7508
    6MOL0     H  768   3.176  12.204   6.364 -0.2670 -3.5064  1.8803
    6MOL0     H  769   3.022  12.136   6.322 -0.8205  1.8770 -2.2584
    6MOL0     H  770   3.259  12.264   5.925  1.1244 -0.2264  0.7360
    6MOL0     H  771   3.207  12.483   5.833 -1.5268 -2.5288 -1.7796
    6MOL0     H  772   2.893  12.691   5.609  0.7478 -0.2737 -1.5110
    6MOL0     H  773   2.797  12.889   5.491 -0.6008 -0.2463  0.5835
    6MOL0     H  774   2.853  13.293   5.658 -0.2077 -0.5520 -0.4196
    6MOL0     H  775   2.985  13.290   5.548 -0.8387  4.2699  0.6247
    6MOL0     H  776   2.808  13.456   5.471  2.0144 -0.9517 -0.9540
    6MOL0     H  777   2.808  13.314   5.361 -0.8038  2.1098 -1.0627
    6MOL0     H  778   2.592  13.369   5.413 -2.0201 -0.4036  1.6167
    6MOL0     H  779   2.623  13.220   5.510  1.7117 -0.2835  2.2373
    6MOL0     H  780   2.639  13.499   5.627  3.0600 -0.1686 -0.0125
    6MOL0     H  781   2.646  13.356   5.716  0.2487 -0.2161  0.7394
    6MOL0     H  782   2.418  13.404   5.735 -1.4614  0.1227 -0.4226
    6MOL0     H  783   2.409  13.287   5.615 -0.5634  1.2130 -0.1349
    6MOL0     H  784   2.389  13.590   5.585 -1.8552 -0.8803  2.7708
    6MOL0     H  785   2.399  13.465   5.443  0.4129 -2.9506 -0.8121
    6MOL0     H  786   2.177  13.567   5.533 -0.8245 -0.8184 -0.0377
    6MOL0     H  787   2.210  13.486   5.684  0.2112  2.8154  0.8530
    6MOL0     H  788   2.147  13.279   5.577 -1.4036  2.2216  2.2416
    6MOL0     H  789   2.033  13.398   5.523 -1.3261 -1.2884 -1.7943
    6MOL0     H  790   3.050  13.148   5.702  1.9676 -0.4934 -1.8394
    6MOL0     H  791   3.141  12.966   5.838 -0.0021  2.5534  1.2395
    6MOL0     H  792   2.993  12.592   6.182  2.0547  1.7964  0.2921
    6MOL0     H  793   2.983  12.345   6.245  0.9050 -2.9715  0.2469
    6MOL0     H  794   2.350  11.102   5.690  0.8263  0.5017 -0.6879
    6MOL0     H  795   2.208  10.916   5.716  0.0070 -3.4647 -2.3944
    6MOL0     H  796   2.241  10.566   5.473  1.2129 -4.3846 -3.0079
    6MOL0     H  797   2.164  10.383   5.336  2.0651  0.3445  1.0184
    6MOL0     H  798   1.941  10.058   5.508 -1.6405  2.6206  0.7299
    6MOL0     H  799   1.952  10.013   5.333 -4.3519  0.9424 -3.1220
    6MOL0     H  800   1.729  10.178   5.462 -0.7718 -1.1334  2.7872
    6MOL0     H  801   1.719  10.016   5.426 -1.3193  2.4362  3.1258
    6MOL0     H  802   1.786  10.231   5.219 -2.5908  1.6237 -0.0452
    6MOL0     H  803   1.628  10.153   5.233 -0.4282  2.7770  4.6080
    6MOL0     H  804   1.886  10.020   5.120  0.2634 -1.8857  0.1775
    6MOL0     H  805   1.769   9.925   5.223 -1.0811 -0.3006  0.5679
    6MOL0     H  806   1.561   9.988   4.853 -0.3766  3.8660 -0.3293
    6MOL0     H  807   1.894  10.253   5.630 -2.3694  0.7418 -2.7963
    6MOL0     H  808   1.923  10.351   5.866  1.2751  1.2557  2.2202
    6MOL0     H  809   1.984  10.505   5.889  0.5109 -0.1047 -1.0761
    6MOL0     H  810   1.842  10.497   5.790  0.3753  1.9037  1.1465
    7MOL0     O  811   0.992   9.383   5.657 -0.1824 -0.3428 -0.0593
    7MOL0     C  812   1.108   9.363   5.695  1.2886 -0.1328 -0.7843
    7MOL0     O  813   1.141   9.342   5.833 -0.5616 -0.6378 -0.1769
    7MOL0     C  814   1.049   9.348   5.935  1.0708 -0.6972 -0.2779
    7MOL0     C  815   1.059   9.445   6.046  0.2942  0.4732 -0.1353
    7MOL0     C  816   0.964   9.449   6.150  1.0273 -0.7071 -0.3739
    7MOL0     C  817   0.853   9.355   6.144 -0.8670 -0.4311 -1.1837
    7MOL0     O  818   0.756   9.359   6.237  0.7369  1.0077 -0.1209
    7MOL0     C  819   0.777   9.292   6.358  0.0484 -0.1033  0.0333
    7MOL0     C  820   0.668   9.312   6.465 -0.0159  0.2826  0.2691
    7MOL0     C  821   0.697   9.251   6.600 -0.0477  0.2710 -0.8101
    7MOL0     C  822   0.765   9.114   6.605 -0.8292  0.6847 -0.3993
    7MOL0     C  823   0.797   9.070   6.748  0.6613 -0.4436  0.6085
    7MOL0     C  824   0.875   8.943   6.745  0.3143 -0.4530 -0.3435
    7MOL0     C  825   0.919   8.884   6.884  0.0809 -0.9228  1.1694
    7MOL0     C  826   1.003   8.978   6.967  0.0647  0.1527 -0.1801
    7MOL0     N  827   1.051   8.921   7.096  0.6856  0.3855 -0.2929
    7MOL0     C  828   0.959   8.879   7.190  0.4978  0.1312  1.4890
    7MOL0     C  829   1.036   8.806   7.275 -0.4517  0.3711 -0.4520
    7MOL0     C  830   0.991   8.726   7.400 -0.7187 -0.2711  0.7987
    7MOL0     C  831   0.920   8.807   7.504 -0.4586 -0.8814  0.0507
    7MOL0     C  832   0.862   8.722   7.625 -0.4088  0.9181  0.6774
    7MOL0     C  833   0.959   8.722   7.735 -0.1892  0.6473 -0.0238
    7MOL0     O  834   0.897   8.659   7.851 -0.6803 -0.2174 -0.7158
    7MOL0     C  835   0.893   8.524   7.867 -0.2165 -0.3362  0.2495
    7MOL0     C  836   0.996   8.437   7.841  0.5138  0.1671  0.7248
    7MOL0     C  837   0.983   8.303   7.872  0.2992  0.1860 -0.1257
    7MOL0     C  838   0.869   8.251   7.934 -0.3635 -0.3571 -0.3569
    7MOL0     C  839   0.840   8.107   7.959 -0.0054  0.1535  0.6445
    7MOL0     O  840   0.718   8.094   8.021  0.3706  0.4955  0.3664
    7MOL0     C  841   0.714   7.988   8.107  0.3528 -0.1727  0.2824
    7MOL0     C  842   0.721   8.016   8.249 -0.6666  0.1730  1.5041
    7MOL0     C  843   0.703   7.912   8.340  0.0887  0.3691 -0.1650
    7MOL0     C  844   0.682   7.781   8.295  0.4871  0.0460  0.7631
    7MOL0     O  845   0.675   7.677   8.384 -0.4112  0.1080 -0.5542
    7MOL0     C  846   0.621   7.703   8.516  0.2718 -0.2458 -0.1935
    7MOL0     C  847   0.469   7.736   8.507 -0.5243 -0.1237  0.0043
    7MOL0     C  848   0.379   7.686   8.628 -0.5708 -1.1856  0.1069
    7MOL0     C  849   0.434   7.734   8.765 -0.1388  0.2108  0.5013
    7MOL0     C  850   0.326   7.712   8.868  0.6966  0.7765  0.4727
    7MOL0     C  851   0.377   7.731   9.005  0.2714 -0.0438 -0.6050
    7MOL0     C  852   0.274   7.669   9.113 -0.4979  0.3925 -0.5105
    7MOL0     C  853   0.248   7.520   9.094  0.3229 -0.4501  0.8190
    7MOL0    Cl  854   0.369   7.417   9.162  0.1232 -0.6958 -0.3593
    7MOL0     C  855   0.670   7.756   8.158 -0.1016 -0.2480  0.7355
    7MOL0     C  856   0.679   7.859   8.065  0.7533 -0.0776  0.3710
    7MOL0     O  857   0.917   8.019   7.934  0.0850 -0.2471 -0.8220
    7MOL0     C  858   0.767   8.341   7.978 -0.8249 -0.9290  0.1617
    7MOL0     C  859   0.778   8.475   7.940 -0.3117 -0.6605  0.4214
    7MOL0     N  860   1.169   8.829   7.237  1.5219 -0.1885 -0.8588
    7MOL0     N  861   1.177   8.902   7.137  0.1520  0.1611  1.2057
    7MOL0     C  862   0.851   9.261   6.042 -0.0751 -0.3600 -0.9921
    7MOL0     C  863   0.943   9.259   5.939 -0.1371 -0.7697 -0.1929
    7MOL0     C  864   1.213   9.336   5.589  0.2398  0.8725 -0.1132
    7MOL0     C  865   1.325   9.272   5.641  0.2711  1.3676 -0.2547
    7MOL0     C  866   1.441   9.250   5.570 -0.1251 -0.3870 -0.3340
    7MOL0     C  867   1.451   9.299   5.435 -0.2845  0.0518  0.2759
    7MOL0     O  868   1.583   9.271   5.380 -0.3754 -0.4336 -1.8278
    7MOL0     C  869   1.589   9.310   5.240  1.0595 -0.5195 -0.9974
    7MOL0     C  870   1.722   9.247   5.177  0.7178  1.0518  0.1017
    7MOL0     C  871   1.852   9.315   5.237  0.5106  0.3140 -1.1746
    7MOL0     C  872   1.979   9.261   5.180  0.0929  0.4367 -0.1088
    7MOL0     C  873   2.084   9.302   5.266 -0.1415 -0.5009  0.1964
    7MOL0     C  874   2.173   9.349   5.339 -0.2003 -0.1476  0.1382
    7MOL0     C  875   1.338   9.372   5.386 -0.3680 -0.1857 -0.0427
    7MOL0     C  876   1.221   9.390   5.460 -0.8265  0.7153  0.0494
    7MOL0     C  877   1.101   9.464   5.391  0.7603 -0.4088  0.0130
    7MOL0     H  878   1.142   9.516   6.043  1.4231 -0.8296 -0.8603
    7MOL0     H  879   0.979   9.520   6.230  1.7649  0.1192 -1.2190
    7MOL0     H  880   0.777   9.182   6.353 -0.9605 -0.3715  3.3060
    7MOL0     H  881   0.872   9.322   6.404 -0.4023 -0.1429  1.0121
    7MOL0     H  882   0.567   9.287   6.429  0.0557 -1.1852  1.0465
    7MOL0     H  883   0.676   9.421   6.475 -0.9167  0.5915 -1.7600
    7MOL0     H  884   0.606   9.260   6.661 -1.7904 -0.4589 -3.1587
    7MOL0     H  885   0.761   9.322   6.653 -1.4594  0.2872  0.9832
    7MOL0     H  886   0.683   9.052   6.566  0.5530 -1.8393  0.4849
    7MOL0     H  887   0.853   9.105   6.541  1.8389  1.2284  2.9233
    7MOL0     H  888   0.843   9.152   6.804  1.1097 -0.3909  0.1732
    7MOL0     H  889   0.700   9.052   6.795 -0.5541 -0.3348 -1.6871
    7MOL0     H  890   0.806   8.864   6.713  0.1733 -1.5148  2.3526
    7MOL0     H  891   0.962   8.954   6.679 -0.7876  4.0159 -1.3456
    7MOL0     H  892   0.979   8.795   6.863  1.7479  0.5217 -0.5006
    7MOL0     H  893   0.827   8.857   6.938  0.2408 -4.4563 -0.0214
    7MOL0     H  894   1.081   9.035   6.916  2.1532 -0.5301  2.0716
    7MOL0     H  895   0.935   9.062   6.986 -0.2918  0.3497 -2.1069
    7MOL0     H  896   0.852   8.875   7.176  0.6182  1.1126 -0.0699
    7MOL0     H  897   0.923   8.647   7.369 -0.2751 -0.2902 -0.1547
    7MOL0     H  898   1.077   8.674   7.444  0.5596 -1.5419 -2.9051
    7MOL0     H  899   0.995   8.876   7.545 -1.2996  0.1575 -0.1156
    7MOL0     H  900   0.841   8.859   7.450  1.8684  1.4644 -1.3315
    7MOL0     H  901   0.839   8.619   7.597 -1.8542  1.1126  1.0747
    7MOL0     H  902   0.767   8.765   7.658 -0.2061  0.7032  1.5539
    7MOL0     H  903   0.992   8.821   7.766 -1.2232  1.2583 -0.8201
    7MOL0     H  904   1.047   8.661   7.715 -0.2118 -1.1222  4.1004
    7MOL0     H  905   1.090   8.467   7.796  2.3318 -2.5599  2.4273
    7MOL0     H  906   1.051   8.227   7.836 -1.8004 -2.4066  1.0721
    7MOL0     H  907   0.722   8.120   8.280  1.5048  0.3065  1.1098
    7MOL0     H  908   0.701   7.932   8.447  2.2656 -1.1768  0.2343
    7MOL0     H  909   0.629   7.601   8.553 -0.4212 -0.2000  0.0906
    7MOL0     H  910   0.682   7.775   8.572  0.6958 -1.3918  0.8615
    7MOL0     H  911   0.454   7.844   8.499  1.8967  0.1799 -1.3553
    7MOL0     H  912   0.431   7.685   8.419 -1.3994  0.4379  0.0480
    7MOL0     H  913   0.275   7.720   8.625  0.4373  2.7967  2.5273
    7MOL0     H  914   0.367   7.578   8.622 -0.3434 -1.3156  1.7097
    7MOL0     H  915   0.456   7.840   8.755 -0.1824  0.2177  0.4778
    7MOL0     H  916   0.523   7.674   8.787  1.4854  2.7071  1.0456
    7MOL0     H  917   0.284   7.613   8.847  1.0486  0.6742  0.2284
    7MOL0     H  918   0.246   7.786   8.856 -0.2029 -0.3167 -0.5793
    7MOL0     H  919   0.464   7.665   9.008  0.5723  0.3748  1.8576
    7MOL0     H  920   0.406   7.832   9.035  2.4480 -1.2871  2.0450
    7MOL0     H  921   0.189   7.734   9.089  0.7698  2.1107 -0.5458
    7MOL0     H  922   0.314   7.694   9.212  0.1684 -1.0031 -0.4072
    7MOL0     H  923   0.158   7.515   9.156  0.9183  4.9132  2.6997
    7MOL0     H  924   0.224   7.497   8.990 -0.3821 -3.0510  1.4775
    7MOL0     H  925   0.670   7.659   8.109 -0.9729  0.5843 -1.0131
    7MOL0     H  926   0.660   7.840   7.960  0.2044  2.6693 -0.1010
    7MOL0     H  927   0.686   8.318   8.047 -0.7160 -0.0283  0.6192
    7MOL0     H  928   0.711   8.558   7.960  2.4189  1.4702  1.3990
    7MOL0     H  929   0.764   9.197   6.031  0.4570 -0.8231 -3.1211
    7MOL0     H  930   0.927   9.190   5.857 -0.8759 -0.6750 -0.1376
    7MOL0     H  931   1.329   9.248   5.747 -1.4017  0.5146 -0.3587
    7MOL0     H  932   1.530   9.208   5.616  1.0491  0.7856 -1.4277
    7MOL0     H  933   1.578   9.417   5.221 -1.6462 -0.1773  1.6742
    7MOL0     H  934   1.501   9.268   5.190 -0.7232  1.1450  0.5685
    7MOL0     H  935   1.714   9.281   5.073  1.3874 -0.2352 -0.3947
    7MOL0     H  936   1.727   9.139   5.191  0.1869  0.8811 -0.9575
    7MOL0     H  937   1.862   9.311   5.346 -1.1216 -1.1909 -1.0399
    7MOL0     H  938   1.835   9.420   5.215 -0.0580  0.1967 -1.3003
    7MOL0     H  939   1.982   9.152   5.173  0.7168  0.4082  0.4419
    7MOL0     H  940   2.005   9.291   5.078  3.6184 -0.6502  0.3399
    7MOL0     H  941   2.261   9.393   5.380 -1.4180  3.2178 -0.5851
    7MOL0     H  942   1.351   9.423   5.291  0.7871  1.7708  1.0875
    7MOL0     H  943   1.122   9.508   5.293 -2.4767  6.1628  1.6562
    7MOL0     H  944   1.035   9.378   5.377  2.7872 -1.8262 -1.2320
    7MOL0     H  945   1.051   9.543   5.448  0.6490  1.8435 -2.9708
    8MOL0     O  946   5.458  11.253  11.087  0.5044  0.4842  0.7501
    8MOL0     C  947   5.470  11.139  11.133  1.3522  0.3702  1.0630
    8MOL0     O  948   5.421  11.033  11.069  0.6764  0.8294  0.6896
    8MOL0     C  949   5.359  11.052  10.942 -0.5931  1.1266  0.3821
    8MOL0     C  950   5.229  11.059  10.925 -0.1407 -0.2293  0.4244
    8MOL0     C  951   5.181  11.103  10.801 -0.3406  0.3146 -0.2936
    8MOL0     C  952   5.271  11.129  10.697  0.0253 -1.2592  0.1277
    8MOL0     O  953   5.226  11.196  10.590  0.4658  0.6959 -0.8102
    8MOL0     C  954   5.127  11.294  10.583  0.4103  0.7892  1.3481
    8MOL0     C  955   5.119  11.332  10.432 -0.1394 -0.2421 -0.1765
    8MOL0     C  956   4.975  11.399  10.397 -0.3421 -1.1475  0.6058
    8MOL0     C  957   4.939  11.354  10.253 -0.9264 -0.3254  0.0086
    8MOL0     C  958   4.836  11.447  10.194  0.3651 -0.3598 -0.2731
    8MOL0     C  959   4.772  11.406  10.068 -0.8186  0.1744  0.3756
    8MOL0     C  960   4.876  11.412   9.955  0.4997 -0.1997  0.1340
    8MOL0     C  961   4.801  11.378   9.824  0.2421 -0.4135 -0.1910
    8MOL0     N  962   4.752  11.503   9.772  0.1829  0.2611 -0.2753
    8MOL0     C  963   4.827  11.588   9.702 -0.1044  0.6698 -0.0503
    8MOL0     C  964   4.733  11.684   9.673  0.7463 -0.9419 -0.3374
    8MOL0     C  965   4.756  11.810   9.588  0.2517 -1.0187 -0.6579
    8MOL0     C  966   4.790  11.788   9.440 -0.1394  0.2785  0.0915
    8MOL0     C  967   4.882  11.903   9.384  0.6043  0.3813 -0.3603
    8MOL0     C  968   4.901  11.863   9.234 -0.0198 -0.0576 -0.8531
    8MOL0     O  969   4.988  11.744   9.232  0.8580 -0.5744  0.1926
    8MOL0     C  970   5.021  11.691   9.114 -0.3752  0.4614 -0.1285
    8MOL0     C  971   4.998  11.764   8.991 -0.0845  0.3862 -0.4901
    8MOL0     C  972   5.046  11.711   8.875  0.5641 -0.9039  0.1398
    8MOL0     C  973   5.101  11.581   8.865  0.4950 -0.5856 -0.0618
    8MOL0     C  974   5.140  11.522   8.741  0.4303 -0.2035 -0.4081
    8MOL0     O  975   5.234  11.426   8.731 -0.4955  0.6721 -0.9644
    8MOL0     C  976   5.260  11.380   8.605 -0.2508 -0.5152  0.1232
    8MOL0     C  977   5.169  11.311   8.538 -0.1054 -0.1608 -0.0246
    8MOL0     C  978   5.195  11.259   8.413  0.7787  0.6764  0.0071
    8MOL0     C  979   5.313  11.283   8.346 -0.3228  0.2631 -0.0098
    8MOL0     O  980   5.351  11.222   8.227  0.4732 -0.3341 -0.4196
    8MOL0     C  981   5.310  11.308   8.123 -0.2314 -0.1311  0.4530
    8MOL0     C  982   5.322  11.247   7.987  1.0706  0.3525  0.7324
    8MOL0     C  983   5.209  11.129   7.966 -0.5632 -0.7160  0.0448
    8MOL0     C  984   5.219  11.079   7.820  0.1950 -0.7035  0.8930
    8MOL0     C  985   5.121  10.963   7.792 -0.1467 -0.0582 -0.6018
    8MOL0     C  986   5.189  10.833   7.835  0.3422  0.1538  0.6061
    8MOL0     C  987   5.089  10.715   7.818 -0.1404  0.0916 -0.2051
    8MOL0     C  988   5.135  10.586   7.899  0.4710  0.0661  0.6556
    8MOL0    Cl  989   4.999  10.460   7.864  0.1888 -0.2758 -0.2108
    8MOL0     C  990   5.413  11.369   8.417  0.1974 -0.4620  0.0137
    8MOL0     C  991   5.379  11.417   8.547  0.6367  0.8195 -0.7157
    8MOL0     O  992   5.074  11.562   8.650 -0.3232 -0.1121 -0.1055
    8MOL0     C  993   5.116  11.516   8.993 -0.9044 -0.7197  1.0399
    8MOL0     C  994   5.082  11.564   9.109 -0.1663  0.6261 -1.0403
    8MOL0     N  995   4.617  11.649   9.731 -0.1393  0.0896 -0.3912
    8MOL0     N  996   4.629  11.547   9.802  0.4340 -0.1097  1.2199
    8MOL0     C  997   5.409  11.099  10.713  0.4027 -0.1807  0.0977
    8MOL0     C  998   5.450  11.059  10.836  1.0567  0.3710 -0.4256
    8MOL0     C  999   5.507  11.117  11.272 -0.0603 -0.4002  0.4892
    8MOL0     C 1000   5.478  11.216  11.367 -0.5567  0.2555  0.3766
    8MOL0     C 1001   5.514  11.199  11.506  0.1856 -0.0167  0.3052
    8MOL0     C 1002   5.574  11.078  11.541  0.8803 -0.7674 -0.1121
    8MOL0     O 1003   5.619  11.063  11.669 -0.0493  0.6420 -0.5655
    8MOL0     C 1004   5.758  11.105  11.683 -0.3025  0.5161 -0.1600
    8MOL0     C 1005   5.851  10.975  11.683 -0.5907 -0.9058  0.9385
    8MOL0     C 1006   6.000  11.006  11.685  0.4357 -0.0413 -0.0630
    8MOL0     C 1007   6.078  10.879  11.695 -0.1190  0.1881  0.0242
    8MOL0     C 1008   6.057  10.790  11.579 -0.8525  0.4469 -0.5095
    8MOL0     C 1009   6.001  10.714  11.501  0.3264  0.7735 -0.0807
    8MOL0     C 1010   5.602  10.988  11.444  1.2422  0.5311 -0.3601
    8MOL0     C 1011   5.581  11.004  11.308  0.7129 -0.3237 -0.6063
    8MOL0     C 1012   5.641  10.898  11.212  0.1864 -0.5143  0.2953
    8MOL0     H 1013   5.170  11.033  11.012 -1.6752 -2.9408 -1.2571
    8MOL0     H 1014   5.078  11.136  10.798 -1.6053 -3.2815 -3.4799
    8MOL0     H 1015   5.026  11.261  10.610  0.3742 -0.5178 -0.2061
    8MOL0     H 1016   5.161  11.381  10.640  2.5580 -1.5525  3.9404
    8MOL0     H 1017   5.136  11.248  10.365  1.3830 -0.0876 -0.0323
    8MOL0     H 1018   5.201  11.402  10.412  1.0060 -1.8044 -1.2177
    8MOL0     H 1019   4.982  11.508  10.393 -4.5831 -0.6848  0.9019
    8MOL0     H 1020   4.892  11.377  10.465 -2.0916  1.6278 -0.4398
    8MOL0     H 1021   5.024  11.339  10.186 -0.4954 -0.1245  0.4973
    8MOL0     H 1022   4.894  11.256  10.270 -3.6813  1.1956  2.5220
    8MOL0     H 1023   4.759  11.459  10.272  1.2452  0.5151  0.4836
    8MOL0     H 1024   4.885  11.544  10.190  2.2359 -0.8434  4.2996
    8MOL0     H 1025   4.711  11.315  10.073  0.7914 -1.4364 -4.3511
    8MOL0     H 1026   4.709  11.493  10.049  1.2045  2.2545  2.5290
    8MOL0     H 1027   4.942  11.326   9.976  2.4454  0.3035 -3.2379
    8MOL0     H 1028   4.948  11.495   9.955  0.3091 -0.0230 -0.7437
    8MOL0     H 1029   4.862  11.334   9.745 -0.8845 -1.7145 -0.3942
    8MOL0     H 1030   4.725  11.302   9.847  1.7892 -2.2423 -0.8802
    8MOL0     H 1031   4.933  11.591   9.682 -0.2459 -0.0544 -1.0011
    8MOL0     H 1032   4.665  11.870   9.598  0.5609 -0.9749  3.9225
    8MOL0     H 1033   4.832  11.871   9.637  0.6545 -2.4430  0.5981
    8MOL0     H 1034   4.822  11.684   9.424 -1.7449 -0.1150 -0.7700
    8MOL0     H 1035   4.691  11.798   9.395 -0.2864 -1.4124 -0.0241
    8MOL0     H 1036   4.971  11.907   9.448 -0.0943 -2.3443  0.9074
    8MOL0     H 1037   4.827  11.997   9.397 -0.2239 -0.0609 -0.6159
    8MOL0     H 1038   4.951  11.948   9.188  0.9509  1.6729  2.9705
    8MOL0     H 1039   4.806  11.849   9.182 -0.4406  0.3711 -0.2145
    8MOL0     H 1040   4.948  11.859   8.974 -0.7182  0.3296  0.8544
    8MOL0     H 1041   5.030  11.773   8.787  1.1796 -2.2649 -0.9764
    8MOL0     H 1042   5.070  11.288   8.576 -1.0896  2.7013 -0.5550
    8MOL0     H 1043   5.120  11.197   8.366  0.0469  1.5328  0.0106
    8MOL0     H 1044   5.210  11.350   8.138  0.3981  0.9440  1.9212
    8MOL0     H 1045   5.387  11.385   8.130  1.9865 -2.3343  2.3997
    8MOL0     H 1046   5.320  11.323   7.907  1.8241 -1.1103 -0.7385
    8MOL0     H 1047   5.424  11.210   7.976  0.3939 -2.1083  2.1249
    8MOL0     H 1048   5.215  11.059   8.049 -2.1330  2.2190  2.8535
    8MOL0     H 1049   5.110  11.169   7.988  0.8858  1.6134  3.0157
    8MOL0     H 1050   5.322  11.052   7.798  1.2781  2.0595  2.1252
    8MOL0     H 1051   5.187  11.156   7.749  0.4390 -0.1822  1.3480
    8MOL0     H 1052   5.113  10.954   7.683 -3.3434 -2.6042 -0.3452
    8MOL0     H 1053   5.030  10.976   7.852  1.1040  0.9960  1.1491
    8MOL0     H 1054   5.279  10.814   7.776 -1.4870  1.2232 -2.8760
    8MOL0     H 1055   5.222  10.837   7.939  1.6734  2.0202  0.1686
    8MOL0     H 1056   5.101  10.704   7.710 -0.8133  0.3940 -0.3141
    8MOL0     H 1057   4.986  10.748   7.836 -0.8992 -2.5013  0.5712
    8MOL0     H 1058   5.237  10.554   7.877  0.2087  0.8335 -1.9962
    8MOL0     H 1059   5.132  10.608   8.006  0.9537  3.7674  0.0553
    8MOL0     H 1060   5.513  11.375   8.375 -0.0804  0.9857 -0.5079
    8MOL0     H 1061   5.454  11.466   8.607 -2.1235  0.3026  3.5906
    8MOL0     H 1062   5.169  11.421   8.999  2.5964  0.7539 -2.1286
    8MOL0     H 1063   5.104  11.521   9.206 -0.3549  4.2963  0.8283
    8MOL0     H 1064   5.476  11.120  10.631  0.9841 -0.9787  0.3493
    8MOL0     H 1065   5.557  11.050  10.851  0.5939 -3.3218  1.7529
    8MOL0     H 1066   5.419  11.305  11.348  0.1459  0.4810 -0.8334
    8MOL0     H 1067   5.496  11.283  11.572  1.0580  0.6306 -0.2563
    8MOL0     H 1068   5.791  11.150  11.777  0.3156 -2.2583  1.0847
    8MOL0     H 1069   5.787  11.177  11.606 -2.6202 -0.3856 -2.0118
    8MOL0     H 1070   5.832  10.925  11.588 -0.4180  1.9136 -0.6588
    8MOL0     H 1071   5.807  10.920  11.767  0.3649 -1.4255  1.1169
    8MOL0     H 1072   6.020  11.066  11.774  0.5281  0.8169 -0.6459
    8MOL0     H 1073   6.027  11.067  11.599  0.5132 -0.5110 -0.3729
    8MOL0     H 1074   6.183  10.901  11.720 -0.7044  1.4116  1.6163
    8MOL0     H 1075   6.041  10.835  11.788 -1.4658 -0.0164 -0.5935
    8MOL0     H 1076   5.941  10.661  11.430  3.7429 -2.6288 -0.7689
    8MOL0     H 1077   5.635  10.894  11.488 -3.4160 -1.6865 -0.9683
    8MOL0     H 1078   5.689  10.813  11.263 -1.4793 -0.7218  1.6188
    8MOL0     H 1079   5.573  10.864  11.133  1.2535 -4.4665  0.8794
    8MOL0     H 1080   5.714  10.963  11.165 -1.2968  0.0711 -1.2862
    9MOL0     O 1081   0.952   3.166   9.030  0.4855  0.0350 -0.2238
    9MOL0     C 1082   0.902   3.121   9.129  0.2863 -0.2098 -0.1174
    9MOL0     O 1083   0.885   2.985   9.146  0.1413  0.7958 -0.1002
    9MOL0     C 1084   0.868   2.895   9.041  0.8105  0.4428  1.2741
    9MOL0     C 1085   0.832   2.916   8.905  0.6653 -1.3530  0.0115
    9MOL0     C 1086   0.820   2.816   8.813  0.7758 -0.3832  0.3503
    9MOL0     C 1087   0.836   2.681   8.854  0.5680  0.3255  0.1854
    9MOL0     O 1088   0.836   2.574   8.762 -0.4661  0.0085  0.1410
    9MOL0     C 1089   0.749   2.582   8.648  0.0506 -0.7702  0.0605
    9MOL0     C 1090   0.774   2.466   8.544 -0.5944  0.2574 -0.1902
    9MOL0     C 1091   0.712   2.330   8.590 -0.9636 -0.5851  0.3731
    9MOL0     C 1092   0.782   2.211   8.522  0.9410 -0.3116 -0.5443
    9MOL0     C 1093   0.733   2.086   8.599 -0.4834 -0.0507 -0.5534
    9MOL0     C 1094   0.590   2.046   8.567  0.2601  0.4363  0.3218
    9MOL0     C 1095   0.564   2.004   8.417  0.4727  0.0495 -0.6281
    9MOL0     C 1096   0.416   1.956   8.380  0.0440 -1.1980 -0.0857
    9MOL0     N 1097   0.421   1.810   8.373 -1.0513  0.4897  0.2608
    9MOL0     C 1098   0.447   1.725   8.266 -0.7997  0.4212 -0.2780
    9MOL0     C 1099   0.469   1.609   8.323 -0.5535  0.5710 -0.6610
    9MOL0     C 1100   0.546   1.511   8.246 -0.2160  0.6151 -0.3056
    9MOL0     C 1101   0.447   1.397   8.204 -0.8228  0.5825  0.0829
    9MOL0     C 1102   0.526   1.261   8.212 -0.1490 -0.7800 -0.3852
    9MOL0     C 1103   0.431   1.164   8.143  0.9115 -0.8219  0.8306
    9MOL0     O 1104   0.488   1.035   8.135  0.4324  0.2614 -0.3904
    9MOL0     C 1105   0.497   0.960   8.250 -0.5521  0.7168 -0.0888
    9MOL0     C 1106   0.394   0.939   8.346  0.7323 -0.9866  0.3930
    9MOL0     C 1107   0.405   0.854   8.457 -0.2289 -0.0088  0.3627
    9MOL0     C 1108   0.525   0.787   8.476  0.1608 -0.1015  0.3011
    9MOL0     C 1109   0.560   0.691   8.580 -0.6487  0.3732 -0.3076
    9MOL0     O 1110   0.686   0.633   8.574 -0.6949  0.4645  0.4724
    9MOL0     C 1111   0.707   0.519   8.642 -0.2021 -0.1676  0.6347
    9MOL0     C 1112   0.822   0.535   8.713  1.0430 -0.1274 -0.0914
    9MOL0     C 1113   0.853   0.442   8.810 -0.2346 -0.3385 -0.0298
    9MOL0     C 1114   0.775   0.327   8.832 -0.0773  0.5322 -0.4583
    9MOL0     O 1115   0.815   0.217   8.907 -0.3448  0.1049 -0.3932
    9MOL0     C 1116   0.926   0.217   9.005 -0.4249 -0.5719 -0.3598
    9MOL0     C 1117   0.948   0.071   9.045 -0.0219  0.1029 -0.4714
    9MOL0     C 1118   1.026  -0.003   8.944  0.7212  0.2656 -0.6930
    9MOL0     C 1119   1.047  -0.155   8.983  0.1579 -0.3652  0.0144
    9MOL0     C 1120   0.918  -0.232   9.021 -0.1154  0.4628 -0.1246
    9MOL0     C 1121   0.938  -0.383   9.011  0.8158  0.6442  0.5261
    9MOL0     C 1122   1.036  -0.453   9.106 -0.0855  0.5919  0.4128
    9MOL0     C 1123   0.958  -0.520   9.222  0.4100 -0.2039  1.0024
    9MOL0    Cl 1124   1.060  -0.606   9.337 -0.2816  0.4403  0.1256
    9MOL0     C 1125   0.661   0.315   8.752 -0.2028  0.3413  0.5130
    9MOL0     C 1126   0.614   0.415   8.667 -0.0282  0.7748  0.0858
    9MOL0     O 1127   0.478   0.682   8.677  0.6756 -0.0711 -0.2694
    9MOL0     C 1128   0.635   0.819   8.379 -0.1498  0.8228 -0.3261
    9MOL0     C 1129   0.611   0.889   8.268 -0.8213 -0.0947  0.3985
    9MOL0     N 1130   0.433   1.610   8.457  0.1520 -0.9755  0.4317
    9MOL0     N 1131   0.420   1.734   8.489 -0.0627  1.3876 -0.0800
    9MOL0     C 1132   0.883   2.659   8.977  0.0550  0.1462  0.1301
    9MOL0     C 1133   0.896   2.765   9.064 -0.3643 -0.4515  0.1991
    9MOL0     C 1134   0.873   3.209   9.245  0.1718  0.4558 -0.7032
    9MOL0     C 1135   0.866   3.143   9.373  0.4975 -0.2515 -0.8601
    9MOL0     C 1136   0.848   3.213   9.492  0.3392 -0.5698 -0.2413
    9MOL0     C 1137   0.833   3.351   9.496 -0.7116 -0.4405  0.6745
    9MOL0     O 1138   0.829   3.431   9.608 -0.3599 -0.9258  0.2337
    9MOL0     C 1139   0.870   3.393   9.743  0.5867 -1.2002 -0.0647
    9MOL0     C 1140   1.012   3.433   9.769 -0.2290  0.0151  0.0531
    9MOL0     C 1141   1.059   3.407   9.902  0.6293 -0.3033  0.4289
    9MOL0     C 1142   1.043   3.258   9.927 -0.6422 -0.8199  0.1267
    9MOL0     C 1143   1.148   3.209  10.021 -1.2926 -0.3942 -0.9770
    9MOL0     C 1144   1.243   3.172  10.091  0.3733  0.0925 -0.3978
    9MOL0     C 1145   0.848   3.419   9.371  0.2439  0.0688 -0.1075
    9MOL0     C 1146   0.867   3.354   9.251  0.4600 -0.0443  0.3653
    9MOL0     C 1147   0.869   3.438   9.126 -0.3819 -0.6221  0.2237
    9MOL0     H 1148   0.827   3.017   8.866  3.5279 -1.1934 -0.1254
    9MOL0     H 1149   0.800   2.835   8.708  0.7559  0.0476  0.4328
    9MOL0     H 1150   0.646   2.580   8.685 -0.5832  1.0846 -1.4641
    9MOL0     H 1151   0.750   2.676   8.591  0.9347 -1.3519 -0.9377
    9MOL0     H 1152   0.882   2.448   8.542 -0.5643  0.3529  0.4350
    9MOL0     H 1153   0.753   2.473   8.437  3.0089 -0.1001 -1.0556
    9MOL0     H 1154   0.605   2.336   8.567 -1.3620 -0.6768  2.0520
    9MOL0     H 1155   0.721   2.321   8.699 -1.2719 -0.6919  0.3902
    9MOL0     H 1156   0.765   2.218   8.415 -2.3628  0.8210 -0.0496
    9MOL0     H 1157   0.890   2.214   8.544  0.1603 -0.6706  4.7244
    9MOL0     H 1158   0.788   1.997   8.567  2.4919  0.8001  1.7056
    9MOL0     H 1159   0.746   2.096   8.707 -2.5600 -3.5553  0.1516
    9MOL0     H 1160   0.565   1.962   8.631 -0.5327 -0.7734 -1.4827
    9MOL0     H 1161   0.532   2.134   8.597  0.0891  0.1153  0.9465
    9MOL0     H 1162   0.646   1.942   8.379  1.0600 -1.7958  3.2061
    9MOL0     H 1163   0.576   2.102   8.369 -1.8137  0.6629 -0.0609
    9MOL0     H 1164   0.339   1.989   8.451 -0.1241 -4.6505  1.5943
    9MOL0     H 1165   0.384   1.987   8.281 -2.3907 -1.4163  0.5669
    9MOL0     H 1166   0.476   1.763   8.168 -4.4409  0.1604 -1.6523
    9MOL0     H 1167   0.583   1.559   8.155 -0.8536 -0.0256 -0.9139
    9MOL0     H 1168   0.633   1.463   8.293 -1.3436 -2.0059 -0.7136
    9MOL0     H 1169   0.364   1.407   8.274 -2.0074  0.4580 -1.2679
    9MOL0     H 1170   0.421   1.424   8.102  0.3341  2.0349  0.1307
    9MOL0     H 1171   0.541   1.234   8.317 -1.3879  0.3736  0.1277
    9MOL0     H 1172   0.614   1.275   8.149 -1.7161 -2.0907 -3.0587
    9MOL0     H 1173   0.401   1.197   8.043 -3.5221  2.5526  2.9444
    9MOL0     H 1174   0.338   1.159   8.200  1.2288 -1.6261  1.2927
    9MOL0     H 1175   0.302   0.991   8.320  0.2114 -0.3666  3.1808
    9MOL0     H 1176   0.327   0.848   8.532 -0.4479  4.1044  0.6527
    9MOL0     H 1177   0.897   0.614   8.715 -0.5129  1.4142  0.4023
    9MOL0     H 1178   0.942   0.457   8.869 -0.0731  3.0606 -0.8742
    9MOL0     H 1179   1.019   0.256   8.962 -0.0238  0.6793  1.5120
    9MOL0     H 1180   0.902   0.286   9.087 -0.0130  0.7107 -1.2813
    9MOL0     H 1181   1.003   0.068   9.139  0.3612 -2.0374 -0.7091
    9MOL0     H 1182   0.846   0.035   9.061 -0.3017  0.1734 -1.9322
    9MOL0     H 1183   0.966  -0.004   8.853  0.2823  0.3067 -0.4053
    9MOL0     H 1184   1.124   0.044   8.927  1.1559  0.6135  2.2147
    9MOL0     H 1185   1.109  -0.160   9.073  0.6544  0.4770 -0.2713
    9MOL0     H 1186   1.100  -0.211   8.905 -1.3009 -1.3156 -0.3431
    9MOL0     H 1187   0.842  -0.206   8.947  0.0773 -1.1097 -0.9072
    9MOL0     H 1188   0.882  -0.206   9.121 -0.1521 -2.4958  0.7368
    9MOL0     H 1189   0.839  -0.428   9.011  0.7084  0.7974 -1.4602
    9MOL0     H 1190   0.980  -0.399   8.911 -2.0025  1.0355 -0.8075
    9MOL0     H 1191   1.110  -0.385   9.147  0.3813  0.5710 -0.3855
    9MOL0     H 1192   1.087  -0.537   9.059 -1.9358 -1.4523  1.8250
    9MOL0     H 1193   0.902  -0.445   9.277 -1.2254  0.5775 -1.5673
    9MOL0     H 1194   0.886  -0.588   9.176  2.4754 -2.8351  1.3519
    9MOL0     H 1195   0.596   0.230   8.768  1.5985 -2.0087 -3.1917
    9MOL0     H 1196   0.528   0.406   8.602 -0.5034  0.8657  0.6968
    9MOL0     H 1197   0.732   0.769   8.381 -1.7385 -2.6077 -1.3772
    9MOL0     H 1198   0.690   0.914   8.199  0.4666  1.4136  2.3058
    9MOL0     H 1199   0.905   2.555   9.001  1.1445  0.0819 -1.0685
    9MOL0     H 1200   0.946   2.745   9.159  4.1138 -2.0411 -2.1735
    9MOL0     H 1201   0.886   3.038   9.386 -1.3333 -0.6890 -1.2704
    9MOL0     H 1202   0.841   3.161   9.588  2.7322 -2.0423 -0.7812
    9MOL0     H 1203   0.851   3.287   9.757 -0.4669 -0.8860  1.1296
    9MOL0     H 1204   0.807   3.454   9.809  0.6958 -0.3720 -0.7120
    9MOL0     H 1205   1.014   3.540   9.746 -1.7185  0.4928  1.9180
    9MOL0     H 1206   1.085   3.383   9.705  2.0602  0.3703  2.2664
    9MOL0     H 1207   1.002   3.468   9.972 -1.0731 -0.7308 -0.5318
    9MOL0     H 1208   1.158   3.454   9.911  1.2662 -1.4095 -0.4424
    9MOL0     H 1209   0.949   3.227   9.974 -0.8143  2.3488  2.2028
    9MOL0     H 1210   1.045   3.202   9.834  2.0663  2.3910 -1.9801
    9MOL0     H 1211   1.314   3.125  10.156  0.5908  0.2630 -0.5098
    9MOL0     H 1212   0.837   3.527   9.370  1.6481  0.2206 -0.3375
    9MOL0     H 1213   0.779   3.431   9.063  0.8007  2.1723 -2.0217
    9MOL0     H 1214   0.885   3.545   9.139  0.5121 -0.5709 -1.0675
    9MOL0     H 1215   0.943   3.408   9.052 -0.7944 -1.0968 -0.0085
   10MOL0     O 1216   2.135   0.714   5.825  0.3802 -0.3688  0.0085
   10MOL0     C 1217   2.037   0.761   5.760 -0.7643  0.9976  0.6082
   10MOL0     O 1218   1.908   0.716   5.778 -0.0116  0.6784  0.2214
   10MOL0     C 1219   1.870   0.615   5.870 -0.5943 -0.0934 -0.8076
   10MOL0     C 1220   1.947   0.525   5.946 -0.2743 -1.1558  0.1176
   10MOL0     C 1221   1.895   0.433   6.036 -0.2367 -0.4113  0.2662
   10MOL0     C 1222   1.759   0.410   6.039 -0.5265 -0.0435  0.7180
   10MOL0     O 1223   1.706   0.314   6.133 -0.3349 -0.0416  1.2243
   10MOL0     C 1224   1.577   0.266   6.095  0.3828 -0.3270 -1.3287
   10MOL0     C 1225   1.570   0.122   6.145 -1.1403 -0.2619  0.1430
   10MOL0     C 1226   1.438   0.053   6.096  0.3170 -0.3074 -1.0794
   10MOL0     C 1227   1.435  -0.099   6.106 -0.0201 -0.8011 -0.2064
   10MOL0     C 1228   1.308  -0.162   6.046 -1.0492 -0.3514 -0.5840
   10MOL0     C 1229   1.184  -0.165   6.130  1.0766 -0.2678 -0.4640
   10MOL0     C 1230   1.107  -0.299   6.120  0.0616 -0.1436 -0.5244
   10MOL0     C 1231   1.074  -0.363   5.987 -0.3189 -0.1529  0.1519
   10MOL0     N 1232   1.038  -0.278   5.878 -0.2994 -0.0136 -0.9421
   10MOL0     C 1233   1.118  -0.280   5.767  0.0034 -0.1965 -0.2975
   10MOL0     C 1234   1.035  -0.233   5.679 -0.6751  0.2320  0.7317
   10MOL0     C 1235   1.080  -0.185   5.545 -0.4051 -0.3834  0.3011
   10MOL0     C 1236   1.071  -0.035   5.523 -0.2301 -0.2500  0.2911
   10MOL0     C 1237   1.184   0.041   5.588 -0.1901  0.4107 -0.7049
   10MOL0     C 1238   1.190   0.201   5.577  0.3682  1.0119  0.0256
   10MOL0     O 1239   1.302   0.259   5.647 -0.1382  0.2896 -0.7451
   10MOL0     C 1240   1.346   0.380   5.603  0.6395  0.0998  0.3128
   10MOL0     C 1241   1.256   0.474   5.545  0.0001  0.4030  0.1020
   10MOL0     C 1242   1.301   0.595   5.486 -0.4199 -0.0726 -0.0533
   10MOL0     C 1243   1.431   0.627   5.493 -0.0220  0.5674  0.1316
   10MOL0     C 1244   1.491   0.757   5.445 -0.2865  0.3352 -0.3129
   10MOL0     O 1245   1.405   0.860   5.477 -0.6678  0.6034 -0.6241
   10MOL0     C 1246   1.417   0.975   5.402  0.1902  0.5268  0.0392
   10MOL0     C 1247   1.479   1.088   5.436  0.3216 -0.3894  0.2248
   10MOL0     C 1248   1.480   1.197   5.341 -0.3624 -0.2889 -0.0558
   10MOL0     C 1249   1.428   1.188   5.209 -0.4555  0.0442 -0.3117
   10MOL0     O 1250   1.464   1.287   5.118  0.0127  0.0351  0.0157
   10MOL0     C 1251   1.366   1.315   5.010  0.4629 -0.6254 -0.5936
   10MOL0     C 1252   1.416   1.421   4.914 -0.8855  0.5002 -0.5975
   10MOL0     C 1253   1.343   1.555   4.923 -0.7021  0.9079  0.6760
   10MOL0     C 1254   1.384   1.664   4.832 -0.4040 -0.6440 -0.3070
   10MOL0     C 1255   1.337   1.797   4.892 -1.8285 -0.8523 -0.1385
   10MOL0     C 1256   1.383   1.924   4.803 -0.8812 -0.4879  0.2984
   10MOL0     C 1257   1.321   2.053   4.854 -1.0876  0.2000 -0.2376
   10MOL0     C 1258   1.379   2.110   4.987  1.0638 -0.0659  0.5277
   10MOL0    Cl 1259   1.258   2.238   5.041 -0.2288 -0.0465 -0.5780
   10MOL0     C 1260   1.354   1.074   5.182 -0.4366 -0.3547  0.5277
   10MOL0     C 1261   1.355   0.971   5.271  0.3311 -1.3723 -0.5751
   10MOL0     O 1262   1.612   0.772   5.406 -0.2821  0.0697 -0.5532
   10MOL0     C 1263   1.520   0.529   5.553  0.0131 -0.1913 -0.5951
   10MOL0     C 1264   1.478   0.411   5.605 -0.6766 -0.1681 -0.6726
   10MOL0     N 1265   0.912  -0.204   5.727  0.0610 -0.5749 -0.0116
   10MOL0     N 1266   0.915  -0.224   5.854  0.2558 -0.4024 -0.3039
   10MOL0     C 1267   1.681   0.497   5.960  0.5706 -0.7801  0.4410
   10MOL0     C 1268   1.736   0.605   5.888 -0.4384  1.2142 -0.6311
   10MOL0     C 1269   2.074   0.879   5.690 -0.0290 -1.7424 -0.0854
   10MOL0     C 1270   2.202   0.934   5.707 -0.1096  0.5667 -0.3063
   10MOL0     C 1271   2.241   1.051   5.655  0.1071 -0.2583 -0.4165
   10MOL0     C 1272   2.156   1.126   5.577  0.6653  0.9624 -0.2742
   10MOL0     O 1273   2.191   1.253   5.535 -0.3808  0.0456  0.1034
   10MOL0     C 1274   2.242   1.246   5.396  0.1098 -0.4013 -0.2120
   10MOL0     C 1275   2.355   1.343   5.380  0.0624 -0.3331 -0.8292
   10MOL0     C 1276   2.315   1.473   5.316 -0.4650 -0.3809  0.2348
   10MOL0     C 1277   2.422   1.584   5.325  0.5283  0.5631 -0.2564
   10MOL0     C 1278   2.420   1.667   5.204  0.2511 -0.7996  0.5309
   10MOL0     C 1279   2.407   1.722   5.097  0.6246 -0.1699  0.2569
   10MOL0     C 1280   2.026   1.071   5.553 -0.1710 -0.0336  0.3481
   10MOL0     C 1281   1.980   0.951   5.613 -0.2138  0.0001  0.0056
   10MOL0     C 1282   1.842   0.898   5.579 -1.5011 -0.5200  0.0366
   10MOL0     H 1283   2.054   0.533   5.957 -0.3265 -0.4126  0.1243
   10MOL0     H 1284   1.959   0.372   6.099  0.9803 -0.8194 -1.3042
   10MOL0     H 1285   1.510   0.327   6.156  1.1858  1.2277 -1.9749
   10MOL0     H 1286   1.548   0.280   5.991 -0.5025  2.7541 -0.7469
   10MOL0     H 1287   1.577   0.110   6.254 -2.0553 -2.5781  0.0159
   10MOL0     H 1288   1.659   0.073   6.103 -0.5876  2.4623 -2.1457
   10MOL0     H 1289   1.418   0.083   5.993 -0.3588  1.8459 -0.3809
   10MOL0     H 1290   1.360   0.101   6.157  3.9734  1.4630  2.6537
   10MOL0     H 1291   1.527  -0.129   6.053 -1.8842 -2.4578 -2.7280
   10MOL0     H 1292   1.459  -0.131   6.208  2.2807  1.5090  0.0846
   10MOL0     H 1293   1.289  -0.095   5.961  2.0304  1.3443 -0.0641
   10MOL0     H 1294   1.334  -0.265   6.021 -2.2470 -0.8167  0.0256
   10MOL0     H 1295   1.196  -0.154   6.238 -1.9770 -5.1541  0.6877
   10MOL0     H 1296   1.118  -0.087   6.090 -0.2995 -1.3360 -0.3169
   10MOL0     H 1297   1.017  -0.305   6.181  0.4078  0.6144  0.0800
   10MOL0     H 1298   1.179  -0.370   6.162  0.9326  0.6994 -0.5508
   10MOL0     H 1299   1.162  -0.412   5.944 -0.3859  2.6889 -3.8529
   10MOL0     H 1300   0.990  -0.432   6.001 -1.1471  1.3050  2.8816
   10MOL0     H 1301   1.226  -0.291   5.761 -0.1411 -2.0817 -0.0456
   10MOL0     H 1302   1.185  -0.215   5.537  0.0316  1.3544 -1.0628
   10MOL0     H 1303   1.019  -0.233   5.468 -0.2639 -0.3344  0.1592
   10MOL0     H 1304   1.070  -0.005   5.417 -2.0143 -3.0318 -0.5848
   10MOL0     H 1305   0.971  -0.006   5.556  0.5745  1.3537  1.4691
   10MOL0     H 1306   1.277   0.011   5.540 -0.3040  2.5285 -2.3872
   10MOL0     H 1307   1.182   0.016   5.695  0.6925  2.3527 -0.1799
   10MOL0     H 1308   1.089   0.232   5.607 -0.4587 -2.4912  1.3631
   10MOL0     H 1309   1.198   0.228   5.472  4.3227  1.6077  0.3293
   10MOL0     H 1310   1.150   0.451   5.541 -0.4656  1.7461  2.5623
   10MOL0     H 1311   1.215   0.654   5.455  0.7241  0.9604 -1.3712
   10MOL0     H 1312   1.519   1.092   5.536 -1.5913  0.9949  1.0001
   10MOL0     H 1313   1.534   1.285   5.377  1.7212 -2.0143  1.2530
   10MOL0     H 1314   1.373   1.227   4.945  2.5096 -1.5573  0.7916
   10MOL0     H 1315   1.267   1.328   5.055 -0.5907 -2.6845 -2.1552
   10MOL0     H 1316   1.521   1.449   4.930 -0.3310  0.2409 -3.3555
   10MOL0     H 1317   1.407   1.382   4.812  2.5888 -0.5697 -0.6587
   10MOL0     H 1318   1.234   1.553   4.927 -0.7344  1.9345  0.5513
   10MOL0     H 1319   1.364   1.592   5.024 -0.8113  2.5550  0.1150
   10MOL0     H 1320   1.342   1.638   4.734  0.7704 -0.7420 -0.8039
   10MOL0     H 1321   1.494   1.666   4.825 -0.3825  1.0447  0.0444
   10MOL0     H 1322   1.371   1.810   4.995 -0.0939 -2.7185 -0.3957
   10MOL0     H 1323   1.228   1.794   4.882 -1.8300  0.0767 -0.4936
   10MOL0     H 1324   1.492   1.930   4.813 -0.9962 -0.2629  1.5794
   10MOL0     H 1325   1.352   1.912   4.699  0.2896  1.9357 -0.3922
   10MOL0     H 1326   1.215   2.037   4.878 -1.6032  2.9312 -0.3439
   10MOL0     H 1327   1.333   2.123   4.771  1.4466  1.2015  0.8708
   10MOL0     H 1328   1.391   2.034   5.065  0.1316  1.2881  2.0685
   10MOL0     H 1329   1.477   2.155   4.969  1.1517 -0.8430 -1.0655
   10MOL0     H 1330   1.304   1.053   5.088 -1.8897  2.4196  0.5814
   10MOL0     H 1331   1.305   0.877   5.248 -1.6814 -1.9627  4.7991
   10MOL0     H 1332   1.624   0.555   5.536 -0.5351  2.6307 -0.2010
   10MOL0     H 1333   1.545   0.340   5.652 -1.6183  1.0719  2.8790
   10MOL0     H 1334   1.576   0.520   5.977  1.0271  0.7520  1.3959
   10MOL0     H 1335   1.664   0.670   5.839  0.6176  2.5727 -0.4286
   10MOL0     H 1336   2.277   0.870   5.751  0.8648  2.4587  0.9217
   10MOL0     H 1337   2.342   1.082   5.682  0.4649 -2.4088  0.9280
   10MOL0     H 1338   2.156   1.259   5.330 -1.3467 -1.4670  1.3806
   10MOL0     H 1339   2.290   1.148   5.391 -0.6086 -0.8840  1.6475
   10MOL0     H 1340   2.428   1.291   5.317  0.1740 -3.4028  1.5969
   10MOL0     H 1341   2.400   1.365   5.477 -2.9721  0.0229  0.6099
   10MOL0     H 1342   2.229   1.519   5.366  0.4842 -0.8080  2.3716
   10MOL0     H 1343   2.288   1.455   5.211  0.1794  0.7802 -0.1516
   10MOL0     H 1344   2.417   1.639   5.419  1.8934 -1.0975  0.8611
   10MOL0     H 1345   2.524   1.544   5.331  1.4077  2.6844 -0.0153
   10MOL0     H 1346   2.389   1.753   4.996  1.2859 -1.0153 -0.1404
   10MOL0     H 1347   1.954   1.123   5.490  0.0334 -2.2469 -1.8441
   10MOL0     H 1348   1.776   0.890   5.666 -0.3147  3.4953  1.4898
   10MOL0     H 1349   1.790   0.962   5.507 -2.3917  0.6960  1.7214
   10MOL0     H 1350   1.854   0.799   5.533  0.3549 -0.5160  0.4549
   11MOL0     O 1351   2.447   0.935   5.134  0.2477 -0.5257 -0.4110
   11MOL0     C 1352   2.555   0.969   5.186 -0.0184 -0.1881  0.0008
   11MOL0     O 1353   2.609   0.891   5.280  0.1237 -0.4622 -0.0885
   11MOL0     C 1354   2.543   0.786   5.340  0.6615 -1.0978  0.9115
   11MOL0     C 1355   2.429   0.804   5.417 -0.2446 -0.2989 -0.0421
   11MOL0     C 1356   2.361   0.699   5.481 -0.3744  0.5201 -1.0065
   11MOL0     C 1357   2.400   0.572   5.452 -0.2426 -0.2969  0.7799
   11MOL0     O 1358   2.339   0.465   5.506  0.3241 -0.1530  0.0808
   11MOL0     C 1359   2.195   0.460   5.496 -0.8477 -0.9935 -0.3061
   11MOL0     C 1360   2.157   0.341   5.580  0.3581  0.6014 -0.5633
   11MOL0     C 1361   2.012   0.296   5.554  0.4561  0.3014 -0.4450
   11MOL0     C 1362   1.957   0.215   5.669  0.1074 -0.0840 -1.0799
   11MOL0     C 1363   1.826   0.148   5.624  0.5308  0.6448 -0.3343
   11MOL0     C 1364   1.744   0.072   5.727  0.4706 -0.0641  0.2539
   11MOL0     C 1365   1.600   0.050   5.681 -0.1493 -0.4069 -0.8595
   11MOL0     C 1366   1.593  -0.078   5.602 -0.1295 -0.9294 -0.2187
   11MOL0     N 1367   1.607  -0.203   5.676  0.2619 -0.8976  0.9138
   11MOL0     C 1368   1.731  -0.262   5.701  0.8307 -0.2427 -0.1766
   11MOL0     C 1369   1.691  -0.376   5.767 -0.0357 -0.2525  0.7394
   11MOL0     C 1370   1.790  -0.476   5.820  0.5080  0.2545  0.5588
   11MOL0     C 1371   1.800  -0.584   5.716  0.0018 -0.1443  1.3692
   11MOL0     C 1372   1.912  -0.539   5.608 -0.1780  0.2349  0.2864
   11MOL0     C 1373   1.928  -0.643   5.505 -0.9510 -0.5265  0.1189
   11MOL0     O 1374   1.817  -0.640   5.404 -0.3455 -0.2898 -0.7597
   11MOL0     C 1375   1.805  -0.741   5.306 -0.2172  0.0219 -0.0928
   11MOL0     C 1376   1.904  -0.821   5.275 -0.1418  0.9358  0.1428
   11MOL0     C 1377   1.902  -0.922   5.174 -0.0151 -0.4586  0.1658
   11MOL0     C 1378   1.791  -0.932   5.094 -0.3370  0.8095  0.5849
   11MOL0     C 1379   1.795  -1.011   4.969 -0.1509  0.0902 -0.4853
   11MOL0     O 1380   1.694  -0.995   4.876  0.4980  0.2031  0.2123
   11MOL0     C 1381   1.697  -1.075   4.756 -0.2732 -0.8368 -0.4253
   11MOL0     C 1382   1.796  -1.059   4.658  0.0472  0.2891 -0.8874
   11MOL0     C 1383   1.803  -1.131   4.538 -0.0734 -0.7447 -0.0226
   11MOL0     C 1384   1.697  -1.208   4.503  1.2161 -0.6483  0.1379
   11MOL0     O 1385   1.700  -1.257   4.379  0.8361  1.5276  0.4683
   11MOL0     C 1386   1.595  -1.354   4.332 -0.9355  0.9292  0.4781
   11MOL0     C 1387   1.647  -1.498   4.344  0.3668 -1.2805 -0.7975
   11MOL0     C 1388   1.659  -1.543   4.495  0.1581  0.1926  0.3120
   11MOL0     C 1389   1.716  -1.685   4.487 -0.6792  0.1588  0.1627
   11MOL0     C 1390   1.707  -1.759   4.629  0.1178  0.0406  0.1269
   11MOL0     C 1391   1.574  -1.835   4.639 -0.0384 -0.5139  0.9103
   11MOL0     C 1392   1.554  -1.905   4.775 -0.6505 -0.6201  0.9717
   11MOL0     C 1393   1.402  -1.923   4.811  0.4552 -0.4458  0.1098
   11MOL0    Cl 1394   1.381  -2.020   4.962  0.1615 -0.2977 -0.3923
   11MOL0     C 1395   1.594  -1.232   4.600 -0.3466 -0.7173  0.0489
   11MOL0     C 1396   1.588  -1.148   4.717  0.0777 -0.3552  0.1279
   11MOL0     O 1397   1.877  -1.098   4.965 -0.2916  0.6055  0.0223
   11MOL0     C 1398   1.685  -0.841   5.124 -0.6448 -0.2109 -0.2430
   11MOL0     C 1399   1.694  -0.741   5.228 -0.8957  0.2391 -0.0268
   11MOL0     N 1400   1.559  -0.367   5.790  0.5680  0.7576  0.0941
   11MOL0     N 1401   1.504  -0.271   5.736 -0.1737  0.1901  0.7425
   11MOL0     C 1402   2.523   0.544   5.385 -0.3323  0.3890 -0.1553
   11MOL0     C 1403   2.600   0.655   5.330  0.0393  0.0667 -0.5941
   11MOL0     C 1404   2.596   1.104   5.168 -0.3713 -0.5344  0.8103
   11MOL0     C 1405   2.512   1.202   5.102  0.8472  0.6703 -0.9725
   11MOL0     C 1406   2.548   1.336   5.088  0.1882 -0.2938  0.2950
   11MOL0     C 1407   2.673   1.386   5.127 -0.1801 -0.3943  0.3648
   11MOL0     O 1408   2.713   1.504   5.073 -0.1283 -0.6476  0.9016
   11MOL0     C 1409   2.781   1.586   5.169 -0.9119 -0.9259 -0.6048
   11MOL0     C 1410   2.931   1.571   5.136  0.0364 -0.0776  0.2136
   11MOL0     C 1411   2.955   1.631   4.997 -0.3544 -0.2478 -0.4046
   11MOL0     C 1412   3.104   1.625   4.952 -0.0981 -0.2377  1.1537
   11MOL0     C 1413   3.098   1.649   4.809 -0.8831 -0.1693  0.2922
   11MOL0     C 1414   3.094   1.680   4.692  0.1331  0.8755  0.1879
   11MOL0     C 1415   2.754   1.287   5.193 -0.0649 -0.9149 -0.1292
   11MOL0     C 1416   2.719   1.155   5.220 -0.1360 -0.2354  0.0410
   11MOL0     C 1417   2.829   1.063   5.270 -0.8817 -0.5051 -0.1475
   11MOL0     H 1418   2.393   0.903   5.445 -0.2315 -0.1156 -0.6593
   11MOL0     H 1419   2.278   0.717   5.549  1.5315 -1.7947  2.1997
   11MOL0     H 1420   2.152   0.546   5.547 -0.7718 -0.9611 -0.2961
   11MOL0     H 1421   2.163   0.444   5.392 -0.4579  0.6152 -0.7103
   11MOL0     H 1422   2.184   0.363   5.684 -1.3135  0.4771 -0.0732
   11MOL0     H 1423   2.223   0.258   5.554 -0.5472 -0.1984 -0.3585
   11MOL0     H 1424   2.016   0.232   5.466 -0.5605  0.4891 -0.6377
   11MOL0     H 1425   1.941   0.378   5.536 -0.1928  0.6409  2.9415
   11MOL0     H 1426   2.025   0.133   5.694  1.5092  1.3774  0.1625
   11MOL0     H 1427   1.952   0.270   5.764 -0.7535 -1.3843 -0.3468
   11MOL0     H 1428   1.758   0.221   5.580  0.0466  1.3836  1.5771
   11MOL0     H 1429   1.848   0.074   5.546 -3.5172 -0.9090 -0.2786
   11MOL0     H 1430   1.793  -0.025   5.743 -0.2619 -1.0415 -2.8426
   11MOL0     H 1431   1.741   0.126   5.822 -2.1515 -4.5113  3.0769
   11MOL0     H 1432   1.557   0.126   5.615  0.1218 -0.2332 -0.8351
   11MOL0     H 1433   1.526   0.048   5.762  1.2776 -1.1357  0.4884
   11MOL0     H 1434   1.495  -0.081   5.553  0.3966 -0.1797 -1.3668
   11MOL0     H 1435   1.671  -0.080   5.525 -1.8828 -2.0833 -2.0448
   11MOL0     H 1436   1.835  -0.244   5.678  1.3032 -1.4011  0.9065
   11MOL0     H 1437   1.889  -0.434   5.842 -0.4336  1.2046  3.3400
   11MOL0     H 1438   1.756  -0.511   5.918  0.9845 -0.6338  0.4200
   11MOL0     H 1439   1.834  -0.676   5.764  6.2870 -0.0732 -1.8709
   11MOL0     H 1440   1.716  -0.608   5.651 -0.0264  0.3074  1.2328
   11MOL0     H 1441   2.011  -0.528   5.653  0.0408 -2.1132  0.5174
   11MOL0     H 1442   1.887  -0.454   5.544 -1.7900 -0.3256  0.1255
   11MOL0     H 1443   1.961  -0.743   5.532  0.1360  0.1833  1.5470
   11MOL0     H 1444   2.015  -0.596   5.459 -0.9125  0.4300  1.1351
   11MOL0     H 1445   2.001  -0.802   5.321 -0.3468 -1.0469  1.5054
   11MOL0     H 1446   1.992  -0.980   5.157 -0.6396 -1.9983  1.8488
   11MOL0     H 1447   1.867  -0.977   4.664 -3.0443  3.2719 -2.3418
   11MOL0     H 1448   1.883  -1.111   4.466 -0.1546 -0.7635 -0.1187
   11MOL0     H 1449   1.501  -1.346   4.387 -0.9237  0.8165  0.5151
   11MOL0     H 1450   1.586  -1.332   4.225 -1.8893 -0.3299  0.2662
   11MOL0     H 1451   1.575  -1.558   4.288 -0.0031  0.8956 -2.8108
   11MOL0     H 1452   1.746  -1.502   4.298 -0.9422  1.1930 -4.3057
   11MOL0     H 1453   1.730  -1.480   4.550 -2.5921  4.4372 -0.4570
   11MOL0     H 1454   1.569  -1.540   4.557 -1.3078 -0.0746 -1.7078
   11MOL0     H 1455   1.823  -1.668   4.478 -0.6706  1.2942  1.8903
   11MOL0     H 1456   1.679  -1.746   4.404  0.6313 -0.7697  0.2355
   11MOL0     H 1457   1.729  -1.692   4.712  1.6992 -0.5273  0.2046
   11MOL0     H 1458   1.785  -1.836   4.627  0.6476  0.5778 -0.5894
   11MOL0     H 1459   1.494  -1.764   4.618 -0.4115 -1.0693  0.4208
   11MOL0     H 1460   1.566  -1.905   4.556  0.6923 -1.1637  1.3654
   11MOL0     H 1461   1.598  -1.841   4.853  1.4049 -0.4109 -0.2811
   11MOL0     H 1462   1.616  -1.995   4.773  2.9593  1.6656 -0.4330
   11MOL0     H 1463   1.345  -1.831   4.826 -0.9162 -1.3097  0.4064
   11MOL0     H 1464   1.354  -1.978   4.730  2.5209 -1.3924 -0.5462
   11MOL0     H 1465   1.525  -1.315   4.589 -0.7512 -0.3767 -0.0030
   11MOL0     H 1466   1.503  -1.174   4.780 -1.1385  1.5439 -0.6190
   11MOL0     H 1467   1.601  -0.847   5.055 -0.5262  2.6222 -0.7648
   11MOL0     H 1468   1.619  -0.663   5.243 -1.2660  0.1572 -1.3041
   11MOL0     H 1469   2.549   0.439   5.372  0.5681  0.2102  2.3849
   11MOL0     H 1470   2.691   0.623   5.280  1.9242  0.1720  2.5109
   11MOL0     H 1471   2.414   1.175   5.063  0.1936  2.1694 -0.4530
   11MOL0     H 1472   2.468   1.400   5.051 -2.2077 -3.0734  0.2474
   11MOL0     H 1473   2.760   1.556   5.272 -2.8808 -0.0345 -0.6821
   11MOL0     H 1474   2.752   1.690   5.149 -1.6209 -1.2798 -1.5358
   11MOL0     H 1475   2.955   1.465   5.121 -2.9554 -0.7242 -0.5679
   11MOL0     H 1476   2.998   1.621   5.207  1.8972 -2.3191  0.1666
   11MOL0     H 1477   2.929   1.737   4.996  1.9759  0.3634 -0.4272
   11MOL0     H 1478   2.898   1.575   4.922 -0.2960 -2.4274  1.0773
   11MOL0     H 1479   3.171   1.695   5.002  1.6075 -0.5909 -0.5254
   11MOL0     H 1480   3.147   1.524   4.958  0.1262 -0.1513  0.9987
   11MOL0     H 1481   3.116   1.701   4.589  0.5698 -0.8126 -0.0923
   11MOL0     H 1482   2.849   1.332   5.221 -0.5659  2.6503 -3.4674
   11MOL0     H 1483   2.797   1.032   5.371 -1.6292 -0.8451 -0.4826
   11MOL0     H 1484   2.866   0.988   5.199  1.7329 -0.5190  1.1117
   11MOL0     H 1485   2.922   1.117   5.290 -1.2128 -0.7497  2.5521
   12MOL0     O 1486   9.174   9.878   4.304 -0.3081 -0.0469 -0.6109
   12MOL0     C 1487   9.178   9.879   4.424 -0.7025 -0.0223  0.3431
   12MOL0     O 1488   9.289   9.852   4.503 -0.3130  0.3690  0.7965
   12MOL0     C 1489   9.399   9.839   4.429 -0.9270  0.3621 -0.2510
   12MOL0     C 1490   9.459   9.937   4.350  1.0168  0.9091  0.3235
   12MOL0     C 1491   9.576   9.918   4.274 -0.1316  0.3030 -0.0190
   12MOL0     C 1492   9.641   9.800   4.263 -0.2084  0.8263 -0.4625
   12MOL0     O 1493   9.763   9.793   4.193  0.0679 -0.6245 -0.5597
   12MOL0     C 1494   9.841   9.679   4.210 -0.1286 -0.5284 -0.9918
   12MOL0     C 1495   9.961   9.659   4.124 -0.4649  1.5152  1.3905
   12MOL0     C 1496  10.100   9.716   4.173 -0.8383  0.6565 -0.7462
   12MOL0     C 1497  10.080   9.866   4.200  0.1126 -0.1437  0.1818
   12MOL0     C 1498  10.214   9.917   4.269  0.3065 -0.2747 -0.4264
   12MOL0     C 1499  10.336   9.908   4.187  0.7066 -0.2955  0.5695
   12MOL0     C 1500  10.459   9.979   4.249 -0.3233  0.4026  0.0231
   12MOL0     C 1501  10.473  10.126   4.211 -0.0602  0.4026 -0.3411
   12MOL0     N 1502  10.609  10.176   4.252  1.0289  0.3076 -0.4739
   12MOL0     C 1503  10.632  10.198   4.385 -1.6264 -0.0934 -0.3459
   12MOL0     C 1504  10.766  10.218   4.395  0.3587 -0.9690 -0.2167
   12MOL0     C 1505  10.847  10.239   4.519  0.3854  0.0190 -0.5642
   12MOL0     C 1506  10.873  10.384   4.553 -0.3979 -0.0071 -0.4167
   12MOL0     C 1507  10.920  10.470   4.436 -0.2505 -0.6763 -0.1382
   12MOL0     C 1508  11.005  10.597   4.488 -0.3485 -0.9027  0.7364
   12MOL0     O 1509  10.907  10.672   4.562  0.4125  0.4792 -0.1122
   12MOL0     C 1510  10.944  10.782   4.627 -0.0514  0.3648 -0.4171
   12MOL0     C 1511  11.074  10.830   4.657  0.0324 -0.3168 -0.4752
   12MOL0     C 1512  11.092  10.959   4.702  0.4953 -0.4682 -0.3949
   12MOL0     C 1513  10.989  11.045   4.735  0.5383 -0.1455 -0.3642
   12MOL0     C 1514  11.006  11.176   4.808  0.2029  1.1807  0.2558
   12MOL0     O 1515  11.133  11.230   4.800  0.3288  0.0355  0.6836
   12MOL0     C 1516  11.138  11.355   4.847  1.8205  0.1905 -0.5754
   12MOL0     C 1517  11.085  11.462   4.761  0.0041  0.0462  0.1410
   12MOL0     C 1518  11.092  11.595   4.812  0.0149 -0.1086 -0.3638
   12MOL0     C 1519  11.154  11.619   4.936  1.0194  0.1434 -0.4032
   12MOL0     O 1520  11.153  11.750   4.986  0.2815 -0.3658  0.0163
   12MOL0     C 1521  11.241  11.779   5.099 -0.4174  0.0434 -0.3575
   12MOL0     C 1522  11.244  11.929   5.135  0.0100 -0.3475  0.8149
   12MOL0     C 1523  11.344  12.024   5.051 -0.2568 -0.5925  0.1704
   12MOL0     C 1524  11.371  11.986   4.906 -0.3834 -0.2501  0.9826
   12MOL0     C 1525  11.484  12.078   4.852 -0.2779  0.0045 -0.1192
   12MOL0     C 1526  11.496  12.078   4.700 -0.1925 -0.6178 -0.0333
   12MOL0     C 1527  11.649  12.067   4.656  0.1525 -0.6193 -0.0414
   12MOL0     C 1528  11.650  12.019   4.519  0.0948  1.1487 -1.0990
   12MOL0    Cl 1529  11.829  11.986   4.496  0.1139  0.0642  0.6099
   12MOL0     C 1530  11.197  11.513   5.017 -1.1609  0.6207 -0.2917
   12MOL0     C 1531  11.191  11.383   4.975  0.9318  0.9156  0.5030
   12MOL0     O 1532  10.905  11.222   4.860  0.0931 -0.2664 -0.5942
   12MOL0     C 1533  10.862  10.996   4.712 -1.1938 -0.2248  0.1907
   12MOL0     C 1534  10.843  10.872   4.648  0.3325 -0.3133 -0.3238
   12MOL0     N 1535  10.823  10.203   4.273 -0.7907  0.1968  0.0859
   12MOL0     N 1536  10.727  10.176   4.183 -0.6620 -1.3372  0.3219
   12MOL0     C 1537   9.582   9.692   4.335  0.3301 -0.6894 -0.5516
   12MOL0     C 1538   9.461   9.715   4.418 -0.5372 -0.3912  0.2447
   12MOL0     C 1539   9.051   9.908   4.483 -0.3178 -0.3317  0.5516
   12MOL0     C 1540   9.057   9.930   4.619  0.3516 -0.7345 -0.1675
   12MOL0     C 1541   8.943   9.952   4.695 -0.3282 -1.1833 -0.3070
   12MOL0     C 1542   8.818   9.970   4.633  1.1992  0.7498 -0.5489
   12MOL0     O 1543   8.714  10.008   4.717  0.1592  0.3229 -0.6299
   12MOL0     C 1544   8.697  10.141   4.760  0.6165  0.1601 -0.6756
   12MOL0     C 1545   8.570  10.158   4.854  0.5964 -0.4104 -0.0089
   12MOL0     C 1546   8.451  10.144   4.759  0.5046 -0.0574 -0.5104
   12MOL0     C 1547   8.329  10.105   4.834  0.5760 -0.7751 -1.1250
   12MOL0     C 1548   8.211  10.124   4.751  0.7452  0.4561  0.1672
   12MOL0     C 1549   8.108  10.141   4.685  0.1803 -0.3405 -0.3669
   12MOL0     C 1550   8.815   9.960   4.489  0.0265 -0.0635 -0.0023
   12MOL0     C 1551   8.925   9.916   4.417  0.6588 -0.5759 -0.0069
   12MOL0     C 1552   8.892   9.887   4.273  0.4668  0.6307  0.2570
   12MOL0     H 1553   9.402  10.030   4.348 -0.3487  0.0878  0.3026
   12MOL0     H 1554   9.608   9.999   4.209  1.1206  0.3580  0.6441
   12MOL0     H 1555   9.871   9.680   4.315 -0.0458  0.7133 -1.0183
   12MOL0     H 1556   9.772   9.596   4.189 -1.6222  0.9634 -2.2123
   12MOL0     H 1557   9.938   9.709   4.029  0.7034  1.1591  0.8918
   12MOL0     H 1558   9.971   9.551   4.113  0.3640  1.5793  1.4420
   12MOL0     H 1559  10.183   9.703   4.103  1.3327  0.2972  1.7400
   12MOL0     H 1560  10.131   9.666   4.266 -0.0675  3.2233  0.4551
   12MOL0     H 1561  10.068   9.929   4.112 -0.5843  0.5784  0.7747
   12MOL0     H 1562   9.995   9.869   4.269 -0.4242 -2.0560 -0.3146
   12MOL0     H 1563  10.201  10.014   4.318 -1.8488 -1.9294  2.5571
   12MOL0     H 1564  10.233   9.847   4.351  1.8777 -0.3770 -0.8455
   12MOL0     H 1565  10.366   9.803   4.176  0.2574 -0.3249 -0.5910
   12MOL0     H 1566  10.318   9.952   4.089  0.5257  1.3563  1.3147
   12MOL0     H 1567  10.546   9.923   4.212  0.2167 -1.2855  3.4601
   12MOL0     H 1568  10.461   9.973   4.358 -2.9194  2.4568  0.2937
   12MOL0     H 1569  10.474  10.127   4.102 -2.0176  3.5672 -0.4704
   12MOL0     H 1570  10.386  10.187   4.238 -0.6567  0.4941 -2.3060
   12MOL0     H 1571  10.556  10.201   4.462 -2.8779 -0.8271 -1.5131
   12MOL0     H 1572  10.799  10.199   4.608  0.9856  1.1207  0.2867
   12MOL0     H 1573  10.937  10.179   4.508  0.1901 -0.5321  0.7211
   12MOL0     H 1574  10.802  10.440   4.615  1.4650 -0.3287  2.1936
   12MOL0     H 1575  10.955  10.381   4.626  0.3663  2.7285 -1.0172
   12MOL0     H 1576  10.834  10.500   4.375 -2.1179 -2.9321  1.2530
   12MOL0     H 1577  10.993  10.423   4.370  0.1078 -2.5285  1.4928
   12MOL0     H 1578  11.038  10.662   4.406  1.1517 -1.1006  1.1526
   12MOL0     H 1579  11.084  10.559   4.554 -1.1217 -3.5002  0.2936
   12MOL0     H 1580  11.164  10.770   4.646  2.1023  2.5057 -0.0833
   12MOL0     H 1581  11.197  10.987   4.708  0.0773  1.1356  4.8912
   12MOL0     H 1582  11.040  11.434   4.666  1.5271 -2.6614  0.1258
   12MOL0     H 1583  11.054  11.675   4.750 -1.1411 -1.7643 -1.8925
   12MOL0     H 1584  11.210  11.730   5.191 -0.7851  3.5754  1.5917
   12MOL0     H 1585  11.340  11.738   5.078  0.2259  1.2981  0.0998
   12MOL0     H 1586  11.145  11.974   5.129  1.1377  2.6479  2.4299
   12MOL0     H 1587  11.268  11.935   5.242 -0.0284 -0.7802  0.8486
   12MOL0     H 1588  11.319  12.130   5.055  0.8474 -0.2183 -1.8773
   12MOL0     H 1589  11.443  12.014   5.096 -0.4606 -2.4463  0.3072
   12MOL0     H 1590  11.280  12.007   4.849 -0.3368  1.2827  1.4386
   12MOL0     H 1591  11.399  11.881   4.892 -0.4039 -0.0742 -0.6096
   12MOL0     H 1592  11.579  12.050   4.898 -0.8657  0.9273  1.7326
   12MOL0     H 1593  11.455  12.179   4.882  1.1711  0.4349 -0.0982
   12MOL0     H 1594  11.432  11.998   4.662  0.2272  0.3493 -2.9647
   12MOL0     H 1595  11.464  12.177   4.668  1.5002 -0.3056 -0.8626
   12MOL0     H 1596  11.699  11.998   4.726  0.9611  0.3824  0.3935
   12MOL0     H 1597  11.711  12.156   4.669 -1.3456  0.6466 -1.2732
   12MOL0     H 1598  11.591  11.929   4.500 -0.2426  0.1232  3.6199
   12MOL0     H 1599  11.616  12.097   4.451 -3.8691 -1.1849 -2.0725
   12MOL0     H 1600  11.235  11.518   5.119  1.2897 -1.0760 -1.0301
   12MOL0     H 1601  11.213  11.290   5.027  0.6272 -1.1149 -2.6608
   12MOL0     H 1602  10.773  11.054   4.736 -1.7549 -1.5153  1.3727
   12MOL0     H 1603  10.738  10.847   4.633  0.5758 -0.7783 -1.3355
   12MOL0     H 1604   9.647   9.608   4.355 -1.1917 -1.4105  1.8398
   12MOL0     H 1605   9.424   9.620   4.456  1.0623 -1.7451 -1.4157
   12MOL0     H 1606   9.153   9.940   4.670 -0.1118 -1.4293  0.8739
   12MOL0     H 1607   8.945   9.957   4.804  1.0709  2.0950 -0.3835
   12MOL0     H 1608   8.693  10.205   4.672  2.4266  0.8477 -0.2946
   12MOL0     H 1609   8.790  10.174   4.807 -0.6314  2.0657  0.5852
   12MOL0     H 1610   8.577  10.254   4.907  0.1151 -0.2366 -0.2463
   12MOL0     H 1611   8.572  10.072   4.921  1.5293 -2.1833 -2.2048
   12MOL0     H 1612   8.470  10.070   4.681  2.8231  1.5715 -1.6240
   12MOL0     H 1613   8.444  10.244   4.716 -2.1432  0.2202  0.3629
   12MOL0     H 1614   8.338   9.998   4.855  3.3984 -0.0703  2.1949
   12MOL0     H 1615   8.315  10.167   4.923  0.2381  1.1621 -2.4781
   12MOL0     H 1616   8.027  10.141   4.615  1.9201 -0.8284 -2.4970
   12MOL0     H 1617   8.720   9.986   4.443  1.2426 -1.7392 -3.9021
   12MOL0     H 1618   8.931   9.788   4.249 -1.1677 -0.7975  2.9902
   12MOL0     H 1619   8.783   9.884   4.271  0.3795  1.4667  1.9361
   12MOL0     H 1620   8.933   9.966   4.209  4.2069 -0.4233  1.1073
   13MOL0     O 1621  10.218   9.677   5.053 -0.5800  0.3360  0.0414
   13MOL0     C 1622  10.187   9.698   5.170  0.0464 -0.4598 -0.4800
   13MOL0     O 1623  10.077   9.651   5.229  0.1803  0.7244 -0.1666
   13MOL0     C 1624  10.002   9.538   5.187  0.1387 -0.5023 -0.2383
   13MOL0     C 1625  10.049   9.439   5.103  0.0442 -1.7584  0.1147
   13MOL0     C 1626   9.974   9.333   5.065  0.1939 -0.6647  0.3943
   13MOL0     C 1627   9.839   9.322   5.113 -0.3100 -0.5796 -0.3059
   13MOL0     O 1628   9.739   9.239   5.082 -0.1782 -0.0512 -0.7991
   13MOL0     C 1629   9.753   9.145   4.985  0.1148  0.5591 -1.3758
   13MOL0     C 1630   9.638   9.046   5.020  0.5463 -0.6168 -0.1363
   13MOL0     C 1631   9.497   9.104   5.002  1.0664  0.0462 -0.0498
   13MOL0     C 1632   9.394   9.016   5.073  1.1446 -0.9800  0.2431
   13MOL0     C 1633   9.259   9.079   5.091 -0.3896 -0.4271 -0.2668
   13MOL0     C 1634   9.206   9.125   4.951  0.4054 -0.6344 -0.6247
   13MOL0     C 1635   9.056   9.130   4.955  1.0879  0.6447  0.0612
   13MOL0     C 1636   9.004   9.242   5.038  0.5451  0.1420  0.1689
   13MOL0     N 1637   8.860   9.275   5.011  0.3990  0.3297 -0.5463
   13MOL0     C 1638   8.754   9.250   5.095 -0.6764  0.3275 -0.1345
   13MOL0     C 1639   8.646   9.268   5.025  0.2313 -0.1915  0.1104
   13MOL0     C 1640   8.511   9.256   5.086  0.1856 -0.4292 -0.0329
   13MOL0     C 1641   8.442   9.388   5.123  0.4679  0.2360 -0.4836
   13MOL0     C 1642   8.535   9.495   5.182 -0.5447 -0.2324  0.1026
   13MOL0     C 1643   8.457   9.591   5.261 -0.0927 -0.3325  0.4007
   13MOL0     O 1644   8.351   9.648   5.178 -0.3416  0.5517 -0.1039
   13MOL0     C 1645   8.292   9.763   5.228 -0.0137 -0.0410  0.6342
   13MOL0     C 1646   8.271   9.781   5.370  0.4306  0.7492  0.5858
   13MOL0     C 1647   8.229   9.904   5.411  0.2125  0.7873  0.1770
   13MOL0     C 1648   8.195  10.009   5.326 -0.4504 -0.0488  0.1331
   13MOL0     C 1649   8.142  10.139   5.377  0.3356 -0.5302  0.8134
   13MOL0     O 1650   8.113  10.235   5.281  0.2982 -0.2595  1.0970
   13MOL0     C 1651   8.039  10.345   5.324  0.2535 -0.4925 -0.0653
   13MOL0     C 1652   7.902  10.334   5.351 -0.6782 -0.0209 -0.0530
   13MOL0     C 1653   7.829  10.447   5.390 -0.0389 -0.2610  0.0912
   13MOL0     C 1654   7.896  10.569   5.422 -0.2527  0.6416 -0.2031
   13MOL0     O 1655   7.810  10.672   5.468  0.1580  1.0222  0.2098
   13MOL0     C 1656   7.855  10.800   5.504  0.3196  1.1042  0.0740
   13MOL0     C 1657   7.738  10.874   5.575 -0.3431  1.0972  0.3405
   13MOL0     C 1658   7.612  10.874   5.495  0.5285  0.8361  0.5129
   13MOL0     C 1659   7.504  10.958   5.562  0.5652 -0.2777  0.6547
   13MOL0     C 1660   7.374  10.981   5.472  0.1088 -0.0285  0.4170
   13MOL0     C 1661   7.299  11.104   5.528  0.2613 -0.4029 -0.0916
   13MOL0     C 1662   7.154  11.110   5.470  0.2138 -0.3216 -0.5631
   13MOL0     C 1663   7.054  11.043   5.562 -0.7772 -0.8101 -0.1690
   13MOL0    Cl 1664   7.090  10.873   5.610 -0.0253  0.2181  0.2118
   13MOL0     C 1665   8.029  10.582   5.390  0.0057  0.1157 -0.5473
   13MOL0     C 1666   8.098  10.475   5.335 -0.5788  0.3105  0.0862
   13MOL0     O 1667   8.107  10.153   5.494  0.2181  0.6866  0.2732
   13MOL0     C 1668   8.218   9.986   5.181 -0.1380 -0.0539 -1.4757
   13MOL0     C 1669   8.263   9.863   5.136 -0.2620 -0.4171 -0.7497
   13MOL0     N 1670   8.683   9.297   4.893 -0.0810  0.9471  0.0314
   13MOL0     N 1671   8.810   9.304   4.887 -0.1344  0.3347  0.5652
   13MOL0     C 1672   9.801   9.417   5.215  0.4852  0.6938 -0.0123
   13MOL0     C 1673   9.883   9.517   5.247  0.3625  0.2213  0.9275
   13MOL0     C 1674  10.268   9.783   5.257 -0.1552 -0.0710 -0.1271
   13MOL0     C 1675  10.299   9.736   5.392  0.9517 -0.3628  0.0730
   13MOL0     C 1676  10.391   9.805   5.466 -0.0979 -0.6925 -1.0083
   13MOL0     C 1677  10.459   9.917   5.425 -0.7241  0.3999  0.2612
   13MOL0     O 1678  10.542   9.991   5.507  0.3622 -0.5834 -0.4569
   13MOL0     C 1679  10.682   9.982   5.475  1.0521  0.0106 -0.2032
   13MOL0     C 1680  10.763  10.076   5.550  0.0141 -0.1051 -0.0225
   13MOL0     C 1681  10.752  10.229   5.490  0.1154  0.0008  0.4757
   13MOL0     C 1682  10.839  10.317   5.567 -0.4200 -0.5132 -0.0227
   13MOL0     C 1683  10.983  10.292   5.533 -0.6409  0.7129  0.0366
   13MOL0     C 1684  11.102  10.284   5.508  0.3099  0.2612  0.1640
   13MOL0     C 1685  10.425   9.962   5.296  1.3251  0.0675  0.0122
   13MOL0     C 1686  10.346   9.895   5.209 -1.0369  0.8034 -0.1118
   13MOL0     C 1687  10.316   9.972   5.079 -0.3102  0.5181  0.1172
   13MOL0     H 1688  10.156   9.443   5.085 -0.0549 -2.1560 -0.6194
   13MOL0     H 1689  10.015   9.262   4.994 -2.1384 -1.9020  0.1545
   13MOL0     H 1690   9.744   9.184   4.883 -0.8015 -0.2870 -1.6411
   13MOL0     H 1691   9.848   9.093   4.991 -0.5017 -0.4508  2.7627
   13MOL0     H 1692   9.652   9.025   5.127 -0.5834 -3.5913 -0.4587
   13MOL0     H 1693   9.656   8.957   4.959 -1.6791 -1.5389  0.4218
   13MOL0     H 1694   9.471   9.124   4.897  0.7768  0.1020  0.0291
   13MOL0     H 1695   9.490   9.201   5.052  1.1943  0.3808 -0.6695
   13MOL0     H 1696   9.382   8.918   5.025 -1.8970 -0.0933 -1.0473
   13MOL0     H 1697   9.431   9.007   5.176  1.0783 -1.6252  0.2176
   13MOL0     H 1698   9.200   9.004   5.144  1.7551 -2.2701 -0.3048
   13MOL0     H 1699   9.282   9.164   5.156  0.9452 -1.2125  0.3473
   13MOL0     H 1700   9.257   9.219   4.928 -1.5259  0.9924  1.3722
   13MOL0     H 1701   9.224   9.049   4.874 -0.8551 -4.1340  2.2867
   13MOL0     H 1702   9.018   9.030   4.978  3.8897 -0.3206  0.8080
   13MOL0     H 1703   9.024   9.161   4.855 -0.3511  1.4095  0.7178
   13MOL0     H 1704   9.017   9.205   5.140  0.3335  0.0157  0.1503
   13MOL0     H 1705   9.068   9.330   5.027 -2.2247  2.0610 -2.1870
   13MOL0     H 1706   8.760   9.208   5.195 -0.5794 -0.3220 -0.4057
   13MOL0     H 1707   8.444   9.208   5.014  0.6427 -0.3319 -0.5294
   13MOL0     H 1708   8.520   9.189   5.172  0.9258  0.1006  0.3160
   13MOL0     H 1709   8.404   9.439   5.034 -2.1219 -4.1543 -2.2728
   13MOL0     H 1710   8.363   9.362   5.195  0.2413  0.3731 -0.6814
   13MOL0     H 1711   8.594   9.543   5.103  0.6457  0.6287  1.4743
   13MOL0     H 1712   8.611   9.449   5.245 -0.7039 -1.5529 -0.6268
   13MOL0     H 1713   8.535   9.662   5.288  2.6352 -2.0994 -2.1616
   13MOL0     H 1714   8.406   9.547   5.347  1.5492  0.4104  1.8300
   13MOL0     H 1715   8.305   9.721   5.453  1.6460  1.0228  0.3049
   13MOL0     H 1716   8.226   9.924   5.518  1.0266 -0.8126  0.5302
   13MOL0     H 1717   7.855  10.236   5.349 -1.3920  0.2616  1.3728
   13MOL0     H 1718   7.721  10.438   5.403  0.0161  0.1502  0.8965
   13MOL0     H 1719   7.951  10.789   5.556  1.1675  0.0729 -1.6123
   13MOL0     H 1720   7.872  10.861   5.415 -2.1185 -0.0834 -1.3047
   13MOL0     H 1721   7.725  10.823   5.671  0.6447 -0.4710 -0.3220
   13MOL0     H 1722   7.775  10.972   5.607 -0.4638  0.5207  2.4407
   13MOL0     H 1723   7.635  10.902   5.392  1.5586 -2.6042 -0.2977
   13MOL0     H 1724   7.586  10.768   5.487  2.9045  0.1425  1.1987
   13MOL0     H 1725   7.531  11.061   5.586  1.0749  1.6998 -6.1890
   13MOL0     H 1726   7.481  10.908   5.656  0.1483  0.8996  1.1912
   13MOL0     H 1727   7.324  10.884   5.471 -0.9896  0.5301  0.3367
   13MOL0     H 1728   7.398  11.016   5.372 -0.1037  0.1859  0.4421
   13MOL0     H 1729   7.292  11.107   5.637  1.7436  1.5645  0.0017
   13MOL0     H 1730   7.358  11.186   5.486  0.3102 -0.0315  0.6949
   13MOL0     H 1731   7.145  11.060   5.373 -1.5111  0.4762 -0.8558
   13MOL0     H 1732   7.130  11.215   5.453  1.6305 -0.0902 -1.1905
   13MOL0     H 1733   7.045  11.112   5.647  2.1405  4.8696 -3.9035
   13MOL0     H 1734   6.954  11.045   5.518 -2.0036  0.3268  2.4299
   13MOL0     H 1735   8.082  10.673   5.418 -1.2007  0.3976  0.9902
   13MOL0     H 1736   8.202  10.495   5.311 -0.9588  0.6412 -1.4157
   13MOL0     H 1737   8.189  10.056   5.103 -3.2249 -1.6054 -1.8889
   13MOL0     H 1738   8.289   9.850   5.032  2.2590 -0.3843 -0.1811
   13MOL0     H 1739   9.709   9.416   5.273 -1.2068 -0.3567 -2.5205
   13MOL0     H 1740   9.841   9.581   5.324 -0.8791  0.2893  0.2173
   13MOL0     H 1741  10.241   9.652   5.428  1.4179 -0.6808  0.0874
   13MOL0     H 1742  10.409   9.769   5.567 -2.4923  2.1988  0.6199
   13MOL0     H 1743  10.697   9.984   5.367 -3.4446  1.5407 -1.0152
   13MOL0     H 1744  10.716   9.885   5.512  0.0701 -1.0946 -2.0445
   13MOL0     H 1745  10.866  10.039   5.552  0.2156  0.3867 -0.8382
   13MOL0     H 1746  10.721  10.077   5.651 -0.9144  2.5230 -0.3488
   13MOL0     H 1747  10.651  10.265   5.511 -0.8243 -2.7458  1.1549
   13MOL0     H 1748  10.773  10.225   5.383 -2.1108 -0.6546 -0.0042
   13MOL0     H 1749  10.824  10.425   5.557  1.6656  0.0604  2.0637
   13MOL0     H 1750  10.813  10.297   5.672 -0.1622  0.3240  0.2121
   13MOL0     H 1751  11.208  10.265   5.504  0.2946 -0.2452  1.6953
   13MOL0     H 1752  10.482  10.046   5.257  2.4776  0.1003  1.6593
   13MOL0     H 1753  10.402   9.966   5.011 -0.3032  2.1259 -0.0589
   13MOL0     H 1754  10.227   9.931   5.033  2.0256 -3.0003 -1.7124
   13MOL0     H 1755  10.297  10.077   5.103 -0.3036  1.5260 -3.6143
   14MOL0     O 1756   4.794   5.664   0.417 -0.4123 -0.2552 -0.3781
   14MOL0     C 1757   4.815   5.629   0.535  0.5364  0.8289 -0.0324
   14MOL0     O 1758   4.817   5.717   0.643 -0.9132  0.3019  0.1804
   14MOL0     C 1759   4.868   5.847   0.628 -0.2641  0.1618  0.2224
   14MOL0     C 1760   4.820   5.947   0.706  0.3722 -0.4634 -0.0312
   14MOL0     C 1761   4.859   6.082   0.688  0.1325 -0.2673  0.2591
   14MOL0     C 1762   4.958   6.113   0.583  0.1915  0.6269 -0.4638
   14MOL0     O 1763   5.007   6.236   0.557 -0.5397  0.2039 -0.2216
   14MOL0     C 1764   4.915   6.347   0.543  0.4366 -1.0799  1.0839
   14MOL0     C 1765   4.974   6.452   0.453 -0.3307 -1.3785  0.2955
   14MOL0     C 1766   5.085   6.530   0.532 -0.2813 -0.4461  1.2636
   14MOL0     C 1767   5.150   6.622   0.430  0.0712  1.5772 -0.5092
   14MOL0     C 1768   5.268   6.704   0.478  0.5228  0.3637  0.6064
   14MOL0     C 1769   5.353   6.764   0.366  0.4746 -0.4741 -0.3268
   14MOL0     C 1770   5.452   6.861   0.418  0.4001  1.0196  0.6694
   14MOL0     C 1771   5.564   6.783   0.493  1.0959 -0.2241  0.2706
   14MOL0     N 1772   5.682   6.871   0.533 -0.2562 -0.7794  0.0181
   14MOL0     C 1773   5.676   6.998   0.594 -0.0609  0.2504  0.2510
   14MOL0     C 1774   5.812   7.041   0.595  0.0657  0.4323 -0.0024
   14MOL0     C 1775   5.852   7.188   0.609  0.4806 -0.5685  0.1556
   14MOL0     C 1776   5.871   7.230   0.751 -0.5534 -0.6084 -0.1205
   14MOL0     C 1777   5.747   7.242   0.837  0.2055 -0.4442 -0.9748
   14MOL0     C 1778   5.770   7.296   0.979 -0.1271 -0.7884  0.4830
   14MOL0     O 1779   5.791   7.447   0.973  0.1131  0.4328  0.0456
   14MOL0     C 1780   5.797   7.519   1.092 -0.0841 -0.2471  0.5434
   14MOL0     C 1781   5.789   7.659   1.072 -0.0424  0.1580 -0.7956
   14MOL0     C 1782   5.798   7.751   1.180  1.3442 -0.6419  1.2417
   14MOL0     C 1783   5.828   7.709   1.312 -0.1165 -1.0749 -0.0457
   14MOL0     C 1784   5.835   7.796   1.431 -0.9189 -0.6110  0.3622
   14MOL0     O 1785   5.822   7.731   1.555 -0.2363 -0.2039 -0.7485
   14MOL0     C 1786   5.821   7.809   1.668 -0.1390  1.4113 -0.1358
   14MOL0     C 1787   5.902   7.756   1.766 -0.1999 -0.1962 -0.5422
   14MOL0     C 1788   5.902   7.821   1.888 -0.7687 -0.0173 -0.1280
   14MOL0     C 1789   5.807   7.921   1.921 -0.1020  0.1520  0.3046
   14MOL0     O 1790   5.795   7.987   2.035 -0.6899 -0.2596  0.0185
   14MOL0     C 1791   5.863   7.941   2.150  0.0138 -0.5279 -0.4648
   14MOL0     C 1792   5.769   7.878   2.244  0.6143 -0.4394  0.5337
   14MOL0     C 1793   5.648   7.965   2.282  0.1706 -0.6217 -0.5209
   14MOL0     C 1794   5.565   7.903   2.390  0.7054 -0.0760 -1.0112
   14MOL0     C 1795   5.454   8.001   2.435 -0.2898  0.0013 -0.5140
   14MOL0     C 1796   5.508   8.116   2.535  0.3780 -0.9189  0.2166
   14MOL0     C 1797   5.408   8.228   2.546  0.0127  0.5362  1.5669
   14MOL0     C 1798   5.295   8.175   2.634  0.4700 -0.3570  0.1246
   14MOL0    Cl 1799   5.345   8.120   2.802 -0.3779 -0.0329 -0.6456
   14MOL0     C 1800   5.731   7.974   1.819  0.3870 -0.2110 -0.0440
   14MOL0     C 1801   5.740   7.920   1.685 -0.1220 -0.1459  0.0217
   14MOL0     O 1802   5.852   7.916   1.418  0.3959  0.9734  0.4289
   14MOL0     C 1803   5.842   7.573   1.331 -0.2834  0.2111  0.3631
   14MOL0     C 1804   5.819   7.478   1.227 -0.0048 -0.6809  0.8071
   14MOL0     N 1805   5.896   6.933   0.569 -0.3389  0.0665  0.4251
   14MOL0     N 1806   5.812   6.838   0.531 -0.1276  0.1390 -0.9952
   14MOL0     C 1807   5.014   6.002   0.513  0.8058 -0.5135 -1.0473
   14MOL0     C 1808   4.965   5.873   0.536 -0.3075 -0.8940  0.2558
   14MOL0     C 1809   4.835   5.482   0.565 -0.4498 -0.1830  0.7008
   14MOL0     C 1810   4.883   5.454   0.698 -0.2887 -0.7893 -0.8109
   14MOL0     C 1811   4.908   5.323   0.725 -0.0258  0.1324 -0.6421
   14MOL0     C 1812   4.889   5.215   0.636  0.1615 -0.8381 -0.1036
   14MOL0     O 1813   4.898   5.085   0.666 -0.2442 -0.1524 -0.4143
   14MOL0     C 1814   4.899   5.037   0.801 -0.2668 -1.0647  0.3979
   14MOL0     C 1815   4.870   4.890   0.798  1.0598  0.0505 -0.3426
   14MOL0     C 1816   4.739   4.863   0.721  0.5328  0.3299  0.5964
   14MOL0     C 1817   4.680   4.719   0.736  0.0714  0.5607  1.0387
   14MOL0     C 1818   4.765   4.617   0.806 -0.1316 -0.2461  0.1113
   14MOL0     C 1819   4.840   4.534   0.857  0.2861  0.9103 -0.3616
   14MOL0     C 1820   4.840   5.245   0.512  0.6408 -0.9645 -0.1448
   14MOL0     C 1821   4.799   5.375   0.475 -0.5803  0.1567  0.0476
   14MOL0     C 1822   4.750   5.390   0.336  0.0944 -0.9134 -0.3458
   14MOL0     H 1823   4.754   5.910   0.784  2.2365 -0.5605  1.5726
   14MOL0     H 1824   4.818   6.163   0.746  1.0530 -1.1583  2.2576
   14MOL0     H 1825   4.822   6.307   0.501 -0.6127  1.6146  0.6611
   14MOL0     H 1826   4.902   6.398   0.639  1.2357  0.6522  0.3245
   14MOL0     H 1827   4.898   6.526   0.427  2.2477  3.0745  3.8138
   14MOL0     H 1828   5.008   6.403   0.361  3.5849  0.0520  0.7508
   14MOL0     H 1829   5.153   6.463   0.585  0.9889  0.9376  1.4211
   14MOL0     H 1830   5.042   6.595   0.608 -0.2329  1.3507 -0.1906
   14MOL0     H 1831   5.191   6.558   0.351 -2.9441  1.1135 -1.8278
   14MOL0     H 1832   5.072   6.685   0.388  0.2111  2.5933  0.6953
   14MOL0     H 1833   5.229   6.783   0.543  0.6610  0.1891  0.9017
   14MOL0     H 1834   5.330   6.640   0.542  1.2481  0.5721  0.1200
   14MOL0     H 1835   5.413   6.681   0.327 -0.8203 -2.0320  0.8091
   14MOL0     H 1836   5.295   6.817   0.291 -0.3403  0.4546  0.9176
   14MOL0     H 1837   5.413   6.935   0.488 -1.5404 -1.3088  2.1913
   14MOL0     H 1838   5.496   6.913   0.332  0.7984 -1.1326 -0.4852
   14MOL0     H 1839   5.537   6.727   0.583  0.1399  0.9419  0.7296
   14MOL0     H 1840   5.594   6.709   0.418 -0.0703 -1.1381  0.6719
   14MOL0     H 1841   5.596   7.069   0.575 -2.2024 -2.4436 -1.5898
   14MOL0     H 1842   5.942   7.202   0.549  0.4640 -1.5312 -0.1056
   14MOL0     H 1843   5.768   7.237   0.558 -0.9108 -3.5944 -0.6462
   14MOL0     H 1844   5.945   7.161   0.793 -1.1489 -0.9610  0.3641
   14MOL0     H 1845   5.908   7.332   0.738 -2.4150 -0.0197 -1.0412
   14MOL0     H 1846   5.696   7.146   0.842 -0.3944 -0.2067 -2.2390
   14MOL0     H 1847   5.683   7.321   0.798 -0.8046  0.4312  2.1246
   14MOL0     H 1848   5.846   7.240   1.034 -1.1443 -2.1926  0.4989
   14MOL0     H 1849   5.673   7.285   1.027 -1.1651  0.4644 -1.2038
   14MOL0     H 1850   5.768   7.678   0.967 -3.1434  2.6268  0.0990
   14MOL0     H 1851   5.796   7.858   1.167 -0.5633 -0.9937 -3.4244
   14MOL0     H 1852   5.961   7.666   1.757  2.4217  1.2506  0.8359
   14MOL0     H 1853   5.966   7.791   1.970  0.2112 -0.2239 -0.9334
   14MOL0     H 1854   5.953   7.883   2.125  1.9800  2.7150 -1.5903
   14MOL0     H 1855   5.895   8.024   2.213 -1.2973 -1.1462  1.0616
   14MOL0     H 1856   5.736   7.791   2.186  0.5922  0.2271 -0.4919
   14MOL0     H 1857   5.823   7.844   2.333 -2.6732 -1.4346  2.3217
   14MOL0     H 1858   5.697   8.055   2.320 -0.5304  0.1041 -1.2736
   14MOL0     H 1859   5.585   7.985   2.195 -0.4258 -1.8311 -0.3815
   14MOL0     H 1860   5.633   7.889   2.474 -1.6779 -3.5580  0.5729
   14MOL0     H 1861   5.528   7.805   2.361  2.1072 -0.5873 -1.1293
   14MOL0     H 1862   5.372   7.953   2.489  0.6389 -0.5290  0.4785
   14MOL0     H 1863   5.412   8.054   2.349 -3.0460 -1.3325 -0.0765
   14MOL0     H 1864   5.534   8.070   2.630  0.9114 -0.7486  0.1556
   14MOL0     H 1865   5.599   8.156   2.489 -1.7968  1.5387 -2.3227
   14MOL0     H 1866   5.369   8.260   2.450 -1.6667 -1.9034  1.3422
   14MOL0     H 1867   5.457   8.309   2.601  1.4685 -1.6576  3.7164
   14MOL0     H 1868   5.227   8.261   2.643 -2.1874 -2.3773  0.7815
   14MOL0     H 1869   5.232   8.097   2.592 -1.7952  1.7665 -0.6647
   14MOL0     H 1870   5.672   8.063   1.841  0.8250  1.3462 -4.2156
   14MOL0     H 1871   5.681   7.960   1.603 -0.9300  2.2923  1.6803
   14MOL0     H 1872   5.858   7.520   1.424  1.9504 -3.5718 -1.9192
   14MOL0     H 1873   5.834   7.377   1.264 -0.2365 -1.3854 -0.9239
   14MOL0     H 1874   5.087   6.009   0.433  4.7924 -0.6030  2.2154
   14MOL0     H 1875   5.020   5.799   0.478  1.4741 -0.5500  1.4372
   14MOL0     H 1876   4.905   5.540   0.761 -2.5159  1.5649 -3.0075
   14MOL0     H 1877   4.954   5.298   0.820  0.9828 -0.3197 -1.2418
   14MOL0     H 1878   4.840   5.099   0.869 -1.4254 -2.2223  0.5013
   14MOL0     H 1879   4.997   5.030   0.850 -1.0265 -3.5614  1.7863
   14MOL0     H 1880   4.862   4.852   0.900 -0.1780 -0.9278 -0.7807
   14MOL0     H 1881   4.946   4.832   0.745  1.4655  1.2633 -1.1334
   14MOL0     H 1882   4.753   4.894   0.617  3.3787  0.2491  0.8912
   14MOL0     H 1883   4.657   4.930   0.749  0.2449  0.7546 -1.1258
   14MOL0     H 1884   4.587   4.719   0.794 -0.8132  3.2387 -0.2095
   14MOL0     H 1885   4.655   4.685   0.636 -1.0223 -0.5060  1.6489
   14MOL0     H 1886   4.906   4.457   0.892 -0.3221 -0.7692 -2.6407
   14MOL0     H 1887   4.824   5.156   0.452  0.9158 -1.0231 -0.1307
   14MOL0     H 1888   4.642   5.406   0.325  0.7177  3.1767 -2.2626
   14MOL0     H 1889   4.816   5.460   0.284  2.2399 -1.8482  0.9732
   14MOL0     H 1890   4.766   5.296   0.283 -0.0851 -0.7120 -0.7610
   15MOL0     O 1891   2.410   0.925   3.992  0.3740  0.4378  0.4895
   15MOL0     C 1892   2.385   0.981   4.098 -0.4116 -0.0996 -0.1624
   15MOL0     O 1893   2.364   0.923   4.220 -0.1276  1.0266 -0.4471
   15MOL0     C 1894   2.420   0.796   4.252  0.2770 -0.8987 -0.3176
   15MOL0     C 1895   2.363   0.720   4.347  0.7449  0.2131 -0.7138
   15MOL0     C 1896   2.404   0.591   4.377 -1.5412  0.5368 -0.7339
   15MOL0     C 1897   2.525   0.546   4.328 -0.0853 -0.1143 -0.0798
   15MOL0     O 1898   2.566   0.431   4.394  0.0034 -0.0410 -0.6684
   15MOL0     C 1899   2.715   0.395   4.385  0.2540  0.1382  1.3279
   15MOL0     C 1900   2.801   0.474   4.484 -0.8017 -0.8847 -0.5648
   15MOL0     C 1901   2.954   0.446   4.474 -0.6358 -0.5186 -0.0709
   15MOL0     C 1902   3.051   0.524   4.567 -0.1741 -0.3384  1.2788
   15MOL0     C 1903   3.194   0.466   4.585  0.5996 -0.9846  0.3100
   15MOL0     C 1904   3.295   0.576   4.624  0.1925 -0.2369  0.8304
   15MOL0     C 1905   3.430   0.511   4.660 -0.4196  0.7357  0.2010
   15MOL0     C 1906   3.433   0.448   4.794 -0.8395  0.0780 -0.6159
   15MOL0     N 1907   3.574   0.428   4.836 -0.9541 -0.0853  0.3760
   15MOL0     C 1908   3.638   0.310   4.859 -0.3213 -0.8187  0.3672
   15MOL0     C 1909   3.750   0.331   4.928 -0.2639  0.8912  0.1350
   15MOL0     C 1910   3.844   0.227   4.965 -0.0571 -0.8091  0.2670
   15MOL0     C 1911   3.991   0.260   4.911 -0.5715 -0.9878 -0.1825
   15MOL0     C 1912   3.995   0.270   4.757  0.0003  0.2275  0.4271
   15MOL0     C 1913   3.964   0.136   4.678 -0.4920  0.1620  0.0130
   15MOL0     O 1914   3.999   0.173   4.538 -0.7153 -0.1797  0.3621
   15MOL0     C 1915   3.913   0.118   4.445 -0.0160  0.2054  0.2854
   15MOL0     C 1916   3.773   0.146   4.449 -0.0475 -1.6012  0.2304
   15MOL0     C 1917   3.690   0.102   4.341  0.1980  0.8547 -0.5454
   15MOL0     C 1918   3.739   0.023   4.234  0.7902 -0.5567  0.2651
   15MOL0     C 1919   3.660  -0.028   4.120  0.0492 -0.7014  0.3359
   15MOL0     O 1920   3.724  -0.067   4.008  0.6796 -0.2187  0.9730
   15MOL0     C 1921   3.664  -0.158   3.926  0.5925  0.4366  0.4230
   15MOL0     C 1922   3.624  -0.134   3.793 -0.5555 -0.3682  0.8764
   15MOL0     C 1923   3.568  -0.229   3.712 -0.6487  0.1400  0.0810
   15MOL0     C 1924   3.549  -0.363   3.758  0.0801 -0.9344  0.1646
   15MOL0     O 1925   3.498  -0.452   3.670  0.0979  0.5624  0.7485
   15MOL0     C 1926   3.443  -0.574   3.727  0.5961 -0.0388  0.9051
   15MOL0     C 1927   3.388  -0.672   3.609  0.0193  0.2926 -0.4305
   15MOL0     C 1928   3.260  -0.636   3.533  1.6315  0.2140  0.3324
   15MOL0     C 1929   3.286  -0.505   3.452  0.4814 -0.0837 -0.7906
   15MOL0     C 1930   3.185  -0.478   3.346 -0.3322  1.4397 -0.0514
   15MOL0     C 1931   3.220  -0.379   3.239  0.1158 -0.2879  0.3162
   15MOL0     C 1932   3.098  -0.329   3.167  1.4081  0.3535  0.7488
   15MOL0     C 1933   3.149  -0.247   3.043 -0.7978  0.3295 -0.9100
   15MOL0    Cl 1934   3.015  -0.172   2.960  0.2599 -0.2628 -0.8120
   15MOL0     C 1935   3.586  -0.391   3.891 -0.0286 -0.6550  0.4211
   15MOL0     C 1936   3.639  -0.285   3.971  0.5669  0.6743 -0.5521
   15MOL0     O 1937   3.538  -0.035   4.141 -0.0008 -0.3695 -0.7098
   15MOL0     C 1938   3.882   0.001   4.233  0.6026  1.2611  0.1306
   15MOL0     C 1939   3.959   0.037   4.347 -0.2684  0.5243  0.5642
   15MOL0     N 1940   3.753   0.466   4.958 -0.3290 -0.1418  0.1369
   15MOL0     N 1941   3.658   0.530   4.887  0.3510  1.0233  0.4847
   15MOL0     C 1942   2.595   0.632   4.236 -0.2015 -0.2166  0.2765
   15MOL0     C 1943   2.536   0.748   4.195  0.8721 -0.0074  0.1753
   15MOL0     C 1944   2.351   1.121   4.088  0.0737 -0.5549 -0.1375
   15MOL0     C 1945   2.289   1.183   4.204 -0.9964 -0.3738 -1.2301
   15MOL0     C 1946   2.258   1.317   4.204 -0.4621 -0.1761  0.3204
   15MOL0     C 1947   2.281   1.395   4.090  0.7475 -0.7240  0.2017
   15MOL0     O 1948   2.246   1.524   4.102  0.0721  0.2425 -0.2374
   15MOL0     C 1949   2.272   1.619   3.997  0.7279  0.3958 -0.5433
   15MOL0     C 1950   2.284   1.748   4.058 -0.1695  0.3682  0.7471
   15MOL0     C 1951   2.331   1.847   3.956  0.4422 -0.9248 -0.1555
   15MOL0     C 1952   2.322   1.996   3.984  0.2531 -0.2091 -0.6931
   15MOL0     C 1953   2.201   2.028   4.071  0.2244  0.3718  0.8048
   15MOL0     C 1954   2.113   2.066   4.145  0.4017 -0.3844 -0.4239
   15MOL0     C 1955   2.347   1.341   3.973 -0.2346  0.6469 -0.3309
   15MOL0     C 1956   2.376   1.203   3.971  0.5356  0.7135  0.4284
   15MOL0     C 1957   2.435   1.151   3.837  0.3455 -0.3796 -0.0344
   15MOL0     H 1958   2.273   0.753   4.397  0.5789 -3.3104  1.5857
   15MOL0     H 1959   2.363   0.534   4.459 -3.3107  0.8738 -1.3449
   15MOL0     H 1960   2.725   0.286   4.395 -2.7043 -0.1891  1.4390
   15MOL0     H 1961   2.737   0.415   4.280 -1.1873  1.8515  1.3109
   15MOL0     H 1962   2.768   0.457   4.587 -1.0520 -0.3317 -0.5445
   15MOL0     H 1963   2.786   0.580   4.461  0.5754 -0.7556 -0.9560
   15MOL0     H 1964   2.981   0.481   4.374  0.5004  2.8092  1.2677
   15MOL0     H 1965   2.973   0.338   4.481 -0.3148 -0.3355  4.8707
   15MOL0     H 1966   3.042   0.621   4.517 -3.2268 -1.6261 -1.0082
   15MOL0     H 1967   3.000   0.545   4.662 -2.6878 -1.4767  0.2807
   15MOL0     H 1968   3.179   0.385   4.657 -0.9042 -2.0630 -1.1598
   15MOL0     H 1969   3.233   0.413   4.498 -0.9580 -3.5556  1.0808
   15MOL0     H 1970   3.314   0.634   4.533 -0.6354 -0.7924  0.2901
   15MOL0     H 1971   3.251   0.644   4.698 -0.6615  1.1693 -0.8916
   15MOL0     H 1972   3.511   0.577   4.630 -0.3273  0.1274 -0.9218
   15MOL0     H 1973   3.440   0.424   4.594  0.0846  0.2811  0.8566
   15MOL0     H 1974   3.385   0.514   4.867  1.5479  1.2316  0.0086
   15MOL0     H 1975   3.388   0.349   4.789  1.9475 -1.2656 -5.4750
   15MOL0     H 1976   3.598   0.217   4.818 -0.9198 -0.9231  1.1586
   15MOL0     H 1977   3.858   0.229   5.073  0.7391 -0.4448  0.1609
   15MOL0     H 1978   3.812   0.128   4.931  1.0510 -1.2383  0.4426
   15MOL0     H 1979   4.033   0.355   4.946 -1.3553 -1.3432  1.8568
   15MOL0     H 1980   4.065   0.182   4.931  1.3192  1.0528  1.2317
   15MOL0     H 1981   4.101   0.291   4.739  0.8256 -0.3599  3.8604
   15MOL0     H 1982   3.941   0.354   4.711  0.8709 -0.1084 -1.2971
   15MOL0     H 1983   3.860   0.106   4.692 -0.2993 -0.0082  1.0952
   15MOL0     H 1984   4.020   0.047   4.709 -0.5690 -0.4483 -1.5113
   15MOL0     H 1985   3.725   0.206   4.526 -0.9757 -4.2699  1.8538
   15MOL0     H 1986   3.583   0.123   4.343 -0.1203 -0.5359 -1.4241
   15MOL0     H 1987   3.646  -0.036   3.754  0.1123  0.1013  2.3529
   15MOL0     H 1988   3.533  -0.196   3.614  0.6593 -3.1208 -1.6470
   15MOL0     H 1989   3.516  -0.637   3.779 -1.2846 -4.1746 -1.0336
   15MOL0     H 1990   3.360  -0.560   3.798  0.6852  0.2765  0.9514
   15MOL0     H 1991   3.471  -0.676   3.538 -0.1409  0.7864 -0.6443
   15MOL0     H 1992   3.366  -0.768   3.658 -0.6870 -1.4216 -3.8193
   15MOL0     H 1993   3.222  -0.718   3.471 -0.5078 -0.3774  2.3018
   15MOL0     H 1994   3.181  -0.606   3.603  0.2194 -1.8507 -0.2915
   15MOL0     H 1995   3.388  -0.512   3.413  1.0522 -1.9484  0.8993
   15MOL0     H 1996   3.290  -0.418   3.519  0.1232  0.8193 -1.8964
   15MOL0     H 1997   3.091  -0.453   3.395  0.4243  1.7908  1.2656
   15MOL0     H 1998   3.175  -0.570   3.289 -1.6476  0.0353  2.3106
   15MOL0     H 1999   3.246  -0.284   3.287 -0.6790  0.7674 -1.2518
   15MOL0     H 2000   3.307  -0.413   3.182 -0.4623 -0.3251 -0.5643
   15MOL0     H 2001   3.030  -0.261   3.219 -0.9590  0.8527 -2.6822
   15MOL0     H 2002   3.033  -0.410   3.135  2.0884 -0.0247  0.2938
   15MOL0     H 2003   3.218  -0.171   3.082 -0.4971 -0.8157  0.9242
   15MOL0     H 2004   3.197  -0.310   2.967  1.0076 -0.4942  0.8159
   15MOL0     H 2005   3.569  -0.486   3.942  0.5361 -0.8871  0.1843
   15MOL0     H 2006   3.647  -0.303   4.078 -2.1059 -1.1246 -0.5505
   15MOL0     H 2007   3.921  -0.057   4.150  1.3086  1.1621  0.5223
   15MOL0     H 2008   4.061   0.001   4.357 -0.9294 -0.8705  3.8292
   15MOL0     H 2009   2.694   0.608   4.199  0.0880  3.4267 -1.7142
   15MOL0     H 2010   2.599   0.797   4.122 -1.4408 -0.5247 -2.3036
   15MOL0     H 2011   2.265   1.123   4.290 -0.8481  1.5842  0.2529
   15MOL0     H 2012   2.207   1.374   4.281  0.7641  1.4613 -0.0139
   15MOL0     H 2013   2.187   1.621   3.929  0.6965  0.8064 -0.4976
   15MOL0     H 2014   2.360   1.596   3.936  2.4304 -1.7450  2.4574
   15MOL0     H 2015   2.349   1.751   4.146 -0.3262  2.3875  0.8358
   15MOL0     H 2016   2.181   1.766   4.089 -0.3482 -2.7426  2.3596
   15MOL0     H 2017   2.266   1.841   3.868 -1.0928  0.4807  0.8449
   15MOL0     H 2018   2.436   1.830   3.929  0.9621 -1.4154  2.0057
   15MOL0     H 2019   2.411   2.019   4.043  1.2053 -1.1163 -1.7452
   15MOL0     H 2020   2.313   2.057   3.893 -2.4615  0.1451 -0.2924
   15MOL0     H 2021   2.046   2.103   4.220  0.2548  0.4655 -0.9655
   15MOL0     H 2022   2.365   1.408   3.889  1.9204  0.2167 -0.2671
   15MOL0     H 2023   2.454   1.242   3.779  0.2148 -1.1802 -1.3775
   15MOL0     H 2024   2.535   1.117   3.865  0.1571  0.8416  2.3875
   15MOL0     H 2025   2.367   1.084   3.783  0.1149  1.1678 -1.7655
   16MOL0     O 2026   9.798   7.198   8.799  0.4556 -0.1695  0.1703
   16MOL0     C 2027   9.848   7.262   8.712 -0.5352 -0.5807 -0.5111
   16MOL0     O 2028   9.933   7.207   8.616 -0.3373 -0.0243 -0.0869
   16MOL0     C 2029   9.897   7.080   8.581 -1.4691  0.5814 -0.6494
   16MOL0     C 2030   9.970   6.974   8.635 -0.4581  0.0894  0.1755
   16MOL0     C 2031   9.951   6.852   8.600 -0.2644 -1.1643  0.8890
   16MOL0     C 2032   9.871   6.823   8.495  0.3191 -0.6234  0.2807
   16MOL0     O 2033   9.831   6.695   8.461  0.0066 -0.4728  1.4863
   16MOL0     C 2034   9.925   6.591   8.479  0.2667  0.7607  0.0009
   16MOL0     C 2035   9.879   6.462   8.420 -0.7228 -0.3099  0.7557
   16MOL0     C 2036   9.758   6.408   8.489  0.4562 -0.8597 -0.3291
   16MOL0     C 2037   9.780   6.360   8.630  0.0988  0.6376 -0.0761
   16MOL0     C 2038   9.654   6.307   8.707 -0.4756  0.0455  0.1404
   16MOL0     C 2039   9.589   6.188   8.651  0.6729  0.3752 -0.7394
   16MOL0     C 2040   9.449   6.160   8.710 -0.3599  0.6614 -0.7312
   16MOL0     C 2041   9.446   6.093   8.855  0.3373  0.5554  1.0996
   16MOL0     N 2042   9.317   6.035   8.872 -0.0069 -0.2455 -0.2634
   16MOL0     C 2043   9.192   6.088   8.870  0.0450 -0.0689 -0.7824
   16MOL0     C 2044   9.109   5.990   8.912  1.5133  0.4054 -0.2642
   16MOL0     C 2045   8.954   6.012   8.935  0.0862 -0.1971 -0.7411
   16MOL0     C 2046   8.875   5.947   8.832  0.7273 -0.4734 -0.1933
   16MOL0     C 2047   8.902   5.791   8.825  0.1152  0.2920 -0.3541
   16MOL0     C 2048   8.787   5.724   8.748  0.2119 -0.0320  0.6016
   16MOL0     O 2049   8.785   5.779   8.606  0.3100 -0.7037 -0.0779
   16MOL0     C 2050   8.678   5.728   8.526 -0.7284 -0.2989 -0.6984
   16MOL0     C 2051   8.688   5.760   8.392 -0.6283 -0.6446 -0.0775
   16MOL0     C 2052   8.594   5.706   8.300  0.0307  0.0620  0.2645
   16MOL0     C 2053   8.483   5.633   8.347 -0.7257  0.5392 -0.1648
   16MOL0     C 2054   8.378   5.573   8.262  0.4624 -0.7636 -0.1012
   16MOL0     O 2055   8.288   5.487   8.312 -0.3569  0.1998 -0.0805
   16MOL0     C 2056   8.210   5.391   8.236 -0.1374 -0.8034 -0.3795
   16MOL0     C 2057   8.236   5.356   8.103  1.2476  0.7250  0.4907
   16MOL0     C 2058   8.154   5.264   8.041  0.3890  0.0163 -1.2446
   16MOL0     C 2059   8.059   5.189   8.121  0.2809 -0.0191  0.0463
   16MOL0     O 2060   7.991   5.088   8.065 -0.2573 -0.4434 -1.0793
   16MOL0     C 2061   7.863   5.133   8.022  0.4154  0.2245 -0.1326
   16MOL0     C 2062   7.832   5.075   7.883  0.8584 -0.4851 -0.2996
   16MOL0     C 2063   7.930   5.117   7.770  0.0723  0.1780  1.0200
   16MOL0     C 2064   7.912   5.020   7.647  0.0476 -0.3603 -0.2469
   16MOL0     C 2065   8.019   5.061   7.548 -0.3350 -0.1128  0.1008
   16MOL0     C 2066   8.166   5.029   7.584  0.2124  0.7629 -0.9856
   16MOL0     C 2067   8.266   5.037   7.465  0.7646  0.2114 -0.7702
   16MOL0     C 2068   8.371   4.941   7.493  1.0577 -0.1092 -0.1337
   16MOL0    Cl 2069   8.490   4.960   7.358  0.0698 -0.1563  0.1477
   16MOL0     C 2070   8.052   5.212   8.262  0.1194  0.0895 -0.1504
   16MOL0     C 2071   8.124   5.313   8.324 -0.5143 -0.6919  0.1524
   16MOL0     O 2072   8.394   5.609   8.146  0.9199 -0.1854  0.3185
   16MOL0     C 2073   8.472   5.608   8.481 -0.1125  0.5639  1.3419
   16MOL0     C 2074   8.567   5.654   8.569 -0.3577 -0.0743 -0.8102
   16MOL0     N 2075   9.186   5.880   8.943 -0.1822 -0.5816  0.5989
   16MOL0     N 2076   9.307   5.906   8.902 -0.1519  0.2036 -0.2576
   16MOL0     C 2077   9.795   6.928   8.434 -0.3888  0.2448 -0.1986
   16MOL0     C 2078   9.806   7.061   8.470 -0.3555 -0.8338  0.0632
   16MOL0     C 2079   9.828   7.403   8.734  1.0210  0.8614 -0.1367
   16MOL0     C 2080   9.785   7.449   8.868 -0.3781 -0.0883  0.1365
   16MOL0     C 2081   9.771   7.584   8.892  0.4885  0.2323 -0.2884
   16MOL0     C 2082   9.785   7.677   8.781 -0.3076  0.4737  0.1045
   16MOL0     O 2083   9.774   7.806   8.822  0.4011 -1.0805 -0.3046
   16MOL0     C 2084   9.860   7.900   8.765 -0.3277 -0.9822  0.8140
   16MOL0     C 2085   9.889   8.020   8.857 -0.8011 -0.5073  0.1026
   16MOL0     C 2086   9.928   8.156   8.794 -0.4142  0.8330  0.9064
   16MOL0     C 2087  10.028   8.242   8.879  1.1669 -0.2807 -0.8643
   16MOL0     C 2088  10.050   8.384   8.826  0.3093  0.1516 -0.5591
   16MOL0     C 2089  10.083   8.498   8.798  0.0169 -1.2252  0.2683
   16MOL0     C 2090   9.824   7.631   8.653 -0.1912 -0.5412 -0.9696
   16MOL0     C 2091   9.838   7.496   8.627  0.1234  0.5068 -0.0892
   16MOL0     C 2092   9.849   7.453   8.483  0.3266 -0.0229  0.7711
   16MOL0     H 2093  10.058   6.995   8.695  0.5441  2.3887 -1.9364
   16MOL0     H 2094  10.022   6.777   8.632  0.4597 -0.3446  1.2316
   16MOL0     H 2095  10.011   6.610   8.414 -0.7774  3.0764 -0.8387
   16MOL0     H 2096   9.943   6.580   8.587 -1.2839 -1.1740  0.1090
   16MOL0     H 2097   9.948   6.378   8.432 -3.5196 -2.9140  0.0130
   16MOL0     H 2098   9.860   6.472   8.313  1.4290 -0.7442  0.3071
   16MOL0     H 2099   9.717   6.323   8.433 -2.4726 -0.9854  1.7774
   16MOL0     H 2100   9.683   6.486   8.501 -0.2435 -1.7424  1.5827
   16MOL0     H 2101   9.856   6.281   8.637  0.0857  0.8123  3.8983
   16MOL0     H 2102   9.813   6.438   8.699  2.2883 -1.5168  1.5095
   16MOL0     H 2103   9.683   6.286   8.810  3.6398  1.5459 -0.5121
   16MOL0     H 2104   9.583   6.390   8.707  0.6813  1.0867  1.8870
   16MOL0     H 2105   9.587   6.220   8.546 -1.0465 -0.8811 -1.1242
   16MOL0     H 2106   9.649   6.098   8.669 -0.9088 -0.1303  2.8196
   16MOL0     H 2107   9.397   6.081   8.655  0.3978 -0.3913  0.0190
   16MOL0     H 2108   9.378   6.242   8.725  0.6274  1.6639 -1.3821
   16MOL0     H 2109   9.524   6.018   8.869  0.3472  0.0072 -1.4146
   16MOL0     H 2110   9.466   6.175   8.925  3.4009  1.5780 -0.7555
   16MOL0     H 2111   9.160   6.185   8.835 -0.4286 -0.1697 -0.6339
   16MOL0     H 2112   8.938   5.972   9.036  1.8477 -0.0152 -0.3523
   16MOL0     H 2113   8.924   6.117   8.932  2.2054  0.4190 -3.3956
   16MOL0     H 2114   8.773   5.970   8.862  1.9501  4.4720  1.0066
   16MOL0     H 2115   8.895   5.999   8.738  0.7914  2.0410  1.1385
   16MOL0     H 2116   8.922   5.751   8.925  1.6243 -0.9600 -1.1039
   16MOL0     H 2117   8.986   5.770   8.759 -0.4190  4.7920 -2.8294
   16MOL0     H 2118   8.693   5.747   8.800  0.2918  2.2428 -0.1262
   16MOL0     H 2119   8.799   5.616   8.742  1.1245  0.0548  0.7450
   16MOL0     H 2120   8.767   5.829   8.363 -1.8046  1.7703  2.0029
   16MOL0     H 2121   8.617   5.713   8.194 -0.6830 -0.6107  0.0579
   16MOL0     H 2122   8.306   5.421   8.051  0.6722  0.4526 -0.6762
   16MOL0     H 2123   8.168   5.233   7.938  1.8595 -0.5998 -0.8875
   16MOL0     H 2124   7.782   5.105   8.091 -0.5082 -0.2102 -1.3603
   16MOL0     H 2125   7.859   5.241   8.008 -0.0875  0.2566  0.2232
   16MOL0     H 2126   7.832   4.966   7.880  1.6652 -0.4906 -0.2623
   16MOL0     H 2127   7.732   5.110   7.856 -0.3982 -0.0300  4.0989
   16MOL0     H 2128   7.901   5.214   7.730 -1.1708  0.5189  2.6600
   16MOL0     H 2129   8.031   5.102   7.810 -0.2899 -0.1845  1.8291
   16MOL0     H 2130   7.814   5.028   7.600  0.2276 -2.8669 -1.2082
   16MOL0     H 2131   7.907   4.915   7.675 -1.5556  0.1509  1.5425
   16MOL0     H 2132   8.018   5.170   7.535  0.1729 -0.0219  0.7485
   16MOL0     H 2133   8.001   5.021   7.448  1.6069  1.5137 -0.9852
   16MOL0     H 2134   8.193   5.092   7.669 -3.1736  1.3693 -0.2069
   16MOL0     H 2135   8.160   4.927   7.623 -1.0081  1.3106  0.3752
   16MOL0     H 2136   8.301   5.141   7.467  0.3098  0.4501  2.7143
   16MOL0     H 2137   8.217   5.009   7.371  2.7593 -1.1198 -1.4598
   16MOL0     H 2138   8.414   4.953   7.593 -0.3280  2.7831  0.2243
   16MOL0     H 2139   8.314   4.849   7.484  0.7034 -0.1416  1.9408
   16MOL0     H 2140   7.990   5.142   8.318  1.2838 -1.9574 -1.3177
   16MOL0     H 2141   8.134   5.338   8.429 -0.4951  0.9420 -0.2155
   16MOL0     H 2142   8.389   5.547   8.515 -0.3883  0.0706 -0.1550
   16MOL0     H 2143   8.545   5.633   8.673  0.8106  0.7650 -0.3795
   16MOL0     H 2144   9.730   6.893   8.355 -1.0716  1.6770 -0.3033
   16MOL0     H 2145   9.748   7.137   8.417  0.6654  0.0339  0.1590
   16MOL0     H 2146   9.767   7.369   8.939  2.6998 -1.9924 -1.0183
   16MOL0     H 2147   9.736   7.614   8.990 -4.4761 -0.9824 -1.3808
   16MOL0     H 2148   9.819   7.935   8.670  2.2165 -0.7808 -0.2843
   16MOL0     H 2149   9.954   7.850   8.742  0.4159  1.9894 -4.1202
   16MOL0     H 2150   9.973   7.993   8.922  0.9962  1.4193 -1.2863
   16MOL0     H 2151   9.804   8.035   8.924  0.3130 -0.7581  1.6247
   16MOL0     H 2152   9.841   8.219   8.774 -3.1833 -1.9086  3.4867
   16MOL0     H 2153   9.976   8.138   8.697  0.4891  2.9810  0.8775
   16MOL0     H 2154   9.990   8.242   8.982  0.1447 -3.0386 -1.1612
   16MOL0     H 2155  10.121   8.185   8.878  2.4087  1.6610 -2.2004
   16MOL0     H 2156  10.117   8.600   8.790  2.4436 -1.9455  0.8163
   16MOL0     H 2157   9.836   7.699   8.569 -2.2958 -1.0274 -1.7433
   16MOL0     H 2158   9.940   7.393   8.468 -1.5020 -2.2269 -3.1280
   16MOL0     H 2159   9.765   7.399   8.439  1.2956 -1.7866  1.0152
   16MOL0     H 2160   9.871   7.537   8.415  2.5392 -0.4735  0.8444
   17MOL0     O 2161  11.414   1.728   9.748  0.1021 -0.1140 -0.5103
   17MOL0     C 2162  11.347   1.760   9.654 -0.5979 -0.5028  0.0918
   17MOL0     O 2163  11.375   1.735   9.522 -0.0553  0.0727 -0.2597
   17MOL0     C 2164  11.469   1.650   9.490 -0.4942 -0.1210  0.9718
   17MOL0     C 2165  11.479   1.531   9.548  0.5181 -0.4383  0.4426
   17MOL0     C 2166  11.584   1.449   9.520  0.9912 -0.3261  0.9799
   17MOL0     C 2167  11.677   1.492   9.425 -1.4776  0.1084  0.1626
   17MOL0     O 2168  11.776   1.410   9.376 -0.1886  0.4974  0.0463
   17MOL0     C 2169  11.808   1.295   9.448 -0.0312  0.3115 -0.1634
   17MOL0     C 2170  11.940   1.217   9.399  0.4084  0.1053 -0.0877
   17MOL0     C 2171  11.929   1.200   9.247 -0.3813  0.3541 -0.4836
   17MOL0     C 2172  12.043   1.122   9.179 -0.1900 -0.5111  0.7590
   17MOL0     C 2173  12.059   0.983   9.241  0.1019 -0.3388 -0.5357
   17MOL0     C 2174  12.086   0.888   9.125  0.2061 -0.4071  0.0104
   17MOL0     C 2175  12.123   0.747   9.164  0.5801 -0.4795  0.0793
   17MOL0     C 2176  12.137   0.660   9.045 -0.5779  0.7742  0.7876
   17MOL0     N 2177  12.024   0.580   9.018 -0.2428  0.1946  0.3478
   17MOL0     C 2178  11.904   0.608   8.956 -0.0324  0.3982 -0.7221
   17MOL0     C 2179  11.841   0.498   8.940 -0.2010 -0.2275 -0.2264
   17MOL0     C 2180  11.699   0.484   8.871  0.3380 -0.3193  0.1047
   17MOL0     C 2181  11.672   0.335   8.810 -0.3775 -0.3012 -1.0969
   17MOL0     C 2182  11.762   0.302   8.692 -0.5019 -0.2885  0.8723
   17MOL0     C 2183  11.746   0.395   8.578 -0.3784  0.1803 -0.2803
   17MOL0     O 2184  11.821   0.343   8.473  0.4769 -1.3841  0.3682
   17MOL0     C 2185  11.808   0.417   8.351 -1.0089 -0.2687 -0.7904
   17MOL0     C 2186  11.769   0.551   8.339  0.2653 -0.7540  0.2102
   17MOL0     C 2187  11.776   0.622   8.216  0.5258 -0.3736  0.0084
   17MOL0     C 2188  11.818   0.547   8.102 -0.6923  0.2215 -0.5553
   17MOL0     C 2189  11.831   0.612   7.981  0.2906 -0.1120  0.3551
   17MOL0     O 2190  11.822   0.750   7.985 -0.4210  0.0964  0.2020
   17MOL0     C 2191  11.800   0.823   7.870  0.1259 -0.2060 -0.2900
   17MOL0     C 2192  11.700   0.785   7.777 -1.1966 -0.5169 -0.5921
   17MOL0     C 2193  11.692   0.857   7.650 -0.1865 -0.0153 -0.2313
   17MOL0     C 2194  11.781   0.950   7.615  0.2614 -1.0054 -0.0431
   17MOL0     O 2195  11.761   1.007   7.493 -0.4896 -0.3296  0.1843
   17MOL0     C 2196  11.864   1.101   7.459  0.3959  0.9973  0.0790
   17MOL0     C 2197  11.815   1.144   7.314 -0.2879 -1.1216 -0.3991
   17MOL0     C 2198  11.845   1.043   7.200 -0.1392  0.3846 -0.0768
   17MOL0     C 2199  11.727   0.950   7.162  0.9768  0.2832  0.5192
   17MOL0     C 2200  11.775   0.849   7.049 -0.2802 -0.0062 -1.5582
   17MOL0     C 2201  11.664   0.788   6.981  0.0697 -0.1781  0.5063
   17MOL0     C 2202  11.698   0.693   6.866 -1.0298  0.4172 -0.1682
   17MOL0     C 2203  11.784   0.575   6.912 -0.2527 -0.0493  0.6713
   17MOL0    Cl 2204  11.701   0.458   7.025  0.5006 -0.6112  0.1002
   17MOL0     C 2205  11.864   1.001   7.720  1.0837 -0.3940 -0.0928
   17MOL0     C 2206  11.875   0.936   7.844 -0.9407 -0.6410  0.4929
   17MOL0     O 2207  11.851   0.541   7.871 -0.8648 -0.0256 -0.9610
   17MOL0     C 2208  11.844   0.408   8.116 -0.0664  0.1130  0.6187
   17MOL0     C 2209  11.844   0.348   8.237  0.5658 -0.5256  0.7130
   17MOL0     N 2210  11.919   0.402   9.010  0.3436 -0.5155 -0.2899
   17MOL0     N 2211  12.027   0.449   9.059  0.1172 -0.4889 -0.7913
   17MOL0     C 2212  11.667   1.617   9.369 -0.3600  0.0716 -0.7112
   17MOL0     C 2213  11.561   1.698   9.389  0.4176 -0.1558 -0.5505
   17MOL0     C 2214  11.228   1.854   9.691 -0.7676 -0.3216 -1.1579
   17MOL0     C 2215  11.201   1.873   9.833 -0.7350  0.0343 -0.5901
   17MOL0     C 2216  11.081   1.925   9.875 -0.7911  0.1909  0.0229
   17MOL0     C 2217  10.987   1.985   9.794  0.4711  0.0811  0.1454
   17MOL0     O 2218  10.883   2.048   9.857  0.1318 -0.0583 -0.1505
   17MOL0     C 2219  10.822   2.159   9.800  0.3751 -0.2324 -1.1980
   17MOL0     C 2220  10.681   2.129   9.749  0.9264  0.2691  1.0209
   17MOL0     C 2221  10.604   2.082   9.869 -0.2665 -0.2902 -0.0138
   17MOL0     C 2222  10.460   2.034   9.825 -0.6374 -0.4817  0.0323
   17MOL0     C 2223  10.347   2.111   9.870 -0.2784  1.2818  0.7259
   17MOL0     C 2224  10.246   2.179   9.890 -0.7616 -0.2517 -0.0803
   17MOL0     C 2225  11.005   1.977   9.653  0.0117  1.2340  0.3596
   17MOL0     C 2226  11.123   1.906   9.600  0.3269 -0.7398  0.6803
   17MOL0     C 2227  11.142   1.887   9.443 -0.0867 -0.0937  0.5626
   17MOL0     H 2228  11.408   1.514   9.628 -1.4104 -1.6871 -1.4010
   17MOL0     H 2229  11.592   1.349   9.561  1.8506 -0.7511 -0.1691
   17MOL0     H 2230  11.818   1.321   9.554  0.5008  2.3805 -0.6921
   17MOL0     H 2231  11.740   1.214   9.420  0.5503 -0.3494  0.3086
   17MOL0     H 2232  11.937   1.121   9.451 -1.7016 -0.4861 -1.1667
   17MOL0     H 2233  12.019   1.278   9.443  1.5573 -2.2106  1.2835
   17MOL0     H 2234  11.928   1.300   9.203  1.3760  0.6072 -0.0200
   17MOL0     H 2235  11.832   1.149   9.237 -0.6875  0.6467  0.7529
   17MOL0     H 2236  12.021   1.122   9.072  0.3044 -2.1396  0.6320
   17MOL0     H 2237  12.141   1.170   9.189  0.0561 -0.2140 -2.1630
   17MOL0     H 2238  12.137   0.985   9.318  0.7968  3.4165 -1.1451
   17MOL0     H 2239  11.961   0.963   9.285  0.5453 -0.0989  0.6063
   17MOL0     H 2240  12.001   0.886   9.056  2.4490  1.6482 -3.1102
   17MOL0     H 2241  12.169   0.928   9.065 -1.9043  0.3067 -2.6493
   17MOL0     H 2242  12.053   0.692   9.228  0.5845 -1.5985 -0.8393
   17MOL0     H 2243  12.220   0.756   9.213  0.9636 -1.0549 -0.5531
   17MOL0     H 2244  12.162   0.722   8.959  1.5584 -1.3724 -0.2937
   17MOL0     H 2245  12.221   0.591   9.061 -0.6961  0.3244 -0.4198
   17MOL0     H 2246  11.870   0.708   8.930 -0.4363  0.6112  0.5319
   17MOL0     H 2247  11.624   0.496   8.949  1.8838  1.2981  1.4453
   17MOL0     H 2248  11.680   0.563   8.799  1.2441  0.5095  0.7521
   17MOL0     H 2249  11.694   0.279   8.901 -0.5611  0.4932 -0.5564
   17MOL0     H 2250  11.569   0.320   8.776 -1.3199 -0.3259  1.5704
   17MOL0     H 2251  11.752   0.196   8.664  2.7679 -0.7939  1.1791
   17MOL0     H 2252  11.866   0.311   8.724  0.2458 -1.4779 -1.0290
   17MOL0     H 2253  11.791   0.492   8.600  2.0953 -0.5871 -1.5378
   17MOL0     H 2254  11.641   0.409   8.553 -0.0858 -0.0914 -1.7860
   17MOL0     H 2255  11.730   0.597   8.429  1.2693 -0.8775  0.7123
   17MOL0     H 2256  11.727   0.717   8.202  1.9367  0.0437 -2.5723
   17MOL0     H 2257  11.628   0.710   7.807 -1.2506 -0.4587 -0.5756
   17MOL0     H 2258  11.625   0.826   7.571  0.1240  1.9848 -1.3387
   17MOL0     H 2259  11.882   1.188   7.524  5.4126  0.6645 -0.4664
   17MOL0     H 2260  11.962   1.053   7.460  1.2620  2.4912  3.8973
   17MOL0     H 2261  11.707   1.163   7.315 -0.5593 -2.4907 -0.6303
   17MOL0     H 2262  11.861   1.239   7.285  0.0955 -0.6197  1.7433
   17MOL0     H 2263  11.846   1.103   7.109  1.9964  0.0724 -0.3095
   17MOL0     H 2264  11.943   0.996   7.206 -1.2173 -2.3038 -1.6187
   17MOL0     H 2265  11.644   1.012   7.127 -0.8226 -1.2237  1.8970
   17MOL0     H 2266  11.688   0.900   7.251 -0.7248 -4.2759 -2.4534
   17MOL0     H 2267  11.817   0.759   7.096 -0.9689 -0.4687 -1.8068
   17MOL0     H 2268  11.848   0.892   6.981  0.7562  0.8416  0.0308
   17MOL0     H 2269  11.594   0.753   7.057  0.1265  2.0410  1.6656
   17MOL0     H 2270  11.613   0.875   6.940  2.5700  1.5048  0.7323
   17MOL0     H 2271  11.748   0.751   6.787 -1.6155  1.9860  0.5616
   17MOL0     H 2272  11.603   0.656   6.826 -1.4214 -0.0484  1.1617
   17MOL0     H 2273  11.810   0.514   6.826 -0.3948  3.3415 -1.9723
   17MOL0     H 2274  11.877   0.600   6.965 -0.5527  3.8694 -0.3032
   17MOL0     H 2275  11.926   1.090   7.722  0.4014  0.1182  2.5390
   17MOL0     H 2276  11.939   0.957   7.929 -0.4091  0.6685 -0.1940
   17MOL0     H 2277  11.871   0.344   8.032 -2.9995 -0.8566  0.3027
   17MOL0     H 2278  11.853   0.242   8.258 -3.7356 -0.9554  1.3631
   17MOL0     H 2279  11.745   1.639   9.297  2.7834 -0.2804  2.3507
   17MOL0     H 2280  11.554   1.799   9.351 -0.0278 -0.3065 -0.8782
   17MOL0     H 2281  11.267   1.828   9.907 -0.0660  0.4400 -0.9408
   17MOL0     H 2282  11.061   1.910   9.981 -2.5946  0.3356 -0.2730
   17MOL0     H 2283  10.876   2.184   9.708 -0.4238 -0.7360 -1.8177
   17MOL0     H 2284  10.820   2.227   9.885 -3.9236 -1.8861  0.3487
   17MOL0     H 2285  10.690   2.043   9.682  3.1026 -0.2527  1.8944
   17MOL0     H 2286  10.639   2.218   9.701 -0.3126 -0.2440  1.1196
   17MOL0     H 2287  10.575   2.169   9.929 -0.9108  0.9618 -2.0377
   17MOL0     H 2288  10.660   2.004   9.920 -0.5445 -0.3573  0.1957
   17MOL0     H 2289  10.451   2.022   9.717 -2.0315  0.5667  0.0117
   17MOL0     H 2290  10.441   1.938   9.874 -0.7943 -0.2244  0.4749
   17MOL0     H 2291  10.162   2.243   9.909 -0.7555 -0.5463  1.0165
   17MOL0     H 2292  10.921   2.016   9.597  1.0592  0.7529 -1.6258
   17MOL0     H 2293  11.070   1.923   9.369  2.0883 -0.5535 -1.9405
   17MOL0     H 2294  11.226   1.938   9.395 -2.6525  1.8034 -2.2943
   17MOL0     H 2295  11.137   1.780   9.418  1.1623 -0.4111  1.5823
   18MOL0     O 2296   0.874   6.954   0.035 -0.4825 -0.7365 -0.0719
   18MOL0     C 2297   0.950   7.049   0.022 -0.2759 -0.3457 -0.0933
   18MOL0     O 2298   0.987   7.098  -0.102 -0.5469  0.0881  0.1966
   18MOL0     C 2299   0.915   7.060  -0.207  0.0101 -0.2843 -0.4924
   18MOL0     C 2300   0.802   7.123  -0.240 -0.3138  0.9827 -0.5569
   18MOL0     C 2301   0.715   7.090  -0.350 -0.2689  0.3903 -0.8307
   18MOL0     C 2302   0.752   6.980  -0.429 -0.0945  0.2893  0.8413
   18MOL0     O 2303   0.679   6.947  -0.533  0.2297 -0.0731  0.5414
   18MOL0     C 2304   0.583   6.851  -0.507 -0.9403  0.2353 -0.8404
   18MOL0     C 2305   0.459   6.876  -0.585 -1.2368  0.2033 -0.3465
   18MOL0     C 2306   0.372   6.984  -0.531 -0.4678 -0.7332 -0.6317
   18MOL0     C 2307   0.232   6.992  -0.594  0.1959 -0.7934  0.6984
   18MOL0     C 2308   0.172   7.133  -0.600  0.2259 -0.7177 -0.1198
   18MOL0     C 2309   0.146   7.197  -0.461 -0.2959  0.8633  0.5650
   18MOL0     C 2310   0.070   7.105  -0.350  0.0801  0.4012 -0.6245
   18MOL0     C 2311  -0.087   7.091  -0.365  0.1589 -0.3716  0.3825
   18MOL0     N 2312  -0.143   7.025  -0.246 -0.0533 -0.2227 -0.5096
   18MOL0     C 2313  -0.148   7.088  -0.116 -0.1808  0.1015  0.4436
   18MOL0     C 2314  -0.223   7.007  -0.047  0.5116  0.2754 -0.3106
   18MOL0     C 2315  -0.248   7.043   0.100 -0.0881 -0.2108 -0.2348
   18MOL0     C 2316  -0.210   6.933   0.207 -0.9063  0.9502 -0.3454
   18MOL0     C 2317  -0.091   6.841   0.171 -0.7642  0.4380 -0.3146
   18MOL0     C 2318   0.048   6.906   0.127 -0.3007  0.3407  0.5323
   18MOL0     O 2319   0.065   7.028   0.204  0.4670  0.9281  0.0589
   18MOL0     C 2320   0.151   7.023   0.308  0.8576 -0.4896 -0.6020
   18MOL0     C 2321   0.145   6.919   0.399 -0.1138 -0.7491 -0.1959
   18MOL0     C 2322   0.224   6.935   0.516 -0.2833 -0.0127  0.0848
   18MOL0     C 2323   0.327   7.027   0.536  0.6676 -0.6631  0.3842
   18MOL0     C 2324   0.401   7.031   0.667 -0.2747 -0.3955 -0.1372
   18MOL0     O 2325   0.373   6.930   0.752 -0.1196  0.4663 -0.5820
   18MOL0     C 2326   0.452   6.897   0.860  1.5322 -0.2193 -0.0034
   18MOL0     C 2327   0.384   6.861   0.969 -0.3518 -0.8963  0.0242
   18MOL0     C 2328   0.448   6.811   1.077 -0.9879 -0.0797 -1.2524
   18MOL0     C 2329   0.591   6.785   1.077  0.2923 -0.1279  0.7277
   18MOL0     O 2330   0.642   6.736   1.189 -0.3335 -0.3512  0.1748
   18MOL0     C 2331   0.777   6.710   1.191  0.6074  0.0620  1.3705
   18MOL0     C 2332   0.822   6.636   1.312  0.3220  0.3542  0.0203
   18MOL0     C 2333   0.766   6.701   1.442 -0.6552 -0.9224  0.1592
   18MOL0     C 2334   0.771   6.602   1.561  1.1320 -0.2703 -0.0155
   18MOL0     C 2335   0.726   6.646   1.699 -0.7956 -0.3555  1.1189
   18MOL0     C 2336   0.712   6.544   1.806 -0.2349  1.6199 -0.5814
   18MOL0     C 2337   0.846   6.465   1.827  0.3268 -0.2606 -0.4437
   18MOL0     C 2338   0.836   6.365   1.938 -0.1190  0.1924  0.0814
   18MOL0    Cl 2339   0.874   6.441   2.089 -0.5286 -0.2273  0.2679
   18MOL0     C 2340   0.656   6.810   0.953 -0.6072 -1.2410 -1.2114
   18MOL0     C 2341   0.589   6.883   0.855 -0.6225 -0.0857 -0.7914
   18MOL0     O 2342   0.488   7.116   0.683 -0.2054 -0.3435  0.1369
   18MOL0     C 2343   0.329   7.124   0.444  0.5689 -0.3688 -0.5432
   18MOL0     C 2344   0.234   7.129   0.336 -0.1544  0.0566 -0.4308
   18MOL0     N 2345  -0.269   6.903  -0.126  0.0880  0.0867  0.1388
   18MOL0     N 2346  -0.217   6.913  -0.244  0.4340 -0.4538  0.1726
   18MOL0     C 2347   0.872   6.915  -0.401  0.1291 -0.1899  0.2387
   18MOL0     C 2348   0.945   6.950  -0.287 -0.3311 -0.4705 -0.1881
   18MOL0     C 2349   1.023   7.083   0.135  0.6592 -0.6886 -0.3229
   18MOL0     C 2350   0.971   7.052   0.268  0.0270  0.3007 -0.6397
   18MOL0     C 2351   1.046   7.076   0.387  0.8513 -0.3763  0.6115
   18MOL0     C 2352   1.173   7.124   0.370  0.4408 -0.0697 -0.4926
   18MOL0     O 2353   1.256   7.155   0.475 -0.9020 -0.4242  0.0177
   18MOL0     C 2354   1.210   7.136   0.612  0.5122  0.1388  0.4485
   18MOL0     C 2355   1.318   7.146   0.714 -1.1871  0.2505 -0.0464
   18MOL0     C 2356   1.430   7.041   0.716 -0.0909  0.3341  0.2828
   18MOL0     C 2357   1.510   7.033   0.844 -0.1369 -0.9376 -0.3285
   18MOL0     C 2358   1.459   6.949   0.950 -0.3196 -0.0597  0.1194
   18MOL0     C 2359   1.418   6.855   1.012 -0.0310 -0.6774 -0.1448
   18MOL0     C 2360   1.224   7.162   0.248  0.7618 -0.0501  1.0054
   18MOL0     C 2361   1.152   7.151   0.129 -0.5161 -0.3009 -0.7660
   18MOL0     C 2362   1.230   7.196   0.004 -0.4226 -0.2254  0.6454
   18MOL0     H 2363   0.775   7.207  -0.177 -1.0846 -0.5567  1.2503
   18MOL0     H 2364   0.622   7.144  -0.365 -0.7842 -1.1310 -3.7975
   18MOL0     H 2365   0.643   6.763  -0.530  0.4864 -0.1051  3.2714
   18MOL0     H 2366   0.554   6.841  -0.402  1.9122 -0.3679 -0.0441
   18MOL0     H 2367   0.412   6.778  -0.598  2.3789 -1.6836 -0.3941
   18MOL0     H 2368   0.494   6.907  -0.684  2.2365 -0.0816  0.6614
   18MOL0     H 2369   0.423   7.080  -0.545  0.4237 -1.4944 -3.2147
   18MOL0     H 2370   0.367   6.967  -0.423  2.0998 -0.9044 -0.4809
   18MOL0     H 2371   0.243   6.950  -0.695  1.0081 -0.9901  0.8664
   18MOL0     H 2372   0.163   6.926  -0.541 -0.8738 -1.2700 -1.1818
   18MOL0     H 2373   0.229   7.196  -0.669 -2.3412  2.2530  0.2703
   18MOL0     H 2374   0.080   7.115  -0.657  1.4396 -5.2472 -1.0719
   18MOL0     H 2375   0.236   7.238  -0.413  1.2367  0.4594 -1.8208
   18MOL0     H 2376   0.077   7.278  -0.485 -1.0240  0.2766  0.6271
   18MOL0     H 2377   0.099   7.132  -0.248 -1.7647 -0.4004  0.1639
   18MOL0     H 2378   0.103   7.000  -0.348 -0.7445  0.1318  0.9871
   18MOL0     H 2379  -0.133   7.190  -0.368 -1.9506 -1.0735  3.6797
   18MOL0     H 2380  -0.116   7.043  -0.459 -1.3033  0.8796  0.1557
   18MOL0     H 2381  -0.106   7.184  -0.089  0.8316  0.0455 -0.8613
   18MOL0     H 2382  -0.188   7.134   0.116 -0.4931  0.1839 -0.9046
   18MOL0     H 2383  -0.353   7.070   0.110  0.2846  0.9161  0.8983
   18MOL0     H 2384  -0.185   6.996   0.293  0.7109  1.8459 -1.4151
   18MOL0     H 2385  -0.287   6.864   0.240  0.3065 -0.8016 -1.0430
   18MOL0     H 2386  -0.117   6.769   0.093  0.2846  1.0013 -1.2123
   18MOL0     H 2387  -0.068   6.773   0.253  1.8427 -0.2925 -1.5257
   18MOL0     H 2388   0.035   6.935   0.022  0.1137  0.7670  0.5962
   18MOL0     H 2389   0.143   6.852   0.130  0.7456  2.1142  0.9859
   18MOL0     H 2390   0.074   6.838   0.396  0.1988 -1.0434  0.2339
   18MOL0     H 2391   0.210   6.868   0.600  1.8235  2.0269  2.2376
   18MOL0     H 2392   0.276   6.870   0.975 -0.4996 -2.1425 -0.4878
   18MOL0     H 2393   0.386   6.765   1.153  0.5258  0.7159  0.5608
   18MOL0     H 2394   0.798   6.649   1.103 -0.8263  0.7595  0.5232
   18MOL0     H 2395   0.827   6.807   1.185  0.3398  0.2341  1.8773
   18MOL0     H 2396   0.796   6.531   1.301 -1.3102  0.7714 -0.2885
   18MOL0     H 2397   0.932   6.641   1.309  0.2896  0.7384 -1.9299
   18MOL0     H 2398   0.837   6.783   1.454 -1.5124  0.3117 -2.4921
   18MOL0     H 2399   0.663   6.733   1.425 -1.2947 -2.2401  1.3221
   18MOL0     H 2400   0.870   6.557   1.572  0.9385 -0.4872  0.8588
   18MOL0     H 2401   0.699   6.527   1.525 -1.0279  1.4972  0.4153
   18MOL0     H 2402   0.639   6.709   1.681  0.3414  0.9019 -0.2434
   18MOL0     H 2403   0.809   6.711   1.729  0.1557 -0.2621 -1.4172
   18MOL0     H 2404   0.689   6.602   1.896  2.6478  3.8300 -1.1026
   18MOL0     H 2405   0.630   6.478   1.777  1.1647 -1.0088  0.9980
   18MOL0     H 2406   0.915   6.546   1.852  1.4423 -0.1499 -3.5062
   18MOL0     H 2407   0.873   6.415   1.734 -1.0963 -1.6077 -0.1766
   18MOL0     H 2408   0.733   6.328   1.946 -0.6481  1.8371  1.2643
   18MOL0     H 2409   0.913   6.291   1.915  1.0097  1.7899 -1.5766
   18MOL0     H 2410   0.760   6.792   0.928 -0.1853  1.7076 -1.9096
   18MOL0     H 2411   0.641   6.885   0.760  1.3698 -0.2093  0.2490
   18MOL0     H 2412   0.400   7.206   0.447 -0.6176  0.7502 -1.5659
   18MOL0     H 2413   0.242   7.219   0.276 -1.1076  0.5359  0.1439
   18MOL0     H 2414   0.897   6.831  -0.465 -0.4137  0.0761 -0.3343
   18MOL0     H 2415   1.029   6.889  -0.255  0.4853  0.3319 -0.7413
   18MOL0     H 2416   0.877   6.998   0.274  1.1396 -2.0047 -2.3187
   18MOL0     H 2417   1.000   7.036   0.477  0.2210  0.4566  0.6745
   18MOL0     H 2418   1.185   7.030   0.625  2.8999 -0.2028  3.6083
   18MOL0     H 2419   1.129   7.206   0.634 -0.2500 -0.3494 -0.7094
   18MOL0     H 2420   1.272   7.148   0.813  0.7864  1.7113  0.9055
   18MOL0     H 2421   1.360   7.247   0.704  1.8666 -0.9286  0.0114
   18MOL0     H 2422   1.494   7.057   0.629  1.3915 -3.5548  0.4889
   18MOL0     H 2423   1.393   6.939   0.709 -2.4546  0.9131  2.5818
   18MOL0     H 2424   1.610   6.999   0.815 -0.2722 -0.9074 -0.8295
   18MOL0     H 2425   1.508   7.129   0.898 -0.7869 -1.2473  0.2096
   18MOL0     H 2426   1.394   6.772   1.076 -1.3569  0.2531  0.6278
   18MOL0     H 2427   1.325   7.202   0.252 -0.3766  3.1339  1.3332
   18MOL0     H 2428   1.171   7.259  -0.063  0.6829 -0.8969 -0.9988
   18MOL0     H 2429   1.323   7.248   0.031 -2.4074  3.5265  0.9799
   18MOL0     H 2430   1.263   7.104  -0.045  1.2456 -0.4774  2.1091
   19MOL0     O 2431   7.729   6.920   4.353 -0.4630  0.5002 -0.2284
   19MOL0     C 2432   7.661   6.956   4.439 -0.0597  1.2226 -0.0779
   19MOL0     O 2433   7.531   6.926   4.439  0.8815 -0.2111 -0.4966
   19MOL0     C 2434   7.460   6.893   4.327 -0.0637 -0.2441 -0.2889
   19MOL0     C 2435   7.475   6.958   4.204  0.0533 -0.7503 -0.6667
   19MOL0     C 2436   7.403   6.916   4.097  0.5287 -0.3358 -0.0196
   19MOL0     C 2437   7.309   6.815   4.107 -0.4367  0.0127  0.0470
   19MOL0     O 2438   7.224   6.766   4.002  0.3596 -0.1940  0.4186
   19MOL0     C 2439   7.266   6.804   3.868  0.0944 -0.1757 -1.0358
   19MOL0     C 2440   7.205   6.935   3.817 -0.1275 -0.0563  0.1140
   19MOL0     C 2441   7.070   6.980   3.875 -0.1706 -0.0186 -0.3673
   19MOL0     C 2442   6.964   6.874   3.829  0.8199 -0.3153 -0.5875
   19MOL0     C 2443   6.826   6.899   3.890 -0.3588  0.0499 -0.8070
   19MOL0     C 2444   6.810   6.875   4.037  1.0467  0.1669  0.3090
   19MOL0     C 2445   6.666   6.876   4.086 -0.1059  0.6306  0.2658
   19MOL0     C 2446   6.655   6.814   4.232 -0.0474 -0.8200 -0.5915
   19MOL0     N 2447   6.519   6.772   4.271  0.4018  0.2355 -0.4095
   19MOL0     C 2448   6.412   6.848   4.294 -0.6534 -0.0387 -0.7803
   19MOL0     C 2449   6.325   6.758   4.356 -0.0680 -0.4627 -0.2958
   19MOL0     C 2450   6.170   6.774   4.393  0.0256 -0.5499  0.3238
   19MOL0     C 2451   6.144   6.880   4.502  1.1404 -0.1229 -0.1046
   19MOL0     C 2452   6.199   6.835   4.635  0.2094  0.1008  0.6195
   19MOL0     C 2453   6.109   6.725   4.699  0.0910  0.3084 -0.2116
   19MOL0     O 2454   6.195   6.629   4.757 -0.2652 -0.1405 -0.1579
   19MOL0     C 2455   6.145   6.577   4.875 -0.0921  0.3643  0.1432
   19MOL0     C 2456   6.236   6.497   4.947  0.3220  0.5727  1.3821
   19MOL0     C 2457   6.218   6.434   5.068  0.2186 -0.0496  0.9887
   19MOL0     C 2458   6.091   6.448   5.128 -0.4672 -0.2164  0.4963
   19MOL0     C 2459   6.059   6.365   5.249 -0.9064 -0.5270  0.6542
   19MOL0     O 2460   5.931   6.377   5.299  0.6231 -0.2842  0.5107
   19MOL0     C 2461   5.899   6.302   5.409  0.1140 -0.5360  0.1800
   19MOL0     C 2462   5.768   6.261   5.409 -0.6570  0.3122  0.0370
   19MOL0     C 2463   5.718   6.207   5.528 -0.0052  0.2081  0.2443
   19MOL0     C 2464   5.792   6.181   5.638 -0.1644 -0.7948  0.9549
   19MOL0     O 2465   5.725   6.149   5.750 -0.3143 -0.4349 -0.7236
   19MOL0     C 2466   5.785   6.133   5.880 -0.0304 -0.5120  0.9476
   19MOL0     C 2467   5.673   6.124   5.987  0.5041 -0.3440  0.3288
   19MOL0     C 2468   5.695   6.211   6.110  0.0511  0.4240  0.7755
   19MOL0     C 2469   5.593   6.197   6.213  0.2348  0.3757 -0.1156
   19MOL0     C 2470   5.614   6.309   6.314  0.4007  0.4484 -0.1820
   19MOL0     C 2471   5.532   6.285   6.437  0.5134 -0.3458 -0.6873
   19MOL0     C 2472   5.533   6.403   6.528 -1.2660  0.1778  0.0288
   19MOL0     C 2473   5.399   6.392   6.615 -0.0659  0.6458 -0.8868
   19MOL0    Cl 2474   5.392   6.232   6.712  0.1844  0.1704  0.0204
   19MOL0     C 2475   5.929   6.217   5.642  0.3969  0.4487  0.5337
   19MOL0     C 2476   5.978   6.281   5.528  0.6737 -0.4387 -0.0344
   19MOL0     O 2477   6.150   6.294   5.290  0.9173 -0.1581 -0.4019
   19MOL0     C 2478   5.991   6.533   5.064  0.6999  0.6970  1.3979
   19MOL0     C 2479   6.022   6.593   4.941 -1.0748  0.0686  0.6629
   19MOL0     N 2480   6.388   6.631   4.379  0.4173  0.1987  0.6520
   19MOL0     N 2481   6.495   6.637   4.308  0.4825 -1.7076  0.3429
   19MOL0     C 2482   7.290   6.751   4.227 -0.3801  0.1448  0.6308
   19MOL0     C 2483   7.361   6.790   4.334  0.1587  0.3036 -0.3662
   19MOL0     C 2484   7.708   7.039   4.554  0.4651  0.4118  0.5476
   19MOL0     C 2485   7.637   7.028   4.673  1.0672 -0.9167  0.1157
   19MOL0     C 2486   7.685   7.097   4.795  0.2367  0.1933 -0.4742
   19MOL0     C 2487   7.777   7.199   4.789 -1.3608 -0.0985  0.4047
   19MOL0     O 2488   7.825   7.258   4.904  0.0860  0.5574 -0.4571
   19MOL0     C 2489   7.963   7.303   4.921  0.1554 -1.7210  0.1222
   19MOL0     C 2490   7.998   7.397   5.041  0.1635 -1.0967  0.4270
   19MOL0     C 2491   7.928   7.536   5.049  0.2712  0.6505  1.0833
   19MOL0     C 2492   8.011   7.626   5.138  0.6813 -0.4522  0.8157
   19MOL0     C 2493   7.945   7.759   5.163  0.4167  0.4796  0.4047
   19MOL0     C 2494   7.892   7.872   5.182 -0.4585  0.4693 -1.5366
   19MOL0     C 2495   7.841   7.220   4.658  0.8329 -0.1669 -0.1201
   19MOL0     C 2496   7.809   7.141   4.543 -0.0195 -0.0869 -0.5271
   19MOL0     C 2497   7.868   7.182   4.410  0.1756  0.1948  0.3806
   19MOL0     H 2498   7.556   7.029   4.191 -0.2393 -0.3064 -0.1013
   19MOL0     H 2499   7.413   6.986   4.014  0.8943  0.5205  0.7278
   19MOL0     H 2500   7.374   6.817   3.858 -0.1990  1.9356 -1.8946
   19MOL0     H 2501   7.237   6.720   3.804 -0.3552  0.2888 -1.4496
   19MOL0     H 2502   7.181   6.914   3.712 -3.8992  0.4936  0.7350
   19MOL0     H 2503   7.280   7.015   3.819 -2.6300  2.4104  2.1386
   19MOL0     H 2504   7.054   7.080   3.834 -3.6319 -1.3035 -2.7244
   19MOL0     H 2505   7.072   6.983   3.984 -2.3454  1.1530 -0.3087
   19MOL0     H 2506   6.959   6.866   3.720 -1.2989 -0.9683 -0.4754
   19MOL0     H 2507   7.001   6.777   3.863  0.1590  0.0445  1.2540
   19MOL0     H 2508   6.794   7.001   3.867 -1.0609  0.9934  3.5007
   19MOL0     H 2509   6.759   6.829   3.839 -2.5531 -0.7297  2.8117
   19MOL0     H 2510   6.854   6.777   4.055 -0.8149 -0.9701 -0.9830
   19MOL0     H 2511   6.864   6.950   4.096  0.8649  1.2646 -0.8654
   19MOL0     H 2512   6.601   6.830   4.011  4.0526 -0.1392 -3.2559
   19MOL0     H 2513   6.628   6.976   4.108 -1.7613 -0.2776  1.7704
   19MOL0     H 2514   6.717   6.724   4.240  0.4639 -0.4961 -0.8858
   19MOL0     H 2515   6.690   6.888   4.304  1.8316 -2.6350  0.4511
   19MOL0     H 2516   6.401   6.956   4.293 -1.2645  0.0688  2.7301
   19MOL0     H 2517   6.110   6.804   4.307  0.6738 -1.9298 -0.6497
   19MOL0     H 2518   6.138   6.677   4.432 -0.2138 -0.5650  0.0937
   19MOL0     H 2519   6.185   6.972   4.461 -2.2655  0.2306 -3.2013
   19MOL0     H 2520   6.040   6.899   4.531  1.6758  3.9239 -0.2455
   19MOL0     H 2521   6.200   6.921   4.703 -1.1242 -0.5887  1.5574
   19MOL0     H 2522   6.303   6.801   4.624 -0.0326 -0.0192 -1.9960
   19MOL0     H 2523   6.036   6.683   4.630  0.1475  0.7646 -0.5575
   19MOL0     H 2524   6.046   6.766   4.779  2.7027  1.9063  1.1540
   19MOL0     H 2525   6.338   6.485   4.911  0.4355  0.1246  1.8358
   19MOL0     H 2526   6.299   6.377   5.114 -1.3584 -0.5826  3.2514
   19MOL0     H 2527   5.711   6.288   5.320 -0.2975 -1.2185 -0.6941
   19MOL0     H 2528   5.611   6.191   5.515 -0.2858  0.6107  1.8553
   19MOL0     H 2529   5.847   6.043   5.885  0.5960 -0.2270 -0.8806
   19MOL0     H 2530   5.844   6.222   5.906 -0.7351 -0.1480  1.3241
   19MOL0     H 2531   5.579   6.152   5.939 -0.1195  1.9431  2.6658
   19MOL0     H 2532   5.664   6.018   6.014  2.3411 -0.8040 -0.6816
   19MOL0     H 2533   5.797   6.184   6.140 -0.8365 -3.7056  0.6845
   19MOL0     H 2534   5.686   6.313   6.072 -3.7678 -0.0177  0.1283
   19MOL0     H 2535   5.619   6.106   6.267 -2.3113 -0.1111  0.3968
   19MOL0     H 2536   5.494   6.184   6.169  1.4561 -1.0163 -2.6778
   19MOL0     H 2537   5.617   6.411   6.274  1.0035 -0.7163 -3.4495
   19MOL0     H 2538   5.718   6.315   6.349  0.7927  1.3670 -1.4421
   19MOL0     H 2539   5.430   6.252   6.412  0.4539 -2.5874  1.9561
   19MOL0     H 2540   5.567   6.192   6.482  1.6521 -1.0154 -2.8148
   19MOL0     H 2541   5.540   6.495   6.470  1.8813  0.0472  0.0262
   19MOL0     H 2542   5.619   6.403   6.595  1.3334  0.9522 -3.0727
   19MOL0     H 2543   5.388   6.479   6.680 -0.9655  0.6274 -0.9993
   19MOL0     H 2544   5.304   6.391   6.561 -0.8789  1.1734  0.4874
   19MOL0     H 2545   5.983   6.200   5.735  0.0158  1.5140  0.9672
   19MOL0     H 2546   6.079   6.321   5.527  0.8708 -0.8970  0.5306
   19MOL0     H 2547   5.888   6.547   5.096 -0.5157  0.0638 -1.8128
   19MOL0     H 2548   5.934   6.643   4.900 -1.4315 -1.2701 -0.2900
   19MOL0     H 2549   7.223   6.666   4.231 -2.0484  1.2368 -1.5917
   19MOL0     H 2550   7.353   6.741   4.430 -0.4103 -4.4344 -2.5460
   19MOL0     H 2551   7.552   6.963   4.693 -2.8577  2.9637 -2.2849
   19MOL0     H 2552   7.651   7.064   4.893 -1.3158 -2.6147 -1.8443
   19MOL0     H 2553   8.003   7.361   4.838 -0.8160 -2.3677 -0.8170
   19MOL0     H 2554   8.020   7.212   4.943  0.2767 -1.6915 -0.0721
   19MOL0     H 2555   8.107   7.404   5.051  0.3113 -0.1972 -1.4026
   19MOL0     H 2556   7.960   7.345   5.130 -2.3758 -1.3418 -0.7343
   19MOL0     H 2557   7.824   7.527   5.080 -0.0180 -0.2969 -0.0745
   19MOL0     H 2558   7.926   7.586   4.952  0.3372  2.8483  2.1562
   19MOL0     H 2559   8.024   7.581   5.237  0.1170 -0.4013  0.9122
   19MOL0     H 2560   8.111   7.633   5.094 -0.2366 -2.6611 -1.8929
   19MOL0     H 2561   7.839   7.958   5.216 -4.7772 -2.6002  0.3899
   19MOL0     H 2562   7.909   7.304   4.647  1.2664  0.2248  4.0313
   19MOL0     H 2563   7.936   7.265   4.434  0.6138 -0.9002  3.4495
   19MOL0     H 2564   7.912   7.100   4.352 -1.3945 -0.0568 -0.5121
   19MOL0     H 2565   7.780   7.209   4.351  0.1851  4.7884  2.0782
   20MOL0     O 2566   3.814   3.379   3.838 -0.5327 -0.2455  0.3018
   20MOL0     C 2567   3.828   3.255   3.834  0.0349  0.5379  0.1336
   20MOL0     O 2568   3.946   3.192   3.810 -0.3053  0.2741 -0.0290
   20MOL0     C 2569   4.069   3.245   3.795  0.6507  0.5958 -0.2938
   20MOL0     C 2570   4.169   3.167   3.849  0.0755 -0.8328  0.3265
   20MOL0     C 2571   4.294   3.228   3.862  0.0597  0.5553  0.5082
   20MOL0     C 2572   4.322   3.363   3.819 -0.2533 -0.2776 -0.1703
   20MOL0     O 2573   4.447   3.421   3.816 -0.4419 -0.2468  0.1583
   20MOL0     C 2574   4.513   3.408   3.942 -0.6684 -0.3389 -0.8847
   20MOL0     C 2575   4.632   3.510   3.938  0.1778  0.6267 -0.6347
   20MOL0     C 2576   4.691   3.543   4.074 -0.2376 -0.2311  0.4777
   20MOL0     C 2577   4.599   3.630   4.165 -1.2801  0.1217 -0.1714
   20MOL0     C 2578   4.669   3.637   4.306 -0.0856 -0.2299  0.6437
   20MOL0     C 2579   4.788   3.741   4.304  0.2222 -0.2039 -0.2176
   20MOL0     C 2580   4.866   3.728   4.434  0.1193 -0.7517  1.4289
   20MOL0     C 2581   4.944   3.856   4.430 -0.3191  1.0600  0.0116
   20MOL0     N 2582   4.873   3.985   4.448  0.4067 -0.0012  0.5380
   20MOL0     C 2583   4.746   3.991   4.505  0.0964  0.8755 -0.4438
   20MOL0     C 2584   4.721   4.115   4.496  0.9358  0.6283 -0.7201
   20MOL0     C 2585   4.602   4.201   4.525  0.0533  0.3842  0.5726
   20MOL0     C 2586   4.508   4.152   4.634  0.0775 -0.3568 -0.1807
   20MOL0     C 2587   4.382   4.234   4.658 -0.8028 -0.4047 -0.0144
   20MOL0     C 2588   4.293   4.250   4.532  0.1919 -0.0334 -0.5901
   20MOL0     O 2589   4.166   4.307   4.577  0.2221 -0.0273  0.5592
   20MOL0     C 2590   4.055   4.290   4.496 -0.5361 -0.0559 -0.3083
   20MOL0     C 2591   3.935   4.346   4.540  0.2787 -1.1607  0.2879
   20MOL0     C 2592   3.805   4.314   4.485 -0.0897 -0.4175  0.4282
   20MOL0     C 2593   3.797   4.230   4.369 -0.1745 -0.3192 -0.2418
   20MOL0     C 2594   3.669   4.204   4.288 -0.7812  0.3479  0.2894
   20MOL0     O 2595   3.690   4.157   4.163 -0.3906  0.1148 -0.4802
   20MOL0     C 2596   3.580   4.105   4.107 -0.1560 -0.9427  0.8462
   20MOL0     C 2597   3.513   3.999   4.143  0.1244 -0.2499 -0.3027
   20MOL0     C 2598   3.385   3.950   4.092  0.2365 -0.7254  0.2940
   20MOL0     C 2599   3.339   4.021   3.974 -1.0282  0.0345 -0.2159
   20MOL0     O 2600   3.221   3.977   3.916  0.3319  0.2592  0.1187
   20MOL0     C 2601   3.121   4.087   3.894  1.0464  0.3567  0.9035
   20MOL0     C 2602   2.970   4.053   3.891 -0.1570  0.7181 -0.3412
   20MOL0     C 2603   2.882   4.174   3.907  0.0417  0.4002 -0.0402
   20MOL0     C 2604   2.734   4.137   3.904  0.3372  0.6596  0.3096
   20MOL0     C 2605   2.634   4.242   3.852  0.7283  0.1420  0.2089
   20MOL0     C 2606   2.656   4.383   3.903  0.0615  0.2216 -0.2234
   20MOL0     C 2607   2.538   4.481   3.878  0.1707  0.1519  0.1513
   20MOL0     C 2608   2.571   4.619   3.931 -0.5445  0.7148  0.2870
   20MOL0    Cl 2609   2.724   4.690   3.878  0.2016 -0.1249 -0.3189
   20MOL0     C 2610   3.420   4.130   3.919  1.5588  0.4636  0.0142
   20MOL0     C 2611   3.538   4.166   3.984  0.3123 -1.2811 -1.0873
   20MOL0     O 2612   3.553   4.230   4.344  0.3343  0.3233  0.2276
   20MOL0     C 2613   3.923   4.169   4.336  0.5063 -0.0941 -0.0552
   20MOL0     C 2614   4.043   4.203   4.387  0.6295 -0.3113  0.7459
   20MOL0     N 2615   4.818   4.185   4.437  0.4571 -0.3087  0.1864
   20MOL0     N 2616   4.902   4.104   4.390  0.8557 -0.3277  0.0199
   20MOL0     C 2617   4.222   3.432   3.748  0.5207  0.6631 -0.3149
   20MOL0     C 2618   4.099   3.373   3.745  0.1679 -0.5808  1.2170
   20MOL0     C 2619   3.706   3.166   3.831 -0.2737 -0.6126  0.2518
   20MOL0     C 2620   3.716   3.029   3.862 -0.5707 -0.0181 -0.4160
   20MOL0     C 2621   3.608   2.940   3.855  0.4620  0.9498 -0.6505
   20MOL0     C 2622   3.489   2.984   3.814  0.2831  0.6121 -0.4258
   20MOL0     O 2623   3.398   2.882   3.799 -0.3407  0.5711 -0.1108
   20MOL0     C 2624   3.266   2.917   3.805 -0.3307 -0.6758  0.4415
   20MOL0     C 2625   3.214   2.973   3.944  0.3176  0.3289  0.6931
   20MOL0     C 2626   3.068   3.003   3.929  0.1361 -0.4227 -0.1279
   20MOL0     C 2627   3.006   3.085   4.043 -0.3612  0.4529  0.0125
   20MOL0     C 2628   3.034   3.023   4.178  1.3532 -0.6415  0.2426
   20MOL0     C 2629   3.045   2.992   4.296  0.6511  0.4454  0.9535
   20MOL0     C 2630   3.463   3.123   3.787 -1.0944  1.0125  0.4921
   20MOL0     C 2631   3.572   3.218   3.798  0.6071  0.4627 -0.2083
   20MOL0     C 2632   3.541   3.363   3.775 -0.3358  0.3262  0.4575
   20MOL0     H 2633   4.146   3.066   3.883 -3.2837  0.1072  1.2650
   20MOL0     H 2634   4.367   3.172   3.919  0.5176 -0.8518 -1.3750
   20MOL0     H 2635   4.447   3.426   4.027  0.9136  0.4745  0.2176
   20MOL0     H 2636   4.560   3.309   3.950  1.1184  0.6592  2.6493
   20MOL0     H 2637   4.601   3.597   3.879 -0.9430 -0.1194 -1.1913
   20MOL0     H 2638   4.714   3.470   3.878  1.1343 -1.1231  1.7262
   20MOL0     H 2639   4.789   3.589   4.062  0.1423 -1.3360 -0.9595
   20MOL0     H 2640   4.704   3.448   4.127 -4.1740 -0.7865  0.7968
   20MOL0     H 2641   4.595   3.733   4.129  0.1043  2.4422  5.2929
   20MOL0     H 2642   4.498   3.591   4.183 -1.5710 -0.6119 -2.9155
   20MOL0     H 2643   4.591   3.678   4.370 -0.3052  0.1039  0.1637
   20MOL0     H 2644   4.711   3.545   4.347  0.8573  0.7072  1.8316
   20MOL0     H 2645   4.857   3.719   4.223 -0.3424  0.0458 -0.7710
   20MOL0     H 2646   4.734   3.833   4.284  0.0963 -0.1526  0.3404
   20MOL0     H 2647   4.944   3.652   4.438  1.6779  0.8135  4.7301
   20MOL0     H 2648   4.806   3.717   4.526 -2.7994  1.5514 -0.0178
   20MOL0     H 2649   5.004   3.840   4.520 -0.7557 -2.2026 -0.1567
   20MOL0     H 2650   5.010   3.863   4.342  0.3635  0.5672  0.4691
   20MOL0     H 2651   4.691   3.907   4.547  0.4509 -0.5498 -2.6438
   20MOL0     H 2652   4.641   4.299   4.554 -2.5812  2.1548 -1.4447
   20MOL0     H 2653   4.544   4.214   4.433 -3.8317 -1.4227  2.5176
   20MOL0     H 2654   4.474   4.050   4.615 -0.8924  0.0417 -0.7044
   20MOL0     H 2655   4.566   4.149   4.726  0.2856 -1.0436 -0.3316
   20MOL0     H 2656   4.412   4.329   4.704  2.1317 -0.7231 -1.0617
   20MOL0     H 2657   4.324   4.189   4.739 -1.7296 -1.7655 -1.3890
   20MOL0     H 2658   4.279   4.150   4.489 -0.2414  0.5757 -1.9218
   20MOL0     H 2659   4.347   4.311   4.459  1.5418 -0.7492 -0.2169
   20MOL0     H 2660   3.942   4.414   4.625 -1.2870  1.4754 -1.5527
   20MOL0     H 2661   3.712   4.354   4.523 -1.0513 -1.7679 -0.4000
   20MOL0     H 2662   3.543   3.950   4.235 -4.2116 -1.3464  0.7783
   20MOL0     H 2663   3.314   3.881   4.137  0.2780  0.2843  1.9860
   20MOL0     H 2664   3.139   4.149   3.982  2.4617 -0.6631  1.3905
   20MOL0     H 2665   3.147   4.128   3.796 -0.3387 -0.5199  0.1316
   20MOL0     H 2666   2.943   3.995   3.802 -2.2940 -1.3638  1.5183
   20MOL0     H 2667   2.938   3.986   3.972 -1.2508  1.5316 -0.0748
   20MOL0     H 2668   2.912   4.231   3.995  1.2137  1.3005 -0.9849
   20MOL0     H 2669   2.906   4.226   3.814  1.1246 -1.4022 -0.8319
   20MOL0     H 2670   2.694   4.124   4.005  1.2837  1.2406  0.7761
   20MOL0     H 2671   2.726   4.045   3.846  2.2805 -0.1333  1.1914
   20MOL0     H 2672   2.529   4.217   3.874 -0.0541  1.1505 -2.0928
   20MOL0     H 2673   2.644   4.256   3.744  0.2510 -2.7302 -0.2896
   20MOL0     H 2674   2.678   4.386   4.010 -0.3838  0.3990 -0.1339
   20MOL0     H 2675   2.747   4.425   3.859  1.1402 -2.0441 -0.2821
   20MOL0     H 2676   2.455   4.441   3.937 -1.0139  3.2572  0.8288
   20MOL0     H 2677   2.500   4.478   3.776 -4.5009  0.2470  1.6464
   20MOL0     H 2678   2.489   4.685   3.901 -1.9420 -0.7996  0.6341
   20MOL0     H 2679   2.595   4.604   4.037  2.6833  0.0587 -0.4147
   20MOL0     H 2680   3.394   4.197   3.838  1.1521  2.6672  1.8552
   20MOL0     H 2681   3.598   4.244   3.938 -3.1233  1.4634 -1.2749
   20MOL0     H 2682   3.911   4.103   4.251 -1.1842  2.1564 -1.6826
   20MOL0     H 2683   4.136   4.158   4.352 -0.2566 -0.4180 -1.5763
   20MOL0     H 2684   4.252   3.521   3.694  1.8491  0.5936  0.2904
   20MOL0     H 2685   4.033   3.447   3.699 -3.1414 -3.6567  0.5964
   20MOL0     H 2686   3.817   2.990   3.862  0.1397  1.5385  2.1859
   20MOL0     H 2687   3.618   2.836   3.883  0.5002  0.4302 -2.4625
   20MOL0     H 2688   3.207   2.827   3.782  0.2075 -0.2223 -3.4574
   20MOL0     H 2689   3.247   2.990   3.726  1.6610 -1.7340 -1.1439
   20MOL0     H 2690   3.272   3.056   3.985  1.4180 -1.0416  2.0380
   20MOL0     H 2691   3.220   2.897   4.023 -0.9087  0.1265  0.6172
   20MOL0     H 2692   3.015   2.908   3.928  1.2267 -1.0901  1.5660
   20MOL0     H 2693   3.038   3.053   3.836  1.6576  2.8631  0.9856
   20MOL0     H 2694   3.046   3.186   4.029  1.9161 -0.3794  0.1768
   20MOL0     H 2695   2.899   3.097   4.022  0.2317  0.9131 -3.2640
   20MOL0     H 2696   3.059   2.938   4.387 -0.7914 -2.3628 -0.3477
   20MOL0     H 2697   3.370   3.169   3.756 -0.2013  2.8999  0.4853
   20MOL0     H 2698   3.433   3.377   3.782 -0.5034 -0.9617  0.7122
   20MOL0     H 2699   3.583   3.421   3.858  1.5171 -2.7300  1.8204
   20MOL0     H 2700   3.575   3.392   3.675  1.5981 -1.4762  0.5227
   21MOL0     O 2701   1.490   4.903   1.156  0.7092 -0.4315 -0.8228
   21MOL0     C 2702   1.443   4.814   1.086  0.1159 -0.2178 -0.3418
   21MOL0     O 2703   1.386   4.694   1.121 -0.3956 -0.6166 -0.3970
   21MOL0     C 2704   1.395   4.679   1.263 -0.2946 -0.2288  0.6099
   21MOL0     C 2705   1.282   4.689   1.345  0.2543  1.3427 -1.1673
   21MOL0     C 2706   1.307   4.678   1.486 -0.1972 -0.2843  0.5911
   21MOL0     C 2707   1.434   4.641   1.533 -0.1724 -0.5874 -0.4605
   21MOL0     O 2708   1.467   4.631   1.669  0.3623  1.2388  0.0608
   21MOL0     C 2709   1.584   4.681   1.723 -0.1961  1.4741 -0.2105
   21MOL0     C 2710   1.584   4.723   1.872  0.1488  0.0673 -0.5740
   21MOL0     C 2711   1.447   4.782   1.902 -0.4126 -0.0901 -0.1595
   21MOL0     C 2712   1.423   4.922   1.838  0.1073 -0.2180  0.1993
   21MOL0     C 2713   1.359   5.029   1.933  0.7759 -0.1960  0.4895
   21MOL0     C 2714   1.339   5.162   1.852  0.0626 -0.0740  0.1709
   21MOL0     C 2715   1.283   5.285   1.937 -0.0309  0.3124 -0.0484
   21MOL0     C 2716   1.207   5.397   1.857  0.5318 -0.1167  0.2687
   21MOL0     N 2717   1.103   5.331   1.775  0.5726  0.5034  0.1327
   21MOL0     C 2718   1.018   5.238   1.811  0.5977  1.6382 -1.2198
   21MOL0     C 2719   0.947   5.204   1.702  0.3839  0.4620  0.3497
   21MOL0     C 2720   0.825   5.111   1.691  0.3701  0.4185 -0.2813
   21MOL0     C 2721   0.872   4.967   1.667  0.1838  0.2386  0.0743
   21MOL0     C 2722   0.993   4.928   1.760  0.4470  0.5080 -0.6563
   21MOL0     C 2723   1.044   4.783   1.747  0.5198  0.8554 -0.3165
   21MOL0     O 2724   0.942   4.688   1.780 -0.6040  0.4750  0.7754
   21MOL0     C 2725   0.932   4.655   1.912 -0.0137  0.4357  1.1304
   21MOL0     C 2726   0.859   4.535   1.935 -0.7172 -0.0733  0.1103
   21MOL0     C 2727   0.821   4.513   2.071  0.8549 -0.4908 -1.1564
   21MOL0     C 2728   0.876   4.583   2.184 -0.7241  0.4676 -1.1535
   21MOL0     C 2729   0.849   4.540   2.319  1.0992 -0.6068 -0.9886
   21MOL0     O 2730   0.816   4.410   2.343  0.2296 -0.5573 -0.1841
   21MOL0     C 2731   0.828   4.368   2.472  0.2985  0.0993  0.1255
   21MOL0     C 2732   0.723   4.283   2.519  0.7238 -0.0427  0.1540
   21MOL0     C 2733   0.745   4.223   2.645  0.0890 -0.5383  0.1846
   21MOL0     C 2734   0.860   4.237   2.718  1.0729  0.4289  0.4519
   21MOL0     O 2735   0.877   4.179   2.838  0.1620  0.4606  0.7097
   21MOL0     C 2736   0.775   4.103   2.914 -0.8571  0.1458 -0.0947
   21MOL0     C 2737   0.815   4.090   3.065 -1.0101  0.1676  0.0567
   21MOL0     C 2738   0.797   4.212   3.151  0.3008  0.4373  0.4883
   21MOL0     C 2739   0.877   4.194   3.277 -0.4631 -0.2583  0.1648
   21MOL0     C 2740   0.823   4.307   3.370  0.4667 -0.2708 -0.6374
   21MOL0     C 2741   0.856   4.278   3.512  0.2177 -0.3150  0.2441
   21MOL0     C 2742   0.872   4.403   3.596  0.0808  0.5880  0.1162
   21MOL0     C 2743   0.850   4.378   3.742  0.8997  0.5856  1.1317
   21MOL0    Cl 2744   0.819   4.540   3.821  0.2040  0.3241  0.0025
   21MOL0     C 2745   0.960   4.315   2.669  0.4076  0.0795  0.0715
   21MOL0     C 2746   0.941   4.381   2.552 -0.1363 -0.0176 -0.2338
   21MOL0     O 2747   0.843   4.637   2.401  0.0998  0.3632 -0.7519
   21MOL0     C 2748   0.958   4.690   2.153  0.3996 -0.5275 -0.0448
   21MOL0     C 2749   0.990   4.724   2.021 -0.0881  0.6757 -0.6967
   21MOL0     N 2750   1.004   5.277   1.594  0.1024  0.2864  0.2972
   21MOL0     N 2751   1.098   5.347   1.645  0.4133 -0.0429 -0.3475
   21MOL0     C 2752   1.535   4.605   1.441 -0.8859 -1.0517  0.4580
   21MOL0     C 2753   1.518   4.628   1.304 -0.2593  0.4588 -0.6743
   21MOL0     C 2754   1.488   4.832   0.944  0.4897 -0.1453 -0.1991
   21MOL0     C 2755   1.429   4.953   0.892  0.2817  0.4622  1.2785
   21MOL0     C 2756   1.457   4.999   0.764 -0.0053  0.1722 -0.6055
   21MOL0     C 2757   1.530   4.912   0.688 -0.3897 -0.6782  0.1871
   21MOL0     O 2758   1.546   4.949   0.557 -0.0070 -0.1122  0.0071
   21MOL0     C 2759   1.602   5.080   0.536 -0.4113 -0.5724 -0.4071
   21MOL0     C 2760   1.662   5.099   0.390  0.9398 -0.4702 -0.6577
   21MOL0     C 2761   1.697   5.253   0.375 -0.1729 -0.5192 -0.0341
   21MOL0     C 2762   1.803   5.300   0.487  1.1600 -0.1564  0.1154
   21MOL0     C 2763   1.869   5.189   0.548 -1.7826  0.5974 -0.4671
   21MOL0     C 2764   1.945   5.107   0.602 -0.2598 -0.4905  0.1354
   21MOL0     C 2765   1.587   4.789   0.728 -0.9755 -0.3755 -0.3759
   21MOL0     C 2766   1.568   4.747   0.864 -0.0956 -0.4681  0.6978
   21MOL0     C 2767   1.625   4.618   0.907 -0.5686  0.0917  0.6904
   21MOL0     H 2768   1.191   4.735   1.307 -0.4909  0.8030 -0.1066
   21MOL0     H 2769   1.217   4.680   1.547  0.8925  3.0333  2.2978
   21MOL0     H 2770   1.659   4.602   1.711 -0.4479  1.0801  0.6600
   21MOL0     H 2771   1.626   4.763   1.664  1.8988  4.8473  5.1911
   21MOL0     H 2772   1.659   4.793   1.910 -1.5865  0.1173  3.1961
   21MOL0     H 2773   1.604   4.635   1.934 -1.1699 -3.1952 -4.2990
   21MOL0     H 2774   1.451   4.790   2.011 -0.7970  1.6783 -0.2403
   21MOL0     H 2775   1.366   4.717   1.868  0.9755 -1.7609 -0.4037
   21MOL0     H 2776   1.523   4.964   1.828  0.5109 -1.0500  0.5999
   21MOL0     H 2777   1.381   4.916   1.737  0.7131  2.0359 -0.2264
   21MOL0     H 2778   1.261   4.991   1.962  0.6557 -2.0041 -1.9804
   21MOL0     H 2779   1.416   5.040   2.026 -2.0580  3.4732  2.0774
   21MOL0     H 2780   1.436   5.188   1.808 -0.8783 -0.8012 -2.5367
   21MOL0     H 2781   1.269   5.136   1.773 -0.8600  0.3935  0.8148
   21MOL0     H 2782   1.374   5.330   1.978  0.3117 -0.4022 -0.0070
   21MOL0     H 2783   1.220   5.251   2.019  1.1621 -0.2765  0.6471
   21MOL0     H 2784   1.152   5.453   1.934 -3.7852 -2.9765 -0.3564
   21MOL0     H 2785   1.268   5.463   1.794 -0.5445 -2.0017 -2.9970
   21MOL0     H 2786   1.012   5.198   1.911  3.2803  1.2946 -1.1422
   21MOL0     H 2787   0.775   5.111   1.788 -3.6509 -0.8999 -2.1541
   21MOL0     H 2788   0.765   5.150   1.609 -1.9056 -0.4558  0.8739
   21MOL0     H 2789   0.792   4.893   1.679 -0.5419  1.3775  3.3656
   21MOL0     H 2790   0.901   4.972   1.562  0.9158  1.1353  0.3102
   21MOL0     H 2791   0.956   4.950   1.860  2.0168  1.1370 -0.1873
   21MOL0     H 2792   1.076   4.998   1.745 -0.2521  1.5318  0.1147
   21MOL0     H 2793   1.130   4.761   1.811 -0.6853 -1.2984  0.6650
   21MOL0     H 2794   1.079   4.767   1.645 -0.6096 -1.0692 -0.4483
   21MOL0     H 2795   0.824   4.462   1.863 -0.0526 -1.8400  1.5047
   21MOL0     H 2796   0.752   4.432   2.094  0.3331  0.6903  1.9499
   21MOL0     H 2797   0.631   4.273   2.462 -0.3695  4.9359  0.5139
   21MOL0     H 2798   0.677   4.144   2.675  2.0276 -1.9757  1.0332
   21MOL0     H 2799   0.688   4.166   2.898 -0.9824 -0.4925 -2.2323
   21MOL0     H 2800   0.768   4.006   2.863  1.3332 -0.7511  1.1811
   21MOL0     H 2801   0.749   4.010   3.100 -1.4957 -0.3365 -1.8665
   21MOL0     H 2802   0.919   4.056   3.068 -0.8776  0.6143  0.5433
   21MOL0     H 2803   0.835   4.303   3.102 -0.2101  0.2515 -0.2751
   21MOL0     H 2804   0.690   4.220   3.170  0.1334 -1.9008  0.7256
   21MOL0     H 2805   0.982   4.215   3.256 -0.3912 -0.5979  0.1802
   21MOL0     H 2806   0.867   4.091   3.314  1.9440 -0.1575  1.2746
   21MOL0     H 2807   0.718   4.336   3.360  0.8757  1.4650 -0.1732
   21MOL0     H 2808   0.881   4.397   3.349 -3.1857  2.4043 -0.1996
   21MOL0     H 2809   0.771   4.227   3.558 -0.7138  0.8087 -0.1958
   21MOL0     H 2810   0.949   4.220   3.506  0.7371  0.6576 -2.1412
   21MOL0     H 2811   0.808   4.480   3.551 -2.8623 -3.2250 -2.8532
   21MOL0     H 2812   0.977   4.431   3.583  0.0749  0.2755 -0.6414
   21MOL0     H 2813   0.767   4.310   3.762  0.3749  0.8586 -0.0278
   21MOL0     H 2814   0.936   4.346   3.801 -0.8856  2.4006  5.1110
   21MOL0     H 2815   1.036   4.344   2.741 -1.5186  0.6492  1.9800
   21MOL0     H 2816   1.012   4.458   2.521  1.4087 -1.2821  0.0473
   21MOL0     H 2817   1.006   4.753   2.227  2.0436  0.3587 -1.7878
   21MOL0     H 2818   1.057   4.809   2.017 -0.7533  1.2933  0.6243
   21MOL0     H 2819   1.625   4.556   1.475 -0.4197  0.6429  1.7975
   21MOL0     H 2820   1.593   4.602   1.231 -1.8428  0.3708 -2.3453
   21MOL0     H 2821   1.359   5.012   0.949 -0.9553 -0.1290  0.4213
   21MOL0     H 2822   1.422   5.097   0.734 -0.1775  0.2160 -0.2705
   21MOL0     H 2823   1.662   5.109   0.623  0.3773  2.4331 -1.8105
   21MOL0     H 2824   1.516   5.148   0.539  0.5767  1.2084 -4.9525
   21MOL0     H 2825   1.587   5.078   0.312 -1.6597  4.0250  0.2596
   21MOL0     H 2826   1.755   5.043   0.378  1.4100  0.0470  0.4937
   21MOL0     H 2827   1.609   5.317   0.373 -0.6428 -1.1625 -0.6879
   21MOL0     H 2828   1.733   5.262   0.272 -2.4629 -1.0677 -0.9485
   21MOL0     H 2829   1.878   5.369   0.446 -0.0119  1.3978  0.4763
   21MOL0     H 2830   1.751   5.352   0.568 -1.7257 -4.2480  1.1516
   21MOL0     H 2831   2.004   5.033   0.653  0.6616  0.2125  0.1102
   21MOL0     H 2832   1.634   4.721   0.657 -0.0386 -1.0899  0.8900
   21MOL0     H 2833   1.588   4.576   1.001  1.5580 -2.1920  0.6105
   21MOL0     H 2834   1.608   4.546   0.826  2.8931 -0.0476 -0.0569
   21MOL0     H 2835   1.734   4.615   0.908 -0.5701 -2.0159  0.0944
   22MOL0     O 2836   2.452   3.709   1.651 -0.4228 -0.1022 -0.5253
   22MOL0     C 2837   2.370   3.684   1.569 -0.1800  0.3960 -0.4345
   22MOL0     O 2838   2.235   3.657   1.603 -0.0012 -0.7305  0.4514
   22MOL0     C 2839   2.199   3.632   1.727  0.8533  0.1145 -0.6355
   22MOL0     C 2840   2.277   3.573   1.829 -0.3245  1.3355  0.9748
   22MOL0     C 2841   2.204   3.541   1.948 -0.6857  0.2254 -0.1817
   22MOL0     C 2842   2.069   3.579   1.969  0.0754  0.0077  0.2277
   22MOL0     O 2843   1.991   3.546   2.085 -0.6567  0.4410  0.1829
   22MOL0     C 2844   2.032   3.633   2.196 -0.1242  0.1389 -0.3500
   22MOL0     C 2845   1.971   3.599   2.328 -0.3838 -0.6451 -0.2518
   22MOL0     C 2846   2.047   3.483   2.394  0.0851  0.0019  0.1486
   22MOL0     C 2847   1.965   3.417   2.503 -0.5950 -0.3121 -0.3249
   22MOL0     C 2848   2.038   3.308   2.569  0.1791  0.4939 -0.4346
   22MOL0     C 2849   1.980   3.277   2.714  0.3529  0.3172 -0.1595
   22MOL0     C 2850   2.049   3.156   2.773 -0.1019 -0.0441 -0.1408
   22MOL0     C 2851   2.012   3.108   2.912  0.7267  0.5493 -0.0300
   22MOL0     N 2852   1.869   3.123   2.937  0.1297 -0.3735 -0.2204
   22MOL0     C 2853   1.812   3.229   3.011 -0.5092 -0.0982 -0.8147
   22MOL0     C 2854   1.681   3.198   3.024  0.2617 -0.7071  0.6687
   22MOL0     C 2855   1.575   3.261   3.092  0.1915  0.0296 -1.0768
   22MOL0     C 2856   1.450   3.267   2.995  0.7605 -1.2045 -0.7999
   22MOL0     C 2857   1.319   3.275   3.079  0.4094  0.3220 -0.6908
   22MOL0     C 2858   1.296   3.161   3.179  0.3552  0.1368  0.0990
   22MOL0     O 2859   1.336   3.037   3.120  0.2021  0.2157 -0.0014
   22MOL0     C 2860   1.267   2.967   3.020  0.3477 -0.3983  0.0800
   22MOL0     C 2861   1.331   2.874   2.937  0.6182 -0.1667 -0.0136
   22MOL0     C 2862   1.266   2.790   2.852  0.7990 -0.4330  0.0862
   22MOL0     C 2863   1.124   2.791   2.854 -0.8995  1.1908  0.4401
   22MOL0     C 2864   1.044   2.712   2.763  0.1273 -0.2181 -0.4554
   22MOL0     O 2865   0.911   2.727   2.765  0.7433 -0.3395  0.0210
   22MOL0     C 2866   0.846   2.679   2.656  0.9923 -0.2253 -1.0177
   22MOL0     C 2867   0.813   2.772   2.562 -0.2098  0.2148  0.4446
   22MOL0     C 2868   0.738   2.733   2.448 -0.0978  0.0180  0.5374
   22MOL0     C 2869   0.692   2.598   2.436 -0.8741  0.5849 -0.0567
   22MOL0     O 2870   0.624   2.540   2.329 -0.6636 -0.1555 -0.8386
   22MOL0     C 2871   0.569   2.626   2.225  1.7548  0.9357 -0.0820
   22MOL0     C 2872   0.473   2.539   2.132  0.6543 -0.0648  0.4891
   22MOL0     C 2873   0.344   2.479   2.211 -0.1346  0.2860  0.6976
   22MOL0     C 2874   0.292   2.356   2.141 -0.8326  0.6926  0.7039
   22MOL0     C 2875   0.173   2.310   2.224 -0.1946  0.9709 -0.5815
   22MOL0     C 2876   0.101   2.177   2.193 -0.4642 -0.5563  0.6462
   22MOL0     C 2877   0.014   2.183   2.062 -0.4875  0.0919 -1.0329
   22MOL0     C 2878  -0.082   2.060   2.047 -0.5421  1.6532 -1.4440
   22MOL0    Cl 2879  -0.117   2.053   1.875  0.0705 -0.3231  0.1138
   22MOL0     C 2880   0.712   2.515   2.543 -0.4469  0.0251  0.1633
   22MOL0     C 2881   0.789   2.551   2.658  1.1727 -0.6687 -0.7465
   22MOL0     O 2882   1.104   2.626   2.696 -0.1610  0.3969 -0.7628
   22MOL0     C 2883   1.062   2.876   2.940  0.9798 -0.2199 -0.2337
   22MOL0     C 2884   1.129   2.967   3.024  1.3751 -0.1532  1.5729
   22MOL0     N 2885   1.662   3.076   2.964 -0.6399  0.3232 -0.2679
   22MOL0     N 2886   1.768   3.032   2.916 -0.9349  0.1469  0.1902
   22MOL0     C 2887   2.004   3.642   1.871 -1.1778  0.5682 -0.0539
   22MOL0     C 2888   2.069   3.668   1.748  0.0456 -0.7408 -0.3797
   22MOL0     C 2889   2.403   3.676   1.429 -0.5265 -0.7655  0.2433
   22MOL0     C 2890   2.299   3.672   1.331 -0.2818  0.8397 -0.4013
   22MOL0     C 2891   2.321   3.678   1.189 -0.3927  0.0568 -0.6415
   22MOL0     C 2892   2.451   3.695   1.137 -0.4525 -0.4591  0.2170
   22MOL0     O 2893   2.475   3.701   0.996  0.0139  0.6343 -0.4791
   22MOL0     C 2894   2.367   3.755   0.913 -0.8352 -0.8818 -0.3504
   22MOL0     C 2895   2.341   3.902   0.940  0.5798 -0.4691  1.5048
   22MOL0     C 2896   2.213   3.957   0.894  0.1788 -0.2029  0.4744
   22MOL0     C 2897   2.214   4.105   0.894 -0.1999 -0.4821 -0.2982
   22MOL0     C 2898   2.218   4.169   0.763 -0.2060  0.1605  0.5746
   22MOL0     C 2899   2.234   4.214   0.654  0.3851 -0.4199  0.2554
   22MOL0     C 2900   2.560   3.704   1.230  0.2954  0.6492  0.7551
   22MOL0     C 2901   2.537   3.687   1.372  1.3371 -0.0597  0.4310
   22MOL0     C 2902   2.658   3.709   1.455 -0.2227  0.5721 -0.2801
   22MOL0     H 2903   2.382   3.548   1.815 -1.0669 -1.3387 -0.5723
   22MOL0     H 2904   2.247   3.486   2.030  0.0437 -2.7468 -2.3953
   22MOL0     H 2905   2.138   3.653   2.212 -0.4082  0.8918  0.7118
   22MOL0     H 2906   1.995   3.734   2.179 -0.9068 -0.1051 -0.1833
   22MOL0     H 2907   1.867   3.568   2.313  0.3444 -3.8965  0.6764
   22MOL0     H 2908   1.987   3.682   2.398 -0.3421 -1.3363  0.5706
   22MOL0     H 2909   2.139   3.523   2.438 -0.8478  0.5929  1.6595
   22MOL0     H 2910   2.067   3.399   2.327 -1.4484 -2.3123  2.3901
   22MOL0     H 2911   1.966   3.498   2.577 -3.8573  0.4175 -0.9128
   22MOL0     H 2912   1.862   3.388   2.481 -0.7744 -1.5373  1.8450
   22MOL0     H 2913   2.015   3.219   2.510 -3.4768 -0.2183  1.7685
   22MOL0     H 2914   2.147   3.320   2.571  0.3341 -0.7847  0.1110
   22MOL0     H 2915   1.995   3.362   2.781 -2.9038  1.4010 -0.6060
   22MOL0     H 2916   1.872   3.262   2.704 -0.3364  2.2859  3.0016
   22MOL0     H 2917   2.155   3.182   2.775 -0.0873 -0.1340  1.7700
   22MOL0     H 2918   2.037   3.074   2.701  0.9759  0.1621 -0.5731
   22MOL0     H 2919   2.033   3.001   2.924 -4.5066 -0.9692 -1.6248
   22MOL0     H 2920   2.051   3.171   2.992 -0.4756  0.8094  0.3671
   22MOL0     H 2921   1.864   3.304   3.069  3.0438 -5.1911  3.5613
   22MOL0     H 2922   1.551   3.192   3.173  3.7289  0.1567  0.2410
   22MOL0     H 2923   1.610   3.355   3.136 -0.2298 -0.0738 -0.5026
   22MOL0     H 2924   1.463   3.362   2.942  3.2725 -0.2263  1.3136
   22MOL0     H 2925   1.443   3.179   2.930  0.5159 -1.5474 -0.3170
   22MOL0     H 2926   1.232   3.269   3.013 -1.5166  3.4508  1.3017
   22MOL0     H 2927   1.313   3.372   3.128  0.1406  0.0515 -0.1773
   22MOL0     H 2928   1.194   3.163   3.220  0.6193  0.3889  0.7634
   22MOL0     H 2929   1.354   3.168   3.272 -0.0071  4.5409  0.1888
   22MOL0     H 2930   1.438   2.890   2.943  0.4091  1.5057 -0.2640
   22MOL0     H 2931   1.326   2.746   2.772  3.4558 -0.2492  1.8706
   22MOL0     H 2932   0.850   2.874   2.570  3.0924 -0.5977 -2.0562
   22MOL0     H 2933   0.724   2.801   2.364  2.0575  1.2524  1.0972
   22MOL0     H 2934   0.515   2.715   2.259  1.0627  0.3359  0.4152
   22MOL0     H 2935   0.650   2.675   2.171  0.8962  3.8835  1.1188
   22MOL0     H 2936   0.437   2.590   2.042  0.3568 -1.9672 -0.5231
   22MOL0     H 2937   0.530   2.452   2.098 -0.2555 -0.5938  0.2848
   22MOL0     H 2938   0.375   2.452   2.313  2.2504 -2.6334 -0.6373
   22MOL0     H 2939   0.271   2.559   2.218 -0.3828 -0.0087  1.5917
   22MOL0     H 2940   0.364   2.277   2.162  2.2296  3.2325  0.4965
   22MOL0     H 2941   0.271   2.377   2.036 -0.7928 -0.7390  0.3961
   22MOL0     H 2942   0.097   2.389   2.221  1.2834  2.4341 -3.0780
   22MOL0     H 2943   0.210   2.296   2.325 -0.5109 -0.8464 -0.6944
   22MOL0     H 2944   0.172   2.094   2.195 -2.3484 -2.2534  2.0474
   22MOL0     H 2945   0.037   2.163   2.281  0.6901  0.7961  1.7310
   22MOL0     H 2946   0.076   2.192   1.973 -0.9475 -1.2471 -1.5060
   22MOL0     H 2947  -0.048   2.273   2.064  0.9189  1.0884 -1.1083
   22MOL0     H 2948  -0.012   1.978   2.065 -0.6633  1.6713 -0.8745
   22MOL0     H 2949  -0.164   2.044   2.118  0.0685  0.0123 -1.0379
   22MOL0     H 2950   0.665   2.417   2.541 -1.3054  0.4385 -2.0475
   22MOL0     H 2951   0.805   2.485   2.742  2.2171  0.8251  0.2795
   22MOL0     H 2952   0.954   2.885   2.933  0.8201 -0.3337  1.5011
   22MOL0     H 2953   1.069   3.025   3.093 -0.1501 -1.4040  1.3501
   22MOL0     H 2954   1.899   3.666   1.882 -2.2481 -2.7557 -1.7501
   22MOL0     H 2955   2.009   3.721   1.675  2.1376  0.1264 -1.5532
   22MOL0     H 2956   2.198   3.649   1.364  0.0882  0.7038  0.6658
   22MOL0     H 2957   2.236   3.654   1.126 -1.1176  2.3146 -0.6165
   22MOL0     H 2958   2.268   3.711   0.928 -3.0517  2.9991 -2.0400
   22MOL0     H 2959   2.387   3.740   0.807 -0.6842  1.0005 -0.6125
   22MOL0     H 2960   2.427   3.950   0.891 -0.4603  2.8679  2.6652
   22MOL0     H 2961   2.348   3.915   1.048 -0.4951  0.0301  1.5250
   22MOL0     H 2962   2.132   3.917   0.957 -0.2580  0.9501  0.6650
   22MOL0     H 2963   2.205   3.922   0.791 -0.0172 -1.5412  0.9214
   22MOL0     H 2964   2.124   4.140   0.946 -0.3868  0.1906 -1.0624
   22MOL0     H 2965   2.302   4.144   0.947  0.0086 -1.0930 -0.1884
   22MOL0     H 2966   2.245   4.259   0.558 -1.0090 -0.7954 -0.1029
   22MOL0     H 2967   2.661   3.696   1.193 -1.1876 -0.9570 -3.5509
   22MOL0     H 2968   2.751   3.704   1.398 -0.4704  0.2996 -0.6661
   22MOL0     H 2969   2.663   3.803   1.510 -1.1139  0.7934 -0.5672
   22MOL0     H 2970   2.660   3.636   1.537 -2.4574 -1.7721 -2.1447
   23MOL0     O 2971  11.443  10.630   7.814 -0.0065 -0.3094  0.1301
   23MOL0     C 2972  11.546  10.672   7.874  0.4311  0.5425 -0.5772
   23MOL0     O 2973  11.575  10.804   7.908  0.1383 -0.5950  0.1017
   23MOL0     C 2974  11.525  10.902   7.834  0.4216 -0.5354  0.0706
   23MOL0     C 2975  11.471  11.011   7.895  0.2382  0.4980 -0.4398
   23MOL0     C 2976  11.412  11.121   7.830 -1.0761 -0.0595 -0.1749
   23MOL0     C 2977  11.406  11.124   7.694  0.1008  0.0767 -0.8375
   23MOL0     O 2978  11.355  11.234   7.632 -0.2453 -0.4114  0.1778
   23MOL0     C 2979  11.322  11.223   7.495  0.5424  0.7412  0.2456
   23MOL0     C 2980  11.220  11.329   7.448  0.3348  0.3219  0.8151
   23MOL0     C 2981  11.175  11.290   7.306  0.6632 -0.6516  1.1068
   23MOL0     C 2982  11.057  11.186   7.310 -0.2890  0.4872  0.4966
   23MOL0     C 2983  11.005  11.132   7.174 -0.5627  0.5816 -0.2308
   23MOL0     C 2984  11.117  11.054   7.089  0.7036 -0.1226  0.3109
   23MOL0     C 2985  11.165  10.925   7.152  0.5095 -0.1988  0.6479
   23MOL0     C 2986  11.324  10.924   7.154  0.4550  0.0571  0.0746
   23MOL0     N 2987  11.378  10.907   7.021  0.2485 -1.0475  0.4384
   23MOL0     C 2988  11.436  11.018   6.956 -0.2183 -0.8455  0.2366
   23MOL0     C 2989  11.435  10.982   6.827 -0.2157 -0.4156 -0.0686
   23MOL0     C 2990  11.488  11.063   6.704  0.0219 -0.1005 -0.2720
   23MOL0     C 2991  11.476  11.014   6.557  0.1434  0.6683 -0.0974
   23MOL0     C 2992  11.560  11.084   6.455  0.5542 -0.3687 -0.4860
   23MOL0     C 2993  11.530  11.015   6.312 -1.2193 -0.6393  0.3122
   23MOL0     O 2994  11.619  11.051   6.209 -0.3808  0.7928  0.1926
   23MOL0     C 2995  11.748  11.017   6.224  0.0605 -0.1561 -0.2728
   23MOL0     C 2996  11.831  11.080   6.137  0.7101 -0.1458 -0.0298
   23MOL0     C 2997  11.967  11.043   6.115 -0.3535  0.0007 -1.2402
   23MOL0     C 2998  12.018  10.940   6.197 -0.7800  0.1106 -0.6818
   23MOL0     C 2999  12.157  10.906   6.188 -0.0702 -0.1710  0.3428
   23MOL0     O 3000  12.196  10.775   6.216 -0.1501 -0.0289 -1.1693
   23MOL0     C 3001  12.327  10.737   6.174 -0.6074 -0.4495 -0.7928
   23MOL0     C 3002  12.449  10.794   6.218  0.3748 -0.0766 -0.2571
   23MOL0     C 3003  12.574  10.769   6.155 -0.3895  0.8061 -0.0558
   23MOL0     C 3004  12.585  10.703   6.035  0.7410 -0.3732  0.1986
   23MOL0     O 3005  12.702  10.666   5.968 -0.7845  0.5756  0.4093
   23MOL0     C 3006  12.826  10.744   6.006  0.5610  0.1462 -0.5344
   23MOL0     C 3007  12.953  10.691   5.931 -1.5523 -0.4763  0.3515
   23MOL0     C 3008  12.933  10.640   5.786 -0.5005 -0.1399 -0.3728
   23MOL0     C 3009  13.070  10.571   5.740  1.1086  0.5506  0.2652
   23MOL0     C 3010  13.073  10.547   5.591 -0.3391 -0.8953  0.5867
   23MOL0     C 3011  12.989  10.430   5.549  0.0539 -0.7909  0.9518
   23MOL0     C 3012  13.017  10.386   5.412 -0.5046 -0.3770  0.6175
   23MOL0     C 3013  12.956  10.491   5.310 -0.1932  0.5865 -0.2307
   23MOL0    Cl 3014  12.973  10.417   5.153 -0.1341 -0.1706  0.0378
   23MOL0     C 3015  12.462  10.648   5.989  0.1126 -0.0277  0.1661
   23MOL0     C 3016  12.344  10.661   6.056  0.0681  0.2457  0.0358
   23MOL0     O 3017  12.235  10.993   6.149  0.3875 -0.3490  0.3490
   23MOL0     C 3018  11.940  10.876   6.297 -0.2831  0.1914 -0.0105
   23MOL0     C 3019  11.805  10.902   6.298  0.6092 -0.6166 -0.1241
   23MOL0     N 3020  11.381  10.860   6.814 -0.3815 -0.9702 -0.4502
   23MOL0     N 3021  11.345  10.816   6.927  0.3549  0.3105 -1.0311
   23MOL0     C 3022  11.468  11.020   7.623  0.6483 -0.4599 -0.1664
   23MOL0     C 3023  11.536  10.920   7.692 -0.5941 -0.2469  0.8091
   23MOL0     C 3024  11.639  10.557   7.901  0.2962 -0.0321  0.4852
   23MOL0     C 3025  11.732  10.525   7.808  0.3207  0.0274  0.1268
   23MOL0     C 3026  11.823  10.417   7.842 -0.2661 -0.0338 -0.2338
   23MOL0     C 3027  11.834  10.358   7.966 -0.0613  0.5797 -0.4068
   23MOL0     O 3028  11.954  10.288   7.993 -0.2597 -0.2205  0.1157
   23MOL0     C 3029  11.971  10.237   8.127 -0.0171 -0.1399  0.2717
   23MOL0     C 3030  11.891  10.107   8.146 -0.2136  0.1785  0.3788
   23MOL0     C 3031  11.916  10.037   8.280 -0.5359  0.6286 -0.6193
   23MOL0     C 3032  11.830   9.908   8.299  0.7892  0.0751  0.0108
   23MOL0     C 3033  11.914   9.794   8.277 -0.3131 -0.2547  0.0111
   23MOL0     C 3034  11.976   9.703   8.253  0.5088  0.1512  0.5784
   23MOL0     C 3035  11.734  10.391   8.053 -0.5891  0.5695 -0.2573
   23MOL0     C 3036  11.636  10.492   8.025 -0.5886  0.7334 -0.4850
   23MOL0     C 3037  11.528  10.525   8.134  0.0582 -0.0002  0.0275
   23MOL0     H 3038  11.468  11.011   8.003 -4.4870  0.4681 -0.3786
   23MOL0     H 3039  11.372  11.198   7.895 -3.2011 -0.4423 -0.9617
   23MOL0     H 3040  11.414  11.249   7.442  1.1211  1.8927  1.7596
   23MOL0     H 3041  11.274  11.127   7.477 -0.4170  0.9441  1.5738
   23MOL0     H 3042  11.279  11.421   7.442  0.4249  0.3010  1.2945
   23MOL0     H 3043  11.129  11.358   7.502 -2.8814  0.0581 -3.9214
   23MOL0     H 3044  11.261  11.250   7.251 -1.2092  0.7965 -3.4126
   23MOL0     H 3045  11.151  11.379   7.247  2.7550 -0.2344  0.8222
   23MOL0     H 3046  11.090  11.100   7.369  4.5305  1.8431  0.1213
   23MOL0     H 3047  10.975  11.224   7.372 -0.8270 -1.3753  0.9958
   23MOL0     H 3048  10.927  11.058   7.194 -0.2186  0.9536  2.9839
   23MOL0     H 3049  10.959  11.216   7.121 -0.1183  0.6010 -0.6000
   23MOL0     H 3050  11.067  11.041   6.992 -2.7572  1.2785  1.7555
   23MOL0     H 3051  11.207  11.114   7.067  0.1434  0.9979  1.0130
   23MOL0     H 3052  11.122  10.839   7.100  0.2003  0.4884 -0.2621
   23MOL0     H 3053  11.128  10.906   7.253  0.9913  0.9986  1.0692
   23MOL0     H 3054  11.369  11.007   7.209 -2.9530  0.2296  3.0410
   23MOL0     H 3055  11.345  10.834   7.214 -2.0224  1.1253  2.8165
   23MOL0     H 3056  11.469  11.110   7.003 -0.9764 -0.5922  0.2981
   23MOL0     H 3057  11.424  11.151   6.699  0.9781  0.6067 -0.3125
   23MOL0     H 3058  11.585  11.109   6.723 -0.8525  2.6939 -2.0250
   23MOL0     H 3059  11.521  10.914   6.561  0.0819  0.6611  0.5665
   23MOL0     H 3060  11.372  11.012   6.522 -0.2101  0.9274  0.9058
   23MOL0     H 3061  11.664  11.070   6.485 -0.0237  0.2792  2.0149
   23MOL0     H 3062  11.532  11.189   6.457 -0.3290 -0.4600 -3.4955
   23MOL0     H 3063  11.427  11.046   6.290 -0.7171  0.8194 -0.1516
   23MOL0     H 3064  11.521  10.907   6.320  2.9527 -1.0858  1.3981
   23MOL0     H 3065  11.795  11.160   6.073 -1.6698  1.4382  3.0243
   23MOL0     H 3066  12.033  11.109   6.059  0.3368 -3.0137 -4.3173
   23MOL0     H 3067  12.444  10.850   6.311  1.2558 -0.4999  0.0501
   23MOL0     H 3068  12.657  10.810   6.212 -0.1124 -0.0910  0.1978
   23MOL0     H 3069  12.811  10.852   6.000  0.5125  0.1995  0.4482
   23MOL0     H 3070  12.845  10.714   6.109  2.8591 -2.4232 -1.5834
   23MOL0     H 3071  13.027  10.772   5.931 -1.4614 -0.5379 -0.6876
   23MOL0     H 3072  12.999  10.612   5.991 -0.3622  0.2168  0.3841
   23MOL0     H 3073  12.847  10.574   5.770 -1.3817  0.5262  1.4459
   23MOL0     H 3074  12.919  10.730   5.725 -2.0127  0.6748  1.1030
   23MOL0     H 3075  13.084  10.482   5.802 -1.5529 -0.1632  0.0045
   23MOL0     H 3076  13.151  10.638   5.768 -1.1333  2.9454  1.5469
   23MOL0     H 3077  13.173  10.531   5.548 -1.6302 -1.9401 -2.2777
   23MOL0     H 3078  13.035  10.641   5.552  2.9378  0.9502  1.4933
   23MOL0     H 3079  13.021  10.350   5.616  1.1698 -1.5888 -0.4609
   23MOL0     H 3080  12.886  10.464   5.561  0.5898  1.1066  0.5801
   23MOL0     H 3081  12.964  10.292   5.398 -2.5679  1.1732 -3.6026
   23MOL0     H 3082  13.123  10.363   5.395 -0.3301  0.8843 -0.1086
   23MOL0     H 3083  12.849  10.499   5.332  0.0376 -1.5336  2.1098
   23MOL0     H 3084  13.010  10.586   5.315 -0.1541  0.5161  1.3772
   23MOL0     H 3085  12.453  10.593   5.896 -0.9118 -3.1645  1.9707
   23MOL0     H 3086  12.252  10.608   6.033  0.0437  0.0180  0.6372
   23MOL0     H 3087  11.965  10.789   6.357 -1.0030 -1.0015 -1.3969
   23MOL0     H 3088  11.733  10.836   6.346  0.4040  0.4147  1.0541
   23MOL0     H 3089  11.469  11.028   7.514  0.4359  3.1233 -0.0275
   23MOL0     H 3090  11.592  10.844   7.638  0.7607  0.4666  1.1559
   23MOL0     H 3091  11.736  10.571   7.710 -1.4573 -2.6674 -1.3297
   23MOL0     H 3092  11.902  10.394   7.771 -1.4831  1.6568 -2.2716
   23MOL0     H 3093  11.934  10.310   8.199  3.3203 -0.3619  2.4259
   23MOL0     H 3094  12.077  10.215   8.146  0.1752 -0.1751 -0.7949
   23MOL0     H 3095  11.936  10.037   8.075 -2.1171  1.0086 -1.7807
   23MOL0     H 3096  11.783  10.122   8.135  0.0478  2.4328  0.3035
   23MOL0     H 3097  11.889  10.111   8.356 -0.3571 -0.4241  0.4976
   23MOL0     H 3098  12.022  10.019   8.301 -0.6368  1.0719  0.2916
   23MOL0     H 3099  11.799   9.895   8.403  2.1860 -1.9880  0.2256
   23MOL0     H 3100  11.742   9.919   8.236 -0.4578  0.4462  1.7270
   23MOL0     H 3101  12.030   9.615   8.223  1.7266 -0.1373  3.3116
   23MOL0     H 3102  11.735  10.338   8.148 -2.9617 -1.7279 -1.3418
   23MOL0     H 3103  11.533  10.458   8.221 -0.0067 -0.4256 -0.2970
   23MOL0     H 3104  11.524  10.632   8.156  0.8853  0.0697 -0.1052
   23MOL0     H 3105  11.430  10.506   8.091  0.5517  1.6956 -2.0124
   24MOL0     O 3106  10.867  10.394  11.383 -0.0397 -0.0591  0.6686
   24MOL0     C 3107  10.972  10.433  11.327  0.2972  0.0007 -0.6862
   24MOL0     O 3108  10.985  10.455  11.190  0.0843 -0.4766 -0.0003
   24MOL0     C 3109  10.922  10.359  11.107  1.1069 -0.1743 -0.7453
   24MOL0     C 3110  10.890  10.228  11.138  0.5368 -0.1545  0.4147
   24MOL0     C 3111  10.836  10.141  11.041  0.2880 -0.3592 -0.1593
   24MOL0     C 3112  10.820  10.186  10.912  0.4146 -0.7633 -0.0956
   24MOL0     O 3113  10.753  10.095  10.839 -0.5857 -0.0325  1.3465
   24MOL0     C 3114  10.679  10.136  10.715  0.7089  0.5698  0.3893
   24MOL0     C 3115  10.589  10.015  10.681 -0.0977 -0.0032  0.8416
   24MOL0     C 3116  10.537  10.016  10.532  0.2027  0.1587  0.5698
   24MOL0     C 3117  10.645  10.006  10.417 -0.5451  0.3079  0.8546
   24MOL0     C 3118  10.714   9.876  10.414  1.2413  0.7542 -0.0215
   24MOL0     C 3119  10.630   9.743  10.396  0.5261  1.0761 -0.2068
   24MOL0     C 3120  10.700   9.618  10.454 -0.7285  0.7835  0.3455
   24MOL0     C 3121  10.685   9.591  10.598 -1.2164 -0.0297  0.4249
   24MOL0     N 3122  10.554   9.532  10.632 -0.3691  0.2829 -0.4202
   24MOL0     C 3123  10.518   9.400  10.623 -0.0729  0.2768 -0.4538
   24MOL0     C 3124  10.387   9.392  10.651 -0.1902  1.3051  0.0772
   24MOL0     C 3125  10.292   9.280  10.690  0.0190 -0.2368 -0.8594
   24MOL0     C 3126  10.273   9.177  10.582  0.7728 -0.1669 -0.2845
   24MOL0     C 3127  10.200   9.247  10.466 -0.0418 -0.1062  0.2145
   24MOL0     C 3128  10.150   9.156  10.351  0.2896 -0.1324  0.0358
   24MOL0     O 3129  10.264   9.080  10.285 -0.0983  0.1932 -0.1310
   24MOL0     C 3130  10.350   9.149  10.212  0.9743  0.0257  0.0738
   24MOL0     C 3131  10.458   9.218  10.270 -0.3467 -1.2673 -0.1401
   24MOL0     C 3132  10.536   9.311  10.199 -1.4386  0.7924 -0.4544
   24MOL0     C 3133  10.514   9.334  10.064 -0.1913  1.0524 -0.4778
   24MOL0     C 3134  10.614   9.400   9.979  0.6735 -0.1754 -0.1663
   24MOL0     O 3135  10.584   9.405   9.848  0.0187  0.2395  0.5527
   24MOL0     C 3136  10.674   9.466   9.769 -0.6864  0.7397  0.7246
   24MOL0     C 3137  10.690   9.600   9.773  0.2600  1.0285 -0.8003
   24MOL0     C 3138  10.776   9.660   9.689 -0.5630  0.0704 -0.4792
   24MOL0     C 3139  10.849   9.585   9.589  0.5530 -0.0060 -0.1484
   24MOL0     O 3140  10.945   9.649   9.522 -0.3949  0.7561  0.0175
   24MOL0     C 3141  11.013   9.565   9.423  0.3457 -1.0122  0.4650
   24MOL0     C 3142  11.126   9.666   9.359 -0.8747  0.4892  0.4133
   24MOL0     C 3143  11.067   9.789   9.280 -0.1594  0.5586 -0.1200
   24MOL0     C 3144  11.013   9.742   9.145 -0.4017  0.5632  0.0019
   24MOL0     C 3145  10.966   9.867   9.056  0.4185  0.0905 -0.4662
   24MOL0     C 3146  10.847   9.947   9.116 -0.3060  0.7777 -0.5948
   24MOL0     C 3147  10.726   9.866   9.145 -0.7619 -0.2992 -0.3386
   24MOL0     C 3148  10.606   9.941   9.204 -0.9771  0.1509 -0.2229
   24MOL0    Cl 3149  10.528  10.039   9.078  0.3441 -0.0782 -0.3214
   24MOL0     C 3150  10.823   9.448   9.580 -0.6505  0.2254 -0.1413
   24MOL0     C 3151  10.737   9.395   9.670 -0.1470  0.4518  0.0080
   24MOL0     O 3152  10.712   9.453  10.028 -0.6083  0.5689 -0.3515
   24MOL0     C 3153  10.412   9.254  10.005  0.2499  0.6745 -0.0395
   24MOL0     C 3154  10.332   9.177  10.076  1.2993 -0.1219 -0.4913
   24MOL0     N 3155  10.340   9.514  10.692  0.0430 -0.0665  0.0843
   24MOL0     N 3156  10.438   9.593  10.674 -0.6318 -0.0105  0.5888
   24MOL0     C 3157  10.844  10.318  10.879 -0.2468 -0.2067 -0.3586
   24MOL0     C 3158  10.901  10.402  10.977 -1.0893 -0.1656  0.8481
   24MOL0     C 3159  11.093  10.479  11.411 -0.1099  0.2890  0.7395
   24MOL0     C 3160  11.178  10.561  11.347 -0.5151 -1.0741 -0.9050
   24MOL0     C 3161  11.277  10.633  11.418  0.0648 -0.3152 -0.2584
   24MOL0     C 3162  11.299  10.605  11.548 -0.4858  0.9565 -0.6835
   24MOL0     O 3163  11.418  10.659  11.594 -0.3862  0.1113  0.6489
   24MOL0     C 3164  11.453  10.661  11.726  0.5722 -0.2262 -0.4230
   24MOL0     C 3165  11.587  10.723  11.750 -1.0731 -0.0960  0.3353
   24MOL0     C 3166  11.697  10.655  11.653  0.1440 -0.4628  0.3999
   24MOL0     C 3167  11.834  10.668  11.708 -1.0035 -0.6655 -0.0895
   24MOL0     C 3168  11.903  10.797  11.677 -0.5362  0.4769  0.0404
   24MOL0     C 3169  11.972  10.897  11.682  0.9110 -0.0699 -0.2106
   24MOL0     C 3170  11.219  10.517  11.611  0.0185  1.0150 -0.7222
   24MOL0     C 3171  11.117  10.449  11.546  0.7610 -0.5458  0.4443
   24MOL0     C 3172  11.038  10.357  11.627  0.2161 -0.3729 -0.5587
   24MOL0     H 3173  10.910  10.186  11.236  1.5746 -2.2712 -0.6441
   24MOL0     H 3174  10.809  10.037  11.060  0.3954 -0.8991 -2.6750
   24MOL0     H 3175  10.613  10.219  10.741 -0.7279 -0.7942  1.2861
   24MOL0     H 3176  10.742  10.159  10.629 -1.6753  0.2444 -1.5521
   24MOL0     H 3177  10.503  10.021  10.749 -0.9007  0.8677 -0.2254
   24MOL0     H 3178  10.651   9.925  10.684 -1.4956 -1.2536 -2.5856
   24MOL0     H 3179  10.491  10.115  10.527 -1.2959 -0.5473 -0.0958
   24MOL0     H 3180  10.459   9.943  10.513 -0.6614  1.1087  0.3552
   24MOL0     H 3181  10.586  10.019  10.327 -1.5532 -2.1417  1.0959
   24MOL0     H 3182  10.713  10.088  10.442 -0.2358  0.0999  0.7027
   24MOL0     H 3183  10.787   9.882  10.333  1.6757 -0.2806  0.2814
   24MOL0     H 3184  10.770   9.858  10.507 -1.3264 -2.0647  1.1502
   24MOL0     H 3185  10.534   9.748  10.449  0.1035  2.6172 -1.0359
   24MOL0     H 3186  10.618   9.718  10.290 -2.6089 -1.3828  0.5676
   24MOL0     H 3187  10.801   9.621  10.413  0.4451 -2.2647  2.6915
   24MOL0     H 3188  10.651   9.539  10.395  0.8836  0.2332 -0.3138
   24MOL0     H 3189  10.766   9.522  10.625 -1.7648 -1.0796 -0.5163
   24MOL0     H 3190  10.701   9.685  10.653 -0.6645  0.3977 -0.4368
   24MOL0     H 3191  10.578   9.310  10.611  0.2662 -0.1895  3.5397
   24MOL0     H 3192  10.336   9.247  10.785  0.5161  1.6413 -0.3927
   24MOL0     H 3193  10.194   9.315  10.722  1.0732  4.0607 -1.6326
   24MOL0     H 3194  10.359   9.113  10.559 -0.7211 -2.0102 -0.9927
   24MOL0     H 3195  10.200   9.104  10.620 -0.6592  0.8297 -1.0236
   24MOL0     H 3196  10.262   9.327  10.425  0.8453  0.0020  1.7098
   24MOL0     H 3197  10.112   9.300  10.503 -0.6244  0.6654 -2.0801
   24MOL0     H 3198  10.114   9.223  10.273  0.8597 -1.9784 -1.9150
   24MOL0     H 3199  10.059   9.102  10.381 -1.8035  4.0611  2.0854
   24MOL0     H 3200  10.481   9.218  10.376  1.9575 -0.0694 -0.5655
   24MOL0     H 3201  10.617   9.364  10.249 -2.2213  1.0035  0.6303
   24MOL0     H 3202  10.644   9.665   9.847 -1.1561 -1.8510  1.0548
   24MOL0     H 3203  10.802   9.764   9.705 -1.2146  0.4989 -2.0012
   24MOL0     H 3204  11.074   9.482   9.459 -1.8064 -2.9613 -0.1171
   24MOL0     H 3205  10.945   9.520   9.350 -1.0163 -1.5223  1.9832
   24MOL0     H 3206  11.178   9.710   9.444 -1.6217  0.3277  0.9683
   24MOL0     H 3207  11.204   9.621   9.297  1.7226  2.8177  1.7995
   24MOL0     H 3208  10.993   9.841   9.341 -0.8365 -1.8285  1.2399
   24MOL0     H 3209  11.150   9.857   9.261  0.0060  0.5527  0.5508
   24MOL0     H 3210  10.942   9.659   9.152  0.2162  0.1745  2.5328
   24MOL0     H 3211  11.094   9.704   9.082  1.7792  1.5661  2.0867
   24MOL0     H 3212  10.935   9.839   8.955 -0.6589  1.2680 -0.4859
   24MOL0     H 3213  11.047   9.939   9.039 -0.3696  0.9770 -0.5050
   24MOL0     H 3214  10.874  10.013   9.199  1.1509 -1.9092  1.1910
   24MOL0     H 3215  10.808  10.018   9.042  1.2953  2.9546  0.5565
   24MOL0     H 3216  10.757   9.785   9.212 -2.2976 -2.6791 -2.3303
   24MOL0     H 3217  10.686   9.813   9.059  0.8581 -1.5231 -0.3836
   24MOL0     H 3218  10.536   9.869   9.247  1.8640 -2.1449  0.9016
   24MOL0     H 3219  10.649  10.004   9.282 -1.5442 -1.5415  1.5261
   24MOL0     H 3220  10.864   9.386   9.502  0.2054  1.9290 -1.0990
   24MOL0     H 3221  10.718   9.289   9.668  0.8926  0.2290  0.8793
   24MOL0     H 3222  10.392   9.264   9.898  0.0904 -0.7421 -0.1598
   24MOL0     H 3223  10.240   9.136  10.036 -0.8979  1.7908  2.2840
   24MOL0     H 3224  10.834  10.357  10.778 -0.8190 -0.4813 -0.4151
   24MOL0     H 3225  10.937  10.501  10.954  1.8304 -1.6272 -1.4964
   24MOL0     H 3226  11.179  10.580  11.240 -2.2100  4.2659 -0.2829
   24MOL0     H 3227  11.341  10.700  11.363  0.0132 -0.4739 -0.5143
   24MOL0     H 3228  11.468  10.556  11.756 -1.7499 -0.9919 -1.6676
   24MOL0     H 3229  11.378  10.709  11.790 -0.0011  1.3992 -2.2389
   24MOL0     H 3230  11.620  10.724  11.854  1.5149 -0.5280 -0.4086
   24MOL0     H 3231  11.573  10.826  11.717 -1.3632  0.2239  1.4181
   24MOL0     H 3232  11.702  10.713  11.560  2.3072 -0.3090  0.5600
   24MOL0     H 3233  11.667  10.550  11.646 -1.4503  0.0271 -1.1066
   24MOL0     H 3234  11.841  10.661  11.817  0.2589 -2.2445 -0.2292
   24MOL0     H 3235  11.898  10.587  11.672  0.4356  1.1848 -1.9844
   24MOL0     H 3236  12.031  10.986  11.690 -2.4042  2.2512  0.4258
   24MOL0     H 3237  11.242  10.492  11.715 -1.4181  2.1159 -0.1111
   24MOL0     H 3238  10.963  10.409  11.687  0.5872  0.8132 -1.0983
   24MOL0     H 3239  11.004  10.280  11.556  1.6590  0.3413 -2.1094
   24MOL0     H 3240  11.103  10.307  11.700 -0.0574  0.8874  0.5918
   25MOL0     O 3241  11.191  10.829   2.131  0.2589  0.1444 -0.1728
   25MOL0     C 3242  11.151  10.714   2.098 -0.9833 -0.2997  1.0379
   25MOL0     O 3243  11.154  10.607   2.177 -0.0550 -0.0541  0.5565
   25MOL0     C 3244  11.207  10.606   2.304 -0.6743  0.2820  0.4757
   25MOL0     C 3245  11.330  10.661   2.334  0.2382  0.2070  0.5390
   25MOL0     C 3246  11.371  10.664   2.463  0.1838  0.4353 -0.2703
   25MOL0     C 3247  11.285  10.608   2.563  0.3583 -0.0913  0.2975
   25MOL0     O 3248  11.320  10.609   2.698  0.5787 -0.2770  0.1752
   25MOL0     C 3249  11.434  10.542   2.733 -0.9189 -0.4084 -0.5456
   25MOL0     C 3250  11.453  10.583   2.884 -0.0877  0.3755 -0.7382
   25MOL0     C 3251  11.549  10.687   2.920  0.6002 -0.1842 -0.4300
   25MOL0     C 3252  11.498  10.797   3.025 -0.6662  0.3220  0.5798
   25MOL0     C 3253  11.609  10.889   3.080 -0.0145  0.0038  0.5130
   25MOL0     C 3254  11.702  10.833   3.184 -2.1378  0.1394  0.1546
   25MOL0     C 3255  11.804  10.932   3.229  0.2569  0.1000 -0.5515
   25MOL0     C 3256  11.894  10.871   3.342 -0.3637  0.5926  0.0484
   25MOL0     N 3257  12.007  10.957   3.374 -0.3365  0.5003  0.6130
   25MOL0     C 3258  12.101  10.981   3.280 -0.1433  0.1182  0.3948
   25MOL0     C 3259  12.174  11.087   3.330 -0.3493 -0.2379  0.3906
   25MOL0     C 3260  12.307  11.129   3.286  0.0649  0.2920 -0.3358
   25MOL0     C 3261  12.327  11.261   3.209 -0.7034 -0.1394 -0.3745
   25MOL0     C 3262  12.478  11.280   3.181  0.4357 -0.4185  0.1527
   25MOL0     C 3263  12.495  11.399   3.083  1.6643  1.2006  0.1914
   25MOL0     O 3264  12.628  11.407   3.040 -0.3112  0.2444 -0.0800
   25MOL0     C 3265  12.669  11.510   2.951 -0.3705  0.4775  0.0015
   25MOL0     C 3266  12.596  11.628   2.931  0.0873  1.1881  0.7311
   25MOL0     C 3267  12.622  11.741   2.840  0.2205 -0.0839 -0.3764
   25MOL0     C 3268  12.746  11.733   2.772  2.1097 -0.0914 -0.2519
   25MOL0     C 3269  12.794  11.836   2.682  0.7482  0.1174 -0.7515
   25MOL0     O 3270  12.741  11.956   2.696 -0.4878  0.8802  0.1918
   25MOL0     C 3271  12.728  12.039   2.582  0.2250 -0.6796  0.4064
   25MOL0     C 3272  12.739  12.178   2.591 -0.1899  0.5069 -0.4017
   25MOL0     C 3273  12.697  12.263   2.488 -0.3950 -0.6735 -0.2958
   25MOL0     C 3274  12.646  12.209   2.369 -0.2341 -0.3785  0.0158
   25MOL0     O 3275  12.616  12.285   2.263 -0.0963 -0.4101  0.7742
   25MOL0     C 3276  12.711  12.387   2.218 -0.0300 -0.6333  0.2265
   25MOL0     C 3277  12.720  12.378   2.064 -1.3872  0.1757  0.5574
   25MOL0     C 3278  12.827  12.270   2.016  0.4188 -0.1093  0.0160
   25MOL0     C 3279  12.780  12.121   2.020  0.0967 -1.0519  0.1869
   25MOL0     C 3280  12.876  12.012   1.979 -0.4091 -0.1491 -0.4849
   25MOL0     C 3281  12.975  11.983   2.096  0.2180 -0.4387  0.2962
   25MOL0     C 3282  13.087  11.889   2.055 -0.6121  0.0683  0.1244
   25MOL0     C 3283  13.191  11.861   2.159 -0.2360  0.3104  0.4015
   25MOL0    Cl 3284  13.124  11.795   2.306  0.1958  0.1650 -0.0731
   25MOL0     C 3285  12.620  12.075   2.362  0.2531  0.5090 -0.2344
   25MOL0     C 3286  12.663  11.989   2.460  0.2150 -0.1918  0.5121
   25MOL0     O 3287  12.865  11.798   2.590  0.3947  0.8965  0.1575
   25MOL0     C 3288  12.827  11.618   2.794  0.0766 -0.3392 -0.2096
   25MOL0     C 3289  12.789  11.518   2.890  0.2604  0.2386  0.5142
   25MOL0     N 3290  12.120  11.122   3.451 -0.5877  0.1784  0.1718
   25MOL0     N 3291  12.018  11.045   3.478  0.3648 -1.5590  0.3257
   25MOL0     C 3292  11.160  10.573   2.530  0.6058 -0.0317 -0.2086
   25MOL0     C 3293  11.122  10.570   2.403 -0.1624  1.0994  0.1315
   25MOL0     C 3294  11.123  10.703   1.953  0.4171 -1.0389  0.4086
   25MOL0     C 3295  11.159  10.584   1.882 -0.5618  0.2725  0.8867
   25MOL0     C 3296  11.119  10.575   1.745 -0.3609  0.3809  0.2927
   25MOL0     C 3297  11.071  10.685   1.668 -0.3875 -0.5582  0.2004
   25MOL0     O 3298  11.047  10.690   1.532 -1.0968 -0.0223 -0.2112
   25MOL0     C 3299  11.038  10.560   1.462  0.1460 -0.8231  0.2395
   25MOL0     C 3300  11.005  10.583   1.315 -0.4034  0.4459 -0.2502
   25MOL0     C 3301  10.885  10.496   1.255  0.2481  0.5154 -0.1122
   25MOL0     C 3302  10.740  10.544   1.281  1.0021  0.0270  0.0558
   25MOL0     C 3303  10.706  10.537   1.424  0.5816 -0.7726  0.3478
   25MOL0     C 3304  10.661  10.528   1.539 -0.8002  0.1436  0.4272
   25MOL0     C 3305  11.052  10.800   1.741 -0.5443  0.1957 -0.1326
   25MOL0     C 3306  11.058  10.807   1.884  0.2306  0.0461 -0.0214
   25MOL0     C 3307  10.999  10.927   1.948 -0.0996  0.6135  0.7091
   25MOL0     H 3308  11.392  10.707   2.258 -0.8341 -1.9113 -1.7742
   25MOL0     H 3309  11.469  10.705   2.487 -0.3395  1.6571 -0.1570
   25MOL0     H 3310  11.416  10.435   2.727 -2.6009 -0.1586 -0.2296
   25MOL0     H 3311  11.524  10.567   2.675 -1.6242  2.1203 -0.6825
   25MOL0     H 3312  11.471  10.491   2.941 -0.8897 -0.2975 -1.5218
   25MOL0     H 3313  11.351  10.613   2.911  0.3964  2.4772 -1.1362
   25MOL0     H 3314  11.566  10.750   2.832  1.1313 -0.6746 -0.6835
   25MOL0     H 3315  11.644  10.640   2.945  1.2578  1.4871  0.3500
   25MOL0     H 3316  11.431  10.864   2.971  2.4548  0.9433 -2.8704
   25MOL0     H 3317  11.441  10.746   3.104 -0.6181 -2.2605 -0.9466
   25MOL0     H 3318  11.671  10.940   3.005 -1.4012 -1.4844 -1.7226
   25MOL0     H 3319  11.550  10.971   3.122  2.9973  2.2134  0.8394
   25MOL0     H 3320  11.651  10.792   3.271 -1.7481  1.0523  0.8278
   25MOL0     H 3321  11.756  10.742   3.154 -0.1992  0.8813  1.2199
   25MOL0     H 3322  11.758  11.023   3.269 -2.4123 -1.5680  0.3947
   25MOL0     H 3323  11.864  10.962   3.142  2.5495 -0.8540  0.6235
   25MOL0     H 3324  11.826  10.848   3.424 -2.3576 -1.2473 -1.9619
   25MOL0     H 3325  11.930  10.773   3.308  1.0541 -0.3917  3.9277
   25MOL0     H 3326  12.120  10.925   3.188 -1.7824  0.6193 -0.2935
   25MOL0     H 3327  12.363  11.131   3.381 -2.1155 -1.5248  1.0984
   25MOL0     H 3328  12.347  11.052   3.220  1.4265 -0.1249  0.9285
   25MOL0     H 3329  12.271  11.264   3.115 -0.8739 -1.1706 -0.3141
   25MOL0     H 3330  12.288  11.339   3.274 -0.0270 -0.6924  0.7207
   25MOL0     H 3331  12.509  11.197   3.117  0.3931  1.2599 -2.1891
   25MOL0     H 3332  12.536  11.294   3.272  1.7832 -1.3686 -0.5215
   25MOL0     H 3333  12.448  11.484   3.134 -2.4845 -0.1894 -0.8813
   25MOL0     H 3334  12.426  11.396   2.997  1.8997  0.6790  0.0176
   25MOL0     H 3335  12.493  11.624   2.964 -0.8036  2.5757 -1.6366
   25MOL0     H 3336  12.551  11.819   2.817  0.3629 -0.4513 -2.2430
   25MOL0     H 3337  12.766  12.210   2.691 -0.3012 -1.2499  0.2272
   25MOL0     H 3338  12.704  12.368   2.515 -0.6678 -0.8417  0.4486
   25MOL0     H 3339  12.668  12.488   2.225  3.4303  1.1712 -1.8142
   25MOL0     H 3340  12.808  12.385   2.268  1.0456 -1.2264 -1.8014
   25MOL0     H 3341  12.631  12.358   2.004 -0.2382 -1.1454 -0.7931
   25MOL0     H 3342  12.745  12.480   2.031  0.2825  0.1055  1.5035
   25MOL0     H 3343  12.846  12.294   1.911  0.3143 -0.3003 -0.0457
   25MOL0     H 3344  12.923  12.288   2.067  1.9864  1.8533 -3.2832
   25MOL0     H 3345  12.697  12.106   1.950 -0.5660 -2.5027  1.2068
   25MOL0     H 3346  12.733  12.093   2.115  0.5568  2.8610  1.7447
   25MOL0     H 3347  12.937  12.041   1.892  0.3444 -0.5856 -0.1146
   25MOL0     H 3348  12.817  11.923   1.957 -0.8767  0.3968 -1.4712
   25MOL0     H 3349  13.018  12.075   2.138  1.1806  0.6490 -2.7824
   25MOL0     H 3350  12.918  11.934   2.174 -0.2408  2.1713  1.7284
   25MOL0     H 3351  13.147  11.926   1.971 -0.9596 -1.8514 -1.0446
   25MOL0     H 3352  13.035  11.797   2.026 -1.9199  0.3065  1.6098
   25MOL0     H 3353  13.264  11.792   2.116  0.9714  0.6077  1.8825
   25MOL0     H 3354  13.246  11.955   2.171  1.6783 -0.2546 -2.8228
   25MOL0     H 3355  12.559  12.047   2.277 -1.2468  5.4425 -1.1028
   25MOL0     H 3356  12.652  11.882   2.451  1.6504 -0.2755 -0.6036
   25MOL0     H 3357  12.922  11.617   2.741 -0.9038  1.3043 -2.1386
   25MOL0     H 3358  12.860  11.437   2.898 -1.4045 -1.1028  3.1795
   25MOL0     H 3359  11.105  10.542   2.618  2.2389 -0.9001  0.5435
   25MOL0     H 3360  11.031  10.523   2.367 -0.5617 -1.2234  3.7516
   25MOL0     H 3361  11.206  10.492   1.916 -1.0887 -1.1230 -1.9214
   25MOL0     H 3362  11.138  10.484   1.689 -1.8975  1.6911 -2.5275
   25MOL0     H 3363  10.965  10.496   1.512 -2.6715  0.2990 -2.1834
   25MOL0     H 3364  11.138  10.516   1.467 -0.7931 -2.9562  3.3390
   25MOL0     H 3365  11.100  10.560   1.265  0.1198  1.8736  0.0461
   25MOL0     H 3366  10.977  10.687   1.299  0.6388  0.7870  0.0174
   25MOL0     H 3367  10.889  10.390   1.283 -0.6412 -0.0403 -1.9327
   25MOL0     H 3368  10.899  10.500   1.147 -1.3348 -2.0769 -0.5056
   25MOL0     H 3369  10.738  10.651   1.259  0.4181 -0.1197 -0.6643
   25MOL0     H 3370  10.667  10.495   1.216 -0.6721 -1.8236  3.0808
   25MOL0     H 3371  10.623  10.538   1.639  0.5806 -1.8894  1.2343
   25MOL0     H 3372  11.007  10.888   1.697 -1.4200  0.3835  1.0987
   25MOL0     H 3373  10.936  10.973   1.872 -0.8741  0.2035  1.0926
   25MOL0     H 3374  10.931  10.904   2.030 -4.0667  1.9408 -1.9462
   25MOL0     H 3375  11.080  10.993   1.980  1.9090 -1.8826  1.1726
   26MOL0     O 3376   6.640   0.246  10.942  0.1420  0.3606  1.3925
   26MOL0     C 3377   6.733   0.252  11.016 -0.6847 -0.1888 -0.0025
   26MOL0     O 3378   6.745   0.190  11.139  0.0057 -0.6841 -0.3514
   26MOL0     C 3379   6.635   0.122  11.186 -0.7541  0.3852 -0.7532
   26MOL0     C 3380   6.643  -0.019  11.184  0.7310  0.2327 -0.0513
   26MOL0     C 3381   6.531  -0.095  11.226 -0.3934  0.7432 -0.2217
   26MOL0     C 3382   6.414  -0.036  11.254 -0.0003 -0.6566  0.4346
   26MOL0     O 3383   6.288  -0.092  11.260 -0.2532  0.7492  0.0702
   26MOL0     C 3384   6.286  -0.231  11.231  1.0917 -0.8557  0.3005
   26MOL0     C 3385   6.259  -0.255  11.073 -0.2653  0.6230 -0.5932
   26MOL0     C 3386   6.381  -0.327  11.008  0.8143  0.5468 -0.6659
   26MOL0     C 3387   6.343  -0.386  10.876  0.2516 -0.7876  0.0622
   26MOL0     C 3388   6.382  -0.301  10.752 -0.4750 -0.1959  0.3068
   26MOL0     C 3389   6.276  -0.191  10.724 -0.3363  1.0593 -0.2865
   26MOL0     C 3390   6.310  -0.057  10.781 -0.3692  0.2899 -0.9135
   26MOL0     C 3391   6.181   0.039  10.791 -0.7126  0.7007 -0.0278
   26MOL0     N 3392   6.213   0.144  10.880  0.4005 -0.2560 -0.9837
   26MOL0     C 3393   6.296   0.240  10.857  0.3839  1.0459 -1.0148
   26MOL0     C 3394   6.277   0.334  10.951 -0.5256  0.0518  0.7283
   26MOL0     C 3395   6.359   0.457  10.971  0.3013 -0.0045  0.0476
   26MOL0     C 3396   6.367   0.542  10.838 -0.1178 -0.1680 -0.7934
   26MOL0     C 3397   6.284   0.673  10.838  0.1757 -0.5616 -0.4098
   26MOL0     C 3398   6.134   0.658  10.802  0.0212  0.1844 -0.2692
   26MOL0     O 3399   6.115   0.664  10.659  0.2252 -0.1075 -0.2605
   26MOL0     C 3400   6.026   0.751  10.603 -0.0283  0.1353 -0.1532
   26MOL0     C 3401   5.988   0.730  10.465 -0.3299 -0.5280  0.6030
   26MOL0     C 3402   5.912   0.825  10.400  0.2122 -1.1789  0.1273
   26MOL0     C 3403   5.877   0.938  10.461  0.7623 -0.5685 -0.4409
   26MOL0     C 3404   5.785   1.038  10.409  1.4327 -0.1676  0.2705
   26MOL0     O 3405   5.709   1.112  10.495 -1.0663 -0.6439 -0.1511
   26MOL0     C 3406   5.666   1.237  10.460  0.2231  0.4684 -1.0700
   26MOL0     C 3407   5.759   1.328  10.406  0.2721  0.2606  0.2106
   26MOL0     C 3408   5.716   1.448  10.364  0.0452 -0.6775 -0.0242
   26MOL0     C 3409   5.577   1.487  10.366  1.0769 -0.0903 -0.3975
   26MOL0     O 3410   5.509   1.604  10.333  0.5619 -0.1476 -0.0207
   26MOL0     C 3411   5.598   1.710  10.280 -0.2319  0.2811 -0.9981
   26MOL0     C 3412   5.511   1.838  10.282 -0.2722  1.4066  0.0140
   26MOL0     C 3413   5.434   1.873  10.410 -0.6741 -0.1771  0.1314
   26MOL0     C 3414   5.300   1.919  10.388  0.3746 -0.6263 -0.2002
   26MOL0     C 3415   5.231   1.960  10.516  0.9208 -0.2657  0.3953
   26MOL0     C 3416   5.105   2.052  10.491  0.0334  0.1479 -0.9384
   26MOL0     C 3417   5.042   2.084  10.629 -0.2971 -0.1581 -0.3085
   26MOL0     C 3418   4.933   2.181  10.601 -0.2066  0.3711 -0.3320
   26MOL0    Cl 3419   4.801   2.121  10.499 -0.0537  0.5147 -0.1994
   26MOL0     C 3420   5.492   1.402  10.436 -0.2513  0.0068  0.0215
   26MOL0     C 3421   5.531   1.273  10.473  0.9746  0.8230 -0.2964
   26MOL0     O 3422   5.797   1.064  10.291 -0.0558 -0.0094  0.4530
   26MOL0     C 3423   5.926   0.964  10.584 -0.0162  0.2859  0.2199
   26MOL0     C 3424   5.998   0.876  10.661  0.7299 -0.4995  0.4680
   26MOL0     N 3425   6.182   0.282  11.034 -0.5976  1.0410 -0.1372
   26MOL0     N 3426   6.145   0.163  10.994 -1.3339 -0.0624  0.4229
   26MOL0     C 3427   6.411   0.105  11.263  0.0870 -1.2720 -0.3136
   26MOL0     C 3428   6.522   0.183  11.239 -0.1795  0.3195  1.1757
   26MOL0     C 3429   6.856   0.326  10.975 -0.1602 -0.1742 -1.0775
   26MOL0     C 3430   6.978   0.309  11.054  0.3668 -0.3074 -0.3799
   26MOL0     C 3431   7.106   0.356  11.006 -0.1216 -0.0763 -1.2578
   26MOL0     C 3432   7.108   0.429  10.890  0.6818  0.7458  0.6848
   26MOL0     O 3433   7.221   0.486  10.839  0.3602 -0.3143  0.2998
   26MOL0     C 3434   7.344   0.503  10.914  1.2023  0.2454 -0.0043
   26MOL0     C 3435   7.439   0.574  10.820  0.5423  0.8816  1.1157
   26MOL0     C 3436   7.432   0.527  10.681  0.1661  0.2893  0.1313
   26MOL0     C 3437   7.560   0.570  10.608  1.1266  0.6496  0.1130
   26MOL0     C 3438   7.561   0.519  10.458 -0.8683  0.1913 -0.4389
   26MOL0     C 3439   7.545   0.456  10.355  0.4121 -0.0230 -0.4542
   26MOL0     C 3440   6.992   0.453  10.821  1.0782  0.5242  0.6076
   26MOL0     C 3441   6.871   0.390  10.850 -0.5054  0.9290 -0.8754
   26MOL0     C 3442   6.763   0.433  10.757  0.1281 -0.3721 -0.2613
   26MOL0     H 3443   6.728  -0.077  11.150 -1.4418 -3.5362  0.4127
   26MOL0     H 3444   6.554  -0.201  11.222  0.6006  0.6166  4.2522
   26MOL0     H 3445   6.371  -0.281  11.278  2.0277  0.1077 -0.3251
   26MOL0     H 3446   6.201  -0.271  11.288  0.2657  0.2286 -0.1404
   26MOL0     H 3447   6.236  -0.159  11.025 -1.9369 -1.0990 -3.5239
   26MOL0     H 3448   6.169  -0.316  11.064  0.8749 -1.7383  2.2325
   26MOL0     H 3449   6.410  -0.412  11.070 -1.2514 -1.0062 -1.7021
   26MOL0     H 3450   6.454  -0.246  11.004 -1.4511  3.0011  2.4436
   26MOL0     H 3451   6.392  -0.483  10.871  0.5156 -0.6125 -0.9928
   26MOL0     H 3452   6.237  -0.402  10.855 -0.6348  1.8106  2.0208
   26MOL0     H 3453   6.484  -0.262  10.764 -1.5214  2.1211  2.7761
   26MOL0     H 3454   6.396  -0.376  10.674 -0.2965 -1.4670  1.5194
   26MOL0     H 3455   6.286  -0.186  10.615 -3.0228  1.7860 -0.5658
   26MOL0     H 3456   6.171  -0.220  10.733 -0.1470 -0.7765 -2.8459
   26MOL0     H 3457   6.388  -0.008  10.722 -0.5881  2.2670  0.3319
   26MOL0     H 3458   6.355  -0.076  10.879 -0.6778 -0.8279 -0.9733
   26MOL0     H 3459   6.159   0.081  10.692 -0.7841  1.0682  0.1433
   26MOL0     H 3460   6.087  -0.009  10.820 -1.6478  1.4603 -1.6585
   26MOL0     H 3461   6.373   0.234  10.780  0.9229  0.2100 -0.4168
   26MOL0     H 3462   6.321   0.514  11.056  0.0997  2.7201 -1.7639
   26MOL0     H 3463   6.452   0.416  11.011 -0.7052 -1.8991  0.5595
   26MOL0     H 3464   6.470   0.573  10.817 -0.0211 -0.0296 -0.1495
   26MOL0     H 3465   6.341   0.489  10.746 -0.3225  1.4770 -1.7329
   26MOL0     H 3466   6.339   0.743  10.774  1.3292  0.9803  2.0801
   26MOL0     H 3467   6.292   0.718  10.938 -0.2018 -1.2249 -0.0758
   26MOL0     H 3468   6.095   0.734  10.870  1.2895 -2.1215  3.3368
   26MOL0     H 3469   6.092   0.564  10.838  0.7512 -1.0649 -2.4979
   26MOL0     H 3470   6.035   0.648  10.411 -0.6705 -0.8871  0.8527
   26MOL0     H 3471   5.888   0.810  10.295  1.6822 -0.1106 -0.3999
   26MOL0     H 3472   5.865   1.311  10.398  0.0797 -0.9191 -0.1213
   26MOL0     H 3473   5.793   1.517  10.333  1.0177 -1.4225  0.6728
   26MOL0     H 3474   5.675   1.726  10.356 -1.8717  2.1078  0.3994
   26MOL0     H 3475   5.644   1.693  10.183  1.0793  0.6389 -0.4664
   26MOL0     H 3476   5.593   1.909  10.268  1.7435 -0.1570  2.8629
   26MOL0     H 3477   5.449   1.820  10.194 -2.0562  0.2826  1.4264
   26MOL0     H 3478   5.436   1.795  10.486 -0.5167 -0.6043 -0.3094
   26MOL0     H 3479   5.493   1.949  10.462  0.2609 -0.2238 -0.8291
   26MOL0     H 3480   5.240   1.839  10.342 -1.0957  0.3323 -0.0082
   26MOL0     H 3481   5.308   2.002  10.317 -0.3590  1.7963  2.4019
   26MOL0     H 3482   5.311   2.009  10.572  1.1444 -1.2059  0.9074
   26MOL0     H 3483   5.194   1.872  10.567 -0.4415 -0.0258 -0.1264
   26MOL0     H 3484   5.134   2.146  10.443  1.0439  2.1466  3.1741
   26MOL0     H 3485   5.034   2.007  10.421  2.2353 -0.4557 -2.9320
   26MOL0     H 3486   5.121   2.125  10.692 -0.3664 -2.3655  1.3529
   26MOL0     H 3487   5.005   1.994  10.680 -0.9222  0.4379  0.2941
   26MOL0     H 3488   4.900   2.219  10.698 -0.0924  0.7084 -0.4241
   26MOL0     H 3489   4.970   2.271  10.552  1.3399 -1.1618 -2.2020
   26MOL0     H 3490   5.391   1.427  10.467 -0.2362 -0.0718  0.1379
   26MOL0     H 3491   5.456   1.215  10.526  1.9184  0.6046  0.8531
   26MOL0     H 3492   5.895   1.055  10.634  3.4236  1.0569  1.2128
   26MOL0     H 3493   6.016   0.896  10.766  2.4569  0.1324  0.0822
   26MOL0     H 3494   6.326   0.165  11.296  0.6031 -1.9665  2.4634
   26MOL0     H 3495   6.509   0.289  11.263 -1.8231  0.5817 -0.6560
   26MOL0     H 3496   6.967   0.266  11.153 -3.7532  1.3210  0.1029
   26MOL0     H 3497   7.195   0.344  11.068 -0.6888 -2.5702 -0.7765
   26MOL0     H 3498   7.385   0.403  10.934  2.9932  1.0234  0.4663
   26MOL0     H 3499   7.332   0.562  11.005 -2.0820  1.1093 -0.8724
   26MOL0     H 3500   7.537   0.548  10.861 -0.1094 -3.1837  0.4484
   26MOL0     H 3501   7.412   0.680  10.815 -4.7191 -0.2127 -3.8477
   26MOL0     H 3502   7.341   0.563  10.632  0.4675  2.2307  0.8906
   26MOL0     H 3503   7.425   0.418  10.679  1.8744  0.1531  0.2644
   26MOL0     H 3504   7.589   0.675  10.611  1.4552  0.6276 -1.3913
   26MOL0     H 3505   7.638   0.516  10.662 -1.9135  0.6334  5.1938
   26MOL0     H 3506   7.538   0.399  10.265 -1.4170  2.1715 -1.8025
   26MOL0     H 3507   7.001   0.503  10.725 -1.4268 -4.6065 -2.7635
   26MOL0     H 3508   6.818   0.466  10.668  3.7824 -1.3658  1.4129
   26MOL0     H 3509   6.687   0.358  10.737 -1.1036  0.8658 -0.3535
   26MOL0     H 3510   6.715   0.525  10.793  0.6522  0.4564 -1.6062
   27MOL0     O 3511   7.505   4.251   4.933  0.4833  0.6072 -0.7049
   27MOL0     C 3512   7.444   4.165   4.866 -0.7859  0.0294  0.8529
   27MOL0     O 3513   7.449   4.160   4.732 -0.7390 -0.1061 -0.7593
   27MOL0     C 3514   7.565   4.209   4.675  0.1227 -0.0801  0.4385
   27MOL0     C 3515   7.692   4.201   4.734  0.4034  0.0996  0.3853
   27MOL0     C 3516   7.798   4.239   4.642  0.5913 -0.2527 -0.3022
   27MOL0     C 3517   7.774   4.280   4.516  0.9654  0.2666  0.2004
   27MOL0     O 3518   7.873   4.316   4.422 -0.2268  0.1543 -0.4207
   27MOL0     C 3519   8.012   4.282   4.442 -0.1815 -0.0345  0.0787
   27MOL0     C 3520   8.092   4.276   4.312  0.1168 -0.2969 -1.0267
   27MOL0     C 3521   8.092   4.407   4.233  0.1535 -0.7582  0.1142
   27MOL0     C 3522   8.234   4.408   4.162  0.2037  0.2882  0.1921
   27MOL0     C 3523   8.246   4.527   4.062 -0.1500 -0.9976 -0.2386
   27MOL0     C 3524   8.202   4.663   4.126  0.2091  0.3716  0.0881
   27MOL0     C 3525   8.198   4.785   4.026  0.0108  1.1846  0.5364
   27MOL0     C 3526   8.329   4.797   3.959 -0.3315 -0.2151  0.3242
   27MOL0     N 3527   8.344   4.918   3.881  0.6118  0.8931 -0.3450
   27MOL0     C 3528   8.248   4.942   3.785  0.1315  0.2038  0.2151
   27MOL0     C 3529   8.267   5.070   3.736  0.2528  0.4787  0.4237
   27MOL0     C 3530   8.196   5.124   3.619 -0.4692 -0.8856 -0.0439
   27MOL0     C 3531   8.305   5.224   3.545 -0.1469  0.2045  0.4784
   27MOL0     C 3532   8.250   5.307   3.428  0.4057 -0.5086 -0.0625
   27MOL0     C 3533   8.351   5.346   3.314  0.1371  0.5623 -0.1559
   27MOL0     O 3534   8.415   5.226   3.261 -0.4853  0.1834 -0.3878
   27MOL0     C 3535   8.524   5.237   3.173  1.2045 -0.2921  0.2232
   27MOL0     C 3536   8.556   5.367   3.120 -0.1568  0.7376  0.4385
   27MOL0     C 3537   8.669   5.387   3.037 -0.0200 -0.0486  0.9386
   27MOL0     C 3538   8.757   5.285   3.018  0.4000  0.0651 -0.2131
   27MOL0     C 3539   8.867   5.297   2.915 -0.4129  0.1741 -0.2488
   27MOL0     O 3540   8.924   5.186   2.867  0.1602  0.1812  1.0163
   27MOL0     C 3541   9.026   5.182   2.765 -0.1700 -0.7347 -0.8454
   27MOL0     C 3542   9.044   5.058   2.703 -1.3549 -0.2686 -0.1179
   27MOL0     C 3543   9.146   5.042   2.603  0.3310  0.2297  0.3421
   27MOL0     C 3544   9.217   5.150   2.546  1.1301 -0.2333 -0.3164
   27MOL0     O 3545   9.301   5.146   2.436  0.2576 -0.5623 -0.3897
   27MOL0     C 3546   9.406   5.044   2.437  0.1612 -0.0853  0.6579
   27MOL0     C 3547   9.469   5.029   2.295 -0.2345  0.1136  0.4727
   27MOL0     C 3548   9.599   4.933   2.297  0.5797 -0.0927  0.1767
   27MOL0     C 3549   9.615   4.885   2.153  0.2625  0.5695  1.6792
   27MOL0     C 3550   9.717   4.767   2.146 -0.6832  0.7807  0.5659
   27MOL0     C 3551   9.857   4.800   2.186  0.1001  0.1218 -0.8950
   27MOL0     C 3552   9.965   4.684   2.146  0.5377  0.8889 -0.3483
   27MOL0     C 3553   9.982   4.573   2.252  0.1660 -0.0158  0.6391
   27MOL0    Cl 3554   9.837   4.476   2.276  0.1417 -0.6077  0.3437
   27MOL0     C 3555   9.183   5.282   2.604 -0.6463  1.5694  0.4179
   27MOL0     C 3556   9.098   5.292   2.713  0.3205 -1.1720  0.2116
   27MOL0     O 3557   8.884   5.408   2.876 -0.6980 -0.2727  0.3605
   27MOL0     C 3558   8.718   5.159   3.071 -0.7024  0.9202  0.0934
   27MOL0     C 3559   8.605   5.135   3.146  0.4903 -0.1597 -0.3435
   27MOL0     N 3560   8.381   5.115   3.801 -0.8887 -0.1427  0.2223
   27MOL0     N 3561   8.421   5.026   3.895 -0.3696 -0.2314  0.6537
   27MOL0     C 3562   7.647   4.280   4.461 -0.4789 -0.5379 -0.1927
   27MOL0     C 3563   7.544   4.240   4.538 -0.1385 -0.0150  0.4202
   27MOL0     C 3564   7.337   4.089   4.924 -0.1957 -0.4585 -0.1766
   27MOL0     C 3565   7.277   4.141   5.044 -0.2039 -0.2991  0.1457
   27MOL0     C 3566   7.186   4.068   5.109 -0.4026 -0.3109  0.0557
   27MOL0     C 3567   7.152   3.936   5.073  0.3478 -0.1916 -0.1490
   27MOL0     O 3568   7.065   3.872   5.150  0.8964  0.1700  0.6895
   27MOL0     C 3569   7.124   3.838   5.273  0.2425 -0.0679  0.7356
   27MOL0     C 3570   7.045   3.911   5.378  0.3377 -0.1953 -0.4026
   27MOL0     C 3571   6.931   3.815   5.436  0.2191  0.7855  0.2079
   27MOL0     C 3572   6.890   3.854   5.581 -0.6540 -0.9553 -0.1796
   27MOL0     C 3573   6.808   3.751   5.642 -0.3195  0.5756 -1.2311
   27MOL0     C 3574   6.738   3.683   5.707 -0.3585 -0.8377  0.0005
   27MOL0     C 3575   7.195   3.894   4.950  0.0237 -0.3061  0.1650
   27MOL0     C 3576   7.296   3.965   4.881  0.3760  0.1566 -0.5299
   27MOL0     C 3577   7.348   3.886   4.766 -0.8124 -0.1384 -0.4769
   27MOL0     H 3578   7.703   4.156   4.832 -0.9409 -0.9821  0.0588
   27MOL0     H 3579   7.902   4.231   4.671 -0.0627  0.5774  2.5926
   27MOL0     H 3580   8.056   4.365   4.499 -0.2533  1.1568 -1.5271
   27MOL0     H 3581   8.028   4.189   4.497  2.4656  0.4549  0.2954
   27MOL0     H 3582   8.065   4.200   4.238 -1.7545  1.6064 -2.4003
   27MOL0     H 3583   8.196   4.250   4.336 -0.0623 -1.9626 -1.8795
   27MOL0     H 3584   8.090   4.488   4.306  0.0557  0.4755 -1.2208
   27MOL0     H 3585   8.003   4.396   4.170 -0.2463  1.6239  0.1760
   27MOL0     H 3586   8.314   4.408   4.236  0.4424 -0.7803 -0.0482
   27MOL0     H 3587   8.246   4.316   4.105 -0.7521 -1.2509  2.3389
   27MOL0     H 3588   8.344   4.534   4.013  1.0134  1.7374  2.1658
   27MOL0     H 3589   8.168   4.514   3.987 -1.6275  1.1894  0.8212
   27MOL0     H 3590   8.100   4.651   4.163 -0.2872 -1.4095 -1.7102
   27MOL0     H 3591   8.269   4.697   4.205  1.3901  1.0311 -1.1530
   27MOL0     H 3592   8.167   4.874   4.081 -0.9632 -0.1734  2.2972
   27MOL0     H 3593   8.125   4.766   3.947 -0.0639  1.9241  0.4217
   27MOL0     H 3594   8.414   4.792   4.028  1.1707  1.1235 -1.3293
   27MOL0     H 3595   8.345   4.708   3.899 -0.0673  0.3884 -0.5202
   27MOL0     H 3596   8.171   4.878   3.743 -1.1311  1.2354  0.8632
   27MOL0     H 3597   8.167   5.038   3.557 -1.0720 -2.0405  1.7599
   27MOL0     H 3598   8.104   5.174   3.651  0.2244 -0.7384  1.8553
   27MOL0     H 3599   8.345   5.295   3.618  2.0622 -1.5436  1.0557
   27MOL0     H 3600   8.398   5.175   3.515  0.1408  1.3702 -0.6604
   27MOL0     H 3601   8.191   5.390   3.466 -3.7664 -2.9929 -0.5168
   27MOL0     H 3602   8.177   5.245   3.376  0.5473  1.4921 -2.8717
   27MOL0     H 3603   8.422   5.423   3.347  0.5904 -0.4450  1.3463
   27MOL0     H 3604   8.290   5.390   3.235 -0.8612  0.6979  0.6743
   27MOL0     H 3605   8.489   5.449   3.142  1.1151  2.7980 -2.7070
   27MOL0     H 3606   8.689   5.488   3.002  2.3988 -0.1715  1.7614
   27MOL0     H 3607   8.999   4.971   2.749 -3.1640  0.3749 -0.5973
   27MOL0     H 3608   9.160   4.941   2.569  0.1495 -0.1529  1.3572
   27MOL0     H 3609   9.480   5.063   2.515  0.3299 -1.4789  0.8750
   27MOL0     H 3610   9.370   4.944   2.464  3.9962 -1.9770 -0.5750
   27MOL0     H 3611   9.401   4.978   2.226  2.1890 -1.1452 -1.1135
   27MOL0     H 3612   9.499   5.126   2.255  0.3153 -0.1859  0.1422
   27MOL0     H 3613   9.686   4.985   2.338  1.2188 -0.1294 -1.0865
   27MOL0     H 3614   9.583   4.847   2.363 -1.1866 -0.0804 -0.1878
   27MOL0     H 3615   9.641   4.977   2.099 -3.3480  1.0209  0.4427
   27MOL0     H 3616   9.522   4.849   2.108 -0.2768  0.3199  2.9388
   27MOL0     H 3617   9.706   4.703   2.058 -0.6831 -0.6988  1.6033
   27MOL0     H 3618   9.683   4.690   2.215 -1.8567 -1.4447 -2.2599
   27MOL0     H 3619   9.877   4.891   2.129 -0.4021  0.3925 -0.6469
   27MOL0     H 3620   9.861   4.824   2.293  3.5735  0.3886 -0.9784
   27MOL0     H 3621  10.060   4.738   2.148  0.5176  0.9962 -1.5972
   27MOL0     H 3622   9.959   4.650   2.042  2.9045  2.3713 -1.0615
   27MOL0     H 3623  10.062   4.508   2.216 -0.3402 -0.1859 -0.2180
   27MOL0     H 3624  10.011   4.615   2.348  1.4723  0.2309  0.1533
   27MOL0     H 3625   9.219   5.364   2.542 -0.6032  1.0219 -0.3009
   27MOL0     H 3626   9.085   5.390   2.757  2.2113 -1.4850  1.5811
   27MOL0     H 3627   8.788   5.077   3.059 -0.1635  1.6040 -1.8079
   27MOL0     H 3628   8.595   5.036   3.188  0.8065  0.6691  1.8408
   27MOL0     H 3629   7.626   4.327   4.366  0.1740 -2.4087 -1.3164
   27MOL0     H 3630   7.444   4.246   4.498 -1.0774 -0.9373  2.4783
   27MOL0     H 3631   7.292   4.244   5.075 -3.0009 -0.0682  0.9967
   27MOL0     H 3632   7.135   4.114   5.193 -1.2645 -0.3517 -0.4324
   27MOL0     H 3633   7.229   3.865   5.290  0.2433 -0.0066  0.6356
   27MOL0     H 3634   7.120   3.730   5.293 -0.5001  0.2551  2.4940
   27MOL0     H 3635   6.999   4.001   5.336  2.0496 -0.1813 -2.3712
   27MOL0     H 3636   7.100   3.956   5.461 -0.4843  1.5234 -0.7313
   27MOL0     H 3637   6.958   3.709   5.437 -0.8667  0.4994  0.8808
   27MOL0     H 3638   6.840   3.838   5.379 -0.2741 -4.1270 -1.4798
   27MOL0     H 3639   6.978   3.885   5.639  1.1001 -2.1671 -2.0298
   27MOL0     H 3640   6.826   3.942   5.576  1.1264  0.3928 -0.3537
   27MOL0     H 3641   6.681   3.637   5.786 -0.8311 -0.2322  0.0184
   27MOL0     H 3642   7.157   3.802   4.905  0.3242 -0.3349 -0.0325
   27MOL0     H 3643   7.365   3.787   4.810 -1.6491  0.9332  2.4900
   27MOL0     H 3644   7.285   3.872   4.678 -0.3809 -4.2688 -0.3431
   27MOL0     H 3645   7.445   3.926   4.733  0.6441 -2.2721  0.8855
   28MOL0     O 3646   1.085   9.494   0.110  0.1868 -0.3084 -0.0450
   28MOL0     C 3647   1.210   9.506   0.100 -0.5957 -0.1455  0.2276
   28MOL0     O 3648   1.286   9.612   0.152 -0.2157  0.5799  0.0667
   28MOL0     C 3649   1.218   9.724   0.201 -0.4194  0.4212 -0.7746
   28MOL0     C 3650   1.105   9.782   0.147 -0.1337 -1.0670 -0.4257
   28MOL0     C 3651   1.056   9.909   0.207  1.4103  0.3727 -0.6788
   28MOL0     C 3652   1.122   9.978   0.309  0.0680 -0.8697 -0.0440
   28MOL0     O 3653   1.064  10.091   0.365 -0.0593 -0.1796  0.4126
   28MOL0     C 3654   1.089  10.140   0.497  0.3958 -0.6376  0.4386
   28MOL0     C 3655   0.962  10.129   0.576 -0.1207 -1.3999 -0.6040
   28MOL0     C 3656   0.917   9.984   0.605  1.0724 -0.5321 -0.2883
   28MOL0     C 3657   0.772   9.967   0.677 -1.2469 -0.1614 -0.7192
   28MOL0     C 3658   0.666   9.915   0.597  1.0551 -0.3609  0.2083
   28MOL0     C 3659   0.617  10.018   0.494  0.7095 -0.0780 -0.3595
   28MOL0     C 3660   0.475   9.978   0.459 -0.4819 -0.3715 -0.0555
   28MOL0     C 3661   0.437  10.009   0.313 -0.6966  0.2198 -0.2292
   28MOL0     N 3662   0.467  10.146   0.279  0.1553  0.5880 -0.6189
   28MOL0     C 3663   0.590  10.200   0.241 -0.0264  0.2199  0.8972
   28MOL0     C 3664   0.588  10.339   0.246  0.6450  0.6156 -0.2266
   28MOL0     C 3665   0.687  10.435   0.200 -0.1341  0.2889  1.1805
   28MOL0     C 3666   0.702  10.544   0.308  0.3632  0.9552 -0.4902
   28MOL0     C 3667   0.801  10.495   0.414 -0.0414  0.5950  0.5484
   28MOL0     C 3668   0.848  10.613   0.504 -0.0010 -0.3467 -0.0538
   28MOL0     O 3669   0.920  10.546   0.612  0.7650 -0.2612  0.0429
   28MOL0     C 3670   0.851  10.553   0.729  0.0697  0.7453  0.3199
   28MOL0     C 3671   0.834  10.674   0.797  0.3368  0.1553  0.8675
   28MOL0     C 3672   0.773  10.684   0.920 -0.5029 -0.5936 -0.0644
   28MOL0     C 3673   0.744  10.563   0.985 -0.6211 -0.4356 -0.8135
   28MOL0     C 3674   0.669  10.559   1.105  0.2391 -0.0802  0.4301
   28MOL0     O 3675   0.566  10.649   1.101 -0.4135  0.4959  0.5122
   28MOL0     C 3676   0.473  10.651   1.201  0.2980  0.5555 -0.5264
   28MOL0     C 3677   0.355  10.583   1.175 -0.6274 -1.3430 -0.5555
   28MOL0     C 3678   0.254  10.564   1.268 -0.6505  0.7458 -0.1800
   28MOL0     C 3679   0.270  10.627   1.396  0.1092 -0.1960 -0.3897
   28MOL0     O 3680   0.162  10.621   1.475 -0.2035 -0.3535 -0.5769
   28MOL0     C 3681   0.158  10.693   1.591  0.2657 -0.4355 -1.1685
   28MOL0     C 3682   0.029  10.637   1.665 -0.2656 -0.5657 -0.3124
   28MOL0     C 3683  -0.014  10.737   1.782 -0.4615 -0.2605  0.1159
   28MOL0     C 3684   0.032  10.723   1.930 -1.0337 -0.0096 -0.5630
   28MOL0     C 3685   0.106  10.592   1.969 -0.3237 -0.5559  0.4123
   28MOL0     C 3686   0.177  10.625   2.109  0.1921  0.3782  0.4899
   28MOL0     C 3687   0.227  10.487   2.151 -0.8682 -0.6360  0.1617
   28MOL0     C 3688   0.313  10.506   2.276  0.9447 -0.1580 -0.4633
   28MOL0    Cl 3689   0.199  10.559   2.417 -0.2089  0.3727 -0.2445
   28MOL0     C 3690   0.387  10.701   1.421 -0.2032  0.4606  0.2654
   28MOL0     C 3691   0.488  10.699   1.331 -0.7379  0.6242  0.0327
   28MOL0     O 3692   0.698  10.482   1.200 -0.7566  0.0980  0.3038
   28MOL0     C 3693   0.769  10.437   0.925 -0.5813  0.4692 -1.1207
   28MOL0     C 3694   0.825  10.430   0.793 -0.1624 -0.4156  0.0950
   28MOL0     N 3695   0.472  10.368   0.308  0.2519  0.8723  0.0378
   28MOL0     N 3696   0.405  10.258   0.320  0.2251  0.0285 -0.0594
   28MOL0     C 3697   1.245   9.922   0.351 -1.0006 -1.2223  0.2299
   28MOL0     C 3698   1.291   9.797   0.299 -0.9637 -0.5297 -0.2059
   28MOL0     C 3699   1.283   9.388   0.071 -0.9219  0.2471  0.6948
   28MOL0     C 3700   1.380   9.343   0.171 -0.4586 -0.6647 -0.1833
   28MOL0     C 3701   1.447   9.226   0.152 -1.4427 -0.0553  1.1015
   28MOL0     C 3702   1.434   9.156   0.037  0.5457  0.0364  0.6908
   28MOL0     O 3703   1.517   9.048   0.015  0.7117 -0.0069 -0.7196
   28MOL0     C 3704   1.443   8.921   0.026 -0.9797 -0.3517 -0.1448
   28MOL0     C 3705   1.535   8.803  -0.020 -0.0554 -0.2940  0.6499
   28MOL0     C 3706   1.617   8.851  -0.151 -0.3778  0.7106 -0.7142
   28MOL0     C 3707   1.517   8.889  -0.259  0.4539  0.1973  0.4367
   28MOL0     C 3708   1.595   8.921  -0.383 -0.3207 -0.1129 -0.7050
   28MOL0     C 3709   1.664   8.918  -0.483  1.7149  0.2885  0.6564
   28MOL0     C 3710   1.346   9.200  -0.066 -0.3032 -0.1811  0.7456
   28MOL0     C 3711   1.257   9.313  -0.051 -0.4778  0.7381  1.1872
   28MOL0     C 3712   1.161   9.350  -0.169 -0.2639  0.2196 -0.7398
   28MOL0     H 3713   1.058   9.729   0.065 -0.1521  1.1722 -1.9438
   28MOL0     H 3714   0.966   9.955   0.168  2.0497  0.9157 -1.5461
   28MOL0     H 3715   1.163  10.075   0.545 -0.6749 -3.3142 -1.3008
   28MOL0     H 3716   1.126  10.242   0.492 -0.0584 -0.2938  2.7004
   28MOL0     H 3717   0.887  10.194   0.529 -0.6310 -0.6365  1.1933
   28MOL0     H 3718   0.988  10.171   0.673  0.2229  0.2332 -1.3797
   28MOL0     H 3719   0.981   9.929   0.675 -0.9922  2.1148  4.0856
   28MOL0     H 3720   0.916   9.934   0.507 -0.2236  1.3855 -1.3202
   28MOL0     H 3721   0.785   9.901   0.762  2.5882 -0.0708 -1.0581
   28MOL0     H 3722   0.736  10.063   0.717 -1.9808  1.0742 -3.9974
   28MOL0     H 3723   0.707   9.827   0.545  0.9671  0.6340 -1.6164
   28MOL0     H 3724   0.585   9.892   0.667  3.1967  0.3181  3.0502
   28MOL0     H 3725   0.616  10.124   0.518 -0.2330 -0.0904 -0.2944
   28MOL0     H 3726   0.678  10.010   0.404  1.4584  0.1156  0.1221
   28MOL0     H 3727   0.403  10.031   0.521 -0.2166  0.0785 -0.1295
   28MOL0     H 3728   0.465   9.870   0.473  0.4845 -0.5941 -0.8969
   28MOL0     H 3729   0.498   9.950   0.244  2.0953  0.1997  2.0615
   28MOL0     H 3730   0.333   9.986   0.293 -0.2173 -1.3821 -1.0429
   28MOL0     H 3731   0.660  10.131   0.195 -0.1051  0.4206  0.4727
   28MOL0     H 3732   0.782  10.390   0.170 -0.5593 -0.0498  0.3289
   28MOL0     H 3733   0.667  10.489   0.108  4.2508  0.4461  0.0917
   28MOL0     H 3734   0.758  10.627   0.265 -2.5107  2.5117 -1.4947
   28MOL0     H 3735   0.614  10.587   0.358  1.3172  0.0609  2.1666
   28MOL0     H 3736   0.891  10.461   0.362 -0.1232 -0.0667  0.8255
   28MOL0     H 3737   0.767  10.411   0.476 -0.4268 -0.9022 -1.5692
   28MOL0     H 3738   0.762  10.671   0.539 -1.0684 -1.1976 -1.1879
   28MOL0     H 3739   0.886  10.693   0.440 -4.2077  1.5389 -0.4798
   28MOL0     H 3740   0.852  10.768   0.746 -1.7748 -0.0387 -0.3970
   28MOL0     H 3741   0.748  10.782   0.959  2.3865  1.1614 -2.2004
   28MOL0     H 3742   0.341  10.547   1.074  0.6596 -0.4925 -1.0652
   28MOL0     H 3743   0.158  10.515   1.257 -1.6283  2.4209  0.4628
   28MOL0     H 3744   0.243  10.687   1.660 -1.8900 -1.0874  1.6181
   28MOL0     H 3745   0.137  10.798   1.572 -0.3430 -0.7465 -2.3395
   28MOL0     H 3746  -0.054  10.616   1.596 -0.4798  2.1073 -0.9714
   28MOL0     H 3747   0.059  10.537   1.700  2.9838  0.5828  0.5211
   28MOL0     H 3748  -0.011  10.842   1.751  0.3479 -0.1177  0.6450
   28MOL0     H 3749  -0.120  10.720   1.800 -0.9035  2.7096  0.9415
   28MOL0     H 3750  -0.057  10.739   1.992 -2.2252 -5.4713 -0.3893
   28MOL0     H 3751   0.102  10.806   1.942 -0.1940 -0.5638 -1.4677
   28MOL0     H 3752   0.181  10.568   1.893  2.2465 -0.1791  2.6709
   28MOL0     H 3753   0.041  10.505   1.984 -2.5127  1.0114  0.5488
   28MOL0     H 3754   0.264  10.690   2.102 -0.2922  1.0076  0.2671
   28MOL0     H 3755   0.112  10.680   2.177 -0.0631  0.3152  0.2987
   28MOL0     H 3756   0.282  10.425   2.080 -0.2316 -0.7541  0.7404
   28MOL0     H 3757   0.140  10.421   2.159 -3.4586  2.5149 -0.0100
   28MOL0     H 3758   0.373  10.416   2.295  0.5734 -0.5110 -0.9620
   28MOL0     H 3759   0.390  10.580   2.254  0.3688  1.2482  1.9037
   28MOL0     H 3760   0.405  10.748   1.517  2.6135 -1.2073  0.6699
   28MOL0     H 3761   0.582  10.744   1.362 -2.7886  2.8040  3.8694
   28MOL0     H 3762   0.734  10.342   0.964  0.0098  1.1040  1.0645
   28MOL0     H 3763   0.836  10.339   0.735  1.3866 -0.1219 -0.1046
   28MOL0     H 3764   1.300   9.966   0.434  0.2450 -1.8437 -0.2520
   28MOL0     H 3765   1.385   9.753   0.332  0.7611 -0.1223 -4.0891
   28MOL0     H 3766   1.382   9.385   0.271 -2.3615 -2.4653  0.6972
   28MOL0     H 3767   1.512   9.183   0.227  2.6329 -0.1467 -2.1631
   28MOL0     H 3768   1.354   8.920  -0.037 -0.5995 -2.9505 -0.7297
   28MOL0     H 3769   1.415   8.906   0.130 -2.0301 -1.9465 -0.6368
   28MOL0     H 3770   1.466   8.719  -0.032 -2.3081  1.1456  2.7110
   28MOL0     H 3771   1.600   8.794   0.067 -0.4114  3.6512  1.4943
   28MOL0     H 3772   1.685   8.777  -0.194 -2.0262 -2.0922  1.2342
   28MOL0     H 3773   1.679   8.936  -0.120  2.3665 -1.1468 -0.6821
   28MOL0     H 3774   1.461   8.797  -0.282  0.6915 -0.8044  3.4145
   28MOL0     H 3775   1.442   8.961  -0.224  0.8038 -0.5009  2.7722
   28MOL0     H 3776   1.733   8.914  -0.565  0.5268 -2.8053 -0.3447
   28MOL0     H 3777   1.341   9.142  -0.158 -2.7816 -0.3302  0.9209
   28MOL0     H 3778   1.152   9.459  -0.167 -3.0160  0.0497  1.2460
   28MOL0     H 3779   1.188   9.301  -0.263 -1.1833 -0.4308 -0.6775
   28MOL0     H 3780   1.061   9.320  -0.140  0.1664 -1.4582 -0.9063
   29MOL0     O 3781  10.141   1.749   0.233 -0.3375  0.1052 -0.2574
   29MOL0     C 3782  10.042   1.695   0.190 -0.6482  0.1734  0.2315
   29MOL0     O 3783   9.917   1.739   0.216 -0.1866 -0.6412  0.3323
   29MOL0     C 3784   9.885   1.860   0.276  0.1107 -0.1212 -0.3099
   29MOL0     C 3785   9.909   1.982   0.223  0.7122 -0.0747 -0.4679
   29MOL0     C 3786   9.877   2.092   0.302 -0.3618  0.3264 -0.6190
   29MOL0     C 3787   9.831   2.082   0.438  1.0691 -0.2006 -0.1043
   29MOL0     O 3788   9.812   2.202   0.501  0.2952  0.1463 -1.0037
   29MOL0     C 3789   9.856   2.195   0.643  0.0945  0.3051  0.3572
   29MOL0     C 3790   9.752   2.269   0.728 -0.3931  0.7102  0.2580
   29MOL0     C 3791   9.604   2.200   0.731 -0.2131  0.3103 -0.0911
   29MOL0     C 3792   9.582   2.080   0.832 -1.1631  0.0121 -0.4421
   29MOL0     C 3793   9.512   2.121   0.959 -0.5364  0.4187 -1.7635
   29MOL0     C 3794   9.498   2.000   1.060 -0.6756 -0.0721 -0.7356
   29MOL0     C 3795   9.441   1.860   1.006 -0.0782 -0.0524  0.5483
   29MOL0     C 3796   9.442   1.741   1.102  0.1226 -0.9181 -0.5172
   29MOL0     N 3797   9.581   1.684   1.119  0.4427  0.0831 -0.2546
   29MOL0     C 3798   9.654   1.659   1.240  0.4839  0.4783 -0.4483
   29MOL0     C 3799   9.766   1.586   1.204  0.7482 -0.2987  0.2231
   29MOL0     C 3800   9.872   1.538   1.286  0.4769  0.2123  0.7240
   29MOL0     C 3801   9.822   1.389   1.325  0.9643  0.4452 -0.3091
   29MOL0     C 3802   9.926   1.307   1.390  0.6152 -0.2567  0.0371
   29MOL0     C 3803   9.910   1.310   1.547  0.2863  0.3289 -0.4176
   29MOL0     O 3804   9.786   1.245   1.586  0.6999  0.3276 -0.1260
   29MOL0     C 3805   9.772   1.214   1.715 -0.1392  0.0068 -1.1033
   29MOL0     C 3806   9.835   1.274   1.824 -1.0811 -0.6089 -0.2859
   29MOL0     C 3807   9.799   1.229   1.956 -0.4924 -0.1125 -0.7926
   29MOL0     C 3808   9.700   1.132   1.987 -0.5409  0.2649  0.9677
   29MOL0     C 3809   9.675   1.069   2.119  0.5340 -0.9026  0.0246
   29MOL0     O 3810   9.773   1.083   2.210 -0.2240  0.2273  0.1626
   29MOL0     C 3811   9.766   1.051   2.347  0.7604 -0.4695  0.3740
   29MOL0     C 3812   9.852   1.118   2.431  0.1968  0.3735 -0.4170
   29MOL0     C 3813   9.834   1.115   2.567 -0.5587 -0.5639 -0.0218
   29MOL0     C 3814   9.723   1.041   2.626  0.5857  0.2711  0.2573
   29MOL0     O 3815   9.703   1.050   2.764 -0.5444 -0.3870  0.6114
   29MOL0     C 3816   9.589   0.999   2.833  0.2591  0.2882  0.4132
   29MOL0     C 3817   9.598   0.990   2.979 -0.6815  0.4230 -0.3138
   29MOL0     C 3818   9.636   1.125   3.048 -0.5255 -0.0949 -0.4264
   29MOL0     C 3819   9.633   1.096   3.199  0.4759 -0.1079  0.2416
   29MOL0     C 3820   9.659   1.222   3.284  0.0741  0.0114 -0.3791
   29MOL0     C 3821   9.810   1.255   3.270  0.2650 -0.6569  0.3850
   29MOL0     C 3822   9.888   1.176   3.376  0.0003 -0.1508 -0.8645
   29MOL0     C 3823  10.029   1.135   3.327  0.4746 -0.7121 -0.2326
   29MOL0    Cl 3824  10.104   1.300   3.312 -0.1192  0.3558  0.0459
   29MOL0     C 3825   9.635   0.976   2.534  0.2980 -0.2976  1.0238
   29MOL0     C 3826   9.661   0.979   2.404  0.2406 -0.8652  0.0811
   29MOL0     O 3827   9.564   1.010   2.134 -0.7130 -0.1164 -0.8479
   29MOL0     C 3828   9.642   1.066   1.872 -0.1190 -0.5391 -0.4564
   29MOL0     C 3829   9.678   1.108   1.739 -0.0819  0.8022 -0.0462
   29MOL0     N 3830   9.757   1.564   1.072  0.0312 -0.3301  0.3731
   29MOL0     N 3831   9.653   1.625   1.014 -0.2906 -0.2542  0.4913
   29MOL0     C 3832   9.791   1.954   0.480 -0.8360 -0.0589 -0.4894
   29MOL0     C 3833   9.819   1.846   0.402  0.0236 -0.5326 -1.2692
   29MOL0     C 3834  10.065   1.583   0.105  0.1108  0.0579 -0.6712
   29MOL0     C 3835   9.949   1.537   0.036  0.7574 -0.3988  0.9804
   29MOL0     C 3836   9.958   1.431  -0.049 -0.4087 -0.4429  0.0777
   29MOL0     C 3837  10.085   1.359  -0.068 -0.7575  0.3291 -0.8908
   29MOL0     O 3838  10.105   1.243  -0.144  0.2548  0.3538 -0.5019
   29MOL0     C 3839   9.990   1.141  -0.143  0.6830 -0.4834  0.2189
   29MOL0     C 3840  10.032   0.996  -0.096 -0.4938 -0.9527 -0.2408
   29MOL0     C 3841  10.099   0.925  -0.208  0.5059 -0.2298 -0.0536
   29MOL0     C 3842  10.003   0.894  -0.326 -0.7811 -0.1930  0.6869
   29MOL0     C 3843   9.865   0.833  -0.297 -0.7746 -0.2582 -0.1451
   29MOL0     C 3844   9.754   0.788  -0.277  0.2193  0.6192 -0.2075
   29MOL0     C 3845  10.195   1.414  -0.005 -0.1632 -1.0456  0.2850
   29MOL0     C 3846  10.191   1.522   0.089  0.0507  0.4567 -0.0504
   29MOL0     C 3847  10.333   1.553   0.151  0.4460 -0.6060 -0.2687
   29MOL0     H 3848   9.971   2.009   0.138  0.1936  1.8135 -0.3043
   29MOL0     H 3849   9.908   2.188   0.261  2.4102  0.6438  1.8205
   29MOL0     H 3850   9.860   2.099   0.694 -1.1193  0.6511  1.1427
   29MOL0     H 3851   9.953   2.244   0.654  0.5643 -0.4919 -0.1142
   29MOL0     H 3852   9.743   2.373   0.695 -4.0583 -0.4046 -2.8819
   29MOL0     H 3853   9.794   2.257   0.829 -0.6794 -2.5904  0.0982
   29MOL0     H 3854   9.580   2.173   0.628  2.4069  0.2363 -0.7502
   29MOL0     H 3855   9.529   2.279   0.747 -2.7678 -1.5194 -2.0914
   29MOL0     H 3856   9.516   2.008   0.782  2.6470 -2.7234 -2.0408
   29MOL0     H 3857   9.675   2.027   0.853  0.0308  2.0432 -0.3518
   29MOL0     H 3858   9.575   2.203   0.995 -1.4706  2.0667 -3.6729
   29MOL0     H 3859   9.412   2.157   0.933 -0.4934 -0.1560 -2.7637
   29MOL0     H 3860   9.600   1.987   1.097 -1.5303 -0.3128  1.7507
   29MOL0     H 3861   9.433   2.027   1.144  0.0278 -1.2064  0.2089
   29MOL0     H 3862   9.510   1.840   0.924  2.1512  1.5768  1.9011
   29MOL0     H 3863   9.345   1.866   0.955 -0.3735 -3.2572  0.5249
   29MOL0     H 3864   9.411   1.787   1.197  0.8783 -0.6155 -0.4100
   29MOL0     H 3865   9.377   1.659   1.071  1.5151 -2.4018  0.3685
   29MOL0     H 3866   9.627   1.687   1.342  0.8268 -3.1188  0.7486
   29MOL0     H 3867   9.961   1.542   1.223  0.0264 -0.8310 -0.0188
   29MOL0     H 3868   9.882   1.604   1.372  1.8072  1.6497 -0.4790
   29MOL0     H 3869   9.728   1.390   1.380  0.3651 -0.3516 -1.2743
   29MOL0     H 3870   9.806   1.335   1.231  0.5381  0.1277 -0.0566
   29MOL0     H 3871  10.022   1.349   1.361  0.3680  1.9851  2.1505
   29MOL0     H 3872   9.921   1.202   1.361 -0.1761  0.0791 -1.1228
   29MOL0     H 3873   9.903   1.413   1.583  0.0517  0.1669  0.0059
   29MOL0     H 3874  10.000   1.276   1.598 -0.6163 -0.4753  0.6738
   29MOL0     H 3875   9.903   1.355   1.803 -3.0593  0.5288 -3.0959
   29MOL0     H 3876   9.864   1.279   2.027  0.1104  0.5040 -1.7472
   29MOL0     H 3877   9.935   1.179   2.398 -1.3053  2.8018  0.0843
   29MOL0     H 3878   9.896   1.163   2.642 -0.7217  0.3246 -0.4475
   29MOL0     H 3879   9.500   1.060   2.818  0.9134  1.5614  1.4978
   29MOL0     H 3880   9.578   0.902   2.784 -2.1502 -1.2054  3.5838
   29MOL0     H 3881   9.496   0.973   3.014 -0.0676 -0.4225  1.1231
   29MOL0     H 3882   9.672   0.914   3.002  0.6513  1.6967 -0.2360
   29MOL0     H 3883   9.735   1.143   3.006 -1.2755 -2.5167 -3.6605
   29MOL0     H 3884   9.562   1.199   3.014 -3.0980 -1.2809  2.1601
   29MOL0     H 3885   9.710   1.021   3.218 -1.5921 -2.7390 -1.0933
   29MOL0     H 3886   9.534   1.055   3.221 -0.6593  0.0152 -3.7624
   29MOL0     H 3887   9.637   1.198   3.388 -0.0264  0.4135 -0.3064
   29MOL0     H 3888   9.590   1.297   3.245 -1.4211 -1.9661 -1.7561
   29MOL0     H 3889   9.846   1.239   3.167  1.6444  1.2633  0.5220
   29MOL0     H 3890   9.830   1.362   3.277 -0.6358 -0.1468 -3.0184
   29MOL0     H 3891   9.836   1.085   3.409  3.1311 -1.0778  2.0962
   29MOL0     H 3892   9.900   1.237   3.466 -0.4330 -3.7436  1.8462
   29MOL0     H 3893  10.083   1.080   3.404  3.5091  3.1902  0.7227
   29MOL0     H 3894  10.013   1.088   3.229 -2.1000 -0.6662  0.0938
   29MOL0     H 3895   9.549   0.925   2.573  0.1849 -1.3216 -0.4818
   29MOL0     H 3896   9.588   0.922   2.347  0.4634 -1.0021 -0.0676
   29MOL0     H 3897   9.575   0.982   1.882 -1.0515  0.1310 -0.8760
   29MOL0     H 3898   9.621   1.061   1.660  3.7059  2.0503 -3.9491
   29MOL0     H 3899   9.736   1.937   0.572 -0.8848 -0.3326 -0.5681
   29MOL0     H 3900   9.793   1.750   0.445  1.3556 -0.0230  0.8334
   29MOL0     H 3901   9.858   1.594   0.049  1.2789  0.9145 -0.8096
   29MOL0     H 3902   9.866   1.401  -0.098 -0.0529 -1.6251  0.0825
   29MOL0     H 3903   9.944   1.140  -0.242 -0.4238  1.3389  0.6616
   29MOL0     H 3904   9.905   1.172  -0.081  0.4628  0.8940 -0.7164
   29MOL0     H 3905   9.938   0.944  -0.074 -1.4835 -1.3566 -4.4321
   29MOL0     H 3906  10.102   1.011  -0.013 -2.8258  1.5266  1.4352
   29MOL0     H 3907  10.130   0.826  -0.173  0.7389  0.0127  0.4236
   29MOL0     H 3908  10.177   0.991  -0.246 -0.3829  1.4748  0.9603
   29MOL0     H 3909   9.980   0.979  -0.391 -0.9761  0.7254  1.9253
   29MOL0     H 3910  10.053   0.815  -0.385 -2.2454 -1.3986  0.9917
   29MOL0     H 3911   9.667   0.737  -0.241  0.1144  0.9120 -0.0443
   29MOL0     H 3912  10.289   1.363  -0.024  0.1036 -1.9407  3.4583
   29MOL0     H 3913  10.403   1.470   0.147 -0.9032 -1.9650  2.1377
   29MOL0     H 3914  10.373   1.640   0.098  2.6690  0.1142  2.3611
   29MOL0     H 3915  10.314   1.580   0.255 -2.2084  3.0312 -1.4602
   30MOL0     O 3916   3.025   1.472   8.788 -0.2007 -0.3119  0.1791
   30MOL0     C 3917   3.033   1.574   8.861  0.2222  0.6501  0.0735
   30MOL0     O 3918   3.012   1.568   8.995  0.1399  0.5149  0.2139
   30MOL0     C 3919   2.911   1.486   9.025  0.7750  0.2348 -1.0991
   30MOL0     C 3920   2.778   1.510   8.981 -0.1645  0.0309  0.5390
   30MOL0     C 3921   2.670   1.432   9.036  0.1533 -0.6962  0.0477
   30MOL0     C 3922   2.694   1.333   9.132  0.2219  0.2626 -0.1726
   30MOL0     O 3923   2.602   1.255   9.198  0.5708 -0.5226 -0.0010
   30MOL0     C 3924   2.517   1.173   9.107 -0.8684  0.4134 -0.3938
   30MOL0     C 3925   2.599   1.066   9.026  0.2399 -0.1176 -0.6325
   30MOL0     C 3926   2.511   0.938   9.029 -0.0120  0.0354 -0.2869
   30MOL0     C 3927   2.582   0.821   8.947 -0.3606  0.9630 -0.2990
   30MOL0     C 3928   2.480   0.707   8.936  0.4546 -1.0399  0.1630
   30MOL0     C 3929   2.544   0.567   8.912 -0.3606  0.0484 -0.8767
   30MOL0     C 3930   2.450   0.461   8.853 -0.0426  0.0549  0.0911
   30MOL0     C 3931   2.403   0.492   8.707 -0.4439  0.1543  0.0779
   30MOL0     N 3932   2.329   0.376   8.651  0.4695  0.1077 -0.5932
   30MOL0     C 3933   2.216   0.309   8.708 -0.6206  0.9414 -0.2652
   30MOL0     C 3934   2.188   0.214   8.614  0.8202  0.1528  0.0122
   30MOL0     C 3935   2.080   0.113   8.640  0.2201 -0.5649 -0.0835
   30MOL0     C 3936   1.933   0.158   8.644 -0.1417 -0.5747  0.6532
   30MOL0     C 3937   1.872   0.189   8.507 -0.7070 -1.0241 -0.0099
   30MOL0     C 3938   1.878   0.069   8.411  0.0594  0.2833  0.6999
   30MOL0     O 3939   1.847  -0.056   8.462  0.8220  0.2282  0.0934
   30MOL0     C 3940   1.835  -0.166   8.376 -0.6610  0.1249  0.8963
   30MOL0     C 3941   1.773  -0.276   8.431  0.2027 -0.2544  0.0809
   30MOL0     C 3942   1.757  -0.397   8.361 -0.3232 -0.0514  0.0164
   30MOL0     C 3943   1.797  -0.412   8.230  0.3653 -0.0027  0.8185
   30MOL0     C 3944   1.766  -0.535   8.149  0.4992 -0.7180  0.7470
   30MOL0     O 3945   1.692  -0.628   8.208 -0.2614  0.4856  0.7720
   30MOL0     C 3946   1.683  -0.745   8.136 -0.3820 -0.3470  0.1185
   30MOL0     C 3947   1.803  -0.830   8.125  1.2074 -0.9203  0.0604
   30MOL0     C 3948   1.772  -0.964   8.095  0.3862 -0.6751  0.1864
   30MOL0     C 3949   1.642  -1.004   8.053  0.7723 -0.3365  0.8069
   30MOL0     O 3950   1.625  -1.132   8.013 -0.6806  0.0876  0.0933
   30MOL0     C 3951   1.614  -1.221   8.117 -0.6363  0.0602  0.0169
   30MOL0     C 3952   1.588  -1.364   8.074 -0.1676  0.5934 -0.5369
   30MOL0     C 3953   1.443  -1.396   8.032 -0.2909  0.5298 -0.1042
   30MOL0     C 3954   1.419  -1.357   7.882  0.1365  0.1718 -0.3888
   30MOL0     C 3955   1.296  -1.435   7.834  0.2308 -0.3794  0.1442
   30MOL0     C 3956   1.268  -1.415   7.689  0.1034  0.0239 -0.6953
   30MOL0     C 3957   1.141  -1.484   7.649  0.9747  0.7949  0.4505
   30MOL0     C 3958   1.155  -1.646   7.632 -0.0505 -1.0750  0.6179
   30MOL0    Cl 3959   0.995  -1.733   7.657  0.0433 -0.2567  0.5419
   30MOL0     C 3960   1.536  -0.912   8.045  0.5128  0.0404  0.2967
   30MOL0     C 3961   1.559  -0.785   8.095 -0.1982 -0.2546  0.2407
   30MOL0     O 3962   1.815  -0.548   8.036 -0.2818 -0.8048  0.3566
   30MOL0     C 3963   1.868  -0.306   8.172 -0.2055  0.4534 -0.0783
   30MOL0     C 3964   1.884  -0.183   8.244 -0.3802  0.3043  0.0661
   30MOL0     N 3965   2.273   0.226   8.509 -0.2779 -0.3992  0.8890
   30MOL0     N 3966   2.355   0.327   8.534  0.0136  0.7488  0.0250
   30MOL0     C 3967   2.826   1.320   9.182  0.4780  0.3880  0.6890
   30MOL0     C 3968   2.929   1.387   9.124 -0.7943  0.8714  0.5778
   30MOL0     C 3969   3.092   1.705   8.815 -0.0693 -1.1076  0.5122
   30MOL0     C 3970   3.158   1.788   8.909 -0.7338  0.4025 -0.2279
   30MOL0     C 3971   3.237   1.899   8.866  0.3551  0.7116  0.2045
   30MOL0     C 3972   3.252   1.934   8.729  0.1236  0.4112  0.0805
   30MOL0     O 3973   3.322   2.044   8.687  0.0968  0.3241  0.0977
   30MOL0     C 3974   3.400   2.112   8.779  0.2342 -0.6284  0.6540
   30MOL0     C 3975   3.526   2.031   8.793 -0.1978  0.3888 -0.3020
   30MOL0     C 3976   3.623   2.036   8.673 -0.6095 -0.0761  0.4465
   30MOL0     C 3977   3.765   2.021   8.721 -0.3358 -0.0043  0.0297
   30MOL0     C 3978   3.794   1.895   8.790 -0.3164 -0.2295  0.6447
   30MOL0     C 3979   3.817   1.782   8.829 -0.6899 -0.6640  0.0055
   30MOL0     C 3980   3.177   1.856   8.634  0.5643  0.6330 -0.7693
   30MOL0     C 3981   3.091   1.753   8.677  0.5226  0.1733  0.8081
   30MOL0     C 3982   3.008   1.700   8.563 -0.2910 -1.2502 -0.2287
   30MOL0     H 3983   2.756   1.594   8.916 -2.7844 -0.4371  0.7333
   30MOL0     H 3984   2.566   1.429   9.006  0.4245 -0.7091 -0.9373
   30MOL0     H 3985   2.436   1.133   9.168  1.1254 -1.0359  1.4459
   30MOL0     H 3986   2.474   1.250   9.042  1.1437  2.2004  0.2519
   30MOL0     H 3987   2.695   1.038   9.070 -0.2201 -0.6368  0.0598
   30MOL0     H 3988   2.611   1.111   8.927  0.9184 -1.0192 -0.9685
   30MOL0     H 3989   2.426   0.974   8.970  1.1779  0.9390 -1.5022
   30MOL0     H 3990   2.482   0.914   9.131  0.3275  2.2254  0.3854
   30MOL0     H 3991   2.612   0.846   8.844 -1.7719 -2.5052 -1.7294
   30MOL0     H 3992   2.665   0.784   9.008 -0.5856  0.8209 -0.0756
   30MOL0     H 3993   2.409   0.712   9.019 -0.4878 -0.0438 -0.6684
   30MOL0     H 3994   2.416   0.736   8.851  0.1192 -0.4782  0.5996
   30MOL0     H 3995   2.639   0.578   8.859 -0.9988  0.5494 -1.9468
   30MOL0     H 3996   2.568   0.524   9.010 -2.3209  0.7374 -0.0418
   30MOL0     H 3997   2.356   0.454   8.908 -0.1884  1.6984  0.1106
   30MOL0     H 3998   2.503   0.367   8.865 -1.9749 -0.8001  3.0601
   30MOL0     H 3999   2.333   0.576   8.709 -0.9731 -0.2891  1.0493
   30MOL0     H 4000   2.487   0.525   8.645 -0.5085  1.2898  0.5691
   30MOL0     H 4001   2.177   0.323   8.807 -0.7878  2.9792 -0.5831
   30MOL0     H 4002   2.086   0.046   8.554 -1.6761  0.9386 -1.5095
   30MOL0     H 4003   2.105   0.063   8.733 -0.2350  1.7947  1.3902
   30MOL0     H 4004   1.866   0.084   8.686 -1.7806  1.3498  1.6083
   30MOL0     H 4005   1.930   0.251   8.702 -2.8038  1.3866 -2.3146
   30MOL0     H 4006   1.923   0.265   8.446 -1.6015 -1.0783 -0.8545
   30MOL0     H 4007   1.772   0.232   8.511 -0.7732 -1.1996  0.2016
   30MOL0     H 4008   1.974   0.062   8.359 -0.7003  0.4893 -0.7858
   30MOL0     H 4009   1.804   0.086   8.333 -2.9554  1.6706  3.6330
   30MOL0     H 4010   1.744  -0.270   8.535  1.7360 -1.2601  0.6144
   30MOL0     H 4011   1.698  -0.475   8.408 -0.4696  0.2573  0.3527
   30MOL0     H 4012   1.900  -0.802   8.164  2.7056 -3.9244 -1.1883
   30MOL0     H 4013   1.842  -1.047   8.096 -1.2092 -2.0753  0.3064
   30MOL0     H 4014   1.699  -1.219   8.187 -1.1953 -1.8851  0.8250
   30MOL0     H 4015   1.531  -1.179   8.175  0.0597  1.8565 -0.2254
   30MOL0     H 4016   1.653  -1.379   7.988 -4.0084  2.0240 -4.0194
   30MOL0     H 4017   1.616  -1.430   8.157  1.3677 -1.0578 -2.2758
   30MOL0     H 4018   1.409  -1.499   8.043  1.0144  0.0863 -0.1458
   30MOL0     H 4019   1.373  -1.339   8.095 -0.5896  1.9413 -1.6402
   30MOL0     H 4020   1.506  -1.383   7.822 -0.5838  1.6757 -2.1684
   30MOL0     H 4021   1.389  -1.252   7.875  3.0664  1.4374  3.0419
   30MOL0     H 4022   1.211  -1.406   7.896 -1.0338  0.6288 -1.9180
   30MOL0     H 4023   1.313  -1.542   7.844 -0.5172 -0.5065  0.1455
   30MOL0     H 4024   1.258  -1.310   7.660 -1.8942 -0.2845 -1.3160
   30MOL0     H 4025   1.344  -1.472   7.635  2.0644  0.1878  1.7727
   30MOL0     H 4026   1.105  -1.449   7.552  0.9171 -0.7642 -0.1283
   30MOL0     H 4027   1.071  -1.477   7.733  1.4580  1.3748  0.8069
   30MOL0     H 4028   1.197  -1.666   7.534  1.9343 -2.0013  1.6012
   30MOL0     H 4029   1.227  -1.698   7.695 -1.2434 -4.6781 -0.7288
   30MOL0     H 4030   1.437  -0.958   8.045 -0.1692  1.4428  1.2001
   30MOL0     H 4031   1.472  -0.732   8.131  0.9897  1.5078  0.6605
   30MOL0     H 4032   1.889  -0.314   8.066 -0.8461 -2.2537 -0.0732
   30MOL0     H 4033   1.947  -0.102   8.208  1.9499 -1.0323  0.9012
   30MOL0     H 4034   2.831   1.247   9.262 -0.6058 -2.2588 -1.4715
   30MOL0     H 4035   3.031   1.371   9.157 -2.0125 -0.4874  4.1736
   30MOL0     H 4036   3.173   1.767   9.015  1.3004  1.6075 -0.2305
   30MOL0     H 4037   3.288   1.949   8.948  3.4455  1.0458 -1.7564
   30MOL0     H 4038   3.352   2.133   8.875  0.1021  0.1651  0.4243
   30MOL0     H 4039   3.430   2.211   8.744 -1.3596  0.3823  2.0223
   30MOL0     H 4040   3.509   1.926   8.818  1.4709  0.6751  2.5649
   30MOL0     H 4041   3.576   2.071   8.882  1.0959 -0.8646 -0.4283
   30MOL0     H 4042   3.622   2.130   8.617  2.5429 -0.3992 -0.3085
   30MOL0     H 4043   3.596   1.966   8.594 -0.0032  1.5446 -1.2767
   30MOL0     H 4044   3.834   2.031   8.637  0.2284 -2.3038  0.1552
   30MOL0     H 4045   3.782   2.105   8.790 -0.5603  0.5251 -0.5514
   30MOL0     H 4046   3.823   1.680   8.860 -2.2712 -0.0652  2.6196
   30MOL0     H 4047   3.172   1.875   8.528  1.2973  2.5976 -0.4978
   30MOL0     H 4048   3.054   1.614   8.515 -0.5796 -1.7423  0.3643
   30MOL0     H 4049   2.910   1.658   8.585 -1.9067 -0.4144 -4.6191
   30MOL0     H 4050   2.997   1.785   8.494  1.9495 -2.2150 -1.8808
   31MOL0     O 4051   2.289   9.330   1.267  0.2063 -0.5228  0.7065
   31MOL0     C 4052   2.259   9.391   1.368  0.0919 -0.4637  0.7676
   31MOL0     O 4053   2.333   9.499   1.419  0.3230  0.1308 -0.0510
   31MOL0     C 4054   2.268   9.595   1.505 -0.4821  0.7467  0.2824
   31MOL0     C 4055   2.179   9.683   1.450  0.1120 -0.1460  0.3663
   31MOL0     C 4056   2.132   9.792   1.523  0.0377 -0.3027  0.5705
   31MOL0     C 4057   2.170   9.808   1.659  0.1314  0.7154  0.3810
   31MOL0     O 4058   2.151   9.908   1.741 -0.9132 -0.3992  0.6731
   31MOL0     C 4059   2.045  10.002   1.715  0.4588 -0.5096 -0.2362
   31MOL0     C 4060   2.090  10.140   1.775  0.2747  0.5279 -0.2265
   31MOL0     C 4061   2.213  10.189   1.693 -0.5145  0.0309  0.2228
   31MOL0     C 4062   2.296  10.293   1.766 -0.1531  0.0254 -0.0349
   31MOL0     C 4063   2.415  10.346   1.689 -0.0227 -0.1612 -0.6181
   31MOL0     C 4064   2.444  10.490   1.691  0.2103 -0.5288  0.5375
   31MOL0     C 4065   2.376  10.567   1.587  0.1231  0.5042  1.4804
   31MOL0     C 4066   2.367  10.719   1.617  1.0273 -1.0466  0.1228
   31MOL0     N 4067   2.502  10.785   1.630 -0.8772  0.3451 -0.1125
   31MOL0     C 4068   2.524  10.886   1.723  0.5712 -0.5970 -0.3971
   31MOL0     C 4069   2.657  10.906   1.722 -0.3549  0.7453 -1.3664
   31MOL0     C 4070   2.708  10.982   1.843  0.0378  0.2161  0.0221
   31MOL0     C 4071   2.842  11.052   1.803 -0.3978 -0.5716  0.6445
   31MOL0     C 4072   2.845  11.150   1.680  1.0554  0.9031  0.9176
   31MOL0     C 4073   2.984  11.175   1.617 -0.0398  0.0374 -0.0553
   31MOL0     O 4074   3.081  11.241   1.709 -0.1686  0.0238 -0.2215
   31MOL0     C 4075   3.219  11.236   1.675 -0.0808 -0.0314  0.8951
   31MOL0     C 4076   3.299  11.316   1.758 -0.1088  0.8019 -0.5870
   31MOL0     C 4077   3.435  11.331   1.739 -0.1945  0.4398  0.4266
   31MOL0     C 4078   3.495  11.256   1.638  0.6621  0.3808  0.2571
   31MOL0     C 4079   3.629  11.288   1.596  0.0851 -0.7625 -0.7199
   31MOL0     O 4080   3.693  11.389   1.649  0.2364 -0.1942 -0.6373
   31MOL0     C 4081   3.825  11.395   1.686 -0.9198  0.3193 -0.5699
   31MOL0     C 4082   3.874  11.527   1.721  0.0110  0.4882 -1.3806
   31MOL0     C 4083   4.008  11.543   1.771 -0.6130 -0.4905 -0.4148
   31MOL0     C 4084   4.094  11.438   1.773 -1.3196  0.3992 -0.4094
   31MOL0     O 4085   4.221  11.465   1.828  0.0789  0.1753 -0.0467
   31MOL0     C 4086   4.335  11.454   1.742  0.0357 -0.6873 -0.1596
   31MOL0     C 4087   4.477  11.474   1.796  0.0806  0.6439 -0.3858
   31MOL0     C 4088   4.487  11.603   1.869  0.6201 -0.5808 -0.5295
   31MOL0     C 4089   4.633  11.628   1.905 -0.2500 -0.3837 -0.3790
   31MOL0     C 4090   4.692  11.512   2.000  0.3010  0.4744  0.1913
   31MOL0     C 4091   4.635  11.518   2.143 -0.1132 -0.0579  0.1847
   31MOL0     C 4092   4.703  11.420   2.234 -0.2867 -0.3128  0.4351
   31MOL0     C 4093   4.648  11.430   2.379 -0.4637  0.4098 -1.1144
   31MOL0    Cl 4094   4.790  11.372   2.475  0.4295  0.1721  0.2241
   31MOL0     C 4095   4.046  11.305   1.748  0.3586  0.1331 -0.4083
   31MOL0     C 4096   3.917  11.286   1.698  1.1589 -0.3449 -0.6629
   31MOL0     O 4097   3.682  11.201   1.520 -0.2257  0.5327  0.1312
   31MOL0     C 4098   3.415  11.161   1.560  0.3607 -0.4566 -0.1616
   31MOL0     C 4099   3.277  11.146   1.584  0.8654 -0.3887 -0.1040
   31MOL0     N 4100   2.720  10.829   1.625  0.3920  0.0129 -0.2631
   31MOL0     N 4101   2.625  10.765   1.562 -0.0450 -0.9603  0.6626
   31MOL0     C 4102   2.259   9.717   1.715  0.0561  0.6135 -0.0540
   31MOL0     C 4103   2.303   9.608   1.637 -0.9352  0.4943 -0.0453
   31MOL0     C 4104   2.142   9.352   1.447 -0.0160 -0.3174 -0.4519
   31MOL0     C 4105   2.157   9.305   1.582 -0.5881 -0.4379 -0.0498
   31MOL0     C 4106   2.049   9.261   1.653 -0.7552  0.8690 -0.0029
   31MOL0     C 4107   1.917   9.264   1.596 -0.5026  0.1966 -0.5210
   31MOL0     O 4108   1.803   9.209   1.655 -1.1917  0.0259 -0.2652
   31MOL0     C 4109   1.799   9.228   1.792  0.2634 -0.3295  0.3971
   31MOL0     C 4110   1.666   9.261   1.856 -0.2430  0.1114 -0.6888
   31MOL0     C 4111   1.547   9.205   1.789  0.3133 -0.2968 -1.3472
   31MOL0     C 4112   1.411   9.277   1.828  0.2882 -0.0124 -0.3382
   31MOL0     C 4113   1.390   9.254   1.971  0.4382 -0.4355  0.0358
   31MOL0     C 4114   1.393   9.209   2.088  0.6863  0.8910 -0.1025
   31MOL0     C 4115   1.901   9.310   1.470  0.2868 -0.6630  0.2258
   31MOL0     C 4116   2.008   9.364   1.396  0.6915  0.7798  0.1523
   31MOL0     C 4117   1.977   9.419   1.260  0.1777 -0.4364 -0.3566
   31MOL0     H 4118   2.153   9.667   1.346  0.3053 -0.6954  0.3973
   31MOL0     H 4119   2.064   9.856   1.468 -2.8801 -3.1771  0.5167
   31MOL0     H 4120   2.027  10.008   1.607  1.6116 -0.6852 -0.4533
   31MOL0     H 4121   1.956   9.977   1.773  0.3240  0.6853  0.0949
   31MOL0     H 4122   2.127  10.138   1.878  1.7822  1.7388 -0.7120
   31MOL0     H 4123   2.010  10.214   1.765  0.6562  0.8608 -0.9110
   31MOL0     H 4124   2.182  10.222   1.593  1.6219 -1.8351 -1.1593
   31MOL0     H 4125   2.283  10.108   1.674  1.2109  1.5521 -0.2393
   31MOL0     H 4126   2.238  10.380   1.800 -0.1113  0.0338  0.0171
   31MOL0     H 4127   2.337  10.243   1.854 -1.5051  0.3699  0.8294
   31MOL0     H 4128   2.508  10.301   1.722 -1.4502 -3.0916 -0.2329
   31MOL0     H 4129   2.401  10.305   1.588  1.4560  0.8547 -1.2678
   31MOL0     H 4130   2.403  10.513   1.789 -1.5170 -1.6352  0.1263
   31MOL0     H 4131   2.551  10.509   1.674 -0.2730  0.5071 -1.8891
   31MOL0     H 4132   2.275  10.527   1.574  0.8582 -0.6531 -1.5269
   31MOL0     H 4133   2.421  10.562   1.488 -1.4052  1.1965  0.7253
   31MOL0     H 4134   2.325  10.782   1.538  0.0613 -0.8110  0.8088
   31MOL0     H 4135   2.315  10.741   1.710  2.8005  0.0487  0.9075
   31MOL0     H 4136   2.457  10.930   1.798  1.3794  1.4269 -0.8086
   31MOL0     H 4137   2.630  11.057   1.858 -1.0590 -0.8937  0.0448
   31MOL0     H 4138   2.732  10.919   1.929  1.5827  1.1610  0.3138
   31MOL0     H 4139   2.873  11.105   1.893  1.5043 -0.5796  0.0565
   31MOL0     H 4140   2.913  10.972   1.780  0.6323  0.9025 -1.6659
   31MOL0     H 4141   2.804  11.249   1.702  1.9958  1.6918 -0.7392
   31MOL0     H 4142   2.786  11.104   1.601  0.3984 -2.8748  3.3459
   31MOL0     H 4143   2.971  11.236   1.527 -2.6579  0.9115  0.8164
   31MOL0     H 4144   3.018  11.073   1.594 -1.5915 -1.4330  3.3990
   31MOL0     H 4145   3.250  11.355   1.847  0.4968 -1.5635  0.8990
   31MOL0     H 4146   3.495  11.395   1.804 -0.5686 -2.2233  3.6561
   31MOL0     H 4147   3.821  11.621   1.710 -2.2324 -0.1457  2.2876
   31MOL0     H 4148   4.045  11.637   1.811  0.4876 -2.0674  2.5741
   31MOL0     H 4149   4.332  11.357   1.693 -0.9825 -0.1171 -1.2777
   31MOL0     H 4150   4.320  11.531   1.665 -2.6471 -1.2497 -0.2794
   31MOL0     H 4151   4.495  11.384   1.856  3.0417  0.6952 -1.0250
   31MOL0     H 4152   4.547  11.472   1.711  0.9343  0.2832  0.3088
   31MOL0     H 4153   4.450  11.681   1.802 -0.3635 -0.2065  0.4154
   31MOL0     H 4154   4.418  11.614   1.954 -1.9745  0.0308 -2.5850
   31MOL0     H 4155   4.631  11.726   1.955  0.8279  0.1161 -1.2951
   31MOL0     H 4156   4.699  11.639   1.820  1.6364  1.8945  1.2529
   31MOL0     H 4157   4.799  11.533   2.006  0.5645 -0.5153 -0.8518
   31MOL0     H 4158   4.683  11.416   1.949 -3.6541 -0.1323  1.6697
   31MOL0     H 4159   4.663  11.616   2.183 -1.4524 -0.4579  2.2757
   31MOL0     H 4160   4.527  11.499   2.144  0.3459 -3.8673 -2.3560
   31MOL0     H 4161   4.811  11.439   2.228 -0.3573  0.0247  0.2236
   31MOL0     H 4162   4.702  11.322   2.186 -3.9572 -0.0508 -0.3443
   31MOL0     H 4163   4.626  11.534   2.406 -0.5812 -0.4926  2.8349
   31MOL0     H 4164   4.565  11.361   2.391  0.4231 -0.4945  0.1076
   31MOL0     H 4165   4.108  11.216   1.737  2.1046  1.3156 -0.6110
   31MOL0     H 4166   3.877  11.191   1.663 -1.1604  0.5844 -0.7268
   31MOL0     H 4167   3.464  11.105   1.481  1.6673  0.3909  0.0251
   31MOL0     H 4168   3.220  11.079   1.521  1.1842 -0.2171 -0.5813
   31MOL0     H 4169   2.274   9.713   1.822 -3.5778 -1.5823  0.5301
   31MOL0     H 4170   2.379   9.537   1.669 -0.6865 -2.3920 -5.8020
   31MOL0     H 4171   2.259   9.306   1.620 -0.6990  0.0825  0.2563
   31MOL0     H 4172   2.061   9.233   1.757 -1.2170  2.0840  0.3941
   31MOL0     H 4173   1.866   9.309   1.823  0.3501 -1.0518  2.2515
   31MOL0     H 4174   1.841   9.143   1.846 -0.4622  0.7173  2.7626
   31MOL0     H 4175   1.666   9.370   1.856 -1.5952  0.1771 -3.0930
   31MOL0     H 4176   1.666   9.219   1.958  0.4015  0.1511 -0.6700
   31MOL0     H 4177   1.538   9.102   1.826 -2.0030  0.8745  1.8757
   31MOL0     H 4178   1.551   9.200   1.680  0.3309 -3.1889 -1.2796
   31MOL0     H 4179   1.412   9.384   1.807 -2.7101 -0.1234 -1.5247
   31MOL0     H 4180   1.332   9.227   1.771 -1.8851  0.0589  2.3728
   31MOL0     H 4181   1.388   9.167   2.186  3.1503 -0.5856 -0.5185
   31MOL0     H 4182   1.798   9.311   1.436 -0.0696 -4.2670  0.7931
   31MOL0     H 4183   2.051   9.396   1.183 -1.8439 -1.2046 -2.1906
   31MOL0     H 4184   1.893   9.365   1.215  1.1995 -2.1484 -0.3039
   31MOL0     H 4185   1.969   9.528   1.257  0.1891 -0.1545  3.9796
   32MOL0     O 4186   5.208   9.043   4.618  0.2269  0.4223  0.2911
   32MOL0     C 4187   5.322   9.088   4.612  1.0501  0.9063 -0.6465
   32MOL0     O 4188   5.360   9.203   4.546  0.5527  0.3511  0.6558
   32MOL0     C 4189   5.267   9.243   4.454 -1.2329 -0.5108  1.4927
   32MOL0     C 4190   5.220   9.369   4.454 -0.4628 -0.3133  0.4098
   32MOL0     C 4191   5.139   9.416   4.346 -0.1393 -0.7030  0.4386
   32MOL0     C 4192   5.109   9.336   4.238 -0.5363 -0.8541 -0.6534
   32MOL0     O 4193   5.036   9.395   4.146  0.1899 -0.6814  0.2628
   32MOL0     C 4194   4.966   9.326   4.052  0.7339 -0.4457 -0.4866
   32MOL0     C 4195   4.880   9.427   3.973 -0.7949 -1.0809 -0.5190
   32MOL0     C 4196   4.761   9.496   4.056  0.4535 -0.3342  0.0958
   32MOL0     C 4197   4.684   9.577   3.954  0.2744  0.3492 -0.7842
   32MOL0     C 4198   4.551   9.634   4.008  0.8855  0.3916  0.3592
   32MOL0     C 4199   4.562   9.748   4.101 -0.2928  0.0448 -0.0015
   32MOL0     C 4200   4.436   9.829   4.146 -1.0243  0.5531  0.3264
   32MOL0     C 4201   4.470   9.923   4.260  1.1800 -0.9212  0.5463
   32MOL0     N 4202   4.355  10.014   4.292  0.1605  0.1486 -0.0652
   32MOL0     C 4203   4.265   9.967   4.379  0.0847 -0.1373  0.5599
   32MOL0     C 4204   4.173  10.068   4.378  0.1115 -0.4074  0.1529
   32MOL0     C 4205   4.058  10.078   4.467 -0.7063  0.0170  0.4592
   32MOL0     C 4206   3.968   9.948   4.454  0.6423  0.4389 -0.0752
   32MOL0     C 4207   3.830   9.971   4.505 -0.1221  0.4834  0.9253
   32MOL0     C 4208   3.746  10.092   4.462 -0.3577  0.5505 -0.0389
   32MOL0     O 4209   3.749  10.095   4.317  0.0348 -0.5630 -0.4533
   32MOL0     C 4210   3.674  10.178   4.243 -0.3961  0.2507 -0.5088
   32MOL0     C 4211   3.673  10.147   4.113 -0.2835  1.7105 -0.1917
   32MOL0     C 4212   3.586  10.219   4.015 -0.0940  0.7494 -0.2627
   32MOL0     C 4213   3.499  10.316   4.063 -0.5112 -0.3933  0.3512
   32MOL0     C 4214   3.402  10.398   3.985  0.0554  0.5022 -0.2906
   32MOL0     O 4215   3.298  10.448   4.055  0.2744  0.1015 -0.1988
   32MOL0     C 4216   3.183  10.499   3.992 -0.1650  0.1515  0.3185
   32MOL0     C 4217   3.168  10.563   3.870  0.2090  0.7497  0.0570
   32MOL0     C 4218   3.041  10.581   3.816 -0.0010  0.1111 -1.0933
   32MOL0     C 4219   2.928  10.550   3.891  0.1876 -0.6032  1.3153
   32MOL0     O 4220   2.803  10.593   3.865 -0.1219  0.2394  0.4903
   32MOL0     C 4221   2.793  10.730   3.836  0.4518 -0.3398 -0.9824
   32MOL0     C 4222   2.640  10.763   3.832 -1.1763 -0.1644 -0.7817
   32MOL0     C 4223   2.608  10.910   3.852 -0.8055 -0.5761 -0.3329
   32MOL0     C 4224   2.649  11.005   3.742  0.1212 -0.5903 -0.1803
   32MOL0     C 4225   2.649  11.149   3.801  0.0331  0.6987  0.9688
   32MOL0     C 4226   2.709  11.262   3.712  0.0561 -0.1317 -0.1927
   32MOL0     C 4227   2.718  11.402   3.782 -0.6752 -0.7090  0.1248
   32MOL0     C 4228   2.597  11.472   3.823  0.7408  0.1795 -0.4113
   32MOL0    Cl 4229   2.492  11.517   3.685  0.2360  0.4992  0.2018
   32MOL0     C 4230   2.941  10.494   4.017  0.2545  0.0374  0.1205
   32MOL0     C 4231   3.071  10.466   4.066 -0.5150 -1.0478 -0.6885
   32MOL0     O 4232   3.408  10.391   3.857  0.2922 -0.1543  0.7310
   32MOL0     C 4233   3.503  10.336   4.204 -0.8165 -0.1489 -0.3394
   32MOL0     C 4234   3.599  10.273   4.292  0.3541  0.7323  0.6195
   32MOL0     N 4235   4.224  10.173   4.300  1.1239  0.0499  0.5067
   32MOL0     N 4236   4.332  10.136   4.242 -0.3442 -0.3377  0.2313
   32MOL0     C 4237   5.157   9.208   4.240  1.0557  0.0617 -0.1188
   32MOL0     C 4238   5.251   9.166   4.337  0.8154  0.3898 -0.3230
   32MOL0     C 4239   5.417   9.010   4.694 -0.5805  0.5007 -0.9737
   32MOL0     C 4240   5.498   9.097   4.772 -0.6118 -1.2950  0.6268
   32MOL0     C 4241   5.607   9.040   4.848  0.3221 -0.8765  0.0360
   32MOL0     C 4242   5.614   8.903   4.872 -0.9708 -0.4172  0.3466
   32MOL0     O 4243   5.711   8.832   4.945 -0.4155  0.2389 -0.1549
   32MOL0     C 4244   5.786   8.914   5.033  1.0699  0.2370 -0.4369
   32MOL0     C 4245   5.823   8.802   5.129  0.3484  0.5570 -0.0976
   32MOL0     C 4246   5.905   8.832   5.249  0.1489 -0.4080  0.3047
   32MOL0     C 4247   5.914   8.723   5.350 -0.9328 -0.0645  0.1392
   32MOL0     C 4248   5.798   8.635   5.377  0.3892  0.3436 -1.2984
   32MOL0     C 4249   5.724   8.542   5.415 -0.5887 -0.2026 -0.5373
   32MOL0     C 4250   5.520   8.824   4.802 -0.2567 -0.5990 -1.0136
   32MOL0     C 4251   5.426   8.871   4.715  1.6966  0.7811 -0.4699
   32MOL0     C 4252   5.343   8.761   4.653 -0.5026  0.5414  0.9924
   32MOL0     H 4253   5.240   9.426   4.544 -0.9825  1.4497 -0.5459
   32MOL0     H 4254   5.106   9.519   4.343  0.5576 -0.4719  0.3722
   32MOL0     H 4255   5.029   9.295   3.968 -1.7799 -0.3109 -2.5402
   32MOL0     H 4256   4.899   9.252   4.094 -0.4870  0.4648 -0.7611
   32MOL0     H 4257   4.839   9.364   3.893 -3.0057  0.4706 -0.6794
   32MOL0     H 4258   4.941   9.506   3.929 -1.5472  0.1009  0.5140
   32MOL0     H 4259   4.815   9.559   4.127  1.0755 -0.9126  0.1491
   32MOL0     H 4260   4.716   9.411   4.108 -2.3813  0.3429 -1.0519
   32MOL0     H 4261   4.739   9.662   3.913 -1.6065  1.4190 -1.2454
   32MOL0     H 4262   4.661   9.510   3.871  0.0763  2.3458 -2.4454
   32MOL0     H 4263   4.507   9.678   3.918  1.1042  2.4402  1.2064
   32MOL0     H 4264   4.492   9.552   4.050  0.1350  0.1889 -1.0385
   32MOL0     H 4265   4.617   9.712   4.189 -1.3530  0.2365  0.7767
   32MOL0     H 4266   4.618   9.823   4.045 -1.3237  0.8467  0.0092
   32MOL0     H 4267   4.367   9.756   4.188 -0.8193  1.1408  1.7484
   32MOL0     H 4268   4.387   9.886   4.066 -3.3384 -2.0167 -0.2391
   32MOL0     H 4269   4.484   9.862   4.350  2.1285  1.8821  2.4324
   32MOL0     H 4270   4.555   9.984   4.229 -1.5220  2.1129 -1.6678
   32MOL0     H 4271   4.266   9.889   4.454 -3.1032  0.4807  1.4242
   32MOL0     H 4272   4.091  10.075   4.571 -2.1215  0.4296  0.9401
   32MOL0     H 4273   4.003  10.171   4.450 -1.0360 -0.0089  1.3226
   32MOL0     H 4274   3.966   9.917   4.350 -0.4659  3.2451 -0.9838
   32MOL0     H 4275   4.009   9.863   4.510  1.5854  1.3175  0.6178
   32MOL0     H 4276   3.836   9.980   4.614  3.1500 -2.8907  1.2374
   32MOL0     H 4277   3.771   9.880   4.490  2.2759 -1.4705  2.3997
   32MOL0     H 4278   3.785  10.189   4.493 -0.3281  0.6139 -0.2700
   32MOL0     H 4279   3.641  10.088   4.492 -0.9353  0.0238 -1.9592
   32MOL0     H 4280   3.733  10.061   4.086 -0.6235  0.5704  2.4332
   32MOL0     H 4281   3.589  10.204   3.908 -1.5859 -0.5562 -0.1602
   32MOL0     H 4282   3.247  10.600   3.804  0.9177  0.8266  0.9258
   32MOL0     H 4283   3.024  10.624   3.717 -0.0432 -0.1949 -1.2193
   32MOL0     H 4284   2.841  10.791   3.914 -1.1112  0.6713 -0.7658
   32MOL0     H 4285   2.837  10.756   3.740  0.3160  4.4362 -0.0286
   32MOL0     H 4286   2.593  10.725   3.741  2.0932 -1.0820 -2.2190
   32MOL0     H 4287   2.590  10.723   3.921  0.9428 -0.4437  0.3491
   32MOL0     H 4288   2.501  10.923   3.865 -1.5596 -2.6788 -3.3683
   32MOL0     H 4289   2.653  10.945   3.945  0.5634  0.0216 -1.1873
   32MOL0     H 4290   2.570  10.986   3.670 -1.7291  0.6231  1.4263
   32MOL0     H 4291   2.746  10.983   3.696 -0.2032  1.3061 -1.9194
   32MOL0     H 4292   2.705  11.152   3.895  0.6218  1.6396  0.5998
   32MOL0     H 4293   2.543  11.170   3.817  0.5370  2.7119  1.9612
   32MOL0     H 4294   2.806  11.225   3.679  0.8286  0.5548  1.2057
   32MOL0     H 4295   2.652  11.282   3.621  0.8861 -1.0811 -0.9461
   32MOL0     H 4296   2.768  11.474   3.717  2.9496 -1.8625  1.4072
   32MOL0     H 4297   2.791  11.399   3.863  1.0354 -0.2864 -1.3282
   32MOL0     H 4298   2.542  11.416   3.899  0.1635  0.9864 -0.2160
   32MOL0     H 4299   2.614  11.565   3.878 -1.4405 -0.1193  0.8711
   32MOL0     H 4300   2.844  10.466   4.059 -0.3350 -1.4135 -2.0248
   32MOL0     H 4301   3.097  10.419   4.160 -0.0898  0.1972 -0.1557
   32MOL0     H 4302   3.447  10.422   4.241 -4.1023 -0.5916 -3.7158
   32MOL0     H 4303   3.601  10.299   4.398  1.5330  0.5638  0.6486
   32MOL0     H 4304   5.140   9.144   4.154  2.0547 -1.5907  0.8531
   32MOL0     H 4305   5.310   9.079   4.310  1.7795  0.3427  1.7637
   32MOL0     H 4306   5.493   9.206   4.772 -0.9272 -1.2809 -0.9181
   32MOL0     H 4307   5.672   9.109   4.902 -2.0994 -0.1036  2.2121
   32MOL0     H 4308   5.732   8.988   5.092  2.3764 -1.6177  3.3922
   32MOL0     H 4309   5.874   8.965   4.992  0.3946  1.2442 -0.6759
   32MOL0     H 4310   5.871   8.720   5.075  0.5649 -1.0893  2.3946
   32MOL0     H 4311   5.725   8.768   5.165  0.6391 -3.4107 -2.4599
   32MOL0     H 4312   5.843   8.908   5.298 -0.1082 -1.5544  1.8602
   32MOL0     H 4313   6.008   8.867   5.235  0.0831 -0.8135 -1.3972
   32MOL0     H 4314   5.998   8.660   5.319  1.1014  2.3154  0.4727
   32MOL0     H 4315   5.943   8.772   5.444 -2.2931  1.9206 -0.3994
   32MOL0     H 4316   5.670   8.451   5.430  0.1971 -1.6242 -4.8339
   32MOL0     H 4317   5.538   8.719   4.819 -0.0830 -0.7782 -2.2115
   32MOL0     H 4318   5.303   8.818   4.568  0.1743  1.4057  1.2464
   32MOL0     H 4319   5.405   8.675   4.627 -0.6509  1.5425 -3.6347
   32MOL0     H 4320   5.261   8.743   4.723 -1.3303  2.2243  0.5143
   33MOL0     O 4321   6.844   0.140   2.885  0.9745 -0.3916  0.5785
   33MOL0     C 4322   6.936   0.190   2.834  0.2170  0.2477  0.9685
   33MOL0     O 4323   6.935   0.255   2.712  0.4197  0.8066 -0.7743
   33MOL0     C 4324   6.830   0.339   2.687  0.4265  0.4349 -1.3199
   33MOL0     C 4325   6.708   0.281   2.652 -0.6422 -0.0005 -0.0166
   33MOL0     C 4326   6.601   0.372   2.621  0.0254 -0.4433 -0.3055
   33MOL0     C 4327   6.606   0.509   2.629  0.6388  1.3025 -0.6952
   33MOL0     O 4328   6.499   0.591   2.613 -0.2077 -0.3549  0.8049
   33MOL0     C 4329   6.377   0.570   2.676  0.4437 -0.1396  0.0604
   33MOL0     C 4330   6.282   0.697   2.660 -0.7645  0.6588  0.1541
   33MOL0     C 4331   6.191   0.676   2.532 -0.2038 -0.0080 -0.1409
   33MOL0     C 4332   6.274   0.660   2.401 -0.0603 -0.2582  0.0741
   33MOL0     C 4333   6.205   0.744   2.282 -1.4500 -0.3862  0.0035
   33MOL0     C 4334   6.082   0.673   2.232  0.0537  0.0573  0.4030
   33MOL0     C 4335   6.032   0.725   2.094  0.2433 -0.4453 -0.6328
   33MOL0     C 4336   5.979   0.622   1.999  0.7991  0.0413  0.2443
   33MOL0     N 4337   5.957   0.679   1.860 -0.0887 -0.3710  0.4980
   33MOL0     C 4338   6.052   0.731   1.777  0.2443 -0.3914 -0.2799
   33MOL0     C 4339   5.988   0.768   1.667 -0.3934  0.7481  0.6894
   33MOL0     C 4340   6.065   0.800   1.545  0.1621  0.4477 -0.3508
   33MOL0     C 4341   5.995   0.748   1.426  0.2469 -0.6435  0.4647
   33MOL0     C 4342   6.069   0.748   1.288 -0.1058 -0.1505  0.1445
   33MOL0     C 4343   6.183   0.652   1.287  0.3082 -0.5535  0.8776
   33MOL0     O 4344   6.237   0.643   1.149 -0.3590 -0.0362 -0.3627
   33MOL0     C 4345   6.376   0.632   1.122  0.1539  0.4118 -0.3967
   33MOL0     C 4346   6.472   0.611   1.217 -1.1143  1.5713 -0.0351
   33MOL0     C 4347   6.603   0.595   1.179 -0.2031  0.4915  0.8707
   33MOL0     C 4348   6.646   0.614   1.043 -0.0569  0.2000 -0.1629
   33MOL0     C 4349   6.786   0.595   1.013 -0.3532 -0.9122  0.9486
   33MOL0     O 4350   6.863   0.528   1.105  0.2382 -0.0540 -0.1998
   33MOL0     C 4351   6.993   0.507   1.086 -0.7991  0.3965  0.0716
   33MOL0     C 4352   7.060   0.472   0.968 -0.1857 -1.3821 -0.2000
   33MOL0     C 4353   7.200   0.441   0.970 -0.6083 -0.5479 -1.2040
   33MOL0     C 4354   7.268   0.438   1.098  0.1264  0.3136  0.0317
   33MOL0     O 4355   7.404   0.421   1.090 -0.9697  1.0749 -0.5449
   33MOL0     C 4356   7.476   0.498   1.193 -0.2048 -1.6176 -0.2097
   33MOL0     C 4357   7.617   0.515   1.151  0.1372  0.1960  0.3282
   33MOL0     C 4358   7.639   0.620   1.039  0.5544  0.1697  0.0477
   33MOL0     C 4359   7.784   0.628   0.996  0.1617 -0.2587  0.9723
   33MOL0     C 4360   7.826   0.516   0.899 -0.5040 -0.1353  0.4840
   33MOL0     C 4361   7.982   0.515   0.888 -0.7308  0.3285 -0.2492
   33MOL0     C 4362   8.028   0.403   0.793  0.4372  0.4329  0.5271
   33MOL0     C 4363   8.177   0.386   0.794 -0.1168 -0.0754  0.4200
   33MOL0    Cl 4364   8.252   0.522   0.708  0.4925 -0.0608  0.1004
   33MOL0     C 4365   7.192   0.447   1.225 -0.3481 -1.2004 -0.1033
   33MOL0     C 4366   7.061   0.495   1.206  0.0076 -0.3350 -0.3774
   33MOL0     O 4367   6.822   0.639   0.905  0.0689  0.3524  0.2162
   33MOL0     C 4368   6.552   0.628   0.942 -0.7099  0.2874 -1.2691
   33MOL0     C 4369   6.421   0.646   0.992  0.3596  0.2550 -0.8287
   33MOL0     N 4370   5.856   0.754   1.687  0.1718  0.5971  0.6684
   33MOL0     N 4371   5.835   0.700   1.798 -1.3934  0.4187 -0.1240
   33MOL0     C 4372   6.728   0.563   2.680  0.3771  0.8620  0.0343
   33MOL0     C 4373   6.832   0.474   2.713  0.4420  0.2332  1.0029
   33MOL0     C 4374   7.062   0.176   2.910  0.7231 -0.2410 -0.2898
   33MOL0     C 4375   7.054   0.109   3.031 -0.5848 -1.1683 -0.0278
   33MOL0     C 4376   7.169   0.097   3.111 -0.8182 -0.7197 -1.1249
   33MOL0     C 4377   7.285   0.147   3.082 -0.2567  0.7025  0.4211
   33MOL0     O 4378   7.390   0.159   3.165 -0.8187 -0.6825  0.1163
   33MOL0     C 4379   7.386   0.106   3.298  0.3812 -1.4171  0.2084
   33MOL0     C 4380   7.307   0.199   3.393  0.7506 -0.0996  0.3143
   33MOL0     C 4381   7.365   0.345   3.392  0.0780 -0.4367 -0.0730
   33MOL0     C 4382   7.294   0.448   3.469  0.6159  0.8875 -0.0609
   33MOL0     C 4383   7.345   0.590   3.448  0.8656 -1.0164  0.5162
   33MOL0     C 4384   7.376   0.710   3.445  1.4359  0.4158 -0.2641
   33MOL0     C 4385   7.297   0.215   2.954 -0.1835 -0.4490 -0.1585
   33MOL0     C 4386   7.185   0.230   2.876 -0.3759  0.2929  0.1713
   33MOL0     C 4387   7.200   0.335   2.768  0.7767 -0.0770 -0.9733
   33MOL0     H 4388   6.699   0.173   2.645 -0.0650 -0.4133  3.7249
   33MOL0     H 4389   6.500   0.340   2.596 -0.7190  0.2293  1.6178
   33MOL0     H 4390   6.323   0.482   2.640 -0.8827  1.4254 -2.0687
   33MOL0     H 4391   6.394   0.554   2.783  0.2641  1.5790  0.3864
   33MOL0     H 4392   6.330   0.795   2.663  0.6320  0.0976 -1.9249
   33MOL0     H 4393   6.214   0.694   2.746 -0.6237 -1.1873  0.2512
   33MOL0     H 4394   6.118   0.756   2.517  0.9319  1.0291 -0.2150
   33MOL0     H 4395   6.125   0.590   2.546 -1.2004  0.5285 -1.3179
   33MOL0     H 4396   6.373   0.703   2.420 -1.4885  3.0989  0.5498
   33MOL0     H 4397   6.283   0.555   2.372  2.2753 -0.2129  0.4715
   33MOL0     H 4398   6.168   0.842   2.315  0.4538  0.7107 -0.9710
   33MOL0     H 4399   6.286   0.761   2.211  0.2418  1.3119  2.1947
   33MOL0     H 4400   6.103   0.567   2.211 -1.8305  0.0992 -2.1643
   33MOL0     H 4401   6.008   0.685   2.311 -1.0415 -0.3187 -0.5397
   33MOL0     H 4402   6.123   0.757   2.042  0.1718  0.8134 -0.0111
   33MOL0     H 4403   5.965   0.811   2.099 -2.4050 -2.4284  0.7044
   33MOL0     H 4404   6.055   0.543   2.009  2.5042  1.5891 -0.0068
   33MOL0     H 4405   5.890   0.581   2.047  0.9322  2.3010  2.6690
   33MOL0     H 4406   6.158   0.718   1.798 -0.3396  0.1023  3.5694
   33MOL0     H 4407   6.076   0.908   1.532  0.2017  0.5021  0.1152
   33MOL0     H 4408   6.169   0.767   1.555 -0.0081  0.5250  2.5411
   33MOL0     H 4409   5.964   0.646   1.450  0.7638 -0.8298  0.3515
   33MOL0     H 4410   5.908   0.814   1.429  3.1572  3.5418  1.3957
   33MOL0     H 4411   6.110   0.848   1.271 -1.9550  0.9508  1.7983
   33MOL0     H 4412   6.004   0.719   1.204 -0.3727 -1.9605  0.9353
   33MOL0     H 4413   6.136   0.556   1.308 -0.6641  0.0731  1.6685
   33MOL0     H 4414   6.262   0.660   1.362 -0.1584  0.8817  1.2546
   33MOL0     H 4415   6.458   0.616   1.325 -0.0770 -2.5375  0.4571
   33MOL0     H 4416   6.676   0.565   1.254  1.4076  1.7639 -0.1272
   33MOL0     H 4417   6.999   0.483   0.879 -2.3097 -0.6612  1.2464
   33MOL0     H 4418   7.265   0.444   0.884 -0.7590  1.8842 -1.3203
   33MOL0     H 4419   7.434   0.599   1.192  3.1766 -0.0737 -0.6426
   33MOL0     H 4420   7.483   0.457   1.294  0.1187 -2.4764 -0.5748
   33MOL0     H 4421   7.668   0.551   1.241  3.2917 -0.1504 -1.1776
   33MOL0     H 4422   7.659   0.414   1.139 -2.2997 -0.5508 -3.3761
   33MOL0     H 4423   7.581   0.582   0.954 -0.8891 -2.3075  2.0019
   33MOL0     H 4424   7.595   0.716   1.066 -5.2341 -1.9916 -0.2831
   33MOL0     H 4425   7.853   0.626   1.081  1.9989  4.4349 -0.1183
   33MOL0     H 4426   7.806   0.720   0.942 -1.8506 -0.2445  0.0812
   33MOL0     H 4427   7.798   0.535   0.795  2.9217 -0.5803 -0.6534
   33MOL0     H 4428   7.785   0.420   0.930 -1.6279  0.3753  0.6451
   33MOL0     H 4429   8.020   0.611   0.852  2.2255 -0.0336  1.5904
   33MOL0     H 4430   8.023   0.497   0.988  0.1122  1.8813 -0.2856
   33MOL0     H 4431   8.002   0.423   0.688  2.0580  0.6909  0.1406
   33MOL0     H 4432   7.987   0.308   0.828  1.6471 -0.5650 -0.6476
   33MOL0     H 4433   8.222   0.388   0.894 -0.2917  3.8519  0.5694
   33MOL0     H 4434   8.189   0.293   0.737 -1.8569  0.9116 -1.6933
   33MOL0     H 4435   7.241   0.433   1.321  3.4697 -2.5134 -2.0708
   33MOL0     H 4436   7.007   0.520   1.297 -0.0156  3.4078 -1.2556
   33MOL0     H 4437   6.573   0.636   0.836  0.0234 -0.9849 -1.2283
   33MOL0     H 4438   6.344   0.685   0.926 -0.4740 -0.9602 -0.6102
   33MOL0     H 4439   6.743   0.670   2.692  0.4998  0.6457  2.2668
   33MOL0     H 4440   6.917   0.514   2.767 -0.2885  1.4311  1.2986
   33MOL0     H 4441   6.955   0.087   3.071 -0.8063  1.8661  1.3586
   33MOL0     H 4442   7.169   0.042   3.204 -1.7280 -0.2579 -0.8340
   33MOL0     H 4443   7.489   0.102   3.334 -0.3594 -0.4721  2.6030
   33MOL0     H 4444   7.344   0.005   3.307 -1.0036 -0.7357  1.9403
   33MOL0     H 4445   7.323   0.161   3.494  1.2381  1.1639  0.7347
   33MOL0     H 4446   7.201   0.189   3.367  0.9305 -4.6324  0.5190
   33MOL0     H 4447   7.364   0.373   3.286 -0.5387 -1.0964 -0.2484
   33MOL0     H 4448   7.472   0.351   3.410  0.5016 -2.8993 -1.4022
   33MOL0     H 4449   7.187   0.450   3.444  0.5155 -1.4940  0.0042
   33MOL0     H 4450   7.295   0.416   3.573 -2.2928 -0.4436 -0.3433
   33MOL0     H 4451   7.407   0.812   3.457 -1.5614  1.3401  0.5180
   33MOL0     H 4452   7.391   0.259   2.922 -0.4577 -0.9089 -1.6813
   33MOL0     H 4453   7.289   0.394   2.788  0.4169 -0.0220  0.5333
   33MOL0     H 4454   7.209   0.275   2.677  0.2291  0.6588 -1.5230
   33MOL0     H 4455   7.118   0.407   2.763  2.4054  1.8943 -0.5434
   34MOL0     O 4456   5.664   6.960   8.857 -0.5405 -0.8670  0.0425
   34MOL0     C 4457   5.717   7.065   8.887 -0.5219  0.5479 -0.2198
   34MOL0     O 4458   5.844   7.095   8.881 -0.5683 -0.6176 -0.8422
   34MOL0     C 4459   5.931   6.995   8.839 -0.2565  0.7075  0.1899
   34MOL0     C 4460   6.027   6.956   8.946  0.3169 -0.1293 -0.6152
   34MOL0     C 4461   6.119   6.846   8.918  0.9728 -0.5323  1.2562
   34MOL0     C 4462   6.113   6.786   8.792 -0.4734 -1.1144  0.3763
   34MOL0     O 4463   6.183   6.670   8.766 -0.4815 -0.0274  0.1844
   34MOL0     C 4464   6.325   6.680   8.790  0.8060  0.9870  0.3129
   34MOL0     C 4465   6.358   6.539   8.816  0.0391 -0.7680  0.5484
   34MOL0     C 4466   6.510   6.504   8.837  0.2276  0.0633  0.1364
   34MOL0     C 4467   6.545   6.569   8.977 -1.6150  0.1977  0.5038
   34MOL0     C 4468   6.694   6.545   9.017 -0.2605  0.5636  0.7791
   34MOL0     C 4469   6.790   6.558   8.907  0.2028 -0.5598  0.9539
   34MOL0     C 4470   6.931   6.523   8.933 -0.2898  0.9030 -0.3307
   34MOL0     C 4471   6.989   6.583   9.064  0.4028 -0.2644  0.1419
   34MOL0     N 4472   7.121   6.534   9.093  0.4178 -0.1690  0.8006
   34MOL0     C 4473   7.226   6.546   9.009 -1.3773  0.2510  0.0038
   34MOL0     C 4474   7.333   6.497   9.076  0.2561  0.2079 -0.6380
   34MOL0     C 4475   7.479   6.490   9.020 -0.4305 -0.1070  0.1915
   34MOL0     C 4476   7.532   6.348   8.971  0.3957 -0.4532  0.2782
   34MOL0     C 4477   7.556   6.262   9.097  0.3117 -0.1194 -0.6188
   34MOL0     C 4478   7.688   6.293   9.168  0.0493 -0.1636  0.0809
   34MOL0     O 4479   7.697   6.217   9.291  0.8303 -0.7092 -0.1630
   34MOL0     C 4480   7.826   6.214   9.354 -0.4955 -0.3035  0.8206
   34MOL0     C 4481   7.842   6.134   9.473  0.4868  0.1954  0.6811
   34MOL0     C 4482   7.962   6.120   9.540 -0.0887  0.6175 -0.4046
   34MOL0     C 4483   8.068   6.187   9.495 -0.6194  0.1824  0.6170
   34MOL0     C 4484   8.192   6.190   9.576 -0.2612 -0.7329  0.3705
   34MOL0     O 4485   8.300   6.196   9.494 -0.3714 -0.8402 -0.1288
   34MOL0     C 4486   8.426   6.181   9.545  0.2586  0.1890 -0.2560
   34MOL0     C 4487   8.469   6.255   9.655  0.4900  0.4339  1.3830
   34MOL0     C 4488   8.595   6.237   9.707  0.3099 -0.6295 -0.1899
   34MOL0     C 4489   8.699   6.174   9.640 -0.1240 -0.3905 -0.9380
   34MOL0     O 4490   8.825   6.156   9.680  0.0088  1.2660  0.1690
   34MOL0     C 4491   8.866   6.192   9.812  0.2940  0.5002  0.2731
   34MOL0     C 4492   8.810   6.095   9.913 -0.1583  0.2894 -0.9387
   34MOL0     C 4493   8.893   5.963   9.914  0.1669 -0.2440  0.4477
   34MOL0     C 4494   8.810   5.851   9.980 -0.3761  0.2948 -0.3623
   34MOL0     C 4495   8.869   5.713   9.933 -0.1472 -0.8653 -0.3376
   34MOL0     C 4496   8.786   5.657   9.818 -0.5347 -0.5474 -0.0414
   34MOL0     C 4497   8.851   5.533   9.760  0.3817 -0.3149 -0.2443
   34MOL0     C 4498   8.824   5.415   9.852  0.6017  0.4068  0.1156
   34MOL0    Cl 4499   8.642   5.384   9.843 -0.2221 -0.0032  0.0364
   34MOL0     C 4500   8.660   6.105   9.525  0.0314  0.3577  0.1499
   34MOL0     C 4501   8.524   6.108   9.476 -1.0083 -0.2647 -0.2497
   34MOL0     O 4502   8.190   6.163   9.693  0.4401  0.0934 -1.0750
   34MOL0     C 4503   8.054   6.264   9.382 -0.0637 -0.3424 -0.0371
   34MOL0     C 4504   7.945   6.277   9.304  0.8917 -0.7100  0.2966
   34MOL0     N 4505   7.292   6.452   9.198 -0.4563  0.2408 -0.5811
   34MOL0     N 4506   7.166   6.470   9.207  0.3679  0.9537  0.0320
   34MOL0     C 4507   6.028   6.836   8.692 -1.1801 -0.0062  1.0892
   34MOL0     C 4508   5.938   6.935   8.709 -0.2452  0.6557 -0.2137
   34MOL0     C 4509   5.627   7.178   8.917  0.2624  0.6172 -0.0833
   34MOL0     C 4510   5.574   7.253   8.813  1.2200 -0.5382 -0.0911
   34MOL0     C 4511   5.485   7.359   8.832 -0.5572 -0.0049 -0.3446
   34MOL0     C 4512   5.447   7.393   8.962 -0.0114 -0.4644 -0.4003
   34MOL0     O 4513   5.354   7.495   8.991 -0.2635  0.3624 -0.5309
   34MOL0     C 4514   5.296   7.566   8.886  0.0520  0.4449  0.5223
   34MOL0     C 4515   5.212   7.673   8.939  0.0290 -0.4844 -0.2666
   34MOL0     C 4516   5.071   7.622   8.969 -0.5199  1.0552 -1.5667
   34MOL0     C 4517   4.965   7.734   8.954  0.0028 -0.1339 -0.7911
   34MOL0     C 4518   4.919   7.777   9.090  0.3893 -0.5712 -0.3200
   34MOL0     C 4519   4.889   7.818   9.198 -0.1342 -0.6505 -0.2313
   34MOL0     C 4520   5.498   7.324   9.077 -0.1025  0.0397  0.4409
   34MOL0     C 4521   5.586   7.217   9.055  0.2912  0.0881 -0.0512
   34MOL0     C 4522   5.632   7.139   9.172  0.3596  0.6929  0.0903
   34MOL0     H 4523   6.041   7.006   9.042  6.4155 -0.4697 -0.9632
   34MOL0     H 4524   6.194   6.803   8.983  0.9560 -1.8519  0.4487
   34MOL0     H 4525   6.379   6.717   8.702 -1.6812 -0.9201 -2.2054
   34MOL0     H 4526   6.343   6.748   8.874 -1.5564 -1.7598  3.3052
   34MOL0     H 4527   6.348   6.471   8.731  2.7118  0.4473 -0.8796
   34MOL0     H 4528   6.298   6.507   8.901 -3.8315  1.0222 -1.2461
   34MOL0     H 4529   6.559   6.537   8.745 -1.4077  0.1849 -0.7168
   34MOL0     H 4530   6.525   6.396   8.850  0.7199  0.2482  1.2455
   34MOL0     H 4531   6.522   6.673   8.954 -3.3977 -0.8011 -2.9641
   34MOL0     H 4532   6.486   6.526   9.058 -1.5405  1.3017  1.1547
   34MOL0     H 4533   6.704   6.613   9.101 -3.1270 -0.5199  2.1455
   34MOL0     H 4534   6.702   6.444   9.058  2.1906 -0.7040 -2.3725
   34MOL0     H 4535   6.753   6.516   8.813  0.7697 -0.5471  0.7203
   34MOL0     H 4536   6.793   6.666   8.889  0.9357 -0.5374  1.1571
   34MOL0     H 4537   6.993   6.558   8.850  1.6209  2.9212  1.7924
   34MOL0     H 4538   6.936   6.414   8.930  1.2027  0.9172  0.5574
   34MOL0     H 4539   6.991   6.692   9.051  0.6658 -0.3976 -0.9762
   34MOL0     H 4540   6.925   6.563   9.151 -1.5473  4.0009 -0.0531
   34MOL0     H 4541   7.220   6.573   8.904  0.3232  1.1239  0.0978
   34MOL0     H 4542   7.483   6.558   8.934 -1.7112 -0.8631 -0.4909
   34MOL0     H 4543   7.534   6.538   9.101 -0.8767  3.0721 -1.2453
   34MOL0     H 4544   7.458   6.301   8.906 -1.2794  1.0261  1.0248
   34MOL0     H 4545   7.621   6.363   8.910  0.1918  2.1350  0.5093
   34MOL0     H 4546   7.553   6.159   9.058 -1.7630 -0.3668  0.0765
   34MOL0     H 4547   7.478   6.267   9.173  0.1446  0.2038 -0.8099
   34MOL0     H 4548   7.716   6.399   9.171 -2.7064  0.7356 -1.9957
   34MOL0     H 4549   7.768   6.251   9.107 -0.7982  1.0775 -1.9921
   34MOL0     H 4550   7.750   6.091   9.512  1.8621 -3.7668 -0.0670
   34MOL0     H 4551   7.985   6.065   9.631  2.9118  1.2831 -0.6431
   34MOL0     H 4552   8.396   6.321   9.702 -0.6773  1.3619 -1.5301
   34MOL0     H 4553   8.623   6.285   9.800  0.9715 -0.1160 -0.6383
   34MOL0     H 4554   8.975   6.182   9.817  0.1418 -0.7530  2.3572
   34MOL0     H 4555   8.831   6.291   9.845  1.6410  1.8508 -2.0407
   34MOL0     H 4556   8.815   6.144  10.011  0.5770  1.1570 -1.3873
   34MOL0     H 4557   8.706   6.067   9.896 -0.3219  2.4499 -4.4101
   34MOL0     H 4558   8.905   5.930   9.810  1.0978 -3.1135  1.3597
   34MOL0     H 4559   8.991   5.963   9.964  0.4617 -0.1467 -0.1159
   34MOL0     H 4560   8.704   5.856   9.953 -0.8166 -0.8546  1.0112
   34MOL0     H 4561   8.804   5.867  10.088 -0.5832 -2.6713  0.1473
   34MOL0     H 4562   8.870   5.641  10.016 -0.5205 -2.5670 -1.7350
   34MOL0     H 4563   8.969   5.737   9.898 -0.5046  0.1027 -0.7293
   34MOL0     H 4564   8.681   5.651   9.847 -0.9657  2.2759 -0.7633
   34MOL0     H 4565   8.788   5.734   9.740  0.9654  0.0442  0.5463
   34MOL0     H 4566   8.959   5.544   9.744  0.7936 -3.7874 -0.7686
   34MOL0     H 4567   8.808   5.511   9.662  1.2670 -2.4439 -0.2230
   34MOL0     H 4568   8.885   5.329   9.824  0.4451  0.9239 -1.9761
   34MOL0     H 4569   8.853   5.449   9.951  5.3340 -0.7259 -0.6294
   34MOL0     H 4570   8.743   6.053   9.477 -0.1016  2.7562 -2.9702
   34MOL0     H 4571   8.496   6.045   9.393  2.1104 -1.0844 -0.8104
   34MOL0     H 4572   8.128   6.339   9.357  1.0890 -1.0017  1.2934
   34MOL0     H 4573   7.946   6.346   9.220  2.4017 -0.3747  0.5618
   34MOL0     H 4574   6.029   6.794   8.592  1.5009  1.4712  0.3986
   34MOL0     H 4575   5.864   6.971   8.637  0.0413  0.0261 -0.8220
   34MOL0     H 4576   5.589   7.221   8.710 -2.6024  1.7838 -1.5764
   34MOL0     H 4577   5.417   7.405   8.760 -1.0733 -0.0789  0.0899
   34MOL0     H 4578   5.247   7.499   8.815  2.0159  0.5182 -0.9754
   34MOL0     H 4579   5.377   7.604   8.824 -0.3282 -0.4703 -0.5575
   34MOL0     H 4580   5.210   7.741   8.853  1.6931 -1.4476 -1.1170
   34MOL0     H 4581   5.253   7.732   9.022  0.5561 -0.6036 -0.4349
   34MOL0     H 4582   5.064   7.582   9.071 -1.3827 -3.2116 -3.1065
   34MOL0     H 4583   5.038   7.533   8.916 -1.4203 -0.8802  1.9250
   34MOL0     H 4584   4.997   7.828   8.908 -0.0145 -0.5985 -1.8020
   34MOL0     H 4585   4.876   7.693   8.904 -1.8273  0.7626  1.5356
   34MOL0     H 4586   4.870   7.851   9.298  0.2913 -1.3196  0.0803
   34MOL0     H 4587   5.469   7.358   9.176  0.6759 -0.7775  0.9694
   34MOL0     H 4588   5.553   7.123   9.246 -1.2492  0.1950 -1.6557
   34MOL0     H 4589   5.675   7.042   9.146 -0.5371  0.3016  0.0505
   34MOL0     H 4590   5.713   7.197   9.218 -0.6025  1.2408  1.1173
   35MOL0     O 4591   4.188   5.074   6.803  0.0272  0.1319  0.6325
   35MOL0     C 4592   4.121   4.979   6.776 -0.9864  0.2898 -0.1184
   35MOL0     O 4593   4.150   4.852   6.789 -0.6977  0.2494 -0.2168
   35MOL0     C 4594   4.271   4.785   6.766 -0.0626 -1.2933  0.4358
   35MOL0     C 4595   4.383   4.839   6.711  0.8839 -0.0955 -0.5113
   35MOL0     C 4596   4.511   4.782   6.723 -0.1698  0.3573  0.1697
   35MOL0     C 4597   4.523   4.648   6.781  1.0545  0.4519  0.3119
   35MOL0     O 4598   4.632   4.568   6.793  0.1005  0.3817  0.1741
   35MOL0     C 4599   4.754   4.632   6.827  0.1815  0.0240  0.2976
   35MOL0     C 4600   4.840   4.524   6.896  0.6787 -0.3888 -0.6181
   35MOL0     C 4601   4.993   4.546   6.891  0.0556  0.7147 -0.3930
   35MOL0     C 4602   5.060   4.526   6.756 -0.8753  0.6605  0.0119
   35MOL0     C 4603   5.205   4.579   6.766  0.6698  0.0691 -0.2640
   35MOL0     C 4604   5.295   4.507   6.668 -0.3749 -0.4410  1.2255
   35MOL0     C 4605   5.403   4.598   6.601 -0.0510  0.7835 -0.7123
   35MOL0     C 4606   5.349   4.722   6.524 -0.5762  0.9240  0.4533
   35MOL0     N 4607   5.450   4.772   6.424 -0.3241  0.1662  0.2641
   35MOL0     C 4608   5.588   4.777   6.437  0.4076 -0.5370 -0.2102
   35MOL0     C 4609   5.642   4.833   6.317 -0.4327 -0.2506 -1.1181
   35MOL0     C 4610   5.792   4.832   6.288  0.8511  0.1426 -1.1473
   35MOL0     C 4611   5.861   4.952   6.360  0.3798 -0.5649  0.2571
   35MOL0     C 4612   5.935   4.908   6.491  0.8344 -0.4644  0.5036
   35MOL0     C 4613   6.026   5.012   6.548 -0.1999 -0.0534  0.6530
   35MOL0     O 4614   6.114   5.078   6.459  0.0018 -0.4364 -1.4975
   35MOL0     C 4615   6.229   5.008   6.442 -0.1934  0.4781 -0.2106
   35MOL0     C 4616   6.341   5.040   6.524  0.3088 -0.5620 -0.1810
   35MOL0     C 4617   6.467   4.992   6.490  0.2799  0.3604  0.2775
   35MOL0     C 4618   6.482   4.922   6.370 -0.0967 -0.6167 -0.1697
   35MOL0     C 4619   6.610   4.882   6.307 -0.4150  0.3686 -0.0633
   35MOL0     O 4620   6.612   4.781   6.212 -0.4362  0.2395 -0.2267
   35MOL0     C 4621   6.725   4.771   6.127  0.3261 -0.8175  0.3899
   35MOL0     C 4622   6.767   4.873   6.044 -0.6908  0.8613  0.2254
   35MOL0     C 4623   6.871   4.852   5.961  0.4435 -0.0941  1.0015
   35MOL0     C 4624   6.938   4.724   5.964 -0.5523  0.3586  1.0730
   35MOL0     O 4625   7.049   4.708   5.884  0.0257 -0.7486  0.0630
   35MOL0     C 4626   7.120   4.828   5.854 -1.0798 -0.0931  0.6513
   35MOL0     C 4627   7.268   4.821   5.876 -0.7711  0.3031 -1.0259
   35MOL0     C 4628   7.332   4.701   5.802 -0.4140  0.2598  0.2981
   35MOL0     C 4629   7.480   4.684   5.832 -0.5344  0.0181 -0.4787
   35MOL0     C 4630   7.574   4.796   5.785  0.0751 -0.0179 -0.5350
   35MOL0     C 4631   7.561   4.838   5.638  0.4489 -0.3336  0.4037
   35MOL0     C 4632   7.682   4.929   5.591 -0.6801 -0.6060 -0.3171
   35MOL0     C 4633   7.805   4.842   5.548 -0.7077 -0.2876  0.4110
   35MOL0    Cl 4634   7.750   4.741   5.418  0.0729  0.3936  0.2560
   35MOL0     C 4635   6.889   4.625   6.039  0.1197  0.3636 -0.0613
   35MOL0     C 4636   6.786   4.649   6.122 -0.7231 -0.2576 -0.1035
   35MOL0     O 4637   6.716   4.943   6.346 -0.6852  0.0327 -0.0581
   35MOL0     C 4638   6.362   4.888   6.294 -0.3200  0.4225  0.8651
   35MOL0     C 4639   6.243   4.936   6.331  0.3270 -0.2016 -0.5771
   35MOL0     N 4640   5.534   4.848   6.239 -0.3001 -0.4987  0.8389
   35MOL0     N 4641   5.424   4.818   6.297  0.2841  0.9426  0.2850
   35MOL0     C 4642   4.403   4.588   6.831  0.4240 -0.4027  1.1501
   35MOL0     C 4643   4.277   4.661   6.822  0.6922  0.4258 -1.0833
   35MOL0     C 4644   3.995   5.014   6.709  0.1221  0.1587  0.3645
   35MOL0     C 4645   3.928   4.897   6.661 -0.1620  0.2854 -0.1003
   35MOL0     C 4646   3.795   4.902   6.597 -0.0224  0.4357 -0.4515
   35MOL0     C 4647   3.734   5.030   6.582  0.6379 -0.2715  0.1442
   35MOL0     O 4648   3.618   5.026   6.505  0.0417 -0.1258 -0.3804
   35MOL0     C 4649   3.569   5.142   6.454  0.3490  0.1882  0.6344
   35MOL0     C 4650   3.624   5.164   6.318  0.7595 -0.0434  1.1230
   35MOL0     C 4651   3.540   5.262   6.225 -0.0567  1.0340 -0.7451
   35MOL0     C 4652   3.630   5.328   6.115 -0.1690 -1.3854 -0.1174
   35MOL0     C 4653   3.673   5.256   5.991  0.5059  0.7904 -0.2619
   35MOL0     C 4654   3.719   5.225   5.888  0.1180  0.6009 -0.1218
   35MOL0     C 4655   3.798   5.147   6.635  1.1301  1.2845 -0.6958
   35MOL0     C 4656   3.924   5.137   6.698 -0.0731 -0.9661  0.7230
   35MOL0     C 4657   3.985   5.268   6.744  0.2581  0.4144 -0.0953
   35MOL0     H 4658   4.363   4.929   6.654 -3.9601  0.9214  2.2580
   35MOL0     H 4659   4.599   4.837   6.691 -0.7074  0.4765 -1.1725
   35MOL0     H 4660   4.807   4.657   6.734 -0.6149 -2.5298 -0.9418
   35MOL0     H 4661   4.745   4.721   6.890 -0.4118 -1.1581  1.9593
   35MOL0     H 4662   4.826   4.430   6.841  1.4695 -1.8122  1.5100
   35MOL0     H 4663   4.816   4.508   7.001  2.4837  2.2332  0.3018
   35MOL0     H 4664   5.039   4.480   6.966 -2.1049  0.4050  0.7501
   35MOL0     H 4665   4.998   4.653   6.913 -5.0705  1.3409 -1.0108
   35MOL0     H 4666   5.035   4.422   6.733 -1.0850  1.1492 -2.2333
   35MOL0     H 4667   5.010   4.591   6.683  1.8923  1.4178 -1.3623
   35MOL0     H 4668   5.198   4.686   6.745 -0.7004 -0.3214 -2.0519
   35MOL0     H 4669   5.239   4.563   6.868  5.1098 -0.8316 -1.6467
   35MOL0     H 4670   5.342   4.421   6.716 -0.3574 -1.4487 -0.5166
   35MOL0     H 4671   5.229   4.465   6.592  3.0015 -1.6051 -1.2890
   35MOL0     H 4672   5.460   4.534   6.533  0.0793 -3.2719  2.7848
   35MOL0     H 4673   5.472   4.635   6.678  2.3859  2.1673 -3.3507
   35MOL0     H 4674   5.260   4.707   6.462 -0.6327  0.2714  0.6863
   35MOL0     H 4675   5.321   4.804   6.591 -1.4543  2.6228 -1.8691
   35MOL0     H 4676   5.640   4.748   6.528 -1.4455  0.6019  1.2714
   35MOL0     H 4677   5.833   4.744   6.338 -0.5349  0.8675  1.5015
   35MOL0     H 4678   5.809   4.837   6.180 -0.6079  0.0497 -1.4009
   35MOL0     H 4679   5.933   4.990   6.286  1.3699 -0.2145  1.3569
   35MOL0     H 4680   5.790   5.035   6.369  2.1332  0.9982  0.4021
   35MOL0     H 4681   5.994   4.818   6.471  1.3301 -0.2004  0.7479
   35MOL0     H 4682   5.872   4.888   6.577  1.2402  1.8715  1.4201
   35MOL0     H 4683   6.073   4.967   6.637  1.7298  1.3896  0.4180
   35MOL0     H 4684   5.972   5.095   6.594 -1.2366  0.6739 -1.7435
   35MOL0     H 4685   6.340   5.111   6.606 -2.7482 -0.6623 -0.0401
   35MOL0     H 4686   6.559   5.004   6.547  1.1907  2.4364 -1.5133
   35MOL0     H 4687   6.731   4.975   6.048  2.9059  2.3968 -1.4872
   35MOL0     H 4688   6.904   4.944   5.914 -1.5783  0.8420  1.3347
   35MOL0     H 4689   7.105   4.871   5.755  0.3562  1.1773  0.9411
   35MOL0     H 4690   7.093   4.912   5.920  2.6816  1.3517  0.6256
   35MOL0     H 4691   7.325   4.905   5.834  2.0968 -0.6512  0.6403
   35MOL0     H 4692   7.286   4.800   5.981 -3.4391 -1.8799 -0.9082
   35MOL0     H 4693   7.272   4.616   5.836  0.1012 -0.8648 -1.5004
   35MOL0     H 4694   7.311   4.701   5.695 -0.7524  0.6257  0.3632
   35MOL0     H 4695   7.508   4.601   5.767 -0.9918  0.1366 -0.8371
   35MOL0     H 4696   7.504   4.653   5.934  1.3066 -0.9904 -1.1906
   35MOL0     H 4697   7.678   4.768   5.804 -0.1114 -0.7478 -0.5792
   35MOL0     H 4698   7.559   4.889   5.841  0.2880 -0.5657  0.4386
   35MOL0     H 4699   7.557   4.745   5.581  0.6117 -0.8200  1.1785
   35MOL0     H 4700   7.465   4.889   5.622  0.2501 -1.4963 -3.0348
   35MOL0     H 4701   7.706   4.993   5.676 -1.3552 -2.2002  1.1555
   35MOL0     H 4702   7.629   4.993   5.520 -0.6262 -0.6544 -0.4011
   35MOL0     H 4703   7.880   4.913   5.511 -1.0033 -0.9023 -1.4800
   35MOL0     H 4704   7.846   4.785   5.632  2.9401  0.1627 -0.8861
   35MOL0     H 4705   6.929   4.524   6.041  1.7488  0.9721  1.7984
   35MOL0     H 4706   6.753   4.566   6.184  4.6762 -2.5939  0.1772
   35MOL0     H 4707   6.374   4.823   6.209 -2.3200  0.4408  0.5319
   35MOL0     H 4708   6.155   4.930   6.267 -1.8870  0.1399  2.2018
   35MOL0     H 4709   4.398   4.482   6.855  1.0402 -1.0313 -1.1921
   35MOL0     H 4710   4.177   4.628   6.850  0.6291  1.0750 -0.5157
   35MOL0     H 4711   3.964   4.797   6.682  0.0392 -1.1366 -5.7579
   35MOL0     H 4712   3.743   4.814   6.559  2.6360 -2.2684  1.7033
   35MOL0     H 4713   3.579   5.232   6.516  2.4651  1.7298 -1.7122
   35MOL0     H 4714   3.464   5.123   6.435 -0.0293  0.5282  2.2253
   35MOL0     H 4715   3.626   5.067   6.268  1.9394  1.2849 -1.6218
   35MOL0     H 4716   3.725   5.202   6.331  1.5705 -2.5423  2.8390
   35MOL0     H 4717   3.486   5.342   6.275 -2.0115 -2.3178  3.1045
   35MOL0     H 4718   3.464   5.206   6.170  0.6382 -1.7238  0.8927
   35MOL0     H 4719   3.576   5.417   6.082  1.5645 -1.1290 -2.5295
   35MOL0     H 4720   3.722   5.370   6.155 -1.2210  0.4436  0.5075
   35MOL0     H 4721   3.746   5.181   5.794 -0.9320 -0.7240  0.1751
   35MOL0     H 4722   3.767   5.249   6.617 -1.2237  0.5864 -1.0009
   35MOL0     H 4723   3.990   5.271   6.853 -0.3700  0.6839 -0.0732
   35MOL0     H 4724   4.087   5.278   6.704 -0.1261  0.3407 -1.1244
   35MOL0     H 4725   3.920   5.347   6.707  0.7467  0.8956  0.0681
   36MOL0     O 4726   0.902   0.736   4.030 -0.2682 -0.1306 -0.9982
   36MOL0     C 4727   0.848   0.751   3.919  0.0413 -0.6456 -0.1141
   36MOL0     O 4728   0.767   0.664   3.864  0.0137 -0.3761 -0.6672
   36MOL0     C 4729   0.769   0.538   3.920  1.0533 -0.3601  0.0464
   36MOL0     C 4730   0.873   0.453   3.893 -0.6734  0.5806  0.2271
   36MOL0     C 4731   0.882   0.331   3.959 -0.2413  0.4311 -0.0615
   36MOL0     C 4732   0.791   0.294   4.059 -0.3501 -0.9974 -0.8123
   36MOL0     O 4733   0.799   0.173   4.111  0.8831  0.4502  0.6581
   36MOL0     C 4734   0.685   0.104   4.167  0.3417 -0.6203  0.0638
   36MOL0     C 4735   0.725  -0.044   4.190  1.2330 -0.5706 -0.5774
   36MOL0     C 4736   0.705  -0.117   4.060 -0.3936 -0.2770 -0.1670
   36MOL0     C 4737   0.841  -0.127   3.987  0.0127  0.0095  0.5739
   36MOL0     C 4738   0.811  -0.212   3.851 -0.6335 -0.4247 -0.4664
   36MOL0     C 4739   0.776  -0.356   3.889  0.6535  0.9613  0.0636
   36MOL0     C 4740   0.785  -0.461   3.769  0.4702 -0.4203 -0.2240
   36MOL0     C 4741   0.739  -0.600   3.810  0.0830  0.3815  1.1420
   36MOL0     N 4742   0.775  -0.706   3.717 -0.7424  0.1281  0.6038
   36MOL0     C 4743   0.769  -0.696   3.576  0.3919 -0.7659  0.0884
   36MOL0     C 4744   0.783  -0.823   3.542 -0.1747  0.9002  0.2059
   36MOL0     C 4745   0.778  -0.880   3.400  0.3999 -0.2987 -0.4874
   36MOL0     C 4746   0.656  -0.971   3.384  0.0171  0.9134  0.0611
   36MOL0     C 4747   0.698  -1.097   3.302  0.4302 -0.0684  0.4715
   36MOL0     C 4748   0.578  -1.194   3.276  0.4823 -0.4952 -0.3108
   36MOL0     O 4749   0.484  -1.119   3.209  0.1208 -0.1782 -0.4562
   36MOL0     C 4750   0.400  -1.191   3.125 -0.3452  0.0105 -0.3818
   36MOL0     C 4751   0.334  -1.314   3.155  0.0837 -0.1096 -0.7260
   36MOL0     C 4752   0.241  -1.371   3.070 -0.4439  0.2053 -0.3003
   36MOL0     C 4753   0.194  -1.302   2.953  0.4016  0.0127  0.4991
   36MOL0     C 4754   0.075  -1.348   2.869 -0.0735  0.6854  0.4950
   36MOL0     O 4755   0.074  -1.296   2.737  0.2919 -0.7312  0.2172
   36MOL0     C 4756  -0.019  -1.327   2.645  0.0595 -0.2928  0.1499
   36MOL0     C 4757  -0.085  -1.441   2.621 -0.1885  0.4526 -0.2736
   36MOL0     C 4758  -0.168  -1.457   2.504  0.4903  0.8446  0.0214
   36MOL0     C 4759  -0.168  -1.369   2.397 -0.0073  0.6392 -1.1060
   36MOL0     O 4760  -0.213  -1.397   2.273  0.0633 -0.3288  0.6659
   36MOL0     C 4761  -0.295  -1.514   2.266  1.2272  0.4769  0.8897
   36MOL0     C 4762  -0.389  -1.515   2.139  0.6503 -0.0574  0.3520
   36MOL0     C 4763  -0.461  -1.378   2.125 -0.8191  0.5920  0.2700
   36MOL0     C 4764  -0.545  -1.388   2.006  0.6341  0.0213  0.1637
   36MOL0     C 4765  -0.625  -1.255   1.966 -0.0652  0.2758 -1.1528
   36MOL0     C 4766  -0.651  -1.237   1.813  0.1288  0.4720 -0.2294
   36MOL0     C 4767  -0.762  -1.338   1.770 -0.1988  0.1769  0.2391
   36MOL0     C 4768  -0.802  -1.320   1.629 -0.0804 -0.0628  1.2985
   36MOL0    Cl 4769  -0.724  -1.446   1.534 -0.2207 -0.0476  0.0212
   36MOL0     C 4770  -0.099  -1.246   2.432  0.6497  0.0831 -0.1219
   36MOL0     C 4771  -0.032  -1.228   2.550 -0.0448  0.4331  0.2089
   36MOL0     O 4772  -0.010  -1.421   2.915 -0.6639 -0.6522 -0.6537
   36MOL0     C 4773   0.257  -1.174   2.926 -0.9437  0.9976 -0.1781
   36MOL0     C 4774   0.360  -1.125   3.008 -0.2809  0.1518 -0.3832
   36MOL0     N 4775   0.798  -0.910   3.651 -1.1995  0.0808  0.0143
   36MOL0     N 4776   0.806  -0.831   3.751 -0.3465 -0.4719 -0.0341
   36MOL0     C 4777   0.678   0.380   4.084  0.3032 -0.0207 -0.5657
   36MOL0     C 4778   0.673   0.500   4.013  0.3762  0.3526 -0.1148
   36MOL0     C 4779   0.894   0.867   3.831 -0.5236 -0.8114 -0.6002
   36MOL0     C 4780   0.876   0.851   3.693 -0.3433 -0.8195  0.0825
   36MOL0     C 4781   0.930   0.944   3.597  0.2926  0.0296 -0.2662
   36MOL0     C 4782   0.997   1.063   3.647  0.7376  0.0847 -0.3517
   36MOL0     O 4783   1.045   1.142   3.547  0.4796  0.5181 -0.6514
   36MOL0     C 4784   1.091   1.268   3.586 -0.3780  0.0908 -0.2508
   36MOL0     C 4785   1.113   1.363   3.469 -0.5905 -0.1766 -0.1366
   36MOL0     C 4786   1.232   1.327   3.377 -0.0794 -0.3433 -0.8954
   36MOL0     C 4787   1.303   1.447   3.316 -0.4893 -0.2569 -0.3583
   36MOL0     C 4788   1.206   1.511   3.230  0.0022 -1.2275 -0.4859
   36MOL0     C 4789   1.130   1.567   3.156  0.3973 -0.7820  0.0298
   36MOL0     C 4790   1.004   1.079   3.787  0.4835 -0.1850 -0.3300
   36MOL0     C 4791   0.963   0.980   3.880  0.6091 -0.1255 -0.4022
   36MOL0     C 4792   0.966   1.016   4.023  0.1847  0.1385 -0.0815
   36MOL0     H 4793   0.954   0.464   3.821 -1.8153  0.9462 -1.0239
   36MOL0     H 4794   0.962   0.265   3.924 -1.0820 -1.7452  1.8251
   36MOL0     H 4795   0.656   0.146   4.264 -3.3509 -1.9064 -0.3484
   36MOL0     H 4796   0.597   0.107   4.103  0.6586  0.6070 -0.3413
   36MOL0     H 4797   0.661  -0.084   4.269 -0.2831  0.2600 -1.3464
   36MOL0     H 4798   0.828  -0.044   4.228  0.9068  0.5205  0.3593
   36MOL0     H 4799   0.623  -0.077   4.001 -1.1039  0.8535  1.5053
   36MOL0     H 4800   0.694  -0.220   4.097 -0.7266  0.3529  1.5705
   36MOL0     H 4801   0.881  -0.028   3.962 -0.0864 -0.0064  0.3484
   36MOL0     H 4802   0.910  -0.185   4.048 -0.3998  0.6201  1.6521
   36MOL0     H 4803   0.724  -0.173   3.797 -1.3013 -1.3067 -0.0527
   36MOL0     H 4804   0.897  -0.209   3.784 -0.7980  0.1043 -0.6631
   36MOL0     H 4805   0.837  -0.397   3.970 -1.6562  0.6566  1.7454
   36MOL0     H 4806   0.674  -0.363   3.927 -0.7808 -1.5169 -3.6976
   36MOL0     H 4807   0.887  -0.477   3.734  1.0839 -0.6791  1.6080
   36MOL0     H 4808   0.732  -0.424   3.680 -2.1892 -3.7732 -0.2411
   36MOL0     H 4809   0.779  -0.612   3.911  1.0633 -1.9750  0.5610
   36MOL0     H 4810   0.630  -0.601   3.813  0.0888 -0.1286  1.3073
   36MOL0     H 4811   0.751  -0.611   3.510  1.1527 -0.5391  0.1565
   36MOL0     H 4812   0.749  -0.799   3.332 -1.4044 -2.2095 -2.1288
   36MOL0     H 4813   0.873  -0.920   3.365  0.6786  2.1959 -2.9425
   36MOL0     H 4814   0.615  -1.009   3.479  1.7138  1.2611  0.9601
   36MOL0     H 4815   0.571  -0.929   3.329 -0.3928 -2.0071 -1.7692
   36MOL0     H 4816   0.776  -1.154   3.352 -0.5079 -2.6579 -0.8452
   36MOL0     H 4817   0.735  -1.066   3.204 -1.3645 -0.3455 -0.3357
   36MOL0     H 4818   0.537  -1.235   3.368  0.4075 -1.5867 -0.8137
   36MOL0     H 4819   0.598  -1.281   3.212 -0.4647 -0.8266 -0.1630
   36MOL0     H 4820   0.355  -1.361   3.251  2.5988  2.5610  0.1726
   36MOL0     H 4821   0.186  -1.460   3.099 -1.4068  1.3730  1.6878
   36MOL0     H 4822  -0.089  -1.526   2.688 -1.2972 -2.0950 -3.3356
   36MOL0     H 4823  -0.215  -1.554   2.498  0.2840  1.0007 -1.1226
   36MOL0     H 4824  -0.234  -1.603   2.250 -0.5923 -0.2705 -3.4119
   36MOL0     H 4825  -0.359  -1.532   2.353  1.0548 -4.7306 -0.0059
   36MOL0     H 4826  -0.326  -1.512   2.049 -1.1075  2.6677 -0.9329
   36MOL0     H 4827  -0.453  -1.603   2.148  1.0074 -0.3858 -0.1934
   36MOL0     H 4828  -0.532  -1.371   2.208 -1.6499 -2.4490 -0.0877
   36MOL0     H 4829  -0.399  -1.287   2.129 -0.7759  0.5514  3.6376
   36MOL0     H 4830  -0.622  -1.459   2.037  0.1915  1.5999  3.0623
   36MOL0     H 4831  -0.484  -1.405   1.917  3.6504  2.1935  1.6528
   36MOL0     H 4832  -0.557  -1.181   2.009  0.2906 -1.2576  1.0847
   36MOL0     H 4833  -0.711  -1.229   2.029  1.6917  1.1310  1.0403
   36MOL0     H 4834  -0.689  -1.135   1.804  1.2510  0.7261 -3.3955
   36MOL0     H 4835  -0.558  -1.244   1.756  1.4263 -2.3962  1.9464
   36MOL0     H 4836  -0.843  -1.317   1.840  0.6434  1.1725  0.9486
   36MOL0     H 4837  -0.733  -1.441   1.791  0.4163  0.3166  0.0965
   36MOL0     H 4838  -0.911  -1.314   1.631 -0.1688 -0.0958 -0.7498
   36MOL0     H 4839  -0.765  -1.226   1.586  0.4727 -0.9938 -0.3787
   36MOL0     H 4840  -0.094  -1.166   2.359 -0.9868  3.2835  2.9810
   36MOL0     H 4841   0.035  -1.146   2.573 -0.0441 -0.3274  3.3683
   36MOL0     H 4842   0.226  -1.123   2.836 -0.1925 -0.7930 -1.4960
   36MOL0     H 4843   0.415  -1.033   2.994  2.4059 -1.0402  1.6486
   36MOL0     H 4844   0.597   0.352   4.152  1.2835  1.0022  1.0862
   36MOL0     H 4845   0.600   0.572   4.048  1.4324  1.0733  0.6616
   36MOL0     H 4846   0.812   0.777   3.646  0.2298 -0.0551 -2.0108
   36MOL0     H 4847   0.909   0.923   3.493  1.9958 -0.9614 -0.4494
   36MOL0     H 4848   1.186   1.271   3.640 -0.3499  2.6289 -0.3428
   36MOL0     H 4849   1.021   1.315   3.657 -0.7966  0.2804 -0.7863
   36MOL0     H 4850   1.117   1.465   3.506  0.0036  0.9836 -3.1199
   36MOL0     H 4851   1.035   1.348   3.394  1.6254 -1.0795 -2.3981
   36MOL0     H 4852   1.202   1.260   3.296  2.6077  0.1962 -2.4438
   36MOL0     H 4853   1.304   1.277   3.443  1.3299  1.3070 -1.1346
   36MOL0     H 4854   1.345   1.515   3.390  0.1522 -0.4984 -0.5005
   36MOL0     H 4855   1.392   1.415   3.261 -1.0161  0.0957 -1.4484
   36MOL0     H 4856   1.079   1.625   3.082  0.7832  0.0201  0.3844
   36MOL0     H 4857   1.060   1.157   3.838 -1.3697 -0.2940  2.0416
   36MOL0     H 4858   0.959   1.125   4.019  2.6581  0.3382 -0.8136
   36MOL0     H 4859   0.880   0.990   4.086 -0.7245 -0.5748 -1.5634
   36MOL0     H 4860   1.057   0.993   4.079  0.9287 -1.6572 -1.8778
   37MOL0     O 4861  10.592   8.949   8.831 -0.0325  0.3281 -0.0047
   37MOL0     C 4862  10.538   9.057   8.805  1.1205 -0.4918 -0.2884
   37MOL0     O 4863  10.593   9.174   8.764 -0.2191  0.1194  0.4816
   37MOL0     C 4864  10.718   9.155   8.706  0.6723 -0.6868 -0.5497
   37MOL0     C 4865  10.728   9.118   8.575 -0.0610 -0.5091  0.4666
   37MOL0     C 4866  10.856   9.078   8.524  0.4683  0.3079 -0.9662
   37MOL0     C 4867  10.972   9.074   8.598 -0.3020 -0.7286  0.1405
   37MOL0     O 4868  11.085   9.048   8.538 -0.4254 -0.1135  0.0413
   37MOL0     C 4869  11.196   9.009   8.624  0.1874 -0.7782  0.0226
   37MOL0     C 4870  11.169   8.893   8.721  1.3389 -1.1481  0.4819
   37MOL0     C 4871  11.266   8.869   8.834 -0.4171 -0.2112  0.2915
   37MOL0     C 4872  11.276   8.733   8.881  0.1380  0.5692  0.0976
   37MOL0     C 4873  11.330   8.717   9.026 -0.2843 -0.0380 -0.2425
   37MOL0     C 4874  11.480   8.744   9.042  0.5288  0.1990  0.5732
   37MOL0     C 4875  11.527   8.894   9.041 -0.0757  0.0506 -0.3674
   37MOL0     C 4876  11.685   8.892   9.026  0.5113 -0.0228 -0.1601
   37MOL0     N 4877  11.751   9.024   9.049 -0.3176  0.2530  0.5746
   37MOL0     C 4878  11.877   9.038   9.099 -0.1611 -0.8251 -0.0929
   37MOL0     C 4879  11.896   9.174   9.109  0.0046 -0.8946  0.6389
   37MOL0     C 4880  12.018   9.240   9.188 -0.5857 -0.4592  0.5310
   37MOL0     C 4881  12.133   9.290   9.089  0.0096 -0.2526 -0.0753
   37MOL0     C 4882  12.090   9.401   8.989  0.2193 -0.7265  0.2069
   37MOL0     C 4883  12.040   9.529   9.063  0.2738 -0.7424  0.3516
   37MOL0     O 4884  12.137   9.583   9.154  0.6074  0.5786 -0.8279
   37MOL0     C 4885  12.116   9.707   9.213  0.3471 -0.2287  0.4181
   37MOL0     C 4886  12.009   9.795   9.198 -0.3840  0.1008  0.1966
   37MOL0     C 4887  11.997   9.918   9.268  0.5157  0.3778  1.2853
   37MOL0     C 4888  12.092   9.953   9.361 -0.6259 -0.1953  0.9532
   37MOL0     C 4889  12.090  10.082   9.430  1.0311  0.2565  0.0750
   37MOL0     O 4890  11.962  10.128   9.467 -0.2359  0.9916 -0.2513
   37MOL0     C 4891  11.951  10.234   9.559 -0.0172  0.0824  0.6085
   37MOL0     C 4892  11.880  10.352   9.531 -0.3663  0.3092 -1.0584
   37MOL0     C 4893  11.865  10.449   9.632  0.5519  0.6577  1.2388
   37MOL0     C 4894  11.925  10.445   9.750 -0.5237  0.0576  0.1635
   37MOL0     O 4895  11.880  10.530   9.844 -0.4126  0.6503 -0.3800
   37MOL0     C 4896  11.925  10.523   9.984  0.8442  0.1700 -0.2530
   37MOL0     C 4897  12.015  10.647  10.014 -0.0445  0.0781 -0.4741
   37MOL0     C 4898  12.160  10.653   9.961 -0.6636 -0.1430  0.7509
   37MOL0     C 4899  12.176  10.685   9.810  0.4931  0.4277 -0.5198
   37MOL0     C 4900  12.106  10.811   9.772 -0.1122 -0.3382 -0.1168
   37MOL0     C 4901  12.145  10.850   9.621 -0.6908 -1.0848 -0.1160
   37MOL0     C 4902  12.093  10.991   9.591 -0.5994 -0.2913 -0.6388
   37MOL0     C 4903  12.156  11.037   9.461 -0.2261  0.2028  0.2733
   37MOL0    Cl 4904  12.083  11.200   9.405  0.0394  0.0967 -0.0175
   37MOL0     C 4905  12.013  10.342   9.767  0.7648  0.4197  0.0200
   37MOL0     C 4906  12.020  10.236   9.677  0.3168  0.0730 -0.4524
   37MOL0     O 4907  12.198  10.132   9.451  0.4052 -0.5958 -0.1346
   37MOL0     C 4908  12.209   9.868   9.374  0.5719 -0.5640 -0.3297
   37MOL0     C 4909  12.205   9.746   9.307  0.1609  0.2121  0.4645
   37MOL0     N 4910  11.789   9.238   9.062 -0.1868 -0.1115 -0.1963
   37MOL0     N 4911  11.697   9.152   9.046 -0.6907 -0.2055 -0.5107
   37MOL0     C 4912  10.959   9.128   8.730  0.4438  0.9236 -0.8187
   37MOL0     C 4913  10.836   9.159   8.790 -0.0719 -0.6229  0.1239
   37MOL0     C 4914  10.387   9.055   8.833 -0.2540  1.6995  0.1211
   37MOL0     C 4915  10.348   8.999   8.961  0.1269 -0.4854 -0.7116
   37MOL0     C 4916  10.216   8.997   9.001  0.1910  0.7254  0.4423
   37MOL0     C 4917  10.121   9.026   8.909  0.7018 -0.1842 -0.0954
   37MOL0     O 4918   9.980   9.028   8.933 -0.6007  0.1590  0.0929
   37MOL0     C 4919   9.926   8.909   8.979 -1.0905  0.7561 -1.2653
   37MOL0     C 4920   9.781   8.905   8.951  0.5237  0.7239  0.0182
   37MOL0     C 4921   9.702   8.784   9.008 -0.3262  0.7389 -0.3279
   37MOL0     C 4922   9.767   8.645   8.972  0.1349  0.4748 -0.3221
   37MOL0     C 4923   9.746   8.606   8.829  0.0606  0.3648 -0.5154
   37MOL0     C 4924   9.708   8.592   8.713 -0.2272 -0.7720 -0.1562
   37MOL0     C 4925  10.151   9.082   8.788 -0.1744 -0.3870 -0.1845
   37MOL0     C 4926  10.282   9.090   8.747 -0.5076  0.2282  0.5897
   37MOL0     C 4927  10.318   9.122   8.609  0.1605 -0.7526 -0.0031
   37MOL0     H 4928  10.640   9.114   8.512  0.5185 -0.9846 -0.3413
   37MOL0     H 4929  10.860   9.058   8.418  1.0088  2.5705 -1.4295
   37MOL0     H 4930  11.274   8.994   8.548 -0.9419  2.1080 -1.8654
   37MOL0     H 4931  11.215   9.093   8.691 -1.3989 -1.5324  1.5057
   37MOL0     H 4932  11.164   8.807   8.653  1.1309  1.5290 -3.1322
   37MOL0     H 4933  11.066   8.910   8.756  0.6362 -2.6132 -0.7552
   37MOL0     H 4934  11.232   8.930   8.918  2.2852  2.0310 -0.0844
   37MOL0     H 4935  11.369   8.898   8.810  0.8024 -0.8918  4.0503
   37MOL0     H 4936  11.178   8.686   8.889  1.6589 -2.6142  3.0714
   37MOL0     H 4937  11.337   8.675   8.811 -2.4099  0.6721 -2.3630
   37MOL0     H 4938  11.281   8.796   9.084 -0.1777  1.2109 -1.7944
   37MOL0     H 4939  11.309   8.614   9.060 -0.8576 -0.1927 -1.0417
   37MOL0     H 4940  11.506   8.706   9.141  1.0357  3.5331  1.8593
   37MOL0     H 4941  11.530   8.701   8.955  0.3752  2.8862 -0.9551
   37MOL0     H 4942  11.503   8.931   9.141  0.5798  5.2691 -1.8519
   37MOL0     H 4943  11.491   8.973   8.974  3.5757  1.7440 -0.5674
   37MOL0     H 4944  11.737   8.823   9.093  3.6740  2.7987  0.5416
   37MOL0     H 4945  11.699   8.855   8.924  1.7587 -0.7515  0.2432
   37MOL0     H 4946  11.950   8.962   9.125 -0.0298 -0.6846 -0.0487
   37MOL0     H 4947  11.979   9.326   9.244 -0.6737 -1.1239  1.5168
   37MOL0     H 4948  12.055   9.169   9.263  0.1943  0.0500  0.6309
   37MOL0     H 4949  12.227   9.310   9.140  0.7174  0.5946 -1.6566
   37MOL0     H 4950  12.156   9.203   9.026 -0.4528 -0.6151  0.2448
   37MOL0     H 4951  12.005   9.367   8.928  0.1874  1.0905 -0.8297
   37MOL0     H 4952  12.178   9.422   8.928 -1.2394 -1.5596 -2.3544
   37MOL0     H 4953  11.951   9.518   9.125 -0.3504 -2.3933 -0.7723
   37MOL0     H 4954  12.019   9.604   8.986 -1.6570 -1.2775  0.3096
   37MOL0     H 4955  11.935   9.774   9.121 -0.2894 -0.8865  0.3680
   37MOL0     H 4956  11.915   9.989   9.256 -1.3726 -1.7913  0.6157
   37MOL0     H 4957  11.816  10.360   9.444 -0.9858  2.3704 -0.4671
   37MOL0     H 4958  11.787  10.520   9.607 -0.7454 -1.0632  0.1743
   37MOL0     H 4959  11.835  10.525  10.046  0.1719 -1.9917 -1.0681
   37MOL0     H 4960  11.959  10.421  10.001  1.6559  0.3571 -0.7017
   37MOL0     H 4961  11.957  10.731   9.976  1.5946  1.3700 -0.2143
   37MOL0     H 4962  12.008  10.646  10.123  4.4272  1.2790  0.0048
   37MOL0     H 4963  12.215  10.729  10.016 -1.1351 -1.0001  2.4742
   37MOL0     H 4964  12.205  10.555   9.980 -3.4460 -1.2444  2.3058
   37MOL0     H 4965  12.135  10.597   9.761 -2.0185 -0.0154  2.0744
   37MOL0     H 4966  12.282  10.697   9.786  0.2833  1.8740 -0.8119
   37MOL0     H 4967  12.149  10.891   9.832  2.1529  1.9312 -4.3001
   37MOL0     H 4968  11.997  10.802   9.772 -0.4230  1.1476 -4.4279
   37MOL0     H 4969  12.253  10.855   9.603 -0.8247  2.9824 -0.9039
   37MOL0     H 4970  12.109  10.764   9.564  0.6191 -4.4517  3.6829
   37MOL0     H 4971  12.132  11.062   9.664 -3.2002  0.5897 -0.0273
   37MOL0     H 4972  11.986  11.010   9.577 -0.7978 -1.8562 -1.5335
   37MOL0     H 4973  12.262  11.056   9.477 -0.4784  1.1052  0.9776
   37MOL0     H 4974  12.131  10.952   9.396  0.5960  0.4552 -0.3965
   37MOL0     H 4975  12.061  10.324   9.862 -0.5009 -2.2847  0.2149
   37MOL0     H 4976  12.096  10.161   9.698 -0.2871  0.1182  2.2579
   37MOL0     H 4977  12.289   9.906   9.437  0.0155  0.1831 -0.0690
   37MOL0     H 4978  12.285   9.677   9.331 -0.2068 -0.5081 -0.3125
   37MOL0     H 4979  11.043   9.141   8.798  0.6880  0.8206 -1.0997
   37MOL0     H 4980  10.838   9.183   8.896  3.7297 -1.1608  0.3342
   37MOL0     H 4981  10.428   8.956   9.021 -2.3981 -0.9690  2.6047
   37MOL0     H 4982  10.185   8.954   9.096 -1.5789  0.0979 -0.3752
   37MOL0     H 4983   9.950   8.905   9.086  0.1650 -1.8728 -1.5778
   37MOL0     H 4984   9.974   8.822   8.934  0.1064 -0.4245  1.9660
   37MOL0     H 4985   9.772   8.907   8.842  1.9667  1.0229 -0.1164
   37MOL0     H 4986   9.738   8.998   8.988  3.1156  1.8939  0.2888
   37MOL0     H 4987   9.601   8.794   8.968 -0.9807 -2.4296  0.2297
   37MOL0     H 4988   9.701   8.794   9.117  1.5337 -0.6665 -0.1168
   37MOL0     H 4989   9.874   8.653   8.993  0.4628  2.3909 -2.3354
   37MOL0     H 4990   9.714   8.568   9.028  1.0067 -0.0059 -0.1379
   37MOL0     H 4991   9.672   8.591   8.612  0.8635 -0.8849 -0.5482
   37MOL0     H 4992  10.074   9.109   8.717 -2.5498 -5.6454 -0.1026
   37MOL0     H 4993  10.372   9.217   8.601  1.8557 -1.4110  2.4821
   37MOL0     H 4994  10.388   9.050   8.566 -0.4152 -1.0401 -0.4769
   37MOL0     H 4995  10.233   9.134   8.542  1.9635  0.8889 -2.1239
   38MOL0     O 4996   2.172  11.388   2.143 -0.2517 -0.1113  0.4491
   38MOL0     C 4997   2.063  11.442   2.110  0.0657 -0.9628  0.6683
   38MOL0     O 4998   1.958  11.379   2.061  0.5672  0.1719  0.0576
   38MOL0     C 4999   1.965  11.245   2.034  0.4407 -0.0642  0.6791
   38MOL0     C 5000   1.876  11.149   2.099 -1.2946  0.5009  0.6260
   38MOL0     C 5001   1.858  11.023   2.052 -0.1335  0.2094 -1.0130
   38MOL0     C 5002   1.937  10.963   1.949  0.8756 -0.1823  0.0310
   38MOL0     O 5003   1.915  10.827   1.915  0.0810 -0.5993 -0.2970
   38MOL0     C 5004   1.972  10.782   1.789 -0.0837 -0.0466 -1.1775
   38MOL0     C 5005   1.935  10.641   1.753  0.3452  0.1673  0.0455
   38MOL0     C 5006   1.964  10.544   1.868 -0.1460 -0.0849 -0.1395
   38MOL0     C 5007   2.091  10.559   1.964  0.0012  0.3257  0.1291
   38MOL0     C 5008   2.094  10.450   2.071 -0.2883  0.0350  0.1574
   38MOL0     C 5009   2.210  10.490   2.166  0.1187  0.3242 -0.3829
   38MOL0     C 5010   2.238  10.389   2.286  0.5832 -0.3062  0.3434
   38MOL0     C 5011   2.296  10.261   2.238 -0.8359 -0.4057  0.2676
   38MOL0     N 5012   2.376  10.187   2.334  0.3570  0.2058  0.1283
   38MOL0     C 5013   2.441  10.074   2.305 -0.0786 -0.0739  0.1201
   38MOL0     C 5014   2.462  10.014   2.428  0.6602  0.1601 -0.7393
   38MOL0     C 5015   2.529   9.885   2.443 -0.2597  0.1671  0.1046
   38MOL0     C 5016   2.419   9.776   2.459  0.5244 -0.6711 -0.3784
   38MOL0     C 5017   2.463   9.660   2.555 -0.1173  1.0397 -0.5525
   38MOL0     C 5018   2.528   9.532   2.491  0.1285  0.4482  0.0408
   38MOL0     O 5019   2.644   9.560   2.416 -0.1953 -0.4057 -0.8203
   38MOL0     C 5020   2.769   9.557   2.479 -0.2954 -0.1808 -0.0684
   38MOL0     C 5021   2.883   9.583   2.397  0.8098 -0.2623  0.3866
   38MOL0     C 5022   3.014   9.596   2.446  0.6577 -0.9313 -0.1129
   38MOL0     C 5023   3.042   9.595   2.585  1.3524  0.8050  0.0714
   38MOL0     C 5024   3.170   9.650   2.632 -0.2789 -0.3034 -0.5532
   38MOL0     O 5025   3.258   9.693   2.538  0.6535  0.4933 -0.4763
   38MOL0     C 5026   3.364   9.761   2.590 -0.1737  0.1105 -0.0074
   38MOL0     C 5027   3.479   9.701   2.644  0.2793  0.1846 -1.0091
   38MOL0     C 5028   3.590   9.775   2.680 -0.2297  0.7342  0.3128
   38MOL0     C 5029   3.602   9.908   2.663 -0.0191 -0.5095  0.5246
   38MOL0     O 5030   3.723   9.965   2.700 -0.0782  0.5147 -0.0362
   38MOL0     C 5031   3.710  10.104   2.737 -0.1098 -0.3362  0.1098
   38MOL0     C 5032   3.853  10.151   2.754  0.8707 -0.9297  0.2763
   38MOL0     C 5033   3.904  10.127   2.897 -0.6285 -0.3611  0.0026
   38MOL0     C 5034   4.034  10.191   2.934  0.1824  0.3856  0.7050
   38MOL0     C 5035   4.058  10.175   3.086  0.3430  0.1030 -0.0624
   38MOL0     C 5036   4.196  10.222   3.122 -0.4874 -0.3550 -0.2804
   38MOL0     C 5037   4.306  10.118   3.093  0.6654  0.0833 -0.3167
   38MOL0     C 5038   4.437  10.173   3.154 -0.0718  0.4316 -0.5207
   38MOL0    Cl 5039   4.562  10.079   3.073 -0.5535 -0.4893  0.4251
   38MOL0     C 5040   3.491   9.968   2.606  1.0110 -0.3859 -0.0762
   38MOL0     C 5041   3.372   9.897   2.572 -0.1705  0.7815  0.4712
   38MOL0     O 5042   3.190   9.647   2.751  0.2450 -0.2834  1.3351
   38MOL0     C 5043   2.933   9.573   2.668 -0.1005  0.3887 -0.2704
   38MOL0     C 5044   2.800   9.557   2.622  0.7638 -0.1189  0.0214
   38MOL0     N 5045   2.400  10.089   2.527 -0.3631  0.1137 -0.0606
   38MOL0     N 5046   2.342  10.187   2.471 -1.0372 -0.1269 -0.3225
   38MOL0     C 5047   2.029  11.054   1.887 -0.1723  0.4394 -0.6848
   38MOL0     C 5048   2.037  11.188   1.922  0.0843 -0.7284 -0.0230
   38MOL0     C 5049   2.052  11.588   2.148  0.3009  0.0532 -0.1708
   38MOL0     C 5050   2.129  11.688   2.091  0.1842 -0.7202  0.2941
   38MOL0     C 5051   2.127  11.821   2.146  1.2241  0.4671  0.4897
   38MOL0     C 5052   2.048  11.848   2.258  0.0601 -0.0170  0.0077
   38MOL0     O 5053   2.064  11.971   2.326  0.6478  0.6904 -0.0897
   38MOL0     C 5054   1.968  12.072   2.303  0.8058 -0.5885  0.1171
   38MOL0     C 5055   2.026  12.207   2.343 -0.4297 -1.0812  0.5058
   38MOL0     C 5056   2.174  12.238   2.296  0.2363 -1.0171  0.6359
   38MOL0     C 5057   2.190  12.394   2.267  0.8820  0.4453  0.4182
   38MOL0     C 5058   2.326  12.437   2.247  0.6947 -0.7190  0.9579
   38MOL0     C 5059   2.432  12.466   2.220 -0.4668 -0.8723  0.0015
   38MOL0     C 5060   1.962  11.753   2.306 -1.0606 -0.3338 -0.2728
   38MOL0     C 5061   1.962  11.630   2.247 -0.9426  0.2253 -0.4519
   38MOL0     C 5062   1.871  11.519   2.310  0.3715  0.7242  0.0896
   38MOL0     H 5063   1.809  11.179   2.179 -2.5271  0.6051 -0.4071
   38MOL0     H 5064   1.777  10.964   2.093 -0.3764 -0.3229 -2.1984
   38MOL0     H 5065   1.919  10.840   1.714 -1.0906 -1.4803 -1.6141
   38MOL0     H 5066   2.080  10.802   1.787  0.0307  0.2880  2.3679
   38MOL0     H 5067   1.992  10.615   1.664  1.2891  0.6736  0.4833
   38MOL0     H 5068   1.828  10.642   1.730  0.9596  0.9534 -3.3512
   38MOL0     H 5069   1.954  10.447   1.819 -0.9134 -1.2165  2.0962
   38MOL0     H 5070   1.882  10.541   1.941  1.0977  1.3837  1.3745
   38MOL0     H 5071   2.181  10.559   1.903 -2.7597  0.3835 -4.3974
   38MOL0     H 5072   2.076  10.656   2.013  0.9895 -0.4862  2.1481
   38MOL0     H 5073   2.002  10.455   2.130  0.8966  0.3707  2.0615
   38MOL0     H 5074   2.107  10.352   2.023  0.3857 -2.0849  4.2044
   38MOL0     H 5075   2.301  10.484   2.106 -0.3196  0.2821 -1.0544
   38MOL0     H 5076   2.197  10.593   2.200 -3.3120 -0.3936  0.9167
   38MOL0     H 5077   2.137  10.363   2.318  0.2800 -0.8184 -0.9991
   38MOL0     H 5078   2.296  10.423   2.373  2.7259 -2.9568  0.0812
   38MOL0     H 5079   2.205  10.204   2.216 -0.6223 -0.4517 -0.5392
   38MOL0     H 5080   2.361  10.280   2.152 -2.7086  3.5547 -0.4947
   38MOL0     H 5081   2.472  10.040   2.206  0.2358 -0.9712  0.5195
   38MOL0     H 5082   2.593   9.883   2.354  0.6331  0.5100  0.7202
   38MOL0     H 5083   2.589   9.887   2.534 -2.1603 -2.8549  1.6046
   38MOL0     H 5084   2.327   9.809   2.508  0.1531 -3.9031  1.3750
   38MOL0     H 5085   2.389   9.744   2.359 -4.1004  2.0052 -0.1642
   38MOL0     H 5086   2.379   9.619   2.612  0.3709  1.5883  0.5938
   38MOL0     H 5087   2.525   9.700   2.636  1.8989 -3.0502  0.1606
   38MOL0     H 5088   2.457   9.475   2.429  0.2706 -1.7795  1.8142
   38MOL0     H 5089   2.544   9.463   2.574 -1.5853 -2.3600 -1.8057
   38MOL0     H 5090   2.876   9.602   2.291  0.1811 -1.0656  0.2798
   38MOL0     H 5091   3.087   9.605   2.366  0.8507  0.7342  0.2154
   38MOL0     H 5092   3.479   9.595   2.668  0.5239  0.6312  1.1562
   38MOL0     H 5093   3.668   9.736   2.744 -1.5395 -0.6757  1.1279
   38MOL0     H 5094   3.665  10.160   2.655 -0.2553 -2.4254 -1.3009
   38MOL0     H 5095   3.665  10.116   2.836 -0.7660 -0.8725 -0.1157
   38MOL0     H 5096   3.922  10.113   2.678  0.4657  0.8297 -1.0475
   38MOL0     H 5097   3.855  10.258   2.729 -4.3949 -0.5906  0.2694
   38MOL0     H 5098   3.825  10.163   2.963 -0.4169  0.2035 -0.0493
   38MOL0     H 5099   3.912  10.019   2.911 -0.3873 -0.2765  0.5037
   38MOL0     H 5100   4.026  10.296   2.905  1.7491  0.6997  1.3240
   38MOL0     H 5101   4.119  10.150   2.879 -1.4075  0.5779 -2.0837
   38MOL0     H 5102   4.049  10.070   3.116 -0.3563 -0.1170 -0.9814
   38MOL0     H 5103   3.979  10.228   3.141  2.0458  1.2316  1.4084
   38MOL0     H 5104   4.228  10.314   3.072  2.9282 -1.0641  0.3376
   38MOL0     H 5105   4.195  10.237   3.231 -0.6304  2.2449 -0.5836
   38MOL0     H 5106   4.329  10.107   2.987 -2.6558 -3.9836 -0.8575
   38MOL0     H 5107   4.285  10.022   3.141  2.4997  0.2050  0.8310
   38MOL0     H 5108   4.441  10.280   3.131 -0.4824  1.0154  1.9138
   38MOL0     H 5109   4.431  10.161   3.262 -6.3221  4.5772  0.1316
   38MOL0     H 5110   3.493  10.075   2.587 -0.7904 -0.0326  1.3814
   38MOL0     H 5111   3.288   9.954   2.533 -1.1137  0.7679  2.3632
   38MOL0     H 5112   2.942   9.583   2.776 -1.3453 -0.0921 -0.0964
   38MOL0     H 5113   2.721   9.552   2.697  0.8247  2.0757  0.2876
   38MOL0     H 5114   2.089  10.995   1.818  0.1333 -0.6911  0.5049
   38MOL0     H 5115   2.102  11.256   1.868  1.1059 -1.2398  0.5249
   38MOL0     H 5116   2.199  11.665   2.012  2.1607 -0.1956  1.8228
   38MOL0     H 5117   2.173  11.906   2.096  1.9286 -0.8951 -1.2737
   38MOL0     H 5118   1.872  12.058   2.353  1.6674 -2.5225  1.3575
   38MOL0     H 5119   1.942  12.078   2.197  1.4660 -1.4601 -0.1068
   38MOL0     H 5120   2.031  12.213   2.452 -0.3307 -0.6668  0.4779
   38MOL0     H 5121   1.955  12.286   2.318 -0.3027 -1.3639 -0.8147
   38MOL0     H 5122   2.210  12.187   2.206  1.8278 -1.7216  1.6471
   38MOL0     H 5123   2.226  12.217   2.389 -0.9808  0.9510  1.8480
   38MOL0     H 5124   2.129  12.422   2.180  2.0824  0.6592 -0.3705
   38MOL0     H 5125   2.156  12.454   2.352  1.1663 -1.5020  1.9734
   38MOL0     H 5126   2.527  12.490   2.177 -1.7375  0.0110 -2.4500
   38MOL0     H 5127   1.905  11.777   2.395 -0.7327  0.1796 -0.1979
   38MOL0     H 5128   1.791  11.496   2.239  3.1770 -1.9711 -2.5546
   38MOL0     H 5129   1.925  11.427   2.337  2.1762  1.7363  0.1135
   38MOL0     H 5130   1.816  11.543   2.401  0.1920  0.0082  0.1735
   39MOL0     O 5131   6.852   3.626   4.220 -0.1691  0.2634  0.2050
   39MOL0     C 5132   6.860   3.728   4.158 -0.5356 -0.8869 -0.1934
   39MOL0     O 5133   6.968   3.809   4.157  0.1287  0.1669  0.6359
   39MOL0     C 5134   7.076   3.793   4.239  0.1075  0.3718 -0.2247
   39MOL0     C 5135   7.141   3.666   4.270  0.1858 -0.9426  0.4533
   39MOL0     C 5136   7.261   3.672   4.338  0.1092 -0.7275  0.0335
   39MOL0     C 5137   7.318   3.795   4.381  0.6731 -0.2108  0.0027
   39MOL0     O 5138   7.429   3.792   4.457  0.5813 -0.1707 -0.0440
   39MOL0     C 5139   7.529   3.886   4.427  1.5261 -0.0516 -0.4703
   39MOL0     C 5140   7.661   3.821   4.449 -0.4231 -0.2549 -0.4577
   39MOL0     C 5141   7.687   3.787   4.597 -0.1369 -0.4810  0.4712
   39MOL0     C 5142   7.625   3.670   4.665  0.4318 -0.6031 -0.2616
   39MOL0     C 5143   7.651   3.662   4.813  0.1054  0.5319 -0.0588
   39MOL0     C 5144   7.594   3.530   4.865  0.3823 -0.4308 -0.3522
   39MOL0     C 5145   7.571   3.531   5.019 -0.5040  0.8917  0.3315
   39MOL0     C 5146   7.706   3.512   5.095  0.6805 -0.4076  0.0763
   39MOL0     N 5147   7.680   3.516   5.242  0.7451 -0.4655 -0.3495
   39MOL0     C 5148   7.754   3.591   5.329  0.0968 -0.2892  0.1171
   39MOL0     C 5149   7.688   3.576   5.446  0.6436  0.7916 -0.5263
   39MOL0     C 5150   7.717   3.636   5.583 -0.0261  0.0495 -0.2671
   39MOL0     C 5151   7.853   3.610   5.652  0.1339 -0.2371  0.0032
   39MOL0     C 5152   7.880   3.717   5.762  0.2242 -0.0505  0.3080
   39MOL0     C 5153   7.777   3.722   5.879  0.4430  0.5723 -0.2939
   39MOL0     O 5154   7.833   3.828   5.951  0.0879  0.6202 -0.4818
   39MOL0     C 5155   7.762   3.873   6.051  0.3580  0.2424 -0.3005
   39MOL0     C 5156   7.635   3.828   6.095  0.4929 -0.1887  0.4947
   39MOL0     C 5157   7.582   3.872   6.208  0.4046  0.2660  0.3578
   39MOL0     C 5158   7.638   3.976   6.289  0.6776  0.7012  0.3710
   39MOL0     C 5159   7.567   4.046   6.406 -0.3475 -0.4588  0.1590
   39MOL0     O 5160   7.627   4.145   6.474  0.2030 -0.4361  0.0827
   39MOL0     C 5161   7.556   4.221   6.562  0.0828  0.2591  0.2539
   39MOL0     C 5162   7.592   4.359   6.572 -0.0465  0.3775  0.1332
   39MOL0     C 5163   7.518   4.446   6.659 -0.4826  0.4815  0.3272
   39MOL0     C 5164   7.410   4.400   6.742 -0.2530  0.2245  0.5282
   39MOL0     O 5165   7.354   4.486   6.827 -0.1590 -0.7320 -0.6226
   39MOL0     C 5166   7.234   4.456   6.891 -0.2910  0.4889 -0.9540
   39MOL0     C 5167   7.195   4.563   6.998  1.0467  0.4239 -0.5357
   39MOL0     C 5168   7.043   4.577   7.003  0.4125 -1.6382 -0.1503
   39MOL0     C 5169   7.009   4.669   7.110  0.5156 -0.3940  0.2266
   39MOL0     C 5170   6.856   4.687   7.112  1.1223 -0.4303 -0.2787
   39MOL0     C 5171   6.819   4.783   7.225 -0.3201 -0.1138 -0.9102
   39MOL0     C 5172   6.668   4.815   7.241 -0.2341  0.4432 -0.2281
   39MOL0     C 5173   6.606   4.893   7.125  0.2817 -0.5820 -0.6011
   39MOL0    Cl 5174   6.645   5.057   7.134  0.2124 -0.6414 -0.2466
   39MOL0     C 5175   7.370   4.268   6.721  0.2718  0.0509 -0.7268
   39MOL0     C 5176   7.446   4.182   6.643  0.5758 -0.5509  0.1673
   39MOL0     O 5177   7.446   4.011   6.414  0.3300 -0.7120 -0.6032
   39MOL0     C 5178   7.757   4.027   6.261 -0.0422 -0.0780  0.3957
   39MOL0     C 5179   7.814   3.974   6.139 -1.3471 -0.3402  0.4287
   39MOL0     N 5180   7.580   3.497   5.429  0.1790  0.4209  0.0017
   39MOL0     N 5181   7.576   3.448   5.313  0.3066 -0.1521  0.6806
   39MOL0     C 5182   7.243   3.912   4.364  0.4481  0.6568  1.3547
   39MOL0     C 5183   7.128   3.912   4.288  0.3317 -0.1160  0.1138
   39MOL0     C 5184   6.756   3.751   4.069 -0.1296 -1.0600  0.5723
   39MOL0     C 5185   6.791   3.849   3.972  1.0781 -0.4166 -0.2017
   39MOL0     C 5186   6.700   3.887   3.876 -0.1390  0.2230  1.1917
   39MOL0     C 5187   6.566   3.848   3.871 -0.2533  0.2059 -0.4978
   39MOL0     O 5188   6.482   3.868   3.769  0.1951  0.0065  0.3953
   39MOL0     C 5189   6.521   3.953   3.663 -0.1804 -0.1096  1.3032
   39MOL0     C 5190   6.409   3.997   3.565 -0.2411  0.2918  0.0032
   39MOL0     C 5191   6.452   4.067   3.440  0.3964 -0.4254 -0.9046
   39MOL0     C 5192   6.340   4.152   3.376  0.1248 -0.1267  0.8965
   39MOL0     C 5193   6.336   4.294   3.405  0.4023  0.9123 -0.3862
   39MOL0     C 5194   6.330   4.397   3.456 -0.0654 -1.0783  0.5899
   39MOL0     C 5195   6.537   3.763   3.983  1.3038 -0.5575  0.6831
   39MOL0     C 5196   6.624   3.716   4.083  0.5871 -0.9299 -0.2153
   39MOL0     C 5197   6.566   3.615   4.175 -0.0067  0.1158 -0.0241
   39MOL0     H 5198   7.094   3.574   4.238 -1.8613 -0.1516  1.0028
   39MOL0     H 5199   7.317   3.581   4.356  2.6333  0.4694 -1.2545
   39MOL0     H 5200   7.513   3.912   4.322 -0.9336  0.3117 -0.0806
   39MOL0     H 5201   7.509   3.967   4.497  0.9063 -1.7539  1.4227
   39MOL0     H 5202   7.736   3.897   4.424 -1.8183  0.8121 -1.5736
   39MOL0     H 5203   7.685   3.729   4.395  2.4411  1.3939 -2.3035
   39MOL0     H 5204   7.674   3.877   4.658 -1.5622 -2.4764  3.3511
   39MOL0     H 5205   7.796   3.777   4.594  0.2628  2.8331  0.0867
   39MOL0     H 5206   7.516   3.675   4.655  0.4383 -0.5103 -0.2888
   39MOL0     H 5207   7.649   3.575   4.616 -3.0244 -1.2185 -1.0642
   39MOL0     H 5208   7.759   3.658   4.827  0.4476 -2.2379 -2.3956
   39MOL0     H 5209   7.614   3.744   4.876 -1.9132  0.6179 -1.2539
   39MOL0     H 5210   7.500   3.517   4.810  1.3174  2.3333 -2.9177
   39MOL0     H 5211   7.660   3.449   4.834  1.6206  0.5227 -0.2916
   39MOL0     H 5212   7.506   3.444   5.032  0.6190 -0.0834 -0.2901
   39MOL0     H 5213   7.512   3.613   5.060  0.7105  1.4845  0.9549
   39MOL0     H 5214   7.747   3.413   5.073 -2.5539 -1.6018 -1.1785
   39MOL0     H 5215   7.769   3.596   5.064 -0.9764  0.2940 -1.6054
   39MOL0     H 5216   7.841   3.653   5.310  0.6432 -0.9794  0.2889
   39MOL0     H 5217   7.703   3.742   5.559  2.9395  0.9239  1.4639
   39MOL0     H 5218   7.634   3.599   5.645 -0.3808 -1.4985 -1.6133
   39MOL0     H 5219   7.856   3.509   5.696 -0.5056 -0.5912 -0.7330
   39MOL0     H 5220   7.934   3.612   5.578 -1.0361  3.7876 -1.3803
   39MOL0     H 5221   7.893   3.814   5.713 -2.0636 -0.2653 -0.8823
   39MOL0     H 5222   7.979   3.697   5.804  1.4212 -0.6318 -2.5428
   39MOL0     H 5223   7.757   3.633   5.939  0.6029  0.1026 -0.9314
   39MOL0     H 5224   7.681   3.761   5.844 -0.5088 -2.5864 -1.5754
   39MOL0     H 5225   7.589   3.748   6.040  1.0579 -0.5824  0.5859
   39MOL0     H 5226   7.493   3.823   6.248  1.9092 -2.1755  0.9720
   39MOL0     H 5227   7.669   4.392   6.503 -0.0543 -0.5113 -0.3131
   39MOL0     H 5228   7.562   4.542   6.684  1.7679 -0.9355  2.2637
   39MOL0     H 5229   7.150   4.446   6.821 -1.3227  1.6673  0.0473
   39MOL0     H 5230   7.236   4.359   6.942 -0.4272  0.6609 -0.6167
   39MOL0     H 5231   7.232   4.528   7.095  1.3973  0.4695 -0.6497
   39MOL0     H 5232   7.233   4.662   6.970 -2.1607  2.2622  0.9675
   39MOL0     H 5233   7.026   4.614   6.901 -0.4988 -1.3756  0.0862
   39MOL0     H 5234   6.988   4.484   7.013 -3.2966  0.6541  3.9591
   39MOL0     H 5235   7.056   4.765   7.088 -1.2155  0.1312 -1.4355
   39MOL0     H 5236   7.043   4.634   7.208 -1.4502  1.3687  1.6131
   39MOL0     H 5237   6.806   4.590   7.113  3.4141 -1.8117 -3.5122
   39MOL0     H 5238   6.822   4.732   7.018  1.0351  0.1596  0.0252
   39MOL0     H 5239   6.852   4.736   7.318 -0.7254  0.4752 -0.4623
   39MOL0     H 5240   6.874   4.876   7.214 -1.7267  1.1014  1.6038
   39MOL0     H 5241   6.661   4.868   7.337  1.8351 -1.2971  0.9819
   39MOL0     H 5242   6.605   4.727   7.253  0.8817 -0.3411 -0.0393
   39MOL0     H 5243   6.629   4.848   7.028  4.5669  0.5914 -0.2934
   39MOL0     H 5244   6.497   4.888   7.138  0.3421  1.0427  0.9192
   39MOL0     H 5245   7.284   4.222   6.769 -1.0410  0.5501 -2.4973
   39MOL0     H 5246   7.402   4.083   6.632  0.0164 -0.1299 -2.0046
   39MOL0     H 5247   7.801   4.114   6.308  2.5444 -0.7609 -0.5609
   39MOL0     H 5248   7.906   4.022   6.107 -2.4940  1.4967 -0.2633
   39MOL0     H 5249   7.291   4.006   4.392  0.0149  2.0765 -2.1293
   39MOL0     H 5250   7.078   4.007   4.268  3.2849  1.3190 -1.0600
   39MOL0     H 5251   6.895   3.878   3.961  1.3369 -0.5999  1.5817
   39MOL0     H 5252   6.744   3.951   3.800 -1.5086  1.3812  1.3137
   39MOL0     H 5253   6.601   3.917   3.597  0.2077  3.2543 -0.2363
   39MOL0     H 5254   6.565   4.042   3.708  0.7730 -1.1657  2.5731
   39MOL0     H 5255   6.335   4.055   3.621 -2.7232 -0.6606 -2.0471
   39MOL0     H 5256   6.360   3.902   3.540 -0.6133 -0.5204  3.3553
   39MOL0     H 5257   6.480   3.989   3.368  1.5613 -0.6923 -0.2017
   39MOL0     H 5258   6.541   4.129   3.458 -1.0300  1.5168 -0.1680
   39MOL0     H 5259   6.333   4.130   3.269 -0.0318  2.9171  0.1859
   39MOL0     H 5260   6.246   4.122   3.423  0.0144  1.5964  1.8591
   39MOL0     H 5261   6.338   4.494   3.499  0.8428 -0.7210 -0.3488
   39MOL0     H 5262   6.430   3.750   3.996  0.8205  3.2068  1.5132
   39MOL0     H 5263   6.611   3.516   4.164 -1.9631 -0.6403 -1.9343
   39MOL0     H 5264   6.581   3.651   4.277  0.2376 -0.4638  0.1505
   39MOL0     H 5265   6.460   3.596   4.157  0.1922 -2.8184  1.3286
   40MOL0     O 5266   4.858   7.230   0.255  0.3260 -0.4253  0.8996
   40MOL0     C 5267   4.902   7.207   0.142 -1.0371 -0.1709 -0.0783
   40MOL0     O 5268   4.896   7.285   0.032  0.4742 -0.9615 -0.2898
   40MOL0     C 5269   4.832   7.415   0.017  0.3954  1.2611 -1.3801
   40MOL0     C 5270   4.724   7.456   0.095  0.1335 -1.0170  0.4339
   40MOL0     C 5271   4.657   7.585   0.074 -0.3149 -0.3867  0.2483
   40MOL0     C 5272   4.707   7.674  -0.021 -0.1578 -1.2461  0.8289
   40MOL0     O 5273   4.684   7.813  -0.041 -0.0453 -0.2450 -0.7153
   40MOL0     C 5274   4.549   7.858  -0.046  0.3568 -1.4118 -0.5176
   40MOL0     C 5275   4.534   7.956   0.069 -0.4203  0.2475 -0.3642
   40MOL0     C 5276   4.388   8.007   0.076 -0.4428  0.0251 -0.3773
   40MOL0     C 5277   4.302   7.918   0.174 -0.6199  1.0072 -0.5682
   40MOL0     C 5278   4.159   7.968   0.154 -0.2962  0.8915 -0.0344
   40MOL0     C 5279   4.047   7.876   0.196 -0.5284  0.2944 -1.1219
   40MOL0     C 5280   3.905   7.937   0.181  0.8112 -0.8683 -0.0834
   40MOL0     C 5281   3.848   7.929   0.038 -1.2570 -0.0593 -0.0321
   40MOL0     N 5282   3.715   7.997   0.018  0.1753  1.1033  0.4524
   40MOL0     C 5283   3.609   7.957   0.091 -0.1531  0.7653 -0.5769
   40MOL0     C 5284   3.529   8.059   0.091 -1.1859  0.2283 -1.0375
   40MOL0     C 5285   3.399   8.057   0.149 -1.0494 -0.1365  0.4043
   40MOL0     C 5286   3.374   8.097   0.287 -0.6818 -0.2799  0.0916
   40MOL0     C 5287   3.406   8.248   0.301 -0.3948 -1.5785 -0.0355
   40MOL0     C 5288   3.320   8.311   0.403 -0.4768  0.4075  0.6286
   40MOL0     O 5289   3.297   8.444   0.373  0.7561  0.6669  0.2742
   40MOL0     C 5290   3.164   8.473   0.379  0.1537 -0.0252 -0.3093
   40MOL0     C 5291   3.102   8.500   0.262  0.1257  0.3207 -0.2562
   40MOL0     C 5292   2.968   8.559   0.270  0.3795  0.2547  0.0955
   40MOL0     C 5293   2.891   8.553   0.385 -0.1072  0.4743 -0.4789
   40MOL0     C 5294   2.761   8.610   0.402  0.7995  0.6408  0.4383
   40MOL0     O 5295   2.693   8.634   0.290 -0.6136  0.3213 -0.4913
   40MOL0     C 5296   2.639   8.758   0.270 -0.8592  0.8532 -0.9475
   40MOL0     C 5297   2.540   8.754   0.175  0.4115 -0.0757 -0.0386
   40MOL0     C 5298   2.476   8.869   0.133 -0.1953  0.2332  0.2404
   40MOL0     C 5299   2.509   8.993   0.190 -0.1661  0.0358 -0.0577
   40MOL0     O 5300   2.441   9.113   0.156 -0.5472 -0.0454  0.4558
   40MOL0     C 5301   2.329   9.126   0.069  0.4490 -0.3484  0.2729
   40MOL0     C 5302   2.286   9.261   0.128  0.1341 -0.3388  0.1575
   40MOL0     C 5303   2.171   9.318   0.035 -1.2566  0.0024 -1.2592
   40MOL0     C 5304   2.074   9.410   0.110  0.2431  0.5749  0.1295
   40MOL0     C 5305   1.956   9.428   0.011  1.0928 -0.4592  0.2920
   40MOL0     C 5306   1.839   9.506   0.061  0.0765  0.6933 -0.3344
   40MOL0     C 5307   1.771   9.583  -0.048 -0.0735 -0.5601  0.1822
   40MOL0     C 5308   1.643   9.663  -0.016  0.1024  0.1580 -0.5680
   40MOL0    Cl 5309   1.593   9.771  -0.160  0.0862 -0.1044  0.0370
   40MOL0     C 5310   2.613   9.002   0.287 -0.5186 -0.0608  0.3504
   40MOL0     C 5311   2.679   8.882   0.328  0.0948  0.7531 -0.0552
   40MOL0     O 5312   2.730   8.643   0.515  0.7846  0.3524 -0.1522
   40MOL0     C 5313   2.958   8.512   0.499 -0.2302 -0.6836  0.2251
   40MOL0     C 5314   3.086   8.468   0.495  1.0333  0.0054 -0.2004
   40MOL0     N 5315   3.577   8.162   0.014 -0.0995  0.5534 -0.5771
   40MOL0     N 5316   3.696   8.123  -0.030  0.1768  1.1183 -0.7131
   40MOL0     C 5317   4.824   7.632  -0.094  0.7415  0.4009  0.0713
   40MOL0     C 5318   4.880   7.504  -0.078  0.8164  0.1086  0.8317
   40MOL0     C 5319   4.965   7.072   0.113  0.7508  0.2074  0.0209
   40MOL0     C 5320   4.887   6.963   0.079 -0.5263 -0.1001  0.5415
   40MOL0     C 5321   4.947   6.842   0.028 -0.5117 -0.0981  0.2679
   40MOL0     C 5322   5.085   6.829   0.033 -0.2085 -0.3068 -0.1618
   40MOL0     O 5323   5.150   6.712  -0.006  0.0777 -0.5618  0.4131
   40MOL0     C 5324   5.073   6.606  -0.079 -0.0974 -0.3799  0.0040
   40MOL0     C 5325   5.164   6.479  -0.098  0.2995  1.3373 -0.0531
   40MOL0     C 5326   5.218   6.418   0.040  0.3057 -0.2921 -0.6625
   40MOL0     C 5327   5.368   6.384   0.030 -0.7469  1.5618 -0.7805
   40MOL0     C 5328   5.431   6.356   0.157 -0.9163  0.0865  0.6521
   40MOL0     C 5329   5.476   6.347   0.272  0.6993 -0.2884 -0.4799
   40MOL0     C 5330   5.158   6.944   0.054 -0.2194  0.3508 -0.0899
   40MOL0     C 5331   5.109   7.063   0.095  0.6608  0.7143 -0.7048
   40MOL0     C 5332   5.187   7.186   0.092  0.8067 -0.2337  0.2324
   40MOL0     H 5333   4.685   7.389   0.170 -0.7795 -4.5093 -2.8257
   40MOL0     H 5334   4.571   7.618   0.131 -1.4891 -1.6136 -0.7588
   40MOL0     H 5335   4.547   7.911  -0.142 -1.5395  0.8805  0.6988
   40MOL0     H 5336   4.484   7.770  -0.041  1.2574 -2.3252 -3.0750
   40MOL0     H 5337   4.609   8.032   0.050 -1.6452  1.8658  0.9990
   40MOL0     H 5338   4.552   7.915   0.169  1.1368  1.6725 -0.0217
   40MOL0     H 5339   4.344   8.005  -0.024 -0.1285  0.2840 -0.5249
   40MOL0     H 5340   4.394   8.108   0.118  1.5728  0.6004 -1.8200
   40MOL0     H 5341   4.298   7.816   0.135 -0.4110  1.5401 -2.0270
   40MOL0     H 5342   4.338   7.927   0.277  0.7825 -1.2303 -0.7740
   40MOL0     H 5343   4.150   8.065   0.206 -0.5155 -0.2803  2.2631
   40MOL0     H 5344   4.144   7.983   0.047 -1.3634 -1.7245 -0.3225
   40MOL0     H 5345   4.049   7.784   0.137 -0.1464 -2.0022  2.2269
   40MOL0     H 5346   4.059   7.852   0.302 -3.9279 -0.3760 -0.7697
   40MOL0     H 5347   3.902   8.040   0.216  0.2935 -0.6391 -0.7726
   40MOL0     H 5348   3.837   7.892   0.253 -3.2088  5.9718  1.2638
   40MOL0     H 5349   3.920   7.971  -0.033 -1.7230 -0.4465 -0.7452
   40MOL0     H 5350   3.836   7.828  -0.002 -0.8648  0.2409 -0.9324
   40MOL0     H 5351   3.603   7.864   0.147 -0.7023 -1.5294 -4.1495
   40MOL0     H 5352   3.345   8.116   0.074 -2.5660 -0.1110  1.4660
   40MOL0     H 5353   3.356   7.957   0.144  0.4068 -1.0527  3.7359
   40MOL0     H 5354   3.272   8.065   0.310 -1.6737  2.0120 -0.8224
   40MOL0     H 5355   3.451   8.054   0.352 -0.4596 -0.4212 -0.2658
   40MOL0     H 5356   3.379   8.303   0.211  1.5498 -1.1580 -0.4209
   40MOL0     H 5357   3.511   8.273   0.320 -1.1279  1.0680  1.0816
   40MOL0     H 5358   3.371   8.307   0.500  1.1748 -0.0429 -0.2402
   40MOL0     H 5359   3.232   8.246   0.413 -0.3559  0.4726  2.4524
   40MOL0     H 5360   3.171   8.499   0.179  0.1003  2.3961 -0.3698
   40MOL0     H 5361   2.923   8.601   0.181 -0.1274 -0.4997 -0.0181
   40MOL0     H 5362   2.509   8.665   0.123  0.5557  0.4302 -1.0141
   40MOL0     H 5363   2.390   8.864   0.068  1.0228 -0.0234 -1.4123
   40MOL0     H 5364   2.353   9.133  -0.038 -1.8476 -1.1477 -0.3577
   40MOL0     H 5365   2.255   9.047   0.083  1.6950 -1.7302 -0.5833
   40MOL0     H 5366   2.242   9.258   0.228 -1.3416  0.6652 -0.4117
   40MOL0     H 5367   2.376   9.322   0.121  1.6963 -2.6252 -0.9758
   40MOL0     H 5368   2.230   9.378  -0.035  0.9490  1.4096  1.5565
   40MOL0     H 5369   2.122   9.236  -0.018 -0.8622 -2.2844  1.6466
   40MOL0     H 5370   2.108   9.513   0.121 -1.1796  1.4978 -2.8668
   40MOL0     H 5371   2.041   9.368   0.205  1.4990 -0.1488  0.2710
   40MOL0     H 5372   1.910   9.337  -0.030 -2.8467  0.2444  2.5839
   40MOL0     H 5373   1.992   9.488  -0.074 -1.3555 -0.7646 -1.0689
   40MOL0     H 5374   1.768   9.434   0.103 -1.2858  2.2883  0.2036
   40MOL0     H 5375   1.875   9.575   0.138 -1.3853  0.1928  0.8632
   40MOL0     H 5376   1.739   9.515  -0.127 -1.3813 -2.1919  2.0440
   40MOL0     H 5377   1.853   9.644  -0.089  1.5471 -2.1757  0.8529
   40MOL0     H 5378   1.566   9.595   0.020  1.0902 -0.8738 -0.3330
   40MOL0     H 5379   1.684   9.733   0.057 -1.9399  3.2371 -2.1705
   40MOL0     H 5380   2.644   9.097   0.328 -1.1898 -1.1243  3.6708
   40MOL0     H 5381   2.766   8.894   0.392  0.6399  1.9454 -0.9894
   40MOL0     H 5382   2.903   8.519   0.592  0.3660  3.0493  0.4508
   40MOL0     H 5383   3.130   8.439   0.590  0.4915  0.2687  0.1383
   40MOL0     H 5384   4.860   7.704  -0.168 -0.5736  1.7642  0.6885
   40MOL0     H 5385   4.969   7.480  -0.134 -0.2987  2.1610 -2.0607
   40MOL0     H 5386   4.779   6.970   0.076 -0.5676  3.4000  3.0282
   40MOL0     H 5387   4.878   6.759   0.014  1.0629 -1.5190  0.5000
   40MOL0     H 5388   5.036   6.648  -0.173  0.2886 -0.4438 -0.1779
   40MOL0     H 5389   4.985   6.581  -0.020  1.2073 -6.4965 -0.0274
   40MOL0     H 5390   5.247   6.507  -0.163 -0.1692  2.0517 -0.3575
   40MOL0     H 5391   5.091   6.412  -0.144 -0.2105  1.9931 -0.2094
   40MOL0     H 5392   5.160   6.329   0.065  1.9732 -1.6985 -1.6202
   40MOL0     H 5393   5.193   6.492   0.118  0.0030  1.8107 -2.6369
   40MOL0     H 5394   5.383   6.301  -0.039  3.3591 -0.8224  2.4627
   40MOL0     H 5395   5.413   6.474  -0.012  0.9058  2.1208  1.9376
   40MOL0     H 5396   5.538   6.343   0.359  1.6276 -0.8749 -1.1634
   40MOL0     H 5397   5.260   6.938   0.017 -0.6791 -1.2451 -1.2308
   40MOL0     H 5398   5.138   7.276   0.130  2.2280  1.0685 -0.8759
   40MOL0     H 5399   5.279   7.174   0.150  1.3320  1.0891 -0.2874
   40MOL0     H 5400   5.217   7.195  -0.013  1.2000 -1.8652  0.1792
   41MOL0     O 5401   7.579   5.452   2.545  0.7001 -0.4240 -0.0028
   41MOL0     C 5402   7.462   5.430   2.565  0.0889 -1.2578 -0.0053
   41MOL0     O 5403   7.403   5.381   2.678 -0.7650 -0.5210  0.3731
   41MOL0     C 5404   7.486   5.334   2.780 -0.2551  0.5671  0.0379
   41MOL0     C 5405   7.593   5.238   2.755  0.3291 -0.3420  0.7185
   41MOL0     C 5406   7.671   5.190   2.862  0.0634 -0.0118 -0.1052
   41MOL0     C 5407   7.648   5.228   2.999 -0.0827  0.4097  0.2134
   41MOL0     O 5408   7.735   5.197   3.106  0.6204 -1.1311  0.3223
   41MOL0     C 5409   7.828   5.094   3.066  0.2811  0.4422  0.5854
   41MOL0     C 5410   7.889   5.058   3.205 -0.1494  0.4008  0.5187
   41MOL0     C 5411   7.917   4.903   3.213  0.6556  0.3029 -0.1768
   41MOL0     C 5412   7.893   4.862   3.367  0.9438 -0.3237  1.7270
   41MOL0     C 5413   7.931   4.719   3.399 -0.8796 -0.0029  0.6371
   41MOL0     C 5414   8.003   4.720   3.531  0.3995 -0.6987 -0.0755
   41MOL0     C 5415   8.057   4.579   3.580  0.2201 -0.4069 -0.0467
   41MOL0     C 5416   8.195   4.558   3.516 -0.3079  0.3793 -0.0001
   41MOL0     N 5417   8.270   4.429   3.540  0.4662  0.4479 -0.9545
   41MOL0     C 5418   8.319   4.342   3.452  0.9669 -1.0017  0.4896
   41MOL0     C 5419   8.403   4.255   3.517  0.6218  0.3463  0.3178
   41MOL0     C 5420   8.464   4.130   3.458  1.6142  0.0012  1.2046
   41MOL0     C 5421   8.622   4.122   3.461 -0.0316  0.1639  0.0747
   41MOL0     C 5422   8.673   3.990   3.396  1.3165 -0.1131  0.8759
   41MOL0     C 5423   8.826   3.979   3.416 -0.0950  0.3743  0.1830
   41MOL0     O 5424   8.879   3.866   3.348 -0.4482  0.3582 -0.3141
   41MOL0     C 5425   9.017   3.863   3.317  0.6470  0.0062  0.2951
   41MOL0     C 5426   9.123   3.954   3.359 -0.3986  0.0877 -0.4506
   41MOL0     C 5427   9.258   3.928   3.323  0.0956 -0.2822  0.6228
   41MOL0     C 5428   9.291   3.828   3.225  0.4357  0.6476  0.5239
   41MOL0     C 5429   9.435   3.799   3.188  0.0855 -0.3903 -0.6491
   41MOL0     O 5430   9.466   3.685   3.112  0.6410  0.5535  0.3518
   41MOL0     C 5431   9.599   3.639   3.119  0.1359  0.1614 -1.1466
   41MOL0     C 5432   9.695   3.663   3.225 -0.6384 -0.2478  0.0721
   41MOL0     C 5433   9.821   3.597   3.218 -0.6805 -0.8171  0.9429
   41MOL0     C 5434   9.856   3.505   3.108 -0.7412 -1.3946  0.4225
   41MOL0     O 5435   9.974   3.423   3.111  0.8167  0.4597  0.7506
   41MOL0     C 5436  10.084   3.456   3.193  0.2652 -0.2881  0.4486
   41MOL0     C 5437  10.199   3.393   3.115  0.6493 -0.7392 -0.0765
   41MOL0     C 5438  10.224   3.469   2.985 -0.3314 -0.6406 -0.3439
   41MOL0     C 5439  10.361   3.427   2.939  0.7487 -0.3349 -0.5729
   41MOL0     C 5440  10.419   3.510   2.825 -0.3899 -0.1233 -0.2197
   41MOL0     C 5441  10.446   3.654   2.866  0.1970 -0.3808  0.7361
   41MOL0     C 5442  10.543   3.716   2.769  0.0851 -0.0080 -0.8750
   41MOL0     C 5443  10.608   3.840   2.837  0.1148  0.7558 -0.8301
   41MOL0    Cl 5444  10.674   3.939   2.706 -0.0478  0.1250  0.3902
   41MOL0     C 5445   9.761   3.501   3.001  0.1279  0.5448  0.7223
   41MOL0     C 5446   9.636   3.563   3.011 -0.5063  0.3299 -0.0942
   41MOL0     O 5447   9.516   3.877   3.241 -0.5415  0.2795 -0.0284
   41MOL0     C 5448   9.183   3.746   3.187  0.4965  0.1569 -0.1061
   41MOL0     C 5449   9.057   3.769   3.224  1.1973  0.0124 -0.8870
   41MOL0     N 5450   8.398   4.292   3.649 -0.5260  0.3904 -0.2400
   41MOL0     N 5451   8.330   4.404   3.665 -0.4650 -0.6684  1.4042
   41MOL0     C 5452   7.548   5.323   3.010 -0.4308  0.1154  0.4212
   41MOL0     C 5453   7.460   5.369   2.905 -0.4982  0.1633  0.5234
   41MOL0     C 5454   7.388   5.465   2.437  0.3907 -0.4781  0.4475
   41MOL0     C 5455   7.464   5.503   2.323  0.1212  1.4701  0.9145
   41MOL0     C 5456   7.400   5.537   2.207 -0.8475 -0.4105  0.8721
   41MOL0     C 5457   7.262   5.542   2.188 -0.3462 -0.0934  0.1961
   41MOL0     O 5458   7.202   5.561   2.067 -0.2241 -0.1293 -0.1485
   41MOL0     C 5459   7.116   5.465   2.019 -1.0827 -0.2444 -0.1594
   41MOL0     C 5460   7.132   5.459   1.873  1.0864 -0.4528 -0.4071
   41MOL0     C 5461   7.032   5.375   1.795 -0.3260  0.3746 -0.6143
   41MOL0     C 5462   7.066   5.371   1.650 -1.2513 -0.1431  0.1185
   41MOL0     C 5463   7.016   5.252   1.584  0.5094  0.3171 -0.7874
   41MOL0     C 5464   6.981   5.148   1.538  0.3547  0.4758  0.1139
   41MOL0     C 5465   7.188   5.502   2.296  1.1747  0.7825 -0.5354
   41MOL0     C 5466   7.245   5.458   2.422  0.7493 -0.6667 -0.2728
   41MOL0     C 5467   7.156   5.424   2.537  0.5532 -0.2852  0.1197
   41MOL0     H 5468   7.624   5.215   2.654 -1.4739  1.6927 -0.3806
   41MOL0     H 5469   7.762   5.138   2.835  1.8114  0.8432  3.6029
   41MOL0     H 5470   7.774   5.009   3.022  1.0744  1.4610 -2.5822
   41MOL0     H 5471   7.910   5.122   2.999 -0.9969 -0.1777 -1.3248
   41MOL0     H 5472   7.816   5.082   3.283 -3.6801 -2.3536 -1.6335
   41MOL0     H 5473   7.980   5.117   3.218 -0.4796  0.6909  1.7203
   41MOL0     H 5474   8.021   4.886   3.184  0.7709 -2.7840  1.6007
   41MOL0     H 5475   7.857   4.844   3.143  1.3532 -2.0180  1.0699
   41MOL0     H 5476   7.945   4.924   3.441  1.4109 -1.0014  1.9828
   41MOL0     H 5477   7.787   4.879   3.390  0.5834  3.9251 -1.7110
   41MOL0     H 5478   7.842   4.655   3.389  0.6969 -1.9735 -1.9709
   41MOL0     H 5479   7.995   4.680   3.319 -1.2813 -4.3547  2.1523
   41MOL0     H 5480   8.092   4.783   3.524 -1.9968  2.8883 -1.3151
   41MOL0     H 5481   7.942   4.764   3.610  0.5804 -1.9251  0.7731
   41MOL0     H 5482   7.979   4.513   3.541  0.9271 -0.4081 -1.5486
   41MOL0     H 5483   8.065   4.569   3.689  1.1440  0.3915 -0.0337
   41MOL0     H 5484   8.180   4.575   3.409 -2.3348  0.2164  0.2113
   41MOL0     H 5485   8.261   4.638   3.551 -0.5644  1.3253 -1.5862
   41MOL0     H 5486   8.294   4.340   3.346  3.0916  0.1762 -0.0919
   41MOL0     H 5487   8.436   4.051   3.528  2.1775 -0.4854  0.8938
   41MOL0     H 5488   8.419   4.122   3.359  1.5849  2.1492  0.9992
   41MOL0     H 5489   8.664   4.211   3.414 -0.2979 -0.4305 -1.3241
   41MOL0     H 5490   8.649   4.113   3.567  0.9885  1.5122 -0.0363
   41MOL0     H 5491   8.638   3.988   3.292  2.7061  1.0937  0.3545
   41MOL0     H 5492   8.638   3.895   3.438 -1.1837 -0.0022 -0.7012
   41MOL0     H 5493   8.861   3.983   3.519  2.3920 -3.4189 -0.3074
   41MOL0     H 5494   8.878   4.059   3.361 -0.7058  1.0841  0.6171
   41MOL0     H 5495   9.113   4.036   3.429  1.9956  1.5430 -1.6754
   41MOL0     H 5496   9.334   3.979   3.382  0.4723 -1.4765  1.1893
   41MOL0     H 5497   9.676   3.725   3.312 -0.6187  2.1679 -1.5518
   41MOL0     H 5498   9.881   3.608   3.308 -2.7430  0.3457  2.2603
   41MOL0     H 5499  10.102   3.563   3.183  1.8666 -0.4905  0.9957
   41MOL0     H 5500  10.075   3.422   3.296 -3.2550  2.1813  1.1454
   41MOL0     H 5501  10.297   3.397   3.163  1.4445  3.1446 -1.6375
   41MOL0     H 5502  10.162   3.292   3.100 -2.7818  0.6114 -1.9731
   41MOL0     H 5503  10.138   3.474   2.917  0.0797  0.0190 -0.8308
   41MOL0     H 5504  10.240   3.573   3.016 -0.9590 -0.5034 -0.4515
   41MOL0     H 5505  10.372   3.324   2.903 -0.5381 -1.2464  1.4274
   41MOL0     H 5506  10.428   3.433   3.025 -2.1996 -2.7907  2.1837
   41MOL0     H 5507  10.344   3.514   2.746 -1.1745  3.1574  0.5050
   41MOL0     H 5508  10.511   3.471   2.780  0.3752  3.5348 -2.3379
   41MOL0     H 5509  10.351   3.707   2.857  0.1218 -0.6402 -0.0242
   41MOL0     H 5510  10.472   3.667   2.972  0.3284 -1.4546  0.8446
   41MOL0     H 5511  10.490   3.741   2.676  0.2736 -1.7602 -1.4902
   41MOL0     H 5512  10.627   3.656   2.733  0.2713 -1.4292  1.7089
   41MOL0     H 5513  10.522   3.888   2.885  0.5206 -0.2731  1.0250
   41MOL0     H 5514  10.684   3.816   2.912 -0.5187 -3.2481 -1.2413
   41MOL0     H 5515   9.782   3.435   2.917  1.8604  2.1048 -0.1564
   41MOL0     H 5516   9.563   3.549   2.931 -1.1142  0.9617  0.3309
   41MOL0     H 5517   9.202   3.661   3.122  1.0666 -0.5955  1.0085
   41MOL0     H 5518   8.994   3.693   3.180 -0.4420  0.9529 -0.2347
   41MOL0     H 5519   7.533   5.380   3.102  1.2250 -1.3619  1.6689
   41MOL0     H 5520   7.381   5.435   2.939 -0.4243  1.6539 -2.0121
   41MOL0     H 5521   7.572   5.500   2.315  0.5423 -1.3879  4.9866
   41MOL0     H 5522   7.456   5.577   2.123 -0.6876 -3.8134 -0.8230
   41MOL0     H 5523   7.018   5.503   2.047 -2.0708 -1.9667 -1.1369
   41MOL0     H 5524   7.141   5.365   2.057  0.3060  0.2616  0.3397
   41MOL0     H 5525   7.235   5.441   1.843  1.3400 -1.7344  1.1013
   41MOL0     H 5526   7.106   5.560   1.840 -0.2660 -1.1961 -1.7831
   41MOL0     H 5527   6.930   5.405   1.818 -0.8904 -1.6532 -0.2393
   41MOL0     H 5528   7.040   5.271   1.830 -5.0472 -0.1921 -0.5925
   41MOL0     H 5529   7.029   5.465   1.608 -0.6255  1.4786  2.8941
   41MOL0     H 5530   7.174   5.370   1.632 -1.0809  1.8983  0.7427
   41MOL0     H 5531   6.944   5.064   1.484 -1.4246  0.8603  0.6637
   41MOL0     H 5532   7.080   5.513   2.300  1.3222  2.3181  1.9625
   41MOL0     H 5533   7.196   5.336   2.588  1.9843  0.1544 -0.1894
   41MOL0     H 5534   7.150   5.513   2.600  1.4481  0.7781 -1.2274
   41MOL0     H 5535   7.065   5.381   2.493  1.3285 -1.3934 -0.4535
   42MOL0     O 5536   0.785   6.442   6.077  0.4984  0.2513 -0.1442
   42MOL0     C 5537   0.706   6.488   6.002  0.8390  0.1228  1.0367
   42MOL0     O 5538   0.628   6.416   5.903  0.1326 -0.1983 -0.8182
   42MOL0     C 5539   0.625   6.271   5.894 -0.0253 -0.0730 -0.0349
   42MOL0     C 5540   0.634   6.182   6.002  0.7484  0.4486  1.1340
   42MOL0     C 5541   0.611   6.049   5.976 -0.2033  0.3334 -0.0252
   42MOL0     C 5542   0.574   6.004   5.854 -0.0393  0.7486  0.5205
   42MOL0     O 5543   0.548   5.869   5.826  0.5509 -0.2587  0.3727
   42MOL0     C 5544   0.425   5.811   5.872  0.3112  0.6281 -0.9749
   42MOL0     C 5545   0.377   5.697   5.791 -0.6175 -0.8333  0.0221
   42MOL0     C 5546   0.366   5.741   5.642  0.5363 -0.3039 -0.2494
   42MOL0     C 5547   0.287   5.635   5.566 -0.0666 -0.5019  0.3810
   42MOL0     C 5548   0.242   5.702   5.439 -0.3124 -0.0037  0.1352
   42MOL0     C 5549   0.165   5.609   5.341  0.6831  0.4469 -0.2713
   42MOL0     C 5550   0.137   5.676   5.199 -0.5632  0.5995 -0.4496
   42MOL0     C 5551   0.266   5.706   5.118  0.4722  0.3626 -0.2790
   42MOL0     N 5552   0.339   5.584   5.099  0.6237  0.1598  0.2087
   42MOL0     C 5553   0.312   5.501   4.994 -0.7331  0.1837 -0.3252
   42MOL0     C 5554   0.399   5.401   5.008 -0.4744  0.2931 -0.5229
   42MOL0     C 5555   0.397   5.270   4.923 -0.1270 -0.3597 -0.5152
   42MOL0     C 5556   0.502   5.167   4.975  0.8519 -0.1622 -0.2856
   42MOL0     C 5557   0.513   5.025   4.900  0.0229  0.4798 -0.3609
   42MOL0     C 5558   0.445   5.007   4.767  0.0021  0.5790  0.4944
   42MOL0     O 5559   0.310   5.032   4.788  0.3838 -0.7721 -0.4125
   42MOL0     C 5560   0.232   5.114   4.713 -0.7592  0.0045 -0.3992
   42MOL0     C 5561   0.266   5.176   4.598  1.2051 -0.0268 -0.2585
   42MOL0     C 5562   0.164   5.259   4.526 -0.1108 -0.1083 -0.0064
   42MOL0     C 5563   0.036   5.289   4.582 -0.6619 -0.7417 -1.0670
   42MOL0     C 5564  -0.078   5.361   4.512  0.6884 -0.9564  0.3094
   42MOL0     O 5565  -0.201   5.387   4.568  0.5454  0.1902 -0.2683
   42MOL0     C 5566  -0.299   5.461   4.511 -0.2268 -0.1869  0.0337
   42MOL0     C 5567  -0.431   5.435   4.534  0.3331  0.1950  0.2767
   42MOL0     C 5568  -0.535   5.509   4.471  0.6201 -0.2803 -0.3623
   42MOL0     C 5569  -0.503   5.613   4.389  0.7936  0.2954 -0.7532
   42MOL0     O 5570  -0.596   5.694   4.335 -0.5215 -0.4840 -0.4789
   42MOL0     C 5571  -0.575   5.797   4.240 -0.1781  0.0237 -0.2668
   42MOL0     C 5572  -0.708   5.869   4.203  0.3997  0.4243  0.6848
   42MOL0     C 5573  -0.816   5.760   4.154  0.2325 -1.2824 -0.1145
   42MOL0     C 5574  -0.922   5.819   4.055  0.0210  0.0771 -0.1671
   42MOL0     C 5575  -0.985   5.954   4.113  0.3516 -0.5755  0.3242
   42MOL0     C 5576  -1.058   5.929   4.244 -0.6118 -1.6290 -0.2505
   42MOL0     C 5577  -1.196   5.860   4.216 -0.1485 -0.0141 -0.9180
   42MOL0     C 5578  -1.294   5.967   4.181  0.6262 -0.1998 -1.2285
   42MOL0    Cl 5579  -1.461   5.920   4.242  0.0467 -0.0396 -0.1390
   42MOL0     C 5580  -0.374   5.645   4.381 -0.9088  0.2829 -0.0736
   42MOL0     C 5581  -0.265   5.575   4.436 -0.5566  0.6930  0.7566
   42MOL0     O 5582  -0.050   5.392   4.396  0.0466  0.0955  0.4489
   42MOL0     C 5583   0.006   5.230   4.708 -0.1245  0.2400  0.6647
   42MOL0     C 5584   0.105   5.143   4.769 -1.4939 -1.4936 -0.7016
   42MOL0     N 5585   0.482   5.422   5.110 -0.5806 -0.4945 -1.3172
   42MOL0     N 5586   0.444   5.536   5.167 -0.3049  0.2040 -0.2793
   42MOL0     C 5587   0.561   6.095   5.749  0.1559  0.7695  0.4055
   42MOL0     C 5588   0.592   6.226   5.764 -1.1865  0.0852 -0.6416
   42MOL0     C 5589   0.670   6.630   5.992 -0.3494 -0.9053 -0.0914
   42MOL0     C 5590   0.542   6.675   6.008  0.4496  1.3970 -0.8668
   42MOL0     C 5591   0.508   6.805   5.998  0.1606  0.8461 -0.7949
   42MOL0     C 5592   0.607   6.905   5.983 -0.2808  0.2988  0.5218
   42MOL0     O 5593   0.562   7.035   5.988  0.0325  0.1619 -0.5897
   42MOL0     C 5594   0.642   7.146   5.932 -0.1087 -0.2862 -0.1546
   42MOL0     C 5595   0.720   7.231   6.034 -0.1028  0.4037  0.2520
   42MOL0     C 5596   0.840   7.152   6.092  0.0434 -0.0745  0.4715
   42MOL0     C 5597   0.898   7.223   6.218  0.4249  0.4013  0.6485
   42MOL0     C 5598   1.022   7.163   6.269 -0.0383 -0.3426  0.0613
   42MOL0     C 5599   1.118   7.105   6.318  0.5334 -1.0582 -0.3485
   42MOL0     C 5600   0.740   6.864   5.968 -0.3687 -0.1167  0.2308
   42MOL0     C 5601   0.771   6.729   5.967  0.0677  0.1656 -0.9367
   42MOL0     C 5602   0.917   6.686   5.946  0.5760 -0.3326 -0.3565
   42MOL0     H 5603   0.666   6.224   6.097  1.5370 -3.4969  2.8042
   42MOL0     H 5604   0.626   5.984   6.063  4.6367  2.1159  0.8084
   42MOL0     H 5605   0.429   5.788   5.980  2.2382  2.0738 -0.6984
   42MOL0     H 5606   0.348   5.887   5.858 -0.8221 -0.7873 -2.9551
   42MOL0     H 5607   0.283   5.667   5.840 -2.4074  0.7242 -2.2636
   42MOL0     H 5608   0.450   5.616   5.790  0.3120 -0.0353 -1.8033
   42MOL0     H 5609   0.469   5.744   5.606  1.1478 -0.0432  1.4202
   42MOL0     H 5610   0.327   5.843   5.629  2.3356  0.2351 -1.8273
   42MOL0     H 5611   0.354   5.551   5.548 -2.3588 -2.5224  0.9091
   42MOL0     H 5612   0.199   5.600   5.620 -0.4682 -0.9252 -0.5328
   42MOL0     H 5613   0.186   5.793   5.461 -1.7605 -1.3499  2.4523
   42MOL0     H 5614   0.339   5.726   5.393 -1.0934 -0.0248 -1.6210
   42MOL0     H 5615   0.224   5.519   5.323 -0.2955  0.0843 -1.8951
   42MOL0     H 5616   0.076   5.584   5.400  2.4271  2.8861  3.8299
   42MOL0     H 5617   0.084   5.769   5.220 -0.6205  0.2004  1.3521
   42MOL0     H 5618   0.074   5.610   5.138  2.2194 -1.3307 -1.4637
   42MOL0     H 5619   0.227   5.731   5.018  2.1574 -1.5606 -1.4842
   42MOL0     H 5620   0.324   5.786   5.164  2.2620 -0.0550 -1.6877
   42MOL0     H 5621   0.233   5.503   4.920 -1.1598  0.7592  0.1366
   42MOL0     H 5622   0.292   5.241   4.922 -0.6828  1.4477  0.8315
   42MOL0     H 5623   0.409   5.296   4.817  0.4719  0.3672 -0.2839
   42MOL0     H 5624   0.602   5.209   4.960  0.4690  0.3404 -1.6357
   42MOL0     H 5625   0.487   5.149   5.081  1.1338  2.0876  0.1883
   42MOL0     H 5626   0.470   4.949   4.966 -4.8020  1.8140 -1.6025
   42MOL0     H 5627   0.618   4.999   4.884 -0.6263 -3.8871  1.1962
   42MOL0     H 5628   0.454   4.902   4.738  1.9040  1.2506 -1.6704
   42MOL0     H 5629   0.499   5.077   4.702  3.5669 -0.8707  1.6616
   42MOL0     H 5630   0.366   5.173   4.557 -0.0836  2.6850 -4.2955
   42MOL0     H 5631   0.196   5.312   4.437 -1.6290  2.5583  0.8989
   42MOL0     H 5632  -0.457   5.345   4.589 -1.5258  0.6330  0.1818
   42MOL0     H 5633  -0.639   5.483   4.486  1.0748 -1.0515  1.9574
   42MOL0     H 5634  -0.495   5.865   4.271 -0.0523 -0.6452  0.9536
   42MOL0     H 5635  -0.539   5.747   4.149  1.0069  2.0198 -0.9544
   42MOL0     H 5636  -0.743   5.915   4.296 -1.0518  1.0672 -0.1421
   42MOL0     H 5637  -0.684   5.946   4.129  0.4570  2.5245  2.7621
   42MOL0     H 5638  -0.766   5.679   4.100  1.8017 -1.3351  1.3388
   42MOL0     H 5639  -0.876   5.717   4.234 -0.3822  1.6107  1.1177
   42MOL0     H 5640  -1.008   5.755   4.030  0.1840 -1.2168  2.2461
   42MOL0     H 5641  -0.865   5.829   3.963  3.7823  0.7440  2.0445
   42MOL0     H 5642  -1.062   5.995   4.047 -0.7672 -1.4857  1.0108
   42MOL0     H 5643  -0.918   6.034   4.144 -1.6173  1.8293 -1.2396
   42MOL0     H 5644  -1.004   5.869   4.319  0.5797  0.9163  1.0523
   42MOL0     H 5645  -1.078   6.024   4.294  1.0831 -1.2712 -0.2040
   42MOL0     H 5646  -1.226   5.824   4.315  1.3702  3.0492  0.7979
   42MOL0     H 5647  -1.190   5.794   4.129  1.1985  3.4322 -3.6716
   42MOL0     H 5648  -1.267   6.057   4.238 -2.1413 -0.7666  1.2070
   42MOL0     H 5649  -1.297   5.987   4.074 -3.0712  0.8158 -1.0415
   42MOL0     H 5650  -0.353   5.735   4.324 -4.7772  1.7145  0.4466
   42MOL0     H 5651  -0.163   5.602   4.409 -0.2219  1.0650  2.3111
   42MOL0     H 5652  -0.088   5.253   4.756 -0.0454  0.5319  0.6836
   42MOL0     H 5653   0.091   5.088   4.862 -0.8065 -0.4189  0.0745
   42MOL0     H 5654   0.535   6.050   5.654  1.8816 -3.2167  1.5937
   42MOL0     H 5655   0.590   6.309   5.693  4.3757  1.1250 -0.0638
   42MOL0     H 5656   0.464   6.602   6.029  2.0677 -0.8328 -2.1409
   42MOL0     H 5657   0.405   6.839   6.009  0.1336  0.8102 -0.9357
   42MOL0     H 5658   0.566   7.206   5.880 -2.1268 -2.3254  0.2588
   42MOL0     H 5659   0.703   7.105   5.851 -1.2620 -2.8758  0.1960
   42MOL0     H 5660   0.658   7.280   6.110  1.6290  3.9512 -0.4130
   42MOL0     H 5661   0.753   7.317   5.975 -1.0052  0.2449 -0.4920
   42MOL0     H 5662   0.915   7.142   6.012  0.0098 -1.0597  0.5504
   42MOL0     H 5663   0.810   7.049   6.115 -3.7685  1.4278  3.1743
   42MOL0     H 5664   0.906   7.332   6.215  1.4455  0.3124 -0.1071
   42MOL0     H 5665   0.816   7.208   6.290 -1.3795 -2.5694 -1.7817
   42MOL0     H 5666   1.208   7.061   6.358  0.7416 -0.3396 -0.0061
   42MOL0     H 5667   0.821   6.932   5.943 -0.1297 -1.1993 -2.2741
   42MOL0     H 5668   0.954   6.617   6.022 -1.2205  0.3432  1.2080
   42MOL0     H 5669   0.921   6.646   5.844 -0.2444  0.2660 -0.6333
   42MOL0     H 5670   0.974   6.777   5.964  0.4975 -0.1328 -1.0736
   43MOL0     O 5671   3.364   9.179   3.244 -0.6337 -0.2222 -0.7032
   43MOL0     C 5672   3.353   9.153   3.123 -0.4697 -0.2578  0.4779
   43MOL0     O 5673   3.381   9.237   3.018 -0.5648 -0.5832 -0.5689
   43MOL0     C 5674   3.449   9.357   3.052  0.3906  0.7876  0.2955
   43MOL0     C 5675   3.415   9.466   2.973 -0.6550 -0.3213  0.0010
   43MOL0     C 5676   3.481   9.591   2.991  0.6699 -0.2846  0.5072
   43MOL0     C 5677   3.578   9.602   3.090  0.2427 -0.7178 -0.6651
   43MOL0     O 5678   3.637   9.720   3.108  0.0174 -0.7204 -0.5423
   43MOL0     C 5679   3.684   9.756   3.240 -0.1606  0.3916 -0.1241
   43MOL0     C 5680   3.758   9.889   3.219  0.2184  0.3004  0.1404
   43MOL0     C 5681   3.813   9.958   3.348 -0.6927  0.0834 -0.1202
   43MOL0     C 5682   3.713   9.971   3.472 -0.2888 -0.3575 -0.4009
   43MOL0     C 5683   3.590  10.037   3.441  0.6445 -0.4759 -0.2683
   43MOL0     C 5684   3.493  10.006   3.552  0.1777 -0.7768  0.3105
   43MOL0     C 5685   3.365  10.078   3.526 -0.0471  0.8234  0.2466
   43MOL0     C 5686   3.282  10.018   3.411 -0.0685 -0.2017  0.4153
   43MOL0     N 5687   3.245   9.872   3.423 -0.0905  0.0137 -0.9492
   43MOL0     C 5688   3.285   9.766   3.350  0.5437  0.1973 -0.0351
   43MOL0     C 5689   3.236   9.654   3.416  0.0108 -0.2136 -0.4122
   43MOL0     C 5690   3.267   9.511   3.391 -0.2470  0.2335 -0.9009
   43MOL0     C 5691   3.172   9.401   3.444  0.3027 -0.0501 -0.1063
   43MOL0     C 5692   3.033   9.405   3.375 -0.0747 -0.4907  0.0146
   43MOL0     C 5693   3.037   9.403   3.220 -0.1972  0.4035 -0.7360
   43MOL0     O 5694   3.014   9.270   3.190 -0.4228  0.6496  0.2033
   43MOL0     C 5695   2.991   9.233   3.055  0.5772  0.8640  0.1223
   43MOL0     C 5696   2.936   9.102   3.036  0.8543 -0.9724  0.2171
   43MOL0     C 5697   2.925   9.054   2.904  0.2588 -0.2749  0.0361
   43MOL0     C 5698   2.970   9.136   2.796  0.6720  0.2434 -0.4316
   43MOL0     C 5699   2.977   9.098   2.653 -0.3257  0.5993  0.7105
   43MOL0     O 5700   2.986   8.958   2.617 -0.1094 -0.2451  0.5402
   43MOL0     C 5701   3.018   8.928   2.486 -0.1575 -0.1550  0.3141
   43MOL0     C 5702   3.135   8.855   2.465 -0.6696 -0.0282 -0.1585
   43MOL0     C 5703   3.180   8.826   2.335 -0.4421 -0.1407 -0.3765
   43MOL0     C 5704   3.094   8.846   2.224  0.2052 -0.4966 -0.2773
   43MOL0     O 5705   3.138   8.795   2.106  0.3546  0.1874 -0.2361
   43MOL0     C 5706   3.037   8.798   2.003 -0.5130  0.4034  0.6939
   43MOL0     C 5707   2.936   8.684   2.032 -1.4605 -0.6354  0.1693
   43MOL0     C 5708   3.011   8.552   2.010  0.3242  0.0346  0.7361
   43MOL0     C 5709   3.034   8.473   2.149 -0.0392 -0.1997 -0.2666
   43MOL0     C 5710   2.900   8.388   2.172 -0.4981 -0.1519 -0.3199
   43MOL0     C 5711   2.881   8.266   2.090  0.4006 -0.0477  0.6044
   43MOL0     C 5712   2.783   8.158   2.151 -0.3869 -0.3882  0.4337
   43MOL0     C 5713   2.635   8.205   2.157  0.2740  0.3088 -0.5983
   43MOL0    Cl 5714   2.535   8.069   2.225  0.2264  0.1903  0.4323
   43MOL0     C 5715   2.977   8.926   2.245 -0.3700  0.0242 -0.2054
   43MOL0     C 5716   2.936   8.961   2.376  0.6299  0.2288  0.1702
   43MOL0     O 5717   2.997   9.184   2.573  0.4890 -0.3015  0.1037
   43MOL0     C 5718   3.004   9.269   2.829 -0.5873 -0.3320 -0.7999
   43MOL0     C 5719   3.009   9.322   2.956  0.2944  0.1191 -0.2887
   43MOL0     N 5720   3.156   9.704   3.526  0.2123 -0.6632  0.4384
   43MOL0     N 5721   3.168   9.832   3.528  0.4158  0.3666  0.2992
   43MOL0     C 5722   3.600   9.499   3.179  0.3979 -0.4163 -0.7643
   43MOL0     C 5723   3.543   9.378   3.158 -0.6947 -0.1651 -0.7241
   43MOL0     C 5724   3.303   9.015   3.078 -0.1078  0.0617 -0.6649
   43MOL0     C 5725   3.316   8.986   2.933 -0.8519 -0.1132  0.3987
   43MOL0     C 5726   3.253   8.873   2.875  0.4872  0.1662 -0.1695
   43MOL0     C 5727   3.178   8.787   2.959  1.1574 -0.0931 -0.0047
   43MOL0     O 5728   3.106   8.670   2.919 -0.8934 -0.0432 -0.1951
   43MOL0     C 5729   3.109   8.628   2.777  0.0399 -0.2809 -0.4989
   43MOL0     C 5730   3.034   8.507   2.773 -0.6198  0.7035  0.8222
   43MOL0     C 5731   3.042   8.424   2.636 -0.4581  0.4577 -0.7962
   43MOL0     C 5732   3.051   8.510   2.511  0.2010  0.4421  0.2412
   43MOL0     C 5733   2.925   8.569   2.473 -0.6397  1.2298  0.3908
   43MOL0     C 5734   2.822   8.623   2.447  0.6781  0.2159  0.3110
   43MOL0     C 5735   3.173   8.813   3.096  0.1848 -0.2138  0.2699
   43MOL0     C 5736   3.235   8.923   3.159  0.1469  0.8286  0.7515
   43MOL0     C 5737   3.224   8.941   3.311  0.7285 -0.2833  0.1159
   43MOL0     H 5738   3.343   9.458   2.893  1.7035  2.5298 -2.7001
   43MOL0     H 5739   3.449   9.677   2.934  0.0936 -0.6014  0.3391
   43MOL0     H 5740   3.595   9.771   3.302 -1.2732 -2.2099 -0.9210
   43MOL0     H 5741   3.746   9.695   3.306 -2.1539 -0.8824  0.6723
   43MOL0     H 5742   3.691   9.957   3.165 -0.7798 -0.4927  0.3576
   43MOL0     H 5743   3.847   9.871   3.157  0.0073 -0.4255  0.0406
   43MOL0     H 5744   3.847  10.056   3.314 -0.3099 -0.2987 -0.8693
   43MOL0     H 5745   3.907   9.914   3.383 -0.2943  2.0616  1.4832
   43MOL0     H 5746   3.698   9.870   3.511 -3.4017  1.0536  2.5912
   43MOL0     H 5747   3.764  10.019   3.557 -0.9796 -0.4088  0.0477
   43MOL0     H 5748   3.613  10.144   3.441 -0.6348 -0.1782  0.8476
   43MOL0     H 5749   3.547  10.000   3.347 -4.8175 -1.6534  2.2711
   43MOL0     H 5750   3.477   9.898   3.563  0.3580 -0.6956  1.4577
   43MOL0     H 5751   3.537  10.035   3.648 -0.6797 -0.8122  0.7211
   43MOL0     H 5752   3.389  10.185   3.515  3.9528  0.1722  0.8679
   43MOL0     H 5753   3.306  10.065   3.617 -0.0945 -1.4980 -0.0694
   43MOL0     H 5754   3.192  10.079   3.398 -0.0684 -0.0718  0.9764
   43MOL0     H 5755   3.348  10.026   3.324  2.3686 -2.5322  1.8840
   43MOL0     H 5756   3.354   9.776   3.267  1.9172 -1.4412  0.8550
   43MOL0     H 5757   3.291   9.485   3.288 -0.0246 -0.3574 -0.7061
   43MOL0     H 5758   3.363   9.491   3.439  0.2358 -0.4738 -2.1154
   43MOL0     H 5759   3.223   9.305   3.452  2.4589  1.0958  1.1765
   43MOL0     H 5760   3.140   9.421   3.546  0.0609  1.4911 -0.4569
   43MOL0     H 5761   2.982   9.496   3.408  0.8990  0.0679  0.0076
   43MOL0     H 5762   2.968   9.325   3.413 -1.8251  0.7659 -0.2181
   43MOL0     H 5763   3.132   9.431   3.174  2.0777 -1.0098  2.6625
   43MOL0     H 5764   2.949   9.453   3.181 -1.3197 -2.5130 -2.2831
   43MOL0     H 5765   2.910   9.031   3.113  2.1177 -4.5057 -2.3463
   43MOL0     H 5766   2.883   8.956   2.882 -1.6222  0.5640 -0.2976
   43MOL0     H 5767   3.181   8.828   2.559  0.3596 -1.3951 -1.0068
   43MOL0     H 5768   3.273   8.770   2.331  1.0650  2.0894  1.0897
   43MOL0     H 5769   2.975   8.887   1.987 -1.2370 -0.2531 -0.2650
   43MOL0     H 5770   3.081   8.774   1.906 -0.3365  2.0328  0.3313
   43MOL0     H 5771   2.883   8.689   2.128 -4.2985 -0.2248 -1.2856
   43MOL0     H 5772   2.853   8.694   1.961 -2.0360 -1.7774  0.6595
   43MOL0     H 5773   2.952   8.493   1.938  1.9048  1.0187 -1.4705
   43MOL0     H 5774   3.111   8.562   1.967  0.8859  0.3608  2.0786
   43MOL0     H 5775   3.044   8.550   2.227  0.0055 -0.6157  0.1394
   43MOL0     H 5776   3.124   8.412   2.148  0.9823  1.1231  1.9555
   43MOL0     H 5777   2.809   8.446   2.156 -1.1069 -0.0777  2.8730
   43MOL0     H 5778   2.901   8.363   2.278 -0.0873 -0.1637 -0.3244
   43MOL0     H 5779   2.858   8.310   1.992  3.4694  1.3188  0.3887
   43MOL0     H 5780   2.975   8.214   2.070  0.5675  0.4718  0.0063
   43MOL0     H 5781   2.824   8.144   2.252 -1.5551  3.6322  1.6637
   43MOL0     H 5782   2.797   8.063   2.099  1.4230  0.1615 -0.1702
   43MOL0     H 5783   2.612   8.283   2.231 -1.2020 -3.0535  2.8374
   43MOL0     H 5784   2.600   8.228   2.056 -0.4463 -0.4243 -0.5255
   43MOL0     H 5785   2.917   8.963   2.163 -0.1297  1.3371  0.1828
   43MOL0     H 5786   2.845   9.015   2.400 -0.3179 -0.0416 -2.5001
   43MOL0     H 5787   3.029   9.333   2.744 -0.2108 -0.9711 -1.1785
   43MOL0     H 5788   3.050   9.421   2.974 -1.0361  0.5749  0.3564
   43MOL0     H 5789   3.652   9.522   3.271 -2.4107 -0.8368  1.0584
   43MOL0     H 5790   3.568   9.310   3.238  2.1487  1.8279  0.2319
   43MOL0     H 5791   3.364   9.064   2.874 -1.2314 -0.1161  0.0860
   43MOL0     H 5792   3.245   8.844   2.771  1.6322  1.2164 -0.5820
   43MOL0     H 5793   3.211   8.619   2.740  0.1629  1.1057 -0.5520
   43MOL0     H 5794   3.055   8.704   2.719 -0.4580  0.5131  0.9471
   43MOL0     H 5795   2.930   8.532   2.797 -0.2074 -0.1378  3.9240
   43MOL0     H 5796   3.077   8.440   2.848 -0.7383  1.0464  1.1967
   43MOL0     H 5797   2.957   8.355   2.628 -1.2473  1.4948 -1.5953
   43MOL0     H 5798   3.138   8.371   2.638 -0.9042 -0.8983 -5.3135
   43MOL0     H 5799   3.130   8.583   2.530  1.8337 -1.6756  2.1963
   43MOL0     H 5800   3.078   8.456   2.420 -0.0745  1.0697 -0.2156
   43MOL0     H 5801   2.728   8.668   2.423 -0.1154 -2.2160 -1.6136
   43MOL0     H 5802   3.111   8.751   3.159 -0.4988  1.0557  0.8923
   43MOL0     H 5803   3.316   8.958   3.368  1.3938  2.5010 -1.6328
   43MOL0     H 5804   3.149   9.017   3.334 -1.8337 -2.1251 -1.4968
   43MOL0     H 5805   3.184   8.845   3.346  0.7742  0.0877  1.2384
   44MOL0     O 5806   4.895   2.842  10.783 -0.4220 -0.5743 -0.2145
   44MOL0     C 5807   4.826   2.820  10.883  0.3676 -0.3557  0.8022
   44MOL0     O 5808   4.836   2.888  10.999 -0.5251  0.2017  0.0507
   44MOL0     C 5809   4.886   3.017  11.014 -0.0904  0.6382 -0.6990
   44MOL0     C 5810   4.925   3.116  10.919 -0.0463  0.1322 -1.2058
   44MOL0     C 5811   4.962   3.241  10.964  0.2525 -0.4692  0.3052
   44MOL0     C 5812   4.973   3.269  11.099  0.8113  0.2324 -0.4704
   44MOL0     O 5813   4.989   3.396  11.148  0.0109  0.2259  1.1258
   44MOL0     C 5814   5.059   3.495  11.079 -0.9775 -0.2180 -0.2977
   44MOL0     C 5815   5.103   3.633  11.152  0.0700  0.5928 -0.6821
   44MOL0     C 5816   4.975   3.715  11.151  0.6507 -0.5334 -0.3103
   44MOL0     C 5817   5.011   3.849  11.208 -0.2373  0.5090  0.6758
   44MOL0     C 5818   4.893   3.946  11.204  0.1002 -0.2678 -0.0187
   44MOL0     C 5819   4.797   3.915  11.328 -0.0515 -0.0334 -0.2459
   44MOL0     C 5820   4.686   4.016  11.327  0.1907  0.3281 -0.7174
   44MOL0     C 5821   4.558   3.988  11.409 -0.2938 -0.2860  0.6638
   44MOL0     N 5822   4.588   3.949  11.545 -0.1656 -0.3395 -0.6110
   44MOL0     C 5823   4.607   4.043  11.640  0.7252  0.3556 -0.8085
   44MOL0     C 5824   4.642   3.981  11.759 -0.0720 -0.7683  0.3298
   44MOL0     C 5825   4.673   4.067  11.885 -0.5951  0.3162  0.5773
   44MOL0     C 5826   4.584   4.047  11.999  0.7420  0.0039  0.3875
   44MOL0     C 5827   4.633   4.124  12.120 -0.1575  0.3188 -0.3941
   44MOL0     C 5828   4.522   4.130  12.223 -0.3447 -0.3861 -0.0395
   44MOL0     O 5829   4.425   4.232  12.190  0.6183 -0.2316 -0.3925
   44MOL0     C 5830   4.390   4.318  12.294  0.1838 -0.6595  0.7004
   44MOL0     C 5831   4.410   4.452  12.265 -0.2457  0.6610 -0.1452
   44MOL0     C 5832   4.361   4.556  12.348 -0.3155  0.0829  0.2756
   44MOL0     C 5833   4.314   4.521  12.472  0.8877 -0.7828 -0.2379
   44MOL0     C 5834   4.269   4.638  12.553 -0.6214  0.5759  0.6005
   44MOL0     O 5835   4.302   4.760  12.519 -0.2799 -0.4410 -0.4192
   44MOL0     C 5836   4.254   4.863  12.599 -0.4331  0.5757  1.7012
   44MOL0     C 5837   4.282   4.872  12.735 -0.7248  0.5471 -0.1575
   44MOL0     C 5838   4.236   4.983  12.801 -0.0121  1.2212 -1.1199
   44MOL0     C 5839   4.160   5.085  12.748  0.2079 -0.5117  0.1646
   44MOL0     O 5840   4.096   5.192  12.810 -0.9459  0.2533 -1.0501
   44MOL0     C 5841   4.115   5.221  12.948  1.0525  0.0140  0.7674
   44MOL0     C 5842   4.087   5.370  12.980 -0.2302 -0.1590 -0.1692
   44MOL0     C 5843   4.196   5.462  12.920 -1.0394  0.1285 -0.0375
   44MOL0     C 5844   4.176   5.614  12.944 -0.2662  1.2906  0.0179
   44MOL0     C 5845   4.203   5.654  13.077 -0.3722  0.7461 -0.2804
   44MOL0     C 5846   4.209   5.800  13.098  0.6698 -0.1734  0.4589
   44MOL0     C 5847   4.079   5.872  13.050 -0.6561 -0.0715  0.5205
   44MOL0     C 5848   4.093   6.016  13.095  0.0964  0.3735 -1.0712
   44MOL0    Cl 5849   4.213   6.100  12.986  0.1477  0.3972 -0.9843
   44MOL0     C 5850   4.134   5.074  12.614 -0.4630  0.0186 -0.3270
   44MOL0     C 5851   4.186   4.964  12.539  0.7096  0.8193  0.5401
   44MOL0     O 5852   4.203   4.604  12.654 -0.1372 -0.6144 -0.5965
   44MOL0     C 5853   4.296   4.385  12.505 -0.1825  0.3708 -0.1601
   44MOL0     C 5854   4.332   4.281  12.415  0.6346  0.8380 -0.2529
   44MOL0     N 5855   4.660   3.846  11.726 -0.0135  0.7998  0.8344
   44MOL0     N 5856   4.626   3.833  11.601  0.1130  0.6214  0.8326
   44MOL0     C 5857   4.947   3.171  11.197  0.3132  0.1621  0.1725
   44MOL0     C 5858   4.893   3.048  11.153 -0.6742  0.2883  0.1181
   44MOL0     C 5859   4.743   2.704  10.890  0.9748  0.0398  0.5231
   44MOL0     C 5860   4.654   2.686  10.998  0.4758 -0.4918  0.5404
   44MOL0     C 5861   4.550   2.592  11.001  1.1422  0.6995 -0.2200
   44MOL0     C 5862   4.521   2.509  10.888 -0.0908  0.7722  0.7024
   44MOL0     O 5863   4.427   2.415  10.900 -0.1179  0.7984 -0.2849
   44MOL0     C 5864   4.450   2.321  11.003 -0.2054  0.3942 -0.6489
   44MOL0     C 5865   4.324   2.237  11.033 -0.2072 -0.5350  0.0894
   44MOL0     C 5866   4.281   2.173  10.903 -0.6145  0.6283  0.1895
   44MOL0     C 5867   4.163   2.080  10.945 -0.0916  0.4326 -0.4322
   44MOL0     C 5868   4.105   2.013  10.826 -0.9678  0.0467  1.1848
   44MOL0     C 5869   4.071   1.952  10.722  0.2513 -0.0859 -0.0269
   44MOL0     C 5870   4.621   2.506  10.793 -0.2147 -0.3576  0.3632
   44MOL0     C 5871   4.724   2.604  10.784 -0.5459 -0.1460 -0.3303
   44MOL0     C 5872   4.817   2.605  10.661  0.4230  0.0096 -0.3143
   44MOL0     H 5873   4.928   3.089  10.814 -1.8458  1.3785 -1.6327
   44MOL0     H 5874   4.995   3.319  10.896 -1.4304 -1.2878 -1.5480
   44MOL0     H 5875   5.157   3.466  11.041  0.2122  0.7574  1.8952
   44MOL0     H 5876   4.996   3.517  10.992 -1.2995 -1.2780 -0.3496
   44MOL0     H 5877   5.180   3.685  11.093 -0.8605  1.4569 -1.1586
   44MOL0     H 5878   5.142   3.618  11.253 -1.4433  0.8010 -0.0447
   44MOL0     H 5879   4.894   3.679  11.215 -1.0826  1.3180 -1.3288
   44MOL0     H 5880   4.937   3.710  11.048 -1.1374 -1.6293  0.3551
   44MOL0     H 5881   5.059   3.837  11.305  2.4646  1.0185 -0.5143
   44MOL0     H 5882   5.074   3.910  11.143 -3.6261  2.8272 -0.7445
   44MOL0     H 5883   4.931   4.047  11.222 -4.4844  1.4363  1.4145
   44MOL0     H 5884   4.842   3.937  11.108 -0.3781 -1.1885  0.3053
   44MOL0     H 5885   4.761   3.812  11.319 -1.4282  0.5539 -1.9512
   44MOL0     H 5886   4.845   3.914  11.426  1.4002 -1.1270 -0.9332
   44MOL0     H 5887   4.643   4.019  11.227 -4.1813 -0.8802  0.8840
   44MOL0     H 5888   4.726   4.113  11.358  1.0622 -0.3565  0.3813
   44MOL0     H 5889   4.505   4.084  11.407  0.7939  0.4191 -3.4456
   44MOL0     H 5890   4.502   3.916  11.349  0.7327 -0.3381 -0.2568
   44MOL0     H 5891   4.581   4.147  11.622  2.4444  0.6638 -1.7850
   44MOL0     H 5892   4.776   4.037  11.906 -0.2233  0.7614 -0.5501
   44MOL0     H 5893   4.670   4.172  11.854  1.7608 -0.0518 -1.1728
   44MOL0     H 5894   4.484   4.086  11.973  0.8979 -0.5850 -1.1774
   44MOL0     H 5895   4.582   3.945  12.037  2.8722  0.3354  1.4907
   44MOL0     H 5896   4.667   4.225  12.093 -0.2088  0.4610  0.0599
   44MOL0     H 5897   4.721   4.074  12.162  1.2096  3.1665  0.4160
   44MOL0     H 5898   4.569   4.144  12.320  2.5192 -2.7224 -0.9438
   44MOL0     H 5899   4.470   4.034  12.234 -0.4921 -0.2450  0.5247
   44MOL0     H 5900   4.454   4.478  12.170  1.9683 -2.2319 -0.0466
   44MOL0     H 5901   4.374   4.658  12.312 -3.1163  0.1579 -0.7854
   44MOL0     H 5902   4.345   4.791  12.772 -3.1375 -0.3128  2.4436
   44MOL0     H 5903   4.274   5.002  12.900  1.3412 -2.1004 -0.8615
   44MOL0     H 5904   4.038   5.155  12.991  2.6938 -1.0734  2.1732
   44MOL0     H 5905   4.210   5.190  12.993  1.1754 -2.9236 -1.2405
   44MOL0     H 5906   3.994   5.396  12.929  0.7950 -1.3661 -2.8574
   44MOL0     H 5907   4.071   5.383  13.087  2.1646  1.9700  0.0372
   44MOL0     H 5908   4.285   5.435  12.978  0.0656  1.4643 -1.0379
   44MOL0     H 5909   4.215   5.441  12.814  0.6989  1.2575  0.0057
   44MOL0     H 5910   4.074   5.632  12.911 -1.0858 -1.5249  0.7334
   44MOL0     H 5911   4.255   5.654  12.879 -0.6204  1.6051 -0.2245
   44MOL0     H 5912   4.291   5.611  13.124  0.3599  0.5355 -1.7741
   44MOL0     H 5913   4.120   5.615  13.137  0.1874 -0.0091  0.0167
   44MOL0     H 5914   4.222   5.830  13.202 -1.5036  0.1934  0.6775
   44MOL0     H 5915   4.299   5.831  13.044  1.3765 -1.8745  0.6118
   44MOL0     H 5916   3.987   5.829  13.092  0.6822 -2.0942  1.5256
   44MOL0     H 5917   4.056   5.874  12.943 -2.1185 -1.2381  0.7817
   44MOL0     H 5918   3.990   6.051  13.085 -0.2214  0.3356  1.4316
   44MOL0     H 5919   4.132   6.038  13.195  0.3487  0.2592 -1.1443
   44MOL0     H 5920   4.075   5.149  12.561  2.6665  0.4980 -3.4981
   44MOL0     H 5921   4.160   4.964  12.434 -0.3982  1.1625  0.8066
   44MOL0     H 5922   4.262   4.370  12.607 -1.1328 -2.8412 -0.8160
   44MOL0     H 5923   4.318   4.176  12.440 -1.4324  1.3986  1.2673
   44MOL0     H 5924   4.953   3.196  11.303  0.6192  1.8011 -0.2033
   44MOL0     H 5925   4.878   2.975  11.231 -1.0211 -0.8590 -0.9850
   44MOL0     H 5926   4.670   2.746  11.087  0.8031  0.3984 -0.1074
   44MOL0     H 5927   4.479   2.600  11.083 -2.6607 -0.9063 -3.0391
   44MOL0     H 5928   4.483   2.355  11.102  2.4466 -3.0636 -0.1563
   44MOL0     H 5929   4.538   2.265  10.969  1.6766  2.8774 -0.2019
   44MOL0     H 5930   4.254   2.305  11.082  0.0053  0.8684 -1.4628
   44MOL0     H 5931   4.340   2.152  11.101 -1.3543 -0.5215  0.4054
   44MOL0     H 5932   4.363   2.110  10.867 -0.1216  1.7012 -0.5973
   44MOL0     H 5933   4.257   2.236  10.818  0.1672  0.4740 -0.1493
   44MOL0     H 5934   4.199   1.993  11.001 -1.5464  0.4001  0.4946
   44MOL0     H 5935   4.091   2.140  11.001 -0.5379 -0.7488  0.2998
   44MOL0     H 5936   4.038   1.920  10.626  0.0624  2.2406 -0.7932
   44MOL0     H 5937   4.625   2.419  10.729  1.5401  0.4991 -0.7768
   44MOL0     H 5938   4.793   2.532  10.583  2.6494  0.4907 -1.5499
   44MOL0     H 5939   4.798   2.696  10.603  0.6498 -0.5929 -1.3652
   44MOL0     H 5940   4.924   2.596  10.683  0.7610  0.7442 -1.5227
   45MOL0     O 5941   7.641   5.236  11.245  0.2765  0.7034 -0.1195
   45MOL0     C 5942   7.575   5.329  11.198 -0.1194  0.2950 -0.9862
   45MOL0     O 5943   7.436   5.329  11.199 -0.1028  0.3671 -0.2414
   45MOL0     C 5944   7.369   5.228  11.257 -0.1637  0.5426 -0.5144
   45MOL0     C 5945   7.279   5.162  11.175 -0.1420  0.6142 -0.3183
   45MOL0     C 5946   7.217   5.040  11.227 -0.1395 -0.7687  0.6316
   45MOL0     C 5947   7.228   5.008  11.364 -0.5292  0.9344 -0.4633
   45MOL0     O 5948   7.171   4.893  11.418  0.0254  0.0980  0.2613
   45MOL0     C 5949   7.199   4.774  11.352 -0.3049 -0.5858  0.3466
   45MOL0     C 5950   7.326   4.699  11.401 -0.6883 -0.1568 -0.2718
   45MOL0     C 5951   7.448   4.773  11.373  0.1913  0.8205  0.1920
   45MOL0     C 5952   7.562   4.686  11.418  0.4548  0.6077 -0.3417
   45MOL0     C 5953   7.703   4.735  11.386  0.3663 -0.6529  0.0284
   45MOL0     C 5954   7.820   4.646  11.439  0.6278 -0.3274  0.0406
   45MOL0     C 5955   7.859   4.679  11.586  0.0396 -0.4727 -0.3087
   45MOL0     C 5956   7.923   4.818  11.601  0.3979  0.4074  1.2090
   45MOL0     N 5957   8.030   4.856  11.497  0.2929 -0.2492 -0.9514
   45MOL0     C 5958   8.141   4.777  11.468 -1.0881 -0.6971  0.1603
   45MOL0     C 5959   8.203   4.824  11.353  0.2260 -0.1354  0.3957
   45MOL0     C 5960   8.325   4.778  11.275 -0.4311 -0.0553  0.4345
   45MOL0     C 5961   8.317   4.646  11.175 -0.4202  0.6429 -0.1441
   45MOL0     C 5962   8.237   4.525  11.221 -0.1319 -0.5980  0.3736
   45MOL0     C 5963   8.096   4.544  11.168 -0.5315  0.3177 -0.1587
   45MOL0     O 5964   8.023   4.436  11.212  0.5967  0.6723  0.5303
   45MOL0     C 5965   7.886   4.409  11.178 -0.6474 -0.4602  0.6878
   45MOL0     C 5966   7.804   4.520  11.135  0.9405  0.1585 -1.0820
   45MOL0     C 5967   7.663   4.502  11.127 -0.7859  0.9239 -0.1329
   45MOL0     C 5968   7.614   4.370  11.160  0.1287 -0.2114 -0.4624
   45MOL0     C 5969   7.469   4.335  11.137  0.4745  0.4465  0.3010
   45MOL0     O 5970   7.394   4.424  11.073 -0.4936  0.2714  0.7324
   45MOL0     C 5971   7.262   4.407  11.054  0.3065  0.0534  0.4429
   45MOL0     C 5972   7.212   4.399  10.919  0.0547 -0.2404  0.6788
   45MOL0     C 5973   7.075   4.365  10.909  0.5534  0.4259 -0.3354
   45MOL0     C 5974   6.990   4.345  11.021 -0.3104 -0.1651 -0.3451
   45MOL0     O 5975   6.866   4.298  11.003 -0.4097  0.5855  0.1964
   45MOL0     C 5976   6.775   4.261  11.112 -0.9643 -0.4648 -0.7446
   45MOL0     C 5977   6.656   4.230  11.032 -0.0088  0.0595 -0.2177
   45MOL0     C 5978   6.563   4.142  11.117  0.5772 -0.0949  0.4468
   45MOL0     C 5979   6.451   4.075  11.034 -0.2945 -0.8990  0.0948
   45MOL0     C 5980   6.365   4.187  10.953 -0.2462 -0.1761  0.1373
   45MOL0     C 5981   6.249   4.112  10.880  0.5094 -0.2682  0.5351
   45MOL0     C 5982   6.166   4.217  10.812  1.1251 -1.4285  0.2048
   45MOL0     C 5983   6.222   4.253  10.677 -0.5048 -0.2319 -0.7249
   45MOL0    Cl 5984   6.090   4.342  10.589  0.4386 -0.6236 -0.2173
   45MOL0     C 5985   7.048   4.344  11.149  0.1775 -0.6703 -0.3952
   45MOL0     C 5986   7.178   4.387  11.164  0.0947 -0.8955 -0.6623
   45MOL0     O 5987   7.427   4.229  11.172  0.4368  0.4706  0.4646
   45MOL0     C 5988   7.701   4.269  11.195 -0.6599  1.1058  0.1621
   45MOL0     C 5989   7.839   4.282  11.198 -0.1020  0.0117  0.1395
   45MOL0     N 5990   8.115   4.930  11.312 -0.5521  0.2549  0.1792
   45MOL0     N 5991   8.022   4.941  11.397 -0.3249  0.7379  0.0236
   45MOL0     C 5992   7.295   5.096  11.446  0.2738 -0.3764  0.0346
   45MOL0     C 5993   7.367   5.206  11.394 -0.1991 -0.2023 -0.1342
   45MOL0     C 5994   7.636   5.459  11.147 -0.4877  0.5423 -0.4025
   45MOL0     C 5995   7.590   5.504  11.018 -0.5555 -0.1705  0.0288
   45MOL0     C 5996   7.652   5.614  10.954  0.0047  0.3090  0.2223
   45MOL0     C 5997   7.755   5.685  11.016 -0.1158 -0.1757 -0.2030
   45MOL0     O 5998   7.827   5.788  10.963  0.9932  0.0319  0.5966
   45MOL0     C 5999   7.768   5.875  10.858  0.1156  0.6787 -0.4036
   45MOL0     C 6000   7.631   5.938  10.897  0.0048  0.0937  0.1921
   45MOL0     C 6001   7.635   6.034  11.018 -0.3398  0.4414  0.0179
   45MOL0     C 6002   7.531   6.152  11.004  0.9860  0.4405 -0.1498
   45MOL0     C 6003   7.590   6.273  10.947 -0.5292 -0.5130 -0.0991
   45MOL0     C 6004   7.640   6.380  10.915 -0.4880 -0.6351 -1.3439
   45MOL0     C 6005   7.800   5.651  11.142 -0.0371  0.3337  0.4591
   45MOL0     C 6006   7.739   5.536  11.208 -0.4043  1.0315  0.0721
   45MOL0     C 6007   7.783   5.506  11.346 -0.2237 -0.1810  0.3746
   45MOL0     H 6008   7.273   5.166  11.067 -0.4208 -0.2151 -0.3464
   45MOL0     H 6009   7.153   4.974  11.169  3.1495 -1.0102 -3.2130
   45MOL0     H 6010   7.117   4.713  11.390  0.6072 -2.0081  0.1112
   45MOL0     H 6011   7.185   4.774  11.243 -0.4823  0.6187  0.3532
   45MOL0     H 6012   7.325   4.600  11.354 -2.9468  0.9681 -2.8634
   45MOL0     H 6013   7.319   4.683  11.509  0.1081  2.6879  0.2936
   45MOL0     H 6014   7.446   4.866  11.431 -1.2557 -0.2094  1.9111
   45MOL0     H 6015   7.458   4.794  11.266  2.5380 -0.7695  0.0227
   45MOL0     H 6016   7.575   4.675  11.526  3.1503 -1.6488 -0.7975
   45MOL0     H 6017   7.548   4.582  11.387  0.2534  0.3333  0.6294
   45MOL0     H 6018   7.713   4.759  11.280 -0.4784 -5.5082 -1.3884
   45MOL0     H 6019   7.714   4.830  11.439  1.0915  0.3905 -1.8786
   45MOL0     H 6020   7.790   4.541  11.428  3.1746 -0.9616 -2.0099
   45MOL0     H 6021   7.912   4.674  11.388  1.6212 -0.1060  1.8758
   45MOL0     H 6022   7.943   4.615  11.615  2.6435  2.9033  0.0907
   45MOL0     H 6023   7.778   4.677  11.660  0.2441 -0.0361 -0.0707
   45MOL0     H 6024   7.843   4.892  11.602 -1.8387 -1.7089 -1.7478
   45MOL0     H 6025   7.967   4.822  11.701 -4.3950  3.3286  3.5589
   45MOL0     H 6026   8.180   4.708  11.542 -1.3115  1.6109  2.6032
   45MOL0     H 6027   8.359   4.869  11.224 -1.5689 -0.6147 -1.4232
   45MOL0     H 6028   8.414   4.766  11.337  0.1529  2.5540  0.2086
   45MOL0     H 6029   8.286   4.688  11.079  1.0763  4.8559  0.9831
   45MOL0     H 6030   8.422   4.614  11.176 -0.3546  0.1732  5.0044
   45MOL0     H 6031   8.250   4.517  11.329 -0.5383  1.5447  0.6375
   45MOL0     H 6032   8.275   4.430  11.182  1.0561  0.2466 -0.6216
   45MOL0     H 6033   8.088   4.541  11.059  2.6107 -4.8128 -0.5523
   45MOL0     H 6034   8.058   4.637  11.211  0.2054  0.2028  0.7686
   45MOL0     H 6035   7.851   4.618  11.133  0.4999  0.4020  0.0475
   45MOL0     H 6036   7.583   4.568  11.095  1.1587  2.5767 -1.8964
   45MOL0     H 6037   7.285   4.410  10.840 -2.6870  0.2877 -1.9511
   45MOL0     H 6038   7.037   4.337  10.811 -2.1981 -0.3046  0.8620
   45MOL0     H 6039   6.820   4.171  11.155  3.6223  0.9947 -1.9211
   45MOL0     H 6040   6.768   4.333  11.194  2.7314 -1.4407  0.5981
   45MOL0     H 6041   6.598   4.313  10.989 -0.7891 -0.8715 -1.0464
   45MOL0     H 6042   6.686   4.166  10.948  1.3448 -4.0443  3.0916
   45MOL0     H 6043   6.616   4.065  11.175 -0.0143 -0.8508  0.0127
   45MOL0     H 6044   6.506   4.197  11.193  0.9391  0.1117  0.5701
   45MOL0     H 6045   6.393   4.020  11.108  0.6923 -0.8587  0.9171
   45MOL0     H 6046   6.489   4.000  10.964 -0.8500  1.5992 -3.1085
   45MOL0     H 6047   6.441   4.227  10.885  1.1329 -2.8315  0.0073
   45MOL0     H 6048   6.324   4.267  11.016  2.6785 -1.1559  3.6436
   45MOL0     H 6049   6.286   4.029  10.818 -0.8845  0.9938 -2.1811
   45MOL0     H 6050   6.178   4.061  10.945 -0.4363 -1.1331 -1.0891
   45MOL0     H 6051   6.164   4.304  10.877  0.3851 -0.0275 -1.5954
   45MOL0     H 6052   6.060   4.195  10.796  0.4565  2.8524 -3.2536
   45MOL0     H 6053   6.301   4.329  10.679 -1.7282  1.2147 -2.7907
   45MOL0     H 6054   6.262   4.168  10.621  1.8498 -0.1344  0.6922
   45MOL0     H 6055   6.992   4.326  11.240 -0.8086 -2.7262 -1.3439
   45MOL0     H 6056   7.236   4.394  11.255  0.4168  1.7322 -0.9923
   45MOL0     H 6057   7.656   4.184  11.245 -0.2157  1.9668  2.1052
   45MOL0     H 6058   7.904   4.197  11.220 -0.4326  0.0696  1.4244
   45MOL0     H 6059   7.293   5.071  11.551 -0.4289 -3.9514 -0.7115
   45MOL0     H 6060   7.404   5.278  11.467  0.4765 -1.5292  0.8756
   45MOL0     H 6061   7.509   5.453  10.968  0.2130 -1.8278  0.4149
   45MOL0     H 6062   7.620   5.638  10.853  0.6005 -4.7593 -1.4719
   45MOL0     H 6063   7.754   5.817  10.766 -0.6816 -0.8840  0.6650
   45MOL0     H 6064   7.840   5.954  10.833  1.7771 -0.4853  0.4894
   45MOL0     H 6065   7.563   5.858  10.930  0.0486  0.2948  0.7756
   45MOL0     H 6066   7.588   5.978  10.804 -0.1905  1.0510  0.6874
   45MOL0     H 6067   7.736   6.074  11.036  0.0423 -1.1596  1.6337
   45MOL0     H 6068   7.618   5.969  11.104  0.2582 -1.2810 -1.1077
   45MOL0     H 6069   7.439   6.130  10.949  1.0763  1.7041 -0.8396
   45MOL0     H 6070   7.508   6.175  11.109  2.1108 -0.1250  0.2386
   45MOL0     H 6071   7.692   6.468  10.885  1.3235 -1.0461  0.4175
   45MOL0     H 6072   7.873   5.706  11.200  0.5770  0.1568 -0.1307
   45MOL0     H 6073   7.786   5.398  11.366 -3.7950 -0.4113  0.1840
   45MOL0     H 6074   7.879   5.558  11.349 -0.7396  1.1722 -2.7537
   45MOL0     H 6075   7.713   5.551  11.417  1.0472  1.0062  0.9340
   46MOL0     O 6076   6.258   4.898   0.655 -0.1899  1.0142 -0.1030
   46MOL0     C 6077   6.319   4.798   0.662 -0.3304  0.4942  0.0954
   46MOL0     O 6078   6.270   4.680   0.724  0.0154  0.0122  0.3301
   46MOL0     C 6079   6.166   4.689   0.811 -0.5223 -0.6963 -1.0026
   46MOL0     C 6080   6.152   4.777   0.931 -0.0722  0.4001 -0.5580
   46MOL0     C 6081   6.040   4.774   1.013 -0.2775 -1.2296 -0.3170
   46MOL0     C 6082   5.936   4.679   0.981 -0.6028 -0.0602  0.2361
   46MOL0     O 6083   5.824   4.660   1.057  0.3046 -0.0425 -0.0387
   46MOL0     C 6084   5.726   4.768   1.065 -0.3829  0.6415  0.4361
   46MOL0     C 6085   5.582   4.749   1.032  0.5066  0.3470 -0.0693
   46MOL0     C 6086   5.523   4.630   1.102 -0.5723  0.3011 -0.0861
   46MOL0     C 6087   5.366   4.618   1.087 -0.0789  0.0882 -0.0122
   46MOL0     C 6088   5.322   4.491   1.160  0.3567  0.3141 -0.5324
   46MOL0     C 6089   5.299   4.373   1.064  0.6813 -0.2253 -0.3628
   46MOL0     C 6090   5.215   4.260   1.124  0.0569 -0.8724 -0.3149
   46MOL0     C 6091   5.196   4.123   1.034 -0.9996  0.7669 -0.3624
   46MOL0     N 6092   5.111   4.130   0.920  0.0118 -1.1792 -0.2404
   46MOL0     C 6093   5.154   4.159   0.792 -0.1694  0.7385  0.3485
   46MOL0     C 6094   5.044   4.206   0.731  0.0527  0.5805  0.2600
   46MOL0     C 6095   5.044   4.231   0.585 -0.6913 -0.6522 -0.7625
   46MOL0     C 6096   4.974   4.361   0.528  0.1256  0.0408 -0.2753
   46MOL0     C 6097   4.989   4.359   0.383 -0.3630  0.3218  0.2319
   46MOL0     C 6098   4.889   4.463   0.330  0.0842  0.4134  0.3209
   46MOL0     O 6099   4.753   4.409   0.347 -0.3145  0.0178 -0.6141
   46MOL0     C 6100   4.667   4.410   0.241 -0.1168 -0.1665  0.4807
   46MOL0     C 6101   4.525   4.383   0.255  0.1788 -0.2894  0.3954
   46MOL0     C 6102   4.438   4.398   0.152 -0.6895 -0.3211 -0.0035
   46MOL0     C 6103   4.483   4.411   0.020 -0.6670 -0.4101  0.5202
   46MOL0     C 6104   4.395   4.410  -0.105  0.1151  0.4733 -0.5391
   46MOL0     O 6105   4.259   4.419  -0.082  0.5921 -0.3013 -0.0031
   46MOL0     C 6106   4.165   4.393  -0.184  0.0785  0.1972 -0.0734
   46MOL0     C 6107   4.178   4.423  -0.323 -0.3310  0.0354  0.2706
   46MOL0     C 6108   4.078   4.393  -0.419 -0.3792 -0.4635 -0.1845
   46MOL0     C 6109   3.960   4.327  -0.376  0.2950  0.4240  1.0063
   46MOL0     O 6110   3.871   4.299  -0.480  0.0711  0.1815 -0.8484
   46MOL0     C 6111   3.744   4.245  -0.452  0.0887 -0.3569  0.0996
   46MOL0     C 6112   3.675   4.235  -0.590  1.2931  0.5103 -0.4373
   46MOL0     C 6113   3.547   4.142  -0.586 -0.8492 -0.3208 -0.3431
   46MOL0     C 6114   3.433   4.218  -0.514  0.0612  0.5442  0.0857
   46MOL0     C 6115   3.297   4.149  -0.541  0.9520 -0.1429  0.4551
   46MOL0     C 6116   3.191   4.245  -0.476 -0.2950 -0.8249  0.2122
   46MOL0     C 6117   3.052   4.191  -0.491 -0.7184 -0.7525 -0.5778
   46MOL0     C 6118   3.026   4.051  -0.441  0.2950  0.4473 -0.1335
   46MOL0    Cl 6119   2.854   4.024  -0.451  0.4071 -0.1047  0.4037
   46MOL0     C 6120   3.943   4.289  -0.236 -1.0263  1.2070  0.3962
   46MOL0     C 6121   4.046   4.317  -0.150 -0.8689 -0.6166  0.0840
   46MOL0     O 6122   4.452   4.396  -0.213  0.5257  0.5812 -0.4616
   46MOL0     C 6123   4.619   4.423   0.005  0.7405  0.3700  0.0670
   46MOL0     C 6124   4.710   4.429   0.106 -1.0549  0.4320 -0.2994
   46MOL0     N 6125   4.937   4.197   0.820  0.1527  0.2406 -0.0602
   46MOL0     N 6126   4.983   4.141   0.932 -0.8168 -0.6935  1.0011
   46MOL0     C 6127   5.947   4.607   0.861  0.7308  0.4138 -0.6674
   46MOL0     C 6128   6.059   4.601   0.781 -0.3052 -0.9225  0.2417
   46MOL0     C 6129   6.452   4.805   0.602 -0.5420 -0.5395  0.8320
   46MOL0     C 6130   6.502   4.694   0.538 -0.8628  0.6882 -0.4299
   46MOL0     C 6131   6.612   4.700   0.451 -0.8238 -0.0649 -1.3267
   46MOL0     C 6132   6.684   4.815   0.446 -0.0561 -0.2665 -0.8295
   46MOL0     O 6133   6.783   4.817   0.351 -0.3486 -0.4033 -0.1304
   46MOL0     C 6134   6.756   4.874   0.222  0.7170  0.1751 -0.3534
   46MOL0     C 6135   6.737   4.762   0.121 -0.0816  0.2173 -0.6749
   46MOL0     C 6136   6.871   4.696   0.120  0.7951 -0.9144 -0.1708
   46MOL0     C 6137   6.867   4.572   0.045 -0.5259 -0.2770  0.5786
   46MOL0     C 6138   6.846   4.600  -0.100 -0.1024  0.3126 -0.4986
   46MOL0     C 6139   6.821   4.629  -0.213  0.1706  0.6568 -0.4393
   46MOL0     C 6140   6.650   4.925   0.519 -0.6222  0.4770 -0.0771
   46MOL0     C 6141   6.536   4.924   0.600 -0.7840  0.5168 -0.8259
   46MOL0     C 6142   6.505   5.051   0.666 -0.0499  0.6405  0.1859
   46MOL0     H 6143   6.236   4.845   0.942  1.7645 -1.8859  0.4791
   46MOL0     H 6144   6.042   4.839   1.100  1.7909  2.1256 -2.6709
   46MOL0     H 6145   5.726   4.804   1.169 -0.3377 -2.1201  1.4651
   46MOL0     H 6146   5.763   4.853   1.006 -1.1544  1.8125  1.5693
   46MOL0     H 6147   5.553   4.745   0.927 -3.7408 -0.0898  0.9438
   46MOL0     H 6148   5.516   4.827   1.070 -0.3032  0.9981 -2.6552
   46MOL0     H 6149   5.551   4.638   1.208 -1.6734 -0.3509  0.2750
   46MOL0     H 6150   5.569   4.543   1.056 -1.2772  0.5305 -1.2547
   46MOL0     H 6151   5.317   4.701   1.139  2.0674  1.4419 -0.0263
   46MOL0     H 6152   5.329   4.618   0.984  0.2616  0.7313 -0.1419
   46MOL0     H 6153   5.383   4.465   1.248 -2.3003  2.9593  2.3241
   46MOL0     H 6154   5.225   4.519   1.203  0.5822 -0.1872  0.3389
   46MOL0     H 6155   5.254   4.394   0.967  2.9124 -1.0739 -1.6633
   46MOL0     H 6156   5.395   4.325   1.043  0.2970 -2.0557  1.7341
   46MOL0     H 6157   5.119   4.307   1.147  0.8556  1.3198 -1.1520
   46MOL0     H 6158   5.263   4.239   1.220 -1.1716  1.2237  0.8333
   46MOL0     H 6159   5.292   4.076   1.012 -0.8708  1.4472 -1.3076
   46MOL0     H 6160   5.148   4.054   1.104 -1.1652 -0.2292 -1.4391
   46MOL0     H 6161   5.261   4.153   0.771 -0.1793 -0.1205  0.5223
   46MOL0     H 6162   5.149   4.235   0.551 -0.7092  1.0959 -0.7189
   46MOL0     H 6163   4.991   4.146   0.540  0.3273 -1.3165 -0.7600
   46MOL0     H 6164   4.871   4.345   0.563  1.1204 -2.1583  1.8905
   46MOL0     H 6165   5.018   4.456   0.561  1.7226 -1.2094  1.4193
   46MOL0     H 6166   4.959   4.265   0.336  0.9375 -0.5420  1.0570
   46MOL0     H 6167   5.094   4.381   0.362 -0.9514  3.4171  0.1336
   46MOL0     H 6168   4.921   4.485   0.227  1.2128  2.0951  0.9881
   46MOL0     H 6169   4.905   4.557   0.383 -3.5300  3.3682 -3.1845
   46MOL0     H 6170   4.476   4.375   0.352 -0.6479  3.8711  0.5412
   46MOL0     H 6171   4.331   4.390   0.167 -0.7153 -1.0518 -0.4943
   46MOL0     H 6172   4.276   4.456  -0.355 -0.0441  0.4962  1.5770
   46MOL0     H 6173   4.101   4.425  -0.520  2.6876  1.0122  0.8407
   46MOL0     H 6174   3.758   4.149  -0.402  0.8964 -1.0136 -1.3405
   46MOL0     H 6175   3.695   4.306  -0.376  1.7529  1.2197 -0.0230
   46MOL0     H 6176   3.644   4.336  -0.616  2.6904  1.4197  1.2546
   46MOL0     H 6177   3.748   4.189  -0.658 -1.0051 -0.9429 -2.1220
   46MOL0     H 6178   3.517   4.125  -0.689  0.9037  0.7503 -1.0726
   46MOL0     H 6179   3.576   4.048  -0.536  3.8242  1.6117  1.1694
   46MOL0     H 6180   3.428   4.318  -0.558  0.4185  0.6084  0.1923
   46MOL0     H 6181   3.442   4.216  -0.405 -1.7142 -1.2068  0.2534
   46MOL0     H 6182   3.293   4.044  -0.511  0.8105 -0.2825 -0.0445
   46MOL0     H 6183   3.259   4.154  -0.643 -0.6902  0.8730  1.0650
   46MOL0     H 6184   3.207   4.270  -0.371 -3.5930  0.1162  0.5833
   46MOL0     H 6185   3.194   4.343  -0.526  1.6176 -0.7267  0.4261
   46MOL0     H 6186   3.042   4.204  -0.599  2.5814  2.1727 -0.7242
   46MOL0     H 6187   2.984   4.255  -0.434  2.4019  0.3827  2.2416
   46MOL0     H 6188   3.082   3.983  -0.506 -3.9723 -3.4212 -0.2569
   46MOL0     H 6189   3.069   4.039  -0.341 -4.5818  1.5329  2.3712
   46MOL0     H 6190   3.860   4.227  -0.205  1.4986 -1.7961  1.7454
   46MOL0     H 6191   4.048   4.292  -0.044  1.2804  1.0035  0.4823
   46MOL0     H 6192   4.665   4.446  -0.090 -2.0305 -1.6780 -1.9338
   46MOL0     H 6193   4.812   4.452   0.076  0.2978 -0.0349  3.3581
   46MOL0     H 6194   5.884   4.526   0.826  0.8598 -1.4924  3.0295
   46MOL0     H 6195   6.072   4.535   0.696 -1.4890 -3.0613  1.6346
   46MOL0     H 6196   6.437   4.608   0.534 -0.0788  0.0833 -0.3675
   46MOL0     H 6197   6.647   4.618   0.390 -0.1148 -0.1092 -0.8753
   46MOL0     H 6198   6.839   4.939   0.191 -0.3619  2.2704  0.9444
   46MOL0     H 6199   6.660   4.925   0.209  1.3643  1.4068 -0.4955
   46MOL0     H 6200   6.700   4.805   0.027 -4.9283  2.6899  1.9192
   46MOL0     H 6201   6.661   4.696   0.165 -0.5367  0.1322 -1.5685
   46MOL0     H 6202   6.905   4.661   0.219  1.0963 -0.9500 -0.2856
   46MOL0     H 6203   6.951   4.757   0.077 -0.2932 -2.6039 -5.2567
   46MOL0     H 6204   6.956   4.516   0.077  0.0677  2.8746  5.5567
   46MOL0     H 6205   6.783   4.514   0.083  0.4163 -1.4042  1.0268
   46MOL0     H 6206   6.780   4.623  -0.312 -1.5234 -0.1713  0.2647
   46MOL0     H 6207   6.711   5.015   0.515 -0.7072  0.5205 -0.4407
   46MOL0     H 6208   6.454   5.107   0.587 -1.2360 -0.0190  0.4699
   46MOL0     H 6209   6.444   5.021   0.752  1.3753 -3.6711 -0.0872
   46MOL0     H 6210   6.601   5.084   0.706 -0.1980  1.0632  0.2003
   47MOL0     O 6211   6.240   2.021   6.419 -0.1308 -0.2788  0.4355
   47MOL0     C 6212   6.121   2.048   6.420  1.1485  0.1071  0.1207
   47MOL0     O 6213   6.061   2.166   6.372  0.0137  0.5966  0.8375
   47MOL0     C 6214   6.136   2.278   6.329  0.0313  1.0859  0.9505
   47MOL0     C 6215   6.252   2.273   6.246  0.4043  1.2718 -0.0010
   47MOL0     C 6216   6.315   2.381   6.190  0.2509  0.0755  0.2981
   47MOL0     C 6217   6.270   2.514   6.232 -0.6323  0.3397 -0.0016
   47MOL0     O 6218   6.335   2.616   6.178  0.1114  0.0731 -0.1645
   47MOL0     C 6219   6.271   2.740   6.210 -0.0046  0.3416  0.1661
   47MOL0     C 6220   6.318   2.849   6.112 -0.6148 -0.7927 -0.2601
   47MOL0     C 6221   6.300   2.985   6.178 -0.1920  0.3060  0.5978
   47MOL0     C 6222   6.156   3.011   6.196  0.0191 -0.9599 -0.4904
   47MOL0     C 6223   6.125   3.154   6.235 -0.3237  1.0796 -0.3801
   47MOL0     C 6224   6.149   3.264   6.136 -1.1398 -0.5859 -0.4390
   47MOL0     C 6225   6.060   3.384   6.178  1.1961 -0.3420  0.9366
   47MOL0     C 6226   6.067   3.430   6.323 -1.2762 -0.6319 -0.8637
   47MOL0     N 6227   6.188   3.512   6.346  0.0015 -0.6520 -1.2111
   47MOL0     C 6228   6.225   3.628   6.280  0.4365 -0.0245 -0.1679
   47MOL0     C 6229   6.352   3.643   6.317  1.1776  0.6934  0.2645
   47MOL0     C 6230   6.424   3.767   6.271 -0.7184 -0.7638  0.4361
   47MOL0     C 6231   6.486   3.762   6.121  0.7188 -0.2886 -0.3773
   47MOL0     C 6232   6.636   3.711   6.093  0.7323 -0.6519 -0.2926
   47MOL0     C 6233   6.650   3.559   6.110 -0.6975  0.0062  0.3324
   47MOL0     O 6234   6.747   3.505   6.020  0.0505 -0.1601 -0.0246
   47MOL0     C 6235   6.753   3.367   5.996  0.0429 -0.5519 -0.2103
   47MOL0     C 6236   6.874   3.311   5.960 -0.3454  0.1343 -0.8864
   47MOL0     C 6237   6.907   3.176   5.938  0.0026  0.1552 -0.6577
   47MOL0     C 6238   6.796   3.086   5.951 -0.7560 -1.3179  0.3841
   47MOL0     C 6239   6.811   2.942   5.927 -0.9661  0.6292 -0.5812
   47MOL0     O 6240   6.933   2.901   5.893 -0.0745 -0.3078  1.1793
   47MOL0     C 6241   6.968   2.767   5.878 -0.9005 -0.7933  0.1577
   47MOL0     C 6242   7.039   2.724   5.767  1.4467  0.3601 -1.2328
   47MOL0     C 6243   7.092   2.593   5.761  0.0228  0.3459 -0.0592
   47MOL0     C 6244   7.076   2.502   5.868 -0.3997 -0.4301 -0.5396
   47MOL0     O 6245   7.109   2.369   5.866  0.0075  0.1773  0.2115
   47MOL0     C 6246   7.199   2.324   5.763  0.0997 -0.0915  0.3824
   47MOL0     C 6247   7.177   2.164   5.771  0.1302  0.1135 -0.0468
   47MOL0     C 6248   7.277   2.112   5.669 -0.4386 -0.9203  0.2872
   47MOL0     C 6249   7.296   1.957   5.682  1.0440  0.3809 -0.3934
   47MOL0     C 6250   7.386   1.889   5.581  0.3728 -0.2940  0.7825
   47MOL0     C 6251   7.342   1.933   5.439  0.0990  0.2779  0.0423
   47MOL0     C 6252   7.388   1.833   5.331 -0.2281  0.6409 -0.7860
   47MOL0     C 6253   7.538   1.809   5.313  0.0628 -0.0112  0.8482
   47MOL0    Cl 6254   7.573   1.682   5.188 -0.0513  0.2997  0.0759
   47MOL0     C 6255   7.017   2.557   5.982 -0.2990 -0.5742 -0.1053
   47MOL0     C 6256   6.962   2.680   5.986 -0.3891 -0.1910 -0.0707
   47MOL0     O 6257   6.708   2.868   5.950  0.0072 -0.3222  0.2831
   47MOL0     C 6258   6.667   3.137   5.973 -0.3430 -0.6944 -0.0863
   47MOL0     C 6259   6.654   3.276   6.004  0.0608 -0.6228  0.4691
   47MOL0     N 6260   6.404   3.543   6.389  0.5165  0.2916  0.3877
   47MOL0     N 6261   6.301   3.468   6.417  0.0531 -0.3253 -0.4866
   47MOL0     C 6262   6.147   2.514   6.312 -0.4073  0.0623 -0.4010
   47MOL0     C 6263   6.081   2.401   6.348 -1.2817  0.3852 -0.0543
   47MOL0     C 6264   6.016   1.941   6.453 -1.0114 -0.3138  0.1309
   47MOL0     C 6265   6.068   1.811   6.438 -0.3242 -0.0906 -0.3031
   47MOL0     C 6266   5.980   1.704   6.452  0.3732 -0.0088 -1.3583
   47MOL0     C 6267   5.850   1.710   6.505  0.0120 -0.0543  0.7078
   47MOL0     O 6268   5.780   1.592   6.515  0.2468 -0.1749  0.0088
   47MOL0     C 6269   5.650   1.600   6.545  0.3230  0.1498 -0.5020
   47MOL0     C 6270   5.576   1.465   6.534  0.6231  0.8226 -0.1031
   47MOL0     C 6271   5.639   1.337   6.599  0.2022 -0.1065  0.1984
   47MOL0     C 6272   5.709   1.355   6.740 -0.0312  0.0558  0.2118
   47MOL0     C 6273   5.650   1.428   6.846  1.2505 -0.1118 -0.5676
   47MOL0     C 6274   5.613   1.500   6.939  0.4166  0.1285 -0.1406
   47MOL0     C 6275   5.804   1.846   6.524 -0.0183 -0.4413  0.3108
   47MOL0     C 6276   5.887   1.960   6.495  0.9204 -0.0833 -0.5080
   47MOL0     C 6277   5.814   2.089   6.495  0.5461  0.5367 -0.5944
   47MOL0     H 6278   6.290   2.180   6.205 -0.6087  1.5797 -1.7470
   47MOL0     H 6279   6.395   2.353   6.123  0.0686 -2.2810  0.9463
   47MOL0     H 6280   6.162   2.740   6.197  0.0365  1.7220 -0.3674
   47MOL0     H 6281   6.306   2.775   6.307  0.6461  1.8349 -0.5712
   47MOL0     H 6282   6.275   2.828   6.014  1.2480 -2.5225 -0.7793
   47MOL0     H 6283   6.427   2.848   6.098 -0.8026  0.6483 -2.3498
   47MOL0     H 6284   6.340   3.066   6.117 -1.3737 -0.6807 -1.5867
   47MOL0     H 6285   6.346   2.987   6.277  0.1427  3.4604  0.4695
   47MOL0     H 6286   6.108   2.997   6.099  0.8033  0.4719 -1.1179
   47MOL0     H 6287   6.110   2.946   6.271  2.2458  0.4528  2.3015
   47MOL0     H 6288   6.019   3.157   6.263 -0.1997 -1.6836  0.6284
   47MOL0     H 6289   6.193   3.164   6.320 -1.8941 -2.0917  1.4051
   47MOL0     H 6290   6.254   3.286   6.119 -1.3328  0.4101 -0.4124
   47MOL0     H 6291   6.117   3.234   6.036 -1.6567  0.3940 -0.5860
   47MOL0     H 6292   5.956   3.354   6.163  0.6549  0.7857  2.1553
   47MOL0     H 6293   6.076   3.469   6.110  0.3529 -0.2876  0.8013
   47MOL0     H 6294   5.987   3.501   6.348 -0.9223 -0.0311 -1.3965
   47MOL0     H 6295   6.071   3.346   6.392  1.2274 -0.8230 -1.1765
   47MOL0     H 6296   6.180   3.700   6.212  5.9795  3.0790 -1.1535
   47MOL0     H 6297   6.373   3.861   6.292 -0.4041 -0.3011 -0.8076
   47MOL0     H 6298   6.511   3.776   6.337 -0.1383  1.0710 -0.5144
   47MOL0     H 6299   6.426   3.705   6.050 -0.0009 -0.7043  0.5471
   47MOL0     H 6300   6.492   3.865   6.084  2.3860 -0.5393 -0.9036
   47MOL0     H 6301   6.698   3.760   6.169  1.0187  0.7668 -1.3913
   47MOL0     H 6302   6.676   3.746   5.997 -0.6371  2.6455  0.2179
   47MOL0     H 6303   6.558   3.499   6.108 -0.3607 -0.5137 -0.5128
   47MOL0     H 6304   6.707   3.536   6.200  0.2676  0.9974 -0.0018
   47MOL0     H 6305   6.961   3.373   5.938 -1.7287  1.8550 -1.7302
   47MOL0     H 6306   7.012   3.153   5.926  0.3712 -0.4920  2.7825
   47MOL0     H 6307   7.054   2.781   5.676  1.2662  1.6855 -0.4645
   47MOL0     H 6308   7.132   2.570   5.663 -0.7200 -2.2804  0.2002
   47MOL0     H 6309   7.166   2.360   5.665  3.0810  0.3437 -0.5521
   47MOL0     H 6310   7.302   2.360   5.773 -0.6460  2.6259 -0.7558
   47MOL0     H 6311   7.205   2.121   5.868 -0.1619 -5.7717 -2.1301
   47MOL0     H 6312   7.070   2.142   5.757 -0.2875  1.5743  0.6454
   47MOL0     H 6313   7.238   2.130   5.568 -3.5189 -1.7670  1.2073
   47MOL0     H 6314   7.371   2.165   5.682 -1.3878  1.2066 -0.9790
   47MOL0     H 6315   7.201   1.903   5.684  0.3671  1.4487 -1.9924
   47MOL0     H 6316   7.339   1.948   5.783  1.4960  3.1125 -0.2625
   47MOL0     H 6317   7.390   1.780   5.589  2.2186 -0.3861 -0.6351
   47MOL0     H 6318   7.487   1.926   5.601  0.3430  0.3786 -0.2280
   47MOL0     H 6319   7.233   1.947   5.439 -0.2410 -1.9419 -1.0235
   47MOL0     H 6320   7.379   2.033   5.416  0.7354  1.0615  3.7942
   47MOL0     H 6321   7.347   1.865   5.235 -1.4335  0.9527 -0.1888
   47MOL0     H 6322   7.356   1.735   5.367  4.8034 -0.1272  2.6096
   47MOL0     H 6323   7.594   1.897   5.279  2.1992 -1.6679 -0.1005
   47MOL0     H 6324   7.583   1.768   5.404  0.0318  0.5170  1.1062
   47MOL0     H 6325   7.022   2.494   6.070 -0.9590 -1.0786 -0.4225
   47MOL0     H 6326   6.918   2.715   6.079  1.5686  0.6921  0.5874
   47MOL0     H 6327   6.572   3.085   5.976 -0.3864 -0.7282 -1.3259
   47MOL0     H 6328   6.556   3.314   6.029 -2.8300 -6.6225  0.0286
   47MOL0     H 6329   6.100   2.601   6.356  1.0644 -0.1107  1.6286
   47MOL0     H 6330   5.983   2.408   6.395 -2.0604 -1.5461 -1.2997
   47MOL0     H 6331   6.170   1.794   6.406 -0.4857  0.7546 -1.3273
   47MOL0     H 6332   6.036   1.612   6.436 -0.0831 -1.0000  2.1027
   47MOL0     H 6333   5.599   1.685   6.497  1.1149  0.7180 -0.3510
   47MOL0     H 6334   5.642   1.636   6.648  1.2335  3.2545 -1.4149
   47MOL0     H 6335   5.567   1.452   6.426  0.8610  0.9866 -0.1443
   47MOL0     H 6336   5.473   1.480   6.567  0.1876 -1.3330 -0.3014
   47MOL0     H 6337   5.716   1.299   6.531  0.2837  0.6656 -0.1502
   47MOL0     H 6338   5.574   1.250   6.589  1.4083 -0.8882 -1.4530
   47MOL0     H 6339   5.706   1.258   6.790 -2.1741  1.1886  2.4727
   47MOL0     H 6340   5.805   1.400   6.713 -1.5603  1.8702 -2.6593
   47MOL0     H 6341   5.579   1.564   7.017 -3.3347 -2.9243  1.0772
   47MOL0     H 6342   5.702   1.866   6.556 -0.1587 -1.0299  0.2422
   47MOL0     H 6343   5.717   2.070   6.542  2.3684 -0.2079  3.2991
   47MOL0     H 6344   5.859   2.147   6.576  0.7282  0.8815 -0.9443
   47MOL0     H 6345   5.817   2.138   6.398 -0.3842  0.0225 -0.9015
   48MOL0     O 6346  10.368   8.323   7.657  0.6631  0.0804 -0.0358
   48MOL0     C 6347  10.359   8.366   7.543 -0.4904  0.6419 -0.2065
   48MOL0     O 6348  10.247   8.413   7.493 -0.0692 -0.3791 -0.3256
   48MOL0     C 6349  10.124   8.397   7.561 -0.2962  0.6518  1.7139
   48MOL0     C 6350  10.078   8.266   7.580  0.0978 -0.1646 -0.0130
   48MOL0     C 6351   9.967   8.242   7.651  0.2248 -0.5312  0.8762
   48MOL0     C 6352   9.889   8.343   7.711 -0.1006  0.2254  0.3717
   48MOL0     O 6353   9.792   8.307   7.801 -0.1574  0.5529  0.9886
   48MOL0     C 6354   9.683   8.405   7.836 -0.8169  0.4142  0.5097
   48MOL0     C 6355   9.582   8.328   7.924 -0.2874  0.3108  0.0256
   48MOL0     C 6356   9.504   8.212   7.860  0.4873  0.4546 -0.1000
   48MOL0     C 6357   9.579   8.079   7.863  0.4166  0.1716 -0.0680
   48MOL0     C 6358   9.539   7.982   7.747  1.0281  0.0863  0.1021
   48MOL0     C 6359   9.386   7.959   7.729 -0.4049  0.4690 -1.4445
   48MOL0     C 6360   9.295   7.895   7.837  0.3673 -0.1712  0.4358
   48MOL0     C 6361   9.146   7.869   7.799  0.6231 -1.7302  0.1691
   48MOL0     N 6362   9.086   8.002   7.761  0.8165 -0.2432  0.4517
   48MOL0     C 6363   9.092   8.115   7.831 -0.3876  0.6943 -0.6752
   48MOL0     C 6364   9.024   8.206   7.754 -0.1973  0.1962 -0.6730
   48MOL0     C 6365   9.034   8.351   7.763  0.3210  0.3611  0.2521
   48MOL0     C 6366   9.145   8.395   7.664 -0.7714  0.3255 -0.3952
   48MOL0     C 6367   9.149   8.543   7.655  0.6544 -0.7944  0.4817
   48MOL0     C 6368   9.167   8.623   7.787 -0.0361 -0.2405  0.9067
   48MOL0     O 6369   9.128   8.759   7.761 -0.6641 -0.3321  0.1051
   48MOL0     C 6370   9.193   8.826   7.658 -0.0738 -0.0143 -0.6193
   48MOL0     C 6371   9.336   8.820   7.644  0.3584 -0.5885 -0.0797
   48MOL0     C 6372   9.404   8.897   7.554 -0.0120  0.9883  1.0063
   48MOL0     C 6373   9.323   8.991   7.472  0.0196 -0.0473  0.6142
   48MOL0     C 6374   9.373   9.056   7.350 -0.5747 -0.4517  0.2409
   48MOL0     O 6375   9.515   9.055   7.343  0.3502 -0.1802  0.4963
   48MOL0     C 6376   9.574   9.098   7.227  0.0832 -0.2519 -0.5742
   48MOL0     C 6377   9.651   9.005   7.165  0.1666 -0.2289 -0.9033
   48MOL0     C 6378   9.739   9.055   7.063 -0.1848 -0.3759 -0.0097
   48MOL0     C 6379   9.743   9.191   7.037  0.6516 -0.4016 -0.1169
   48MOL0     O 6380   9.826   9.241   6.939  0.0703 -0.2546 -0.6837
   48MOL0     C 6381   9.887   9.367   6.952  0.1081 -0.9505 -0.6485
   48MOL0     C 6382  10.006   9.384   6.856 -1.0354 -0.4922 -1.0890
   48MOL0     C 6383  10.073   9.521   6.887 -0.4009 -0.6523 -0.4282
   48MOL0     C 6384  10.219   9.533   6.832  0.8004  0.1013 -0.7062
   48MOL0     C 6385  10.304   9.646   6.898 -0.7285  0.5629  0.4699
   48MOL0     C 6386  10.398   9.598   7.010  0.6731  0.0918 -0.8533
   48MOL0     C 6387  10.463   9.711   7.088  0.1064  0.3467 -0.2824
   48MOL0     C 6388  10.360   9.758   7.199  0.3769 -0.1176  0.6309
   48MOL0    Cl 6389  10.437   9.863   7.320  0.0433  0.1033 -0.6931
   48MOL0     C 6390   9.657   9.273   7.102  0.1995 -0.2750 -0.0380
   48MOL0     C 6391   9.559   9.230   7.186 -0.1904  0.5871 -0.1180
   48MOL0     O 6392   9.296   9.107   7.273 -0.3169  0.8935 -0.2236
   48MOL0     C 6393   9.188   8.996   7.495  0.7092 -0.0749 -0.4940
   48MOL0     C 6394   9.125   8.920   7.594 -0.0390  0.6900  0.1481
   48MOL0     N 6395   8.975   8.142   7.642 -0.0351  0.4870 -0.2974
   48MOL0     N 6396   9.014   8.023   7.645 -0.9655 -0.9818 -1.0764
   48MOL0     C 6397   9.938   8.476   7.689  0.2467 -0.7285  0.9491
   48MOL0     C 6398  10.052   8.502   7.611 -1.3823  0.4703 -0.3655
   48MOL0     C 6399  10.484   8.370   7.462  0.0058  0.2117 -0.4924
   48MOL0     C 6400  10.461   8.357   7.324  0.3380 -0.0228 -1.2838
   48MOL0     C 6401  10.569   8.351   7.234  0.4141 -0.7821  0.2125
   48MOL0     C 6402  10.699   8.345   7.287 -0.3756 -0.4088  0.8948
   48MOL0     O 6403  10.811   8.318   7.212 -0.1983 -0.1771 -0.6250
   48MOL0     C 6404  10.799   8.310   7.067  0.0285  0.5396  0.0519
   48MOL0     C 6405  10.807   8.451   7.009 -0.5619 -0.1604  0.1752
   48MOL0     C 6406  10.948   8.512   7.018 -0.6296 -0.8653 -0.0884
   48MOL0     C 6407  11.036   8.459   6.896 -0.9379 -0.1243  0.6883
   48MOL0     C 6408  11.024   8.541   6.770 -0.4263 -0.9687 -2.2846
   48MOL0     C 6409  11.006   8.621   6.682  0.3996 -0.1476 -0.1936
   48MOL0     C 6410  10.719   8.360   7.418  0.3006 -0.1335 -0.6719
   48MOL0     C 6411  10.617   8.364   7.509 -0.1344 -0.2830 -0.3792
   48MOL0     C 6412  10.669   8.372   7.654  0.1906 -0.4502 -0.0233
   48MOL0     H 6413  10.137   8.182   7.544  3.4408  1.4615  1.3066
   48MOL0     H 6414   9.934   8.145   7.687  1.1641 -0.9246  0.7098
   48MOL0     H 6415   9.713   8.492   7.895  1.3563 -1.5385  2.4922
   48MOL0     H 6416   9.633   8.439   7.744 -0.2998  1.5749  0.6424
   48MOL0     H 6417   9.512   8.396   7.974 -1.6451 -2.2239  1.7878
   48MOL0     H 6418   9.646   8.290   8.004  0.8244 -0.0533 -1.0214
   48MOL0     H 6419   9.482   8.231   7.754  1.3693  0.0953 -0.3594
   48MOL0     H 6420   9.406   8.197   7.907 -0.5989 -1.7604 -2.7797
   48MOL0     H 6421   9.683   8.095   7.891  0.5184 -2.0613  1.0573
   48MOL0     H 6422   9.554   8.021   7.952  4.3569 -0.7206  0.6413
   48MOL0     H 6423   9.565   8.030   7.653 -2.5442  5.1752  1.2529
   48MOL0     H 6424   9.580   7.883   7.769 -1.2044 -1.3569 -1.7577
   48MOL0     H 6425   9.343   8.056   7.705 -2.5234  0.0985  0.5260
   48MOL0     H 6426   9.380   7.897   7.638  1.0315  1.4928 -2.2772
   48MOL0     H 6427   9.294   7.973   7.914  2.7775 -0.0782  0.4535
   48MOL0     H 6428   9.352   7.810   7.875  4.5172  1.5927 -1.1435
   48MOL0     H 6429   9.135   7.801   7.714 -2.6873 -0.8350 -0.2717
   48MOL0     H 6430   9.081   7.840   7.883  2.3686  1.2504  2.7709
   48MOL0     H 6431   9.157   8.143   7.913  1.7707  1.5520 -2.5579
   48MOL0     H 6432   8.935   8.390   7.740 -0.2355 -1.6114 -0.8916
   48MOL0     H 6433   9.068   8.378   7.864  0.3912 -0.5754  0.4887
   48MOL0     H 6434   9.246   8.360   7.688 -0.9662  1.2063  1.9652
   48MOL0     H 6435   9.127   8.369   7.560  5.9957 -1.0855 -1.6433
   48MOL0     H 6436   9.053   8.574   7.612  0.7031 -1.5101 -0.1641
   48MOL0     H 6437   9.224   8.579   7.583 -0.3424  1.0111  0.2864
   48MOL0     H 6438   9.268   8.618   7.829  0.7946  3.1861 -0.2944
   48MOL0     H 6439   9.097   8.582   7.861  0.7264  0.6783  2.1962
   48MOL0     H 6440   9.400   8.747   7.693  0.5651 -1.0924 -1.0805
   48MOL0     H 6441   9.509   8.875   7.540  0.5976  3.7441  0.5927
   48MOL0     H 6442   9.649   8.902   7.200  0.3041  1.0604  3.3865
   48MOL0     H 6443   9.820   9.003   7.013 -0.2138  0.7674 -1.2902
   48MOL0     H 6444   9.814   9.441   6.918 -0.0122  0.1103  1.7138
   48MOL0     H 6445   9.922   9.386   7.054 -3.0408  1.5125  0.1329
   48MOL0     H 6446  10.064   9.292   6.850  0.7166  0.5017 -0.1996
   48MOL0     H 6447   9.962   9.400   6.757 -2.9602 -0.6613 -0.3137
   48MOL0     H 6448  10.028   9.607   6.838 -0.6532 -1.0574 -0.9158
   48MOL0     H 6449  10.090   9.536   6.994 -1.7372 -0.8419 -0.1724
   48MOL0     H 6450  10.210   9.549   6.724 -0.1549 -1.2287 -0.8451
   48MOL0     H 6451  10.283   9.444   6.843  1.4150  0.7739  1.6802
   48MOL0     H 6452  10.244   9.733   6.928 -3.4692 -0.8450 -0.6237
   48MOL0     H 6453  10.372   9.694   6.826  1.3925 -3.0147 -0.1655
   48MOL0     H 6454  10.329   9.539   7.071 -1.7865  3.8323  0.3401
   48MOL0     H 6455  10.488   9.543   6.982  2.6589  2.2290  0.8743
   48MOL0     H 6456  10.497   9.792   7.023 -1.4937 -0.2526 -1.9388
   48MOL0     H 6457  10.542   9.658   7.142 -1.1395 -2.4826 -1.0614
   48MOL0     H 6458  10.278   9.819   7.160 -0.3661 -1.5178 -0.0729
   48MOL0     H 6459  10.315   9.669   7.243  2.3552 -0.3786  2.2784
   48MOL0     H 6460   9.674   9.380   7.099  1.6055 -0.4710 -0.1964
   48MOL0     H 6461   9.490   9.292   7.243 -1.2206 -0.3403 -0.3110
   48MOL0     H 6462   9.129   9.068   7.441  3.4041  0.5831 -2.7896
   48MOL0     H 6463   9.020   8.937   7.617 -0.0681  2.2739 -0.9751
   48MOL0     H 6464   9.878   8.551   7.739 -2.7582 -3.0471  1.1271
   48MOL0     H 6465  10.085   8.605   7.604 -2.0026  0.7366  0.4321
   48MOL0     H 6466  10.358   8.335   7.296 -1.1901 -1.9949  4.4003
   48MOL0     H 6467  10.556   8.319   7.131  3.9631 -2.6758  0.2130
   48MOL0     H 6468  10.712   8.254   7.031 -0.6337  1.5853 -0.0350
   48MOL0     H 6469  10.880   8.253   7.023  0.5797  0.7501  0.7670
   48MOL0     H 6470  10.750   8.520   7.071  1.9593  2.7847 -0.5320
   48MOL0     H 6471  10.781   8.441   6.903 -0.4872 -0.9270  0.2272
   48MOL0     H 6472  10.984   8.480   7.116 -1.0134  1.9854  1.0655
   48MOL0     H 6473  10.949   8.621   7.016  0.0940 -0.7772  2.4720
   48MOL0     H 6474  11.143   8.474   6.907 -0.2981  0.0150 -3.7903
   48MOL0     H 6475  11.019   8.352   6.880  1.1253 -0.1656 -1.9571
   48MOL0     H 6476  10.988   8.690   6.603 -1.9171  1.4673  1.6094
   48MOL0     H 6477  10.823   8.359   7.447  0.9521 -2.8463 -2.6378
   48MOL0     H 6478  10.716   8.470   7.664  1.8603 -1.0591 -1.4387
   48MOL0     H 6479  10.591   8.348   7.726  0.7913 -1.1391  0.4135
   48MOL0     H 6480  10.749   8.301   7.678 -0.1973 -0.9460 -0.1736
   49MOL0     O 6481   0.694  10.480   4.416  0.4881  0.5131 -0.6847
   49MOL0     C 6482   0.580  10.444   4.384  0.1171  0.9075  0.4587
   49MOL0     O 6483   0.495  10.382   4.471 -0.4244  0.3265 -0.6250
   49MOL0     C 6484   0.539  10.351   4.598  0.4137 -0.7682 -0.6107
   49MOL0     C 6485   0.577  10.227   4.634  0.1801  0.2970 -0.4484
   49MOL0     C 6486   0.655  10.199   4.750 -0.9762  1.0789  0.2352
   49MOL0     C 6487   0.702  10.292   4.831  0.1945 -0.8616 -0.8451
   49MOL0     O 6488   0.792  10.274   4.937  0.0409 -0.1059  0.0305
   49MOL0     C 6489   0.823  10.144   4.988 -0.7400  0.6839  1.1505
   49MOL0     C 6490   0.891  10.166   5.125  0.3516  0.3069 -0.5674
   49MOL0     C 6491   0.958  10.041   5.196  0.0728  0.2368 -0.2557
   49MOL0     C 6492   0.864   9.939   5.253  1.0140 -0.5427  0.1451
   49MOL0     C 6493   0.913   9.796   5.270  0.0428  0.6165 -0.3468
   49MOL0     C 6494   0.874   9.693   5.164 -0.4402 -0.3186  0.1396
   49MOL0     C 6495   0.925   9.723   5.022 -0.5547 -0.3083 -0.1991
   49MOL0     C 6496   1.068   9.668   4.998 -0.7911  0.3085  0.1552
   49MOL0     N 6497   1.056   9.542   4.926  0.6911 -0.4871 -0.5465
   49MOL0     C 6498   1.026   9.421   4.981 -0.6867 -0.0573 -0.1160
   49MOL0     C 6499   1.057   9.330   4.886  0.2418  0.3175  0.1639
   49MOL0     C 6500   1.039   9.180   4.901  0.1638 -0.1382 -0.1620
   49MOL0     C 6501   0.892   9.161   4.854  0.8171  0.9462  0.4301
   49MOL0     C 6502   0.781   9.239   4.918 -1.1765  0.4183  0.0600
   49MOL0     C 6503   0.727   9.350   4.826 -1.1875 -0.0148 -0.7365
   49MOL0     O 6504   0.669   9.450   4.898  0.7407  0.1242  0.0866
   49MOL0     C 6505   0.611   9.546   4.820 -0.1592 -0.1804 -0.1612
   49MOL0     C 6506   0.568   9.664   4.877 -1.4843 -0.5259 -0.0881
   49MOL0     C 6507   0.522   9.777   4.810 -0.2781 -0.4310 -0.7691
   49MOL0     C 6508   0.496   9.763   4.675 -0.0153  0.2942  0.9476
   49MOL0     C 6509   0.426   9.876   4.597  0.6462 -0.9231  0.0673
   49MOL0     O 6510   0.391   9.849   4.461 -0.2926  0.6687 -0.3129
   49MOL0     C 6511   0.300   9.932   4.404  0.5265  0.4433 -0.1048
   49MOL0     C 6512   0.341   9.986   4.275  0.2658  0.6587 -0.0838
   49MOL0     C 6513   0.238  10.055   4.209  0.2483 -0.0160  0.0845
   49MOL0     C 6514   0.106  10.076   4.255  0.2262 -0.5043 -0.5187
   49MOL0     O 6515   0.011  10.136   4.167 -0.3614  0.6479  0.5644
   49MOL0     C 6516  -0.066  10.242   4.220  0.1075 -0.2298  0.0866
   49MOL0     C 6517  -0.184  10.290   4.134  0.0069  1.0225 -0.4979
   49MOL0     C 6518  -0.147  10.365   4.012 -0.2988  0.7376  0.2207
   49MOL0     C 6519  -0.136  10.262   3.889 -0.1301 -0.1230 -0.1581
   49MOL0     C 6520  -0.063  10.309   3.766  0.7549 -0.2376 -0.4537
   49MOL0     C 6521  -0.071  10.206   3.649  0.3631  0.5738 -1.2331
   49MOL0     C 6522   0.004  10.261   3.515 -0.1711  0.1883  0.7912
   49MOL0     C 6523  -0.029  10.160   3.402  0.0473 -0.5291  1.0111
   49MOL0    Cl 6524  -0.200  10.171   3.341 -0.4672 -0.2482 -0.2341
   49MOL0     C 6525   0.074  10.023   4.386  0.5517 -0.6527  0.4588
   49MOL0     C 6526   0.168   9.956   4.459 -0.1874  0.8633  0.7443
   49MOL0     O 6527   0.385   9.979   4.665  0.4031  0.3513  0.0474
   49MOL0     C 6528   0.540   9.651   4.610  0.4230  0.1188 -0.2706
   49MOL0     C 6529   0.598   9.537   4.674  0.5404 -0.0441  0.7343
   49MOL0     N 6530   1.090   9.388   4.773 -0.4145  0.2515  0.3466
   49MOL0     N 6531   1.071   9.518   4.796  0.8535  0.6279 -0.2276
   49MOL0     C 6532   0.663  10.420   4.803  1.1752 -0.2655 -0.5200
   49MOL0     C 6533   0.580  10.447   4.692 -0.4224 -0.0377  0.9310
   49MOL0     C 6534   0.536  10.457   4.237 -0.4282  0.1150  0.7555
   49MOL0     C 6535   0.407  10.405   4.207 -0.0665  0.0140  0.2991
   49MOL0     C 6536   0.353  10.415   4.074  0.2601 -0.0210 -0.6355
   49MOL0     C 6537   0.420  10.487   3.978  0.5989 -1.1685  0.4191
   49MOL0     O 6538   0.363  10.491   3.852 -0.1307 -0.8744  1.1357
   49MOL0     C 6539   0.428  10.573   3.749  0.1004 -0.4477 -0.4759
   49MOL0     C 6540   0.330  10.613   3.652  0.3658  0.0453 -0.0057
   49MOL0     C 6541   0.296  10.507   3.551  0.2284 -0.2229  0.1710
   49MOL0     C 6542   0.186  10.568   3.466 -1.1352  0.6030 -1.2471
   49MOL0     C 6543   0.171  10.493   3.347  0.6297 -1.2982  0.2168
   49MOL0     C 6544   0.134  10.447   3.245  0.0384  1.3481  0.1995
   49MOL0     C 6545   0.538  10.547   4.011  0.0576  0.3525  0.0067
   49MOL0     C 6546   0.603  10.533   4.134  0.7776 -0.6375 -0.8191
   49MOL0     C 6547   0.728  10.615   4.162 -1.4241  0.2166  0.4479
   49MOL0     H 6548   0.551  10.150   4.562  0.8052 -0.2604 -0.0846
   49MOL0     H 6549   0.684  10.096   4.770 -1.3352  0.6644 -1.2655
   49MOL0     H 6550   0.734  10.082   4.990 -1.5172  1.7760  1.8863
   49MOL0     H 6551   0.899  10.093   4.928 -2.8502 -1.1266 -0.1236
   49MOL0     H 6552   0.829  10.221   5.197  3.7535  1.8408  1.4422
   49MOL0     H 6553   0.971  10.239   5.112 -1.6804  3.0862  1.1607
   49MOL0     H 6554   1.015  10.085   5.279  1.5226  5.1634 -3.4362
   49MOL0     H 6555   1.029   9.991   5.129  1.0879 -1.5342  1.9900
   49MOL0     H 6556   0.827   9.980   5.347 -1.6817 -2.0010 -0.1617
   49MOL0     H 6557   0.775   9.935   5.189  1.4366  2.6832 -0.8208
   49MOL0     H 6558   1.020   9.803   5.293  0.5487 -1.6371 -1.7113
   49MOL0     H 6559   0.857   9.768   5.359 -0.2216  2.3566  0.0590
   49MOL0     H 6560   0.915   9.598   5.198  0.0840  0.1562  0.8888
   49MOL0     H 6561   0.766   9.683   5.164 -0.5945  1.0098 -0.5166
   49MOL0     H 6562   0.929   9.832   5.014  2.8067 -0.4185 -1.8124
   49MOL0     H 6563   0.859   9.686   4.943 -3.9657  1.0655  1.7736
   49MOL0     H 6564   1.112   9.744   4.932 -0.2919  0.4205  0.6113
   49MOL0     H 6565   1.131   9.655   5.086  1.4092 -3.6597 -1.7225
   49MOL0     H 6566   0.990   9.412   5.083  0.5609  0.1238  0.3705
   49MOL0     H 6567   1.119   9.123   4.852  1.8378  1.9751 -0.0289
   49MOL0     H 6568   1.049   9.155   5.007  2.6864  1.9164  0.1840
   49MOL0     H 6569   0.882   9.149   4.745 -4.0751 -3.9016  0.9811
   49MOL0     H 6570   0.865   9.057   4.875  1.7498 -0.2371 -3.3314
   49MOL0     H 6571   0.790   9.271   5.022  1.4908  1.0172 -0.2901
   49MOL0     H 6572   0.690   9.178   4.916 -1.1447  0.3925 -1.1368
   49MOL0     H 6573   0.649   9.301   4.767 -1.4253 -0.6527  0.1000
   49MOL0     H 6574   0.801   9.403   4.765 -1.7059  1.2133 -0.3339
   49MOL0     H 6575   0.563   9.674   4.985 -2.0902 -1.7451  0.0144
   49MOL0     H 6576   0.508   9.874   4.856  1.6401 -0.6797  0.4770
   49MOL0     H 6577   0.438   9.975   4.226 -0.3427 -1.1645 -0.9801
   49MOL0     H 6578   0.259  10.103   4.114  0.7339 -2.9451 -1.4410
   49MOL0     H 6579  -0.115  10.213   4.314 -3.1708  2.2515 -0.7026
   49MOL0     H 6580   0.006  10.319   4.249 -1.0884  0.6416  0.8505
   49MOL0     H 6581  -0.243  10.204   4.099 -1.3045  2.9098 -3.3142
   49MOL0     H 6582  -0.243  10.361   4.192  3.8074  2.2799  2.2004
   49MOL0     H 6583  -0.220  10.444   3.997 -0.5468  0.3768 -0.5086
   49MOL0     H 6584  -0.053  10.419   4.028  0.5028  0.1894 -2.3016
   49MOL0     H 6585  -0.235  10.224   3.861  0.8482 -2.2756 -0.8568
   49MOL0     H 6586  -0.078  10.174   3.918  3.1266  2.6527  2.6313
   49MOL0     H 6587   0.046  10.319   3.767  1.0279 -0.9391 -4.6087
   49MOL0     H 6588  -0.105  10.405   3.736  0.4234 -0.2119  0.0779
   49MOL0     H 6589  -0.020  10.118   3.689  0.3203  2.9610  5.1874
   49MOL0     H 6590  -0.178  10.194   3.625 -0.1838 -0.9186  1.5717
   49MOL0     H 6591   0.113  10.260   3.524  0.1647 -3.9574 -1.2744
   49MOL0     H 6592  -0.041  10.357   3.487 -0.6287 -1.2456 -4.6634
   49MOL0     H 6593   0.040  10.164   3.317 -0.3960  0.7657  0.7011
   49MOL0     H 6594  -0.028  10.059   3.444 -3.2062 -2.7842 -3.4890
   49MOL0     H 6595  -0.025  10.018   4.429  0.7739 -2.9084  0.8645
   49MOL0     H 6596   0.162   9.911   4.558  4.9522 -1.1703  0.4524
   49MOL0     H 6597   0.517   9.640   4.505 -1.6643 -0.2805  0.1844
   49MOL0     H 6598   0.638   9.452   4.619 -2.4595 -1.1635  0.0759
   49MOL0     H 6599   0.690  10.502   4.869 -0.8042 -0.5338  0.7196
   49MOL0     H 6600   0.558  10.552   4.674  3.3466  0.9691  1.2509
   49MOL0     H 6601   0.364  10.337   4.280 -1.1776  0.1562 -0.1977
   49MOL0     H 6602   0.259  10.365   4.052  1.2142 -2.5063  0.5756
   49MOL0     H 6603   0.512  10.511   3.716 -1.5832 -2.9099 -0.3611
   49MOL0     H 6604   0.468  10.667   3.787 -0.8037  0.8314 -2.5311
   49MOL0     H 6605   0.387  10.681   3.588 -0.6696 -1.5470 -2.8105
   49MOL0     H 6606   0.245  10.656   3.706 -1.0163  1.1548 -2.8272
   49MOL0     H 6607   0.266  10.414   3.599  1.1147  0.1346  1.4836
   49MOL0     H 6608   0.390  10.482   3.501  0.6545  2.5387 -0.6226
   49MOL0     H 6609   0.102  10.566   3.536  0.6993  3.5606  1.3151
   49MOL0     H 6610   0.205  10.672   3.438 -2.5862  1.0970 -0.5131
   49MOL0     H 6611   0.106  10.409   3.149  1.9312 -1.2311  0.5683
   49MOL0     H 6612   0.607  10.584   3.935  2.3327 -1.8827  0.8403
   49MOL0     H 6613   0.767  10.656   4.068  3.3778 -1.5935  1.4067
   49MOL0     H 6614   0.694  10.695   4.228  0.6816 -1.1935  3.4370
   49MOL0     H 6615   0.806  10.558   4.212 -1.9164  0.2063  1.2258
   50MOL0     O 6616   0.906   5.807   6.174  0.1430  0.5121 -0.6335
   50MOL0     C 6617   0.831   5.710   6.146  0.4735  0.4129  0.4524
   50MOL0     O 6618   0.752   5.651   6.235  0.2142  1.1431 -0.3474
   50MOL0     C 6619   0.716   5.713   6.362 -0.3811 -0.3558  0.4279
   50MOL0     C 6620   0.741   5.847   6.403 -0.7615  0.4003  0.5229
   50MOL0     C 6621   0.719   5.891   6.539 -0.2605  0.5941  0.3392
   50MOL0     C 6622   0.660   5.800   6.629 -0.4318 -0.2885  1.0756
   50MOL0     O 6623   0.644   5.824   6.766  0.6080 -0.2307 -0.1158
   50MOL0     C 6624   0.699   5.951   6.809  0.0205 -0.0241  0.1500
   50MOL0     C 6625   0.741   5.943   6.960  0.3194 -0.5280 -0.0858
   50MOL0     C 6626   0.829   6.059   6.998  1.1436  0.0949 -0.3934
   50MOL0     C 6627   0.729   6.164   7.070  0.0608 -0.1556  0.0943
   50MOL0     C 6628   0.786   6.296   7.085 -0.2964 -0.1275 -0.5473
   50MOL0     C 6629   0.716   6.377   7.196 -0.0171  0.1731  0.0389
   50MOL0     C 6630   0.570   6.424   7.183  0.4128 -1.3070 -0.0654
   50MOL0     C 6631   0.541   6.524   7.070 -0.1120 -0.3221  0.6879
   50MOL0     N 6632   0.511   6.458   6.945 -0.4542 -0.3693 -0.0239
   50MOL0     C 6633   0.406   6.369   6.923  1.4488  0.2489 -0.4078
   50MOL0     C 6634   0.436   6.318   6.800  0.8018  0.2817 -0.2831
   50MOL0     C 6635   0.375   6.202   6.728  0.4235  0.4966 -0.2672
   50MOL0     C 6636   0.313   6.101   6.829 -0.0093 -0.3556 -0.0074
   50MOL0     C 6637   0.252   5.985   6.744 -0.0129 -0.6989  0.5353
   50MOL0     C 6638   0.188   5.891   6.848 -0.0894 -0.0332  0.7948
   50MOL0     O 6639   0.291   5.824   6.923  0.0637 -0.1220 -0.1221
   50MOL0     C 6640   0.272   5.789   7.057  0.4682  0.2661 -0.1304
   50MOL0     C 6641   0.144   5.797   7.141  0.2628  0.3532  1.0519
   50MOL0     C 6642   0.143   5.731   7.266  0.9580  1.0133  1.2943
   50MOL0     C 6643   0.241   5.655   7.321  0.0467  0.1204  0.3901
   50MOL0     C 6644   0.219   5.574   7.454  1.0683  1.1248  0.2367
   50MOL0     O 6645   0.087   5.558   7.488  0.0375 -0.1635 -0.3257
   50MOL0     C 6646   0.050   5.499   7.606  0.3879 -0.4467  0.5143
   50MOL0     C 6647   0.120   5.433   7.711 -0.5336  0.3993  0.3786
   50MOL0     C 6648   0.043   5.372   7.817 -0.7689 -0.3448 -0.3678
   50MOL0     C 6649  -0.093   5.385   7.832 -0.3538  0.1593 -0.3365
   50MOL0     O 6650  -0.160   5.327   7.931 -0.1323  0.3102  0.7417
   50MOL0     C 6651  -0.106   5.324   8.062  0.0371 -0.2181 -1.7196
   50MOL0     C 6652  -0.081   5.475   8.109 -1.4140 -0.2372 -0.2853
   50MOL0     C 6653  -0.082   5.502   8.258  0.1881 -1.0479  0.1052
   50MOL0     C 6654  -0.234   5.500   8.308  0.7161 -0.4852 -0.2620
   50MOL0     C 6655  -0.261   5.533   8.455  0.0803  1.0397 -1.4111
   50MOL0     C 6656  -0.293   5.683   8.497  0.4517 -0.0379 -0.1957
   50MOL0     C 6657  -0.322   5.702   8.643  0.5713  0.3852  0.2835
   50MOL0     C 6658  -0.224   5.625   8.739 -0.5689 -0.5077  0.6014
   50MOL0    Cl 6659  -0.062   5.664   8.704 -0.1752 -0.2451  0.4613
   50MOL0     C 6660  -0.147   5.444   7.722 -0.2345 -0.3398 -0.5958
   50MOL0     C 6661  -0.086   5.498   7.615  0.4532  0.7643  1.0742
   50MOL0     O 6662   0.305   5.508   7.500 -0.3580  0.3180  0.0388
   50MOL0     C 6663   0.366   5.660   7.245  0.6909 -0.3379 -0.3113
   50MOL0     C 6664   0.380   5.729   7.119 -0.8227 -0.1321  0.7244
   50MOL0     N 6665   0.546   6.382   6.753  0.0864 -0.0425  0.2313
   50MOL0     N 6666   0.594   6.458   6.840 -0.5396  0.2830  0.1277
   50MOL0     C 6667   0.630   5.679   6.589  1.3567 -0.6064  0.2188
   50MOL0     C 6668   0.651   5.635   6.455 -0.4699 -0.7658 -0.0578
   50MOL0     C 6669   0.832   5.650   6.010 -0.1708 -1.3423  0.5207
   50MOL0     C 6670   0.759   5.529   5.989  0.0895 -0.8705  0.3664
   50MOL0     C 6671   0.750   5.467   5.864 -0.4245 -0.7206 -0.3946
   50MOL0     C 6672   0.806   5.532   5.755  0.3592 -0.2218 -0.2152
   50MOL0     O 6673   0.788   5.498   5.624 -0.8123  0.0250 -0.1471
   50MOL0     C 6674   0.741   5.368   5.590  0.0627  0.6390  0.0822
   50MOL0     C 6675   0.610   5.397   5.518  0.5483 -0.2015 -0.0254
   50MOL0     C 6676   0.516   5.275   5.497 -0.4167  0.8610 -0.7619
   50MOL0     C 6677   0.594   5.168   5.410 -1.1426 -0.7205 -0.7786
   50MOL0     C 6678   0.531   5.040   5.425 -0.5917  0.4844 -0.6892
   50MOL0     C 6679   0.481   4.931   5.433 -0.5073  0.8019  0.3970
   50MOL0     C 6680   0.877   5.649   5.775 -0.9424  0.8713  0.9577
   50MOL0     C 6681   0.896   5.706   5.897 -0.0333 -0.1625  0.0373
   50MOL0     C 6682   0.983   5.831   5.915 -0.9034 -0.1725  0.8644
   50MOL0     H 6683   0.798   5.914   6.340  0.1483  1.8607  2.8062
   50MOL0     H 6684   0.738   5.996   6.559 -0.4141  0.8009 -0.5597
   50MOL0     H 6685   0.798   5.957   6.763  0.0908  1.1147  0.4138
   50MOL0     H 6686   0.637   6.037   6.783  1.5839  0.6342 -1.5675
   50MOL0     H 6687   0.797   5.849   6.969 -1.8291 -1.7433  1.2312
   50MOL0     H 6688   0.661   5.935   7.034 -0.4842 -0.4190 -0.9429
   50MOL0     H 6689   0.886   6.114   6.923  0.1861  1.6096 -0.0567
   50MOL0     H 6690   0.892   6.027   7.081  0.5296 -0.4940 -0.1498
   50MOL0     H 6691   0.629   6.174   7.028  0.5814  3.5118 -0.6060
   50MOL0     H 6692   0.717   6.123   7.171 -3.4424 -0.2692 -0.2591
   50MOL0     H 6693   0.890   6.277   7.113 -0.4503 -0.4238 -0.1688
   50MOL0     H 6694   0.781   6.355   6.993 -0.4353  1.6612  0.5607
   50MOL0     H 6695   0.724   6.321   7.290  0.6273  2.2769  1.3216
   50MOL0     H 6696   0.777   6.468   7.199 -1.4486  1.2356 -1.2393
   50MOL0     H 6697   0.549   6.480   7.274 -3.0969 -0.7958 -1.0448
   50MOL0     H 6698   0.508   6.335   7.196  0.7749 -1.3510  1.5658
   50MOL0     H 6699   0.456   6.583   7.106 -0.1329  0.4468 -0.5385
   50MOL0     H 6700   0.629   6.589   7.063 -0.8147  1.0858  3.5289
   50MOL0     H 6701   0.334   6.340   6.999  1.5880  1.6846  0.3064
   50MOL0     H 6702   0.293   6.225   6.659  1.3193 -0.2337 -1.6153
   50MOL0     H 6703   0.456   6.167   6.664  0.2344  1.6893 -1.1857
   50MOL0     H 6704   0.391   6.061   6.894  2.0707 -0.0552 -2.1725
   50MOL0     H 6705   0.239   6.142   6.898  0.1605  5.2657 -2.6095
   50MOL0     H 6706   0.330   5.924   6.697  0.9284  0.2073  0.8842
   50MOL0     H 6707   0.181   6.028   6.674 -1.8938  3.4575  4.4573
   50MOL0     H 6708   0.133   5.815   6.791  1.1843  1.4719 -2.7129
   50MOL0     H 6709   0.110   5.939   6.907 -0.5289  0.1325  0.0925
   50MOL0     H 6710   0.047   5.828   7.106 -1.7771 -2.7898  3.2947
   50MOL0     H 6711   0.049   5.737   7.320 -0.0555 -0.1194 -0.2584
   50MOL0     H 6712   0.228   5.424   7.706 -0.5086  1.0476 -0.4247
   50MOL0     H 6713   0.087   5.308   7.893 -1.6158  0.1921  0.5982
   50MOL0     H 6714  -0.185   5.284   8.126 -0.5768  0.6501 -1.9151
   50MOL0     H 6715  -0.017   5.261   8.073  1.6089  1.9613 -1.2791
   50MOL0     H 6716   0.022   5.499   8.081 -2.0872  1.3999 -1.5080
   50MOL0     H 6717  -0.146   5.538   8.049  0.1861 -0.6337 -2.5519
   50MOL0     H 6718  -0.021   5.422   8.299  1.4886  0.5360  1.4304
   50MOL0     H 6719  -0.033   5.598   8.277 -2.2820 -0.1016  2.3719
   50MOL0     H 6720  -0.271   5.398   8.290  1.8789 -0.9734  0.0407
   50MOL0     H 6721  -0.287   5.566   8.238  2.8054  3.4636  1.5607
   50MOL0     H 6722  -0.176   5.488   8.508  0.3745  1.8646 -1.1775
   50MOL0     H 6723  -0.350   5.477   8.487 -0.0585  2.0400  0.0222
   50MOL0     H 6724  -0.213   5.752   8.470  1.0510  0.5364  2.7070
   50MOL0     H 6725  -0.390   5.706   8.452 -1.2103 -1.3790  2.4183
   50MOL0     H 6726  -0.422   5.664   8.665 -1.9433  5.8396  0.0186
   50MOL0     H 6727  -0.324   5.808   8.672  0.9313  0.5077 -0.1230
   50MOL0     H 6728  -0.241   5.646   8.845  0.9801  0.6887  0.6511
   50MOL0     H 6729  -0.236   5.518   8.720 -0.3019 -0.3883 -0.2699
   50MOL0     H 6730  -0.256   5.436   7.726 -0.1770 -0.6939  0.6177
   50MOL0     H 6731  -0.150   5.540   7.538  0.5623  3.3311  2.2558
   50MOL0     H 6732   0.457   5.614   7.282 -0.9670 -0.6426  3.9733
   50MOL0     H 6733   0.477   5.721   7.070 -0.6476 -0.0003  1.0487
   50MOL0     H 6734   0.567   5.631   6.663  1.5162  1.1867  1.6006
   50MOL0     H 6735   0.614   5.537   6.427 -2.6216 -0.1778  0.4851
   50MOL0     H 6736   0.705   5.479   6.070  1.9722  1.7008  3.4253
   50MOL0     H 6737   0.689   5.382   5.837  1.8127 -2.2213 -1.0162
   50MOL0     H 6738   0.725   5.300   5.674 -0.9737  1.6090  0.6816
   50MOL0     H 6739   0.818   5.324   5.525 -0.5201  0.7203 -0.6710
   50MOL0     H 6740   0.642   5.441   5.423  3.7492  1.1164  1.5066
   50MOL0     H 6741   0.554   5.469   5.578 -0.5163  0.9736 -2.3231
   50MOL0     H 6742   0.420   5.294   5.447 -1.4394  1.1208  1.1947
   50MOL0     H 6743   0.494   5.235   5.596  1.8002  0.2053 -0.4773
   50MOL0     H 6744   0.584   5.205   5.308  3.6495  0.9643 -0.9166
   50MOL0     H 6745   0.701   5.169   5.433 -0.8989  1.2626 -1.7550
   50MOL0     H 6746   0.451   4.830   5.449  0.4301  0.2203 -1.2980
   50MOL0     H 6747   0.936   5.678   5.689 -1.0252 -2.3648 -0.3170
   50MOL0     H 6748   1.022   5.845   5.813 -4.2830 -1.5540 -0.7878
   50MOL0     H 6749   0.925   5.914   5.955  0.4453 -0.8246  4.4818
   50MOL0     H 6750   1.074   5.825   5.974 -1.5942  1.6301  2.1870
   51MOL0     O 6751   4.444   7.928   1.866 -0.3333  0.0959  0.2682
   51MOL0     C 6752   4.338   7.888   1.909 -0.3342  0.0254  0.1699
   51MOL0     O 6753   4.216   7.945   1.876 -0.2030  0.9937  0.8328
   51MOL0     C 6754   4.210   8.029   1.765 -0.7316  0.2376  0.3532
   51MOL0     C 6755   4.272   8.159   1.774  0.5737 -0.3926  0.0560
   51MOL0     C 6756   4.265   8.250   1.671 -0.0064 -0.8588 -0.6071
   51MOL0     C 6757   4.184   8.222   1.564  1.0598  0.7358 -0.0993
   51MOL0     O 6758   4.172   8.296   1.447 -0.2083 -0.3507  0.5568
   51MOL0     C 6759   4.250   8.422   1.441  0.4256 -0.0211  0.1233
   51MOL0     C 6760   4.376   8.410   1.361 -0.8080  0.7181 -0.1799
   51MOL0     C 6761   4.511   8.397   1.433 -0.1736 -0.3828 -0.6520
   51MOL0     C 6762   4.616   8.368   1.314 -0.4301  0.1569 -0.8232
   51MOL0     C 6763   4.742   8.313   1.385 -0.7685 -0.6061  0.2184
   51MOL0     C 6764   4.859   8.324   1.291 -0.3191  0.2413 -0.1280
   51MOL0     C 6765   4.993   8.270   1.338  0.0338  0.5579 -0.1928
   51MOL0     C 6766   5.050   8.342   1.468  0.6725 -0.4136 -0.1351
   51MOL0     N 6767   5.062   8.486   1.437 -0.3412  0.2221  0.7605
   51MOL0     C 6768   5.178   8.546   1.374  0.2235 -0.0588  0.4097
   51MOL0     C 6769   5.154   8.675   1.391  0.2358 -0.9420  0.0014
   51MOL0     C 6770   5.241   8.779   1.318  0.1827  0.1967  0.1926
   51MOL0     C 6771   5.209   8.789   1.175 -0.3025  0.4243  0.0365
   51MOL0     C 6772   5.086   8.876   1.141 -0.2632  0.6166  0.7340
   51MOL0     C 6773   4.955   8.842   1.209  0.3637 -0.0962 -0.0231
   51MOL0     O 6774   4.847   8.902   1.126 -0.3291 -0.1423  0.8952
   51MOL0     C 6775   4.712   8.889   1.168  0.1179  0.2527 -0.1609
   51MOL0     C 6776   4.625   8.929   1.073  0.4330  0.3968  0.3043
   51MOL0     C 6777   4.485   8.914   1.097  0.3577  0.6352 -0.3300
   51MOL0     C 6778   4.438   8.861   1.224  0.1338 -0.5546 -0.3340
   51MOL0     C 6779   4.293   8.834   1.237  0.8799  1.7062  0.2169
   51MOL0     O 6780   4.204   8.882   1.147 -0.4893 -0.9145  0.3917
   51MOL0     C 6781   4.064   8.861   1.142 -0.7029  0.1083 -0.2417
   51MOL0     C 6782   3.994   8.773   1.223  0.8256  0.0430  0.3689
   51MOL0     C 6783   3.856   8.783   1.228 -0.1236  0.4460  0.1140
   51MOL0     C 6784   3.786   8.878   1.159  0.3736 -0.3243 -0.0502
   51MOL0     O 6785   3.650   8.867   1.159  0.0479 -0.7261  0.3148
   51MOL0     C 6786   3.564   8.981   1.155  0.4621  0.3595  0.0037
   51MOL0     C 6787   3.431   8.976   1.221 -0.5538 -0.4142  0.3969
   51MOL0     C 6788   3.340   9.092   1.187 -0.3728  0.8685  0.4513
   51MOL0     C 6789   3.285   9.080   1.041 -0.4823  0.0873 -0.6014
   51MOL0     C 6790   3.154   9.161   1.032  0.2012 -0.5963 -0.1685
   51MOL0     C 6791   3.153   9.313   1.065  0.5523 -0.1536 -0.5038
   51MOL0     C 6792   3.203   9.393   0.944  0.5727 -0.0326  0.0666
   51MOL0     C 6793   3.217   9.537   0.998 -0.3771  0.0108  0.3491
   51MOL0    Cl 6794   3.267   9.674   0.880  0.4387 -0.0032 -0.1286
   51MOL0     C 6795   3.860   8.964   1.072  0.3772  0.3147  0.9144
   51MOL0     C 6796   3.995   8.953   1.062  0.0046  0.1472  0.1243
   51MOL0     O 6797   4.257   8.760   1.335 -1.3976 -0.5412  0.7398
   51MOL0     C 6798   4.535   8.821   1.318 -0.0529  0.4145  0.7386
   51MOL0     C 6799   4.666   8.827   1.292  0.3185  0.1172  0.3473
   51MOL0     N 6800   5.036   8.695   1.464 -0.1425 -0.2913 -0.4205
   51MOL0     N 6801   4.980   8.586   1.485 -0.8248  0.3488 -0.3486
   51MOL0     C 6802   4.098   8.111   1.562 -0.3363  0.5118 -0.3909
   51MOL0     C 6803   4.112   8.011   1.661  1.2531 -0.1381  0.1669
   51MOL0     C 6804   4.347   7.763   1.983  0.4261 -0.2082 -0.8736
   51MOL0     C 6805   4.448   7.680   1.963 -1.0404  0.8880  0.4839
   51MOL0     C 6806   4.456   7.546   2.018 -0.3065 -0.1878  0.0314
   51MOL0     C 6807   4.350   7.503   2.106 -0.2288 -0.0984 -0.1153
   51MOL0     O 6808   4.348   7.391   2.184  0.0468 -1.1613 -0.0618
   51MOL0     C 6809   4.464   7.306   2.185  0.2864 -0.8922 -0.2272
   51MOL0     C 6810   4.443   7.188   2.084  1.2368 -0.1426 -0.5509
   51MOL0     C 6811   4.555   7.084   2.083  0.5473 -0.0617 -0.7494
   51MOL0     C 6812   4.696   7.129   2.066 -0.0785 -0.4794  0.1245
   51MOL0     C 6813   4.713   7.196   1.936  0.2605  0.0019  0.3913
   51MOL0     C 6814   4.740   7.243   1.825 -1.3146  0.3868 -0.9225
   51MOL0     C 6815   4.250   7.597   2.134  0.0352  0.7897  0.5985
   51MOL0     C 6816   4.248   7.726   2.070 -0.4711  1.1743 -0.0345
   51MOL0     C 6817   4.136   7.814   2.112 -0.0348  0.7415  0.4461
   51MOL0     H 6818   4.349   8.169   1.850 -0.6948  3.1189  1.0773
   51MOL0     H 6819   4.328   8.338   1.670 -0.8761 -0.2260 -0.4434
   51MOL0     H 6820   4.178   8.485   1.387 -0.1843  1.8989  2.9490
   51MOL0     H 6821   4.273   8.483   1.529 -1.4455  2.7947 -1.1873
   51MOL0     H 6822   4.375   8.501   1.301 -0.3194  0.3217 -0.7989
   51MOL0     H 6823   4.366   8.321   1.298 -0.2055  0.5771 -0.0834
   51MOL0     H 6824   4.509   8.306   1.495 -0.0866 -0.8226 -1.2776
   51MOL0     H 6825   4.550   8.478   1.494 -1.2889  0.0549 -0.5046
   51MOL0     H 6826   4.583   8.295   1.239  1.8115 -0.0161 -1.7226
   51MOL0     H 6827   4.630   8.458   1.255  2.1895  0.9721  0.8757
   51MOL0     H 6828   4.771   8.363   1.478  1.4254 -3.7759  1.3879
   51MOL0     H 6829   4.734   8.212   1.426  0.0027 -0.4552  0.7638
   51MOL0     H 6830   4.845   8.258   1.205  3.5627 -1.6712  0.4924
   51MOL0     H 6831   4.889   8.423   1.256  0.4541  0.4945  1.1787
   51MOL0     H 6832   5.068   8.271   1.258  1.6578 -3.1673  1.0670
   51MOL0     H 6833   4.977   8.162   1.348  1.2314  0.4092  0.2069
   51MOL0     H 6834   4.992   8.331   1.560  1.2264  2.2313  0.6166
   51MOL0     H 6835   5.148   8.293   1.480  1.0184  0.9408  5.2341
   51MOL0     H 6836   5.251   8.498   1.310 -1.7164 -3.5393  0.5462
   51MOL0     H 6837   5.231   8.876   1.369  1.8580  1.6783 -2.0929
   51MOL0     H 6838   5.346   8.751   1.325 -0.2324 -1.2664  0.9555
   51MOL0     H 6839   5.292   8.832   1.118  0.3464 -1.6526 -0.6794
   51MOL0     H 6840   5.194   8.687   1.137  2.1916  0.4417 -1.1956
   51MOL0     H 6841   5.057   8.876   1.036 -0.8396  1.1455  0.8870
   51MOL0     H 6842   5.118   8.978   1.166 -0.0718  0.5175  0.8946
   51MOL0     H 6843   4.934   8.890   1.306 -5.6382  0.8977 -1.4286
   51MOL0     H 6844   4.932   8.736   1.213  2.2515 -0.6003 -1.2132
   51MOL0     H 6845   4.660   8.972   0.980 -1.4510  1.3983  0.0115
   51MOL0     H 6846   4.413   8.942   1.021 -0.0336 -2.1662 -1.1021
   51MOL0     H 6847   4.036   8.693   1.284 -0.8465  0.0136  1.5534
   51MOL0     H 6848   3.813   8.705   1.289  4.4758 -3.6423 -1.2397
   51MOL0     H 6849   3.620   9.067   1.194  2.8065  0.9734 -4.1897
   51MOL0     H 6850   3.543   9.000   1.050 -2.3935  1.7161  0.7452
   51MOL0     H 6851   3.393   8.876   1.199  0.7738 -0.4999 -1.8390
   51MOL0     H 6852   3.450   8.990   1.328  3.5921  1.5101 -0.3631
   51MOL0     H 6853   3.262   9.094   1.263 -3.0713  2.2778 -2.1445
   51MOL0     H 6854   3.391   9.188   1.200  0.3444  0.0901  4.4827
   51MOL0     H 6855   3.271   8.976   1.012 -1.2545  0.2297 -0.7623
   51MOL0     H 6856   3.361   9.123   0.975 -0.5247 -0.8458 -1.2851
   51MOL0     H 6857   3.085   9.108   1.098 -0.6138  0.6434  0.0241
   51MOL0     H 6858   3.103   9.159   0.935 -1.7508  5.3657  0.2770
   51MOL0     H 6859   3.053   9.341   1.098  0.7752 -0.4764  0.4785
   51MOL0     H 6860   3.224   9.318   1.149  0.8781  1.2229 -0.8415
   51MOL0     H 6861   3.141   9.381   0.855  2.0710  0.0600 -1.0404
   51MOL0     H 6862   3.302   9.367   0.905  0.0309 -0.8320 -0.8252
   51MOL0     H 6863   3.121   9.577   1.032 -0.0549  0.3560  0.8768
   51MOL0     H 6864   3.280   9.534   1.087  2.3951 -0.8842 -1.5151
   51MOL0     H 6865   3.809   9.036   1.009  1.7219  1.0183  0.5945
   51MOL0     H 6866   4.055   9.019   0.999 -1.7000  2.0360  0.3626
   51MOL0     H 6867   4.512   8.770   1.411 -0.1694 -0.7438  0.0839
   51MOL0     H 6868   4.734   8.785   1.366 -2.0141 -2.7935  1.0071
   51MOL0     H 6869   4.048   8.092   1.467 -0.3836 -3.6188  0.2567
   51MOL0     H 6870   4.049   7.925   1.644  1.7298  0.0920 -3.5646
   51MOL0     H 6871   4.504   7.709   1.875  0.0932  0.4640  1.0506
   51MOL0     H 6872   4.531   7.473   1.990  0.4502 -0.3169  2.2120
   51MOL0     H 6873   4.474   7.252   2.279  2.0241 -2.3784 -1.2002
   51MOL0     H 6874   4.555   7.362   2.162  0.2367 -1.1179 -1.0304
   51MOL0     H 6875   4.423   7.222   1.982  1.7249  0.1887 -0.5450
   51MOL0     H 6876   4.353   7.134   2.115  0.9083  1.4534  1.5009
   51MOL0     H 6877   4.524   7.022   1.999  0.9388  0.2104 -1.0954
   51MOL0     H 6878   4.557   7.035   2.181 -1.5970 -1.8528 -1.5053
   51MOL0     H 6879   4.721   7.187   2.156 -0.0887 -1.1417  0.5578
   51MOL0     H 6880   4.761   7.042   2.072  1.3080 -0.3004 -6.1640
   51MOL0     H 6881   4.754   7.295   1.732  2.5363  0.5628 -0.3946
   51MOL0     H 6882   4.165   7.566   2.194  0.9404 -0.5577  1.2345
   51MOL0     H 6883   4.075   7.846   2.028  0.1243 -2.5927 -1.0795
   51MOL0     H 6884   4.073   7.775   2.192 -5.7044  0.9434 -3.3543
   51MOL0     H 6885   4.172   7.915   2.136  1.1353 -0.1186  2.6867
   52MOL0     O 6886   4.880   1.156   8.217 -0.8819 -1.0718 -0.2267
   52MOL0     C 6887   4.806   1.247   8.252 -0.3814  0.5637  0.5449
   52MOL0     O 6888   4.682   1.227   8.301  0.0880  0.1500 -0.0049
   52MOL0     C 6889   4.642   1.107   8.337 -0.7616  0.2934 -0.6092
   52MOL0     C 6890   4.524   1.052   8.285  0.1185 -0.8123  0.1993
   52MOL0     C 6891   4.492   0.920   8.312 -0.4050 -0.4602  0.8660
   52MOL0     C 6892   4.579   0.841   8.386 -0.5610  0.0421 -0.7366
   52MOL0     O 6893   4.567   0.703   8.419  0.7375 -0.0338  0.1592
   52MOL0     C 6894   4.466   0.625   8.365  0.6160 -0.4471  0.3868
   52MOL0     C 6895   4.489   0.471   8.398  0.5712  1.2399 -0.1457
   52MOL0     C 6896   4.596   0.413   8.299 -0.3652 -0.2279 -0.6348
   52MOL0     C 6897   4.659   0.274   8.348  0.7173 -0.1528 -0.2209
   52MOL0     C 6898   4.791   0.250   8.278 -0.2937 -0.2124 -0.0793
   52MOL0     C 6899   4.767   0.199   8.136  0.1564  0.3372  0.4447
   52MOL0     C 6900   4.886   0.175   8.040 -0.3027 -0.1756  0.5549
   52MOL0     C 6901   4.979   0.065   8.090 -0.5204 -0.3393  0.9131
   52MOL0     N 6902   4.922  -0.069   8.119  0.4888  0.7577 -0.2961
   52MOL0     C 6903   4.875  -0.104   8.246  0.3536  0.6588  0.0903
   52MOL0     C 6904   4.802  -0.218   8.225 -0.1046  0.4482  0.0501
   52MOL0     C 6905   4.746  -0.294   8.343  0.2537 -0.0023  0.2932
   52MOL0     C 6906   4.624  -0.223   8.391  0.3565  0.2002  0.5778
   52MOL0     C 6907   4.566  -0.300   8.510 -0.6586  0.8043 -0.2233
   52MOL0     C 6908   4.515  -0.453   8.489 -0.5274  0.1551  0.3110
   52MOL0     O 6909   4.407  -0.460   8.393 -0.4804  0.7809 -0.1327
   52MOL0     C 6910   4.279  -0.411   8.409  0.3284  0.8950 -0.2097
   52MOL0     C 6911   4.237  -0.363   8.536  0.8313  0.1273  0.8551
   52MOL0     C 6912   4.118  -0.297   8.553  0.1372 -0.7552  0.7736
   52MOL0     C 6913   4.024  -0.281   8.452 -0.5329  0.0819  0.0101
   52MOL0     C 6914   3.897  -0.226   8.482 -0.3223  0.0287  0.0282
   52MOL0     O 6915   3.870  -0.181   8.607  0.0595  0.5684  0.2576
   52MOL0     C 6916   3.788  -0.074   8.619  0.7327 -0.2471  0.8639
   52MOL0     C 6917   3.718  -0.076   8.741  0.1307 -0.1810  0.6901
   52MOL0     C 6918   3.637   0.025   8.780  0.3857 -0.3320 -0.9682
   52MOL0     C 6919   3.625   0.134   8.699 -0.2013 -0.5768 -0.2169
   52MOL0     O 6920   3.571   0.251   8.746 -0.5924  0.4774 -0.4748
   52MOL0     C 6921   3.435   0.233   8.793  0.2599 -0.9519  0.0123
   52MOL0     C 6922   3.347   0.286   8.686  0.7725 -0.4364 -0.1117
   52MOL0     C 6923   3.371   0.436   8.669 -0.8223 -0.3299  0.0814
   52MOL0     C 6924   3.346   0.531   8.784 -0.3044  0.6716 -0.2391
   52MOL0     C 6925   3.406   0.671   8.762  1.0873 -0.1141 -0.4713
   52MOL0     C 6926   3.553   0.682   8.801 -0.2557 -1.3934  0.3259
   52MOL0     C 6927   3.608   0.821   8.763 -0.3629 -1.8090 -0.1568
   52MOL0     C 6928   3.760   0.828   8.773 -0.2489 -0.9357 -0.4783
   52MOL0    Cl 6929   3.831   0.908   8.925  0.0501 -0.1787  0.1971
   52MOL0     C 6930   3.684   0.140   8.566 -0.7714 -0.1962  0.0544
   52MOL0     C 6931   3.761   0.031   8.530 -0.4459  0.2765 -0.6087
   52MOL0     O 6932   3.832  -0.213   8.381  0.1658 -0.3788  0.4547
   52MOL0     C 6933   4.062  -0.336   8.325 -0.7967  0.9221 -0.9189
   52MOL0     C 6934   4.192  -0.392   8.302 -0.4205  0.1449 -0.4517
   52MOL0     N 6935   4.799  -0.244   8.090 -0.2617  0.2338  0.0342
   52MOL0     N 6936   4.859  -0.158   8.025 -0.2655 -0.9599 -0.2374
   52MOL0     C 6937   4.689   0.897   8.446 -0.9852  0.6987 -0.8769
   52MOL0     C 6938   4.718   1.037   8.429  0.2826 -0.9985  0.0226
   52MOL0     C 6939   4.858   1.384   8.229  0.0550  0.0077 -0.1077
   52MOL0     C 6940   5.004   1.402   8.223  0.7109  0.0156 -0.7152
   52MOL0     C 6941   5.062   1.523   8.218  0.6047  0.8586  1.5361
   52MOL0     C 6942   4.991   1.642   8.207  0.2938  0.0091 -0.1513
   52MOL0     O 6943   5.047   1.771   8.218 -0.0680  0.3493 -0.4223
   52MOL0     C 6944   5.185   1.785   8.227  0.1390 -0.5735 -0.1184
   52MOL0     C 6945   5.246   1.759   8.371 -0.6576  0.8262 -0.1750
   52MOL0     C 6946   5.217   1.873   8.461  0.7226  0.3490 -0.5673
   52MOL0     C 6947   5.284   1.864   8.605 -0.4788 -0.6307 -0.3689
   52MOL0     C 6948   5.216   1.776   8.693 -0.2855  0.2419 -0.2115
   52MOL0     C 6949   5.154   1.702   8.771 -0.4223  0.6537  0.7012
   52MOL0     C 6950   4.850   1.637   8.226 -0.7152  0.7290  0.3120
   52MOL0     C 6951   4.785   1.508   8.224 -0.6362 -0.2179  0.2997
   52MOL0     C 6952   4.636   1.511   8.198  0.1797  0.2173  0.2198
   52MOL0     H 6953   4.466   1.117   8.221  1.8500 -0.6063 -1.2394
   52MOL0     H 6954   4.395   0.884   8.280 -1.4201  3.2026 -0.6042
   52MOL0     H 6955   4.369   0.663   8.396 -0.1775 -0.0036 -2.3414
   52MOL0     H 6956   4.474   0.640   8.257  1.5440  1.3969  0.6709
   52MOL0     H 6957   4.401   0.408   8.382  0.4336  1.5799 -0.7639
   52MOL0     H 6958   4.527   0.449   8.498 -0.0195 -3.7671 -0.7729
   52MOL0     H 6959   4.667   0.497   8.296 -1.4516  0.8555  1.5876
   52MOL0     H 6960   4.540   0.406   8.206 -2.6221  1.3178  0.4918
   52MOL0     H 6961   4.682   0.275   8.455  0.6012  1.2657 -0.1899
   52MOL0     H 6962   4.585   0.196   8.330 -0.8253  1.0028  0.9030
   52MOL0     H 6963   4.840   0.348   8.273 -2.0798  0.8021  1.2520
   52MOL0     H 6964   4.847   0.177   8.337 -1.4179 -0.3799  0.7976
   52MOL0     H 6965   4.700   0.112   8.131 -1.7255  1.6943  0.9131
   52MOL0     H 6966   4.699   0.274   8.095 -2.2606 -2.0864 -0.3289
   52MOL0     H 6967   4.949   0.264   8.025 -1.0562  0.9303  3.3309
   52MOL0     H 6968   4.843   0.138   7.946 -0.6648  0.2370  0.5507
   52MOL0     H 6969   5.059   0.053   8.017  0.5947 -0.0841  2.0600
   52MOL0     H 6970   5.034   0.102   8.177 -0.2089  0.8945  0.2170
   52MOL0     H 6971   4.891  -0.038   8.330 -0.8898  1.1795 -0.0647
   52MOL0     H 6972   4.715  -0.392   8.304  2.3553 -0.1601 -1.1466
   52MOL0     H 6973   4.815  -0.304   8.427  0.8261  4.1723  0.5435
   52MOL0     H 6974   4.656  -0.125   8.426 -2.7224  1.3587  0.4059
   52MOL0     H 6975   4.550  -0.212   8.311  0.9834  0.5880  0.0425
   52MOL0     H 6976   4.480  -0.245   8.549  0.7110  3.1430 -0.2847
   52MOL0     H 6977   4.635  -0.312   8.594  0.3095  0.7582 -1.0057
   52MOL0     H 6978   4.486  -0.499   8.583 -0.2172  0.0242  0.3454
   52MOL0     H 6979   4.593  -0.522   8.456 -0.9385 -0.5872  0.8777
   52MOL0     H 6980   4.286  -0.364   8.634  0.4587 -1.9768  1.0759
   52MOL0     H 6981   4.097  -0.268   8.656 -0.6685  0.6169  0.2594
   52MOL0     H 6982   3.723  -0.166   8.801  3.5457 -1.0671 -0.6879
   52MOL0     H 6983   3.581   0.021   8.873  2.6644  1.7204  0.6098
   52MOL0     H 6984   3.413   0.129   8.818 -1.8226  0.1873  3.8366
   52MOL0     H 6985   3.428   0.290   8.886  4.5820  2.6188 -1.4838
   52MOL0     H 6986   3.358   0.233   8.591  1.4423 -0.1598 -0.1945
   52MOL0     H 6987   3.243   0.278   8.717  0.2602  1.7004 -1.1343
   52MOL0     H 6988   3.475   0.445   8.638 -1.6499  2.1551 -2.3154
   52MOL0     H 6989   3.324   0.467   8.576 -1.0748 -0.6434  0.0998
   52MOL0     H 6990   3.390   0.486   8.874  1.6223 -0.5232 -1.6973
   52MOL0     H 6991   3.237   0.534   8.790 -0.3233 -0.1058 -0.1587
   52MOL0     H 6992   3.340   0.734   8.824 -0.4987 -1.6561 -0.5100
   52MOL0     H 6993   3.401   0.704   8.658  2.6467  0.8172 -0.2932
   52MOL0     H 6994   3.563   0.666   8.908  1.1080 -0.9366  0.2782
   52MOL0     H 6995   3.604   0.617   8.729  3.0627 -1.0970  2.2205
   52MOL0     H 6996   3.563   0.904   8.817  2.8635  2.5015 -3.3326
   52MOL0     H 6997   3.586   0.833   8.657 -0.1620  0.3353  0.0055
   52MOL0     H 6998   3.789   0.723   8.767  5.0216  0.2704 -1.1888
   52MOL0     H 6999   3.808   0.879   8.689 -0.9885  0.8462  0.1245
   52MOL0     H 7000   3.690   0.231   8.507 -0.4622 -0.0070  0.3726
   52MOL0     H 7001   3.806   0.021   8.431  1.0670 -0.6531  0.1229
   52MOL0     H 7002   3.980  -0.333   8.254 -2.2604  0.6361  0.6831
   52MOL0     H 7003   4.226  -0.420   8.203  0.2558 -1.9810  0.3042
   52MOL0     H 7004   4.770   0.844   8.496 -0.1730  0.7750 -2.0666
   52MOL0     H 7005   4.800   1.087   8.479 -0.9809  2.0142 -0.6849
   52MOL0     H 7006   5.069   1.316   8.236 -0.0710 -0.5921 -0.6876
   52MOL0     H 7007   5.171   1.516   8.221  0.5059 -2.2642  0.8794
   52MOL0     H 7008   5.204   1.882   8.179 -0.8729  0.3993  1.3352
   52MOL0     H 7009   5.223   1.705   8.163  0.6250 -1.9229  1.7511
   52MOL0     H 7010   5.352   1.760   8.347 -1.0207 -0.6973 -2.0957
   52MOL0     H 7011   5.222   1.663   8.417  0.3779  1.1868  1.1708
   52MOL0     H 7012   5.109   1.879   8.479  0.3751 -0.7340 -2.0652
   52MOL0     H 7013   5.269   1.957   8.415 -0.2845  1.0583 -0.4351
   52MOL0     H 7014   5.391   1.841   8.602 -0.3793 -0.4547  0.9886
   52MOL0     H 7015   5.291   1.965   8.647 -1.0795  0.1837 -2.1312
   52MOL0     H 7016   5.115   1.621   8.830 -0.1843  0.9987  1.3365
   52MOL0     H 7017   4.788   1.726   8.224  1.5818  2.5080  2.1215
   52MOL0     H 7018   4.603   1.615   8.183 -2.5189 -0.1180  2.8824
   52MOL0     H 7019   4.609   1.460   8.105 -0.6191  1.1883 -0.1037
   52MOL0     H 7020   4.586   1.480   8.290  0.9778  0.3875  0.7242
   53MOL0     O 7021  10.834   2.312  11.036  0.3887 -0.3176  0.2541
   53MOL0     C 7022  10.799   2.298  11.150  0.9759  0.2889 -1.3218
   53MOL0     O 7023  10.844   2.197  11.230 -0.2993  0.4240 -0.2113
   53MOL0     C 7024  10.957   2.131  11.191 -0.0160 -0.6508  0.0707
   53MOL0     C 7025  10.945   1.993  11.200  0.0766  0.3542 -1.2057
   53MOL0     C 7026  11.043   1.910  11.174  0.1333  0.3735  0.2344
   53MOL0     C 7027  11.170   1.961  11.145  0.2915 -0.7009  0.8321
   53MOL0     O 7028  11.274   1.882  11.138  0.8590  0.9171 -0.4087
   53MOL0     C 7029  11.317   1.845  11.009  0.4576 -0.1226 -0.5064
   53MOL0     C 7030  11.430   1.741  11.009  0.1932 -0.4950 -0.1367
   53MOL0     C 7031  11.451   1.671  10.880 -0.2535  0.4455  0.2818
   53MOL0     C 7032  11.437   1.760  10.761  1.0138  0.4166 -0.5049
   53MOL0     C 7033  11.475   1.683  10.633  0.7399  0.3634  0.1754
   53MOL0     C 7034  11.622   1.644  10.619 -0.8383 -0.1689 -0.2358
   53MOL0     C 7035  11.702   1.773  10.639 -0.1540  0.3902  0.4114
   53MOL0     C 7036  11.850   1.739  10.651 -0.2463 -0.4522  0.4595
   53MOL0     N 7037  11.910   1.668  10.538 -0.0904 -0.0951  0.8819
   53MOL0     C 7038  11.929   1.734  10.416  0.4708 -0.0854  0.2716
   53MOL0     C 7039  12.000   1.650  10.343 -0.7537 -0.5233 -0.1992
   53MOL0     C 7040  12.044   1.676  10.204  0.1744  0.4858  0.2866
   53MOL0     C 7041  12.201   1.657  10.193 -0.2318 -0.5891 -0.7558
   53MOL0     C 7042  12.251   1.650  10.049  0.0057 -0.1895  0.6032
   53MOL0     C 7043  12.405   1.658  10.041 -0.3501 -0.1348 -0.2692
   53MOL0     O 7044  12.452   1.782  10.086  0.4968 -0.5261 -0.1876
   53MOL0     C 7045  12.485   1.885   9.997 -0.0189  0.2359 -0.7565
   53MOL0     C 7046  12.518   2.007  10.052 -0.8486 -0.5463  0.0106
   53MOL0     C 7047  12.548   2.119   9.973 -0.1813  0.0404  0.4498
   53MOL0     C 7048  12.550   2.113   9.838  0.0856 -0.2645  0.0854
   53MOL0     C 7049  12.558   2.240   9.768 -0.2726 -0.0694 -0.1545
   53MOL0     O 7050  12.534   2.226   9.633 -0.7601  0.2533 -0.4851
   53MOL0     C 7051  12.532   2.328   9.543 -0.1560  0.4917 -0.1968
   53MOL0     C 7052  12.548   2.465   9.563  0.8783 -0.2771 -0.3262
   53MOL0     C 7053  12.584   2.551   9.458 -0.4143  0.6674  0.1852
   53MOL0     C 7054  12.613   2.501   9.334 -0.5419 -0.8651  0.6174
   53MOL0     O 7055  12.642   2.586   9.231 -0.0536  1.1153  0.9372
   53MOL0     C 7056  12.744   2.684   9.257  0.6425 -0.0163 -0.0967
   53MOL0     C 7057  12.775   2.756   9.122 -0.1765  0.0238  0.5018
   53MOL0     C 7058  12.857   2.885   9.135 -0.4529  0.9951 -0.5616
   53MOL0     C 7059  12.786   3.017   9.158  0.1880  0.3939  0.2958
   53MOL0     C 7060  12.874   3.143   9.144  0.1567 -0.3230  0.6346
   53MOL0     C 7061  12.779   3.269   9.151  0.0277 -0.3313  0.6465
   53MOL0     C 7062  12.856   3.375   9.226  0.2365 -0.2238  0.2543
   53MOL0     C 7063  12.776   3.507   9.240  0.8636  1.4951  0.7026
   53MOL0    Cl 7064  12.817   3.572   9.401  0.2460 -0.1266  0.4346
   53MOL0     C 7065  12.587   2.370   9.305 -1.0555  0.2765  0.1046
   53MOL0     C 7066  12.546   2.285   9.408  0.3208 -0.9015 -0.3817
   53MOL0     O 7067  12.570   2.347   9.832 -0.6721 -0.4885 -0.6824
   53MOL0     C 7068  12.530   1.990   9.777  0.2710  0.0011  0.3586
   53MOL0     C 7069  12.491   1.874   9.856 -0.4778  0.3706 -0.3138
   53MOL0     N 7070  12.027   1.538  10.421 -0.1876  0.0119  0.0588
   53MOL0     N 7071  11.982   1.554  10.540  0.0155  0.1056  0.1362
   53MOL0     C 7072  11.192   2.092  11.121 -0.7180 -0.8999 -0.7932
   53MOL0     C 7073  11.090   2.180  11.164 -1.2787 -0.1466  0.0672
   53MOL0     C 7074  10.689   2.388  11.212 -0.1445  0.3983  0.5180
   53MOL0     C 7075  10.629   2.338  11.333 -0.4795  1.1714 -0.2392
   53MOL0     C 7076  10.537   2.414  11.407 -0.5476  0.7252  0.3966
   53MOL0     C 7077  10.498   2.536  11.362  0.1771  0.1763 -0.1578
   53MOL0     O 7078  10.407   2.603  11.448 -1.0434 -0.5791 -0.4249
   53MOL0     C 7079  10.486   2.709  11.515  0.0120 -0.8183  0.0813
   53MOL0     C 7080  10.443   2.850  11.463 -0.4037 -0.5285  0.2246
   53MOL0     C 7081  10.280   2.859  11.466 -1.0244 -0.4347 -0.5324
   53MOL0     C 7082  10.232   2.846  11.611  0.1042  1.2312  0.3688
   53MOL0     C 7083  10.099   2.911  11.646 -0.0843  0.9209  0.3912
   53MOL0     C 7084  10.007   2.978  11.686 -0.5431 -0.2313  0.1970
   53MOL0     C 7085  10.540   2.584  11.240 -0.3325 -0.5888 -0.5818
   53MOL0     C 7086  10.640   2.511  11.160  1.2774 -0.4670 -0.3565
   53MOL0     C 7087  10.709   2.581  11.042  0.6643 -0.2199 -0.0419
   53MOL0     H 7088  10.847   1.958  11.231  1.7580 -1.6704  2.4547
   53MOL0     H 7089  11.033   1.802  11.170 -0.7829  0.4901 -2.1201
   53MOL0     H 7090  11.228   1.806  10.960  0.4228 -0.7513  0.0511
   53MOL0     H 7091  11.360   1.933  10.960  2.4734  1.1323  3.1657
   53MOL0     H 7092  11.392   1.661  11.073 -1.5932 -0.3437 -0.9408
   53MOL0     H 7093  11.519   1.793  11.047  1.7440 -0.3906 -3.5538
   53MOL0     H 7094  11.390   1.581  10.868  1.1481 -0.4435 -0.3381
   53MOL0     H 7095  11.554   1.637  10.878 -0.7928 -1.7340 -4.5862
   53MOL0     H 7096  11.328   1.770  10.756  0.4630 -2.5138  2.2687
   53MOL0     H 7097  11.471   1.864  10.769 -1.9808  1.4350  0.4424
   53MOL0     H 7098  11.415   1.592  10.624  3.0408 -1.3291  1.0974
   53MOL0     H 7099  11.463   1.743  10.542  0.8974 -0.5564 -0.4603
   53MOL0     H 7100  11.658   1.574  10.695  1.1706 -0.2899 -1.2315
   53MOL0     H 7101  11.628   1.602  10.518  0.6382 -1.2103  0.2494
   53MOL0     H 7102  11.674   1.826  10.730 -1.7309 -1.6842  1.2225
   53MOL0     H 7103  11.686   1.846  10.558  1.3479  1.5006  1.0782
   53MOL0     H 7104  11.895   1.839  10.657 -3.2565  0.9450  2.8537
   53MOL0     H 7105  11.876   1.675  10.736  2.9245 -0.2981 -0.2984
   53MOL0     H 7106  11.892   1.833  10.392 -1.1938 -0.4870  1.0162
   53MOL0     H 7107  11.980   1.611  10.143 -0.7137 -2.7404  4.2309
   53MOL0     H 7108  12.017   1.782  10.195 -0.2932  0.4755  1.4111
   53MOL0     H 7109  12.241   1.735  10.258 -1.9873 -0.6325  0.4283
   53MOL0     H 7110  12.225   1.559  10.236  1.4380 -0.7315 -1.8905
   53MOL0     H 7111  12.197   1.721   9.986 -2.9995  1.2973  4.4667
   53MOL0     H 7112  12.222   1.550  10.013  2.5162 -0.0613 -2.1705
   53MOL0     H 7113  12.432   1.633   9.938  0.3084  3.5173 -1.1075
   53MOL0     H 7114  12.440   1.585  10.115 -2.2423  1.6521  2.6013
   53MOL0     H 7115  12.513   2.011  10.160  2.9672 -0.3729  0.2964
   53MOL0     H 7116  12.565   2.205  10.037 -2.9104  1.7714 -0.9475
   53MOL0     H 7117  12.537   2.508   9.663  0.2128  3.2980 -1.7672
   53MOL0     H 7118  12.597   2.658   9.473  2.9071  0.8643 -2.9497
   53MOL0     H 7119  12.715   2.760   9.330 -1.3804 -0.5170 -0.3224
   53MOL0     H 7120  12.842   2.639   9.278  1.5563 -0.2334 -3.8982
   53MOL0     H 7121  12.830   2.692   9.052 -0.0967 -1.4985  1.8815
   53MOL0     H 7122  12.675   2.783   9.087 -0.9771 -2.3124  0.8018
   53MOL0     H 7123  12.926   2.869   9.218 -3.9925 -3.7131  1.9195
   53MOL0     H 7124  12.925   2.913   9.053  1.3588  1.9069  1.1596
   53MOL0     H 7125  12.753   3.012   9.263  3.7687  1.9027  1.6655
   53MOL0     H 7126  12.710   3.015   9.080  1.1547 -2.1938 -0.7160
   53MOL0     H 7127  12.930   3.145   9.050  1.2122 -1.8348  1.2017
   53MOL0     H 7128  12.952   3.141   9.220  2.0753 -5.2357 -1.0953
   53MOL0     H 7129  12.752   3.297   9.048  1.3250 -2.1818 -0.2444
   53MOL0     H 7130  12.687   3.243   9.205  0.6365 -1.6990  1.0601
   53MOL0     H 7131  12.946   3.397   9.168  0.2912 -1.0002  0.0372
   53MOL0     H 7132  12.900   3.341   9.320  1.2118 -0.0316 -0.1294
   53MOL0     H 7133  12.793   3.572   9.155 -1.8938 -0.3844 -1.4911
   53MOL0     H 7134  12.668   3.491   9.244  0.6334  2.9676  0.9833
   53MOL0     H 7135  12.599   2.317   9.211 -0.7532 -2.5054  1.5817
   53MOL0     H 7136  12.525   2.181   9.384 -0.9093 -0.7021 -0.2643
   53MOL0     H 7137  12.523   1.990   9.669  0.1473 -2.3174  0.3145
   53MOL0     H 7138  12.463   1.777   9.816 -1.7102 -0.0408  1.4126
   53MOL0     H 7139  11.287   2.139  11.096 -1.9368  1.0941 -1.9785
   53MOL0     H 7140  11.105   2.288  11.168 -2.6010  0.0308  1.6133
   53MOL0     H 7141  10.669   2.247  11.377 -1.8156  1.0349  0.7745
   53MOL0     H 7142  10.485   2.375  11.494 -0.3512 -3.4104 -1.1437
   53MOL0     H 7143  10.595   2.707  11.508  0.3525  1.8769  2.5539
   53MOL0     H 7144  10.454   2.719  11.619 -0.6440  0.6187 -0.2322
   53MOL0     H 7145  10.468   2.874  11.359 -0.2015 -1.7098 -0.0186
   53MOL0     H 7146  10.494   2.927  11.521  1.2455  2.1091 -4.2393
   53MOL0     H 7147  10.241   2.779  11.403 -1.4839 -0.8846  0.3080
   53MOL0     H 7148  10.230   2.951  11.434 -1.3699 -0.1841  0.6534
   53MOL0     H 7149  10.229   2.738  11.625  0.6346  1.1162 -0.3376
   53MOL0     H 7150  10.302   2.889  11.684  1.5549  0.9748 -0.8388
   53MOL0     H 7151   9.916   3.026  11.716 -1.6083 -1.4579 -0.9239
   53MOL0     H 7152  10.508   2.681  11.202  1.5774  2.4174  4.5091
   53MOL0     H 7153  10.679   2.526  10.952 -2.8962  0.6128  0.5166
   53MOL0     H 7154  10.674   2.682  11.021  0.3791 -0.0334  1.2530
   53MOL0     H 7155  10.815   2.595  11.066  0.2870 -1.2671  2.5864
   54MOL0     O 7156   9.147   3.436   0.021 -0.5488  0.5559 -0.0606
   54MOL0     C 7157   9.189   3.543  -0.032  0.3569  0.7331 -0.3259
   54MOL0     O 7158   9.261   3.632   0.036  0.8210  0.1304  0.2384
   54MOL0     C 7159   9.312   3.590   0.157 -0.4955  0.6795 -0.8509
   54MOL0     C 7160   9.238   3.597   0.276  0.3162  0.5286 -0.1878
   54MOL0     C 7161   9.300   3.558   0.395  0.0301  0.4699 -0.6520
   54MOL0     C 7162   9.433   3.494   0.392 -0.6638  0.1782  0.0764
   54MOL0     O 7163   9.495   3.436   0.500 -0.0889  0.9774  1.2094
   54MOL0     C 7164   9.492   3.515   0.617  0.1726 -0.6653 -0.1735
   54MOL0     C 7165   9.609   3.604   0.635  0.5704 -0.4125  0.1827
   54MOL0     C 7166   9.740   3.535   0.624 -1.3036 -0.8780 -0.6303
   54MOL0     C 7167   9.851   3.613   0.703 -0.4260  0.4968  0.8872
   54MOL0     C 7168   9.887   3.748   0.650  0.1870  0.0027 -0.0531
   54MOL0     C 7169  10.030   3.784   0.694 -0.5164  0.0830 -0.1609
   54MOL0     C 7170  10.055   3.936   0.717 -0.2750 -0.2965  0.4880
   54MOL0     C 7171  10.091   4.005   0.582 -0.9371 -1.0431  0.1133
   54MOL0     N 7172  10.104   4.150   0.579 -0.2798  0.7531 -0.9116
   54MOL0     C 7173  10.020   4.235   0.644  0.8691 -0.1142  1.0391
   54MOL0     C 7174  10.070   4.353   0.605 -0.6551  0.0951 -0.3442
   54MOL0     C 7175  10.038   4.480   0.676 -0.6056  0.4468  0.0511
   54MOL0     C 7176   9.928   4.546   0.604  0.1082  0.2482  0.5736
   54MOL0     C 7177   9.840   4.653   0.669 -0.0597  0.4163  0.3872
   54MOL0     C 7178   9.758   4.719   0.554  0.5714  0.6630  0.5971
   54MOL0     O 7179   9.840   4.818   0.493  0.6139  0.2557 -0.5657
   54MOL0     C 7180   9.826   4.841   0.362  0.1211  0.2694  0.2574
   54MOL0     C 7181   9.939   4.863   0.287 -0.1669  0.1319 -0.2002
   54MOL0     C 7182   9.930   4.907   0.153  0.2048  0.5074 -1.6309
   54MOL0     C 7183   9.808   4.935   0.097  0.0502 -0.1375  0.4627
   54MOL0     C 7184   9.788   4.990  -0.040  0.0209  0.2006  0.3463
   54MOL0     O 7185   9.902   5.014  -0.112  0.6739  0.1579 -0.3946
   54MOL0     C 7186   9.885   5.060  -0.239  0.1933 -0.1479 -0.5204
   54MOL0     C 7187   9.997   5.134  -0.272 -0.1515 -0.3485  0.2421
   54MOL0     C 7188  10.011   5.190  -0.398 -0.1037  0.0913 -1.0570
   54MOL0     C 7189   9.932   5.151  -0.506  0.2356 -0.2998  0.4177
   54MOL0     O 7190   9.941   5.190  -0.639  0.0500  0.7372 -0.2217
   54MOL0     C 7191  10.068   5.213  -0.697  0.7618 -0.0355 -0.5855
   54MOL0     C 7192  10.051   5.286  -0.834  0.9038 -0.3341 -1.1203
   54MOL0     C 7193   9.986   5.222  -0.956  0.5533  0.5621 -0.5831
   54MOL0     C 7194   9.951   5.328  -1.067  0.2965 -0.2735  0.0557
   54MOL0     C 7195  10.061   5.356  -1.165 -0.8032 -0.6516 -1.2281
   54MOL0     C 7196  10.093   5.238  -1.263 -0.1258 -0.1044  0.0557
   54MOL0     C 7197  10.232   5.254  -1.331 -0.3380 -0.1082  0.3069
   54MOL0     C 7198  10.252   5.147  -1.444  0.3342  0.6390 -0.6225
   54MOL0    Cl 7199  10.134   5.172  -1.567 -0.1173  0.3235 -0.2583
   54MOL0     C 7200   9.822   5.073  -0.469  0.0391  0.0040 -0.7611
   54MOL0     C 7201   9.805   5.018  -0.343  0.0094  0.4922 -0.3912
   54MOL0     O 7202   9.675   4.995  -0.093 -0.5288  0.6315  0.2872
   54MOL0     C 7203   9.697   4.918   0.173 -0.7354 -0.0323 -0.2409
   54MOL0     C 7204   9.702   4.865   0.301 -0.8017  0.6422 -0.9278
   54MOL0     N 7205  10.165   4.343   0.509  0.1865  0.8593 -0.7123
   54MOL0     N 7206  10.174   4.217   0.488  0.0855 -0.3974 -0.0379
   54MOL0     C 7207   9.495   3.471   0.269 -0.4036 -0.3676 -0.0288
   54MOL0     C 7208   9.439   3.527   0.154 -0.3350 -0.1611 -0.7496
   54MOL0     C 7209   9.142   3.592  -0.173  0.5573  0.4970 -0.6982
   54MOL0     C 7210   9.039   3.510  -0.222  0.5960 -0.4740  0.6353
   54MOL0     C 7211   8.978   3.551  -0.342 -0.4836 -0.7125 -0.1954
   54MOL0     C 7212   9.026   3.659  -0.413  0.6687 -0.6038  0.4608
   54MOL0     O 7213   8.964   3.692  -0.526  0.0861  0.4946  0.3283
   54MOL0     C 7214   9.040   3.662  -0.650 -0.2990 -0.7580 -0.3284
   54MOL0     C 7215   9.070   3.791  -0.718  0.0023  0.0882 -0.3293
   54MOL0     C 7216   9.126   3.782  -0.862  0.0712  0.2568 -0.3215
   54MOL0     C 7217   9.263   3.702  -0.862  0.1315 -0.1893 -0.9461
   54MOL0     C 7218   9.317   3.713  -0.998 -0.4522  0.0734 -0.2613
   54MOL0     C 7219   9.346   3.739  -1.112  0.5606 -0.6639 -0.2464
   54MOL0     C 7220   9.118   3.740  -0.359  0.3354 -0.9356 -0.0307
   54MOL0     C 7221   9.191   3.708  -0.235  0.2444  0.7345  0.4434
   54MOL0     C 7222   9.302   3.797  -0.180  0.1530  0.1118  0.2392
   54MOL0     H 7223   9.158   3.671   0.270  0.8258  1.0729 -0.3780
   54MOL0     H 7224   9.232   3.564   0.479 -0.0906 -0.3065 -0.6887
   54MOL0     H 7225   9.398   3.568   0.629  0.5073 -0.6538  4.0320
   54MOL0     H 7226   9.492   3.446   0.702  0.2612  0.9439  1.1996
   54MOL0     H 7227   9.601   3.663   0.727 -4.3220  0.3006 -0.4496
   54MOL0     H 7228   9.606   3.675   0.552 -1.1227 -1.7554 -0.9614
   54MOL0     H 7229   9.774   3.521   0.521  2.6400 -1.9515  0.6198
   54MOL0     H 7230   9.735   3.433   0.665 -0.5293 -0.0593  1.6744
   54MOL0     H 7231   9.828   3.629   0.808  1.5658  2.9908  1.0305
   54MOL0     H 7232   9.935   3.544   0.687  2.2174  3.8457 -0.8666
   54MOL0     H 7233   9.882   3.748   0.540  0.7570 -0.7799 -0.0870
   54MOL0     H 7234   9.810   3.816   0.689  1.0900  1.4395 -0.6927
   54MOL0     H 7235  10.070   3.729   0.779  1.3561  1.2944 -0.1796
   54MOL0     H 7236  10.099   3.758   0.613 -0.9882  0.3752 -0.6618
   54MOL0     H 7237  10.143   3.950   0.781 -1.2525  0.3494  1.7431
   54MOL0     H 7238   9.972   3.974   0.778 -0.9733 -1.9762  0.6512
   54MOL0     H 7239  10.184   3.961   0.544  0.4197 -1.0043  3.1098
   54MOL0     H 7240  10.013   3.973   0.512  0.6275 -1.5106 -1.5228
   54MOL0     H 7241   9.949   4.224   0.725 -4.2187 -1.4893 -3.1252
   54MOL0     H 7242  10.008   4.456   0.778 -0.8587  1.1709  0.1511
   54MOL0     H 7243  10.127   4.543   0.685  0.9458 -1.5946 -0.4414
   54MOL0     H 7244   9.954   4.592   0.508 -3.2428  2.1124  0.4379
   54MOL0     H 7245   9.857   4.470   0.569  3.5311 -2.5512 -1.0099
   54MOL0     H 7246   9.889   4.739   0.714 -0.4202  2.9534 -3.5380
   54MOL0     H 7247   9.774   4.616   0.748 -1.8675  0.7648 -0.8908
   54MOL0     H 7248   9.667   4.760   0.599  1.1667  0.2303  2.2395
   54MOL0     H 7249   9.724   4.643   0.482 -1.3956 -0.2372  2.3646
   54MOL0     H 7250  10.040   4.870   0.325  0.7385  0.3244 -2.4763
   54MOL0     H 7251  10.024   4.915   0.099  2.4114 -1.0765  1.6415
   54MOL0     H 7252  10.065   5.175  -0.198  0.1054  1.1868 -0.7976
   54MOL0     H 7253  10.093   5.261  -0.401 -0.5591  0.5825 -2.2270
   54MOL0     H 7254  10.123   5.287  -0.639  1.3400 -1.5097  0.8392
   54MOL0     H 7255  10.121   5.118  -0.703 -2.6808 -2.2703  0.8062
   54MOL0     H 7256  10.012   5.384  -0.804 -0.6524 -1.9641  2.9189
   54MOL0     H 7257  10.153   5.292  -0.873  2.0952 -1.8073  1.4968
   54MOL0     H 7258  10.057   5.150  -0.999  1.1809  1.3679 -0.9305
   54MOL0     H 7259   9.890   5.184  -0.919  0.6375  0.7324 -0.1957
   54MOL0     H 7260   9.938   5.420  -1.009  0.9298  1.1546 -1.9819
   54MOL0     H 7261   9.856   5.306  -1.115 -0.4406  2.8612 -0.1468
   54MOL0     H 7262  10.140   5.371  -1.091 -3.0294 -2.9901  1.9100
   54MOL0     H 7263  10.037   5.446  -1.222  1.2718  2.1925  2.0374
   54MOL0     H 7264  10.091   5.148  -1.200 -1.6087  0.9952  1.6960
   54MOL0     H 7265  10.008   5.226  -1.330 -0.2368 -1.2796  0.3846
   54MOL0     H 7266  10.312   5.240  -1.258 -2.1650 -2.1860  2.0277
   54MOL0     H 7267  10.236   5.352  -1.380  2.5775  0.2586  1.0821
   54MOL0     H 7268  10.354   5.136  -1.484  0.8044  0.4731  0.5657
   54MOL0     H 7269  10.243   5.050  -1.395  2.8810  0.1996 -0.8730
   54MOL0     H 7270   9.759   5.050  -0.555  0.4429 -1.8855 -0.5975
   54MOL0     H 7271   9.724   4.946  -0.345 -0.3376  0.8705 -2.3689
   54MOL0     H 7272   9.601   4.928   0.123 -1.5507 -0.0395  1.2678
   54MOL0     H 7273   9.611   4.841   0.356 -0.2208 -0.5525 -0.4489
   54MOL0     H 7274   9.584   3.408   0.274 -1.8806 -2.9108 -2.3284
   54MOL0     H 7275   9.481   3.522   0.053  0.9351  1.0122 -0.3163
   54MOL0     H 7276   8.997   3.423  -0.173  0.0885 -0.0609  0.9533
   54MOL0     H 7277   8.889   3.500  -0.378 -1.6774  2.4952 -2.1455
   54MOL0     H 7278   8.983   3.595  -0.715 -0.2212 -0.4098 -0.7543
   54MOL0     H 7279   9.138   3.615  -0.639 -0.2175 -1.3267 -2.8530
   54MOL0     H 7280   9.139   3.848  -0.655  0.3830  0.9621 -1.5085
   54MOL0     H 7281   8.976   3.846  -0.727  0.5919  0.9082 -1.6676
   54MOL0     H 7282   9.131   3.887  -0.895  2.1886 -0.4001 -2.3396
   54MOL0     H 7283   9.044   3.734  -0.916 -0.6642 -2.4584  2.9281
   54MOL0     H 7284   9.332   3.738  -0.785 -0.6326 -0.0573 -0.3101
   54MOL0     H 7285   9.260   3.594  -0.845  3.5905 -0.1148  1.1428
   54MOL0     H 7286   9.366   3.748  -1.217  4.3247  0.8779  0.4556
   54MOL0     H 7287   9.147   3.831  -0.411 -1.4289 -1.1000 -1.3783
   54MOL0     H 7288   9.266   3.845  -0.088  2.7469 -0.8151  1.8443
   54MOL0     H 7289   9.395   3.746  -0.153  1.6304  1.8327 -1.2809
   54MOL0     H 7290   9.315   3.881  -0.249  0.2596  1.7085  2.0924
   55MOL0     O 7291  11.269   3.700   0.354 -0.2609  0.1002  0.0415
   55MOL0     C 7292  11.205   3.744   0.260 -0.2088  0.3089  0.5891
   55MOL0     O 7293  11.090   3.693   0.217  0.4087 -0.3706 -0.0814
   55MOL0     C 7294  11.059   3.570   0.265 -1.0353  0.5435  0.1667
   55MOL0     C 7295  10.983   3.547   0.378  0.0390  0.0518  0.4544
   55MOL0     C 7296  10.962   3.419   0.421  1.1476 -0.1173  0.6751
   55MOL0     C 7297  11.016   3.303   0.358  0.2984  0.2560 -0.4903
   55MOL0     O 7298  11.012   3.167   0.393 -0.0304  0.3048  0.5905
   55MOL0     C 7299  11.043   3.135   0.524 -0.1707 -0.3093 -0.4688
   55MOL0     C 7300  11.051   2.986   0.547 -0.7313 -0.1041  0.3074
   55MOL0     C 7301  11.102   2.944   0.682 -0.6440 -0.3025 -0.5033
   55MOL0     C 7302  11.102   2.789   0.703  0.5204  0.4692  0.2316
   55MOL0     C 7303  11.093   2.748   0.849  0.3849 -0.3913  0.2401
   55MOL0     C 7304  11.061   2.603   0.865  0.0833  0.2900 -0.3188
   55MOL0     C 7305  11.141   2.502   0.779  0.1220 -0.0806 -0.3745
   55MOL0     C 7306  11.291   2.493   0.829  0.6717 -0.5711  0.1145
   55MOL0     N 7307  11.377   2.403   0.759 -0.2872 -0.1798 -0.0213
   55MOL0     C 7308  11.450   2.443   0.651 -0.1604 -0.6354  0.6641
   55MOL0     C 7309  11.514   2.326   0.612  0.0918 -0.1589 -0.4097
   55MOL0     C 7310  11.633   2.321   0.514 -0.0855  1.2976 -0.1662
   55MOL0     C 7311  11.759   2.272   0.574  0.1647  0.8769 -0.1632
   55MOL0     C 7312  11.785   2.322   0.716 -0.2641 -0.1100 -0.3891
   55MOL0     C 7313  11.850   2.459   0.719 -0.1085 -0.5286  0.4816
   55MOL0     O 7314  11.763   2.555   0.664 -0.1386 -0.7245  0.0182
   55MOL0     C 7315  11.685   2.642   0.743 -0.2984 -0.1223  0.3051
   55MOL0     C 7316  11.685   2.630   0.879 -0.2070 -0.2402 -0.8394
   55MOL0     C 7317  11.622   2.742   0.950  0.2660 -0.0918  0.6480
   55MOL0     C 7318  11.555   2.842   0.884  0.8768 -0.0105  0.2801
   55MOL0     C 7319  11.487   2.946   0.959 -0.3074  0.6941 -0.2520
   55MOL0     O 7320  11.363   2.988   0.911  0.3114 -0.2674 -0.5452
   55MOL0     C 7321  11.298   3.087   0.975 -0.1791  0.0108 -0.5741
   55MOL0     C 7322  11.257   3.079   1.112 -0.9537  0.3910 -0.0583
   55MOL0     C 7323  11.182   3.181   1.160 -0.3216  0.4835  0.0060
   55MOL0     C 7324  11.133   3.295   1.092  0.1157 -1.1493 -0.4058
   55MOL0     O 7325  11.058   3.401   1.147  0.0784  0.1792  0.6900
   55MOL0     C 7326  11.012   3.389   1.278  0.1524  0.5268 -0.2146
   55MOL0     C 7327  10.934   3.507   1.326 -0.0118  0.1289 -0.0312
   55MOL0     C 7328  10.907   3.494   1.478  0.7346 -0.4454 -0.6758
   55MOL0     C 7329  10.823   3.614   1.543  0.2936 -0.7943 -0.6209
   55MOL0     C 7330  10.671   3.600   1.509  0.2576  0.5883  0.3323
   55MOL0     C 7331  10.584   3.698   1.595 -0.1501  0.8235  0.7418
   55MOL0     C 7332  10.550   3.630   1.733  0.0792 -1.5121  0.0900
   55MOL0     C 7333  10.566   3.724   1.845 -0.6001  0.2521  0.0378
   55MOL0    Cl 7334  10.729   3.787   1.864  0.2271  0.2120  0.1607
   55MOL0     C 7335  11.179   3.302   0.959 -0.3561 -1.1165 -0.6504
   55MOL0     C 7336  11.252   3.200   0.894  0.0404  0.0377 -0.3415
   55MOL0     O 7337  11.555   2.998   1.049  0.5791  0.6344  1.0145
   55MOL0     C 7338  11.563   2.844   0.750 -0.1139 -0.1583  0.0274
   55MOL0     C 7339  11.631   2.748   0.680 -0.3765  0.2937 -0.8128
   55MOL0     N 7340  11.475   2.227   0.698 -0.4793  0.9092 -0.0900
   55MOL0     N 7341  11.385   2.272   0.784  0.1723  0.0026 -0.7281
   55MOL0     C 7342  11.080   3.324   0.238  0.8516  0.0683  0.0910
   55MOL0     C 7343  11.103   3.451   0.192  0.6837 -0.8511  0.1827
   55MOL0     C 7344  11.256   3.876   0.204 -0.0173  0.2954  0.2080
   55MOL0     C 7345  11.387   3.905   0.228 -0.5480  0.4184 -0.0411
   55MOL0     C 7346  11.439   4.023   0.176 -0.8929 -0.1934 -0.1656
   55MOL0     C 7347  11.359   4.103   0.088 -0.1219  0.6523 -0.4645
   55MOL0     O 7348  11.383   4.224   0.026  0.2116  1.0909 -0.0897
   55MOL0     C 7349  11.521   4.231  -0.025 -0.3714  0.5198 -0.8763
   55MOL0     C 7350  11.562   4.363  -0.095  0.2506  0.4242  0.4459
   55MOL0     C 7351  11.711   4.381  -0.087 -0.7135  0.5001  0.1926
   55MOL0     C 7352  11.762   4.473  -0.201 -0.3051 -0.7783 -0.1712
   55MOL0     C 7353  11.711   4.610  -0.190  0.3803 -0.9706  1.0300
   55MOL0     C 7354  11.661   4.719  -0.170 -0.6965 -0.8382  0.6457
   55MOL0     C 7355  11.228   4.071   0.060 -0.1695 -0.2562  1.1153
   55MOL0     C 7356  11.176   3.963   0.131 -0.2927  0.3891 -0.1795
   55MOL0     C 7357  11.034   3.946   0.089  0.4360 -0.7296  0.5659
   55MOL0     H 7358  10.955   3.632   0.440  0.6183  0.0049  0.7883
   55MOL0     H 7359  10.907   3.418   0.514  2.6224  0.4563  1.5953
   55MOL0     H 7360  11.137   3.183   0.554 -0.7756  0.3564  0.4233
   55MOL0     H 7361  10.977   3.190   0.592 -0.1291  1.2004 -1.6020
   55MOL0     H 7362  11.111   2.942   0.467  0.8638  0.7848  0.9690
   55MOL0     H 7363  10.950   2.946   0.530 -0.5417 -0.1989 -0.6163
   55MOL0     H 7364  11.038   2.991   0.758 -0.1394 -1.3186  0.5885
   55MOL0     H 7365  11.205   2.979   0.693  0.4326 -3.0125 -1.1446
   55MOL0     H 7366  11.017   2.753   0.645 -0.7703  3.9155 -0.2113
   55MOL0     H 7367  11.190   2.748   0.652 -0.2060 -1.3224  0.3333
   55MOL0     H 7368  11.189   2.771   0.895  0.7461 -1.4829  0.0540
   55MOL0     H 7369  11.011   2.801   0.900  1.1301  3.7491 -2.3163
   55MOL0     H 7370  11.063   2.578   0.972 -3.1728 -0.1096 -0.2262
   55MOL0     H 7371  10.953   2.599   0.847  0.4743 -2.5106 -2.7202
   55MOL0     H 7372  11.135   2.533   0.675 -1.3379 -1.2801 -0.6846
   55MOL0     H 7373  11.101   2.400   0.779 -1.0864  0.3093  1.9467
   55MOL0     H 7374  11.312   2.596   0.797 -1.2696 -0.7835 -2.0737
   55MOL0     H 7375  11.307   2.474   0.936  2.2239 -0.5464 -0.0900
   55MOL0     H 7376  11.456   2.548   0.625 -2.7923 -0.7851 -0.9578
   55MOL0     H 7377  11.611   2.250   0.433  3.6764  0.3606 -0.5539
   55MOL0     H 7378  11.651   2.417   0.466 -1.6689  1.8089  0.1902
   55MOL0     H 7379  11.766   2.164   0.557 -2.5478  0.8419 -1.8855
   55MOL0     H 7380  11.836   2.308   0.506 -1.3300  2.8203 -0.9220
   55MOL0     H 7381  11.859   2.257   0.762 -0.0002  0.3371 -0.1700
   55MOL0     H 7382  11.693   2.322   0.775 -2.3013 -0.7832 -3.2961
   55MOL0     H 7383  11.943   2.449   0.663  0.0997 -0.6920  0.8562
   55MOL0     H 7384  11.882   2.478   0.821  0.0054 -1.3404  0.6007
   55MOL0     H 7385  11.750   2.556   0.923 -0.5929 -1.0151 -1.5415
   55MOL0     H 7386  11.642   2.737   1.057  0.1958 -0.1738  0.6578
   55MOL0     H 7387  11.297   2.995   1.169 -1.8510 -0.5273 -0.7451
   55MOL0     H 7388  11.152   3.157   1.261 -1.2926  1.7188  0.0286
   55MOL0     H 7389  10.945   3.303   1.294 -0.7944  1.5309  1.4634
   55MOL0     H 7390  11.099   3.371   1.341 -0.6070 -1.8804  0.2539
   55MOL0     H 7391  10.986   3.603   1.313  1.9309 -0.9596 -0.7531
   55MOL0     H 7392  10.838   3.506   1.273  1.9843 -0.9509 -4.0784
   55MOL0     H 7393  10.844   3.406   1.493 -0.5217  1.0156  5.5065
   55MOL0     H 7394  11.000   3.493   1.535  0.7836  2.2555 -0.5626
   55MOL0     H 7395  10.860   3.712   1.510  1.4597 -0.4156  1.6458
   55MOL0     H 7396  10.834   3.630   1.650  0.7734  1.6272 -0.9743
   55MOL0     H 7397  10.647   3.496   1.534  2.0739  0.6352  2.5505
   55MOL0     H 7398  10.641   3.615   1.405 -0.3523 -2.7846 -0.0912
   55MOL0     H 7399  10.638   3.793   1.606  1.5981  0.0416 -0.4829
   55MOL0     H 7400  10.486   3.715   1.551 -1.0665 -2.7336  1.1354
   55MOL0     H 7401  10.617   3.545   1.752  1.7444 -0.3381 -0.3735
   55MOL0     H 7402  10.445   3.601   1.728 -0.4733  0.1737  1.1464
   55MOL0     H 7403  10.492   3.803   1.832 -1.3906 -0.8286 -3.2493
   55MOL0     H 7404  10.544   3.665   1.934  0.0482 -1.2298 -0.7291
   55MOL0     H 7405  11.133   3.382   0.903 -2.0143 -1.5652  0.0088
   55MOL0     H 7406  11.275   3.209   0.788  0.0378  0.5984 -0.3022
   55MOL0     H 7407  11.527   2.934   0.700  0.2602 -0.3017 -0.5168
   55MOL0     H 7408  11.637   2.763   0.573  2.5333  1.3770 -0.5776
   55MOL0     H 7409  11.131   3.242   0.188 -0.1222 -1.0811  0.9314
   55MOL0     H 7410  11.161   3.454   0.101 -1.2287 -1.8806 -1.1131
   55MOL0     H 7411  11.452   3.840   0.287 -1.5048 -3.6597 -3.0105
   55MOL0     H 7412  11.537   4.064   0.197  0.0464 -0.4035 -3.4954
   55MOL0     H 7413  11.544   4.152  -0.097 -4.0905 -1.4029 -0.1966
   55MOL0     H 7414  11.579   4.234   0.068 -0.6716  0.2159 -0.6726
   55MOL0     H 7415  11.518   4.448  -0.042  0.5589  1.9088 -1.5505
   55MOL0     H 7416  11.524   4.368  -0.197 -0.7843 -1.2050  0.7102
   55MOL0     H 7417  11.748   4.278  -0.085  0.2524  0.8140  2.8369
   55MOL0     H 7418  11.731   4.413   0.016  1.3724 -1.0798  0.3565
   55MOL0     H 7419  11.871   4.468  -0.205 -0.3923 -2.4040 -1.6843
   55MOL0     H 7420  11.727   4.423  -0.291 -1.6065  1.9134 -1.2861
   55MOL0     H 7421  11.601   4.807  -0.167 -0.6477 -0.6908 -1.3839
   55MOL0     H 7422  11.165   4.123  -0.011  0.9793 -2.1677 -1.4610
   55MOL0     H 7423  10.980   3.883   0.160  1.4833 -0.4524  1.6435
   55MOL0     H 7424  10.981   4.041   0.105  0.2862 -0.9209  1.2349
   55MOL0     H 7425  11.033   3.915  -0.016 -2.0081 -1.8155  0.8467
   56MOL0     O 7426   8.310   2.626   1.521 -0.0938  0.2337 -0.5008
   56MOL0     C 7427   8.236   2.596   1.427  0.1955  0.1101  0.2024
   56MOL0     O 7428   8.114   2.655   1.412 -0.5259  0.2719  0.3400
   56MOL0     C 7429   8.088   2.768   1.486 -0.1244 -0.0994  0.4326
   56MOL0     C 7430   8.014   2.777   1.607 -0.8989  0.1040 -0.0762
   56MOL0     C 7431   8.001   2.900   1.671  0.1720 -0.3372  0.4567
   56MOL0     C 7432   8.051   3.017   1.608  0.1052 -0.0692  0.1008
   56MOL0     O 7433   8.015   3.138   1.671 -0.3315 -0.0017  0.1996
   56MOL0     C 7434   8.114   3.231   1.682 -0.6859 -0.3235  0.2168
   56MOL0     C 7435   8.067   3.368   1.716  0.6514  0.6376 -0.7896
   56MOL0     C 7436   8.185   3.445   1.771 -0.0988 -0.4777 -0.0756
   56MOL0     C 7437   8.140   3.591   1.795  0.3210  0.1719  0.6330
   56MOL0     C 7438   8.253   3.690   1.817 -0.0197  0.0983  0.5509
   56MOL0     C 7439   8.249   3.771   1.952  0.0704 -0.3309 -0.0996
   56MOL0     C 7440   8.251   3.669   2.080 -0.0925  0.4310  0.2017
   56MOL0     C 7441   8.297   3.723   2.216  0.6565 -0.3820 -0.2424
   56MOL0     N 7442   8.294   3.620   2.325  0.7164 -0.3244 -1.4455
   56MOL0     C 7443   8.350   3.496   2.314  0.6157 -0.8327  0.1960
   56MOL0     C 7444   8.353   3.446   2.439 -0.2928 -1.6154  0.2793
   56MOL0     C 7445   8.397   3.305   2.472  0.3591  0.7147  0.5396
   56MOL0     C 7446   8.511   3.292   2.572  0.0483 -0.3006  0.3009
   56MOL0     C 7447   8.562   3.146   2.581 -0.0518 -0.1895  0.2489
   56MOL0     C 7448   8.617   3.108   2.725 -0.3654 -0.0155 -0.1582
   56MOL0     O 7449   8.521   3.099   2.833 -0.2962 -0.6643  0.0785
   56MOL0     C 7450   8.551   3.119   2.964 -1.4772  0.1682  0.2261
   56MOL0     C 7451   8.679   3.098   3.015  0.9524  0.1675 -0.5010
   56MOL0     C 7452   8.695   3.103   3.156  0.4572  0.2383  0.5813
   56MOL0     C 7453   8.591   3.132   3.247  0.0390 -0.3542  0.0381
   56MOL0     C 7454   8.632   3.138   3.393  0.1357 -1.4071  0.2443
   56MOL0     O 7455   8.535   3.132   3.487  0.1579  0.0030 -0.2462
   56MOL0     C 7456   8.560   3.147   3.617 -1.0970 -0.5671 -0.8610
   56MOL0     C 7457   8.655   3.240   3.676 -0.1283  1.3093 -0.6227
   56MOL0     C 7458   8.676   3.254   3.816 -0.6624  0.4491  0.7346
   56MOL0     C 7459   8.598   3.174   3.900 -0.2134  0.9274 -0.2924
   56MOL0     O 7460   8.611   3.183   4.033 -0.1175 -0.5832 -0.2956
   56MOL0     C 7461   8.492   3.229   4.104  0.0979  0.2551 -0.7539
   56MOL0     C 7462   8.450   3.122   4.206  0.6207  0.9246  0.5667
   56MOL0     C 7463   8.536   3.120   4.333 -0.1202 -0.7540  0.0577
   56MOL0     C 7464   8.519   2.997   4.425  0.1757 -0.0520 -0.6332
   56MOL0     C 7465   8.611   2.993   4.549 -0.4116  0.7314 -0.1656
   56MOL0     C 7466   8.759   2.999   4.505 -0.0719  0.5650 -0.1889
   56MOL0     C 7467   8.860   2.973   4.625  0.4022 -0.4741  0.9900
   56MOL0     C 7468   9.004   3.011   4.572 -0.0609  0.0676 -0.0741
   56MOL0    Cl 7469   9.029   3.183   4.499 -0.3783  0.1893  0.1495
   56MOL0     C 7470   8.510   3.079   3.848  1.0783  0.1533  0.0398
   56MOL0     C 7471   8.493   3.065   3.708  0.7758 -0.2875  0.4766
   56MOL0     O 7472   8.746   3.159   3.412 -0.2487 -0.5408 -0.0873
   56MOL0     C 7473   8.462   3.169   3.195 -0.6859 -0.3594  0.1972
   56MOL0     C 7474   8.442   3.151   3.056 -0.2045  0.1160  0.2915
   56MOL0     N 7475   8.283   3.533   2.523  0.5367 -0.2174 -0.5151
   56MOL0     N 7476   8.251   3.637   2.452  0.1778 -0.7526  0.2487
   56MOL0     C 7477   8.122   3.006   1.487  0.2278 -0.5837 -0.9638
   56MOL0     C 7478   8.141   2.888   1.423  0.2650  0.9009  0.2475
   56MOL0     C 7479   8.301   2.511   1.326 -0.8339 -0.2265  0.8264
   56MOL0     C 7480   8.217   2.444   1.242  0.1306 -0.1610  0.2841
   56MOL0     C 7481   8.273   2.358   1.149  0.3678 -0.3281  0.4850
   56MOL0     C 7482   8.415   2.343   1.131  0.4586 -0.1984 -0.2594
   56MOL0     O 7483   8.476   2.271   1.037 -0.0281  0.1819 -0.7375
   56MOL0     C 7484   8.418   2.143   0.999  0.9601 -0.0832 -0.8908
   56MOL0     C 7485   8.477   2.028   1.091 -0.4469  0.3503  0.0837
   56MOL0     C 7486   8.375   1.927   1.097  0.1097  0.7504  0.4937
   56MOL0     C 7487   8.430   1.782   1.101 -0.1594 -0.6469 -0.0504
   56MOL0     C 7488   8.464   1.751   1.238  0.5598  0.7447  0.4241
   56MOL0     C 7489   8.511   1.720   1.346  0.7057 -0.3610  0.0005
   56MOL0     C 7490   8.501   2.417   1.210  0.0407  0.9360 -0.6324
   56MOL0     C 7491   8.448   2.507   1.304 -0.4422  1.1579  0.1255
   56MOL0     C 7492   8.560   2.579   1.373  0.2013 -0.0056  0.6062
   56MOL0     H 7493   7.978   2.689   1.659 -0.1451  1.1082  2.2556
   56MOL0     H 7494   7.943   2.893   1.762  0.5691 -0.1010  0.7301
   56MOL0     H 7495   8.184   3.197   1.759 -0.1818 -0.1166 -0.1412
   56MOL0     H 7496   8.171   3.238   1.588  0.7710 -2.5318  0.8362
   56MOL0     H 7497   7.992   3.363   1.796  0.9778  1.8441 -0.3858
   56MOL0     H 7498   8.017   3.416   1.631 -0.2624 -3.1615 -2.6105
   56MOL0     H 7499   8.256   3.447   1.689 -2.2480 -0.6618 -2.0317
   56MOL0     H 7500   8.237   3.415   1.863  2.1088 -3.6970 -2.1707
   56MOL0     H 7501   8.088   3.627   1.705  0.6567  1.0831  0.7991
   56MOL0     H 7502   8.074   3.599   1.882  1.5613  2.3962  1.4455
   56MOL0     H 7503   8.355   3.649   1.817  1.2227  2.8756  2.0704
   56MOL0     H 7504   8.261   3.761   1.734  1.3257  2.6664  2.6897
   56MOL0     H 7505   8.329   3.845   1.965 -1.2027  1.1720 -0.4140
   56MOL0     H 7506   8.158   3.829   1.970  0.5428  0.4009  0.0056
   56MOL0     H 7507   8.319   3.588   2.051 -2.7527 -0.9380 -2.7358
   56MOL0     H 7508   8.156   3.617   2.094  0.3929 -0.6696 -0.4365
   56MOL0     H 7509   8.401   3.757   2.221  0.1795  1.1351 -0.2483
   56MOL0     H 7510   8.243   3.812   2.248  1.6616  0.4935 -0.9053
   56MOL0     H 7511   8.385   3.455   2.220 -0.5295  2.4523 -1.8329
   56MOL0     H 7512   8.316   3.251   2.521 -0.0123  1.0390  0.2897
   56MOL0     H 7513   8.409   3.245   2.382 -2.8377 -3.2837  2.4591
   56MOL0     H 7514   8.586   3.363   2.535 -1.8945 -0.1372 -3.9919
   56MOL0     H 7515   8.472   3.318   2.671 -0.3608  0.9027 -0.1638
   56MOL0     H 7516   8.636   3.142   2.501  1.1546  1.2503  1.2507
   56MOL0     H 7517   8.485   3.071   2.560  1.0291 -1.3005  0.1757
   56MOL0     H 7518   8.695   3.179   2.754 -1.0863  0.0697  1.6707
   56MOL0     H 7519   8.668   3.012   2.715  2.8615  1.8050 -5.7338
   56MOL0     H 7520   8.764   3.064   2.957  1.8822  2.2049 -0.4329
   56MOL0     H 7521   8.795   3.086   3.195  0.8133  1.7662  0.3833
   56MOL0     H 7522   8.715   3.305   3.613  2.4547 -2.9891 -3.1374
   56MOL0     H 7523   8.743   3.327   3.860  0.3038 -1.1453  2.0721
   56MOL0     H 7524   8.513   3.327   4.147 -1.5764  0.0823  0.5823
   56MOL0     H 7525   8.405   3.242   4.039  0.8733 -0.5002 -1.9698
   56MOL0     H 7526   8.347   3.136   4.240  0.0179  1.5925 -1.4258
   56MOL0     H 7527   8.425   3.026   4.161 -1.2615  2.9215 -3.1012
   56MOL0     H 7528   8.639   3.123   4.294  0.2941 -1.9822  1.0081
   56MOL0     H 7529   8.512   3.220   4.372  0.9755  0.1097 -1.3321
   56MOL0     H 7530   8.541   2.906   4.368  0.0364  0.1571 -1.0257
   56MOL0     H 7531   8.419   2.997   4.469  1.0678 -1.8771  1.6094
   56MOL0     H 7532   8.588   2.902   4.605 -2.0939  0.9745 -0.3996
   56MOL0     H 7533   8.594   3.084   4.608  2.2910 -0.2641  2.3837
   56MOL0     H 7534   8.774   2.916   4.435 -2.1691  0.7313 -0.8925
   56MOL0     H 7535   8.779   3.098   4.464  0.0245  0.9242  0.6991
   56MOL0     H 7536   8.858   2.872   4.665  2.2851 -1.6781 -1.7201
   56MOL0     H 7537   8.824   3.032   4.710 -2.7802  0.3979 -0.7649
   56MOL0     H 7538   9.074   2.998   4.656 -0.8210 -1.0897  0.4077
   56MOL0     H 7539   9.024   2.935   4.495 -1.6348  0.2856 -0.7147
   56MOL0     H 7540   8.449   3.025   3.920  1.4924  0.3203  0.5252
   56MOL0     H 7541   8.420   2.999   3.662 -0.7890  1.6068  0.1066
   56MOL0     H 7542   8.381   3.207   3.256  1.2247  0.5705  2.2886
   56MOL0     H 7543   8.346   3.157   3.006  0.6547 -0.0861 -1.4194
   56MOL0     H 7544   8.153   3.101   1.443 -0.7366  1.2818  2.0787
   56MOL0     H 7545   8.194   2.883   1.329 -2.3199  0.6517 -1.2923
   56MOL0     H 7546   8.109   2.449   1.238 -0.0059 -2.1701  0.1278
   56MOL0     H 7547   8.204   2.309   1.082 -1.0868  1.2647  0.7429
   56MOL0     H 7548   8.452   2.112   0.900  0.9092 -1.7935 -0.4070
   56MOL0     H 7549   8.310   2.156   0.988  0.6800  0.8814  2.0296
   56MOL0     H 7550   8.495   2.065   1.192  2.7439 -1.4575  0.3114
   56MOL0     H 7551   8.572   1.990   1.052  0.9168 -1.8727  4.8160
   56MOL0     H 7552   8.323   1.923   1.001  0.7954 -2.8812  0.1039
   56MOL0     H 7553   8.304   1.939   1.180  1.0191 -0.2895  1.4616
   56MOL0     H 7554   8.365   1.703   1.064  1.4068 -1.8496 -0.3617
   56MOL0     H 7555   8.519   1.774   1.037 -0.1684 -1.8386  0.0649
   56MOL0     H 7556   8.538   1.687   1.445 -3.1132 -1.0533  1.0028
   56MOL0     H 7557   8.607   2.408   1.191  0.3283  2.7342 -0.1335
   56MOL0     H 7558   8.662   2.574   1.333  0.7534  0.3179  1.9342
   56MOL0     H 7559   8.539   2.686   1.364 -0.9409 -0.3544 -1.7095
   56MOL0     H 7560   8.562   2.543   1.476 -3.4870  0.9181  1.1465
   57MOL0     O 7561   0.980   3.726   8.829  0.1297  0.2202  0.3935
   57MOL0     C 7562   1.017   3.725   8.707  0.5490 -0.4135 -0.8529
   57MOL0     O 7563   1.142   3.737   8.665  0.3113 -0.2859  0.7310
   57MOL0     C 7564   1.233   3.778   8.754 -0.5224  0.4620  0.1914
   57MOL0     C 7565   1.264   3.913   8.777  0.6245  0.6440 -0.7684
   57MOL0     C 7566   1.344   3.940   8.888 -1.0787 -0.4265  0.4679
   57MOL0     C 7567   1.431   3.846   8.941 -0.7510  0.5913 -0.4694
   57MOL0     O 7568   1.532   3.877   9.040 -0.2094 -0.4648 -0.2699
   57MOL0     C 7569   1.665   3.889   8.981  0.1585  0.0084 -0.0766
   57MOL0     C 7570   1.713   4.030   9.009  0.0982  0.6133  0.0546
   57MOL0     C 7571   1.763   4.025   9.152 -0.3295 -0.0676 -1.3998
   57MOL0     C 7572   1.784   4.164   9.207 -0.1727  0.0270  0.2876
   57MOL0     C 7573   1.842   4.190   9.352 -0.7515  0.1727 -0.1630
   57MOL0     C 7574   1.769   4.106   9.468 -0.2646 -0.5193  0.2595
   57MOL0     C 7575   1.652   4.172   9.539 -0.5598 -0.0270 -1.1391
   57MOL0     C 7576   1.580   4.074   9.637  0.0325  0.9133  0.7991
   57MOL0     N 7577   1.676   4.027   9.739  0.3190  0.0892  0.7649
   57MOL0     C 7578   1.767   3.924   9.731 -0.2017 -0.2307  0.0645
   57MOL0     C 7579   1.856   3.935   9.834 -0.0979 -0.0402 -0.3951
   57MOL0     C 7580   1.958   3.843   9.870 -0.5646  0.5908 -0.1970
   57MOL0     C 7581   2.098   3.894   9.878  0.4006 -0.4770 -0.4546
   57MOL0     C 7582   2.151   3.968   9.755 -0.0422  0.2905 -0.8103
   57MOL0     C 7583   2.292   4.021   9.765 -0.4313 -0.2726  0.0708
   57MOL0     O 7584   2.370   3.918   9.705  0.0857  0.2198  0.7502
   57MOL0     C 7585   2.513   3.924   9.724 -0.5190 -0.0235  1.7811
   57MOL0     C 7586   2.586   3.810   9.685  0.0317 -0.6200 -0.6536
   57MOL0     C 7587   2.720   3.808   9.702 -0.7241 -0.1812 -0.2245
   57MOL0     C 7588   2.793   3.918   9.751  0.0200  0.0620 -0.1196
   57MOL0     C 7589   2.939   3.921   9.778 -0.7397  0.7073 -0.8534
   57MOL0     O 7590   3.006   3.801   9.771 -0.0979 -0.0618  0.4983
   57MOL0     C 7591   3.141   3.785   9.779 -0.0294 -1.2763  0.9452
   57MOL0     C 7592   3.186   3.652   9.764  0.1733 -0.5238 -0.7495
   57MOL0     C 7593   3.321   3.616   9.776 -0.4110 -0.3335 -0.2411
   57MOL0     C 7594   3.414   3.720   9.787 -0.1143 -0.1487 -0.0583
   57MOL0     O 7595   3.542   3.686   9.761 -0.0288  0.9257  0.3691
   57MOL0     C 7596   3.638   3.716   9.857 -0.2305 -0.6186 -0.4764
   57MOL0     C 7597   3.766   3.696   9.775 -1.3812  0.6890  0.0466
   57MOL0     C 7598   3.900   3.728   9.854  1.1182  0.4956  0.7900
   57MOL0     C 7599   4.026   3.683   9.784  1.2261 -0.0233 -0.3799
   57MOL0     C 7600   4.152   3.742   9.843 -0.0532 -0.3684  0.1404
   57MOL0     C 7601   4.267   3.722   9.739  0.0390  0.1271  0.5733
   57MOL0     C 7602   4.402   3.738   9.801 -0.0469 -0.8010  0.8945
   57MOL0     C 7603   4.480   3.618   9.815 -0.6142  0.0534  0.2926
   57MOL0    Cl 7604   4.637   3.638   9.908  0.1691  0.3402  0.2511
   57MOL0     C 7605   3.379   3.853   9.812  0.2741 -0.9093 -0.0924
   57MOL0     C 7606   3.241   3.889   9.805 -0.1946  0.2623  0.5993
   57MOL0     O 7607   2.998   4.031   9.777 -0.5768  0.0247  0.6377
   57MOL0     C 7608   2.719   4.034   9.783 -0.8883  0.5351  0.5410
   57MOL0     C 7609   2.582   4.036   9.768  0.2863 -0.0023  0.0122
   57MOL0     N 7610   1.825   4.051   9.903  0.9149  0.1055 -0.1656
   57MOL0     N 7611   1.710   4.100   9.850  0.1278  0.7890  0.2764
   57MOL0     C 7612   1.415   3.716   8.900  0.0077  0.2388  0.2563
   57MOL0     C 7613   1.309   3.676   8.814 -0.5545  0.4426  0.0487
   57MOL0     C 7614   0.907   3.689   8.615 -0.1608  1.0522 -0.7143
   57MOL0     C 7615   0.783   3.768   8.631 -0.9916 -0.9027 -0.3623
   57MOL0     C 7616   0.681   3.743   8.548 -0.0222 -0.7232 -0.3842
   57MOL0     C 7617   0.688   3.663   8.436  1.2056 -0.3212 -0.7347
   57MOL0     O 7618   0.572   3.658   8.358  0.3949  0.1559  0.9795
   57MOL0     C 7619   0.576   3.587   8.232  0.1004 -0.0995  0.4867
   57MOL0     C 7620   0.515   3.453   8.234 -0.2087 -0.5669  0.2567
   57MOL0     C 7621   0.389   3.440   8.310 -0.3366  0.0529 -0.7289
   57MOL0     C 7622   0.275   3.531   8.258  0.4925 -0.0553 -0.4102
   57MOL0     C 7623   0.205   3.480   8.140  0.3405  0.8379  0.2696
   57MOL0     C 7624   0.172   3.437   8.035  0.3857 -0.4141  0.6110
   57MOL0     C 7625   0.806   3.581   8.420  0.6899  0.7397 -0.4570
   57MOL0     C 7626   0.918   3.598   8.506 -0.2023 -0.0616 -0.4511
   57MOL0     C 7627   1.034   3.503   8.472 -0.9127 -0.0455 -0.1526
   57MOL0     H 7628   1.205   3.992   8.731 -1.4913 -1.7080 -2.3511
   57MOL0     H 7629   1.357   4.046   8.909 -1.3105 -0.3501  0.2266
   57MOL0     H 7630   1.727   3.818   9.037  2.6907  2.7546  0.8642
   57MOL0     H 7631   1.678   3.875   8.874  1.4007  0.6390 -0.0230
   57MOL0     H 7632   1.634   4.105   9.001 -1.2927 -0.6655  1.1339
   57MOL0     H 7633   1.793   4.058   8.939  1.7392  3.7337  2.8594
   57MOL0     H 7634   1.861   3.978   9.144 -1.1819 -2.1487 -0.2946
   57MOL0     H 7635   1.696   3.970   9.218 -4.0581  3.5244 -1.7276
   57MOL0     H 7636   1.843   4.231   9.143 -1.0417 -0.1145 -0.6894
   57MOL0     H 7637   1.684   4.204   9.225  0.0881  0.4114  0.9182
   57MOL0     H 7638   1.946   4.156   9.358 -1.2763 -1.5435 -0.3671
   57MOL0     H 7639   1.838   4.296   9.377 -1.3744 -0.3606  2.1767
   57MOL0     H 7640   1.745   4.010   9.422 -0.8242 -0.6745  0.8604
   57MOL0     H 7641   1.849   4.088   9.540  0.2219 -3.9251 -0.9230
   57MOL0     H 7642   1.591   4.211   9.458 -2.0231 -3.2040 -1.7287
   57MOL0     H 7643   1.698   4.253   9.596  0.8053 -0.8805 -0.9850
   57MOL0     H 7644   1.501   4.118   9.699 -0.6310  0.2228  0.4594
   57MOL0     H 7645   1.542   3.987   9.584  2.1016  1.6640 -2.1420
   57MOL0     H 7646   1.773   3.861   9.643 -1.9445  0.5459 -0.6545
   57MOL0     H 7647   1.929   3.798   9.965 -0.6490  1.7926  0.3611
   57MOL0     H 7648   1.960   3.763   9.796 -2.2460  0.2842  0.0500
   57MOL0     H 7649   2.108   3.964   9.961  2.2410  0.3073 -1.2876
   57MOL0     H 7650   2.167   3.812   9.900  0.3751  0.0293  1.7819
   57MOL0     H 7651   2.089   4.057   9.743 -1.1644 -0.4649 -0.9025
   57MOL0     H 7652   2.124   3.908   9.667  1.4774  1.2382 -1.9566
   57MOL0     H 7653   2.334   4.027   9.866  0.7644  0.3462 -0.4470
   57MOL0     H 7654   2.291   4.117   9.712  1.1269 -0.6303 -0.6598
   57MOL0     H 7655   2.535   3.718   9.660 -0.2296 -0.0441 -2.3795
   57MOL0     H 7656   2.773   3.717   9.680 -1.3051 -0.7302  0.5902
   57MOL0     H 7657   3.105   3.581   9.756  0.2045 -0.9964  2.1156
   57MOL0     H 7658   3.354   3.515   9.757  1.8710  0.1091  1.0569
   57MOL0     H 7659   3.625   3.820   9.886 -1.4113 -0.5601 -1.1669
   57MOL0     H 7660   3.633   3.651   9.945 -1.4807 -0.2759 -0.2856
   57MOL0     H 7661   3.757   3.595   9.734  0.9755  0.1620  0.6572
   57MOL0     H 7662   3.768   3.765   9.690  3.0892 -0.1750 -0.8243
   57MOL0     H 7663   3.893   3.836   9.869  0.2646  0.7112 -0.8793
   57MOL0     H 7664   3.902   3.686   9.955  0.3857  0.0867  0.6358
   57MOL0     H 7665   4.015   3.715   9.680 -0.3730 -0.6724 -0.4439
   57MOL0     H 7666   4.035   3.574   9.786 -2.9169 -0.8010 -5.1915
   57MOL0     H 7667   4.171   3.693   9.938 -0.6837 -0.6682  0.1177
   57MOL0     H 7668   4.135   3.846   9.873 -3.9716 -0.4258 -1.2598
   57MOL0     H 7669   4.261   3.624   9.692 -1.8909  0.8244 -0.7631
   57MOL0     H 7670   4.268   3.791   9.654 -1.0778 -1.5215 -0.8442
   57MOL0     H 7671   4.377   3.789   9.895 -0.0490  1.4645 -0.2733
   57MOL0     H 7672   4.463   3.808   9.745  0.9163 -1.2525  1.3521
   57MOL0     H 7673   4.424   3.542   9.870 -1.0262 -1.7450 -2.3662
   57MOL0     H 7674   4.509   3.593   9.712  1.1685  3.4871 -0.1620
   57MOL0     H 7675   3.455   3.924   9.844 -2.3735  0.5580  3.7151
   57MOL0     H 7676   3.220   3.995   9.817  3.2830  0.9336  1.7842
   57MOL0     H 7677   2.772   4.123   9.815 -1.7496  0.6577  1.7008
   57MOL0     H 7678   2.533   4.127   9.803  0.1551 -0.8013  2.0205
   57MOL0     H 7679   1.476   3.643   8.952  0.4928 -0.8928 -1.7781
   57MOL0     H 7680   1.303   3.567   8.810 -0.9393  0.4937 -1.8707
   57MOL0     H 7681   0.777   3.842   8.710 -0.2783 -0.2647 -0.8833
   57MOL0     H 7682   0.587   3.798   8.554  1.2027  1.2860  3.1971
   57MOL0     H 7683   0.678   3.586   8.192 -0.1434  4.2872 -0.7958
   57MOL0     H 7684   0.530   3.654   8.159  2.1184  1.2684  0.3759
   57MOL0     H 7685   0.578   3.385   8.292 -1.2207 -0.8583  1.0551
   57MOL0     H 7686   0.503   3.412   8.133 -2.0266 -3.7019  1.5900
   57MOL0     H 7687   0.409   3.460   8.416 -0.0756  0.1889 -0.8024
   57MOL0     H 7688   0.353   3.337   8.311  0.9751 -0.4149  0.2218
   57MOL0     H 7689   0.208   3.566   8.337  2.2062  1.5863  0.3799
   57MOL0     H 7690   0.313   3.624   8.216 -1.8530  1.5338  0.7728
   57MOL0     H 7691   0.136   3.394   7.943 -0.0170  0.3774  0.3930
   57MOL0     H 7692   0.806   3.497   8.350 -2.4074  0.0059  0.2891
   57MOL0     H 7693   1.122   3.562   8.445  0.1157 -1.9883 -1.2341
   57MOL0     H 7694   1.063   3.437   8.554  3.2123  1.0066 -0.5243
   57MOL0     H 7695   1.021   3.442   8.382  0.6151  0.1968 -0.5751
   58MOL0     O 7696   2.956   6.933   5.660  0.3884 -0.2787  0.5685
   58MOL0     C 7697   3.009   6.872   5.756  0.0956  0.2756  0.2591
   58MOL0     O 7698   2.946   6.786   5.836 -0.2425 -0.4854 -0.1085
   58MOL0     C 7699   2.808   6.782   5.821  0.8695  0.0850  0.9870
   58MOL0     C 7700   2.721   6.879   5.875 -0.4884 -0.1026  0.1127
   58MOL0     C 7701   2.579   6.866   5.858 -0.2979  0.3354  0.5182
   58MOL0     C 7702   2.524   6.767   5.777 -0.5597 -0.0882 -0.9391
   58MOL0     O 7703   2.387   6.748   5.765  0.0884  0.4138  0.8036
   58MOL0     C 7704   2.296   6.844   5.817  1.2944  0.6788 -0.0599
   58MOL0     C 7705   2.153   6.831   5.748  0.2435  0.2093  0.6863
   58MOL0     C 7706   2.106   6.678   5.751  0.1046 -0.1807  0.3333
   58MOL0     C 7707   1.998   6.659   5.853 -1.2232  0.7886  0.1051
   58MOL0     C 7708   1.990   6.506   5.875 -0.1278  0.4392  0.7831
   58MOL0     C 7709   1.938   6.430   5.753  0.4461  0.7957  0.4467
   58MOL0     C 7710   1.937   6.282   5.780 -0.9530  1.4907  0.6376
   58MOL0     C 7711   2.083   6.226   5.791  0.0299 -0.4429  0.1569
   58MOL0     N 7712   2.101   6.079   5.797 -0.3739 -0.0479 -0.5890
   58MOL0     C 7713   2.119   6.005   5.904 -1.7232 -0.4527 -0.9148
   58MOL0     C 7714   2.134   5.877   5.868  0.4915  0.0452  0.5112
   58MOL0     C 7715   2.131   5.753   5.952 -0.0247 -0.4683 -1.0965
   58MOL0     C 7716   2.150   5.782   6.100  0.2767  0.6346  0.0856
   58MOL0     C 7717   2.134   5.666   6.194  0.5911 -0.5798 -0.2722
   58MOL0     C 7718   2.269   5.592   6.217 -0.7974 -0.2630  0.4293
   58MOL0     O 7719   2.270   5.499   6.323 -0.2478  0.1668  0.2883
   58MOL0     C 7720   2.385   5.441   6.383 -0.4865 -0.3813  0.6469
   58MOL0     C 7721   2.504   5.487   6.368  0.8092 -0.1421 -0.1917
   58MOL0     C 7722   2.614   5.411   6.411 -0.4278  0.1397 -0.1927
   58MOL0     C 7723   2.599   5.296   6.493 -0.3248  0.1301 -0.3583
   58MOL0     C 7724   2.723   5.218   6.534  0.1182 -1.1199  0.2443
   58MOL0     O 7725   2.848   5.278   6.518 -0.3026  0.2643 -0.1840
   58MOL0     C 7726   2.945   5.186   6.492  0.3968 -0.2961  0.0739
   58MOL0     C 7727   2.932   5.115   6.372 -0.5339  0.1191 -0.4461
   58MOL0     C 7728   3.038   5.031   6.331 -0.4535  0.2308 -0.7951
   58MOL0     C 7729   3.155   5.027   6.409  0.1807  0.7511 -0.1420
   58MOL0     O 7730   3.265   4.945   6.393 -0.1640  0.5916  0.5149
   58MOL0     C 7731   3.271   4.890   6.267 -0.9612 -0.5473  0.3859
   58MOL0     C 7732   3.406   4.820   6.240 -0.7116 -1.4374  0.0705
   58MOL0     C 7733   3.449   4.852   6.098  0.3280 -0.3533  0.9222
   58MOL0     C 7734   3.562   4.766   6.037  0.6622 -0.0765 -0.8528
   58MOL0     C 7735   3.593   4.834   5.901 -0.6425 -0.5574 -0.1274
   58MOL0     C 7736   3.711   4.769   5.829  0.4860 -0.3552  0.4792
   58MOL0     C 7737   3.841   4.812   5.901  0.0491 -0.0131  0.3294
   58MOL0     C 7738   3.967   4.779   5.818 -0.5719 -0.1071  0.3179
   58MOL0    Cl 7739   3.998   4.896   5.683  0.2320 -0.3170 -0.2300
   58MOL0     C 7740   3.166   5.101   6.527  0.3012  1.2096  1.1250
   58MOL0     C 7741   3.059   5.185   6.570 -0.7140  0.2746  0.9634
   58MOL0     O 7742   2.701   5.102   6.568  0.1503  0.1285 -0.0410
   58MOL0     C 7743   2.470   5.249   6.504  0.0659  0.6545 -0.4289
   58MOL0     C 7744   2.371   5.313   6.441  0.9836 -0.7253 -0.2615
   58MOL0     N 7745   2.112   5.874   5.725 -0.4799 -0.2254  0.3891
   58MOL0     N 7746   2.096   5.992   5.690 -0.4872 -0.4313  0.6482
   58MOL0     C 7747   2.615   6.668   5.735  0.1992 -0.1933  0.5172
   58MOL0     C 7748   2.749   6.680   5.745 -0.1392  0.9259 -0.3215
   58MOL0     C 7749   3.148   6.903   5.776  0.4571  0.5502  0.1471
   58MOL0     C 7750   3.184   6.919   5.914  0.6927 -0.5731  0.8885
   58MOL0     C 7751   3.312   6.936   5.945 -0.0246  0.1528 -0.8446
   58MOL0     C 7752   3.419   6.943   5.859  0.2618  0.2686  0.2022
   58MOL0     O 7753   3.537   6.990   5.918  0.0488  0.1325  0.7898
   58MOL0     C 7754   3.675   6.975   5.854 -0.7160 -0.7988  0.9261
   58MOL0     C 7755   3.704   6.816   5.829  1.0724 -0.2609  0.7831
   58MOL0     C 7756   3.656   6.715   5.935  0.6437  0.7109  0.2695
   58MOL0     C 7757   3.655   6.745   6.086 -0.1511  0.1222 -0.1878
   58MOL0     C 7758   3.786   6.733   6.144 -1.2213 -0.5672 -0.0240
   58MOL0     C 7759   3.898   6.721   6.190 -0.2154  0.4634 -0.3183
   58MOL0     C 7760   3.387   6.916   5.722 -1.1221 -0.1160 -1.1768
   58MOL0     C 7761   3.257   6.881   5.680  0.2279 -0.9080 -0.1510
   58MOL0     C 7762   3.254   6.843   5.538  0.1472  0.3714  1.5503
   58MOL0     H 7763   2.768   6.957   5.934 -2.5714  0.7251  0.7691
   58MOL0     H 7764   2.517   6.940   5.908 -3.1531 -3.1258  2.5708
   58MOL0     H 7765   2.284   6.823   5.923  0.3619 -0.9198 -0.4626
   58MOL0     H 7766   2.327   6.947   5.795  0.2410  1.0315  0.0342
   58MOL0     H 7767   2.155   6.855   5.641 -1.6524  0.3872  0.6608
   58MOL0     H 7768   2.080   6.896   5.796  0.3307 -1.1043  2.7429
   58MOL0     H 7769   2.198   6.620   5.758 -0.3190 -0.6882  2.1895
   58MOL0     H 7770   2.060   6.651   5.655 -0.6962  1.0546  0.3502
   58MOL0     H 7771   2.017   6.710   5.948 -0.7775 -1.4739  1.2996
   58MOL0     H 7772   1.905   6.695   5.808 -0.2617  1.9966 -0.9895
   58MOL0     H 7773   2.089   6.473   5.910  0.0393 -0.1515 -0.2019
   58MOL0     H 7774   1.916   6.480   5.951  0.1858 -3.0755  0.0560
   58MOL0     H 7775   1.840   6.469   5.724  0.7693 -1.6140 -5.3212
   58MOL0     H 7776   1.999   6.448   5.664 -0.9575  0.7907 -0.5501
   58MOL0     H 7777   1.901   6.230   5.691  1.1241 -1.6666  1.4751
   58MOL0     H 7778   1.890   6.260   5.876  3.8168 -1.3738  2.7308
   58MOL0     H 7779   2.143   6.269   5.711 -2.3203  1.3896 -0.7467
   58MOL0     H 7780   2.120   6.277   5.881  0.9053  1.4333 -1.1944
   58MOL0     H 7781   2.104   6.035   6.007  3.0882 -0.4671 -0.0047
   58MOL0     H 7782   2.029   5.713   5.949  0.2848 -1.3811  0.1718
   58MOL0     H 7783   2.204   5.681   5.915  0.5027 -0.1829 -0.6202
   58MOL0     H 7784   2.254   5.812   6.113  0.2893  0.7033 -0.1676
   58MOL0     H 7785   2.072   5.854   6.126  1.9907  3.0831 -1.1883
   58MOL0     H 7786   2.061   5.598   6.149 -0.4403  1.0498 -1.1563
   58MOL0     H 7787   2.095   5.702   6.290  0.1683 -0.5182 -0.4630
   58MOL0     H 7788   2.349   5.662   6.242  0.5330 -1.5807  0.0445
   58MOL0     H 7789   2.301   5.544   6.124 -1.8374  1.8602 -1.1169
   58MOL0     H 7790   2.518   5.576   6.308  2.9520  0.1880  0.7120
   58MOL0     H 7791   2.713   5.438   6.377 -0.5529 -0.4310 -1.0200
   58MOL0     H 7792   2.847   5.109   6.305 -1.1758 -0.6010  0.3952
   58MOL0     H 7793   3.030   4.971   6.241  1.6067  1.2736 -1.7365
   58MOL0     H 7794   3.194   4.814   6.251 -0.0375 -0.9549 -2.7225
   58MOL0     H 7795   3.278   4.972   6.195 -1.5585 -0.2858  0.6127
   58MOL0     H 7796   3.485   4.844   6.311  0.7948 -1.2734 -1.5944
   58MOL0     H 7797   3.395   4.711   6.241  2.4298 -1.8788 -1.5403
   58MOL0     H 7798   3.365   4.827   6.032  0.7209 -1.6340  0.8777
   58MOL0     H 7799   3.486   4.955   6.100 -1.8929  0.5042  2.4449
   58MOL0     H 7800   3.534   4.661   6.026  1.6900 -0.4622 -0.0499
   58MOL0     H 7801   3.646   4.764   6.107  0.1170  1.4814 -0.0931
   58MOL0     H 7802   3.612   4.940   5.917  1.0644 -1.2103  3.3228
   58MOL0     H 7803   3.506   4.820   5.837  0.9680 -2.3416 -2.0741
   58MOL0     H 7804   3.708   4.660   5.827 -2.0244 -0.3418  0.1737
   58MOL0     H 7805   3.719   4.803   5.725  2.4297  0.7590  0.9275
   58MOL0     H 7806   3.838   4.758   5.996  0.6590 -1.3337 -0.3755
   58MOL0     H 7807   3.846   4.917   5.930 -1.5791  0.3787 -0.6785
   58MOL0     H 7808   4.054   4.791   5.883  0.9628 -5.0834 -0.4422
   58MOL0     H 7809   3.980   4.676   5.783 -1.9837 -1.1953  2.7252
   58MOL0     H 7810   3.256   5.094   6.588  0.0758  0.5996  1.4003
   58MOL0     H 7811   3.075   5.240   6.662 -0.1530  1.9423 -0.0892
   58MOL0     H 7812   2.440   5.150   6.534 -0.5836 -0.1187 -3.3302
   58MOL0     H 7813   2.270   5.275   6.440  0.0332  1.6027  1.2550
   58MOL0     H 7814   2.574   6.586   5.677  0.2200 -0.1852  0.4910
   58MOL0     H 7815   2.811   6.607   5.694  2.2673  0.7951  2.5085
   58MOL0     H 7816   3.110   6.916   5.994  1.1310  1.1058  1.3920
   58MOL0     H 7817   3.334   6.965   6.047 -0.9804 -2.8885  0.3389
   58MOL0     H 7818   3.746   7.017   5.925 -1.5691  0.5097  1.0422
   58MOL0     H 7819   3.682   7.019   5.754  0.9658 -3.1375 -0.0542
   58MOL0     H 7820   3.809   6.811   5.798  0.5289  0.9942 -1.5388
   58MOL0     H 7821   3.658   6.799   5.731  2.5444  1.7839 -0.3706
   58MOL0     H 7822   3.712   6.623   5.918 -1.1995 -0.6408  1.2187
   58MOL0     H 7823   3.551   6.698   5.911  1.1902 -5.5865  0.8105
   58MOL0     H 7824   3.618   6.848   6.096 -0.6183 -0.0336 -0.3004
   58MOL0     H 7825   3.589   6.683   6.147 -0.1293  1.0747  0.8289
   58MOL0     H 7826   4.003   6.710   6.211 -0.8501 -0.2267  3.0441
   58MOL0     H 7827   3.461   6.925   5.642 -2.3774 -1.6615 -2.5906
   58MOL0     H 7828   3.316   6.916   5.485 -1.0303  1.2749  1.3460
   58MOL0     H 7829   3.308   6.749   5.527 -1.4928 -0.3922 -0.7221
   58MOL0     H 7830   3.155   6.832   5.491  0.8670 -1.6612  0.3886
   59MOL0     O 7831   5.720  10.538   4.218  0.2309 -0.2281  0.0010
   59MOL0     C 7832   5.794  10.557   4.121  0.6842  0.2545 -1.6381
   59MOL0     O 7833   5.802  10.486   4.003  0.6948  0.6570 -0.0099
   59MOL0     C 7834   5.705  10.394   3.976  0.4895  0.1019 -0.0826
   59MOL0     C 7835   5.743  10.256   3.983 -0.7394 -0.7061  0.5687
   59MOL0     C 7836   5.660  10.163   3.938  0.0854 -0.3577  0.1148
   59MOL0     C 7837   5.530  10.196   3.899  0.1110  0.0393  0.0902
   59MOL0     O 7838   5.434  10.100   3.872  0.2241 -0.5945  0.2360
   59MOL0     C 7839   5.475   9.958   3.869  0.2598  0.1714  0.3964
   59MOL0     C 7840   5.358   9.880   3.816  0.2063  0.6235 -0.1753
   59MOL0     C 7841   5.381   9.733   3.818  0.5129  0.6079 -0.3151
   59MOL0     C 7842   5.246   9.654   3.850  0.8651 -0.0542 -0.4004
   59MOL0     C 7843   5.267   9.503   3.846 -0.8546  0.3195  0.5101
   59MOL0     C 7844   5.339   9.461   3.974  0.2949  0.5664  0.6940
   59MOL0     C 7845   5.378   9.315   3.978  0.9779  1.1388  0.3611
   59MOL0     C 7846   5.466   9.283   4.098 -0.0400  0.1064 -1.3747
   59MOL0     N 7847   5.608   9.309   4.080 -0.3273 -0.6233 -0.3580
   59MOL0     C 7848   5.683   9.203   4.027  1.1695 -0.1759 -0.1805
   59MOL0     C 7849   5.795   9.268   3.988 -0.3501  0.8043 -0.1099
   59MOL0     C 7850   5.909   9.231   3.907  0.5097 -0.8520 -1.8095
   59MOL0     C 7851   5.906   9.275   3.763  0.3217  0.2139  0.6731
   59MOL0     C 7852   6.013   9.196   3.678  0.0577  0.1510 -0.0702
   59MOL0     C 7853   5.940   9.075   3.608 -0.4498  0.5466 -0.0564
   59MOL0     O 7854   6.041   9.027   3.521 -0.1311  0.1841 -0.1551
   59MOL0     C 7855   6.055   9.092   3.397 -0.4398  0.1634  0.7137
   59MOL0     C 7856   5.978   9.202   3.340  0.9500 -0.4582  0.4309
   59MOL0     C 7857   6.016   9.256   3.213 -0.0770 -0.4362 -0.0170
   59MOL0     C 7858   6.120   9.194   3.143  0.1412  0.3576  0.1898
   59MOL0     C 7859   6.131   9.238   3.002 -0.5913  0.5010  0.5369
   59MOL0     O 7860   6.228   9.173   2.935 -0.6253 -0.2249 -0.5992
   59MOL0     C 7861   6.257   9.223   2.814 -0.0151  0.6173  0.1847
   59MOL0     C 7862   6.175   9.192   2.698 -0.0108 -0.2849 -0.5541
   59MOL0     C 7863   6.239   9.231   2.582  0.1104 -0.0898 -0.2834
   59MOL0     C 7864   6.362   9.310   2.574  0.3507  0.6455 -0.3558
   59MOL0     O 7865   6.419   9.356   2.458  0.5105 -0.6715  0.5624
   59MOL0     C 7866   6.422   9.264   2.344 -0.1014 -0.3322 -0.7960
   59MOL0     C 7867   6.458   9.335   2.208 -1.0095  0.5366  0.0804
   59MOL0     C 7868   6.607   9.335   2.191  0.0518  0.1850  1.0084
   59MOL0     C 7869   6.680   9.431   2.280 -0.3930 -1.4956 -0.6324
   59MOL0     C 7870   6.810   9.484   2.214  0.0445  0.2663 -0.5086
   59MOL0     C 7871   6.909   9.370   2.166 -0.3170 -0.7775  0.6487
   59MOL0     C 7872   7.046   9.438   2.147 -0.1026 -0.0037  0.3153
   59MOL0     C 7873   7.130   9.326   2.066  0.4539 -0.2686  0.1471
   59MOL0    Cl 7874   7.117   9.161   2.131 -0.2007 -0.1500  0.0927
   59MOL0     C 7875   6.427   9.339   2.688  0.2449  0.8623  0.2330
   59MOL0     C 7876   6.378   9.297   2.810 -0.1309  0.2942  0.1531
   59MOL0     O 7877   6.052   9.322   2.957  0.2233 -0.0445 -0.5278
   59MOL0     C 7878   6.191   9.082   3.193 -1.0761  0.0059 -1.1377
   59MOL0     C 7879   6.161   9.034   3.321 -0.7384  0.2061 -0.5216
   59MOL0     N 7880   5.787   9.393   4.014 -0.7140 -0.7443 -0.4519
   59MOL0     N 7881   5.675   9.423   4.070  0.6318 -0.8377  0.7616
   59MOL0     C 7882   5.487  10.329   3.911  0.6434  0.6001  0.8266
   59MOL0     C 7883   5.571  10.426   3.947 -0.1260 -0.5236 -0.6461
   59MOL0     C 7884   5.909  10.652   4.164 -0.1530  1.5699  0.2331
   59MOL0     C 7885   6.035  10.640   4.091  0.1336 -0.6892  1.4250
   59MOL0     C 7886   6.140  10.733   4.106 -0.5851 -1.0340  0.2579
   59MOL0     C 7887   6.132  10.835   4.208 -0.6749  0.9735  0.2483
   59MOL0     O 7888   6.231  10.933   4.235 -0.2628 -0.3226  0.2407
   59MOL0     C 7889   6.357  10.942   4.168  0.0468  0.9078 -0.0713
   59MOL0     C 7890   6.454  10.827   4.215  0.2743  0.1945 -0.7487
   59MOL0     C 7891   6.596  10.837   4.147  0.7628 -0.3925 -0.1711
   59MOL0     C 7892   6.629  10.739   4.037 -0.8432  0.1117  0.5357
   59MOL0     C 7893   6.551  10.776   3.919  0.5004  0.8985 -0.0607
   59MOL0     C 7894   6.480  10.806   3.826  0.4719 -0.2346  0.4193
   59MOL0     C 7895   6.018  10.832   4.292 -0.4379  0.8453  0.8623
   59MOL0     C 7896   5.908  10.748   4.261  0.4511  0.6668 -0.6999
   59MOL0     C 7897   5.788  10.777   4.358 -0.4759  1.1872  0.7720
   59MOL0     H 7898   5.847  10.239   4.011 -1.1908 -2.9529  1.0106
   59MOL0     H 7899   5.685  10.058   3.927  0.0098 -0.1231 -3.4413
   59MOL0     H 7900   5.557   9.943   3.799 -0.2980 -2.3387  0.1857
   59MOL0     H 7901   5.517   9.918   3.961  3.9283  0.8472 -0.8303
   59MOL0     H 7902   5.350   9.921   3.715  0.7324  2.6744  0.5662
   59MOL0     H 7903   5.262   9.896   3.866  0.2764 -2.3983  1.1202
   59MOL0     H 7904   5.450   9.704   3.898 -1.2828  0.5465  1.2653
   59MOL0     H 7905   5.428   9.694   3.727 -0.6757 -1.2750 -0.1745
   59MOL0     H 7906   5.194   9.676   3.944  0.1940  0.5612 -0.9068
   59MOL0     H 7907   5.173   9.668   3.770  2.6043 -0.5579 -2.1570
   59MOL0     H 7908   5.171   9.451   3.844 -0.2054 -1.2508  3.6086
   59MOL0     H 7909   5.325   9.482   3.756  1.1366 -1.4732  2.1118
   59MOL0     H 7910   5.426   9.527   3.985 -0.2421  1.0499  2.4950
   59MOL0     H 7911   5.280   9.483   4.064  0.4612 -0.0763  0.9665
   59MOL0     H 7912   5.420   9.278   3.884 -1.1013 -0.2838 -0.0623
   59MOL0     H 7913   5.294   9.248   3.996  0.5501  2.1857  2.6767
   59MOL0     H 7914   5.421   9.334   4.184  0.4826 -3.5498  1.3290
   59MOL0     H 7915   5.452   9.182   4.140 -0.1128  1.2202  1.5387
   59MOL0     H 7916   5.660   9.099   4.009 -1.5265  0.0975  1.1726
   59MOL0     H 7917   5.997   9.268   3.960  0.4731  2.0894 -3.5971
   59MOL0     H 7918   5.913   9.124   3.928  0.9303 -0.0719  3.2648
   59MOL0     H 7919   5.804   9.268   3.724 -1.0117 -0.2575  3.9211
   59MOL0     H 7920   5.922   9.383   3.757 -1.8855  0.9186  4.1779
   59MOL0     H 7921   6.101   9.162   3.733 -2.3185 -3.5928  1.8012
   59MOL0     H 7922   6.036   9.273   3.604 -0.7599  0.6176  0.1478
   59MOL0     H 7923   5.851   9.101   3.550 -1.4805 -2.9028 -0.2645
   59MOL0     H 7924   5.912   9.008   3.690  1.4509  1.3613  1.3172
   59MOL0     H 7925   5.894   9.235   3.401 -0.8159 -3.8560  0.0834
   59MOL0     H 7926   5.957   9.337   3.173  1.2050 -0.6793 -2.5632
   59MOL0     H 7927   6.082   9.136   2.700 -0.8755  1.0760 -1.0382
   59MOL0     H 7928   6.203   9.209   2.482  1.6283  1.6703 -1.2930
   59MOL0     H 7929   6.492   9.189   2.382 -2.7586 -1.6134  1.9319
   59MOL0     H 7930   6.322   9.220   2.333 -0.3376 -0.0392  0.1475
   59MOL0     H 7931   6.417   9.267   2.133 -0.2755 -0.9519  0.9795
   59MOL0     H 7932   6.416   9.436   2.210  0.7843  1.3096  0.5039
   59MOL0     H 7933   6.643   9.236   2.222 -1.1950 -0.9081 -0.8681
   59MOL0     H 7934   6.621   9.348   2.083 -3.2675  1.0768  0.5962
   59MOL0     H 7935   6.705   9.370   2.367  0.0754  0.3406  0.5824
   59MOL0     H 7936   6.613   9.514   2.303  0.9066 -0.6684  0.2838
   59MOL0     H 7937   6.858   9.555   2.281 -2.5579  0.6903  1.0563
   59MOL0     H 7938   6.767   9.539   2.130 -1.1856 -1.2920 -0.9592
   59MOL0     H 7939   6.914   9.298   2.248 -1.1490  0.0006  1.4114
   59MOL0     H 7940   6.877   9.316   2.077 -1.9849  0.4029  0.4801
   59MOL0     H 7941   7.094   9.466   2.241  0.0796  0.1010  0.1912
   59MOL0     H 7942   7.041   9.529   2.087 -1.1826  0.6837  1.4096
   59MOL0     H 7943   7.103   9.349   1.963  1.0426  2.8985  0.5902
   59MOL0     H 7944   7.231   9.368   2.077 -1.4806  5.6686 -1.3286
   59MOL0     H 7945   6.510   9.408   2.683  0.9422  0.2507  2.3377
   59MOL0     H 7946   6.417   9.342   2.901  0.3914 -2.9225  1.6608
   59MOL0     H 7947   6.275   9.033   3.144 -0.2887  1.5622 -1.4054
   59MOL0     H 7948   6.220   8.957   3.370  0.0640  1.2049  0.1325
   59MOL0     H 7949   5.388  10.353   3.876  0.3368 -0.9774  0.5719
   59MOL0     H 7950   5.531  10.527   3.942 -2.0985 -1.2285  0.0313
   59MOL0     H 7951   6.057  10.578   4.005  0.6753  2.0184 -0.5177
   59MOL0     H 7952   6.234  10.730   4.051  0.0038  1.7340  0.9765
   59MOL0     H 7953   6.392  11.040   4.203 -1.5621  2.2660 -2.0400
   59MOL0     H 7954   6.349  10.940   4.059 -1.1841  0.4984  0.0074
   59MOL0     H 7955   6.404  10.731   4.200 -1.7419  1.0651  0.0535
   59MOL0     H 7956   6.466  10.840   4.323  0.8123 -1.7097 -0.5587
   59MOL0     H 7957   6.665  10.823   4.230  2.6489  1.7835 -1.2693
   59MOL0     H 7958   6.610  10.941   4.115  1.5152  0.0108  1.3989
   59MOL0     H 7959   6.733  10.746   4.006 -1.0799  2.4281  0.0712
   59MOL0     H 7960   6.619  10.635   4.070  0.8458 -0.6958 -1.2964
   59MOL0     H 7961   6.421  10.843   3.744  1.0897  0.8887  0.4634
   59MOL0     H 7962   6.009  10.910   4.367  0.9652  2.0835 -0.1904
   59MOL0     H 7963   5.793  10.883   4.386 -1.9941  1.8555 -1.3203
   59MOL0     H 7964   5.706  10.753   4.291 -0.0943 -4.3345  1.8477
   59MOL0     H 7965   5.788  10.705   4.440 -0.7890  1.9212  1.4319
   60MOL0     O 7966   5.515   4.260   4.780 -0.4583  0.2137 -0.4566
   60MOL0     C 7967   5.396   4.243   4.753 -0.3319 -0.1122  0.0599
   60MOL0     O 7968   5.321   4.157   4.814 -0.0284  1.2657 -0.4212
   60MOL0     C 7969   5.377   4.042   4.871  0.2705  0.1886 -0.6543
   60MOL0     C 7970   5.504   3.990   4.849 -1.1204  0.1222 -0.7291
   60MOL0     C 7971   5.540   3.866   4.899 -0.8683  0.3558  0.0365
   60MOL0     C 7972   5.449   3.785   4.966 -0.8697  0.0553 -0.2288
   60MOL0     O 7973   5.485   3.657   5.008 -0.1861  0.0087 -0.5534
   60MOL0     C 7974   5.389   3.581   5.070  0.6361 -0.4798 -0.8258
   60MOL0     C 7975   5.458   3.453   5.119  0.3377  0.7103  1.1363
   60MOL0     C 7976   5.545   3.382   5.003  0.8512 -0.0692 -0.8770
   60MOL0     C 7977   5.652   3.281   5.065 -0.3941 -0.5128 -1.3030
   60MOL0     C 7978   5.766   3.236   4.966  1.1482 -0.6139  0.0944
   60MOL0     C 7979   5.891   3.173   5.029 -0.9274 -0.3937 -0.8042
   60MOL0     C 7980   6.022   3.195   4.944  0.0867 -0.2794 -0.8534
   60MOL0     C 7981   6.069   3.340   4.954 -0.7412 -0.7278 -0.8588
   60MOL0     N 7982   6.215   3.368   4.897  0.2280  0.1207  0.0725
   60MOL0     C 7983   6.296   3.282   4.837 -0.0883 -0.5259 -0.4142
   60MOL0     C 7984   6.415   3.347   4.803 -0.1549  0.2946 -0.0784
   60MOL0     C 7985   6.520   3.282   4.717  0.4300 -0.4879 -0.2592
   60MOL0     C 7986   6.586   3.398   4.635  0.1083 -0.0121  0.6490
   60MOL0     C 7987   6.690   3.340   4.532  0.1916 -1.2888  0.2380
   60MOL0     C 7988   6.814   3.267   4.584 -0.2938  0.6763 -0.0663
   60MOL0     O 7989   6.811   3.130   4.551  0.0507 -0.3109 -0.3376
   60MOL0     C 7990   6.900   3.042   4.614 -0.1781  0.9348 -0.4088
   60MOL0     C 7991   6.841   2.926   4.654  0.4912 -0.1187 -0.2985
   60MOL0     C 7992   6.910   2.831   4.724 -0.8087 -0.5101  0.2829
   60MOL0     C 7993   7.045   2.849   4.740  0.3771 -0.5831 -1.1186
   60MOL0     C 7994   7.118   2.742   4.804 -0.8129 -0.7110  0.7891
   60MOL0     O 7995   7.049   2.624   4.842 -1.2470 -0.2264 -0.0737
   60MOL0     C 7996   7.130   2.524   4.914  0.0400  0.6743 -0.0502
   60MOL0     C 7997   7.080   2.464   5.029  0.3145 -0.8816 -0.2998
   60MOL0     C 7998   7.159   2.364   5.085  0.5892 -0.0224  0.6852
   60MOL0     C 7999   7.256   2.305   5.015 -0.1690 -0.1516 -0.9033
   60MOL0     O 8000   7.310   2.199   5.084 -0.2004  0.7739  0.5883
   60MOL0     C 8001   7.334   2.074   5.015  0.7793  0.2221  0.0795
   60MOL0     C 8002   7.479   2.039   5.036  0.6715 -0.1370  0.3751
   60MOL0     C 8003   7.573   2.132   4.953  0.3653 -0.2829 -0.0276
   60MOL0     C 8004   7.713   2.091   4.939 -0.8781 -0.4556 -0.2517
   60MOL0     C 8005   7.811   2.195   4.859  0.3733 -1.1624  0.4662
   60MOL0     C 8006   7.816   2.333   4.930 -0.1054 -0.0662 -0.1076
   60MOL0     C 8007   7.933   2.429   4.887 -0.2949  0.3264  0.1780
   60MOL0     C 8008   7.949   2.538   4.985 -0.5713 -0.8598  0.1255
   60MOL0    Cl 8009   8.018   2.480   5.141  0.3560 -0.1382  0.0042
   60MOL0     C 8010   7.310   2.359   4.902 -0.1729 -0.3504  0.3930
   60MOL0     C 8011   7.256   2.476   4.859  0.0702  0.4668  1.3509
   60MOL0     O 8012   7.225   2.766   4.840 -1.0854 -0.1108  0.2251
   60MOL0     C 8013   7.114   2.969   4.687  0.0459 -0.1689 -0.2583
   60MOL0     C 8014   7.038   3.069   4.630 -0.1074 -0.4506  0.2917
   60MOL0     N 8015   6.401   3.473   4.851  0.2232  0.0527  0.0811
   60MOL0     N 8016   6.283   3.483   4.913 -0.1259 -0.0280 -0.1134
   60MOL0     C 8017   5.321   3.847   4.991  0.2211  1.1633  1.2508
   60MOL0     C 8018   5.293   3.964   4.941  0.0178 -0.2153  0.1656
   60MOL0     C 8019   5.325   4.356   4.677 -0.5355 -0.0383  0.0552
   60MOL0     C 8020   5.209   4.329   4.612 -0.0134  0.2774 -0.1909
   60MOL0     C 8021   5.143   4.424   4.537 -0.0430  0.1855  0.4965
   60MOL0     C 8022   5.179   4.556   4.545  1.2610 -1.0087 -0.2539
   60MOL0     O 8023   5.114   4.667   4.494  0.0039  0.2606  0.1391
   60MOL0     C 8024   5.035   4.650   4.369 -0.7611 -0.0808  0.3603
   60MOL0     C 8025   5.037   4.766   4.278  0.5038  0.5032  1.3675
   60MOL0     C 8026   5.164   4.835   4.249 -1.2260 -0.1876 -0.0308
   60MOL0     C 8027   5.280   4.750   4.188  0.1562 -1.0175  0.3905
   60MOL0     C 8028   5.355   4.825   4.082  0.5956  0.3843 -0.6177
   60MOL0     C 8029   5.425   4.876   3.994  0.0944 -1.1567  0.9743
   60MOL0     C 8030   5.289   4.594   4.617 -0.4462 -0.0073 -0.3351
   60MOL0     C 8031   5.364   4.495   4.679 -0.6123  1.1149 -0.0949
   60MOL0     C 8032   5.481   4.540   4.771  0.1271 -0.3060  0.3870
   60MOL0     H 8033   5.583   4.046   4.800 -0.6844  0.7810  0.6630
   60MOL0     H 8034   5.640   3.827   4.883 -1.2410 -0.5239 -0.2178
   60MOL0     H 8035   5.357   3.652   5.147  2.9028  1.1817 -1.3057
   60MOL0     H 8036   5.299   3.556   5.014  0.9377 -1.1854 -1.0100
   60MOL0     H 8037   5.376   3.384   5.142 -0.5392  0.2227 -2.7580
   60MOL0     H 8038   5.524   3.473   5.203 -0.0354  2.0485  1.1350
   60MOL0     H 8039   5.602   3.462   4.954  0.6851  3.4458  3.9840
   60MOL0     H 8040   5.492   3.319   4.930  0.2088 -3.1944  2.0183
   60MOL0     H 8041   5.701   3.335   5.146 -3.0240  2.3571 -1.4201
   60MOL0     H 8042   5.606   3.188   5.100  0.7648 -1.0771 -1.2532
   60MOL0     H 8043   5.726   3.169   4.890  1.5485  1.0223 -1.6349
   60MOL0     H 8044   5.801   3.325   4.912  2.7833 -0.8968  0.6163
   60MOL0     H 8045   5.919   3.227   5.120  2.5581  0.7504 -2.3809
   60MOL0     H 8046   5.878   3.066   5.051  2.6141 -1.0760 -1.3742
   60MOL0     H 8047   5.995   3.179   4.840 -4.0529 -2.2578  0.3040
   60MOL0     H 8048   6.087   3.119   4.990 -4.2277 -3.7514  0.2133
   60MOL0     H 8049   6.008   3.421   4.913 -0.7785 -0.7758 -0.8989
   60MOL0     H 8050   6.072   3.375   5.058  0.9975 -2.5858 -0.2222
   60MOL0     H 8051   6.276   3.178   4.812 -0.8245 -0.6099  0.4633
   60MOL0     H 8052   6.596   3.237   4.783 -0.8725 -1.9713  0.2869
   60MOL0     H 8053   6.478   3.211   4.646  0.0250  0.6866 -1.2208
   60MOL0     H 8054   6.523   3.460   4.571  1.2165 -0.8120 -1.2794
   60MOL0     H 8055   6.631   3.473   4.701 -1.5638  1.3488  0.3088
   60MOL0     H 8056   6.733   3.425   4.478  0.2817 -2.2525 -1.2688
   60MOL0     H 8057   6.636   3.286   4.454 -2.9564 -0.5077  1.7196
   60MOL0     H 8058   6.815   3.280   4.693  4.4779 -0.2789  0.2252
   60MOL0     H 8059   6.908   3.313   4.551  0.6282  1.0510  2.8036
   60MOL0     H 8060   6.733   2.934   4.640  0.3120  0.0333  1.1105
   60MOL0     H 8061   6.866   2.733   4.741  0.0620 -0.6548  1.9159
   60MOL0     H 8062   7.003   2.519   5.083 -0.4234 -2.0040 -0.1920
   60MOL0     H 8063   7.131   2.332   5.185 -2.2108  0.8397  0.2801
   60MOL0     H 8064   7.266   1.999   5.054 -2.0039  3.7800  2.8362
   60MOL0     H 8065   7.318   2.068   4.907  2.6204 -1.6913 -0.1450
   60MOL0     H 8066   7.498   2.048   5.143  1.2785 -3.5786  0.6653
   60MOL0     H 8067   7.494   1.933   5.011 -2.1388 -0.3523 -0.7254
   60MOL0     H 8068   7.539   2.130   4.849  3.5458  0.5377 -1.2109
   60MOL0     H 8069   7.577   2.235   4.990  2.1903 -0.0147 -0.8860
   60MOL0     H 8070   7.717   1.988   4.902 -2.3353 -1.9395  3.2668
   60MOL0     H 8071   7.758   2.075   5.038 -2.7376  1.5715  1.0060
   60MOL0     H 8072   7.773   2.196   4.757 -0.1532  2.2670  0.5680
   60MOL0     H 8073   7.914   2.157   4.857 -0.1374 -2.5306 -0.4532
   60MOL0     H 8074   7.715   2.375   4.925 -0.2128 -0.3998 -0.8715
   60MOL0     H 8075   7.836   2.308   5.034 -2.0321  1.4621  0.6953
   60MOL0     H 8076   7.922   2.462   4.784  0.2975  1.1363  0.3606
   60MOL0     H 8077   8.024   2.370   4.873  0.9635  1.7898  1.7126
   60MOL0     H 8078   8.016   2.621   4.961 -1.3788 -0.0690  0.5425
   60MOL0     H 8079   7.862   2.600   5.009 -1.7015 -2.0332 -0.7892
   60MOL0     H 8080   7.399   2.316   4.856  0.7206 -0.5375  2.2305
   60MOL0     H 8081   7.291   2.512   4.763  0.3687 -1.0070  0.8738
   60MOL0     H 8082   7.220   2.975   4.707 -0.4679  1.3123  2.6694
   60MOL0     H 8083   7.089   3.159   4.598  1.5359 -1.6573 -0.6581
   60MOL0     H 8084   5.245   3.783   5.036  0.1305 -0.7821 -1.3921
   60MOL0     H 8085   5.192   4.004   4.951  0.4626  0.6749  1.4517
   60MOL0     H 8086   5.169   4.229   4.619  1.0909 -0.2292 -0.8258
   60MOL0     H 8087   5.050   4.396   4.488 -1.3753  1.5233  2.1438
   60MOL0     H 8088   4.932   4.623   4.393 -0.3412 -0.6215  1.5990
   60MOL0     H 8089   5.076   4.561   4.321  1.7748  0.1753  1.9210
   60MOL0     H 8090   4.968   4.838   4.323 -1.0603 -1.0296  1.5147
   60MOL0     H 8091   4.989   4.743   4.183 -1.8230  3.0015  1.8050
   60MOL0     H 8092   5.201   4.895   4.333  1.6061 -0.5532 -0.9138
   60MOL0     H 8093   5.146   4.913   4.174 -1.5783 -0.0553  0.1868
   60MOL0     H 8094   5.344   4.723   4.272  0.5860  2.5378  1.3817
   60MOL0     H 8095   5.233   4.660   4.147 -2.0327  1.2715 -2.5548
   60MOL0     H 8096   5.496   4.906   3.920 -1.3287 -1.0573 -0.4056
   60MOL0     H 8097   5.323   4.696   4.636  0.1960 -0.4219  0.8175
   60MOL0     H 8098   5.572   4.481   4.753 -0.5997 -1.2309 -0.3371
   60MOL0     H 8099   5.492   4.649   4.767 -2.5941  0.0575  0.9798
   60MOL0     H 8100   5.463   4.518   4.876  2.0164 -1.9860  0.4150
   61MOL0     O 8101   2.880   3.941   1.353 -0.1279 -0.8865  0.1180
   61MOL0     C 8102   2.947   3.870   1.275  0.5339  0.3324  0.3028
   61MOL0     O 8103   3.053   3.794   1.315 -0.0954  0.2793  0.0029
   61MOL0     C 8104   3.136   3.840   1.416 -0.3203  0.0414 -0.0410
   61MOL0     C 8105   3.108   3.813   1.546 -0.1398  0.3280 -1.0916
   61MOL0     C 8106   3.180   3.875   1.641  0.5778  0.2878 -1.5914
   61MOL0     C 8107   3.286   3.960   1.610  0.4957  0.2718 -0.1577
   61MOL0     O 8108   3.357   4.031   1.707 -0.4956  0.2286 -0.1400
   61MOL0     C 8109   3.492   4.048   1.674 -0.2318  0.4322  0.8600
   61MOL0     C 8110   3.573   4.045   1.803 -0.2831 -0.1023 -0.5595
   61MOL0     C 8111   3.727   4.064   1.777 -0.0380  0.0441 -0.8255
   61MOL0     C 8112   3.818   4.043   1.903 -0.0976  0.2170  0.7435
   61MOL0     C 8113   3.958   4.075   1.855  0.1937  0.1817  0.1358
   61MOL0     C 8114   4.068   4.067   1.962  0.0140 -1.0595 -0.5710
   61MOL0     C 8115   4.204   4.013   1.929 -0.5899  0.1503 -0.8810
   61MOL0     C 8116   4.275   4.092   1.823 -0.9023 -0.3419  0.2564
   61MOL0     N 8117   4.408   4.032   1.801 -0.3490  0.4878 -0.5427
   61MOL0     C 8118   4.524   4.084   1.844 -0.2231  0.4426 -1.1280
   61MOL0     C 8119   4.621   4.013   1.785  0.2069 -0.4102 -0.4267
   61MOL0     C 8120   4.766   4.006   1.814 -0.2546  0.6632  0.1092
   61MOL0     C 8121   4.814   3.863   1.865  0.8742 -0.5688 -0.3630
   61MOL0     C 8122   4.970   3.833   1.835 -0.1133  0.3838  0.2551
   61MOL0     C 8123   5.023   3.745   1.936 -1.6174 -0.0003 -0.7120
   61MOL0     O 8124   5.033   3.806   2.060  0.4319 -0.7826 -0.2802
   61MOL0     C 8125   5.075   3.741   2.174  0.0080 -0.2299  0.3499
   61MOL0     C 8126   5.136   3.613   2.163 -0.5001 -0.4748  0.2650
   61MOL0     C 8127   5.197   3.549   2.264  0.1207  0.4764  0.0091
   61MOL0     C 8128   5.200   3.609   2.393 -0.0717 -0.4359 -1.1601
   61MOL0     C 8129   5.280   3.541   2.491  0.0520 -0.5577  0.0004
   61MOL0     O 8130   5.332   3.423   2.460 -0.5563 -0.1608 -0.3312
   61MOL0     C 8131   5.392   3.351   2.560  0.7340  0.4163  0.1753
   61MOL0     C 8132   5.516   3.388   2.617  0.6759  0.2854  0.3098
   61MOL0     C 8133   5.591   3.300   2.698  0.3824  0.3947 -0.6882
   61MOL0     C 8134   5.536   3.172   2.718 -0.7951 -0.8698  0.6494
   61MOL0     O 8135   5.610   3.095   2.792  0.5453 -0.0953 -0.2069
   61MOL0     C 8136   5.562   2.971   2.844 -0.3471 -0.4150 -0.8354
   61MOL0     C 8137   5.629   2.960   2.981 -0.2277 -0.0239  0.4020
   61MOL0     C 8138   5.577   3.068   3.083  1.3096  1.1489 -0.2747
   61MOL0     C 8139   5.617   3.030   3.223  0.2727 -0.3510 -1.0444
   61MOL0     C 8140   5.558   3.119   3.332 -1.2814 -0.2517 -0.0527
   61MOL0     C 8141   5.408   3.117   3.350  0.4162  0.4047 -0.1239
   61MOL0     C 8142   5.341   3.018   3.436  0.4814 -0.1027 -0.5373
   61MOL0     C 8143   5.192   3.039   3.453 -0.1775 -0.3593 -0.4880
   61MOL0    Cl 8144   5.123   2.893   3.503 -0.0684 -0.3377  0.4093
   61MOL0     C 8145   5.415   3.132   2.660 -0.6867 -0.4360  0.2047
   61MOL0     C 8146   5.344   3.222   2.585 -0.0377  0.9436 -0.3736
   61MOL0     O 8147   5.290   3.600   2.602  0.4579 -0.7215 -0.2474
   61MOL0     C 8148   5.141   3.741   2.402 -0.8750 -0.3765 -0.8168
   61MOL0     C 8149   5.070   3.808   2.303  0.0826  0.6068 -0.0960
   61MOL0     N 8150   4.561   3.929   1.695  0.5803 -1.1887 -0.3128
   61MOL0     N 8151   4.435   3.936   1.704  0.7348 -0.4084 -0.4678
   61MOL0     C 8152   3.307   3.996   1.478  1.5277 -0.1025  0.3045
   61MOL0     C 8153   3.232   3.928   1.377 -0.0986  0.4691 -0.2227
   61MOL0     C 8154   2.905   3.846   1.137 -0.1574  0.4790  0.7459
   61MOL0     C 8155   2.976   3.747   1.071  0.1492  0.1183 -0.4781
   61MOL0     C 8156   2.952   3.713   0.935  0.1369  0.4893  1.3684
   61MOL0     C 8157   2.854   3.776   0.864  0.0768  0.3021  0.8412
   61MOL0     O 8158   2.840   3.739   0.726  0.2671  0.4321  0.1454
   61MOL0     C 8159   2.723   3.796   0.663  0.1731  0.4516  0.7358
   61MOL0     C 8160   2.710   3.747   0.515 -0.2028  0.4091  0.1429
   61MOL0     C 8161   2.828   3.779   0.422 -0.4883  0.6361  0.5506
   61MOL0     C 8162   2.904   3.910   0.458 -0.2182 -0.1561  0.0910
   61MOL0     C 8163   3.011   3.921   0.357  0.7593  0.1639 -0.1765
   61MOL0     C 8164   3.112   3.928   0.280  0.3544  0.2282 -0.7269
   61MOL0     C 8165   2.784   3.880   0.934  0.8637  0.6412  0.7333
   61MOL0     C 8166   2.808   3.915   1.060 -0.8217 -0.2757  0.1573
   61MOL0     C 8167   2.736   4.033   1.118  0.2800 -0.3433 -0.4379
   61MOL0     H 8168   3.022   3.751   1.569 -1.7213  1.0434 -4.3926
   61MOL0     H 8169   3.153   3.860   1.745 -3.0242  0.8617 -2.3387
   61MOL0     H 8170   3.536   3.972   1.608  0.3334  1.9227 -0.5479
   61MOL0     H 8171   3.504   4.143   1.622 -2.2236  0.9604  1.2863
   61MOL0     H 8172   3.551   3.954   1.860 -0.9997  2.1686  3.1239
   61MOL0     H 8173   3.530   4.122   1.867  1.3583 -1.3152  2.1847
   61MOL0     H 8174   3.757   4.161   1.735  0.3935  0.7762  1.0673
   61MOL0     H 8175   3.753   3.985   1.706 -0.6684 -2.0053  1.1098
   61MOL0     H 8176   3.773   4.100   1.985 -0.7109 -0.6024  0.9983
   61MOL0     H 8177   3.815   3.940   1.940 -3.1706 -0.0389  0.0797
   61MOL0     H 8178   3.995   3.995   1.791 -1.6535 -1.6200  1.2207
   61MOL0     H 8179   3.969   4.177   1.816 -1.5152  0.7178  0.9427
   61MOL0     H 8180   4.090   4.168   1.995 -0.1382 -0.1847 -2.9397
   61MOL0     H 8181   4.029   4.018   2.052 -5.2921  2.4622 -0.5031
   61MOL0     H 8182   4.201   3.904   1.913 -0.2424 -0.6779  3.4040
   61MOL0     H 8183   4.266   4.025   2.019 -1.9606 -1.8162  0.4020
   61MOL0     H 8184   4.218   4.108   1.731 -3.2897  4.7092  2.2607
   61MOL0     H 8185   4.281   4.196   1.856  0.3532 -0.1509 -0.5113
   61MOL0     H 8186   4.535   4.164   1.916  0.6834  1.2095 -2.0788
   61MOL0     H 8187   4.820   4.044   1.727 -2.4793  2.1743 -0.7009
   61MOL0     H 8188   4.796   4.079   1.890  4.9115 -0.6843 -0.2233
   61MOL0     H 8189   4.790   3.868   1.972 -0.4073  0.4502 -0.6830
   61MOL0     H 8190   4.740   3.794   1.823 -2.5223  2.7052 -0.2640
   61MOL0     H 8191   5.014   3.932   1.848 -2.6675  1.4910  1.0625
   61MOL0     H 8192   4.971   3.791   1.734  1.7346 -0.9768  0.7757
   61MOL0     H 8193   5.121   3.713   1.899 -0.2650  0.4431  2.2529
   61MOL0     H 8194   4.948   3.666   1.950  0.1413 -1.4722  0.9031
   61MOL0     H 8195   5.137   3.570   2.063  0.0881 -0.0486  0.0785
   61MOL0     H 8196   5.230   3.447   2.246 -1.2813 -0.0970  0.5479
   61MOL0     H 8197   5.574   3.476   2.591  1.0526 -0.4541 -1.5013
   61MOL0     H 8198   5.692   3.329   2.725  0.9852 -0.0126 -2.3686
   61MOL0     H 8199   5.454   2.979   2.864 -0.5860 -1.8217 -1.4991
   61MOL0     H 8200   5.590   2.884   2.784  2.5458 -1.0598  1.2591
   61MOL0     H 8201   5.613   2.862   3.027  1.9094  0.4241  2.2528
   61MOL0     H 8202   5.738   2.956   2.975 -0.0361 -2.9006  2.9945
   61MOL0     H 8203   5.614   3.167   3.057  0.4482  2.2867  2.4552
   61MOL0     H 8204   5.469   3.084   3.072  1.5989  3.5499 -0.1849
   61MOL0     H 8205   5.726   3.024   3.223  0.4901  2.2268 -2.0356
   61MOL0     H 8206   5.572   2.935   3.256  2.2989 -1.1678 -0.4766
   61MOL0     H 8207   5.596   3.221   3.321 -2.5606  0.2357 -0.0197
   61MOL0     H 8208   5.604   3.080   3.424  2.8424  2.1411 -0.8264
   61MOL0     H 8209   5.378   3.204   3.409  0.4391 -1.2304  2.4252
   61MOL0     H 8210   5.355   3.126   3.254  0.3587  2.4881  0.0584
   61MOL0     H 8211   5.397   3.021   3.530 -0.8746 -2.0941  0.4008
   61MOL0     H 8212   5.359   2.922   3.385  0.4531  0.4970 -1.7209
   61MOL0     H 8213   5.174   3.120   3.524  0.8397  0.9425 -1.6572
   61MOL0     H 8214   5.146   3.066   3.358 -0.0864  3.3232  0.3786
   61MOL0     H 8215   5.371   3.035   2.677  0.0622 -1.4299 -2.9235
   61MOL0     H 8216   5.253   3.187   2.537 -0.1574 -0.0613  0.5413
   61MOL0     H 8217   5.150   3.795   2.497  0.4668  1.3233 -1.8354
   61MOL0     H 8218   5.013   3.900   2.312 -0.3136  0.3812 -0.2728
   61MOL0     H 8219   3.378   4.071   1.446  0.8824  0.7153  0.7502
   61MOL0     H 8220   3.254   3.946   1.272 -1.9604  0.9313 -0.5537
   61MOL0     H 8221   3.044   3.680   1.123  0.2243 -0.4557 -1.2995
   61MOL0     H 8222   3.002   3.630   0.887  1.1384  1.8617 -0.0996
   61MOL0     H 8223   2.741   3.903   0.651 -0.0393  0.1936 -3.3951
   61MOL0     H 8224   2.627   3.799   0.715 -0.8731 -0.4306 -1.0528
   61MOL0     H 8225   2.618   3.784   0.469  0.0680  3.1746  1.5531
   61MOL0     H 8226   2.688   3.640   0.515 -1.0233  0.4956  2.9756
   61MOL0     H 8227   2.781   3.773   0.323 -2.6924 -1.2349  1.6201
   61MOL0     H 8228   2.911   3.708   0.426  2.5074  3.2696 -4.5145
   61MOL0     H 8229   2.843   4.000   0.467  0.2908  0.0088  3.0106
   61MOL0     H 8230   2.958   3.901   0.553 -1.4133  2.7717  1.1784
   61MOL0     H 8231   3.197   3.938   0.216  2.2570 -2.8263  1.1077
   61MOL0     H 8232   2.716   3.948   0.884 -0.4548  0.2618  1.9489
   61MOL0     H 8233   2.675   3.995   1.201  2.1938  1.2924  1.8748
   61MOL0     H 8234   2.801   4.113   1.155  1.8829 -1.2253 -1.2399
   61MOL0     H 8235   2.666   4.071   1.044 -0.4378 -4.6494 -2.2475
   62MOL0     O 8236   9.877   5.598   3.106 -0.1502  0.0210  0.7772
   62MOL0     C 8237   9.986   5.629   3.161  0.2400  0.3909  0.8727
   62MOL0     O 8238  10.051   5.566   3.266 -0.2665  0.1018 -0.7465
   62MOL0     C 8239   9.973   5.506   3.364  0.3987 -0.9548 -0.4904
   62MOL0     C 8240  10.034   5.408   3.448  0.2555  0.5355 -0.5311
   62MOL0     C 8241   9.954   5.345   3.551  0.4031  0.4026  1.2102
   62MOL0     C 8242   9.819   5.373   3.572  1.1653 -0.7709 -0.3420
   62MOL0     O 8243   9.727   5.305   3.642 -0.6724  0.5627 -0.8318
   62MOL0     C 8244   9.783   5.220   3.749  0.2027  0.2519 -0.6262
   62MOL0     C 8245   9.863   5.300   3.858  0.0864  0.3674  0.0918
   62MOL0     C 8246   9.769   5.374   3.960 -0.1171  0.8635  0.2621
   62MOL0     C 8247   9.846   5.455   4.070  0.0581  0.5949  0.1213
   62MOL0     C 8248   9.823   5.601   4.056 -0.1168 -0.5006  0.1425
   62MOL0     C 8249   9.675   5.639   4.092 -0.3064 -0.6152  0.4194
   62MOL0     C 8250   9.657   5.787   4.070 -0.0412  0.6127 -0.2708
   62MOL0     C 8251   9.510   5.831   4.089 -0.0732  0.7111 -0.2064
   62MOL0     N 8252   9.453   5.789   4.208 -0.1634  0.0560  0.5107
   62MOL0     C 8253   9.352   5.704   4.219 -0.6635  0.5122 -1.0345
   62MOL0     C 8254   9.328   5.692   4.354 -0.1225 -0.8050 -0.1052
   62MOL0     C 8255   9.237   5.598   4.422 -0.7740  0.4579  0.8800
   62MOL0     C 8256   9.241   5.461   4.356 -1.3154 -0.4815  0.3278
   62MOL0     C 8257   9.382   5.397   4.347 -0.3803  0.3650 -1.2645
   62MOL0     C 8258   9.372   5.247   4.297  0.1669 -0.5110  0.0023
   62MOL0     O 8259   9.368   5.180   4.426 -0.2134 -0.2402  0.0268
   62MOL0     C 8260   9.484   5.122   4.474  0.6866  0.0462  0.3536
   62MOL0     C 8261   9.483   5.044   4.587  0.0369 -0.0822 -0.2333
   62MOL0     C 8262   9.591   4.999   4.654 -0.4428  0.1639  0.1477
   62MOL0     C 8263   9.718   5.011   4.606 -0.2139 -0.4131  1.0046
   62MOL0     C 8264   9.829   4.949   4.680 -0.6695 -0.5373  0.3388
   62MOL0     O 8265   9.814   4.906   4.816  0.5771  0.0673  0.4371
   62MOL0     C 8266   9.914   4.868   4.896 -0.0997  0.7848 -0.8971
   62MOL0     C 8267  10.049   4.904   4.890 -0.8748 -0.2419  0.2845
   62MOL0     C 8268  10.144   4.855   4.982  0.0582 -0.3762 -0.1666
   62MOL0     C 8269  10.101   4.767   5.083  0.0761 -0.4193 -1.2113
   62MOL0     O 8270  10.201   4.719   5.175 -0.3808 -0.3527 -0.2991
   62MOL0     C 8271  10.158   4.655   5.295  0.7705  1.1729  0.3907
   62MOL0     C 8272  10.260   4.659   5.397 -0.4765 -0.3664 -0.5139
   62MOL0     C 8273  10.401   4.627   5.348  0.7567 -0.6501 -0.2840
   62MOL0     C 8274  10.478   4.534   5.440  0.8415  0.5554  1.0044
   62MOL0     C 8275  10.631   4.515   5.413 -0.0163 -0.8362  0.6440
   62MOL0     C 8276  10.696   4.390   5.483 -0.6446  0.6090 -0.5558
   62MOL0     C 8277  10.847   4.388   5.444 -0.8773  0.0222  0.4405
   62MOL0     C 8278  10.894   4.238   5.461  0.6095 -0.6259  0.0176
   62MOL0    Cl 8279  10.887   4.181   5.637  0.3763 -0.1314  0.2741
   62MOL0     C 8280   9.965   4.736   5.094  0.3486 -0.1246  1.4177
   62MOL0     C 8281   9.875   4.783   4.999 -0.9426  0.3861  0.3698
   62MOL0     O 8282   9.929   4.937   4.615 -0.0424 -0.0154 -0.1843
   62MOL0     C 8283   9.732   5.077   4.487 -0.5796 -0.4834 -0.9517
   62MOL0     C 8284   9.614   5.134   4.416 -0.4991  0.3795 -0.3391
   62MOL0     N 8285   9.409   5.785   4.418  0.5867 -0.8997 -0.0144
   62MOL0     N 8286   9.477   5.850   4.327 -0.7774 -0.3649 -0.2071
   62MOL0     C 8287   9.766   5.478   3.491  0.2294  0.6901  0.2938
   62MOL0     C 8288   9.838   5.535   3.389 -1.1290 -0.2296  0.9686
   62MOL0     C 8289  10.066   5.740   3.101 -0.3588  0.5483 -0.6060
   62MOL0     C 8290  10.162   5.804   3.186 -0.4248 -0.5042 -0.2428
   62MOL0     C 8291  10.224   5.921   3.142 -0.4154  1.0102  0.5203
   62MOL0     C 8292  10.206   5.970   3.018  0.0484 -0.4371 -0.5959
   62MOL0     O 8293  10.278   6.086   2.989 -0.8025  0.6520 -1.2716
   62MOL0     C 8294  10.234   6.187   2.900 -0.3010 -0.6140  0.6321
   62MOL0     C 8295  10.121   6.277   2.951  0.5210  0.3460  0.4257
   62MOL0     C 8296  10.101   6.396   2.842  0.5933 -0.3015  0.0687
   62MOL0     C 8297  10.206   6.512   2.854  0.1363 -1.0793  0.1406
   62MOL0     C 8298  10.179   6.583   2.982 -1.3406 -0.2807  0.0102
   62MOL0     C 8299  10.139   6.620   3.089 -0.9352 -1.3383  0.9390
   62MOL0     C 8300  10.131   5.900   2.930  0.1249  0.8377 -0.0951
   62MOL0     C 8301  10.067   5.786   2.964  0.8931  0.3641  0.7112
   62MOL0     C 8302  10.005   5.702   2.849  0.5309  0.1797 -0.4596
   62MOL0     H 8303  10.138   5.378   3.439  0.0042 -0.5351  0.0128
   62MOL0     H 8304   9.998   5.252   3.585 -0.0816 -0.9569 -1.5621
   62MOL0     H 8305   9.696   5.182   3.802  0.7048  1.8847  1.5289
   62MOL0     H 8306   9.836   5.135   3.706  1.3650 -0.2938  1.7030
   62MOL0     H 8307   9.923   5.381   3.814  2.2958 -2.0005 -1.6104
   62MOL0     H 8308   9.935   5.237   3.912 -1.6887  0.7578  3.1311
   62MOL0     H 8309   9.694   5.311   4.009 -2.1398  1.9564 -1.2705
   62MOL0     H 8310   9.708   5.440   3.898  0.5292 -1.6036 -3.2598
   62MOL0     H 8311   9.821   5.416   4.170  3.8279  1.9741  1.7958
   62MOL0     H 8312   9.954   5.440   4.058 -0.1749 -0.3323 -1.0497
   62MOL0     H 8313   9.884   5.642   4.136  2.6147 -0.7862 -1.6481
   62MOL0     H 8314   9.850   5.640   3.957  1.3169  0.7084  0.9713
   62MOL0     H 8315   9.610   5.581   4.025  1.0568  1.3478 -2.8285
   62MOL0     H 8316   9.659   5.606   4.195  5.4579 -3.9217  0.6762
   62MOL0     H 8317   9.705   5.806   3.974  2.8661  0.1768  0.9837
   62MOL0     H 8318   9.715   5.838   4.148  3.0201 -3.1123  0.1648
   62MOL0     H 8319   9.507   5.940   4.095  2.4100  1.0058 -2.3593
   62MOL0     H 8320   9.448   5.791   4.009  1.6132  1.6531 -2.0982
   62MOL0     H 8321   9.310   5.648   4.136 -0.9669 -0.2369 -0.3907
   62MOL0     H 8322   9.263   5.577   4.526 -2.1469 -2.3619  0.7534
   62MOL0     H 8323   9.133   5.628   4.404 -0.8033  0.7754  1.5603
   62MOL0     H 8324   9.170   5.405   4.418 -0.2367 -0.8938  1.2376
   62MOL0     H 8325   9.204   5.480   4.255  1.4842  1.9632 -0.3730
   62MOL0     H 8326   9.429   5.400   4.446  2.7147 -0.6732 -2.5523
   62MOL0     H 8327   9.458   5.451   4.289 -1.7385  2.5167 -1.1317
   62MOL0     H 8328   9.461   5.214   4.242  1.4304 -1.2247  2.3162
   62MOL0     H 8329   9.293   5.227   4.224  0.0963  2.1810 -0.7537
   62MOL0     H 8330   9.393   5.023   4.645  2.1463 -0.8789  3.0625
   62MOL0     H 8331   9.569   4.952   4.749 -1.4674  3.3147  1.6382
   62MOL0     H 8332  10.080   4.985   4.825 -1.0179  0.6002  1.2414
   62MOL0     H 8333  10.251   4.874   4.971  0.4542 -1.1436  1.8472
   62MOL0     H 8334  10.069   4.708   5.331  1.5278  1.3525  2.0709
   62MOL0     H 8335  10.122   4.553   5.277 -1.2207  1.9015 -0.0294
   62MOL0     H 8336  10.252   4.759   5.440 -1.0411  0.0924 -1.6219
   62MOL0     H 8337  10.243   4.592   5.481 -0.3775  0.4466  0.1653
   62MOL0     H 8338  10.395   4.587   5.246  0.4341  0.6802 -0.8195
   62MOL0     H 8339  10.450   4.725   5.337 -0.6127  0.3603  1.8763
   62MOL0     H 8340  10.434   4.434   5.436 -0.7908  1.2616 -2.8845
   62MOL0     H 8341  10.460   4.567   5.543  2.0810  0.5246  1.2441
   62MOL0     H 8342  10.681   4.606   5.448  0.8260 -1.1867  0.3778
   62MOL0     H 8343  10.652   4.519   5.305  2.2192 -1.9890  0.9701
   62MOL0     H 8344  10.689   4.403   5.591 -0.2501 -0.1771 -0.4209
   62MOL0     H 8345  10.641   4.300   5.454 -0.4316  0.0021  0.8331
   62MOL0     H 8346  10.902   4.462   5.503  1.4784 -0.0576 -1.5141
   62MOL0     H 8347  10.859   4.411   5.338 -1.0379 -0.6195  0.2778
   62MOL0     H 8348  10.823   4.179   5.402 -0.1230 -2.2393  2.3429
   62MOL0     H 8349  10.994   4.225   5.418  0.2286 -0.5067 -0.9223
   62MOL0     H 8350   9.926   4.688   5.183  1.7843 -1.2983  1.4549
   62MOL0     H 8351   9.773   4.747   5.002 -0.6852 -0.3028  1.7768
   62MOL0     H 8352   9.837   5.091   4.463 -0.3332 -2.3119 -1.0834
   62MOL0     H 8353   9.640   5.199   4.333 -0.0527 -1.2193 -1.5054
   62MOL0     H 8354   9.662   5.509   3.485  0.0772 -0.0888 -2.4416
   62MOL0     H 8355   9.788   5.604   3.322  1.4289  0.1914 -0.6504
   62MOL0     H 8356  10.183   5.776   3.289  1.2306 -1.9710 -0.9284
   62MOL0     H 8357  10.270   5.989   3.213 -3.0250  4.9553 -1.2133
   62MOL0     H 8358  10.204   6.140   2.806  1.2390 -2.8843  1.1771
   62MOL0     H 8359  10.314   6.260   2.880  0.2930 -1.1386  1.0318
   62MOL0     H 8360  10.130   6.319   3.051  3.2047  2.3463 -0.5366
   62MOL0     H 8361  10.031   6.216   2.955 -0.5446  1.4933 -2.9469
   62MOL0     H 8362  10.004   6.444   2.856  1.5757  2.6895 -2.2858
   62MOL0     H 8363  10.099   6.351   2.742 -0.8092  0.7064 -0.3780
   62MOL0     H 8364  10.305   6.467   2.853 -0.4877 -2.6266  2.0509
   62MOL0     H 8365  10.198   6.585   2.773 -2.4922  0.0800  1.3244
   62MOL0     H 8366  10.085   6.655   3.174 -1.1234 -4.0454  2.0101
   62MOL0     H 8367  10.115   5.934   2.829 -1.7874 -1.6203 -0.7298
   62MOL0     H 8368   9.918   5.763   2.821  0.2305  1.3950  2.7191
   62MOL0     H 8369  10.064   5.708   2.757 -1.0195  4.7058 -1.4623
   62MOL0     H 8370   9.976   5.601   2.879  1.0933  0.3765  0.7651
   63MOL0     O 8371   0.029  10.547  11.051  0.7422  0.5805 -0.2531
   63MOL0     C 8372   0.129  10.630  11.068  0.2599  0.6057 -0.7338
   63MOL0     O 8373   0.144  10.763  11.013  0.4081  0.7206  0.5909
   63MOL0     C 8374   0.051  10.803  10.915 -0.0973  0.3511 -0.1593
   63MOL0     C 8375   0.101  10.853  10.799  0.2829  0.1430  0.3906
   63MOL0     C 8376   0.016  10.890  10.695  0.4530 -0.5837  0.4217
   63MOL0     C 8377  -0.124  10.873  10.705  0.0483  0.5726  0.2760
   63MOL0     O 8378  -0.200  10.900  10.597  0.1328  0.4336  0.5781
   63MOL0     C 8379  -0.158  11.024  10.527 -0.0480  0.5105 -0.2182
   63MOL0     C 8380  -0.271  11.076  10.440  0.1863 -0.1183  1.0697
   63MOL0     C 8381  -0.376  11.154  10.521 -0.4407  1.0368  0.3467
   63MOL0     C 8382  -0.459  11.232  10.425  0.4493 -0.3870  1.2338
   63MOL0     C 8383  -0.602  11.190  10.430  0.5137  0.3084  0.0451
   63MOL0     C 8384  -0.696  11.276  10.337  0.0692 -0.0861  0.6873
   63MOL0     C 8385  -0.694  11.431  10.365  0.6091  0.1781  0.6936
   63MOL0     C 8386  -0.751  11.478  10.499 -0.9268  0.8272 -0.0250
   63MOL0     N 8387  -0.691  11.431  10.631 -0.9993  1.0269 -0.0032
   63MOL0     C 8388  -0.764  11.369  10.736 -0.1520 -0.1399 -0.7436
   63MOL0     C 8389  -0.669  11.338  10.828  0.0887  0.0695 -0.1593
   63MOL0     C 8390  -0.685  11.285  10.974  0.4631 -0.3854  0.1121
   63MOL0     C 8391  -0.818  11.204  10.992  0.3080  0.8699 -0.4425
   63MOL0     C 8392  -0.818  11.147  11.138  0.1191 -0.1913  0.2561
   63MOL0     C 8393  -0.909  11.234  11.228 -1.1559 -0.4279  0.0528
   63MOL0     O 8394  -1.047  11.232  11.195  0.2945 -0.1577 -0.2511
   63MOL0     C 8395  -1.120  11.120  11.226 -0.3507 -0.4626 -0.5171
   63MOL0     C 8396  -1.126  11.075  11.359  0.0365  0.3359 -0.4689
   63MOL0     C 8397  -1.208  10.964  11.392  0.6734  0.6890 -0.1393
   63MOL0     C 8398  -1.296  10.897  11.296 -0.6829  0.4434 -0.0309
   63MOL0     C 8399  -1.396  10.793  11.335  0.6300 -0.6659 -0.1811
   63MOL0     O 8400  -1.389  10.745  11.466 -0.1879  0.5222 -0.0061
   63MOL0     C 8401  -1.481  10.649  11.506 -0.3546  0.2392 -0.2484
   63MOL0     C 8402  -1.436  10.562  11.605  0.1162  0.1833  0.6346
   63MOL0     C 8403  -1.512  10.457  11.656  0.1876 -0.0345  0.1621
   63MOL0     C 8404  -1.648  10.447  11.609  0.3357  0.2717 -0.1984
   63MOL0     O 8405  -1.730  10.362  11.668  0.5245  0.1172 -0.6998
   63MOL0     C 8406  -1.859  10.403  11.721 -0.3806 -0.2363 -0.1880
   63MOL0     C 8407  -1.937  10.275  11.758 -0.6077  0.2909  0.8183
   63MOL0     C 8408  -2.044  10.285  11.855  0.9322  0.3190  1.0753
   63MOL0     C 8409  -2.152  10.174  11.845 -0.5366 -0.0493  0.5756
   63MOL0     C 8410  -2.266  10.211  11.937 -0.6667  0.3313  0.1153
   63MOL0     C 8411  -2.243  10.140  12.071 -0.1045  0.2411  0.3762
   63MOL0     C 8412  -2.368  10.168  12.158  0.3960 -0.1287  0.2707
   63MOL0     C 8413  -2.415  10.052  12.232 -0.0947  0.0849  0.0244
   63MOL0    Cl 8414  -2.538  10.099  12.362  0.4114  0.5045  0.3407
   63MOL0     C 8415  -1.689  10.536  11.510  0.3426 -0.7245 -0.1974
   63MOL0     C 8416  -1.606  10.636  11.456 -0.2234 -0.5781 -0.3860
   63MOL0     O 8417  -1.473  10.759  11.244  0.0432  0.3065  0.9344
   63MOL0     C 8418  -1.297  10.955  11.174  0.1494 -1.0074 -0.9071
   63MOL0     C 8419  -1.209  11.067  11.135 -0.3423 -0.3532 -0.6407
   63MOL0     N 8420  -0.543  11.359  10.772  0.2812  0.0385  0.6708
   63MOL0     N 8421  -0.558  11.420  10.658  0.6582 -0.6705  0.2773
   63MOL0     C 8422  -0.173  10.825  10.827  0.6208 -0.5434 -0.4780
   63MOL0     C 8423  -0.085  10.804  10.932  0.2482  0.3337  0.1117
   63MOL0     C 8424   0.243  10.573  11.146  0.6565  0.5282  0.1709
   63MOL0     C 8425   0.372  10.605  11.107 -0.7263  0.0579  0.2047
   63MOL0     C 8426   0.487  10.549  11.174 -0.3022 -1.6317 -0.0273
   63MOL0     C 8427   0.469  10.494  11.296  0.4370  0.9501 -0.9720
   63MOL0     O 8428   0.589  10.457  11.353 -0.1962  0.0836  0.0276
   63MOL0     C 8429   0.619  10.321  11.381  0.3529  0.3797  0.8146
   63MOL0     C 8430   0.660  10.261  11.248 -0.2974 -0.4039  1.0002
   63MOL0     C 8431   0.785  10.321  11.186  0.7423 -0.3953 -0.4575
   63MOL0     C 8432   0.911  10.356  11.274  0.3821 -0.2388  0.2235
   63MOL0     C 8433   0.941  10.262  11.380  0.0174  0.1610 -0.3612
   63MOL0     C 8434   0.990  10.204  11.473 -0.4354  0.4734  0.4333
   63MOL0     C 8435   0.343  10.468  11.346 -0.7735 -0.0257  0.4686
   63MOL0     C 8436   0.230  10.513  11.280  0.1226 -0.2636 -0.0620
   63MOL0     C 8437   0.101  10.511  11.359 -1.4158 -0.4491 -0.7132
   63MOL0     H 8438   0.208  10.872  10.794  0.4603 -0.9723 -1.1711
   63MOL0     H 8439   0.070  10.923  10.606 -0.0639 -0.8756 -0.0073
   63MOL0     H 8440  -0.132  11.098  10.602  0.7393 -1.1684  1.2372
   63MOL0     H 8441  -0.073  11.003  10.461 -0.4751  0.0141 -0.6206
   63MOL0     H 8442  -0.303  10.989  10.382 -1.3542  1.9441 -1.3883
   63MOL0     H 8443  -0.246  11.156  10.369 -4.0807  2.7802  2.4357
   63MOL0     H 8444  -0.324  11.230  10.579  4.0931  1.3120 -3.4579
   63MOL0     H 8445  -0.436  11.090  10.586 -2.9030  1.0850 -1.7465
   63MOL0     H 8446  -0.443  11.340  10.437  0.4979 -0.1155 -0.8364
   63MOL0     H 8447  -0.424  11.210  10.324  2.3484  3.2855  0.8963
   63MOL0     H 8448  -0.593  11.084  10.403  0.0159 -0.1401  1.5276
   63MOL0     H 8449  -0.647  11.183  10.530 -0.2143 -0.7531 -0.3373
   63MOL0     H 8450  -0.663  11.257  10.234 -0.9518  6.3094 -1.2923
   63MOL0     H 8451  -0.799  11.240  10.338 -0.3374  0.9032 -0.9785
   63MOL0     H 8452  -0.752  11.478  10.284  1.3279  0.7865  0.5242
   63MOL0     H 8453  -0.599  11.483  10.358  0.5097  0.2554 -0.2615
   63MOL0     H 8454  -0.756  11.587  10.491 -0.4176  0.7518 -2.4013
   63MOL0     H 8455  -0.857  11.455  10.505 -0.9746  1.1465  0.3839
   63MOL0     H 8456  -0.870  11.352  10.754 -0.0567  0.3747  0.4110
   63MOL0     H 8457  -0.602  11.215  10.986 -1.7320 -2.8148  3.0709
   63MOL0     H 8458  -0.672  11.369  11.042 -1.2749  0.5185 -0.5907
   63MOL0     H 8459  -0.896  11.268  10.950  2.0042  2.2844 -1.6262
   63MOL0     H 8460  -0.831  11.117  10.928  2.0534 -0.1634  0.5229
   63MOL0     H 8461  -0.720  11.144  11.186  0.6664  0.0338 -0.8221
   63MOL0     H 8462  -0.863  11.047  11.137 -1.4417  0.3748  2.7672
   63MOL0     H 8463  -0.876  11.337  11.212  0.5026 -0.8286  0.6580
   63MOL0     H 8464  -0.893  11.211  11.334  1.6792 -1.1327 -0.4300
   63MOL0     H 8465  -1.080  11.118  11.447 -1.1353 -1.4222  1.0741
   63MOL0     H 8466  -1.188  10.926  11.491  0.5084  0.0154 -0.3610
   63MOL0     H 8467  -1.337  10.580  11.647  0.9010  1.9613 -1.7356
   63MOL0     H 8468  -1.464  10.392  11.728  2.5198  1.1588 -0.2226
   63MOL0     H 8469  -1.854  10.480  11.799 -3.4936  0.4075 -0.4604
   63MOL0     H 8470  -1.920  10.439  11.638 -0.5436 -2.0002 -0.8703
   63MOL0     H 8471  -1.977  10.239  11.663  0.5142  0.9089  0.0793
   63MOL0     H 8472  -1.863  10.200  11.788  1.2733  0.2366 -3.2794
   63MOL0     H 8473  -2.000  10.282  11.955  1.1752 -0.8123  0.9443
   63MOL0     H 8474  -2.098  10.380  11.842  0.7702  0.2491  1.2296
   63MOL0     H 8475  -2.111  10.077  11.875  1.9173  1.9515  4.4008
   63MOL0     H 8476  -2.193  10.174  11.743  0.0722 -0.8612  0.3244
   63MOL0     H 8477  -2.360  10.176  11.894 -0.1636 -0.8518 -0.0570
   63MOL0     H 8478  -2.264  10.318  11.959 -1.6214  0.2182  0.7905
   63MOL0     H 8479  -2.229  10.033  12.058 -2.0032 -0.0248  0.2206
   63MOL0     H 8480  -2.150  10.169  12.120 -0.9481  3.7253  0.2537
   63MOL0     H 8481  -2.446  10.201  12.089  2.0058 -0.5668 -1.8658
   63MOL0     H 8482  -2.359  10.250  12.229 -1.2124 -0.6515  1.1219
   63MOL0     H 8483  -2.468   9.991  12.159  1.3784 -0.1610 -0.8762
   63MOL0     H 8484  -2.330   9.996  12.275  1.5542  3.4961  1.6344
   63MOL0     H 8485  -1.787  10.518  11.465  1.6819  0.7824 -4.1605
   63MOL0     H 8486  -1.646  10.684  11.368 -2.3627 -3.2856 -1.0338
   63MOL0     H 8487  -1.368  10.914  11.102  2.7722 -3.9803 -2.0603
   63MOL0     H 8488  -1.212  11.109  11.035 -1.7381  2.5600  0.4931
   63MOL0     H 8489  -0.280  10.814  10.836  0.8001 -0.8240  1.7243
   63MOL0     H 8490  -0.137  10.780  11.024  0.1053  1.5835  0.3733
   63MOL0     H 8491   0.381  10.672  11.022 -2.1263  3.0537  2.2096
   63MOL0     H 8492   0.583  10.571  11.128 -0.7660 -1.3237 -0.8694
   63MOL0     H 8493   0.526  10.269  11.408 -0.6790  2.8870  2.4628
   63MOL0     H 8494   0.695  10.301  11.456  1.2074  0.3018 -0.0519
   63MOL0     H 8495   0.571  10.256  11.185  0.6672  0.7428 -0.5284
   63MOL0     H 8496   0.695  10.159  11.269 -2.2779 -0.7794  2.8275
   63MOL0     H 8497   0.753  10.409  11.130  3.8489  0.1345 -1.6357
   63MOL0     H 8498   0.825  10.254  11.109 -1.2851  0.0801 -2.0145
   63MOL0     H 8499   0.997  10.368  11.208  0.1722 -0.0405 -0.0181
   63MOL0     H 8500   0.889  10.447  11.331 -0.6552  0.6154 -1.4693
   63MOL0     H 8501   1.035  10.162  11.561 -1.1777 -0.2897  0.4637
   63MOL0     H 8502   0.330  10.415  11.439 -4.5799  0.4175  0.3714
   63MOL0     H 8503   0.091  10.616  11.389  1.0569  0.4339 -2.6578
   63MOL0     H 8504   0.009  10.488  11.304 -2.8076  0.5780  1.0667
   63MOL0     H 8505   0.117  10.442  11.442  3.1109  0.7472 -0.3336
   64MOL0     O 8506   9.162   1.216   0.977 -0.2419  0.7138 -0.6200
   64MOL0     C 8507   9.240   1.120   0.985 -0.4576  0.1124  0.1822
   64MOL0     O 8508   9.202   0.998   1.031 -0.3676 -0.6243 -0.3843
   64MOL0     C 8509   9.094   0.985   1.114 -0.0771  0.2839 -0.5317
   64MOL0     C 8510   9.015   0.867   1.112  0.6816 -0.3962 -0.4855
   64MOL0     C 8511   8.910   0.851   1.199  0.3456  1.1963 -0.2011
   64MOL0     C 8512   8.867   0.955   1.274 -0.2678 -0.5143  0.1706
   64MOL0     O 8513   8.773   0.933   1.376  0.2595 -0.3757  0.0747
   64MOL0     C 8514   8.661   0.849   1.361  0.3686 -0.4733  0.5433
   64MOL0     C 8515   8.531   0.931   1.390 -0.4046 -0.2706 -0.5472
   64MOL0     C 8516   8.522   1.036   1.283  0.4124 -0.4437 -0.6695
   64MOL0     C 8517   8.399   1.125   1.323  0.4142  0.8992  0.0220
   64MOL0     C 8518   8.389   1.251   1.229  0.1201  0.0826 -0.1117
   64MOL0     C 8519   8.248   1.312   1.244 -0.0013  0.2991  0.1906
   64MOL0     C 8520   8.231   1.449   1.166  0.1693  0.3343 -0.4166
   64MOL0     C 8521   8.076   1.479   1.156  0.0721 -0.3125  0.5172
   64MOL0     N 8522   8.050   1.607   1.087 -0.3624  0.2148 -0.4923
   64MOL0     C 8523   7.996   1.717   1.148  0.1001  0.2547 -0.7020
   64MOL0     C 8524   8.028   1.829   1.084 -1.4977  0.5246  0.7839
   64MOL0     C 8525   7.971   1.961   1.117 -0.5950  0.0095 -0.8985
   64MOL0     C 8526   7.835   1.970   1.059  0.1548 -0.3679 -0.3681
   64MOL0     C 8527   7.751   2.087   1.114 -0.0649 -0.5426 -0.6903
   64MOL0     C 8528   7.597   2.094   1.061  0.0584 -0.0214 -1.0349
   64MOL0     O 8529   7.577   2.011   0.944 -0.1494 -0.4472  0.4904
   64MOL0     C 8530   7.599   2.063   0.819 -0.3970 -0.0147  1.0233
   64MOL0     C 8531   7.606   1.974   0.705 -1.0642  0.3337 -1.0118
   64MOL0     C 8532   7.626   2.009   0.577 -0.3748  0.3558 -0.7151
   64MOL0     C 8533   7.670   2.146   0.556  0.4897  1.4034  0.1309
   64MOL0     C 8534   7.749   2.168   0.437  1.2035 -0.1032  0.0747
   64MOL0     O 8535   7.698   2.113   0.324  0.0674  0.6518  0.6204
   64MOL0     C 8536   7.766   2.118   0.206  0.4721 -0.1250 -0.5570
   64MOL0     C 8537   7.901   2.077   0.177 -0.3708  0.0895  0.2142
   64MOL0     C 8538   7.942   2.061   0.054  0.3605  0.3005 -0.3069
   64MOL0     C 8539   7.865   2.097  -0.054  0.9092  0.6258  0.5010
   64MOL0     O 8540   7.923   2.088  -0.171 -0.3765  0.6612  0.6747
   64MOL0     C 8541   7.838   2.047  -0.288  0.5542  0.4638  0.8779
   64MOL0     C 8542   7.926   2.006  -0.411  0.0582  0.1882 -0.0037
   64MOL0     C 8543   7.987   2.136  -0.487  0.6569 -0.3203  0.6185
   64MOL0     C 8544   8.099   2.092  -0.584 -0.4621 -0.1861 -0.6019
   64MOL0     C 8545   8.032   2.038  -0.713 -0.5306  0.4065 -0.1754
   64MOL0     C 8546   8.022   2.147  -0.815  0.1483 -0.2250 -0.3669
   64MOL0     C 8547   7.934   2.102  -0.935  0.4567  0.0995 -0.6207
   64MOL0     C 8548   7.923   2.217  -1.049  0.4110 -0.6330  0.2885
   64MOL0    Cl 8549   7.794   2.191  -1.175 -0.1147  0.0718 -0.6651
   64MOL0     C 8550   7.735   2.150  -0.031  0.4358 -0.2484 -1.1338
   64MOL0     C 8551   7.685   2.153   0.100 -0.4846  0.7280 -0.2566
   64MOL0     O 8552   7.850   2.234   0.451 -0.0738 -0.8926  0.0815
   64MOL0     C 8553   7.672   2.242   0.664  0.5536  0.5361  1.0452
   64MOL0     C 8554   7.636   2.202   0.791 -0.3489  1.2579 -0.7782
   64MOL0     N 8555   8.111   1.784   0.984  0.5497  0.1351 -0.0288
   64MOL0     N 8556   8.110   1.664   0.977  0.2774 -0.2156  0.1523
   64MOL0     C 8557   8.928   1.076   1.265 -0.5889 -0.7982  0.0010
   64MOL0     C 8558   9.045   1.086   1.194  0.7473 -0.0956 -0.6566
   64MOL0     C 8559   9.384   1.136   0.934  0.4815  0.5828  0.0555
   64MOL0     C 8560   9.432   1.271   0.917  0.1967  0.0572 -0.0678
   64MOL0     C 8561   9.571   1.290   0.903  0.2350 -0.2059  0.9089
   64MOL0     C 8562   9.655   1.184   0.919 -0.4691 -0.4500  0.3117
   64MOL0     O 8563   9.787   1.204   0.932  0.0429 -0.4470  0.2992
   64MOL0     C 8564   9.843   1.308   0.845 -0.2478 -0.2929  0.4412
   64MOL0     C 8565   9.991   1.285   0.829  0.7558 -0.3924  0.7618
   64MOL0     C 8566  10.084   1.303   0.951 -1.3884 -1.5453  0.4216
   64MOL0     C 8567  10.194   1.408   0.926 -0.1278 -1.0873 -0.4535
   64MOL0     C 8568  10.281   1.408   1.041 -0.0488 -0.7780 -0.6089
   64MOL0     C 8569  10.333   1.405   1.148 -0.3320 -0.6243  0.7122
   64MOL0     C 8570   9.603   1.060   0.916  0.2568  0.0385 -0.0104
   64MOL0     C 8571   9.470   1.024   0.922 -0.2622 -0.5803  0.3603
   64MOL0     C 8572   9.439   0.874   0.942  0.0453  0.5647 -1.0070
   64MOL0     H 8573   9.033   0.787   1.040 -0.9281  0.2662 -1.6971
   64MOL0     H 8574   8.874   0.751   1.218 -2.0445  1.9479 -0.3983
   64MOL0     H 8575   8.651   0.800   1.263  1.8919 -3.0060  1.5506
   64MOL0     H 8576   8.670   0.770   1.437  0.8703  0.6486  1.6857
   64MOL0     H 8577   8.531   0.967   1.493  2.2813 -0.5301 -0.3880
   64MOL0     H 8578   8.455   0.854   1.374 -1.1897  0.5322 -0.8013
   64MOL0     H 8579   8.490   0.998   1.185 -0.1229 -0.9797 -0.2952
   64MOL0     H 8580   8.612   1.098   1.274  2.1585 -2.8421 -0.4995
   64MOL0     H 8581   8.313   1.060   1.306  1.1137  0.1038 -0.5450
   64MOL0     H 8582   8.387   1.163   1.425  2.2519  2.4231 -0.2779
   64MOL0     H 8583   8.474   1.318   1.247 -0.0477  0.3919 -0.4633
   64MOL0     H 8584   8.391   1.234   1.121  2.1054  1.9482 -0.4365
   64MOL0     H 8585   8.180   1.237   1.202  0.2576 -0.1596  0.5805
   64MOL0     H 8586   8.225   1.329   1.350  4.0274  3.7392  0.7965
   64MOL0     H 8587   8.274   1.440   1.066  0.6114  0.2379 -0.2171
   64MOL0     H 8588   8.294   1.526   1.212 -1.1059  1.0419  0.1920
   64MOL0     H 8589   8.030   1.398   1.099 -0.0091 -1.5039  2.1965
   64MOL0     H 8590   8.047   1.469   1.261  1.0046 -3.0506  0.5888
   64MOL0     H 8591   7.927   1.728   1.231  1.1912  3.3222 -0.0554
   64MOL0     H 8592   7.971   1.980   1.224  0.3720  3.4648 -1.3905
   64MOL0     H 8593   8.030   2.044   1.077 -1.5243  1.3840  0.5050
   64MOL0     H 8594   7.851   1.993   0.953 -1.1447 -3.1689 -1.2618
   64MOL0     H 8595   7.779   1.877   1.072  2.4120 -2.4116 -3.7425
   64MOL0     H 8596   7.808   2.179   1.103  0.7419 -0.7157  1.4746
   64MOL0     H 8597   7.756   2.080   1.223  1.0516  0.5022 -0.6568
   64MOL0     H 8598   7.580   2.202   1.048 -0.2350  0.9076  4.4893
   64MOL0     H 8599   7.533   2.062   1.144  2.3425  0.1130  0.9011
   64MOL0     H 8600   7.597   1.866   0.718  0.7387  0.3528  0.9541
   64MOL0     H 8601   7.638   1.927   0.507 -0.1325 -0.5284  0.3403
   64MOL0     H 8602   7.970   2.047   0.256 -1.5664 -2.0377  0.5454
   64MOL0     H 8603   8.042   2.024   0.038 -0.8039 -3.1570 -0.4307
   64MOL0     H 8604   7.785   1.956  -0.261 -0.1509  0.8885  0.9634
   64MOL0     H 8605   7.765   2.124  -0.314 -0.9951 -2.1314 -3.4837
   64MOL0     H 8606   8.013   1.959  -0.364 -0.8605 -0.2154  1.3361
   64MOL0     H 8607   7.872   1.942  -0.481 -0.4920  1.6997 -1.0114
   64MOL0     H 8608   7.912   2.201  -0.533  2.3058  1.9216  0.9341
   64MOL0     H 8609   8.051   2.196  -0.422  1.1360 -1.0127  0.8047
   64MOL0     H 8610   8.148   2.013  -0.526  0.5463  0.2715 -0.8027
   64MOL0     H 8611   8.173   2.170  -0.605  0.9759 -1.7633 -1.6948
   64MOL0     H 8612   7.930   2.001  -0.699 -0.3344 -0.7345 -1.5723
   64MOL0     H 8613   8.091   1.952  -0.745 -0.1093 -0.3367  2.4181
   64MOL0     H 8614   7.972   2.232  -0.768  1.3021  0.2045  0.1246
   64MOL0     H 8615   8.122   2.175  -0.849  0.0422  3.7851  2.0063
   64MOL0     H 8616   7.833   2.093  -0.896 -0.2381  1.6737 -1.9132
   64MOL0     H 8617   7.971   2.009  -0.979 -2.8393 -0.0573 -3.4190
   64MOL0     H 8618   7.900   2.305  -0.988  2.0473  1.9573 -2.5634
   64MOL0     H 8619   8.019   2.221  -1.100  0.9979  0.0527  1.4092
   64MOL0     H 8620   7.667   2.167  -0.114 -1.7200 -1.0293  0.3941
   64MOL0     H 8621   7.587   2.196   0.119 -0.5049 -0.1588  1.8767
   64MOL0     H 8622   7.699   2.345   0.642 -0.1097  0.1481 -1.9806
   64MOL0     H 8623   7.628   2.276   0.870  3.5943 -0.0652  1.1386
   64MOL0     H 8624   8.893   1.164   1.318 -1.1671  0.0536 -1.7227
   64MOL0     H 8625   9.076   1.190   1.193 -4.5347  1.8045 -1.0629
   64MOL0     H 8626   9.353   1.346   0.915  0.5231  0.3993 -0.7200
   64MOL0     H 8627   9.595   1.394   0.883  1.7182 -0.8109 -0.7438
   64MOL0     H 8628   9.831   1.408   0.888 -1.1509  0.9169 -2.3851
   64MOL0     H 8629   9.786   1.298   0.753  0.6005  1.0906 -0.2589
   64MOL0     H 8630  10.020   1.342   0.741 -1.3707  0.8479  0.7765
   64MOL0     H 8631   9.992   1.177   0.809 -0.9108  0.2668 -4.4008
   64MOL0     H 8632  10.126   1.206   0.979 -1.1862 -1.2208  1.2737
   64MOL0     H 8633  10.036   1.345   1.041  1.8781  2.1199  0.7202
   64MOL0     H 8634  10.259   1.369   0.847  0.2008 -1.5600  0.0389
   64MOL0     H 8635  10.162   1.512   0.917  0.7546 -0.6902  0.7727
   64MOL0     H 8636  10.381   1.395   1.244  1.5022 -3.2363 -0.3621
   64MOL0     H 8637   9.679   0.983   0.913 -0.4023 -0.5947 -1.8412
   64MOL0     H 8638   9.366   0.833   0.872 -1.5334  0.8544  0.4126
   64MOL0     H 8639   9.532   0.818   0.934 -0.9722 -1.4133  0.3361
   64MOL0     H 8640   9.400   0.859   1.043 -2.9322 -0.6418 -2.2181
   65MOL0     O 8641   2.184   6.555   2.091  0.2463 -0.7814 -0.4266
   65MOL0     C 8642   2.249   6.615   2.175 -1.0113 -0.0961  0.4182
   65MOL0     O 8643   2.381   6.592   2.206  1.1872 -0.0689 -0.0037
   65MOL0     C 8644   2.438   6.483   2.142 -0.2048 -0.1128  1.0590
   65MOL0     C 8645   2.456   6.360   2.195  0.2151 -0.8599  0.6070
   65MOL0     C 8646   2.507   6.252   2.127 -0.0975 -0.6352 -0.4295
   65MOL0     C 8647   2.542   6.266   1.994 -0.1982  0.3613 -1.0910
   65MOL0     O 8648   2.603   6.163   1.943 -0.7804 -0.2015  0.1658
   65MOL0     C 8649   2.508   6.087   1.865  0.1526  0.8727  0.2430
   65MOL0     C 8650   2.501   5.945   1.918  0.4610  0.4902  0.4392
   65MOL0     C 8651   2.642   5.886   1.898  0.5096 -0.2745 -0.0460
   65MOL0     C 8652   2.647   5.753   1.961  0.5786 -0.0599 -1.1371
   65MOL0     C 8653   2.779   5.673   1.950 -0.4739  1.1237  0.3479
   65MOL0     C 8654   2.781   5.534   2.009  0.6521 -0.0029 -0.3181
   65MOL0     C 8655   2.909   5.450   1.992 -0.7863 -0.2959 -0.4756
   65MOL0     C 8656   3.038   5.510   2.044  0.2831 -0.4459 -0.1896
   65MOL0     N 8657   3.124   5.402   2.090  0.1789 -0.3402  0.1129
   65MOL0     C 8658   3.125   5.338   2.208 -0.4729 -0.1060 -0.3445
   65MOL0     C 8659   3.239   5.266   2.208 -1.1620 -0.2817 -0.0107
   65MOL0     C 8660   3.301   5.167   2.312  0.3646 -0.9539  0.7317
   65MOL0     C 8661   3.196   5.057   2.340  1.1728 -0.3443  0.1986
   65MOL0     C 8662   3.169   4.972   2.216  0.3452  0.1691  0.1495
   65MOL0     C 8663   3.090   4.838   2.254  0.7679  0.3278 -0.3055
   65MOL0     O 8664   2.959   4.874   2.304  0.0487  0.2437 -0.5654
   65MOL0     C 8665   2.883   4.779   2.364  0.9197  0.0986 -0.5010
   65MOL0     C 8666   2.923   4.731   2.493 -0.3754 -0.8514 -1.4048
   65MOL0     C 8667   2.838   4.639   2.556  0.2619  0.0675 -0.3991
   65MOL0     C 8668   2.712   4.595   2.502  0.5893 -0.8179  0.8828
   65MOL0     C 8669   2.625   4.499   2.577 -0.3962 -0.7694 -0.6931
   65MOL0     O 8670   2.545   4.423   2.511  0.5822  0.2018 -0.2659
   65MOL0     C 8671   2.461   4.332   2.565 -0.4899  0.5859 -0.1578
   65MOL0     C 8672   2.498   4.237   2.658 -0.4838 -0.2461  1.8410
   65MOL0     C 8673   2.411   4.130   2.701 -0.2541  0.4834 -0.1319
   65MOL0     C 8674   2.284   4.122   2.651  0.2943  0.5806 -0.4361
   65MOL0     O 8675   2.206   4.015   2.689  0.1378  0.1670 -1.0966
   65MOL0     C 8676   2.218   3.892   2.613 -0.1460 -0.4070 -0.0823
   65MOL0     C 8677   2.165   3.770   2.680  0.5119 -0.3071 -0.2372
   65MOL0     C 8678   2.254   3.712   2.791  0.6284  0.0653  0.8715
   65MOL0     C 8679   2.194   3.582   2.838  0.2791  0.3556  0.1682
   65MOL0     C 8680   2.294   3.539   2.945  0.1757  0.0277 -0.7327
   65MOL0     C 8681   2.284   3.390   2.978 -0.0022  0.5706  0.1475
   65MOL0     C 8682   2.412   3.354   3.057  0.3999 -0.2468  0.2013
   65MOL0     C 8683   2.410   3.214   3.111  0.3407  1.1881  0.8884
   65MOL0    Cl 8684   2.379   3.086   2.985 -0.0625 -0.2213 -0.0563
   65MOL0     C 8685   2.245   4.210   2.561  0.0450  0.1726  0.8147
   65MOL0     C 8686   2.336   4.307   2.509  0.8135 -0.4646 -0.0855
   65MOL0     O 8687   2.643   4.499   2.701  0.0149  0.4664  0.0715
   65MOL0     C 8688   2.663   4.652   2.372  0.9065  0.2177 -0.1772
   65MOL0     C 8689   2.755   4.740   2.306 -0.1832 -0.0966 -1.1881
   65MOL0     N 8690   3.301   5.284   2.091  0.1715  0.1796 -0.6685
   65MOL0     N 8691   3.230   5.368   2.023 -0.6032 -1.4588 -0.1435
   65MOL0     C 8692   2.526   6.389   1.928  0.6259  0.0502 -0.8012
   65MOL0     C 8693   2.492   6.503   2.013  0.0721 -0.1457 -0.3460
   65MOL0     C 8694   2.199   6.731   2.238  0.0964  0.4381  0.2588
   65MOL0     C 8695   2.286   6.833   2.289 -0.4979  1.1232  0.1649
   65MOL0     C 8696   2.242   6.939   2.362 -0.7395  0.2995 -0.0156
   65MOL0     C 8697   2.104   6.951   2.385  0.4216  0.3035 -0.0304
   65MOL0     O 8698   2.061   7.065   2.452  0.4840  0.4104  0.4039
   65MOL0     C 8699   1.920   7.086   2.467 -1.0791  0.4273  0.4887
   65MOL0     C 8700   1.893   7.210   2.547 -0.6785  0.2805  0.1825
   65MOL0     C 8701   1.737   7.220   2.558 -0.2579 -0.1499  0.5796
   65MOL0     C 8702   1.698   7.302   2.681  1.3051  0.1928 -0.0678
   65MOL0     C 8703   1.744   7.439   2.669  0.7697 -0.0727 -0.0789
   65MOL0     C 8704   1.766   7.560   2.647  0.6961  0.3577 -0.0718
   65MOL0     C 8705   2.021   6.855   2.335 -0.7794  0.5843 -0.9977
   65MOL0     C 8706   2.064   6.738   2.276 -0.6549 -0.3383  0.4764
   65MOL0     C 8707   1.965   6.628   2.246 -1.0732 -0.7280 -0.1280
   65MOL0     H 8708   2.421   6.341   2.296  2.1963  2.1525  2.0214
   65MOL0     H 8709   2.522   6.160   2.183  3.5443  1.0609  1.7575
   65MOL0     H 8710   2.404   6.122   1.862 -0.8293 -1.8694  0.0138
   65MOL0     H 8711   2.548   6.082   1.763  1.3695  3.6976  0.4686
   65MOL0     H 8712   2.436   5.879   1.859  0.7366 -2.7291  3.3574
   65MOL0     H 8713   2.459   5.938   2.019 -1.7815 -0.2288 -0.4755
   65MOL0     H 8714   2.715   5.950   1.948  0.3362  2.0313 -2.5433
   65MOL0     H 8715   2.677   5.884   1.795 -2.3950  0.1235 -1.1465
   65MOL0     H 8716   2.621   5.778   2.064  2.7973  2.0597 -0.9976
   65MOL0     H 8717   2.571   5.687   1.920 -1.2042  2.5945 -2.4091
   65MOL0     H 8718   2.805   5.676   1.844  2.4279  0.5253  0.9697
   65MOL0     H 8719   2.852   5.740   1.996  0.9190  0.6780 -1.1253
   65MOL0     H 8720   2.756   5.539   2.116  1.0476  1.6006 -0.2657
   65MOL0     H 8721   2.700   5.480   1.959  1.5855 -1.2148 -0.5391
   65MOL0     H 8722   2.923   5.423   1.887 -0.4756 -2.2649  0.0187
   65MOL0     H 8723   2.879   5.354   2.037 -1.3196 -0.5638 -1.3747
   65MOL0     H 8724   3.083   5.578   1.971  1.8897 -0.5526  0.6526
   65MOL0     H 8725   3.012   5.573   2.129 -1.7116 -2.4186  0.7713
   65MOL0     H 8726   3.046   5.351   2.282  0.8117  2.0360  0.7717
   65MOL0     H 8727   3.391   5.122   2.270  0.2532 -0.0133 -0.5825
   65MOL0     H 8728   3.330   5.220   2.403 -0.5659 -1.3762  1.2946
   65MOL0     H 8729   3.230   4.988   2.418  0.3743 -1.0452 -0.0675
   65MOL0     H 8730   3.098   5.094   2.372 -0.5735 -1.1194 -3.7332
   65MOL0     H 8731   3.263   4.939   2.171  0.6176  0.6655  0.3393
   65MOL0     H 8732   3.111   5.032   2.146 -0.5400  2.8173  2.9472
   65MOL0     H 8733   3.141   4.767   2.319  2.2835 -0.2689 -2.0635
   65MOL0     H 8734   3.073   4.783   2.161 -2.4762  0.7743 -0.1190
   65MOL0     H 8735   3.023   4.750   2.530 -0.6142 -0.3266 -1.0312
   65MOL0     H 8736   2.864   4.581   2.644  1.8939 -0.8131 -1.3977
   65MOL0     H 8737   2.598   4.244   2.700  0.7217  0.3911 -0.9580
   65MOL0     H 8738   2.444   4.050   2.767  1.0418  1.4388  0.4111
   65MOL0     H 8739   2.173   3.906   2.514  1.4602 -1.6849 -1.0522
   65MOL0     H 8740   2.320   3.863   2.587  0.5210  2.1232 -0.4761
   65MOL0     H 8741   2.069   3.799   2.724 -0.4502 -1.7817 -1.2727
   65MOL0     H 8742   2.156   3.694   2.602  0.1434  1.3337 -1.8572
   65MOL0     H 8743   2.356   3.693   2.754  0.4843  3.9331 -2.3091
   65MOL0     H 8744   2.269   3.792   2.864 -0.7051 -0.8549  2.2054
   65MOL0     H 8745   2.198   3.514   2.753  1.1340  2.5170 -1.5941
   65MOL0     H 8746   2.094   3.590   2.883 -0.1930  2.9030 -1.1895
   65MOL0     H 8747   2.282   3.601   3.034  0.9964 -0.0733 -0.5437
   65MOL0     H 8748   2.399   3.544   2.914  0.3237  1.3444 -0.0933
   65MOL0     H 8749   2.188   3.376   3.029 -1.3323  1.2687 -2.0555
   65MOL0     H 8750   2.276   3.331   2.887 -1.4428 -1.0436  1.2532
   65MOL0     H 8751   2.433   3.424   3.139  2.0907 -0.5327  0.0466
   65MOL0     H 8752   2.501   3.361   2.994 -0.9677 -2.1471 -2.0737
   65MOL0     H 8753   2.503   3.184   3.160 -0.0143 -0.9733  0.3496
   65MOL0     H 8754   2.342   3.204   3.195 -0.3283 -1.1717  0.1540
   65MOL0     H 8755   2.150   4.194   2.511  1.0415 -2.9055 -0.3271
   65MOL0     H 8756   2.318   4.358   2.415  4.3545  0.0820 -0.5931
   65MOL0     H 8757   2.565   4.637   2.328  0.5461  1.0406  0.3115
   65MOL0     H 8758   2.722   4.795   2.218 -3.2227 -1.1445 -0.8343
   65MOL0     H 8759   2.556   6.403   1.825  1.3664  0.6166 -0.5221
   65MOL0     H 8760   2.488   6.603   1.971 -1.4364  1.3438  2.9939
   65MOL0     H 8761   2.392   6.814   2.276 -0.5844 -1.3517  2.2652
   65MOL0     H 8762   2.308   7.009   2.413  0.6334  0.9823 -2.5757
   65MOL0     H 8763   1.871   7.007   2.524  1.0808 -0.2154  1.5931
   65MOL0     H 8764   1.880   7.093   2.365 -0.5779  1.3851  0.3449
   65MOL0     H 8765   1.937   7.293   2.492 -0.2663 -0.5477 -0.7609
   65MOL0     H 8766   1.939   7.215   2.647  0.8682  2.6670 -0.5853
   65MOL0     H 8767   1.682   7.128   2.583 -0.6924  0.1861  0.8842
   65MOL0     H 8768   1.685   7.241   2.464 -2.0751 -4.3615  0.3936
   65MOL0     H 8769   1.589   7.294   2.693  1.5476 -2.6247  1.0308
   65MOL0     H 8770   1.755   7.264   2.766  0.0337  1.0627  1.2245
   65MOL0     H 8771   1.786   7.665   2.635  0.8874  0.3251 -0.0441
   65MOL0     H 8772   1.920   6.863   2.374 -0.6579 -0.8486 -0.3598
   65MOL0     H 8773   1.870   6.651   2.294 -0.6695  3.9670 -1.1518
   65MOL0     H 8774   1.945   6.625   2.138 -0.7371  2.3804 -0.3533
   65MOL0     H 8775   2.002   6.532   2.285 -0.7234  0.6751  3.3443
   66MOL0     O 8776   7.043   1.975   7.715 -1.3327 -0.1146  0.2261
   66MOL0     C 8777   7.118   1.910   7.793  0.2534 -0.8365 -0.6374
   66MOL0     O 8778   7.253   1.904   7.779  0.2703 -0.3262  0.1665
   66MOL0     C 8779   7.309   1.924   7.654  0.0185 -0.5183 -0.3195
   66MOL0     C 8780   7.324   2.059   7.603  1.0333  0.0952 -0.5830
   66MOL0     C 8781   7.388   2.083   7.478  0.1626  0.9601  0.8217
   66MOL0     C 8782   7.429   1.970   7.399 -0.1267  0.4721  0.2639
   66MOL0     O 8783   7.466   1.990   7.274 -0.8898  0.5707  0.4823
   66MOL0     C 8784   7.597   2.032   7.244  0.9236  0.4237  0.2566
   66MOL0     C 8785   7.613   2.002   7.096  0.3458  0.1387 -0.0751
   66MOL0     C 8786   7.765   2.012   7.079  0.3719  0.1101  0.3351
   66MOL0     C 8787   7.796   1.984   6.934 -0.5559  0.2889  0.0815
   66MOL0     C 8788   7.804   1.840   6.870 -0.6710 -0.2401 -0.2343
   66MOL0     C 8789   7.773   1.848   6.723  0.3355 -0.3382  0.5636
   66MOL0     C 8790   7.783   1.709   6.647  0.4860  0.0546 -0.5827
   66MOL0     C 8791   7.713   1.710   6.507  0.1937 -0.4002  0.5655
   66MOL0     N 8792   7.697   1.579   6.444  0.0595  1.1239  0.4455
   66MOL0     C 8793   7.589   1.497   6.477  0.6812 -1.3303  0.2027
   66MOL0     C 8794   7.609   1.380   6.410  0.4035 -0.7001 -0.0228
   66MOL0     C 8795   7.505   1.273   6.411  0.2449 -0.6816 -0.4167
   66MOL0     C 8796   7.575   1.139   6.366 -1.3940  0.1679  0.7223
   66MOL0     C 8797   7.489   1.021   6.333  1.1616  0.2562  0.4317
   66MOL0     C 8798   7.365   1.056   6.251 -0.1398  0.1266 -0.9760
   66MOL0     O 8799   7.241   1.104   6.304 -0.5667  0.6232 -0.1494
   66MOL0     C 8800   7.154   1.019   6.361 -0.1510 -1.5266 -0.1237
   66MOL0     C 8801   7.041   1.081   6.418  0.3062 -1.0353  0.6760
   66MOL0     C 8802   6.941   1.014   6.490 -0.0645  0.1117 -0.3007
   66MOL0     C 8803   6.946   0.877   6.496 -0.2227 -0.8319 -0.5658
   66MOL0     C 8804   6.847   0.792   6.562 -0.4418 -0.7323  0.4156
   66MOL0     O 8805   6.865   0.661   6.548  1.2114 -1.0430  0.4444
   66MOL0     C 8806   6.782   0.586   6.631 -0.3287  0.9060 -0.5915
   66MOL0     C 8807   6.682   0.508   6.578  0.8121 -0.1965 -0.2988
   66MOL0     C 8808   6.595   0.428   6.657 -0.2782  0.4815 -0.2918
   66MOL0     C 8809   6.629   0.420   6.800  1.3912  0.8183  1.4999
   66MOL0     O 8810   6.556   0.326   6.867 -0.2570 -0.6466  0.1642
   66MOL0     C 8811   6.433   0.377   6.928 -1.4129 -1.1846 -0.4506
   66MOL0     C 8812   6.396   0.252   7.014  0.6560 -0.1654  0.8169
   66MOL0     C 8813   6.339   0.133   6.927  0.0884 -0.4227  0.5163
   66MOL0     C 8814   6.338   0.001   7.015  0.1482 -0.2826  0.2637
   66MOL0     C 8815   6.216  -0.005   7.105  0.6599 -0.1691 -0.0786
   66MOL0     C 8816   6.097  -0.095   7.054  0.2507 -0.3939  0.4050
   66MOL0     C 8817   5.968  -0.071   7.121  0.5933 -0.1905  0.2172
   66MOL0     C 8818   5.966  -0.087   7.276  0.0544 -0.2617  0.4451
   66MOL0    Cl 8819   5.803  -0.139   7.339 -0.0740 -0.1211 -0.1500
   66MOL0     C 8820   6.749   0.478   6.839 -0.5473  0.4543 -0.8028
   66MOL0     C 8821   6.816   0.569   6.763 -1.0745  0.3597 -0.1394
   66MOL0     O 8822   6.759   0.848   6.622  0.2272 -0.0977 -0.3260
   66MOL0     C 8823   7.064   0.810   6.439 -0.0125 -0.4686 -0.4357
   66MOL0     C 8824   7.178   0.882   6.386  0.5607 -0.8238 -0.0526
   66MOL0     N 8825   7.734   1.395   6.342  0.4508 -0.4429 -0.6834
   66MOL0     N 8826   7.777   1.519   6.356  0.0425  0.3711  0.4017
   66MOL0     C 8827   7.409   1.845   7.441  0.1910  0.0167 -0.6850
   66MOL0     C 8828   7.360   1.825   7.571  0.3291  0.8336 -0.7000
   66MOL0     C 8829   7.032   1.856   7.909 -0.8794 -0.2758 -0.3458
   66MOL0     C 8830   6.910   1.922   7.945 -0.7778  0.4972 -0.4894
   66MOL0     C 8831   6.833   1.863   8.044 -0.4660  0.2430  0.3211
   66MOL0     C 8832   6.874   1.749   8.111 -0.0191  1.0819 -0.3897
   66MOL0     O 8833   6.795   1.690   8.215 -0.5696 -0.1461  0.7222
   66MOL0     C 8834   6.700   1.601   8.150 -1.0778 -1.2159 -0.7431
   66MOL0     C 8835   6.708   1.458   8.215  0.2296  0.3218  0.4358
   66MOL0     C 8836   6.586   1.383   8.157 -0.3839 -0.5169  0.6549
   66MOL0     C 8837   6.560   1.249   8.223  0.1496 -0.7406  0.1244
   66MOL0     C 8838   6.680   1.160   8.219  0.2046 -0.7816 -0.8885
   66MOL0     C 8839   6.775   1.097   8.202  0.0176  0.2491  0.2751
   66MOL0     C 8840   6.993   1.690   8.084  0.8855 -0.8400  0.0008
   66MOL0     C 8841   7.075   1.750   7.992 -0.0818 -0.1019 -0.4634
   66MOL0     C 8842   7.209   1.684   7.959  0.8447 -0.6524  0.0615
   66MOL0     H 8843   7.269   2.136   7.656  1.2113 -1.2676  1.6920
   66MOL0     H 8844   7.396   2.187   7.446  0.6876  0.7794  0.3642
   66MOL0     H 8845   7.610   2.139   7.264  1.9136  0.7805 -2.0381
   66MOL0     H 8846   7.667   1.968   7.300 -0.6803 -0.7933  0.9628
   66MOL0     H 8847   7.557   2.079   7.042  1.4414  1.5085  0.6831
   66MOL0     H 8848   7.569   1.908   7.061  0.0157 -0.1617  1.0942
   66MOL0     H 8849   7.815   1.937   7.140  0.2851 -0.2193  0.0093
   66MOL0     H 8850   7.805   2.109   7.109  3.1892 -1.3344  1.6491
   66MOL0     H 8851   7.718   2.042   6.884 -1.7592 -0.1390  1.3896
   66MOL0     H 8852   7.889   2.039   6.919  0.0885 -0.3278  1.5942
   66MOL0     H 8853   7.905   1.800   6.875 -0.7353 -0.5498 -1.2088
   66MOL0     H 8854   7.732   1.776   6.923 -2.7507  0.0904 -2.4798
   66MOL0     H 8855   7.670   1.884   6.724 -0.1596 -1.6919  1.6149
   66MOL0     H 8856   7.835   1.918   6.666  3.1152 -0.5693  3.1041
   66MOL0     H 8857   7.717   1.632   6.689  0.5561  1.2184  1.8082
   66MOL0     H 8858   7.884   1.669   6.645  0.8816  1.0051 -0.0939
   66MOL0     H 8859   7.613   1.755   6.516 -0.1541  0.5453 -4.8173
   66MOL0     H 8860   7.771   1.773   6.440  0.5486  0.6247  1.7923
   66MOL0     H 8861   7.502   1.506   6.541 -0.1746 -3.0954 -0.6439
   66MOL0     H 8862   7.457   1.262   6.509  0.9469  3.5571  0.6035
   66MOL0     H 8863   7.431   1.301   6.335  0.5054  3.3687  0.5856
   66MOL0     H 8864   7.622   1.149   6.267  0.0169 -1.2474  1.2058
   66MOL0     H 8865   7.652   1.118   6.441 -1.4840 -0.1650  0.7217
   66MOL0     H 8866   7.466   0.961   6.422  0.9448  1.0324  0.9078
   66MOL0     H 8867   7.557   0.957   6.275 -0.3300 -0.0630 -1.0443
   66MOL0     H 8868   7.339   0.963   6.198 -1.0981 -0.6052  0.7165
   66MOL0     H 8869   7.398   1.138   6.187 -3.8298  0.8249 -2.2274
   66MOL0     H 8870   7.028   1.188   6.413 -0.0480 -1.1412 -3.6221
   66MOL0     H 8871   6.851   1.059   6.530 -0.3637  0.4509 -1.3334
   66MOL0     H 8872   6.656   0.504   6.473  0.3002 -2.3463 -0.1346
   66MOL0     H 8873   6.531   0.357   6.604  2.4371 -1.3651 -1.2900
   66MOL0     H 8874   6.452   0.464   6.992  2.8185 -2.6187  0.5690
   66MOL0     H 8875   6.354   0.396   6.855  0.1478 -2.8325 -2.7313
   66MOL0     H 8876   6.485   0.221   7.069  1.6260  0.0812 -0.5658
   66MOL0     H 8877   6.324   0.271   7.094  0.3408  0.6796  0.3503
   66MOL0     H 8878   6.240   0.163   6.891  1.1666  2.4890 -0.3109
   66MOL0     H 8879   6.398   0.114   6.837  0.3992  0.6812  0.4706
   66MOL0     H 8880   6.428   0.002   7.078 -0.2361  1.8340  0.8871
   66MOL0     H 8881   6.330  -0.083   6.946 -0.0785 -0.3615  0.3857
   66MOL0     H 8882   6.164   0.091   7.115 -1.3588 -1.4032  2.6112
   66MOL0     H 8883   6.241  -0.031   7.208  0.4872  2.2743  0.6605
   66MOL0     H 8884   6.084  -0.085   6.946 -2.3752  1.3471  0.7818
   66MOL0     H 8885   6.122  -0.200   7.069  1.8082 -0.4061 -1.7078
   66MOL0     H 8886   5.903  -0.147   7.076 -0.2903  1.7905 -2.1007
   66MOL0     H 8887   5.924   0.027   7.100 -2.8670 -0.9261  3.0314
   66MOL0     H 8888   6.052  -0.136   7.323  1.4791  2.7849  1.2296
   66MOL0     H 8889   5.985   0.010   7.322 -1.8179  0.2432  0.2493
   66MOL0     H 8890   6.776   0.441   6.937 -0.5891 -0.0640 -0.9798
   66MOL0     H 8891   6.912   0.596   6.804 -0.4103 -1.0243 -0.7315
   66MOL0     H 8892   7.084   0.704   6.447 -1.4366 -0.6624  1.1276
   66MOL0     H 8893   7.271   0.837   6.352  0.1068 -2.7652  1.1011
   66MOL0     H 8894   7.440   1.763   7.376  2.8417 -0.0426  0.5049
   66MOL0     H 8895   7.362   1.728   7.619 -1.6484  1.2671  0.3370
   66MOL0     H 8896   6.870   2.009   7.894 -0.1356 -0.6451 -3.1459
   66MOL0     H 8897   6.741   1.905   8.084 -0.2453 -1.1307  2.4167
   66MOL0     H 8898   6.717   1.588   8.043 -2.2461  0.5165 -1.1906
   66MOL0     H 8899   6.604   1.648   8.177  0.4401  1.5006  0.3309
   66MOL0     H 8900   6.701   1.449   8.324  1.2425  0.8064  0.5449
   66MOL0     H 8901   6.806   1.420   8.184  0.2028  1.7346 -1.5817
   66MOL0     H 8902   6.603   1.366   8.050  0.0406  2.0531  0.2466
   66MOL0     H 8903   6.499   1.446   8.179 -0.5801 -0.7102  0.4354
   66MOL0     H 8904   6.529   1.266   8.326 -1.7849 -0.1826 -0.4923
   66MOL0     H 8905   6.471   1.206   8.176  0.2548  0.5083 -1.2934
   66MOL0     H 8906   6.867   1.043   8.203 -0.0362  0.0221  3.4072
   66MOL0     H 8907   7.023   1.602   8.140 -3.6797 -0.7589  3.1648
   66MOL0     H 8908   7.220   1.587   8.009  1.7344 -1.0056 -0.7933
   66MOL0     H 8909   7.210   1.644   7.857  1.1611 -1.2734  0.3046
   66MOL0     H 8910   7.294   1.746   7.987  0.6523 -0.8926  1.2194
   67MOL0     O 8911   0.608   6.415   2.965  0.4722  0.1646  0.5658
   67MOL0     C 8912   0.529   6.326   2.921 -0.0796  0.6896 -0.3521
   67MOL0     O 8913   0.435   6.261   2.987  0.3259  0.1748  0.5134
   67MOL0     C 8914   0.452   6.247   3.127  0.4470  0.3430 -0.4792
   67MOL0     C 8915   0.449   6.359   3.212  0.0367 -0.2390  0.2756
   67MOL0     C 8916   0.434   6.329   3.349 -0.8224  0.1821 -1.0008
   67MOL0     C 8917   0.438   6.199   3.396  0.3561 -0.6330  0.3619
   67MOL0     O 8918   0.406   6.166   3.532  0.5447 -0.0417 -0.1157
   67MOL0     C 8919   0.506   6.100   3.612  1.1170  0.3250 -0.3568
   67MOL0     C 8920   0.533   6.172   3.741  0.2022 -0.9302  0.5885
   67MOL0     C 8921   0.398   6.172   3.838 -0.6056 -0.0356  0.1639
   67MOL0     C 8922   0.353   6.035   3.887 -1.1182  0.1475 -1.3099
   67MOL0     C 8923   0.232   6.025   3.975 -0.1710  0.5354  0.4589
   67MOL0     C 8924   0.251   6.098   4.115  0.5949 -0.3078 -0.2305
   67MOL0     C 8925   0.151   6.066   4.222  0.7522 -0.7359 -0.1362
   67MOL0     C 8926   0.011   6.128   4.206  0.8086 -0.0997 -0.3864
   67MOL0     N 8927  -0.004   6.258   4.282  0.5420 -0.6767  0.3268
   67MOL0     C 8928   0.098   6.340   4.324  0.2171  0.2368 -0.1133
   67MOL0     C 8929   0.045   6.425   4.414 -0.1585 -0.1029  0.4645
   67MOL0     C 8930   0.116   6.543   4.473  0.2321 -0.4812 -0.7724
   67MOL0     C 8931   0.034   6.589   4.610  0.0248 -0.4369  0.2541
   67MOL0     C 8932   0.041   6.496   4.728  0.3517 -0.6359 -0.1568
   67MOL0     C 8933  -0.083   6.524   4.813  0.2854  0.4350 -0.6957
   67MOL0     O 8934  -0.069   6.658   4.858  0.6910 -0.3018 -0.4967
   67MOL0     C 8935  -0.184   6.701   4.928 -0.2213 -0.0863 -0.0935
   67MOL0     C 8936  -0.194   6.839   4.938 -0.5438 -1.0736  0.3915
   67MOL0     C 8937  -0.299   6.906   4.997  0.1631  0.9270 -1.0449
   67MOL0     C 8938  -0.408   6.834   5.046 -0.1021  0.2339 -0.9172
   67MOL0     C 8939  -0.521   6.894   5.109 -0.0690 -0.4872 -0.1677
   67MOL0     O 8940  -0.615   6.817   5.178 -0.5603  0.5590  1.0041
   67MOL0     C 8941  -0.715   6.882   5.241 -0.3081  0.5391 -1.2202
   67MOL0     C 8942  -0.850   6.843   5.208  1.0596  0.1111  0.0114
   67MOL0     C 8943  -0.957   6.912   5.259  0.1544 -0.4192 -0.1702
   67MOL0     C 8944  -0.939   7.004   5.362  0.0201  0.2087 -0.5336
   67MOL0     O 8945  -1.053   7.056   5.416 -0.6917 -0.3429  0.0365
   67MOL0     C 8946  -1.054   7.183   5.493 -0.9736  0.4734 -0.4802
   67MOL0     C 8947  -1.102   7.138   5.629  0.2678 -0.5142  0.2710
   67MOL0     C 8948  -1.258   7.126   5.636 -0.6117 -0.4442 -0.5558
   67MOL0     C 8949  -1.310   7.049   5.752 -0.3324 -0.0913 -0.2832
   67MOL0     C 8950  -1.466   7.051   5.751 -0.5593 -0.4950  0.6178
   67MOL0     C 8951  -1.518   6.925   5.697  0.3009  0.7807  0.2561
   67MOL0     C 8952  -1.675   6.917   5.678 -0.6594 -0.1667  0.2670
   67MOL0     C 8953  -1.713   6.786   5.623 -0.4966  0.0773  0.8766
   67MOL0    Cl 8954  -1.751   6.672   5.748  0.2626  0.0120  0.2100
   67MOL0     C 8955  -0.806   7.029   5.415  0.6105  0.0335 -0.3316
   67MOL0     C 8956  -0.707   6.982   5.340  0.4754 -0.3522 -0.4627
   67MOL0     O 8957  -0.521   7.022   5.119 -0.1285  0.1321  0.1620
   67MOL0     C 8958  -0.405   6.693   5.037  0.8831 -0.1140 -0.2209
   67MOL0     C 8959  -0.297   6.622   4.980  0.1435  0.8478  0.2823
   67MOL0     N 8960  -0.088   6.393   4.420  0.3265  0.2490 -0.0186
   67MOL0     N 8961  -0.124   6.309   4.328  0.1362 -1.2091 -0.6387
   67MOL0     C 8962   0.448   6.093   3.308  0.7005 -0.6128 -0.3080
   67MOL0     C 8963   0.463   6.115   3.173  0.4674  0.4299  0.6312
   67MOL0     C 8964   0.536   6.330   2.774 -0.2693 -1.3594  0.0919
   67MOL0     C 8965   0.551   6.449   2.702  0.1290 -0.6513  0.2160
   67MOL0     C 8966   0.561   6.462   2.560 -0.9297 -0.3489  0.7478
   67MOL0     C 8967   0.573   6.345   2.490  1.0999  0.1534  0.5613
   67MOL0     O 8968   0.585   6.365   2.358 -0.2365 -0.2382 -0.6672
   67MOL0     C 8969   0.585   6.253   2.271 -0.2017 -1.3029 -0.0096
   67MOL0     C 8970   0.439   6.209   2.237 -0.2824 -0.7312 -0.2522
   67MOL0     C 8971   0.374   6.322   2.156  0.4699 -0.1058 -0.1873
   67MOL0     C 8972   0.229   6.285   2.132  1.2909  0.2182  0.1824
   67MOL0     C 8973   0.166   6.399   2.063 -0.3866 -0.4183 -0.1984
   67MOL0     C 8974   0.152   6.496   1.992  0.4175 -0.0070  0.1797
   67MOL0     C 8975   0.530   6.219   2.552 -0.4550 -0.0484 -0.0705
   67MOL0     C 8976   0.513   6.211   2.697  0.5921  0.8741  0.3330
   67MOL0     C 8977   0.480   6.081   2.753 -0.0374  0.3201  0.2493
   67MOL0     H 8978   0.451   6.464   3.184  0.2651 -0.6359 -1.3179
   67MOL0     H 8979   0.429   6.408   3.423 -4.2269 -1.8463  1.2055
   67MOL0     H 8980   0.464   6.001   3.627  2.7885  0.1017  4.5432
   67MOL0     H 8981   0.604   6.093   3.563  1.5235  0.8958  0.3445
   67MOL0     H 8982   0.573   6.271   3.717 -0.4355 -0.3086  1.9969
   67MOL0     H 8983   0.613   6.127   3.800  1.6600 -0.2224 -0.7734
   67MOL0     H 8984   0.329   6.241   3.789  0.2602  2.4001  2.1481
   67MOL0     H 8985   0.427   6.227   3.927 -4.1892  2.7004 -0.1364
   67MOL0     H 8986   0.345   5.963   3.806  2.0905 -0.9658 -0.8127
   67MOL0     H 8987   0.434   5.998   3.951 -1.7614  1.5208  0.4032
   67MOL0     H 8988   0.143   6.059   3.922 -2.3878 -2.0101  2.2306
   67MOL0     H 8989   0.207   5.924   4.011 -1.5664 -0.1985 -2.2993
   67MOL0     H 8990   0.352   6.075   4.151  1.2106  0.3613 -1.4557
   67MOL0     H 8991   0.235   6.204   4.091 -5.6519 -0.7870  0.1327
   67MOL0     H 8992   0.191   6.108   4.315 -0.8025 -0.7270  0.5705
   67MOL0     H 8993   0.151   5.958   4.239 -0.1673 -0.7659 -0.2632
   67MOL0     H 8994  -0.018   6.133   4.100  0.6982  0.1239 -0.3463
   67MOL0     H 8995  -0.067   6.061   4.244 -1.3174  3.0627  1.1886
   67MOL0     H 8996   0.199   6.343   4.285 -0.4974 -0.4908 -2.1814
   67MOL0     H 8997   0.208   6.501   4.514  1.4313  3.3590  0.9432
   67MOL0     H 8998   0.124   6.614   4.390 -2.3564  0.4777 -0.3194
   67MOL0     H 8999   0.069   6.688   4.640  0.9036 -1.0866  1.4618
   67MOL0     H 9000  -0.068   6.614   4.578 -0.2636 -1.2729  0.4694
   67MOL0     H 9001   0.131   6.508   4.789 -1.5409 -3.1202  3.4827
   67MOL0     H 9002   0.023   6.393   4.697  0.2379 -0.5699 -0.3124
   67MOL0     H 9003  -0.066   6.450   4.892  3.1010 -0.1755 -1.7341
   67MOL0     H 9004  -0.180   6.515   4.764  0.4985  1.1612 -1.2701
   67MOL0     H 9005  -0.114   6.904   4.903 -2.2819  1.0879  0.1941
   67MOL0     H 9006  -0.281   7.013   5.000 -0.3500  1.1611 -3.7389
   67MOL0     H 9007  -0.867   6.773   5.127  0.8972 -1.4548  1.3601
   67MOL0     H 9008  -1.054   6.892   5.214 -1.1477  1.9708  1.3424
   67MOL0     H 9009  -0.952   7.219   5.509  0.8214 -3.6869 -1.2590
   67MOL0     H 9010  -1.116   7.255   5.439 -0.1136  0.3950 -1.5957
   67MOL0     H 9011  -1.058   7.041   5.652  0.8282 -1.3621 -3.7700
   67MOL0     H 9012  -1.079   7.210   5.708 -2.4437  0.2277  0.4885
   67MOL0     H 9013  -1.301   7.227   5.637  0.2699 -0.0613  0.3784
   67MOL0     H 9014  -1.292   7.080   5.543  1.3750  0.1699 -1.6553
   67MOL0     H 9015  -1.298   7.106   5.845 -3.4591  1.3522 -0.6203
   67MOL0     H 9016  -1.261   6.953   5.767  2.0339  1.2361  0.9992
   67MOL0     H 9017  -1.496   7.121   5.672  0.1263  0.0237  0.8095
   67MOL0     H 9018  -1.522   7.083   5.839 -1.7650  1.1610 -0.6687
   67MOL0     H 9019  -1.475   6.901   5.599  1.2248  1.8773  0.3718
   67MOL0     H 9020  -1.505   6.850   5.777  0.0851 -1.2923 -1.5511
   67MOL0     H 9021  -1.701   6.993   5.604 -0.8674  1.0750  1.5693
   67MOL0     H 9022  -1.719   6.950   5.772  2.0307  2.3341  0.8039
   67MOL0     H 9023  -1.804   6.795   5.563  0.1308 -0.4320 -0.1900
   67MOL0     H 9024  -1.638   6.742   5.555 -1.3279  1.3589 -0.9510
   67MOL0     H 9025  -0.786   7.072   5.512  1.3771  0.1825 -0.5495
   67MOL0     H 9026  -0.607   7.004   5.376  0.7723  0.5322 -1.7511
   67MOL0     H 9027  -0.474   6.624   5.084  0.7649  0.3392  0.2801
   67MOL0     H 9028  -0.296   6.514   4.970 -0.9661  0.7318  1.2812
   67MOL0     H 9029   0.417   5.998   3.350  0.7949 -0.9268 -0.9422
   67MOL0     H 9030   0.464   6.034   3.100  0.4939 -0.1423  1.2528
   67MOL0     H 9031   0.567   6.545   2.751  1.7126 -0.0006 -1.4415
   67MOL0     H 9032   0.584   6.561   2.520  1.2576 -0.9849  0.2816
   67MOL0     H 9033   0.638   6.173   2.323 -2.9026 -2.9728  0.3996
   67MOL0     H 9034   0.642   6.269   2.179 -1.9667 -2.8611 -1.4681
   67MOL0     H 9035   0.369   6.208   2.320  0.6422 -2.7288  0.5622
   67MOL0     H 9036   0.438   6.113   2.184  1.6565 -1.7907  1.4816
   67MOL0     H 9037   0.417   6.346   2.058  4.2416 -0.3125  1.2394
   67MOL0     H 9038   0.393   6.415   2.211 -1.8734  1.3332 -1.6045
   67MOL0     H 9039   0.216   6.184   2.092  0.2264 -0.0483  1.1478
   67MOL0     H 9040   0.174   6.273   2.226  0.7027 -1.3907 -0.3259
   67MOL0     H 9041   0.145   6.571   1.916  1.6788 -1.9577 -1.9850
   67MOL0     H 9042   0.526   6.133   2.486  0.0295 -0.6034  0.6065
   67MOL0     H 9043   0.460   6.021   2.664  2.4497  1.3367 -1.0963
   67MOL0     H 9044   0.560   6.036   2.812  0.3251  0.5592 -0.0562
   67MOL0     H 9045   0.388   6.083   2.812  1.3051  0.3046  2.4290
   68MOL0     O 9046   7.215   0.690   4.858  0.1103 -0.0881  0.4893
   68MOL0     C 9047   7.325   0.640   4.882 -0.3808  0.5039  0.1405
   68MOL0     O 9048   7.352   0.526   4.968  0.1530 -0.4827  0.4626
   68MOL0     C 9049   7.236   0.477   5.029 -0.2415 -0.2315  0.4929
   68MOL0     C 9050   7.184   0.554   5.139 -0.7955  0.3289 -0.2137
   68MOL0     C 9051   7.065   0.512   5.205 -0.0572 -0.7614 -0.4612
   68MOL0     C 9052   6.997   0.406   5.166 -0.1553  0.7921  0.0227
   68MOL0     O 9053   6.888   0.378   5.236  0.2250  0.2361  0.4821
   68MOL0     C 9054   6.806   0.268   5.186 -0.2386 -1.3666 -0.3366
   68MOL0     C 9055   6.661   0.276   5.232 -0.4107 -0.5803 -0.0059
   68MOL0     C 9056   6.593   0.151   5.189  0.5386 -0.3927  1.0746
   68MOL0     C 9057   6.642   0.027   5.271 -0.0384  0.2215  0.3765
   68MOL0     C 9058   6.523  -0.062   5.309 -0.2471 -0.4924 -0.0809
   68MOL0     C 9059   6.454  -0.010   5.441  0.0322  0.5241 -0.0870
   68MOL0     C 9060   6.321  -0.091   5.468  0.5526 -0.2072  0.7911
   68MOL0     C 9061   6.260  -0.036   5.592 -0.0579  1.2246  1.2725
   68MOL0     N 9062   6.233   0.106   5.583  0.1812 -0.1351  0.5364
   68MOL0     C 9063   6.145   0.160   5.487  0.1828  1.2164  1.0067
   68MOL0     C 9064   6.162   0.287   5.500  0.2427 -0.9068 -0.6976
   68MOL0     C 9065   6.115   0.410   5.427 -0.4195  0.0898 -0.5893
   68MOL0     C 9066   6.224   0.502   5.379 -0.4462  0.1107 -0.0759
   68MOL0     C 9067   6.337   0.431   5.301  0.3899 -0.5792 -0.3544
   68MOL0     C 9068   6.285   0.366   5.176 -0.2775  0.4553  1.0626
   68MOL0     O 9069   6.368   0.381   5.057 -0.0720  0.2870 -0.7399
   68MOL0     C 9070   6.373   0.511   5.010 -0.6613  0.4670 -0.0966
   68MOL0     C 9071   6.286   0.552   4.907 -0.0722 -0.3725 -0.0679
   68MOL0     C 9072   6.279   0.690   4.864  0.1975  0.2996 -0.2652
   68MOL0     C 9073   6.373   0.782   4.901  0.6653 -0.4667  0.3073
   68MOL0     C 9074   6.380   0.910   4.824 -0.1553 -0.4577 -0.0454
   68MOL0     O 9075   6.277   0.949   4.741  0.4896 -0.0259 -0.5575
   68MOL0     C 9076   6.294   1.060   4.662 -1.0606  0.1665 -0.3085
   68MOL0     C 9077   6.240   1.051   4.537 -0.7656  0.4596  0.1745
   68MOL0     C 9078   6.247   1.162   4.448  0.5283 -0.3693  0.7934
   68MOL0     C 9079   6.304   1.282   4.484 -0.5885  0.2119  0.4215
   68MOL0     O 9080   6.309   1.395   4.408  0.5010  1.1535  0.1076
   68MOL0     C 9081   6.190   1.408   4.329 -0.5874 -0.6342  0.6526
   68MOL0     C 9082   6.200   1.551   4.278  0.0571  0.7455 -0.1944
   68MOL0     C 9083   6.141   1.653   4.368 -0.0359  0.4292  0.7162
   68MOL0     C 9084   6.218   1.666   4.495 -0.4388  0.1545  0.1126
   68MOL0     C 9085   6.178   1.789   4.581 -0.4207 -1.6587 -0.7100
   68MOL0     C 9086   6.153   1.738   4.732  1.6602 -0.4952 -0.1050
   68MOL0     C 9087   6.269   1.660   4.792  0.8140  0.6347  1.2563
   68MOL0     C 9088   6.223   1.561   4.905 -0.7062 -0.1282 -0.1584
   68MOL0    Cl 9089   6.161   1.415   4.832  0.2839  0.0663 -0.0588
   68MOL0     C 9090   6.365   1.293   4.612  1.2133 -0.1380 -0.2703
   68MOL0     C 9091   6.353   1.186   4.699 -0.0873  0.0466 -0.4870
   68MOL0     O 9092   6.480   0.981   4.842 -0.0171  1.0516  0.1305
   68MOL0     C 9093   6.467   0.738   4.993  0.0569 -0.4035 -0.0843
   68MOL0     C 9094   6.480   0.604   5.041 -0.3773  0.8555  0.2096
   68MOL0     N 9095   6.268   0.313   5.588  0.6732  1.0661  0.2931
   68MOL0     N 9096   6.292   0.203   5.646  0.3505 -0.0058  0.2310
   68MOL0     C 9097   7.046   0.323   5.056 -0.1757 -0.8646  0.4252
   68MOL0     C 9098   7.159   0.370   4.981  0.4867 -0.8626  0.0439
   68MOL0     C 9099   7.435   0.690   4.783  0.0136 -0.5729  0.6822
   68MOL0     C 9100   7.550   0.601   4.767  0.5377  0.1695  0.1246
   68MOL0     C 9101   7.661   0.633   4.690  0.5230 -0.1789 -1.0028
   68MOL0     C 9102   7.662   0.766   4.636 -0.0220  0.1135  0.6893
   68MOL0     O 9103   7.777   0.811   4.567 -0.3645  0.5890 -0.1431
   68MOL0     C 9104   7.811   0.949   4.567 -0.9967  0.5041  1.5076
   68MOL0     C 9105   7.945   0.997   4.508  0.5390  0.5977  0.9269
   68MOL0     C 9106   8.062   0.966   4.597  0.4610 -0.2371 -0.7398
   68MOL0     C 9107   8.188   1.007   4.524 -0.0236  0.9084 -0.7241
   68MOL0     C 9108   8.206   1.139   4.472  0.5457 -0.3781 -0.6897
   68MOL0     C 9109   8.225   1.241   4.423  1.0762  0.3828 -0.7082
   68MOL0     C 9110   7.556   0.855   4.658 -0.9462  0.1571  0.0550
   68MOL0     C 9111   7.438   0.818   4.722  0.1886 -0.6452 -0.1797
   68MOL0     C 9112   7.316   0.907   4.713 -0.3007 -0.9281  0.8247
   68MOL0     H 9113   7.234   0.649   5.159 -2.4272  1.3617 -0.8124
   68MOL0     H 9114   7.036   0.583   5.282 -1.0793 -0.2198 -1.3142
   68MOL0     H 9115   6.788   0.285   5.079 -0.8167 -0.1635 -0.0730
   68MOL0     H 9116   6.843   0.165   5.189  1.5391 -0.9163 -2.8478
   68MOL0     H 9117   6.608   0.355   5.177 -2.7249 -1.6752  0.5544
   68MOL0     H 9118   6.644   0.287   5.340 -1.6037 -0.5054 -0.1901
   68MOL0     H 9119   6.612   0.137   5.083 -2.7201  1.3424  0.1180
   68MOL0     H 9120   6.485   0.154   5.206 -0.1128 -0.0153 -2.3906
   68MOL0     H 9121   6.708  -0.042   5.218  1.3552  0.0138  2.3018
   68MOL0     H 9122   6.684   0.060   5.366 -1.9441 -2.9155  2.4957
   68MOL0     H 9123   6.446  -0.063   5.231 -0.2365 -0.1556 -0.0948
   68MOL0     H 9124   6.559  -0.166   5.310  2.6504  0.3995  1.5037
   68MOL0     H 9125   6.522  -0.015   5.526 -0.2660 -1.4598  0.0874
   68MOL0     H 9126   6.451   0.099   5.433  1.6070  0.9388  3.2768
   68MOL0     H 9127   6.332  -0.199   5.475 -1.9267 -0.4877  1.2401
   68MOL0     H 9128   6.255  -0.068   5.383  1.9396 -1.2235 -0.6254
   68MOL0     H 9129   6.166  -0.090   5.612  0.8508 -0.8906  0.1308
   68MOL0     H 9130   6.324  -0.065   5.676 -0.8221 -2.5306  0.7685
   68MOL0     H 9131   6.057   0.115   5.442 -0.2200  0.7790  2.1706
   68MOL0     H 9132   6.060   0.361   5.345 -1.3398 -1.2183  0.7499
   68MOL0     H 9133   6.044   0.467   5.488  2.8882  1.2802  2.4665
   68MOL0     H 9134   6.195   0.590   5.320  1.4231  0.0550 -1.1727
   68MOL0     H 9135   6.275   0.551   5.462  1.7821  0.4877 -1.5617
   68MOL0     H 9136   6.389   0.356   5.361  0.6008 -0.7811 -0.7856
   68MOL0     H 9137   6.413   0.505   5.274  0.4353 -0.3073  0.4628
   68MOL0     H 9138   6.181   0.395   5.159 -0.4083 -0.7570 -0.4268
   68MOL0     H 9139   6.287   0.260   5.203 -0.7481  0.0492 -0.4082
   68MOL0     H 9140   6.206   0.484   4.880 -1.2008 -0.4040  3.0320
   68MOL0     H 9141   6.197   0.714   4.797 -2.2654 -0.3762  2.2884
   68MOL0     H 9142   6.194   0.958   4.506 -0.5465  1.1169 -2.4347
   68MOL0     H 9143   6.203   1.155   4.349  2.2357 -2.8156  0.1271
   68MOL0     H 9144   6.170   1.344   4.243 -2.1611  2.9591 -1.9200
   68MOL0     H 9145   6.104   1.399   4.397  1.2838  0.7246  3.3962
   68MOL0     H 9146   6.304   1.571   4.250 -0.8435  1.1233 -3.8344
   68MOL0     H 9147   6.132   1.548   4.192 -1.5268 -0.5824  1.0419
   68MOL0     H 9148   6.136   1.749   4.316 -0.1375 -0.0886 -0.2451
   68MOL0     H 9149   6.039   1.633   4.402 -1.1675  3.8898 -0.2641
   68MOL0     H 9150   6.323   1.669   4.464 -1.6838  0.9868 -4.8919
   68MOL0     H 9151   6.196   1.578   4.555 -2.7257 -0.9169 -2.1278
   68MOL0     H 9152   6.087   1.832   4.539  0.8634  0.5664 -1.4276
   68MOL0     H 9153   6.260   1.860   4.595 -1.5469 -0.5812  0.7610
   68MOL0     H 9154   6.121   1.821   4.795  0.2690 -0.5189 -0.7320
   68MOL0     H 9155   6.068   1.670   4.725  0.2299  1.2519 -0.4417
   68MOL0     H 9156   6.334   1.734   4.841 -0.8319  3.9870 -1.2273
   68MOL0     H 9157   6.326   1.603   4.718  0.6910  1.7694  0.2645
   68MOL0     H 9158   6.317   1.543   4.956  1.2019 -1.0113 -3.6566
   68MOL0     H 9159   6.147   1.607   4.969 -0.3340 -1.7098  1.5031
   68MOL0     H 9160   6.405   1.387   4.650  3.5930 -1.4287  0.5874
   68MOL0     H 9161   6.401   1.193   4.796  2.7366 -0.4667 -1.7401
   68MOL0     H 9162   6.532   0.809   5.044 -2.5227  1.9816  0.1258
   68MOL0     H 9163   6.567   0.581   5.102 -1.4490 -2.4982  0.7005
   68MOL0     H 9164   7.001   0.227   5.033  2.0538 -1.8004 -0.3089
   68MOL0     H 9165   7.198   0.314   4.897  2.8119 -1.5442  1.4844
   68MOL0     H 9166   7.542   0.501   4.807  2.6901 -0.1973 -0.2309
   68MOL0     H 9167   7.734   0.560   4.657  1.4943  1.2023 -2.0346
   68MOL0     H 9168   7.803   1.002   4.663  0.9683  2.4191  0.7080
   68MOL0     H 9169   7.734   1.004   4.513  0.2632 -2.2941 -3.7563
   68MOL0     H 9170   7.936   1.106   4.502 -0.1730  0.5155  0.2313
   68MOL0     H 9171   7.952   0.957   4.406 -3.0037 -1.4000  1.2801
   68MOL0     H 9172   8.061   0.858   4.617 -1.1280  0.2452  2.3536
   68MOL0     H 9173   8.046   1.014   4.694  1.4286 -2.2945  0.5055
   68MOL0     H 9174   8.275   0.992   4.590 -0.0579 -0.2536 -0.9237
   68MOL0     H 9175   8.210   0.933   4.446  2.2498 -2.3556  2.6431
   68MOL0     H 9176   8.249   1.324   4.359  0.4421  2.6526  1.8272
   68MOL0     H 9177   7.553   0.951   4.608  1.6002  0.8152  1.0433
   68MOL0     H 9178   7.243   0.896   4.632 -2.3064  2.0440  2.0190
   68MOL0     H 9179   7.258   0.905   4.805  0.1893 -1.2843  1.1275
   68MOL0     H 9180   7.345   1.012   4.696  0.4940 -1.2810 -0.0929
   69MOL0     O 9181   2.730   7.711   5.259 -0.6777 -0.0854  0.2571
   69MOL0     C 9182   2.729   7.726   5.135 -0.2484  0.8819  0.0131
   69MOL0     O 9183   2.758   7.635   5.041  0.0170  0.1324  0.1902
   69MOL0     C 9184   2.769   7.499   5.069 -0.1258  0.1478 -0.3800
   69MOL0     C 9185   2.880   7.434   5.020 -0.2664 -0.6037  0.1974
   69MOL0     C 9186   2.907   7.296   5.048  0.9045  0.0039  0.0814
   69MOL0     C 9187   2.819   7.221   5.127 -0.6474 -0.6080  1.0924
   69MOL0     O 9188   2.853   7.096   5.153 -0.0880  0.8558 -0.7474
   69MOL0     C 9189   2.791   7.016   5.259 -0.0056  0.0009  0.4715
   69MOL0     C 9190   2.778   6.862   5.233 -0.5838 -0.2086 -0.0066
   69MOL0     C 9191   2.759   6.800   5.367 -0.0559 -0.9557 -0.7515
   69MOL0     C 9192   2.756   6.645   5.366 -0.8514 -0.6728 -0.1716
   69MOL0     C 9193   2.633   6.584   5.290 -0.6265 -0.3404  0.9828
   69MOL0     C 9194   2.499   6.584   5.370 -0.0890 -0.2882  0.4739
   69MOL0     C 9195   2.386   6.521   5.296 -0.0494  0.3312 -1.2813
   69MOL0     C 9196   2.259   6.518   5.366 -0.4654  0.6996 -1.7234
   69MOL0     N 9197   2.148   6.488   5.280  0.8112 -0.8032 -0.7121
   69MOL0     C 9198   2.052   6.588   5.239  0.3855  0.7653 -0.7154
   69MOL0     C 9199   1.965   6.523   5.155  0.0095 -0.8835 -0.6580
   69MOL0     C 9200   1.835   6.569   5.098 -0.1474 -0.2032  0.6636
   69MOL0     C 9201   1.854   6.684   5.001  0.1183 -0.5001  0.1239
   69MOL0     C 9202   1.717   6.730   4.954  0.1793 -0.0206 -0.0748
   69MOL0     C 9203   1.727   6.805   4.816 -0.4373  0.5485  0.3116
   69MOL0     O 9204   1.772   6.713   4.709 -0.1520  0.1247 -0.0407
   69MOL0     C 9205   1.681   6.633   4.639 -0.6235  0.5590  0.3077
   69MOL0     C 9206   1.731   6.576   4.522  0.5666 -0.0558  0.6759
   69MOL0     C 9207   1.650   6.488   4.438  0.6471 -0.7963 -0.5973
   69MOL0     C 9208   1.519   6.459   4.487  0.7091 -0.6957 -0.6896
   69MOL0     C 9209   1.464   6.341   4.416  0.6213  0.4403 -0.1258
   69MOL0     O 9210   1.381   6.255   4.491  0.8982 -0.0098  0.1176
   69MOL0     C 9211   1.348   6.138   4.424  0.3622 -0.3635  0.6849
   69MOL0     C 9212   1.246   6.147   4.329 -0.6174 -0.3344  0.1597
   69MOL0     C 9213   1.197   6.033   4.258 -0.3214 -1.4444  0.2896
   69MOL0     C 9214   1.267   5.914   4.269 -0.0398 -2.4375  0.3179
   69MOL0     O 9215   1.211   5.815   4.192 -0.3141  0.2078 -0.1726
   69MOL0     C 9216   1.245   5.673   4.201 -0.3818  0.4267  0.0788
   69MOL0     C 9217   1.159   5.625   4.326 -0.4469 -0.1600 -0.0874
   69MOL0     C 9218   1.156   5.477   4.326 -1.0259  0.0257  0.3441
   69MOL0     C 9219   1.102   5.411   4.446  0.9951 -0.1061  0.1926
   69MOL0     C 9220   1.086   5.259   4.436 -0.6917  0.5583  0.3004
   69MOL0     C 9221   1.077   5.204   4.580 -0.0355  0.9998  0.0748
   69MOL0     C 9222   1.066   5.044   4.589  0.7975 -0.0611  0.2443
   69MOL0     C 9223   0.946   5.000   4.678  0.2014  0.1723  0.3241
   69MOL0    Cl 9224   0.795   5.094   4.636 -0.1056 -0.2106 -0.6620
   69MOL0     C 9225   1.374   5.906   4.361  0.6904  0.4702  0.1200
   69MOL0     C 9226   1.420   6.023   4.424  0.3895  0.3821 -0.3776
   69MOL0     O 9227   1.501   6.325   4.301 -0.2222  0.5148  0.2016
   69MOL0     C 9228   1.462   6.521   4.601 -0.0739 -0.0503  0.8219
   69MOL0     C 9229   1.543   6.607   4.665 -0.1893 -0.7581 -1.0428
   69MOL0     N 9230   2.009   6.388   5.137 -0.5809 -0.9660 -0.5148
   69MOL0     N 9231   2.117   6.373   5.217  0.4125 -0.9732  0.5450
   69MOL0     C 9232   2.698   7.277   5.165 -0.9129 -1.2860 -0.0929
   69MOL0     C 9233   2.671   7.416   5.132 -0.6922 -0.2097 -0.3004
   69MOL0     C 9234   2.687   7.859   5.082 -0.2264  0.0229 -0.9435
   69MOL0     C 9235   2.738   7.970   5.139  0.4005  0.6079 -1.0129
   69MOL0     C 9236   2.709   8.096   5.081 -0.1556 -0.5239 -0.0666
   69MOL0     C 9237   2.618   8.108   4.981  0.1824 -1.0121 -1.1021
   69MOL0     O 9238   2.569   8.225   4.930 -0.6067 -0.2605  0.0535
   69MOL0     C 9239   2.620   8.349   4.986 -0.2362  0.4012 -0.0508
   69MOL0     C 9240   2.598   8.460   4.885  0.8789  0.2654 -0.1297
   69MOL0     C 9241   2.689   8.462   4.763 -0.3794 -0.2175  1.0417
   69MOL0     C 9242   2.648   8.348   4.675  0.6012  0.4042  0.7648
   69MOL0     C 9243   2.692   8.382   4.538 -0.1415 -0.4720  0.3177
   69MOL0     C 9244   2.718   8.391   4.420  0.0509  1.2057 -0.9232
   69MOL0     C 9245   2.558   7.997   4.919 -0.8218  0.0792  0.0088
   69MOL0     C 9246   2.588   7.864   4.972  0.2426  0.3473 -0.0219
   69MOL0     C 9247   2.518   7.742   4.909 -0.0183  0.3479 -0.2738
   69MOL0     H 9248   2.951   7.490   4.961 -0.5710  5.2998  4.4744
   69MOL0     H 9249   2.995   7.241   5.017  1.5027 -0.8890  3.0456
   69MOL0     H 9250   2.855   7.027   5.348  1.2557 -1.6027 -0.1825
   69MOL0     H 9251   2.693   7.053   5.289  1.2323  2.6552  1.5812
   69MOL0     H 9252   2.872   6.835   5.185 -0.8391  0.0568 -0.6649
   69MOL0     H 9253   2.694   6.848   5.164 -0.9174  0.1617  0.3180
   69MOL0     H 9254   2.673   6.836   5.424  1.1144  0.8245 -0.0004
   69MOL0     H 9255   2.850   6.814   5.427  0.4067 -2.5254 -1.0636
   69MOL0     H 9256   2.846   6.613   5.314  1.3283  4.0110  0.2125
   69MOL0     H 9257   2.757   6.598   5.465  0.2261  1.3296  0.8357
   69MOL0     H 9258   2.613   6.637   5.197 -0.6302  1.6992  2.1000
   69MOL0     H 9259   2.652   6.480   5.259 -1.7999  0.3674 -2.6492
   69MOL0     H 9260   2.505   6.539   5.469 -3.2227  1.0829  1.4128
   69MOL0     H 9261   2.475   6.688   5.396 -3.2743 -0.1170 -2.4942
   69MOL0     H 9262   2.417   6.418   5.277 -1.2257 -0.3938  0.5012
   69MOL0     H 9263   2.379   6.581   5.204 -2.2063 -0.3052 -1.5769
   69MOL0     H 9264   2.255   6.440   5.443 -0.7725 -0.8680 -3.2551
   69MOL0     H 9265   2.246   6.620   5.404  0.9515  0.1494  0.4454
   69MOL0     H 9266   2.042   6.689   5.279  5.6536  0.5976  1.8961
   69MOL0     H 9267   1.791   6.485   5.044 -1.2819  1.8261 -1.7573
   69MOL0     H 9268   1.764   6.595   5.177 -1.1094 -2.9972  0.8210
   69MOL0     H 9269   1.910   6.765   5.049  2.4773 -1.4468 -0.8905
   69MOL0     H 9270   1.910   6.644   4.916  0.1674  0.0208 -0.0958
   69MOL0     H 9271   1.676   6.811   5.014  1.3307  1.6023 -1.4023
   69MOL0     H 9272   1.642   6.650   4.950  1.8014 -1.5933 -0.5717
   69MOL0     H 9273   1.796   6.890   4.823  2.7735 -1.6987 -1.4653
   69MOL0     H 9274   1.631   6.852   4.790 -1.1599 -1.1684 -0.2282
   69MOL0     H 9275   1.829   6.600   4.484  0.8666 -1.3851  0.5828
   69MOL0     H 9276   1.691   6.459   4.342  0.8755  0.4437 -0.8882
   69MOL0     H 9277   1.193   6.241   4.316 -1.7933 -1.0194 -0.2094
   69MOL0     H 9278   1.103   6.026   4.205 -0.6792 -2.4641  1.0332
   69MOL0     H 9279   1.210   5.627   4.109  1.2873 -0.4657 -0.1535
   69MOL0     H 9280   1.351   5.649   4.209 -0.3462  0.3892 -0.4856
   69MOL0     H 9281   1.214   5.665   4.411  3.3017 -3.1468 -0.8497
   69MOL0     H 9282   1.060   5.670   4.318  1.1223  3.6597  0.0449
   69MOL0     H 9283   1.105   5.428   4.243 -3.0957 -1.3760  2.3202
   69MOL0     H 9284   1.261   5.446   4.322 -0.4435  1.9100  0.1366
   69MOL0     H 9285   1.013   5.468   4.473  2.6210  2.8295 -0.2929
   69MOL0     H 9286   1.164   5.434   4.534  1.1432  1.9580 -0.4095
   69MOL0     H 9287   1.169   5.216   4.380  0.2074  1.3226  1.0080
   69MOL0     H 9288   0.992   5.251   4.380 -0.5717 -1.0966  0.2899
   69MOL0     H 9289   1.165   5.234   4.637  2.4470 -0.2874 -2.7771
   69MOL0     H 9290   0.994   5.260   4.624  0.7115  1.6095  0.7341
   69MOL0     H 9291   1.157   5.000   4.631  0.7740  0.4505  0.8533
   69MOL0     H 9292   1.059   5.006   4.487 -0.8515  3.2579 -1.0375
   69MOL0     H 9293   0.940   4.891   4.672  0.4834  0.0117  2.1877
   69MOL0     H 9294   0.972   5.023   4.782  0.3568 -1.0604  0.5681
   69MOL0     H 9295   1.425   5.810   4.365 -1.1549 -0.5785 -0.2865
   69MOL0     H 9296   1.505   5.989   4.483 -1.5669  0.4772  2.7539
   69MOL0     H 9297   1.359   6.498   4.627  0.1497 -2.2017  0.0586
   69MOL0     H 9298   1.514   6.662   4.754  2.2303 -1.2947  0.1551
   69MOL0     H 9299   2.620   7.229   5.224 -3.1100 -1.3127 -2.8160
   69MOL0     H 9300   2.577   7.461   5.161 -1.6805 -3.1273  1.5569
   69MOL0     H 9301   2.812   7.966   5.218 -0.3818 -0.3439 -0.3048
   69MOL0     H 9302   2.741   8.179   5.143  2.4696  0.6351 -2.7465
   69MOL0     H 9303   2.726   8.354   5.016  0.1111  2.5101 -1.4113
   69MOL0     H 9304   2.564   8.363   5.079  0.2674 -0.9153  0.4851
   69MOL0     H 9305   2.610   8.558   4.932 -0.7117 -0.4887  2.0385
   69MOL0     H 9306   2.493   8.464   4.855  1.3506  0.1914 -1.9305
   69MOL0     H 9307   2.793   8.438   4.789 -1.1999 -1.5260  3.3848
   69MOL0     H 9308   2.687   8.556   4.708  2.6860 -1.3138 -1.2453
   69MOL0     H 9309   2.693   8.254   4.710  3.5477  2.1232  1.9214
   69MOL0     H 9310   2.539   8.344   4.667  0.7264 -1.4811 -0.6806
   69MOL0     H 9311   2.731   8.401   4.314 -0.3975 -2.9432 -1.5378
   69MOL0     H 9312   2.485   8.012   4.840 -1.5520  0.9391  0.8267
   69MOL0     H 9313   2.555   7.734   4.807 -1.3108  4.2505 -1.2167
   69MOL0     H 9314   2.522   7.651   4.970 -2.2684  1.1243  1.1518
   69MOL0     H 9315   2.414   7.776   4.908  0.8433  3.3942  1.0449
   70MOL0     O 9316   2.997   9.615   7.099 -0.4322 -0.1953 -0.4090
   70MOL0     C 9317   2.954   9.615   7.218 -0.0885  0.4468  1.6799
   70MOL0     O 9318   2.836   9.573   7.259  0.7876 -0.2578  0.1613
   70MOL0     C 9319   2.727   9.557   7.167  0.1427 -0.1180 -0.3033
   70MOL0     C 9320   2.713   9.630   7.053  0.6038  0.9460 -0.0025
   70MOL0     C 9321   2.606   9.599   6.954 -1.1821  0.2631  0.2658
   70MOL0     C 9322   2.509   9.493   6.993  0.5971 -0.8637  0.9447
   70MOL0     O 9323   2.406   9.451   6.915  0.2524 -0.4147 -0.2081
   70MOL0     C 9324   2.389   9.482   6.775  0.2798 -0.4258  0.1545
   70MOL0     C 9325   2.257   9.396   6.732 -0.7379 -0.0254 -0.2551
   70MOL0     C 9326   2.303   9.251   6.721  0.4478 -0.7311  0.2604
   70MOL0     C 9327   2.182   9.158   6.691 -0.3503 -1.1190  0.0382
   70MOL0     C 9328   2.192   9.018   6.750  0.6006  0.8688  0.4719
   70MOL0     C 9329   2.081   8.924   6.732 -0.1695 -0.2403  0.0841
   70MOL0     C 9330   2.130   8.780   6.761 -0.0851 -0.2069 -0.3774
   70MOL0     C 9331   2.002   8.690   6.779 -0.4502 -0.4269 -0.5606
   70MOL0     N 9332   1.932   8.725   6.899 -0.7966 -0.5808 -0.0592
   70MOL0     C 9333   1.813   8.795   6.914  0.1857  1.0305 -0.1752
   70MOL0     C 9334   1.779   8.781   7.038  0.3728 -0.6508  0.4274
   70MOL0     C 9335   1.649   8.826   7.098  0.0899 -0.3597  0.2203
   70MOL0     C 9336   1.666   8.869   7.246  0.1918  0.7099 -0.6655
   70MOL0     C 9337   1.532   8.927   7.292  0.4852  0.6590  0.0050
   70MOL0     C 9338   1.539   8.976   7.437  0.8017  0.4174 -0.1322
   70MOL0     O 9339   1.608   9.094   7.464 -0.0572  0.2720 -0.4012
   70MOL0     C 9340   1.646   9.130   7.589 -0.4857 -0.2910 -0.0070
   70MOL0     C 9341   1.696   9.264   7.607  0.2982 -0.4201  0.2641
   70MOL0     C 9342   1.757   9.293   7.736  0.4538 -0.2580  1.0160
   70MOL0     C 9343   1.782   9.201   7.834 -0.0634  1.0952 -0.6618
   70MOL0     C 9344   1.863   9.238   7.954  0.2847 -0.4983  0.4243
   70MOL0     O 9345   1.870   9.154   8.052  0.0839  0.6417 -0.0502
   70MOL0     C 9346   1.953   9.174   8.154  0.4322 -0.4762  0.2541
   70MOL0     C 9347   2.066   9.103   8.164  0.4357  0.8378 -0.1486
   70MOL0     C 9348   2.150   9.113   8.277 -0.3153 -0.1842 -0.9317
   70MOL0     C 9349   2.110   9.194   8.387  0.8425  0.1632 -0.2184
   70MOL0     O 9350   2.190   9.186   8.496  0.5549  0.2658 -0.2507
   70MOL0     C 9351   2.124   9.240   8.613  0.9044 -0.1870 -0.0658
   70MOL0     C 9352   2.196   9.199   8.742 -1.5396  0.3880  0.1181
   70MOL0     C 9353   2.173   9.301   8.855  0.2337  1.1838 -0.1400
   70MOL0     C 9354   2.199   9.237   8.995 -0.4247  0.1367 -0.3815
   70MOL0     C 9355   2.136   9.315   9.113 -0.3908  0.2491  0.0601
   70MOL0     C 9356   2.197   9.451   9.110  0.0247  0.6303  0.0966
   70MOL0     C 9357   2.137   9.523   9.234 -0.7927  0.0431  0.2215
   70MOL0     C 9358   2.222   9.648   9.278 -0.5870 -1.3382  0.3002
   70MOL0    Cl 9359   2.139   9.746   9.406  0.8577 -0.0643 -0.2569
   70MOL0     C 9360   1.996   9.273   8.366  0.1246 -0.0416 -0.1680
   70MOL0     C 9361   1.916   9.268   8.252 -0.8169 -0.0157 -0.2642
   70MOL0     O 9362   1.926   9.343   7.948  0.2589 -0.3314  0.0884
   70MOL0     C 9363   1.737   9.071   7.801  0.0637 -0.2546 -1.0161
   70MOL0     C 9364   1.653   9.036   7.697 -0.0988 -0.8531  0.3421
   70MOL0     N 9365   1.879   8.718   7.105 -0.1132  0.5563  0.2388
   70MOL0     N 9366   1.965   8.676   7.018  0.3568  0.1396  0.0220
   70MOL0     C 9367   2.531   9.425   7.112  0.2962 -0.0489  0.4546
   70MOL0     C 9368   2.637   9.460   7.202 -0.6565  0.2666 -0.0528
   70MOL0     C 9369   3.057   9.671   7.309 -0.7463 -0.9415  0.1777
   70MOL0     C 9370   3.008   9.701   7.441 -0.6132 -0.3355 -0.0866
   70MOL0     C 9371   3.088   9.756   7.544  0.1016  0.1648 -0.9848
   70MOL0     C 9372   3.226   9.762   7.514  0.6605 -0.4852 -0.0141
   70MOL0     O 9373   3.324   9.795   7.609  0.2759 -0.2036 -0.4131
   70MOL0     C 9374   3.282   9.843   7.734 -0.2937  0.5157 -0.5487
   70MOL0     C 9375   3.400   9.919   7.795 -0.1519  0.4426  1.2848
   70MOL0     C 9376   3.349  10.005   7.919 -0.1349 -0.4299 -1.0652
   70MOL0     C 9377   3.322   9.919   8.043 -0.5493 -0.4205  0.1702
   70MOL0     C 9378   3.347   9.991   8.164  0.3202  1.1919  0.6092
   70MOL0     C 9379   3.340  10.060   8.268 -0.0608  0.0679 -0.5468
   70MOL0     C 9380   3.281   9.741   7.388  0.2381  0.7239 -0.5069
   70MOL0     C 9381   3.198   9.686   7.282 -0.1501 -0.8664  0.3038
   70MOL0     C 9382   3.270   9.644   7.158  0.3685 -0.7592  0.0931
   70MOL0     H 9383   2.784   9.710   7.031  0.4149  1.2838  0.5796
   70MOL0     H 9384   2.601   9.653   6.860  0.6304 -2.3066 -1.4497
   70MOL0     H 9385   2.361   9.586   6.759  0.3010 -0.7513 -2.4713
   70MOL0     H 9386   2.466   9.444   6.708 -0.5706 -1.0167 -0.5110
   70MOL0     H 9387   2.237   9.419   6.627  2.8202 -3.2126 -1.8775
   70MOL0     H 9388   2.177   9.419   6.803 -1.5480 -1.5827 -0.6241
   70MOL0     H 9389   2.341   9.220   6.819  2.3909  5.0096  1.7376
   70MOL0     H 9390   2.383   9.236   6.648 -0.3676 -1.0628 -0.5829
   70MOL0     H 9391   2.087   9.199   6.728 -0.3315 -0.5765 -0.4992
   70MOL0     H 9392   2.163   9.145   6.584  2.1301  0.0903 -0.6469
   70MOL0     H 9393   2.282   8.974   6.705 -1.0103  0.1751 -2.3206
   70MOL0     H 9394   2.205   9.029   6.858 -3.7237 -1.1197  1.4103
   70MOL0     H 9395   2.008   8.969   6.801  2.4725  4.8495  0.0426
   70MOL0     H 9396   2.057   8.927   6.625  2.8775 -1.0517 -0.6960
   70MOL0     H 9397   2.189   8.783   6.853 -0.5576  0.5331 -0.0828
   70MOL0     H 9398   2.185   8.733   6.679  2.2413  0.8326  0.5144
   70MOL0     H 9399   1.935   8.689   6.692 -2.2579 -3.0849  0.7092
   70MOL0     H 9400   2.043   8.591   6.798 -2.0417 -1.2259 -1.0696
   70MOL0     H 9401   1.759   8.840   6.832  0.6194 -0.0145 -1.0722
   70MOL0     H 9402   1.615   8.917   7.048  0.5260 -0.4613 -0.2714
   70MOL0     H 9403   1.578   8.742   7.098  1.7400 -1.8188  0.9922
   70MOL0     H 9404   1.703   8.788   7.309  0.8715  0.0145 -1.9162
   70MOL0     H 9405   1.742   8.947   7.241  1.8963 -0.9157 -1.5246
   70MOL0     H 9406   1.452   8.853   7.280 -0.2946  1.6871 -1.3759
   70MOL0     H 9407   1.504   9.015   7.233 -3.2279  0.0896  0.6515
   70MOL0     H 9408   1.586   8.894   7.494 -0.7478  0.8176  1.8191
   70MOL0     H 9409   1.438   8.977   7.479  2.2105 -0.5264  3.6274
   70MOL0     H 9410   1.677   9.327   7.520 -1.7552 -0.8812  0.3279
   70MOL0     H 9411   1.781   9.399   7.736 -1.3272  0.2207 -1.1956
   70MOL0     H 9412   2.087   9.025   8.091 -0.1099  1.4176 -0.9331
   70MOL0     H 9413   2.245   9.059   8.284  1.1123  2.0224 -1.9945
   70MOL0     H 9414   2.130   9.349   8.604 -1.4989  0.0621  0.4758
   70MOL0     H 9415   2.019   9.211   8.625  0.2508  2.2354  0.6559
   70MOL0     H 9416   2.157   9.100   8.769 -1.1650  0.8368  2.5705
   70MOL0     H 9417   2.302   9.192   8.716 -1.9423 -1.8836 -1.1937
   70MOL0     H 9418   2.247   9.382   8.847  2.6075 -0.8565 -0.1622
   70MOL0     H 9419   2.071   9.342   8.855  0.1928  1.1124 -1.1347
   70MOL0     H 9420   2.305   9.222   9.019 -0.5403 -1.9058 -1.0192
   70MOL0     H 9421   2.158   9.136   8.997  2.8788 -1.3219  1.7225
   70MOL0     H 9422   2.169   9.269   9.207 -1.8618  2.0102  1.5083
   70MOL0     H 9423   2.027   9.317   9.117 -0.4653 -1.8763  0.7263
   70MOL0     H 9424   2.306   9.443   9.113  0.1924  2.5281  1.0948
   70MOL0     H 9425   2.163   9.496   9.016 -0.9348  1.3657  0.7676
   70MOL0     H 9426   2.125   9.460   9.323  0.6812 -1.4717 -0.5997
   70MOL0     H 9427   2.031   9.536   9.213 -0.7435 -2.4763 -2.0108
   70MOL0     H 9428   2.316   9.614   9.321 -0.6357 -1.5780  0.2194
   70MOL0     H 9429   2.237   9.710   9.189 -2.7015  0.6113  1.1960
   70MOL0     H 9430   1.974   9.344   8.446 -2.1170 -0.6311 -0.1808
   70MOL0     H 9431   1.839   9.340   8.227 -0.8431 -0.6353 -2.1244
   70MOL0     H 9432   1.749   8.994   7.877  1.4501 -1.0966 -2.0446
   70MOL0     H 9433   1.614   8.935   7.688 -0.4850 -0.5569 -2.1001
   70MOL0     H 9434   2.455   9.350   7.133 -0.5198  0.1598 -1.5398
   70MOL0     H 9435   2.642   9.405   7.295 -1.5074  0.2201 -0.0279
   70MOL0     H 9436   2.903   9.692   7.467 -0.0246 -1.0378  2.3113
   70MOL0     H 9437   3.045   9.770   7.643  0.3978  1.6180 -1.0337
   70MOL0     H 9438   3.258   9.758   7.799  0.8928 -0.0506 -0.8131
   70MOL0     H 9439   3.200   9.913   7.720  0.1476  1.2221  0.3385
   70MOL0     H 9440   3.434   9.989   7.718  2.0747  0.2154  1.9794
   70MOL0     H 9441   3.480   9.851   7.824  0.0684  0.1431  0.0307
   70MOL0     H 9442   3.257  10.063   7.907 -0.9127 -1.3244  0.3659
   70MOL0     H 9443   3.425  10.077   7.949 -0.7645 -1.8176  5.3318
   70MOL0     H 9444   3.215   9.897   8.048 -1.1130  1.9295 -0.2976
   70MOL0     H 9445   3.385   9.829   8.044  0.6125  0.3098 -1.5698
   70MOL0     H 9446   3.332  10.106   8.365 -0.8040 -0.1500 -0.5021
   70MOL0     H 9447   3.389   9.731   7.380 -0.0125 -0.4361 -4.5305
   70MOL0     H 9448   3.234   9.547   7.122  0.6839  0.3630 -3.6117
   70MOL0     H 9449   3.241   9.711   7.077 -0.9672 -1.0043  0.3403
   70MOL0     H 9450   3.377   9.639   7.177  0.3579 -0.0497  0.3461
   71MOL0     O 9451   2.033   2.144   4.523  0.4922  0.4006  0.6651
   71MOL0     C 9452   2.162   2.140   4.518  0.0467  0.5915 -0.8912
   71MOL0     O 9453   2.232   2.026   4.521  0.4211 -0.3277  0.2623
   71MOL0     C 9454   2.159   1.902   4.514  0.4736 -0.4696  0.6099
   71MOL0     C 9455   2.067   1.860   4.611  0.4071 -0.2042 -0.0704
   71MOL0     C 9456   1.994   1.747   4.605 -0.3192  0.2255 -0.0538
   71MOL0     C 9457   2.001   1.662   4.490 -0.3860  0.8832  0.0702
   71MOL0     O 9458   1.929   1.540   4.475  0.3224 -0.7701 -0.1442
   71MOL0     C 9459   1.915   1.460   4.593  0.0469  0.9566 -0.0783
   71MOL0     C 9460   1.838   1.331   4.553  0.6973  0.0780  0.1305
   71MOL0     C 9461   1.799   1.252   4.681 -0.0042  1.0627 -1.2520
   71MOL0     C 9462   1.671   1.165   4.675  0.0039 -0.8228  0.3250
   71MOL0     C 9463   1.654   1.055   4.771  0.1542 -0.5492 -0.6473
   71MOL0     C 9464   1.756   0.951   4.811  0.1283 -0.6326 -0.4219
   71MOL0     C 9465   1.690   0.819   4.852  0.0446  0.5471 -0.2119
   71MOL0     C 9466   1.599   0.835   4.971 -0.2220  0.1710 -0.3277
   71MOL0     N 9467   1.547   0.698   5.002  0.5760  0.0046 -0.1684
   71MOL0     C 9468   1.579   0.621   5.110 -0.7407 -0.4085  0.4099
   71MOL0     C 9469   1.499   0.512   5.096  0.0366 -0.2746 -1.0029
   71MOL0     C 9470   1.489   0.408   5.213  0.1036 -0.2322  0.0220
   71MOL0     C 9471   1.441   0.265   5.160 -0.5202 -0.3194 -0.9710
   71MOL0     C 9472   1.448   0.153   5.271  0.4317 -0.2069  0.0262
   71MOL0     C 9473   1.537   0.031   5.253 -0.3237 -1.2200 -0.2377
   71MOL0     O 9474   1.672   0.071   5.273 -0.1724  0.2886 -0.1552
   71MOL0     C 9475   1.769  -0.022   5.279  0.8468  0.7160 -0.3429
   71MOL0     C 9476   1.748  -0.161   5.274 -0.2304 -0.5709  0.1961
   71MOL0     C 9477   1.861  -0.238   5.266  0.1070  0.4212  0.4326
   71MOL0     C 9478   1.996  -0.193   5.267  0.5617 -0.1468  0.2034
   71MOL0     C 9479   2.107  -0.285   5.244  0.4105 -0.3822  0.4664
   71MOL0     O 9480   2.080  -0.417   5.223  0.1545 -0.2072 -0.0492
   71MOL0     C 9481   2.184  -0.509   5.219 -0.3322  0.3453 -0.5470
   71MOL0     C 9482   2.265  -0.553   5.319  0.6523 -0.0874 -0.3074
   71MOL0     C 9483   2.351  -0.651   5.289 -0.3600 -0.1248 -0.1447
   71MOL0     C 9484   2.351  -0.723   5.171  0.1823  0.2488 -0.1211
   71MOL0     O 9485   2.431  -0.838   5.174  0.2090  0.2960  0.2563
   71MOL0     C 9486   2.492  -0.865   5.045 -0.9385 -0.1054 -0.0456
   71MOL0     C 9487   2.600  -0.968   5.069  0.6457 -1.4227 -0.1358
   71MOL0     C 9488   2.574  -1.096   5.148  0.2849  0.1206 -0.3700
   71MOL0     C 9489   2.699  -1.188   5.165  0.5277 -1.5224 -0.2554
   71MOL0     C 9490   2.736  -1.264   5.044  0.8984 -0.5082  0.4077
   71MOL0     C 9491   2.644  -1.380   5.011 -0.2704 -0.2678  0.4963
   71MOL0     C 9492   2.674  -1.443   4.872 -0.0178  0.2604  0.4369
   71MOL0     C 9493   2.563  -1.542   4.835 -0.6829 -0.0810  0.0884
   71MOL0    Cl 9494   2.589  -1.685   4.939  0.4420 -0.2085 -0.3158
   71MOL0     C 9495   2.277  -0.672   5.065  0.4184 -0.0449  1.2513
   71MOL0     C 9496   2.182  -0.572   5.091 -0.2718 -0.8310 -0.6811
   71MOL0     O 9497   2.215  -0.235   5.264  0.1995 -0.0716 -0.6141
   71MOL0     C 9498   2.010  -0.055   5.289  0.0891 -0.5586 -0.8405
   71MOL0     C 9499   1.897   0.026   5.301 -0.2052 -0.5018 -0.6222
   71MOL0     N 9500   1.429   0.513   4.981 -0.9785 -0.8700 -0.5075
   71MOL0     N 9501   1.456   0.625   4.926  0.8143  0.0072  0.1573
   71MOL0     C 9502   2.104   1.696   4.396  0.3876  0.2069  0.5199
   71MOL0     C 9503   2.172   1.818   4.407 -0.0832 -0.7491  0.6365
   71MOL0     C 9504   2.243   2.265   4.505  0.8177 -0.5719 -0.5598
   71MOL0     C 9505   2.387   2.260   4.525 -0.6643  0.1383 -0.5194
   71MOL0     C 9506   2.462   2.377   4.515  0.3094 -0.2982 -0.2757
   71MOL0     C 9507   2.406   2.497   4.483 -0.6520 -0.6269  0.3070
   71MOL0     O 9508   2.494   2.607   4.469 -0.4210 -0.1107 -0.4429
   71MOL0     C 9509   2.451   2.739   4.492  0.2952  0.8285 -1.8242
   71MOL0     C 9510   2.542   2.840   4.421  0.6893  0.1139 -0.9992
   71MOL0     C 9511   2.537   2.838   4.278  0.8011 -0.4722  0.0200
   71MOL0     C 9512   2.634   2.936   4.219  0.7747  0.7256  1.1386
   71MOL0     C 9513   2.657   2.935   4.068  0.6967  0.3615 -0.3484
   71MOL0     C 9514   2.655   2.935   3.949  0.7506  0.3978 -0.1195
   71MOL0     C 9515   2.268   2.500   4.454  0.5376  0.3614  0.6117
   71MOL0     C 9516   2.187   2.383   4.465  0.8746  0.0191 -0.0017
   71MOL0     C 9517   2.040   2.414   4.450  0.4577  0.5360 -0.0947
   71MOL0     H 9518   2.044   1.921   4.697 -1.6004  0.3059 -0.9269
   71MOL0     H 9519   1.929   1.728   4.690  1.2756 -2.3588  0.6812
   71MOL0     H 9520   2.017   1.437   4.625 -1.0227 -1.9381  1.6105
   71MOL0     H 9521   1.856   1.517   4.664 -4.1227  2.0669 -3.9682
   71MOL0     H 9522   1.899   1.273   4.483 -0.1960 -1.9428  0.9289
   71MOL0     H 9523   1.744   1.346   4.498  0.3842 -0.2587  0.5582
   71MOL0     H 9524   1.773   1.325   4.758 -0.8995  1.8644 -2.2790
   71MOL0     H 9525   1.891   1.199   4.709 -1.4689  0.2493  2.6707
   71MOL0     H 9526   1.594   1.241   4.690  0.3257  0.8327 -4.5670
   71MOL0     H 9527   1.641   1.135   4.574  0.4041  2.1992 -0.7805
   71MOL0     H 9528   1.620   1.108   4.860 -1.7128 -1.8392 -0.5583
   71MOL0     H 9529   1.562   1.004   4.741  0.1741 -0.8328 -0.2210
   71MOL0     H 9530   1.810   0.936   4.717 -2.2892 -1.6660 -1.7372
   71MOL0     H 9531   1.812   0.990   4.896 -3.5883 -2.2781  3.1425
   71MOL0     H 9532   1.765   0.741   4.864  1.9788  2.0792 -1.7100
   71MOL0     H 9533   1.629   0.792   4.765  0.5636  0.9824 -0.7162
   71MOL0     H 9534   1.650   0.869   5.061  0.4002 -1.2525 -0.1099
   71MOL0     H 9535   1.515   0.900   4.946  2.0161  2.3992 -2.6269
   71MOL0     H 9536   1.659   0.634   5.182 -0.6147 -1.5577  0.5048
   71MOL0     H 9537   1.581   0.404   5.272  1.5061 -0.0018 -2.0407
   71MOL0     H 9538   1.414   0.450   5.281 -0.9041 -0.8449 -0.6800
   71MOL0     H 9539   1.343   0.269   5.113 -0.6008 -2.6467 -1.0967
   71MOL0     H 9540   1.514   0.240   5.082 -0.8816 -1.4377 -0.9654
   71MOL0     H 9541   1.346   0.143   5.310  0.2056  4.2388  1.0588
   71MOL0     H 9542   1.484   0.205   5.361  0.0378  0.7817 -0.3717
   71MOL0     H 9543   1.535  -0.021   5.156 -0.1962 -0.7458 -0.5026
   71MOL0     H 9544   1.511  -0.048   5.323 -0.5419  0.5063  1.7074
   71MOL0     H 9545   1.649  -0.202   5.261 -1.2540  0.8299  2.7281
   71MOL0     H 9546   1.854  -0.346   5.260 -2.1481  0.5590 -0.4628
   71MOL0     H 9547   2.252  -0.527   5.424 -1.7344 -1.6564 -0.1497
   71MOL0     H 9548   2.424  -0.690   5.359  0.9013 -3.7903 -3.1293
   71MOL0     H 9549   2.430  -0.903   4.963  1.8240 -0.6160 -2.0379
   71MOL0     H 9550   2.536  -0.770   5.012 -2.7277  1.6709  2.3397
   71MOL0     H 9551   2.642  -1.004   4.975 -1.9978 -2.3305 -1.0690
   71MOL0     H 9552   2.685  -0.918   5.116  1.0596 -1.5808 -0.7038
   71MOL0     H 9553   2.529  -1.077   5.246 -0.6769  1.3244 -1.0140
   71MOL0     H 9554   2.499  -1.158   5.099  1.6785 -3.8140  1.9896
   71MOL0     H 9555   2.685  -1.260   5.246 -0.7197 -2.0251 -0.8847
   71MOL0     H 9556   2.782  -1.119   5.184 -0.0554 -0.5257 -1.1900
   71MOL0     H 9557   2.836  -1.308   5.048  1.1348 -0.4193 -2.4184
   71MOL0     H 9558   2.741  -1.196   4.958  0.0799 -0.8315  0.0917
   71MOL0     H 9559   2.653  -1.462   5.084 -0.8158 -0.8993 -0.1318
   71MOL0     H 9560   2.547  -1.332   4.996  0.6116  0.6225 -3.5680
   71MOL0     H 9561   2.764  -1.505   4.861  1.1943  2.4051 -6.3816
   71MOL0     H 9562   2.698  -1.367   4.798  2.0391 -2.0850 -1.4667
   71MOL0     H 9563   2.463  -1.505   4.861 -0.4282  0.8449 -0.2041
   71MOL0     H 9564   2.570  -1.576   4.732 -2.3162 -1.7247  0.4721
   71MOL0     H 9565   2.290  -0.724   4.971  0.6993 -0.4772  1.5207
   71MOL0     H 9566   2.114  -0.546   5.011 -0.6527  0.1467 -0.0617
   71MOL0     H 9567   2.110  -0.015   5.292  0.0997 -0.6616  1.4798
   71MOL0     H 9568   1.896   0.134   5.316 -3.2561 -0.6229  0.7220
   71MOL0     H 9569   2.120   1.629   4.312 -1.1411  0.2837  0.1263
   71MOL0     H 9570   2.250   1.848   4.338  2.7808  2.4097  4.7700
   71MOL0     H 9571   2.444   2.170   4.546 -2.5103 -0.4676  2.3526
   71MOL0     H 9572   2.568   2.353   4.523 -0.2403 -3.6105 -1.1658
   71MOL0     H 9573   2.439   2.748   4.600 -0.9690 -3.9549 -1.3261
   71MOL0     H 9574   2.348   2.757   4.461 -0.6816  1.8985  1.6014
   71MOL0     H 9575   2.647   2.820   4.445  0.1143 -2.6822 -0.4295
   71MOL0     H 9576   2.500   2.936   4.453 -0.0953 -0.0819 -1.4093
   71MOL0     H 9577   2.439   2.855   4.232  0.6767  2.3549  1.1064
   71MOL0     H 9578   2.576   2.739   4.252  1.9693  0.0855 -0.4160
   71MOL0     H 9579   2.588   3.032   4.245  0.3498 -0.0123  3.2846
   71MOL0     H 9580   2.732   2.922   4.264  1.9375 -1.7625 -1.8122
   71MOL0     H 9581   2.640   2.970   3.849  0.3919  1.1963  0.2067
   71MOL0     H 9582   2.224   2.597   4.434  2.8476  1.1311 -1.2441
   71MOL0     H 9583   2.031   2.512   4.401 -0.2915  0.3942 -0.2575
   71MOL0     H 9584   2.010   2.344   4.371  1.0355  0.0372  0.1226
   71MOL0     H 9585   1.970   2.402   4.533  0.6233  3.0301  0.4934
   72MOL0     O 9586   1.292   5.134   9.402  0.1582 -0.4192  0.1294
   72MOL0     C 9587   1.346   5.042   9.342 -0.7579 -0.2996  0.1491
   72MOL0     O 9588   1.447   4.962   9.381  0.6170 -0.4833 -0.6966
   72MOL0     C 9589   1.500   4.987   9.501  0.9581  0.5620 -0.4081
   72MOL0     C 9590   1.637   4.987   9.525  0.2744 -0.0794  0.1625
   72MOL0     C 9591   1.703   5.028   9.649 -0.3867  0.6335 -0.1911
   72MOL0     C 9592   1.620   5.077   9.748  0.0273  0.0450  0.1642
   72MOL0     O 9593   1.669   5.121   9.864 -0.1749 -0.3777 -0.3054
   72MOL0     C 9594   1.801   5.182   9.861  0.3301 -0.3889 -0.0284
   72MOL0     C 9595   1.813   5.259   9.997  0.7626  0.6274  0.7418
   72MOL0     C 9596   1.740   5.393   9.999 -1.5526  0.2135  0.2636
   72MOL0     C 9597   1.766   5.453  10.140 -0.2007 -0.3111 -0.0131
   72MOL0     C 9598   1.728   5.599  10.155 -0.6851  0.4999 -0.1559
   72MOL0     C 9599   1.656   5.615  10.285  0.3712 -0.4674  0.6909
   72MOL0     C 9600   1.740   5.610  10.414  0.3289  0.6557  0.4026
   72MOL0     C 9601   1.722   5.714  10.532 -0.0430 -0.2467  0.7664
   72MOL0     N 9602   1.701   5.860  10.489  1.0291  0.7191 -0.0157
   72MOL0     C 9603   1.678   5.954  10.588 -0.0613 -1.3876  0.1128
   72MOL0     C 9604   1.683   6.073  10.526  0.7295  0.2922 -0.0665
   72MOL0     C 9605   1.640   6.209  10.578 -0.4075 -0.0367 -1.1819
   72MOL0     C 9606   1.488   6.238  10.542 -0.3038 -0.0541 -0.1712
   72MOL0     C 9607   1.429   6.352  10.624 -0.4772  0.1137  0.1395
   72MOL0     C 9608   1.502   6.489  10.613 -0.0165 -0.0744  0.1984
   72MOL0     O 9609   1.405   6.598  10.621  0.1482  1.1605 -0.3010
   72MOL0     C 9610   1.438   6.726  10.592 -0.1440  0.4226 -0.0420
   72MOL0     C 9611   1.555   6.779  10.630  0.2331  0.0584  0.5670
   72MOL0     C 9612   1.569   6.914  10.604 -0.0868  0.5870  0.0399
   72MOL0     C 9613   1.462   6.992  10.570 -0.1947  1.0311 -0.4828
   72MOL0     C 9614   1.481   7.136  10.563  0.0011  0.4305 -0.4181
   72MOL0     O 9615   1.604   7.191  10.602  0.7854  0.4670 -0.1480
   72MOL0     C 9616   1.647   7.315  10.577 -0.3351 -0.0983  0.5307
   72MOL0     C 9617   1.759   7.351  10.647 -0.9054 -0.2437  0.1314
   72MOL0     C 9618   1.830   7.470  10.619  0.1577  0.6777  0.2456
   72MOL0     C 9619   1.789   7.564  10.529  0.2337  0.8462 -0.0167
   72MOL0     O 9620   1.860   7.682  10.517 -0.2805 -0.0500 -1.1010
   72MOL0     C 9621   1.920   7.689  10.384 -0.6078 -0.7702  0.2825
   72MOL0     C 9622   1.970   7.835  10.385 -0.3782 -0.0742  0.6030
   72MOL0     C 9623   2.021   7.875  10.248  0.5682 -0.0085 -0.2554
   72MOL0     C 9624   2.055   8.025  10.250  0.3646  0.5212  0.1963
   72MOL0     C 9625   2.080   8.073  10.104  0.2876 -0.0062  0.3025
   72MOL0     C 9626   2.132   8.220  10.112  0.2046 -0.5804 -0.3923
   72MOL0     C 9627   2.162   8.264   9.967 -0.8525 -0.0146 -0.3351
   72MOL0     C 9628   2.221   8.400   9.972 -0.2025 -0.5374 -0.2688
   72MOL0    Cl 9629   2.290   8.454   9.823  0.1865  0.1223  0.3593
   72MOL0     C 9630   1.669   7.533  10.455  0.6737  0.8533  0.7533
   72MOL0     C 9631   1.611   7.403  10.479  0.5942 -0.9766  0.1873
   72MOL0     O 9632   1.392   7.205  10.511  0.7115  0.4596 -0.0676
   72MOL0     C 9633   1.341   6.932  10.523 -0.3118  0.4387 -0.1813
   72MOL0     C 9634   1.336   6.800  10.538 -0.4720  0.3614  0.2209
   72MOL0     N 9635   1.725   6.051  10.398  0.0019  0.7204  0.5003
   72MOL0     N 9636   1.748   5.925  10.374  0.5759 -0.1599  0.1797
   72MOL0     C 9637   1.480   5.066   9.737 -0.5497  0.4794  0.5760
   72MOL0     C 9638   1.426   5.021   9.614 -0.1245  0.6092 -0.7677
   72MOL0     C 9639   1.313   5.012   9.199 -0.2985 -0.9301 -0.1003
   72MOL0     C 9640   1.401   4.923   9.132  0.5649  0.8361  0.0742
   72MOL0     C 9641   1.373   4.890   9.005  0.1323  0.7768  0.2653
   72MOL0     C 9642   1.265   4.934   8.934 -0.3967  0.5242 -0.4255
   72MOL0     O 9643   1.255   4.894   8.801 -0.4882 -0.9220 -0.2268
   72MOL0     C 9644   1.195   4.977   8.698 -0.3813  0.0377 -0.1856
   72MOL0     C 9645   1.051   4.925   8.685  0.5643 -0.1054  0.2199
   72MOL0     C 9646   1.062   4.776   8.642 -0.4474 -0.9335  0.0834
   72MOL0     C 9647   0.935   4.730   8.562 -0.3735 -0.6092 -1.1201
   72MOL0     C 9648   0.811   4.764   8.635  0.0164  1.0446  0.7942
   72MOL0     C 9649   0.694   4.787   8.671 -0.0221  1.0399  0.1945
   72MOL0     C 9650   1.181   5.023   8.990 -0.9140 -0.1110 -0.3178
   72MOL0     C 9651   1.202   5.072   9.131  0.3556  0.5051  0.1467
   72MOL0     C 9652   1.105   5.174   9.187  0.3008  0.0731  0.4699
   72MOL0     H 9653   1.705   4.972   9.442 -2.5092  1.9601 -2.7129
   72MOL0     H 9654   1.810   5.020   9.667 -0.7286 -0.5920  1.4779
   72MOL0     H 9655   1.884   5.111   9.863  0.8722  0.2505  1.9188
   72MOL0     H 9656   1.806   5.248   9.774 -1.7328  2.4904  1.8672
   72MOL0     H 9657   1.918   5.279  10.015  1.0765  0.4974 -0.7658
   72MOL0     H 9658   1.770   5.192  10.072 -0.3511 -0.4707 -0.8011
   72MOL0     H 9659   1.632   5.385   9.985 -1.3297  0.5183 -1.9965
   72MOL0     H 9660   1.779   5.461   9.923  1.3789 -4.4584 -3.0029
   72MOL0     H 9661   1.712   5.387  10.208  0.5995 -1.4721 -0.4746
   72MOL0     H 9662   1.873   5.441  10.163 -0.3691 -2.1754 -0.0409
   72MOL0     H 9663   1.821   5.656  10.164  0.4261 -1.5458  2.6718
   72MOL0     H 9664   1.673   5.638  10.068  0.1201  0.9840 -0.4532
   72MOL0     H 9665   1.615   5.716  10.273 -1.2458 -1.2067 -0.4952
   72MOL0     H 9666   1.560   5.562  10.294  0.0117  0.3780  2.2235
   72MOL0     H 9667   1.842   5.614  10.376 -0.2869 -1.4813 -1.7362
   72MOL0     H 9668   1.718   5.515  10.464 -3.8675  1.8354  1.1400
   72MOL0     H 9669   1.649   5.672  10.602 -0.2837  2.9754  2.6343
   72MOL0     H 9670   1.815   5.707  10.589  1.3440 -4.2022 -1.5406
   72MOL0     H 9671   1.652   5.936  10.692 -1.2751  3.2392  0.8085
   72MOL0     H 9672   1.640   6.220  10.686 -2.2987 -2.7297 -0.7912
   72MOL0     H 9673   1.717   6.276  10.538  1.7735  1.8513  5.0683
   72MOL0     H 9674   1.481   6.263  10.436  1.7699 -1.0202 -0.5849
   72MOL0     H 9675   1.433   6.144  10.553 -0.0106 -0.1686  0.3507
   72MOL0     H 9676   1.420   6.319  10.728 -0.0032  1.5053  0.6524
   72MOL0     H 9677   1.330   6.366  10.580 -0.7770  0.7041  0.9769
   72MOL0     H 9678   1.549   6.490  10.514  2.5618 -0.9037  1.3192
   72MOL0     H 9679   1.580   6.497  10.689 -0.0184  0.4691  0.1502
   72MOL0     H 9680   1.637   6.722  10.673  3.0031  1.9283 -1.8135
   72MOL0     H 9681   1.670   6.954  10.613 -0.4106  1.0843  7.8166
   72MOL0     H 9682   1.815   7.274  10.699 -0.4243 -0.4888 -0.7187
   72MOL0     H 9683   1.921   7.495  10.672 -0.7176  1.9131  1.2061
   72MOL0     H 9684   2.000   7.614  10.383  0.7031  0.5868  0.6420
   72MOL0     H 9685   1.847   7.668  10.304 -0.9047  2.1718 -0.3122
   72MOL0     H 9686   1.892   7.902  10.422 -0.5472 -0.6454  1.2975
   72MOL0     H 9687   2.050   7.840  10.458  0.3027 -1.8275  0.0253
   72MOL0     H 9688   2.101   7.810  10.211  0.0802  0.3432 -2.0017
   72MOL0     H 9689   1.942   7.861  10.174 -1.1903  1.9522  1.1254
   72MOL0     H 9690   2.138   8.034  10.321 -0.1571 -1.3533  1.1201
   72MOL0     H 9691   1.966   8.073  10.292 -1.7293 -0.8036 -2.4198
   72MOL0     H 9692   1.990   8.079  10.042  2.1321  2.0233 -2.3823
   72MOL0     H 9693   2.141   7.998  10.053  0.3886 -1.1635  2.0236
   72MOL0     H 9694   2.067   8.294  10.159  0.9705 -0.3999  0.4064
   72MOL0     H 9695   2.225   8.224  10.170 -0.6950 -0.0236  1.0646
   72MOL0     H 9696   2.071   8.262   9.906 -2.0612 -4.7000  1.1774
   72MOL0     H 9697   2.239   8.196   9.928 -1.2834 -0.5999 -0.1886
   72MOL0     H 9698   2.137   8.464  10.002  0.1279 -0.8644  1.5250
   72MOL0     H 9699   2.294   8.414  10.052 -0.2550  2.6866 -0.6232
   72MOL0     H 9700   1.627   7.602  10.382 -0.3709  0.9738  1.4520
   72MOL0     H 9701   1.521   7.381  10.422 -1.2865  1.1880  2.0723
   72MOL0     H 9702   1.256   6.992  10.491 -1.5745 -0.8745  0.5543
   72MOL0     H 9703   1.242   6.747  10.525 -2.4940  3.1853  2.2481
   72MOL0     H 9704   1.416   5.101   9.817 -1.5598  0.5214 -0.2318
   72MOL0     H 9705   1.317   5.018   9.614 -0.1276  0.7018 -0.2521
   72MOL0     H 9706   1.488   4.875   9.176 -0.2375  0.6654  1.5303
   72MOL0     H 9707   1.440   4.822   8.953  0.0876 -1.4561  2.9076
   72MOL0     H 9708   1.249   4.947   8.608 -0.4889  3.7182 -1.6576
   72MOL0     H 9709   1.204   5.083   8.721  0.2284 -0.3522  1.5113
   72MOL0     H 9710   0.991   4.978   8.611 -1.4260  1.4784  2.7787
   72MOL0     H 9711   1.004   4.926   8.784  1.3019  1.4009  0.5793
   72MOL0     H 9712   1.079   4.712   8.729 -1.4999  1.2279  1.9957
   72MOL0     H 9713   1.155   4.763   8.586  1.7603  1.4855  2.8386
   72MOL0     H 9714   0.932   4.772   8.462 -1.0060  0.2334 -0.7639
   72MOL0     H 9715   0.933   4.623   8.541 -1.4393 -0.8702  0.1501
   72MOL0     H 9716   0.599   4.816   8.711 -2.0298 -0.3533 -3.1923
   72MOL0     H 9717   1.091   5.056   8.940 -0.7406 -1.0146 -1.2712
   72MOL0     H 9718   1.012   5.159   9.132  0.6724 -1.2778  0.1873
   72MOL0     H 9719   1.067   5.140   9.283 -5.0198 -1.2999 -1.7603
   72MOL0     H 9720   1.138   5.279   9.183 -1.3934  0.6162 -1.9857
   73MOL0     O 9721   3.335   3.127   4.723 -0.1842 -1.1204 -0.2809
   73MOL0     C 9722   3.314   3.029   4.800 -0.3230 -0.3349  0.7462
   73MOL0     O 9723   3.355   2.907   4.765  0.2986  1.0131 -0.2530
   73MOL0     C 9724   3.419   2.883   4.643 -0.4093 -0.1032  0.7504
   73MOL0     C 9725   3.565   2.872   4.632  0.4076  0.4916 -0.5084
   73MOL0     C 9726   3.625   2.844   4.512 -0.2155 -0.0324  0.2841
   73MOL0     C 9727   3.538   2.807   4.399 -0.3737  0.0649 -0.5657
   73MOL0     O 9728   3.601   2.761   4.276  0.0828  0.2619 -0.3533
   73MOL0     C 9729   3.512   2.759   4.163 -0.5060 -0.6653  0.5508
   73MOL0     C 9730   3.579   2.661   4.064 -0.5444 -0.5494 -0.1561
   73MOL0     C 9731   3.575   2.521   4.109  0.0811 -0.2580  0.8533
   73MOL0     C 9732   3.570   2.417   3.998 -0.2078  0.2007  0.1123
   73MOL0     C 9733   3.493   2.279   4.035 -0.4115 -0.6862  0.5405
   73MOL0     C 9734   3.566   2.226   4.156 -0.1575  1.1546 -0.0478
   73MOL0     C 9735   3.485   2.116   4.247 -0.0687 -0.5827 -0.0878
   73MOL0     C 9736   3.453   1.987   4.175  0.2159  0.1958 -0.1050
   73MOL0     N 9737   3.334   1.920   4.230 -0.0255 -0.8686  0.4237
   73MOL0     C 9738   3.311   1.789   4.227 -0.8929 -0.2661 -0.7002
   73MOL0     C 9739   3.182   1.769   4.254  0.8644 -0.1342  0.0439
   73MOL0     C 9740   3.109   1.639   4.279 -0.3305  0.1743 -1.2621
   73MOL0     C 9741   3.209   1.526   4.325 -0.1262 -0.0956 -0.8015
   73MOL0     C 9742   3.312   1.461   4.216 -0.2629  0.0762  0.3948
   73MOL0     C 9743   3.244   1.452   4.081  0.0753  0.4910 -0.2780
   73MOL0     O 9744   3.324   1.385   3.972  0.3879 -0.2241  0.3744
   73MOL0     C 9745   3.262   1.369   3.848 -0.4748 -0.0844 -0.4820
   73MOL0     C 9746   3.331   1.286   3.769  0.0739 -0.9236 -0.0585
   73MOL0     C 9747   3.273   1.257   3.651 -0.2410 -0.6611 -0.6489
   73MOL0     C 9748   3.149   1.303   3.613  0.0793 -0.1677 -0.8086
   73MOL0     C 9749   3.076   1.254   3.496  0.3337 -1.0167 -0.3949
   73MOL0     O 9750   2.973   1.331   3.445 -0.0960  0.1707 -0.6420
   73MOL0     C 9751   2.878   1.288   3.360 -0.2636 -0.6850  0.7438
   73MOL0     C 9752   2.794   1.398   3.308 -0.4592  0.4563 -0.4695
   73MOL0     C 9753   2.689   1.366   3.229 -0.9203 -1.2953  0.4333
   73MOL0     C 9754   2.645   1.238   3.206  0.2429  0.2165  0.0929
   73MOL0     O 9755   2.524   1.222   3.132 -0.4508 -0.0277  0.5080
   73MOL0     C 9756   2.482   1.095   3.099  0.4355 -0.1160 -0.6495
   73MOL0     C 9757   2.332   1.123   3.054 -0.6146 -0.2139  0.4666
   73MOL0     C 9758   2.239   1.017   3.110 -0.8282  0.0747 -0.2806
   73MOL0     C 9759   2.102   1.060   3.096  0.2328  1.3568 -0.0052
   73MOL0     C 9760   1.998   0.977   3.162  0.1733  0.5547  0.1574
   73MOL0     C 9761   1.996   0.976   3.321  0.5928 -0.5732 -0.3063
   73MOL0     C 9762   1.892   0.876   3.384  0.1143 -1.0326  0.5228
   73MOL0     C 9763   1.748   0.885   3.328  0.0430 -1.0920 -0.3234
   73MOL0    Cl 9764   1.681   1.049   3.350  0.0017 -0.3326 -0.0889
   73MOL0     C 9765   2.729   1.135   3.256 -0.0656  0.0248 -0.5466
   73MOL0     C 9766   2.848   1.157   3.325  0.9512 -0.7349 -1.1612
   73MOL0     O 9767   3.130   1.159   3.439  0.4705 -0.5634  0.2308
   73MOL0     C 9768   3.088   1.403   3.693 -0.3293 -0.1569 -1.1376
   73MOL0     C 9769   3.146   1.442   3.816 -0.4560  0.8081 -0.5029
   73MOL0     N 9770   3.128   1.900   4.235  0.2438  0.4858 -0.6906
   73MOL0     N 9771   3.220   1.987   4.229  1.1986  0.2430  1.0601
   73MOL0     C 9772   3.401   2.821   4.412 -0.5252  0.5179  0.1219
   73MOL0     C 9773   3.339   2.865   4.530 -0.3202 -0.4338 -0.5816
   73MOL0     C 9774   3.273   3.049   4.945 -0.5987 -0.5614  0.3235
   73MOL0     C 9775   3.337   2.967   5.045  0.2890  0.5871  0.3048
   73MOL0     C 9776   3.279   2.965   5.170  0.0516  0.1000  0.7951
   73MOL0     C 9777   3.160   3.030   5.213 -0.3767 -0.4439  0.6196
   73MOL0     O 9778   3.126   3.006   5.347 -0.4069 -0.8057  0.6604
   73MOL0     C 9779   3.016   3.088   5.398 -0.3171 -0.2058 -0.4196
   73MOL0     C 9780   3.075   3.214   5.462  0.7803 -0.0525  0.6892
   73MOL0     C 9781   2.954   3.296   5.524 -0.1815 -0.7921 -0.0945
   73MOL0     C 9782   2.990   3.443   5.569  0.7299  0.2904  0.4632
   73MOL0     C 9783   3.056   3.427   5.700 -0.5499  0.7997  0.1240
   73MOL0     C 9784   3.113   3.410   5.804 -0.7428  0.7928  0.1516
   73MOL0     C 9785   3.109   3.117   5.116  0.6280 -0.3665 -0.5146
   73MOL0     C 9786   3.161   3.129   4.985 -0.2386 -0.1184 -0.0284
   73MOL0     C 9787   3.065   3.189   4.878 -0.2771 -0.0504  1.4961
   73MOL0     H 9788   3.625   2.893   4.720 -2.7510  2.2622  1.3853
   73MOL0     H 9789   3.732   2.852   4.496 -0.0877 -0.5388  0.8492
   73MOL0     H 9790   3.406   2.733   4.173 -1.4722  2.0403 -1.4870
   73MOL0     H 9791   3.522   2.861   4.127  0.3870 -1.7200 -2.4752
   73MOL0     H 9792   3.678   2.708   4.070 -1.1842  0.6117  2.8558
   73MOL0     H 9793   3.524   2.677   3.971 -2.8719  1.1479  1.3984
   73MOL0     H 9794   3.486   2.509   4.172 -2.3093  3.1125 -1.4990
   73MOL0     H 9795   3.661   2.508   4.175  0.7252 -2.0303 -0.2507
   73MOL0     H 9796   3.517   2.446   3.907  1.3605 -1.2518 -1.3165
   73MOL0     H 9797   3.672   2.395   3.966 -1.4643  0.0617 -4.4901
   73MOL0     H 9798   3.391   2.292   4.073 -0.1528  0.1556  0.9651
   73MOL0     H 9799   3.504   2.207   3.953 -0.7118  1.5797 -1.6177
   73MOL0     H 9800   3.658   2.175   4.126 -2.1985 -2.1236 -1.3172
   73MOL0     H 9801   3.598   2.295   4.234  1.3078 -0.1758  0.5876
   73MOL0     H 9802   3.393   2.166   4.278  1.4516  2.3098  0.0622
   73MOL0     H 9803   3.547   2.101   4.335 -0.6295  1.8786  0.7914
   73MOL0     H 9804   3.425   2.015   4.073  1.7430  4.8938  0.4990
   73MOL0     H 9805   3.534   1.913   4.177  0.7729  0.7676 -0.9079
   73MOL0     H 9806   3.378   1.704   4.231  1.6402  1.6851  0.9064
   73MOL0     H 9807   3.024   1.654   4.346 -0.4544 -1.9684 -0.8881
   73MOL0     H 9808   3.066   1.602   4.185  0.5663 -0.7648 -1.3239
   73MOL0     H 9809   3.255   1.566   4.416 -3.3168  0.6734  0.6304
   73MOL0     H 9810   3.154   1.441   4.366 -1.7320 -0.2303 -3.0639
   73MOL0     H 9811   3.335   1.361   4.254 -2.0879 -0.6420 -0.3269
   73MOL0     H 9812   3.406   1.518   4.209 -0.1988  0.1447  1.5171
   73MOL0     H 9813   3.216   1.554   4.053 -0.8604  0.3358  0.0717
   73MOL0     H 9814   3.155   1.389   4.086 -0.4512  0.9392 -2.7340
   73MOL0     H 9815   3.424   1.244   3.806 -0.1755 -1.7195 -0.3005
   73MOL0     H 9816   3.332   1.195   3.583  1.1779 -0.6985  0.5531
   73MOL0     H 9817   2.798   1.502   3.337 -0.3710  0.3716 -0.1734
   73MOL0     H 9818   2.646   1.447   3.170  4.7607  4.7263  3.1906
   73MOL0     H 9819   2.536   1.043   3.019 -2.0731  0.0465 -2.5883
   73MOL0     H 9820   2.477   1.042   3.195 -2.5306  0.6286 -0.2921
   73MOL0     H 9821   2.293   1.215   3.097 -2.2089 -1.2043  1.2226
   73MOL0     H 9822   2.338   1.135   2.946  1.0969  0.3196  0.5862
   73MOL0     H 9823   2.248   0.917   3.066 -0.7605 -0.3054  0.5762
   73MOL0     H 9824   2.246   1.025   3.219 -3.2399 -0.1202 -0.0555
   73MOL0     H 9825   2.077   1.054   2.990  0.4468 -2.5220  0.0405
   73MOL0     H 9826   2.089   1.160   3.138  1.0220  0.5294  2.3522
   73MOL0     H 9827   1.996   0.874   3.125 -1.7472 -0.1763  2.0743
   73MOL0     H 9828   1.907   1.024   3.124  0.6148  0.0271 -1.6181
   73MOL0     H 9829   2.097   0.941   3.342  0.8589  1.5546  2.6541
   73MOL0     H 9830   1.988   1.075   3.367  0.8187 -0.5119 -0.3978
   73MOL0     H 9831   1.915   0.886   3.490  3.6426 -2.6521  0.0514
   73MOL0     H 9832   1.925   0.777   3.351 -1.1155 -1.2747 -0.0585
   73MOL0     H 9833   1.738   0.867   3.221 -4.2733  0.6209 -0.4077
   73MOL0     H 9834   1.683   0.822   3.390 -0.8738  0.8563  0.8025
   73MOL0     H 9835   2.699   1.035   3.229  0.4402  0.1091 -1.4804
   73MOL0     H 9836   2.904   1.074   3.366 -1.7905 -2.3077 -0.3379
   73MOL0     H 9837   2.986   1.432   3.671 -0.8480  0.3351  1.5050
   73MOL0     H 9838   3.082   1.498   3.883 -2.0000 -0.5755 -0.7597
   73MOL0     H 9839   3.328   2.813   4.333 -1.9146  4.0046  0.9099
   73MOL0     H 9840   3.233   2.881   4.544 -0.4006 -2.3922  1.6578
   73MOL0     H 9841   3.406   2.888   5.018 -1.7240 -1.5692  1.1346
   73MOL0     H 9842   3.325   2.903   5.247  2.1640  0.9957  0.3372
   73MOL0     H 9843   2.952   3.039   5.471 -0.7187 -2.0502 -1.9185
   73MOL0     H 9844   2.950   3.107   5.313  0.5786 -3.6567 -2.0788
   73MOL0     H 9845   3.122   3.272   5.382 -2.4891  0.1062 -1.2958
   73MOL0     H 9846   3.141   3.186   5.545  1.9918 -0.1247 -0.2616
   73MOL0     H 9847   2.913   3.231   5.601  0.1474 -2.0306 -0.9411
   73MOL0     H 9848   2.872   3.316   5.454  1.3248 -0.3822 -1.8348
   73MOL0     H 9849   3.053   3.489   5.493  0.6230  0.6206  0.5745
   73MOL0     H 9850   2.901   3.503   5.588  0.0630  1.2513 -4.5236
   73MOL0     H 9851   3.161   3.388   5.898 -0.7312  1.2608  0.2586
   73MOL0     H 9852   3.034   3.188   5.148  0.2006 -1.4482  1.0229
   73MOL0     H 9853   3.090   3.295   4.875 -3.3553  0.7543  1.6141
   73MOL0     H 9854   3.069   3.146   4.777  3.1815 -0.4918  1.6926
   73MOL0     H 9855   2.964   3.176   4.916 -0.9862 -1.3611 -0.6213
   74MOL0     O 9856   0.333   9.216   4.588 -0.6733  0.6628  0.4755
   74MOL0     C 9857   0.268   9.134   4.647  0.8838 -0.6088 -1.2532
   74MOL0     O 9858   0.258   9.005   4.620 -0.2647 -0.1642 -0.6486
   74MOL0     C 9859   0.327   8.930   4.524  0.6921  0.7790  0.6840
   74MOL0     C 9860   0.418   8.976   4.421  0.5499  0.2712 -0.4590
   74MOL0     C 9861   0.484   8.892   4.341 -0.2248 -0.7523  0.5884
   74MOL0     C 9862   0.463   8.752   4.351  0.1352  0.0429  1.2026
   74MOL0     O 9863   0.518   8.652   4.281  0.0358 -0.1647 -0.1078
   74MOL0     C 9864   0.541   8.659   4.140  0.3621 -1.1844  0.4112
   74MOL0     C 9865   0.558   8.518   4.106 -0.2185  0.1321  0.1384
   74MOL0     C 9866   0.491   8.477   3.971  0.6497  0.3557 -0.1882
   74MOL0     C 9867   0.472   8.329   3.966  0.1204  0.3277 -0.4919
   74MOL0     C 9868   0.463   8.262   3.827  0.2364 -0.4170  0.1402
   74MOL0     C 9869   0.356   8.154   3.837 -0.1952  0.4294  1.3691
   74MOL0     C 9870   0.336   8.099   3.700  0.0172 -0.3132 -0.3265
   74MOL0     C 9871   0.234   8.181   3.622 -0.3735  0.0552 -0.4230
   74MOL0     N 9872   0.171   8.109   3.521  0.5525 -0.0852 -0.0524
   74MOL0     C 9873   0.054   8.036   3.535  0.3535  0.2941 -0.0666
   74MOL0     C 9874   0.056   7.951   3.427 -0.3974 -0.2703  0.3330
   74MOL0     C 9875  -0.042   7.851   3.390 -0.8537 -0.6833  0.5004
   74MOL0     C 9876  -0.162   7.907   3.314 -0.0574 -0.8224  0.0563
   74MOL0     C 9877  -0.303   7.859   3.356 -0.6483 -0.1673 -0.1108
   74MOL0     C 9878  -0.413   7.919   3.273 -0.4477 -1.2593  0.2482
   74MOL0     O 9879  -0.403   7.876   3.142  1.2804 -0.5759 -0.0936
   74MOL0     C 9880  -0.490   7.918   3.045  0.7274  0.1031 -0.5304
   74MOL0     C 9881  -0.463   8.036   2.981  0.6004 -0.5595 -1.1055
   74MOL0     C 9882  -0.562   8.104   2.906  0.2049  1.1945 -0.5294
   74MOL0     C 9883  -0.694   8.047   2.902  0.0931 -0.4503  0.6451
   74MOL0     C 9884  -0.813   8.119   2.848 -0.3740  0.6031  0.7052
   74MOL0     O 9885  -0.797   8.240   2.800 -0.2350 -0.0303  0.4822
   74MOL0     C 9886  -0.913   8.311   2.773  0.0836 -0.8750 -1.3128
   74MOL0     C 9887  -0.993   8.319   2.664 -0.0649 -0.4418  0.3414
   74MOL0     C 9888  -1.093   8.412   2.658 -0.5821  0.3828  0.6251
   74MOL0     C 9889  -1.136   8.494   2.758 -0.7909 -0.4001  0.1786
   74MOL0     O 9890  -1.243   8.576   2.732  0.0704 -0.1891  0.8699
   74MOL0     C 9891  -1.320   8.632   2.838  0.3137  0.4141  0.2629
   74MOL0     C 9892  -1.471   8.578   2.839  0.6860  0.1384  0.1027
   74MOL0     C 9893  -1.483   8.472   2.944 -0.4413  0.4726 -0.2925
   74MOL0     C 9894  -1.629   8.448   2.980 -0.2553 -0.6658  0.0609
   74MOL0     C 9895  -1.643   8.354   3.107  0.8635 -0.3059  0.1820
   74MOL0     C 9896  -1.782   8.365   3.167  0.1387 -0.0296  0.3401
   74MOL0     C 9897  -1.882   8.304   3.073 -0.0743  0.1610  0.0021
   74MOL0     C 9898  -2.009   8.258   3.151  0.5784  0.9795  0.2954
   74MOL0    Cl 9899  -1.977   8.109   3.250 -0.4654 -0.2141 -0.1328
   74MOL0     C 9900  -1.056   8.490   2.879 -0.1006 -0.0407  0.4803
   74MOL0     C 9901  -0.951   8.397   2.883  0.0314  0.3702 -0.7849
   74MOL0     O 9902  -0.923   8.055   2.855 -0.2923  0.3078 -0.3872
   74MOL0     C 9903  -0.713   7.921   2.956 -1.1671  0.4177 -0.2447
   74MOL0     C 9904  -0.610   7.855   3.020  0.0164  1.1200  0.2657
   74MOL0     N 9905   0.161   7.996   3.350  0.5253  1.0576  0.7356
   74MOL0     N 9906   0.228   8.094   3.399  0.2035  0.3723 -0.6534
   74MOL0     C 9907   0.369   8.701   4.439 -0.3904 -0.9923 -0.4257
   74MOL0     C 9908   0.315   8.786   4.537  1.1590 -0.1038 -0.6878
   74MOL0     C 9909   0.189   9.177   4.764 -0.1183 -0.5116  0.3648
   74MOL0     C 9910   0.065   9.112   4.787  0.4435  0.2460  0.1457
   74MOL0     C 9911  -0.014   9.144   4.894  0.6165  0.3906 -0.1405
   74MOL0     C 9912   0.016   9.238   4.984  0.3238  0.2394 -0.3738
   74MOL0     O 9913  -0.052   9.261   5.102 -0.2965  0.7571  0.4364
   74MOL0     C 9914  -0.141   9.157   5.156  0.2499 -0.6272 -0.6660
   74MOL0     C 9915  -0.140   9.162   5.306 -0.3936  0.1777 -0.2442
   74MOL0     C 9916  -0.017   9.105   5.366 -0.0440 -0.1987  0.1693
   74MOL0     C 9917  -0.010   8.952   5.352 -0.4934 -1.2561  0.0872
   74MOL0     C 9918   0.109   8.905   5.427  0.0565 -0.2061 -0.4113
   74MOL0     C 9919   0.200   8.874   5.500  0.4112  0.1376  0.4920
   74MOL0     C 9920   0.133   9.304   4.960 -0.4444 -0.7573  0.6025
   74MOL0     C 9921   0.212   9.285   4.843 -0.3044 -0.2468 -0.1363
   74MOL0     C 9922   0.344   9.358   4.846  0.3627  0.3088  1.0487
   74MOL0     H 9923   0.425   9.084   4.412 -1.9685  0.5191 -0.2079
   74MOL0     H 9924   0.547   8.936   4.265  0.2865 -1.7045  0.4477
   74MOL0     H 9925   0.451   8.709   4.103  0.9058  0.3541  1.0572
   74MOL0     H 9926   0.626   8.720   4.108  0.1585  0.4706  2.6762
   74MOL0     H 9927   0.515   8.456   4.186  1.1026  0.1315  0.8688
   74MOL0     H 9928   0.661   8.487   4.090 -0.8713 -2.6803  0.8519
   74MOL0     H 9929   0.568   8.504   3.898  1.2921 -2.1504 -0.5137
   74MOL0     H 9930   0.394   8.528   3.962 -0.9863 -2.7348 -2.1995
   74MOL0     H 9931   0.546   8.286   4.033 -1.7260  0.3612  1.6957
   74MOL0     H 9932   0.382   8.306   4.024  0.3917 -1.8779 -0.8621
   74MOL0     H 9933   0.434   8.340   3.757  2.2462 -0.3496 -0.6980
   74MOL0     H 9934   0.562   8.221   3.804 -0.0352 -1.6091  0.9965
   74MOL0     H 9935   0.379   8.077   3.911  1.5072  0.3642  0.8221
   74MOL0     H 9936   0.259   8.193   3.871 -0.7374 -0.1944  0.5633
   74MOL0     H 9937   0.287   8.002   3.709 -3.7759  1.3551 -0.6789
   74MOL0     H 9938   0.432   8.089   3.649  1.4041  0.4771  1.9804
   74MOL0     H 9939   0.159   8.231   3.683  1.4105 -1.9336  3.8041
   74MOL0     H 9940   0.287   8.265   3.576  2.3670 -1.3489 -0.0345
   74MOL0     H 9941  -0.019   8.046   3.615  3.4636  1.3300  2.9148
   74MOL0     H 9942   0.006   7.775   3.328 -3.4093 -0.1229 -2.3910
   74MOL0     H 9943  -0.080   7.809   3.484 -1.8540  0.6316  0.7104
   74MOL0     H 9944  -0.166   8.016   3.321 -0.3401 -0.6575 -2.0572
   74MOL0     H 9945  -0.138   7.888   3.209 -2.7761 -0.8466 -0.6329
   74MOL0     H 9946  -0.311   7.900   3.457 -2.1287  2.3412 -1.1710
   74MOL0     H 9947  -0.317   7.751   3.341 -1.9547  0.2257 -2.0597
   74MOL0     H 9948  -0.410   8.029   3.276 -0.4480 -1.2261 -0.7297
   74MOL0     H 9949  -0.507   7.888   3.320 -1.0074 -0.1207 -0.0615
   74MOL0     H 9950  -0.362   8.075   2.994 -0.5183  1.6387  2.9091
   74MOL0     H 9951  -0.530   8.192   2.852  0.7238  0.0591 -2.1307
   74MOL0     H 9952  -0.968   8.263   2.575  0.8396  0.0934  0.2356
   74MOL0     H 9953  -1.150   8.429   2.566  1.5070  1.8769 -0.4634
   74MOL0     H 9954  -1.278   8.621   2.938  2.2657 -2.0754 -0.7111
   74MOL0     H 9955  -1.321   8.737   2.809  1.3631  0.4297  0.2600
   74MOL0     H 9956  -1.530   8.665   2.871  1.8674  0.5309  1.3112
   74MOL0     H 9957  -1.498   8.548   2.737  2.1221  1.4975 -0.7311
   74MOL0     H 9958  -1.445   8.374   2.914  0.3410  0.7039 -0.0792
   74MOL0     H 9959  -1.424   8.496   3.033  1.1597  0.8041 -1.4082
   74MOL0     H 9960  -1.687   8.398   2.902 -1.0358  0.2818  0.0181
   74MOL0     H 9961  -1.656   8.550   3.006  1.0354  0.3962 -2.4280
   74MOL0     H 9962  -1.570   8.381   3.184  1.1496  3.9647 -1.3332
   74MOL0     H 9963  -1.635   8.255   3.060 -2.3541  0.3818 -2.2211
   74MOL0     H 9964  -1.792   8.312   3.262  0.7275 -2.4849 -0.8644
   74MOL0     H 9965  -1.805   8.471   3.179  1.0180  0.2576 -0.4354
   74MOL0     H 9966  -1.851   8.217   3.015  0.5658 -0.6961  1.5834
   74MOL0     H 9967  -1.922   8.386   3.012 -4.6627  1.3333  3.9121
   74MOL0     H 9968  -2.055   8.339   3.210  0.5487  0.8649  0.4295
   74MOL0     H 9969  -2.085   8.227   3.079  0.8488 -3.8656  1.7823
   74MOL0     H 9970  -1.096   8.545   2.964 -0.9268 -3.2893  2.3414
   74MOL0     H 9971  -0.913   8.388   2.985 -3.0117  2.6028  0.7141
   74MOL0     H 9972  -0.810   7.874   2.957 -1.2339  0.5638  0.8567
   74MOL0     H 9973  -0.621   7.754   3.058  1.1351 -0.1308 -2.4568
   74MOL0     H 9974   0.346   8.596   4.455 -1.1267 -0.5646  1.6903
   74MOL0     H 9975   0.261   8.740   4.619  1.7488  1.9087  0.9232
   74MOL0     H 9976   0.020   9.034   4.726 -0.5806 -0.5024  1.8219
   74MOL0     H 9977  -0.115   9.116   4.923  0.8044  1.7263  2.0073
   74MOL0     H 9978  -0.129   9.057   5.113  0.7481 -1.1835  0.7316
   74MOL0     H 9979  -0.240   9.189   5.121 -0.2039 -1.2275  0.0625
   74MOL0     H 9980  -0.231   9.111   5.339 -0.2038 -0.5303 -0.7823
   74MOL0     H 9981  -0.158   9.260   5.350  1.3018  0.1850  0.5115
   74MOL0     H 9982  -0.008   9.139   5.469 -1.2671  1.3021 -0.1782
   74MOL0     H 9983   0.066   9.157   5.318 -0.8673 -0.1887 -1.3207
   74MOL0     H 9984  -0.098   8.915   5.405 -2.5989  1.6178 -1.1366
   74MOL0     H 9985  -0.004   8.921   5.247  2.3354 -1.5221  0.2430
   74MOL0     H 9986   0.272   8.828   5.565 -1.6745 -0.6358  2.4266
   74MOL0     H 9987   0.170   9.366   5.041 -2.0425  1.2507 -0.1207
   74MOL0     H 9988   0.379   9.392   4.944  0.4092  1.3912  0.6803
   74MOL0     H 9989   0.422   9.293   4.806 -0.6717 -1.0857  1.2096
   74MOL0     H 9990   0.337   9.444   4.778 -1.2463 -1.8822 -1.7565
   75MOL0     O 9991   2.818   5.136  10.087 -0.0476  0.4938 -0.4009
   75MOL0     C 9992   2.763   5.245  10.094  0.0800 -0.2264 -0.3352
   75MOL0     O 9993   2.752   5.327  10.210 -0.7562 -0.1845 -0.6495
   75MOL0     C 9994   2.778   5.279  10.339  0.5155  0.1993  0.2794
   75MOL0     C 9995   2.784   5.377  10.437  0.4683 -0.3517 -0.6501
   75MOL0     C 9996   2.788   5.336  10.572  0.3394  0.8909 -0.7261
   75MOL0     C 9997   2.796   5.205  10.614  1.2381  0.2885  0.5512
   75MOL0     O 9998   2.796   5.171  10.741 -0.5901 -0.1546 -0.1562
   75MOL0     C 9999   2.747   5.256  10.845 -0.2114 -0.1193  0.9584
   75MOL0     C10000   2.790   5.199  10.987 -1.0523 -0.3522  0.1875
   75MOL0     C10001   2.672   5.246  11.078  0.6004  0.8747 -0.4301
   75MOL0     C10002   2.665   5.180  11.222 -0.2022  0.1027 -0.1493
   75MOL0     C10003   2.521   5.177  11.276 -0.2248 -0.3603 -0.0592
   75MOL0     C10004   2.472   5.314  11.311 -0.4971  0.0134 -0.1560
   75MOL0     C10005   2.338   5.332  11.371  0.0842 -0.1752 -0.0888
   75MOL0     C10006   2.311   5.310  11.520  0.3039  1.0469  0.2593
   75MOL0     N10007   2.403   5.381  11.603 -0.1899 -0.7209 -0.6058
   75MOL0     C10008   2.507   5.328  11.664  0.3241  0.4074  0.0727
   75MOL0     C10009   2.575   5.439  11.706  0.7502  0.5400 -0.2411
   75MOL0     C10010   2.718   5.432  11.764 -0.5674  0.4920  0.9555
   75MOL0     C10011   2.831   5.393  11.668 -0.2796 -0.0520 -0.8567
   75MOL0     C10012   2.843   5.461  11.534  0.7969  1.0270  0.1432
   75MOL0     C10013   2.821   5.611  11.550  0.4641 -0.3923 -0.5871
   75MOL0     O10014   2.863   5.682  11.438  0.4989 -0.4933  0.3205
   75MOL0     C10015   2.767   5.757  11.374  0.2799 -0.8082 -0.1057
   75MOL0     C10016   2.805   5.883  11.321 -0.6553 -0.2745  0.2838
   75MOL0     C10017   2.719   5.964  11.246  0.0574 -0.2919  0.3036
   75MOL0     C10018   2.582   5.935  11.248 -0.3127 -0.0615  0.2437
   75MOL0     C10019   2.478   6.019  11.191  0.4350 -0.6540 -1.2208
   75MOL0     O10020   2.351   5.977  11.184  0.1740  0.4174  0.4197
   75MOL0     C10021   2.271   6.056  11.114  0.8215 -0.3187 -0.0332
   75MOL0     C10022   2.272   6.045  10.973 -0.6565  0.5673  0.7574
   75MOL0     C10023   2.190   6.129  10.899  0.2146 -0.4537  0.4925
   75MOL0     C10024   2.099   6.219  10.951  1.0646  0.5136  0.0247
   75MOL0     O10025   2.006   6.294  10.880  0.2311 -0.9910  0.7036
   75MOL0     C10026   2.046   6.369  10.764 -0.8208 -0.1765 -0.5162
   75MOL0     C10027   2.149   6.469  10.802 -0.3236  0.4567 -0.2030
   75MOL0     C10028   2.084   6.603  10.828  0.5475 -0.2837 -0.5864
   75MOL0     C10029   2.181   6.720  10.846 -0.6244 -0.0420  0.5702
   75MOL0     C10030   2.113   6.855  10.830  0.7568  0.1884 -0.3652
   75MOL0     C10031   2.202   6.965  10.869 -0.7361  1.0975  0.5230
   75MOL0     C10032   2.132   7.103  10.852  0.5228  0.0467  0.1323
   75MOL0     C10033   2.182   7.210  10.943  1.1257  0.6470  0.2652
   75MOL0    Cl10034   2.073   7.340  10.899  0.3366 -0.3214 -0.3915
   75MOL0     C10035   2.097   6.221  11.090  0.0024  0.6436  1.2625
   75MOL0     C10036   2.177   6.146  11.173  0.6660  1.3733 -0.6825
   75MOL0     O10037   2.515   6.132  11.163 -0.2319  0.7356  0.1588
   75MOL0     C10038   2.538   5.811  11.297 -0.3148  0.2401 -0.4807
   75MOL0     C10039   2.628   5.721  11.351 -0.3261  0.4352 -0.5127
   75MOL0     N10040   2.504   5.555  11.674 -0.2697  0.0380 -0.2537
   75MOL0     N10041   2.401   5.514  11.611 -0.2588 -0.1666  0.9908
   75MOL0     C10042   2.788   5.117  10.513  0.6903  0.7785 -0.0655
   75MOL0     C10043   2.766   5.143  10.375 -0.0082  0.5230 -0.0291
   75MOL0     C10044   2.702   5.297   9.971  0.2030  0.7023 -0.0223
   75MOL0     C10045   2.689   5.205   9.873  0.5909  0.3041  0.0613
   75MOL0     C10046   2.633   5.244   9.748  0.4724 -0.1111  0.4540
   75MOL0     C10047   2.591   5.374   9.728  0.0173  0.3157  0.5652
   75MOL0     O10048   2.526   5.426   9.620  0.3887  0.3462 -0.1591
   75MOL0     C10049   2.543   5.351   9.493 -0.1235 -0.3928 -0.1419
   75MOL0     C10050   2.683   5.336   9.438  0.0779  0.1502  0.0990
   75MOL0     C10051   2.730   5.453   9.339 -0.1903 -0.2916 -0.2728
   75MOL0     C10052   2.875   5.433   9.305  0.3320  1.0894  0.3411
   75MOL0     C10053   2.898   5.324   9.207 -0.1297  0.6266  0.1114
   75MOL0     C10054   2.893   5.241   9.115 -0.2547 -0.4326 -0.5243
   75MOL0     C10055   2.602   5.472   9.833  0.2450  0.1284 -0.0935
   75MOL0     C10056   2.659   5.429   9.948 -0.4079 -1.4697  0.2174
   75MOL0     C10057   2.681   5.548  10.048 -0.5326  0.1961 -1.2442
   75MOL0     H10058   2.772   5.480  10.404  0.5833 -0.6581 -1.7027
   75MOL0     H10059   2.794   5.426  10.633  1.8718  1.1698 -1.2251
   75MOL0     H10060   2.773   5.362  10.839  0.4475 -0.3166  0.1717
   75MOL0     H10061   2.638   5.242  10.842  0.1060 -3.0510 -1.0131
   75MOL0     H10062   2.885   5.248  11.009 -0.8073 -2.0224  3.5354
   75MOL0     H10063   2.813   5.092  10.985 -0.5205 -0.2541  0.9193
   75MOL0     H10064   2.575   5.237  11.028 -0.8338  3.2625  1.6575
   75MOL0     H10065   2.682   5.353  11.100  2.2334  0.7822 -0.6043
   75MOL0     H10066   2.704   5.078  11.221  0.9419  0.5301  0.0606
   75MOL0     H10067   2.737   5.233  11.285 -0.4558  0.9062 -0.5117
   75MOL0     H10068   2.459   5.125  11.202  1.0639 -1.1991 -0.5812
   75MOL0     H10069   2.522   5.113  11.364 -2.9288 -0.0967  0.2467
   75MOL0     H10070   2.553   5.367  11.362  2.5352 -2.4575 -2.0630
   75MOL0     H10071   2.475   5.367  11.215  2.8448  0.8805  0.2963
   75MOL0     H10072   2.277   5.267  11.308  2.1832 -1.0483 -1.3399
   75MOL0     H10073   2.321   5.439  11.355  3.9576  0.4469 -1.2933
   75MOL0     H10074   2.211   5.342  11.551  1.2425  2.9498  1.6287
   75MOL0     H10075   2.320   5.207  11.555 -3.5892  0.8491  1.1526
   75MOL0     H10076   2.520   5.225  11.696 -1.4508  0.4430  1.0693
   75MOL0     H10077   2.754   5.519  11.820  0.0521  1.0234 -0.2285
   75MOL0     H10078   2.708   5.355  11.840  1.7642  0.6182  1.4675
   75MOL0     H10079   2.925   5.415  11.720 -0.1216  0.4818 -1.3478
   75MOL0     H10080   2.834   5.287  11.643 -2.2966 -0.6070  0.9595
   75MOL0     H10081   2.760   5.428  11.470  1.7121 -0.6913 -0.2170
   75MOL0     H10082   2.937   5.432  11.486  1.6746 -0.9759  2.8446
   75MOL0     H10083   2.892   5.645  11.627 -0.0533 -3.3284  1.3586
   75MOL0     H10084   2.720   5.640  11.580  1.1389  0.5145  0.9784
   75MOL0     H10085   2.910   5.910  11.326 -0.9896  1.0277  0.5054
   75MOL0     H10086   2.761   6.056  11.206 -0.5099 -0.0313  0.3056
   75MOL0     H10087   2.316   5.958  10.925  0.1334  1.1352  0.4260
   75MOL0     H10088   2.174   6.100  10.796  0.7784 -2.6998  0.9787
   75MOL0     H10089   2.096   6.302  10.694  1.1230  2.2343 -1.5849
   75MOL0     H10090   1.961   6.410  10.709 -1.8079 -2.0618 -0.4605
   75MOL0     H10091   2.210   6.442  10.889 -1.6407 -0.7266  0.3898
   75MOL0     H10092   2.219   6.480  10.719  2.0453 -0.7006  1.5220
   75MOL0     H10093   2.030   6.639  10.740  2.3021  6.4572  0.5511
   75MOL0     H10094   2.011   6.603  10.910  1.4393  0.7210  0.2496
   75MOL0     H10095   2.267   6.714  10.779 -1.4753  2.1025 -0.8067
   75MOL0     H10096   2.203   6.707  10.953 -3.8053 -1.3763  1.1715
   75MOL0     H10097   2.028   6.862  10.899  0.6244  1.7434 -0.6489
   75MOL0     H10098   2.079   6.881  10.729 -0.5089  4.4590  0.9735
   75MOL0     H10099   2.243   6.953  10.969  0.5653 -1.7678 -0.2687
   75MOL0     H10100   2.284   6.961  10.796 -0.5736  0.8702  0.7190
   75MOL0     H10101   2.024   7.087  10.858  0.2233  1.2551 -1.4601
   75MOL0     H10102   2.156   7.133  10.750 -1.3599 -0.3766 -0.4714
   75MOL0     H10103   2.181   7.194  11.051  2.2243  2.6073  0.6186
   75MOL0     H10104   2.281   7.245  10.912  1.8547 -1.6687 -0.2275
   75MOL0     H10105   2.024   6.281  11.144 -1.1369 -1.2931  1.9914
   75MOL0     H10106   2.158   6.159  11.279 -1.9596  0.6518 -1.0101
   75MOL0     H10107   2.432   5.789  11.305 -0.6137  1.2808 -1.3489
   75MOL0     H10108   2.583   5.625  11.374 -0.9910  0.5539 -1.2986
   75MOL0     H10109   2.783   5.012  10.541  0.3004  0.2018 -2.1293
   75MOL0     H10110   2.756   5.055  10.313  0.0692  0.2465  0.3504
   75MOL0     H10111   2.710   5.100   9.886  3.9989  0.7813 -0.6213
   75MOL0     H10112   2.618   5.166   9.674 -1.2616 -0.8157  1.4719
   75MOL0     H10113   2.478   5.413   9.430  0.9137  3.3824  2.1713
   75MOL0     H10114   2.505   5.249   9.499  2.5372 -1.4314  0.7435
   75MOL0     H10115   2.695   5.235   9.397 -3.1984 -0.8217  1.2111
   75MOL0     H10116   2.751   5.346   9.523 -0.2571 -2.8474  0.8541
   75MOL0     H10117   2.708   5.551   9.382 -0.0988  0.5514 -2.0866
   75MOL0     H10118   2.671   5.450   9.247  0.5028 -2.4012 -0.7105
   75MOL0     H10119   2.932   5.516   9.261 -2.3568  2.3765 -0.9711
   75MOL0     H10120   2.924   5.416   9.402 -2.8851  2.9931  2.5064
   75MOL0     H10121   2.915   5.164   9.043  1.1875 -0.9651  0.4480
   75MOL0     H10122   2.548   5.565   9.821 -0.8561  0.4419  5.0407
   75MOL0     H10123   2.638   5.525  10.146  0.0456  1.0665 -0.7730
   75MOL0     H10124   2.782   5.587  10.065 -0.6111 -0.1463  0.1259
   75MOL0     H10125   2.640   5.638  10.002  1.5475  1.1203 -1.4097
   76MOL0     O10126   4.614   1.201   2.839 -0.2418 -0.7339 -0.6082
   76MOL0     C10127   4.634   1.197   2.961  0.0613 -0.0070 -1.2248
   76MOL0     O10128   4.575   1.109   3.051  0.5733  0.2064 -0.4585
   76MOL0     C10129   4.503   1.006   2.996 -0.1548  0.3874 -0.0697
   76MOL0     C10130   4.558   0.894   2.931  0.3076  0.1262  0.0126
   76MOL0     C10131   4.481   0.784   2.883 -0.5092 -0.4188 -0.8141
   76MOL0     C10132   4.343   0.782   2.905  0.0983 -1.3950 -0.0598
   76MOL0     O10133   4.269   0.678   2.855 -0.2685 -0.3114  0.2335
   76MOL0     C10134   4.275   0.551   2.917 -0.0867  0.3877  0.2958
   76MOL0     C10135   4.158   0.473   2.861  0.7062  0.5208 -0.2042
   76MOL0     C10136   4.176   0.451   2.711 -0.6608 -0.0080  0.2809
   76MOL0     C10137   4.117   0.316   2.659  0.6482  0.1138 -0.9083
   76MOL0     C10138   3.968   0.320   2.656  0.1055 -0.2707  0.6335
   76MOL0     C10139   3.900   0.226   2.556 -0.3438  0.3436  0.6572
   76MOL0     C10140   3.957   0.082   2.576 -0.6276 -0.5952  0.1753
   76MOL0     C10141   3.892   0.020   2.699  0.5699  0.0302 -0.0243
   76MOL0     N10142   3.965  -0.106   2.728 -0.1011 -0.4442 -0.6701
   76MOL0     C10143   4.085  -0.108   2.791  0.2848 -0.8466 -0.3498
   76MOL0     C10144   4.118  -0.240   2.827  0.7851 -0.6607 -0.1301
   76MOL0     C10145   4.246  -0.278   2.894 -0.7848  0.2558  0.8557
   76MOL0     C10146   4.220  -0.326   3.039  0.5655  0.0304  0.1029
   76MOL0     C10147   4.188  -0.477   3.049  0.5672  0.0265 -0.5981
   76MOL0     C10148   4.117  -0.503   3.187 -0.3309 -0.9007  1.2391
   76MOL0     O10149   4.113  -0.646   3.215  0.8784  0.8234 -0.3848
   76MOL0     C10150   4.022  -0.729   3.130 -1.0877 -0.0618  0.3513
   76MOL0     C10151   4.023  -0.865   3.143  0.1715  0.4824 -1.3008
   76MOL0     C10152   3.931  -0.943   3.067 -0.0789 -0.2638  0.7833
   76MOL0     C10153   3.833  -0.878   2.984  0.4533 -0.7914  0.1505
   76MOL0     C10154   3.735  -0.956   2.909 -0.2500  0.5288 -0.2725
   76MOL0     O10155   3.622  -0.889   2.851 -0.0571 -0.4940  0.5923
   76MOL0     C10156   3.521  -0.951   2.773 -0.2450  0.8591 -0.6341
   76MOL0     C10157   3.386  -0.937   2.806  0.3317 -0.3716 -0.5962
   76MOL0     C10158   3.287  -1.008   2.739 -0.7777 -0.2510  0.5192
   76MOL0     C10159   3.320  -1.097   2.632 -0.4371  0.9669  0.5603
   76MOL0     O10160   3.225  -1.163   2.559  0.1571 -0.6922  0.0552
   76MOL0     C10161   3.083  -1.157   2.592 -0.6827  0.9553 -0.5573
   76MOL0     C10162   3.017  -1.287   2.540  0.7276 -0.0259  0.0868
   76MOL0     C10163   2.870  -1.294   2.548  0.7020 -0.3497  0.5392
   76MOL0     C10164   2.824  -1.288   2.691 -0.0124 -0.1974  0.3154
   76MOL0     C10165   2.673  -1.302   2.694 -0.0824  0.5842 -0.4592
   76MOL0     C10166   2.604  -1.238   2.824 -1.1547  0.1137 -1.0411
   76MOL0     C10167   2.454  -1.264   2.830  0.0268 -0.2937 -0.9952
   76MOL0     C10168   2.397  -1.182   2.939  0.5120 -0.0373 -0.2075
   76MOL0    Cl10169   2.448  -1.220   3.091 -0.5728 -0.4629  0.4561
   76MOL0     C10170   3.454  -1.113   2.602  0.6025 -0.2961 -0.8376
   76MOL0     C10171   3.555  -1.039   2.670  0.3200  0.0753  0.0100
   76MOL0     O10172   3.744  -1.080   2.908 -0.2965 -0.6540  0.1204
   76MOL0     C10173   3.832  -0.737   2.978  0.7327 -0.1760  0.4211
   76MOL0     C10174   3.925  -0.663   3.049  0.5673  0.9913  1.3636
   76MOL0     N10175   4.013  -0.309   2.770 -0.3531  0.1871  0.8325
   76MOL0     N10176   3.919  -0.236   2.707 -0.2932 -0.7072  0.2856
   76MOL0     C10177   4.283   0.891   2.979 -0.9382  0.0684  0.6091
   76MOL0     C10178   4.364   0.990   3.026 -0.5704  0.1033 -0.1726
   76MOL0     C10179   4.734   1.296   3.024  0.4859  0.2896  0.2186
   76MOL0     C10180   4.771   1.266   3.156 -0.1732 -0.7109  0.0501
   76MOL0     C10181   4.859   1.352   3.213 -0.6729  0.6145 -0.4904
   76MOL0     C10182   4.914   1.460   3.155  0.7094 -0.1501 -0.5526
   76MOL0     O10183   4.990   1.536   3.235  0.1299 -1.1593  0.5674
   76MOL0     C10184   5.091   1.620   3.175  0.9120  0.0166  0.4615
   76MOL0     C10185   5.187   1.684   3.279 -0.2205  0.5269  0.1544
   76MOL0     C10186   5.293   1.765   3.196  0.7666  0.1748 -0.7031
   76MOL0     C10187   5.385   1.856   3.281  0.3807  0.3856  0.2181
   76MOL0     C10188   5.314   1.979   3.326  0.1582  0.3480  0.6206
   76MOL0     C10189   5.273   2.075   3.389  0.9866  0.8285  0.2148
   76MOL0     C10190   4.878   1.493   3.024 -0.2394  0.2854 -0.1921
   76MOL0     C10191   4.781   1.414   2.957  1.4493  0.5832 -0.2104
   76MOL0     C10192   4.731   1.470   2.834  0.6683  0.4195  0.9383
   76MOL0     H10193   4.665   0.892   2.917  0.7558  0.7276  2.6851
   76MOL0     H10194   4.532   0.695   2.846 -2.1951 -1.6667 -0.2616
   76MOL0     H10195   4.371   0.503   2.892 -1.2085 -2.6591  1.2877
   76MOL0     H10196   4.259   0.563   3.025 -2.2245  4.6170 -0.2849
   76MOL0     H10197   4.060   0.519   2.877  0.6357  0.4350 -0.3850
   76MOL0     H10198   4.149   0.371   2.902 -0.1650  1.4267  2.0070
   76MOL0     H10199   4.279   0.430   2.681 -0.7007 -0.5318  0.5002
   76MOL0     H10200   4.141   0.530   2.643  2.6047  1.7497  0.4772
   76MOL0     H10201   4.152   0.285   2.560  0.5788 -2.5281 -0.1618
   76MOL0     H10202   4.130   0.231   2.726 -1.4071  0.6280  0.2360
   76MOL0     H10203   3.932   0.288   2.755  0.3810 -1.5743  0.3286
   76MOL0     H10204   3.942   0.424   2.635 -3.8972 -1.5470 -1.7834
   76MOL0     H10205   3.793   0.204   2.565 -0.1569 -0.7157  0.4306
   76MOL0     H10206   3.933   0.254   2.455  0.4726 -2.9865 -0.1246
   76MOL0     H10207   4.066   0.075   2.580 -0.6467 -2.3572 -1.3368
   76MOL0     H10208   3.934   0.026   2.485 -0.6030  0.3933 -0.4543
   76MOL0     H10209   3.907   0.072   2.795  0.8337 -0.5942  0.2845
   76MOL0     H10210   3.784   0.014   2.685  0.5075 -1.2197  0.7719
   76MOL0     H10211   4.123  -0.013   2.826 -4.0586  0.7604  0.6310
   76MOL0     H10212   4.297  -0.358   2.839 -2.2589  0.3585 -0.7304
   76MOL0     H10213   4.317  -0.196   2.906  3.9669 -3.2218 -0.3968
   76MOL0     H10214   4.301  -0.304   3.109 -1.0353  1.6684  1.5512
   76MOL0     H10215   4.127  -0.275   3.065 -0.8435 -2.1401 -0.4929
   76MOL0     H10216   4.278  -0.539   3.040 -1.5039 -3.1709 -1.0930
   76MOL0     H10217   4.127  -0.516   2.967 -1.9923  0.9110  0.7728
   76MOL0     H10218   4.019  -0.457   3.203  0.3616  0.8356  0.7356
   76MOL0     H10219   4.183  -0.466   3.266  1.2995  0.4027 -0.6293
   76MOL0     H10220   4.082  -0.925   3.211  1.2375  0.9037 -1.8371
   76MOL0     H10221   3.931  -1.051   3.080  1.0982 -0.1664  1.8038
   76MOL0     H10222   3.362  -0.878   2.894  1.7276 -1.1535  0.3460
   76MOL0     H10223   3.184  -0.983   2.760 -0.9254  0.1455 -0.5776
   76MOL0     H10224   3.069  -1.152   2.701 -1.4098 -0.9274 -0.5332
   76MOL0     H10225   3.039  -1.064   2.553 -1.3035  0.9454  0.0897
   76MOL0     H10226   3.043  -1.299   2.434 -1.5443  0.5728 -0.5969
   76MOL0     H10227   3.058  -1.378   2.586 -2.9854 -1.3987  1.0157
   76MOL0     H10228   2.824  -1.212   2.492 -2.0544 -3.1009 -1.5435
   76MOL0     H10229   2.837  -1.386   2.499  0.0473 -0.2949  0.8726
   76MOL0     H10230   2.849  -1.193   2.740 -0.2964 -0.8690  1.8260
   76MOL0     H10231   2.866  -1.368   2.753 -1.2550  0.6746  2.3801
   76MOL0     H10232   2.650  -1.408   2.680  2.0252  0.4129 -3.7166
   76MOL0     H10233   2.634  -1.253   2.604 -0.4847 -1.0032 -1.1840
   76MOL0     H10234   2.652  -1.281   2.912 -1.0119 -1.1303 -1.7117
   76MOL0     H10235   2.627  -1.131   2.831 -1.6538  0.1173  1.3885
   76MOL0     H10236   2.428  -1.369   2.848 -0.7063  0.3927  2.6635
   76MOL0     H10237   2.419  -1.222   2.735  0.2578  2.2964 -0.0126
   76MOL0     H10238   2.406  -1.073   2.925  1.9087 -0.1462 -0.2620
   76MOL0     H10239   2.288  -1.195   2.934  0.0427  2.5971  1.2050
   76MOL0     H10240   3.467  -1.172   2.512 -1.1941  0.8784 -1.9363
   76MOL0     H10241   3.659  -1.040   2.640  1.1246 -0.8007  2.6449
   76MOL0     H10242   3.769  -0.689   2.903 -2.3144  0.2757  3.0384
   76MOL0     H10243   3.914  -0.557   3.029 -0.3293  0.5550 -0.8209
   76MOL0     H10244   4.176   0.893   2.997 -0.7666  1.5895  1.7447
   76MOL0     H10245   4.308   1.058   3.090 -0.4730 -1.1151  1.2708
   76MOL0     H10246   4.737   1.184   3.218  4.1120 -1.4860  1.7708
   76MOL0     H10247   4.876   1.320   3.315 -2.5164  1.0163 -0.0066
   76MOL0     H10248   5.040   1.699   3.118 -1.9671 -0.6542  1.9084
   76MOL0     H10249   5.131   1.552   3.098 -0.1606  0.9309 -0.9626
   76MOL0     H10250   5.235   1.606   3.338 -1.6161 -0.4059  0.0924
   76MOL0     H10251   5.127   1.746   3.347 -0.3693  4.6078 -3.2454
   76MOL0     H10252   5.230   1.837   3.142  0.2109  0.6365  0.5298
   76MOL0     H10253   5.350   1.708   3.122  1.4681 -1.1271  0.7842
   76MOL0     H10254   5.417   1.806   3.373  1.5093  0.8546  0.0999
   76MOL0     H10255   5.478   1.874   3.228  0.2881 -2.6330 -1.1410
   76MOL0     H10256   5.260   2.158   3.456  1.0595  2.8302 -2.1392
   76MOL0     H10257   4.926   1.567   2.960 -1.1321  1.3828  0.3617
   76MOL0     H10258   4.624   1.481   2.851  0.3637 -1.5095  0.4967
   76MOL0     H10259   4.762   1.571   2.805 -0.4639  0.8871  1.3017
   76MOL0     H10260   4.738   1.409   2.744  1.2671  0.1113  1.1893
   77MOL0     O10261  10.015  10.950   6.821  0.6099 -0.0202  0.0349
   77MOL0     C10262   9.942  11.042   6.865 -0.6507  0.6896 -1.0679
   77MOL0     O10263   9.829  11.013   6.947 -0.8304 -0.3147  0.2996
   77MOL0     C10264   9.745  10.916   6.897 -0.0571 -0.0644  0.0913
   77MOL0     C10265   9.607  10.931   6.898 -0.4094  0.5140  0.5982
   77MOL0     C10266   9.527  10.836   6.838 -1.0879 -0.1339  0.8819
   77MOL0     C10267   9.579  10.720   6.779 -0.0475 -0.4132 -0.0327
   77MOL0     O10268   9.501  10.627   6.723 -0.2906 -0.7337 -0.0776
   77MOL0     C10269   9.409  10.671   6.619 -0.0144 -0.9339  0.2826
   77MOL0     C10270   9.291  10.579   6.623 -0.2671 -0.6491 -0.6633
   77MOL0     C10271   9.210  10.582   6.751 -0.0216  0.0829  0.6150
   77MOL0     C10272   9.060  10.565   6.725  0.3413 -0.1805  1.3574
   77MOL0     C10273   8.970  10.544   6.855 -0.4302 -0.1547  0.3603
   77MOL0     C10274   8.825  10.555   6.823 -0.1618 -0.5971 -0.0228
   77MOL0     C10275   8.727  10.515   6.931 -0.5624 -0.6434  0.8080
   77MOL0     C10276   8.685  10.365   6.912 -0.1350  0.1251  0.7210
   77MOL0     N10277   8.719  10.299   7.034 -0.2523 -0.1028  0.6139
   77MOL0     C10278   8.831  10.229   7.042  0.1557  0.6647 -0.8847
   77MOL0     C10279   8.818  10.172   7.167 -1.1836  0.1599 -0.0444
   77MOL0     C10280   8.915  10.092   7.238  0.3126  0.5057 -0.1057
   77MOL0     C10281   8.926   9.942   7.179  0.0951  0.0164 -0.0559
   77MOL0     C10282   9.030   9.849   7.233 -1.6269  0.0054  0.6577
   77MOL0     C10283   9.168   9.896   7.170 -0.0981  0.7252 -0.5145
   77MOL0     O10284   9.175   9.893   7.025 -0.8353 -0.3935 -0.2224
   77MOL0     C10285   9.297   9.930   6.972 -0.7627  1.4056  0.1325
   77MOL0     C10286   9.347  10.056   6.940 -0.1352  0.3900 -0.0869
   77MOL0     C10287   9.475  10.085   6.899 -0.1346  0.2353  0.7043
   77MOL0     C10288   9.560   9.983   6.872 -0.7972 -0.1611 -0.3780
   77MOL0     C10289   9.694  10.012   6.812  0.0549  0.8970  0.3394
   77MOL0     O10290   9.770   9.897   6.783  0.4067 -1.3091 -0.0197
   77MOL0     C10291   9.901   9.914   6.742  0.4982 -0.1596 -1.0132
   77MOL0     C10292   9.921   9.908   6.603 -0.7878  0.8318  0.0444
   77MOL0     C10293  10.050   9.918   6.546  0.2463 -1.1214  0.7967
   77MOL0     C10294  10.162   9.946   6.626 -0.2409  0.6532  0.1358
   77MOL0     O10295  10.291   9.952   6.562 -0.0330 -0.7195 -0.6513
   77MOL0     C10296  10.358   9.829   6.524  0.0576 -0.7966 -0.3174
   77MOL0     C10297  10.520   9.840   6.505 -0.1177  0.8597  0.2624
   77MOL0     C10298  10.563   9.904   6.374  0.1364 -0.3034  0.2554
   77MOL0     C10299  10.471  10.018   6.320 -0.7264  0.8697 -0.2894
   77MOL0     C10300  10.541  10.098   6.215  0.5435 -0.7864  0.0290
   77MOL0     C10301  10.460  10.226   6.199  0.0253 -0.6441  0.1093
   77MOL0     C10302  10.505  10.313   6.086  0.2473 -0.8613 -0.3173
   77MOL0     C10303  10.413  10.431   6.074  0.0972  1.3554  0.3419
   77MOL0    Cl10304  10.458  10.514   5.927 -0.2528  0.2614 -0.1446
   77MOL0     C10305  10.140   9.961   6.763  0.7213  0.5969 -0.5012
   77MOL0     C10306  10.009   9.945   6.820 -0.9359  0.0739  0.1404
   77MOL0     O10307   9.731  10.128   6.789  0.6025  0.3263 -0.3490
   77MOL0     C10308   9.519   9.853   6.908  0.5957  0.3794  0.0944
   77MOL0     C10309   9.389   9.824   6.953 -0.3377 -0.8184 -0.2025
   77MOL0     N10310   8.690  10.192   7.218 -1.2911 -0.5264 -0.4779
   77MOL0     N10311   8.640  10.278   7.142  0.7303  0.4557  0.0329
   77MOL0     C10312   9.709  10.699   6.780 -0.6124 -0.9705  0.1732
   77MOL0     C10313   9.796  10.791   6.849  0.0054 -1.8160  0.2303
   77MOL0     C10314   9.982  11.175   6.827  0.0017 -0.2155 -0.0623
   77MOL0     C10315   9.879  11.265   6.838  0.9578 -0.3205  0.0966
   77MOL0     C10316   9.891  11.398   6.795  0.0813 -0.5643 -0.0136
   77MOL0     C10317  10.008  11.440   6.741 -1.0719 -0.2951 -0.5060
   77MOL0     O10318  10.038  11.560   6.676  0.7927 -0.3466 -0.0844
   77MOL0     C10319   9.933  11.658   6.700  0.7403  0.7573  0.0614
   77MOL0     C10320   9.996  11.798   6.667  1.1675  0.8163 -0.5493
   77MOL0     C10321  10.122  11.826   6.741  0.3169 -0.6235  0.9727
   77MOL0     C10322  10.137  11.973   6.795  0.4267  0.4424  0.1266
   77MOL0     C10323  10.145  12.061   6.677 -0.4165  0.6358  0.0700
   77MOL0     C10324  10.157  12.144   6.589 -0.5971  0.8604  0.3449
   77MOL0     C10325  10.117  11.352   6.743  0.2131  0.0345 -0.4711
   77MOL0     C10326  10.102  11.216   6.774 -0.2871  0.1260 -0.9056
   77MOL0     C10327  10.227  11.132   6.767  0.2213  0.2269 -0.5727
   77MOL0     H10328   9.563  11.017   6.947 -3.9524 -0.6559 -0.1819
   77MOL0     H10329   9.419  10.851   6.843 -0.7587  4.0361 -0.7158
   77MOL0     H10330   9.375  10.775   6.619 -0.8409 -1.2017  0.3691
   77MOL0     H10331   9.466  10.661   6.526  0.8151  0.3532  0.6256
   77MOL0     H10332   9.323  10.477   6.601 -0.3216 -0.6066 -0.9475
   77MOL0     H10333   9.227  10.601   6.537 -0.7886 -0.3918 -0.2189
   77MOL0     H10334   9.247  10.672   6.801  3.7041 -0.8277 -0.1676
   77MOL0     H10335   9.228  10.494   6.815  0.4171  0.2413  0.7159
   77MOL0     H10336   9.028  10.663   6.688  0.6671 -0.3291  0.6721
   77MOL0     H10337   9.034  10.483   6.657  0.4324  0.3812  0.6376
   77MOL0     H10338   8.987  10.444   6.896 -0.0806 -0.6158 -0.8380
   77MOL0     H10339   9.002  10.620   6.926 -0.5026 -0.6006  0.8727
   77MOL0     H10340   8.806  10.658   6.793  0.1573 -0.1173  1.3552
   77MOL0     H10341   8.798  10.500   6.732 -0.8905  0.2601 -0.3417
   77MOL0     H10342   8.641  10.578   6.908 -0.3421 -1.1901 -1.8970
   77MOL0     H10343   8.752  10.549   7.031  3.4259 -0.8199  0.0611
   77MOL0     H10344   8.579  10.367   6.887  0.4737  2.3433 -2.2603
   77MOL0     H10345   8.740  10.310   6.835 -0.4914  1.0048 -0.1782
   77MOL0     H10346   8.913  10.227   6.971  0.5375  0.1488 -0.4357
   77MOL0     H10347   9.016  10.132   7.223  0.9781 -0.7816  0.7208
   77MOL0     H10348   8.896  10.088   7.345 -3.7086 -0.1273 -0.6937
   77MOL0     H10349   8.831   9.892   7.201  0.2938 -0.5723 -0.4994
   77MOL0     H10350   8.936   9.956   7.071  0.5215  0.6535  0.0595
   77MOL0     H10351   9.014   9.749   7.193  1.2139 -1.8188  3.6212
   77MOL0     H10352   9.031   9.843   7.343  0.7017  1.9862  0.8258
   77MOL0     H10353   9.248   9.831   7.207 -1.6464 -0.0258  1.7515
   77MOL0     H10354   9.183  10.000   7.203 -3.5128  2.1110 -2.8002
   77MOL0     H10355   9.278  10.140   6.933  0.6040  0.9713 -0.5939
   77MOL0     H10356   9.497  10.188   6.872  0.0670  1.0646  3.6702
   77MOL0     H10357   9.832   9.905   6.541 -1.6805 -0.7757  1.3160
   77MOL0     H10358  10.058   9.917   6.438  0.6733 -1.4721  0.8306
   77MOL0     H10359  10.337   9.746   6.592  1.7639  0.2982  1.6827
   77MOL0     H10360  10.313   9.786   6.434  0.8484 -1.1285 -0.5645
   77MOL0     H10361  10.552   9.906   6.586 -3.8758  3.0628  0.1685
   77MOL0     H10362  10.568   9.741   6.510 -2.0759 -0.3124 -2.0366
   77MOL0     H10363  10.668   9.924   6.397  0.1006 -1.1598  1.2493
   77MOL0     H10364  10.571   9.829   6.295  4.3961  0.0951  0.0663
   77MOL0     H10365  10.453  10.078   6.410 -0.8035 -0.1542  0.3943
   77MOL0     H10366  10.376   9.976   6.287  1.2923 -2.2835 -2.6363
   77MOL0     H10367  10.550  10.041   6.122 -0.6515  2.8487 -2.5558
   77MOL0     H10368  10.641  10.124   6.254 -1.0427  0.7005  3.5585
   77MOL0     H10369  10.355  10.196   6.194  0.4207 -1.9869 -0.7563
   77MOL0     H10370  10.482  10.274   6.294  2.0007  0.2084 -0.7232
   77MOL0     H10371  10.489  10.253   5.995 -0.3939  1.5384 -1.8682
   77MOL0     H10372  10.606  10.351   6.100  0.6672 -0.8534 -2.8380
   77MOL0     H10373  10.309  10.399   6.059  0.4963  0.0340  0.3120
   77MOL0     H10374  10.419  10.487   6.168  3.7643  1.2552  0.2850
   77MOL0     H10375  10.220   9.990   6.830 -0.6429  0.2441  1.3471
   77MOL0     H10376  10.005   9.932   6.928 -0.9970  1.4643  0.3299
   77MOL0     H10377   9.580   9.768   6.880  1.3248  1.2314 -1.0419
   77MOL0     H10378   9.362   9.719   6.960  0.7592 -1.0419  1.1515
   77MOL0     H10379   9.745  10.603   6.744  2.2599 -0.4480  1.4117
   77MOL0     H10380   9.902  10.771   6.864  1.8592  5.4832  0.3248
   77MOL0     H10381   9.782  11.227   6.867 -0.7502  0.8625 -3.4710
   77MOL0     H10382   9.805  11.465   6.793  1.1695  0.8735 -0.0264
   77MOL0     H10383   9.891  11.660   6.801  0.7984  0.6216  0.0880
   77MOL0     H10384   9.846  11.641   6.635 -0.7865  0.1693  2.1550
   77MOL0     H10385   9.925  11.878   6.692 -2.1306 -0.7124 -3.9295
   77MOL0     H10386  10.009  11.802   6.558 -3.3286 -0.5647 -1.3511
   77MOL0     H10387  10.204  11.805   6.672  1.7623  2.5895  1.5081
   77MOL0     H10388  10.141  11.765   6.830  2.5087 -1.2791  0.1018
   77MOL0     H10389  10.058  12.007   6.863 -0.5315  4.0222 -2.4917
   77MOL0     H10390  10.222  11.989   6.862 -1.1315  1.2463  2.0172
   77MOL0     H10391  10.165  12.232   6.529  1.8269  0.2728 -0.2790
   77MOL0     H10392  10.211  11.398   6.715 -0.6469  2.0697 -0.2448
   77MOL0     H10393  10.205  11.044   6.706  2.8601 -1.7481  1.0970
   77MOL0     H10394  10.312  11.186   6.725  0.2667  1.4136  0.9764
   77MOL0     H10395  10.248  11.078   6.859  0.8283  0.1143 -0.7739
   78MOL0     O10396   0.906   9.522   8.726  0.0974  0.0120  0.1724
   78MOL0     C10397   0.906   9.473   8.619 -0.3256  0.1579  0.6425
   78MOL0     O10398   0.928   9.339   8.593  0.1988  0.0225 -0.4004
   78MOL0     C10399   0.976   9.259   8.690  0.1478  0.9816  0.2716
   78MOL0     C10400   1.111   9.239   8.700 -0.6751  0.5715 -0.3005
   78MOL0     C10401   1.162   9.158   8.805 -0.4492  0.7899  0.9104
   78MOL0     C10402   1.076   9.075   8.879 -0.8922 -0.5760  0.5952
   78MOL0     O10403   1.113   8.987   8.984  0.2583 -0.3697 -0.6270
   78MOL0     C10404   1.244   8.991   9.037 -0.9751 -0.1900 -0.0224
   78MOL0     C10405   1.258   8.923   9.175  0.6207 -0.2726 -0.3249
   78MOL0     C10406   1.398   8.931   9.237 -0.2089 -1.0694 -0.0810
   78MOL0     C10407   1.398   9.052   9.335 -0.2274  0.2585  1.1131
   78MOL0     C10408   1.533   9.106   9.374  0.9014 -0.5262 -0.1978
   78MOL0     C10409   1.619   9.168   9.264 -0.0595 -1.0079 -0.3743
   78MOL0     C10410   1.553   9.283   9.191 -1.5304  0.4091 -0.5562
   78MOL0     C10411   1.646   9.351   9.097  0.3715 -0.5680 -0.5147
   78MOL0     N10412   1.686   9.257   8.988  1.0287 -0.1115  0.4019
   78MOL0     C10413   1.609   9.207   8.890  0.4312  0.4834  0.0518
   78MOL0     C10414   1.700   9.131   8.817  0.2540  0.5734 -0.5179
   78MOL0     C10415   1.696   9.080   8.672  0.1361 -0.4199 -0.0063
   78MOL0     C10416   1.644   9.177   8.566  0.6090  0.2438 -0.0445
   78MOL0     C10417   1.490   9.167   8.566 -0.2842 -0.4102 -0.2912
   78MOL0     C10418   1.430   9.264   8.475 -1.0931 -0.5324  0.4251
   78MOL0     O10419   1.473   9.229   8.337 -0.3287  0.0787 -0.2314
   78MOL0     C10420   1.460   9.329   8.245 -0.2766 -0.2878  0.0606
   78MOL0     C10421   1.368   9.436   8.247 -0.2329 -0.3721 -0.3378
   78MOL0     C10422   1.372   9.528   8.142 -0.5262  0.1529  0.2231
   78MOL0     C10423   1.466   9.524   8.044 -0.7605  0.0073  0.4729
   78MOL0     C10424   1.470   9.627   7.939 -0.1413  0.2211  0.5397
   78MOL0     O10425   1.549   9.608   7.827 -0.0794 -0.0931 -0.2439
   78MOL0     C10426   1.542   9.698   7.723 -0.1852 -0.2466 -0.2533
   78MOL0     C10427   1.585   9.828   7.739  0.0398  0.1514 -0.0703
   78MOL0     C10428   1.578   9.913   7.630 -0.3325 -0.3003  0.7077
   78MOL0     C10429   1.555   9.864   7.495  0.6792  0.3252  1.0201
   78MOL0     O10430   1.569   9.943   7.379 -0.4538  0.2530  0.3219
   78MOL0     C10431   1.497  10.066   7.370  0.2505  0.2483 -0.0074
   78MOL0     C10432   1.494  10.115   7.228  0.4570 -0.4648 -0.1634
   78MOL0     C10433   1.627  10.111   7.151 -0.7339  0.1272  0.3560
   78MOL0     C10434   1.592  10.124   7.007  0.2123 -0.6599 -0.4519
   78MOL0     C10435   1.716  10.183   6.923 -0.0168  0.9238  0.8241
   78MOL0     C10436   1.673  10.274   6.812  0.3647 -0.1375  0.5051
   78MOL0     C10437   1.791  10.338   6.731  0.6925 -0.2243  0.1097
   78MOL0     C10438   1.746  10.414   6.607  0.0300 -0.5716  0.6003
   78MOL0    Cl10439   1.888  10.479   6.541  0.2747 -0.0075  0.1005
   78MOL0     C10440   1.520   9.735   7.479 -0.4055 -0.0518  0.1110
   78MOL0     C10441   1.508   9.649   7.595 -0.1040  0.2406  0.4697
   78MOL0     O10442   1.387   9.721   7.950  0.1835 -0.3981 -0.1610
   78MOL0     C10443   1.565   9.420   8.041  0.0869 -1.5042 -0.5723
   78MOL0     C10444   1.565   9.328   8.144  0.5262 -0.1888  0.2423
   78MOL0     N10445   1.815   9.121   8.891 -0.5957 -0.0091 -1.2644
   78MOL0     N10446   1.810   9.200   8.987  0.4683 -0.1240 -0.5043
   78MOL0     C10447   0.938   9.088   8.853 -0.2046  0.4800  0.8403
   78MOL0     C10448   0.886   9.186   8.766  0.2130  0.8733 -0.7754
   78MOL0     C10449   0.883   9.565   8.506  0.6868 -0.1250 -0.3534
   78MOL0     C10450   0.872   9.502   8.380 -0.6332  0.9933 -0.1273
   78MOL0     C10451   0.861   9.575   8.267  0.7419  0.5774  0.4316
   78MOL0     C10452   0.839   9.712   8.267 -0.2290  0.4205 -0.5356
   78MOL0     O10453   0.832   9.797   8.156  0.0373  0.2597 -0.1060
   78MOL0     C10454   0.796   9.724   8.039 -0.2975 -0.2635 -0.0613
   78MOL0     C10455   0.782   9.816   7.916  0.1279  0.9487 -0.2712
   78MOL0     C10456   0.660   9.907   7.932  1.4101 -0.7546 -0.0866
   78MOL0     C10457   0.621   9.986   7.807  0.5369  0.3575  0.2533
   78MOL0     C10458   0.733  10.058   7.742 -0.7770 -0.3708  0.2359
   78MOL0     C10459   0.826  10.109   7.684 -0.0621 -0.5309 -0.5245
   78MOL0     C10460   0.834   9.775   8.392 -0.3091 -0.0954  0.2630
   78MOL0     C10461   0.850   9.707   8.517  0.7073  0.5770  0.0558
   78MOL0     C10462   0.832   9.792   8.639  0.2426  1.5580  0.2728
   78MOL0     H10463   1.176   9.306   8.643  1.3504  0.6883  1.9617
   78MOL0     H10464   1.269   9.160   8.823 -0.3839  0.8343  0.5410
   78MOL0     H10465   1.328   8.959   8.975  0.9749 -1.3050  2.9315
   78MOL0     H10466   1.277   9.095   9.049  2.2813 -1.1950  0.7924
   78MOL0     H10467   1.226   8.820   9.158 -1.4809  0.6612 -2.7592
   78MOL0     H10468   1.182   8.959   9.245 -2.2826 -2.2236 -2.2316
   78MOL0     H10469   1.484   8.925   9.170  2.9080  0.0840  3.4795
   78MOL0     H10470   1.403   8.844   9.304 -1.9632 -0.2104  1.2690
   78MOL0     H10471   1.359   9.145   9.292  2.7083  1.5100  0.9506
   78MOL0     H10472   1.341   9.024   9.424 -0.2921 -1.0913  0.6734
   78MOL0     H10473   1.520   9.165   9.465  1.1792  0.0454 -0.5215
   78MOL0     H10474   1.585   9.014   9.403 -1.9451 -2.4123 -0.7506
   78MOL0     H10475   1.713   9.206   9.304 -1.0883  1.4290 -0.0908
   78MOL0     H10476   1.647   9.086   9.197  3.0415 -1.1754  0.9888
   78MOL0     H10477   1.518   9.351   9.268 -1.4440 -0.0704 -0.0871
   78MOL0     H10478   1.467   9.249   9.132 -1.9889 -1.3704  1.0335
   78MOL0     H10479   1.594   9.431   9.044  2.1321  0.1410 -1.2463
   78MOL0     H10480   1.735   9.381   9.153 -0.3260 -2.1877  1.6272
   78MOL0     H10481   1.507   9.241   8.871  0.7380  3.8986  3.3433
   78MOL0     H10482   1.802   9.059   8.654  0.6070  1.5483  0.1575
   78MOL0     H10483   1.638   8.988   8.660 -0.2576  0.0093 -1.5328
   78MOL0     H10484   1.670   9.279   8.594 -2.0350  0.7179  0.9932
   78MOL0     H10485   1.682   9.153   8.466  0.8426  2.3482 -0.5000
   78MOL0     H10486   1.445   9.206   8.658 -1.4652  2.8353 -2.0882
   78MOL0     H10487   1.447   9.070   8.539 -0.1333 -0.4220 -0.4915
   78MOL0     H10488   1.450   9.370   8.493 -2.4385 -0.0412 -0.7271
   78MOL0     H10489   1.322   9.251   8.487 -1.0622  0.2540  1.6885
   78MOL0     H10490   1.300   9.442   8.331  2.8211  0.1682  2.2737
   78MOL0     H10491   1.288   9.597   8.135  1.1340  2.0509 -3.5641
   78MOL0     H10492   1.619   9.864   7.835 -0.9816  0.3264  0.2382
   78MOL0     H10493   1.596  10.018   7.648 -0.3201 -0.5598  2.3798
   78MOL0     H10494   1.395  10.032   7.394  0.9377 -2.2706 -0.3780
   78MOL0     H10495   1.531  10.132   7.450 -0.7768  0.0651  0.6010
   78MOL0     H10496   1.433  10.049   7.167 -0.7226 -0.8264  1.3455
   78MOL0     H10497   1.465  10.220   7.233  1.7166 -0.1299  0.5999
   78MOL0     H10498   1.704  10.181   7.185  3.1675 -3.7729  0.4786
   78MOL0     H10499   1.672  10.015   7.177 -3.4913 -0.2555  4.8859
   78MOL0     H10500   1.499  10.177   6.985  0.4784 -0.6529 -1.6713
   78MOL0     H10501   1.577  10.021   6.974  1.8632 -0.3811 -2.2790
   78MOL0     H10502   1.777  10.099   6.889 -0.7655  0.9967 -0.7585
   78MOL0     H10503   1.772  10.241   6.998 -2.5237 -1.3817  4.8165
   78MOL0     H10504   1.611  10.208   6.751 -1.6164  3.1054 -1.2141
   78MOL0     H10505   1.615  10.359   6.847 -0.1050 -0.2480  0.0164
   78MOL0     H10506   1.874  10.272   6.701 -0.6474 -1.0223 -2.1272
   78MOL0     H10507   1.840  10.412   6.794 -0.6641  0.3728  0.4892
   78MOL0     H10508   1.687  10.365   6.529 -1.2223  0.4977  0.8449
   78MOL0     H10509   1.676  10.489   6.643 -1.9161 -1.8070 -0.4036
   78MOL0     H10510   1.497   9.698   7.380 -3.6793  1.4120  0.1949
   78MOL0     H10511   1.479   9.546   7.578 -0.0627  0.3334 -0.1748
   78MOL0     H10512   1.659   9.415   7.987  0.8469  0.1736  0.4989
   78MOL0     H10513   1.635   9.245   8.146 -1.2166 -1.7737 -0.7169
   78MOL0     H10514   0.854   9.049   8.909 -1.5357  1.2501 -0.5561
   78MOL0     H10515   0.780   9.207   8.755 -0.4067 -1.0799  0.7679
   78MOL0     H10516   0.893   9.399   8.356 -1.3948  0.8624 -0.2766
   78MOL0     H10517   0.871   9.520   8.175  3.9631  0.2943  0.8357
   78MOL0     H10518   0.700   9.675   8.056 -0.3227 -0.2818 -0.2569
   78MOL0     H10519   0.874   9.650   8.019  0.5788 -0.5536  3.7348
   78MOL0     H10520   0.771   9.754   7.827  0.5235 -0.5499  0.6769
   78MOL0     H10521   0.875   9.872   7.901  1.9656 -1.8341  0.0384
   78MOL0     H10522   0.682   9.974   8.015  1.4022 -0.9316  0.0602
   78MOL0     H10523   0.568   9.856   7.964  0.3919  3.1912  4.4234
   78MOL0     H10524   0.599   9.925   7.719 -0.6126  2.8595 -1.2974
   78MOL0     H10525   0.530  10.041   7.830 -0.4777 -1.1534 -0.0138
   78MOL0     H10526   0.902  10.167   7.634  0.1898 -1.1965 -0.9269
   78MOL0     H10527   0.809   9.881   8.392 -1.0912 -0.2718  0.1452
   78MOL0     H10528   0.900   9.755   8.716  0.6852  3.9303  1.0920
   78MOL0     H10529   0.873   9.891   8.621  0.8575  0.9537 -1.8879
   78MOL0     H10530   0.730   9.795   8.681  1.8052 -1.2806  5.1306
   79MOL0     O10531   3.502   6.078   7.902 -1.0355  0.7319  0.0157
   79MOL0     C10532   3.439   6.068   7.798 -1.2287  0.0544 -0.1520
   79MOL0     O10533   3.446   5.964   7.710  0.0078 -0.0615  0.4197
   79MOL0     C10534   3.540   5.864   7.720 -0.3633 -0.3429 -0.5631
   79MOL0     C10535   3.617   5.827   7.607  0.8961 -1.2935 -0.8256
   79MOL0     C10536   3.724   5.744   7.611  0.2679 -0.1444 -0.5211
   79MOL0     C10537   3.763   5.690   7.739  0.1764 -0.0216  0.8524
   79MOL0     O10538   3.876   5.615   7.740 -0.1383 -0.4955  0.0105
   79MOL0     C10539   3.920   5.558   7.865  0.2825  0.9890 -0.4890
   79MOL0     C10540   4.035   5.461   7.848  0.2087  0.0949 -0.4306
   79MOL0     C10541   4.174   5.524   7.830  0.3713  0.2464 -0.3511
   79MOL0     C10542   4.295   5.430   7.845  0.9337  0.3772  0.9320
   79MOL0     C10543   4.439   5.482   7.821 -0.3833 -1.2323  1.5879
   79MOL0     C10544   4.486   5.602   7.910 -0.2875 -0.0755  0.4329
   79MOL0     C10545   4.627   5.649   7.897  0.0109  0.4152  0.5706
   79MOL0     C10546   4.650   5.744   8.008 -0.1027 -0.7853  0.0740
   79MOL0     N10547   4.567   5.873   8.007 -0.0443 -0.1822  0.0958
   79MOL0     C10548   4.610   5.990   7.951  0.3121  1.6045 -0.1470
   79MOL0     C10549   4.532   6.086   8.012  0.7886 -0.5076  0.3723
   79MOL0     C10550   4.564   6.232   7.988 -0.5083 -0.4667  0.6414
   79MOL0     C10551   4.451   6.307   7.914  0.6598 -0.4635 -0.7741
   79MOL0     C10552   4.315   6.279   7.990 -0.5906  0.1880  0.4369
   79MOL0     C10553   4.272   6.354   8.123  0.1164 -0.1932 -0.1757
   79MOL0     O10554   4.136   6.318   8.158 -0.3734  1.3421  0.7102
   79MOL0     C10555   4.053   6.413   8.207  0.3655  1.1077  0.4638
   79MOL0     C10556   3.930   6.434   8.137  0.3191 -0.0944 -0.5164
   79MOL0     C10557   3.827   6.514   8.183  0.0869  0.5722 -0.1675
   79MOL0     C10558   3.848   6.582   8.308  0.7255  0.4513 -0.2240
   79MOL0     C10559   3.742   6.662   8.363 -0.1545  0.4425 -0.5877
   79MOL0     O10560   3.759   6.705   8.494 -0.1805 -0.1226  0.0332
   79MOL0     C10561   3.664   6.789   8.546 -0.0829 -0.8779 -0.7015
   79MOL0     C10562   3.663   6.932   8.517  0.1329  0.2413 -0.5959
   79MOL0     C10563   3.577   7.018   8.582  0.7005 -0.4105 -0.5163
   79MOL0     C10564   3.492   6.966   8.680  0.1806 -0.4618 -0.1465
   79MOL0     O10565   3.412   7.045   8.764  0.0227  0.5641 -0.2419
   79MOL0     C10566   3.442   7.182   8.776 -0.9357  0.5197  0.1091
   79MOL0     C10567   3.364   7.240   8.888  0.1003  0.3141  0.2196
   79MOL0     C10568   3.403   7.170   9.014 -0.4358 -0.3256  0.1653
   79MOL0     C10569   3.341   7.219   9.142 -0.1460  0.2468 -0.1479
   79MOL0     C10570   3.380   7.114   9.254  0.3522  0.4408  0.1299
   79MOL0     C10571   3.278   7.140   9.370 -0.0553  0.5573 -0.1723
   79MOL0     C10572   3.337   7.256   9.463  0.4770 -0.3906  0.4694
   79MOL0     C10573   3.230   7.340   9.532  0.8616  0.3309 -0.6634
   79MOL0    Cl10574   3.093   7.261   9.602  0.3471 -0.1270 -0.1102
   79MOL0     C10575   3.482   6.828   8.706 -0.2334  0.8936 -0.8264
   79MOL0     C10576   3.565   6.741   8.633  0.0374  1.1559  0.3367
   79MOL0     O10577   3.639   6.680   8.294  0.0847  0.2589 -0.0307
   79MOL0     C10578   3.970   6.574   8.371 -1.4297 -0.6662 -1.1434
   79MOL0     C10579   4.071   6.491   8.323 -0.0489  0.2450 -0.7856
   79MOL0     N10580   4.454   6.023   8.107 -0.1454  0.0603  0.9929
   79MOL0     N10581   4.473   5.898   8.102 -0.4805  0.2281  0.4160
   79MOL0     C10582   3.691   5.726   7.850 -0.8483 -0.1780  0.5219
   79MOL0     C10583   3.575   5.797   7.832 -0.2587 -0.5023 -0.2031
   79MOL0     C10584   3.342   6.176   7.759  0.0274 -0.2905 -1.1243
   79MOL0     C10585   3.231   6.151   7.673 -0.4599 -0.5612  0.2121
   79MOL0     C10586   3.136   6.243   7.639 -0.4340  0.2705  0.1771
   79MOL0     C10587   3.138   6.367   7.694  0.6260 -0.3256 -0.9155
   79MOL0     O10588   3.050   6.463   7.653 -0.5394 -1.1251  0.7530
   79MOL0     C10589   2.914   6.437   7.679  1.0350 -0.7328 -0.3666
   79MOL0     C10590   2.843   6.565   7.733 -0.3048 -0.4718 -0.3841
   79MOL0     C10591   2.849   6.549   7.890 -0.8978 -0.0207  0.5112
   79MOL0     C10592   2.819   6.684   7.958  0.1087 -0.1761  0.9271
   79MOL0     C10593   2.939   6.767   7.965  0.2820  0.2660  0.7577
   79MOL0     C10594   3.037   6.832   7.960 -0.4190 -0.0394 -0.6496
   79MOL0     C10595   3.233   6.395   7.791 -0.8550  0.8139 -0.1810
   79MOL0     C10596   3.340   6.302   7.827  0.5708 -1.7440 -0.4605
   79MOL0     C10597   3.427   6.350   7.939  0.4102  0.1501 -0.4763
   79MOL0     H10598   3.597   5.868   7.508  0.8904 -2.3658 -1.2798
   79MOL0     H10599   3.778   5.713   7.522 -2.9823 -0.9684 -2.3651
   79MOL0     H10600   3.938   5.627   7.948 -0.1302  0.1093  0.3642
   79MOL0     H10601   3.837   5.495   7.900  2.2826 -0.9248  1.1332
   79MOL0     H10602   4.017   5.399   7.760  2.1527 -0.5155 -0.4399
   79MOL0     H10603   4.038   5.401   7.939 -1.4547  0.6585  0.0444
   79MOL0     H10604   4.202   5.617   7.881  1.1746  2.1530 -3.9196
   79MOL0     H10605   4.188   5.571   7.732 -1.2522  0.4525 -0.5260
   79MOL0     H10606   4.286   5.389   7.946 -0.1099 -2.5682 -0.2499
   79MOL0     H10607   4.279   5.351   7.771  0.5130 -1.3276  2.7894
   79MOL0     H10608   4.517   5.408   7.841  2.9272  1.7685  0.7953
   79MOL0     H10609   4.435   5.515   7.717 -3.5813  1.1166  2.2927
   79MOL0     H10610   4.427   5.692   7.893  1.4345  1.4327  1.9492
   79MOL0     H10611   4.471   5.572   8.014  2.4515 -1.1023  0.6376
   79MOL0     H10612   4.648   5.683   7.795 -1.1750 -0.5898 -0.0422
   79MOL0     H10613   4.704   5.573   7.907  0.3683  0.5214 -1.0118
   79MOL0     H10614   4.636   5.707   8.109 -0.0211  0.7539  0.6813
   79MOL0     H10615   4.756   5.771   8.010 -0.4378  0.6397 -0.4090
   79MOL0     H10616   4.683   5.997   7.871 -1.5615 -3.3612 -2.7698
   79MOL0     H10617   4.594   6.282   8.081  1.7121  0.4161 -0.4814
   79MOL0     H10618   4.657   6.242   7.931 -0.9215  0.4114  0.0984
   79MOL0     H10619   4.479   6.412   7.908  4.0605 -1.2735 -1.4021
   79MOL0     H10620   4.448   6.266   7.813 -2.2763  0.6084 -1.2311
   79MOL0     H10621   4.292   6.172   7.983 -1.2629  0.3034  0.8745
   79MOL0     H10622   4.229   6.314   7.932 -1.2585 -1.1856  0.5528
   79MOL0     H10623   4.282   6.461   8.100  2.2323 -0.2192  0.4320
   79MOL0     H10624   4.337   6.333   8.208 -1.4085 -1.0709  0.8215
   79MOL0     H10625   3.925   6.383   8.041 -4.1904 -2.6185  0.7510
   79MOL0     H10626   3.736   6.514   8.124 -1.1429 -1.0319  1.6305
   79MOL0     H10627   3.723   6.977   8.439 -0.3884 -1.2812 -1.9311
   79MOL0     H10628   3.584   7.125   8.563 -2.5878  0.2987  1.4138
   79MOL0     H10629   3.550   7.201   8.775 -0.6880 -0.6547 -1.9616
   79MOL0     H10630   3.409   7.233   8.685 -1.9589  0.7839  0.6146
   79MOL0     H10631   3.390   7.346   8.902  2.5484 -0.0303 -1.0929
   79MOL0     H10632   3.257   7.228   8.864 -0.2832  2.6034  0.5528
   79MOL0     H10633   3.385   7.063   9.000  2.8653 -1.0389  0.5817
   79MOL0     H10634   3.511   7.166   9.032 -0.4995 -0.8547  0.4610
   79MOL0     H10635   3.232   7.212   9.130 -0.1564  0.7679 -0.3811
   79MOL0     H10636   3.367   7.324   9.161  1.1292 -0.1339  0.2746
   79MOL0     H10637   3.483   7.132   9.287  1.5300 -3.4112 -0.9970
   79MOL0     H10638   3.372   7.009   9.226 -1.1843  0.8046 -0.9436
   79MOL0     H10639   3.182   7.171   9.326  0.5753  0.3866 -1.7578
   79MOL0     H10640   3.261   7.050   9.429 -1.5736  1.2638  0.5322
   79MOL0     H10641   3.415   7.310   9.409  1.0192 -0.1371  1.4822
   79MOL0     H10642   3.405   7.210   9.536  2.2258  2.6987  0.9407
   79MOL0     H10643   3.287   7.389   9.611 -0.4082  0.9101 -0.0866
   79MOL0     H10644   3.190   7.416   9.464 -0.4714  0.3205  0.0800
   79MOL0     H10645   3.403   6.797   8.774 -0.1490  1.5114 -0.4421
   79MOL0     H10646   3.555   6.633   8.635 -3.4995  1.0557 -4.5724
   79MOL0     H10647   3.986   6.638   8.458  0.6867 -2.6200  0.0331
   79MOL0     H10648   4.159   6.489   8.386  1.4486 -1.6325 -2.7796
   79MOL0     H10649   3.706   5.698   7.954  0.0845 -0.6546  0.2694
   79MOL0     H10650   3.508   5.807   7.917 -5.1947  0.2651 -3.7251
   79MOL0     H10651   3.229   6.057   7.620 -0.7876 -1.3553  1.5661
   79MOL0     H10652   3.062   6.210   7.567 -1.2863  2.3416  0.0294
   79MOL0     H10653   2.909   6.352   7.747  1.3830 -0.2999  0.2107
   79MOL0     H10654   2.863   6.399   7.590 -1.9540 -3.1089  2.1504
   79MOL0     H10655   2.746   6.597   7.692  1.0554  2.8106 -1.4074
   79MOL0     H10656   2.911   6.648   7.711  0.8644 -1.4911 -0.6912
   79MOL0     H10657   2.946   6.509   7.922 -1.5482 -0.3031  2.2940
   79MOL0     H10658   2.787   6.461   7.911 -0.6093 -0.8880 -2.0042
   79MOL0     H10659   2.734   6.723   7.902  0.6563  0.5424  0.5801
   79MOL0     H10660   2.782   6.658   8.058 -3.9490  0.7548 -0.1677
   79MOL0     H10661   3.128   6.889   7.958  0.6189 -1.4138  2.0902
   79MOL0     H10662   3.221   6.483   7.854 -0.8222  0.3438  0.4890
   79MOL0     H10663   3.529   6.319   7.912  0.1875 -0.1668 -0.9604
   79MOL0     H10664   3.435   6.459   7.945  1.4476  0.2017 -2.3034
   79MOL0     H10665   3.392   6.311   8.036 -0.5379  2.6087  0.2503
   80MOL0     O10666   9.815   2.208   6.087 -0.1489  0.9562  0.2607
   80MOL0     C10667   9.859   2.095   6.116 -0.2839  0.5703  0.2929
   80MOL0     O10668   9.976   2.057   6.171 -0.0348  0.3961 -0.2531
   80MOL0     C10669  10.061   2.154   6.237  0.5188 -0.3601 -1.3241
   80MOL0     C10670  10.087   2.284   6.194  0.0965 -0.0135  0.1916
   80MOL0     C10671  10.176   2.370   6.261 -0.4707 -0.5294 -0.1102
   80MOL0     C10672  10.235   2.326   6.383 -0.1637  0.5162 -0.8310
   80MOL0     O10673  10.319   2.413   6.451 -0.9764  0.0984  0.6201
   80MOL0     C10674  10.446   2.354   6.481 -0.4660  0.4975 -0.1614
   80MOL0     C10675  10.551   2.402   6.382  0.3585 -0.0089  0.0778
   80MOL0     C10676  10.510   2.377   6.237 -0.1369  0.1004  0.8808
   80MOL0     C10677  10.631   2.393   6.147 -0.2417 -0.1603 -0.3132
   80MOL0     C10678  10.668   2.261   6.083 -0.4737  0.0129 -0.7123
   80MOL0     C10679  10.781   2.288   5.978 -0.2805  0.2996 -0.4430
   80MOL0     C10680  10.803   2.167   5.881  0.4692 -0.1199 -0.4056
   80MOL0     C10681  10.876   2.051   5.954  0.4947  1.0051  0.4016
   80MOL0     N10682  10.899   1.938   5.858 -0.3302  0.6798 -0.0659
   80MOL0     C10683  10.809   1.850   5.822 -0.3044  0.0446 -0.6700
   80MOL0     C10684  10.848   1.812   5.697 -0.3988  1.0260 -0.4709
   80MOL0     C10685  10.774   1.727   5.599 -0.1755  0.2393 -0.2526
   80MOL0     C10686  10.685   1.616   5.657 -0.2615  0.5574 -0.9925
   80MOL0     C10687  10.631   1.511   5.554 -0.5046  0.4272 -0.6334
   80MOL0     C10688  10.624   1.561   5.409  0.4265  0.2833 -0.4870
   80MOL0     O10689  10.562   1.456   5.324 -0.0064  0.0452  0.2037
   80MOL0     C10690  10.532   1.496   5.197  0.4471  1.1433  0.0375
   80MOL0     C10691  10.585   1.603   5.131  0.0826 -0.8559  0.5728
   80MOL0     C10692  10.569   1.621   4.988 -0.3127 -0.2931  0.8836
   80MOL0     C10693  10.479   1.537   4.916 -1.0824 -0.4623  0.2377
   80MOL0     C10694  10.460   1.547   4.775  0.3021 -0.0852  0.0974
   80MOL0     O10695  10.418   1.436   4.704  0.2643 -0.3055  0.8199
   80MOL0     C10696  10.443   1.416   4.571 -0.6044 -0.2261 -0.0958
   80MOL0     C10697  10.554   1.444   4.498 -0.4599 -0.0240  0.1095
   80MOL0     C10698  10.570   1.404   4.364  0.4532 -0.5364  0.5073
   80MOL0     C10699  10.479   1.335   4.301  0.6921  0.7851  0.8854
   80MOL0     O10700  10.505   1.292   4.173 -0.8244 -0.6020 -0.0641
   80MOL0     C10701  10.619   1.207   4.165  0.5634  0.3620  0.3956
   80MOL0     C10702  10.621   1.158   4.022 -0.5377 -0.2779  0.5513
   80MOL0     C10703  10.727   1.053   3.999  1.1412 -0.1527  0.0939
   80MOL0     C10704  10.733   1.007   3.848 -0.2911 -0.3291  0.5330
   80MOL0     C10705  10.605   0.922   3.802 -0.1042 -0.8645 -0.5609
   80MOL0     C10706  10.631   0.851   3.658 -0.3401 -0.7073  0.2359
   80MOL0     C10707  10.551   0.721   3.650  0.2935 -0.8680 -0.2790
   80MOL0     C10708  10.588   0.646   3.517 -0.3205 -0.4807  0.2786
   80MOL0    Cl10709  10.526   0.770   3.399  0.3419 -0.1140  0.3525
   80MOL0     C10710  10.356   1.304   4.369  0.7907 -0.7017  0.5551
   80MOL0     C10711  10.342   1.335   4.506  0.0836 -0.6007 -0.1532
   80MOL0     O10712  10.486   1.652   4.726 -0.4905  0.4645 -0.0217
   80MOL0     C10713  10.409   1.440   4.990 -0.0526  1.2809 -0.2076
   80MOL0     C10714  10.431   1.420   5.131  0.2730 -0.4777  0.2048
   80MOL0     N10715  10.965   1.876   5.675 -0.1001 -0.0498 -0.8935
   80MOL0     N10716  10.993   1.952   5.758 -0.3692  0.4653 -0.2001
   80MOL0     C10717  10.198   2.211   6.439  0.7143 -0.7535  0.6662
   80MOL0     C10718  10.113   2.132   6.365 -0.1034  0.0087  0.1677
   80MOL0     C10719   9.772   1.981   6.094 -0.4084  0.0179  0.3703
   80MOL0     C10720   9.759   1.891   6.203  0.4056  0.8483 -0.0844
   80MOL0     C10721   9.666   1.794   6.194  0.7898  0.9032  0.0476
   80MOL0     C10722   9.586   1.769   6.082 -0.1601 -0.1716  0.1568
   80MOL0     O10723   9.500   1.654   6.064  0.0042  0.1407 -0.5181
   80MOL0     C10724   9.518   1.532   6.135 -0.2743  0.1769 -0.5593
   80MOL0     C10725   9.491   1.402   6.045 -0.1176 -0.2007 -0.2493
   80MOL0     C10726   9.629   1.339   6.000  0.9749  0.0059  1.0507
   80MOL0     C10727   9.631   1.240   5.884  1.2777  0.3323 -0.2216
   80MOL0     C10728   9.557   1.293   5.764 -0.2161 -0.8774 -0.8678
   80MOL0     C10729   9.498   1.328   5.665  0.4724  0.1097 -0.0092
   80MOL0     C10730   9.602   1.853   5.968 -0.1121 -0.0971 -0.5691
   80MOL0     C10731   9.692   1.962   5.981 -0.5423 -0.7542  0.6652
   80MOL0     C10732   9.703   2.044   5.855  0.7119 -0.6552 -0.3870
   80MOL0     H10733  10.040   2.328   6.107 -0.8713 -0.4683  0.4700
   80MOL0     H10734  10.197   2.470   6.225  0.7019 -0.2381  1.3169
   80MOL0     H10735  10.477   2.382   6.582 -2.6436  0.6298  0.5263
   80MOL0     H10736  10.442   2.246   6.495 -0.9888  0.7209  1.8908
   80MOL0     H10737  10.649   2.359   6.407 -0.4218 -0.7322  2.1117
   80MOL0     H10738  10.560   2.511   6.380 -0.5897  0.0753 -0.1845
   80MOL0     H10739  10.429   2.449   6.221 -1.1535 -0.1390  4.1855
   80MOL0     H10740  10.458   2.283   6.218 -2.4589  1.4651  0.0350
   80MOL0     H10741  10.601   2.460   6.066 -0.4277  1.7585  1.2608
   80MOL0     H10742  10.714   2.439   6.201  0.5021 -0.2587 -1.3486
   80MOL0     H10743  10.711   2.198   6.162 -1.9003  3.0780  2.7748
   80MOL0     H10744  10.574   2.229   6.036 -0.0299  3.3954 -4.3449
   80MOL0     H10745  10.743   2.372   5.919  1.4623  0.3542 -1.5710
   80MOL0     H10746  10.873   2.335   6.015 -1.0777 -0.3618  2.6795
   80MOL0     H10747  10.843   2.211   5.790 -0.5616  0.5527 -0.5488
   80MOL0     H10748  10.702   2.137   5.854 -0.2636  0.4926  1.4902
   80MOL0     H10749  10.980   2.079   5.978  1.5518 -2.4330  0.3010
   80MOL0     H10750  10.831   2.013   6.046 -2.0640 -1.4568 -1.7072
   80MOL0     H10751  10.719   1.815   5.873  1.8495 -2.1651  1.9588
   80MOL0     H10752  10.703   1.792   5.548 -3.1901  0.2328  3.4921
   80MOL0     H10753  10.852   1.684   5.535 -0.4379 -1.5414  0.5942
   80MOL0     H10754  10.742   1.556   5.728 -1.5052 -0.8884 -1.1840
   80MOL0     H10755  10.601   1.658   5.713  0.8417  0.2906  0.9410
   80MOL0     H10756  10.527   1.484   5.573 -0.8188  0.4549 -2.2320
   80MOL0     H10757  10.700   1.425   5.553 -2.6104 -1.3581  0.1805
   80MOL0     H10758  10.722   1.594   5.373  0.6443  2.3895  1.7534
   80MOL0     H10759  10.560   1.649   5.410 -0.2927 -0.0744  3.4125
   80MOL0     H10760  10.652   1.672   5.181  1.3308 -0.4784 -1.5231
   80MOL0     H10761  10.625   1.700   4.939 -3.0138  0.6340 -0.9652
   80MOL0     H10762  10.630   1.509   4.541  1.8800 -1.2284 -1.9395
   80MOL0     H10763  10.660   1.441   4.316  0.1234  2.9073  2.2291
   80MOL0     H10764  10.711   1.266   4.171 -1.9508  4.5372  1.5829
   80MOL0     H10765  10.605   1.119   4.228  1.6163 -2.4717 -2.9956
   80MOL0     H10766  10.525   1.119   3.984 -1.1723 -0.4216  2.2416
   80MOL0     H10767  10.648   1.245   3.962 -1.5939  1.3447  2.3062
   80MOL0     H10768  10.820   1.099   4.036 -0.0021  2.6413 -0.2433
   80MOL0     H10769  10.715   0.969   4.067 -0.5800  0.1201  0.1561
   80MOL0     H10770  10.829   0.959   3.831 -0.1505 -0.7663  2.3175
   80MOL0     H10771  10.746   1.100   3.791  2.5005  0.1200  1.7623
   80MOL0     H10772  10.517   0.987   3.800 -0.8906 -1.8625  0.4323
   80MOL0     H10773  10.587   0.843   3.876  0.3438 -0.6831 -0.2557
   80MOL0     H10774  10.626   0.927   3.580 -1.1694 -1.4046 -0.4094
   80MOL0     H10775  10.734   0.816   3.648 -0.9014 -2.1551 -0.7155
   80MOL0     H10776  10.445   0.741   3.628  0.6462 -0.1745 -1.4465
   80MOL0     H10777  10.562   0.666   3.743  4.0392  1.9669  1.2014
   80MOL0     H10778  10.692   0.614   3.506 -0.8623 -2.3742  0.3018
   80MOL0     H10779  10.532   0.556   3.490 -0.2963 -0.6948  0.9280
   80MOL0     H10780  10.270   1.265   4.316  0.6420  2.1214 -1.5716
   80MOL0     H10781  10.258   1.295   4.564 -0.4112  0.8568  0.1789
   80MOL0     H10782  10.322   1.388   4.950 -1.7417  1.7347  2.5686
   80MOL0     H10783  10.372   1.348   5.187  0.8661 -1.9496 -0.9679
   80MOL0     H10784  10.241   2.170   6.531  1.8909 -3.4254 -0.9406
   80MOL0     H10785  10.090   2.031   6.398 -2.9816  1.0234  1.6068
   80MOL0     H10786   9.828   1.902   6.286 -0.5576  0.6426  0.7655
   80MOL0     H10787   9.654   1.723   6.274 -2.4611  1.5559  0.2724
   80MOL0     H10788   9.455   1.531   6.224  0.5155  0.1955  0.0050
   80MOL0     H10789   9.612   1.518   6.189 -0.0735 -1.8402 -1.3219
   80MOL0     H10790   9.442   1.441   5.955 -1.8007 -2.9556 -0.6277
   80MOL0     H10791   9.426   1.321   6.081 -0.7403  0.1887 -0.4761
   80MOL0     H10792   9.673   1.286   6.085  1.4245 -1.4384 -0.0416
   80MOL0     H10793   9.694   1.421   5.970  1.0199 -0.7598 -1.1172
   80MOL0     H10794   9.731   1.200   5.868  2.1181  1.5432  1.6802
   80MOL0     H10795   9.581   1.152   5.926  1.0770  1.7096  2.6236
   80MOL0     H10796   9.442   1.375   5.586  0.3942  1.5925  0.8787
   80MOL0     H10797   9.541   1.818   5.886 -0.0560 -3.3053  0.6026
   80MOL0     H10798   9.682   2.148   5.881 -0.2179 -1.6296  3.3701
   80MOL0     H10799   9.799   2.033   5.804  0.8152  0.3530 -0.4254
   80MOL0     H10800   9.628   2.012   5.782 -1.3352  0.6166  1.0408
   81MOL0     O10801  11.406   0.013  11.106 -0.4110 -0.6192  0.5514
   81MOL0     C10802  11.449   0.114  11.045  0.3495 -0.0375 -0.0234
   81MOL0     O10803  11.539   0.198  11.096 -0.1392  0.0040 -0.3183
   81MOL0     C10804  11.575   0.183  11.226  0.1712 -0.2748  0.1094
   81MOL0     C10805  11.469   0.198  11.324  0.0667 -0.7495  0.3539
   81MOL0     C10806  11.502   0.192  11.458 -0.4821 -0.9965 -0.1331
   81MOL0     C10807  11.635   0.205  11.508 -0.3798 -0.7612 -0.6560
   81MOL0     O10808  11.643   0.213  11.645  0.7279 -0.6452 -0.5013
   81MOL0     C10809  11.711   0.337  11.699 -0.4495  0.1702  0.2595
   81MOL0     C10810  11.700   0.321  11.852  1.1187 -0.8723 -0.0705
   81MOL0     C10811  11.791   0.210  11.898  0.5498 -0.5353 -0.4610
   81MOL0     C10812  11.791   0.215  12.050  0.3199  0.0801 -1.1591
   81MOL0     C10813  11.660   0.166  12.115 -0.5467  0.1952 -0.3256
   81MOL0     C10814  11.648   0.011  12.117  0.6112 -0.2238 -0.3570
   81MOL0     C10815  11.556  -0.045  12.225  0.4435 -0.4239 -1.4917
   81MOL0     C10816  11.549  -0.198  12.216 -1.0506  0.3157  0.7148
   81MOL0     N10817  11.443  -0.249  12.298 -0.7969 -0.1749  0.7726
   81MOL0     C10818  11.319  -0.267  12.244 -0.3669 -0.7270  0.7894
   81MOL0     C10819  11.242  -0.319  12.346  0.2394 -0.3147  0.1921
   81MOL0     C10820  11.097  -0.340  12.328  0.0208  0.1223 -0.1658
   81MOL0     C10821  11.021  -0.343  12.457  0.0322  0.2739  0.1115
   81MOL0     C10822  10.860  -0.349  12.437 -0.3170  0.0286  0.5759
   81MOL0     C10823  10.791  -0.365  12.571  0.1340 -0.3820  0.1443
   81MOL0     O10824  10.845  -0.468  12.652  0.1066 -0.6868  0.4361
   81MOL0     C10825  10.773  -0.493  12.767 -0.3912 -0.8140  0.2437
   81MOL0     C10826  10.849  -0.562  12.859 -0.5170  0.2597  0.4778
   81MOL0     C10827  10.782  -0.613  12.968 -1.2141  0.0237  0.3226
   81MOL0     C10828  10.642  -0.593  12.996  0.0628 -0.2121 -0.7036
   81MOL0     C10829  10.582  -0.635  13.118 -0.3056 -0.1722 -0.0311
   81MOL0     O10830  10.667  -0.705  13.202  0.5035  0.2579 -0.1828
   81MOL0     C10831  10.633  -0.705  13.335  0.5699 -0.0536  0.0457
   81MOL0     C10832  10.586  -0.594  13.406  0.0559  0.6862 -0.4761
   81MOL0     C10833  10.572  -0.584  13.549  0.1722  0.3454  0.4948
   81MOL0     C10834  10.618  -0.691  13.624 -0.5167 -0.7754  0.7861
   81MOL0     O10835  10.593  -0.684  13.758 -0.0398 -0.1702  0.0435
   81MOL0     C10836  10.696  -0.730  13.848 -0.1881 -0.0782 -0.2861
   81MOL0     C10837  10.682  -0.680  13.999  0.3721 -0.2637  0.1123
   81MOL0     C10838  10.781  -0.762  14.083 -0.2276  0.3049  0.5673
   81MOL0     C10839  10.807  -0.698  14.214  0.5917 -0.2670  0.3162
   81MOL0     C10840  10.913  -0.768  14.289 -0.0863  0.2384  0.0549
   81MOL0     C10841  10.952  -0.704  14.420  0.0319  0.5257  0.2239
   81MOL0     C10842  11.003  -0.563  14.401 -0.0326  0.5777 -0.4746
   81MOL0     C10843  11.022  -0.505  14.548 -0.1553 -0.3445  1.3969
   81MOL0    Cl10844  11.185  -0.541  14.603 -0.1966  0.1911  0.0755
   81MOL0     C10845  10.672  -0.801  13.556 -0.3929 -0.4955  0.1543
   81MOL0     C10846  10.680  -0.810  13.420 -0.3694  0.5278 -0.1841
   81MOL0     O10847  10.473  -0.601  13.147  0.6040  0.6255 -0.4007
   81MOL0     C10848  10.565  -0.518  12.907 -0.3867 -1.1713 -0.1861
   81MOL0     C10849  10.631  -0.471  12.798 -0.4786 -0.5349 -0.2215
   81MOL0     N10850  11.326  -0.362  12.447  1.1574 -0.7302  0.1929
   81MOL0     N10851  11.438  -0.307  12.422 -1.2301  0.2113 -0.7978
   81MOL0     C10852  11.738   0.191  11.417 -0.2830  0.4554 -0.6662
   81MOL0     C10853  11.709   0.177  11.280 -0.7394 -0.7465 -1.2328
   81MOL0     C10854  11.375   0.152  10.921  1.2734 -0.1770 -0.4082
   81MOL0     C10855  11.399   0.281  10.871  0.3703  0.0022 -0.5905
   81MOL0     C10856  11.339   0.329  10.750 -0.6108  0.3911 -0.8469
   81MOL0     C10857  11.246   0.261  10.685  0.1979 -0.4110  0.4157
   81MOL0     O10858  11.177   0.325  10.580  0.1716  0.5872 -0.2850
   81MOL0     C10859  11.063   0.263  10.524 -0.0167  0.4427 -0.4498
   81MOL0     C10860  11.011   0.353  10.407  0.4190  0.1223 -0.9525
   81MOL0     C10861  11.096   0.343  10.275 -0.5479 -0.1459  0.2310
   81MOL0     C10862  11.044   0.442  10.170 -0.1582  1.2767  0.3049
   81MOL0     C10863  10.917   0.382  10.124 -0.6816 -0.7223  1.0417
   81MOL0     C10864  10.813   0.343  10.083  0.5856 -0.0401  0.1262
   81MOL0     C10865  11.218   0.130  10.735  0.3054  0.2919  0.9774
   81MOL0     C10866  11.296   0.069  10.835 -0.2049  0.7475  0.1815
   81MOL0     C10867  11.282  -0.076  10.859  0.8763  1.0079 -0.2268
   81MOL0     H10868  11.367   0.183  11.293  0.3384 -1.2557 -0.3170
   81MOL0     H10869  11.420   0.185  11.529  0.1622  0.7325  0.8554
   81MOL0     H10870  11.815   0.341  11.667  0.3134  1.4045  2.6637
   81MOL0     H10871  11.660   0.427  11.662 -0.9341 -0.7501 -1.4575
   81MOL0     H10872  11.595   0.302  11.877  0.6575  0.7334 -0.6479
   81MOL0     H10873  11.729   0.416  11.898  2.0086 -1.4885  0.6698
   81MOL0     H10874  11.893   0.216  11.859  1.1655 -1.2129  0.9848
   81MOL0     H10875  11.763   0.116  11.849  2.2589 -0.5031 -1.6034
   81MOL0     H10876  11.868   0.140  12.067  1.4130  0.7792 -2.7769
   81MOL0     H10877  11.822   0.307  12.101 -3.1291  1.0157 -0.4976
   81MOL0     H10878  11.658   0.196  12.220 -1.3189 -3.1536  0.7543
   81MOL0     H10879  11.574   0.210  12.063  0.6844 -0.5007 -3.1416
   81MOL0     H10880  11.600  -0.031  12.028 -1.1422 -0.2984  0.5880
   81MOL0     H10881  11.745  -0.035  12.137  1.2593  0.4694 -1.8095
   81MOL0     H10882  11.456  -0.003  12.213  0.9028  1.7380  1.1289
   81MOL0     H10883  11.596  -0.016  12.323 -2.5411  1.8716 -0.8076
   81MOL0     H10884  11.538  -0.229  12.112  1.1922  0.7397  0.3092
   81MOL0     H10885  11.641  -0.245  12.251 -3.4967 -3.9007  2.2051
   81MOL0     H10886  11.277  -0.218  12.157 -0.1138  2.0247  2.1249
   81MOL0     H10887  11.059  -0.264  12.260  0.9967 -0.6738 -1.6740
   81MOL0     H10888  11.086  -0.441  12.287  0.3604  0.4438 -1.0739
   81MOL0     H10889  11.049  -0.434  12.512 -0.6465  0.1913  0.3296
   81MOL0     H10890  11.049  -0.256  12.517 -3.5233  3.5322 -2.4626
   81MOL0     H10891  10.820  -0.431  12.376 -1.6061 -1.6000  3.4307
   81MOL0     H10892  10.828  -0.256  12.389  0.2345  0.6167  1.3233
   81MOL0     H10893  10.688  -0.400  12.558 -0.1124 -0.9175  2.8984
   81MOL0     H10894  10.798  -0.266  12.616 -0.1717  1.5823 -3.6935
   81MOL0     H10895  10.954  -0.584  12.850 -0.9532 -1.5707 -0.4552
   81MOL0     H10896  10.850  -0.676  13.026  3.1867  1.0933 -3.1493
   81MOL0     H10897  10.545  -0.509  13.351 -1.9202  0.5606  0.6861
   81MOL0     H10898  10.535  -0.496  13.600  1.4558  1.0532  0.2569
   81MOL0     H10899  10.689  -0.839  13.848 -3.5326  0.0387  1.4597
   81MOL0     H10900  10.791  -0.694  13.806 -2.6819  2.8982 -4.0624
   81MOL0     H10901  10.705  -0.573  14.011  3.3370 -1.0651  3.3153
   81MOL0     H10902  10.581  -0.697  14.035  0.1486  3.1982  1.5084
   81MOL0     H10903  10.740  -0.863  14.094 -0.4347  0.3515  0.2479
   81MOL0     H10904  10.875  -0.787  14.032 -0.4192 -0.2663  0.4894
   81MOL0     H10905  10.714  -0.696  14.273  1.3163 -0.6070  1.5075
   81MOL0     H10906  10.840  -0.596  14.193 -1.3574  0.3269 -0.0864
   81MOL0     H10907  11.000  -0.781  14.224 -0.1977 -0.6410  0.0676
   81MOL0     H10908  10.885  -0.872  14.308 -0.1125  0.2771  0.2265
   81MOL0     H10909  10.864  -0.704  14.485 -0.1752  0.9550 -0.0523
   81MOL0     H10910  11.023  -0.772  14.467 -0.3978 -3.6417 -4.2976
   81MOL0     H10911  10.928  -0.493  14.362  2.0991  1.6966 -2.8383
   81MOL0     H10912  11.102  -0.561  14.354  1.0103 -0.8590  1.4988
   81MOL0     H10913  11.014  -0.396  14.537 -0.4705 -0.4024  1.0634
   81MOL0     H10914  10.941  -0.525  14.619 -0.3102  1.4078  1.7750
   81MOL0     H10915  10.707  -0.883  13.618 -0.4685 -1.2893 -0.8100
   81MOL0     H10916  10.725  -0.904  13.389 -0.7113  0.0902  0.6299
   81MOL0     H10917  10.460  -0.490  12.908 -0.1814  0.3145 -4.0227
   81MOL0     H10918  10.570  -0.410  12.732 -0.2695 -0.3358 -0.2327
   81MOL0     H10919  11.839   0.185  11.456 -0.0440  0.5866 -1.2498
   81MOL0     H10920  11.791   0.182  11.210  1.3223 -1.1654  1.0251
   81MOL0     H10921  11.454   0.358  10.925  2.6991 -1.8410 -0.1418
   81MOL0     H10922  11.360   0.433  10.726  1.0800  0.2217 -0.2259
   81MOL0     H10923  10.995   0.244  10.607  0.9815 -2.6954 -0.1938
   81MOL0     H10924  11.090   0.162  10.491  2.4685  0.0094  2.4282
   81MOL0     H10925  11.019   0.450  10.456 -1.9923  0.7984 -1.7283
   81MOL0     H10926  10.904   0.335  10.395  0.3624 -0.4958  0.2793
   81MOL0     H10927  11.088   0.237  10.250 -1.3156 -0.4048  1.5246
   81MOL0     H10928  11.200   0.366  10.302 -0.4882  2.0549 -1.6205
   81MOL0     H10929  11.042   0.550  10.188 -2.1068  0.9051  3.0117
   81MOL0     H10930  11.111   0.439  10.084  0.2023  3.5663  0.4449
   81MOL0     H10931  10.727   0.288  10.051  1.6865 -1.9837  0.3799
   81MOL0     H10932  11.145   0.063  10.691  2.5581 -1.3123 -0.4730
   81MOL0     H10933  11.218  -0.094  10.946  0.6066  0.3258 -0.5620
   81MOL0     H10934  11.238  -0.120  10.769  0.0594  1.2657  0.0423
   81MOL0     H10935  11.381  -0.123  10.864 -0.2620 -2.0692 -2.9555
   82MOL0     O10936   8.541   2.139  11.216  0.2619 -0.6383 -0.3047
   82MOL0     C10937   8.473   2.238  11.187  0.5376  0.4223 -0.7762
   82MOL0     O10938   8.472   2.315  11.072  1.0594 -0.6439  0.2537
   82MOL0     C10939   8.559   2.259  10.977  0.1267 -0.4857 -0.5760
   82MOL0     C10940   8.520   2.144  10.914 -0.8082  0.0049 -0.1536
   82MOL0     C10941   8.605   2.083  10.808 -0.3766  0.7213 -0.9444
   82MOL0     C10942   8.717   2.153  10.758  1.0030 -0.6620  0.1509
   82MOL0     O10943   8.766   2.096  10.643 -0.1761 -1.0976 -0.0492
   82MOL0     C10944   8.792   2.201  10.538  0.0440  0.2806  0.0507
   82MOL0     C10945   8.811   2.127  10.410  0.2839 -0.1644 -0.7085
   82MOL0     C10946   8.698   2.026  10.372  0.5576 -0.1559  0.6297
   82MOL0     C10947   8.694   1.988  10.217 -0.1848 -0.6271 -0.6861
   82MOL0     C10948   8.829   1.979  10.140  0.2210 -0.3530  0.0484
   82MOL0     C10949   8.836   1.873  10.029  0.0946 -0.3454  0.0977
   82MOL0     C10950   8.725   1.885   9.920 -0.0864  0.2332  0.9293
   82MOL0     C10951   8.709   1.755   9.828  0.2951 -0.1805 -0.7342
   82MOL0     N10952   8.584   1.743   9.746  0.1633  0.9609  0.1095
   82MOL0     C10953   8.517   1.627   9.727  0.8898  0.8376 -1.1779
   82MOL0     C10954   8.402   1.657   9.672  0.3293 -0.6925  0.7623
   82MOL0     C10955   8.302   1.557   9.619 -0.4049 -0.7092  0.3576
   82MOL0     C10956   8.247   1.491   9.742  0.6490  0.8641  0.6362
   82MOL0     C10957   8.116   1.401   9.718  0.2811  0.2873 -0.6724
   82MOL0     C10958   8.150   1.276   9.647 -0.0223 -0.1456 -0.7475
   82MOL0     O10959   8.043   1.177   9.664  1.1479 -0.0440 -0.4065
   82MOL0     C10960   8.077   1.055   9.625 -0.5887 -0.8379  0.2137
   82MOL0     C10961   8.204   1.000   9.576 -0.3342 -0.6296 -0.1958
   82MOL0     C10962   8.222   0.871   9.542  0.2192  0.1362 -0.4404
   82MOL0     C10963   8.128   0.776   9.572  0.4399 -0.4440  0.5591
   82MOL0     C10964   8.162   0.629   9.557  1.2497 -0.1666 -0.6528
   82MOL0     O10965   8.058   0.547   9.587  0.3568 -0.4611  0.2385
   82MOL0     C10966   8.089   0.409   9.592 -0.0129  0.3936  0.6369
   82MOL0     C10967   8.140   0.334   9.476  0.5058  0.1639  0.0307
   82MOL0     C10968   8.157   0.197   9.478 -0.7322  0.6862 -0.0330
   82MOL0     C10969   8.103   0.119   9.592 -0.4603 -0.3237  1.0447
   82MOL0     O10970   8.117  -0.018   9.583 -0.4205  0.1947 -0.1140
   82MOL0     C10971   7.995  -0.089   9.595  0.9927  0.0574  0.0903
   82MOL0     C10972   7.984  -0.206   9.498 -0.3599  0.1641 -0.4152
   82MOL0     C10973   8.093  -0.311   9.515 -0.4134  0.8422 -1.1367
   82MOL0     C10974   8.014  -0.447   9.483 -0.6449 -0.6238 -0.4998
   82MOL0     C10975   8.101  -0.571   9.453  0.8459  1.1447 -0.1084
   82MOL0     C10976   8.175  -0.624   9.573 -0.7914  0.4597  0.3838
   82MOL0     C10977   8.226  -0.766   9.534 -1.6287 -0.6324 -0.1329
   82MOL0     C10978   8.355  -0.768   9.442 -0.9163 -0.0568 -0.0544
   82MOL0    Cl10979   8.372  -0.913   9.351 -0.3907 -0.7901  0.7149
   82MOL0     C10980   8.038   0.194   9.696 -0.0075  1.1500  0.7649
   82MOL0     C10981   8.029   0.336   9.692 -0.0977  0.0987  0.2677
   82MOL0     O10982   8.279   0.604   9.522 -0.1177 -0.2351 -1.3222
   82MOL0     C10983   8.009   0.831   9.626 -0.6134  0.2088 -0.7835
   82MOL0     C10984   7.984   0.964   9.656  0.0316 -0.2594 -0.1720
   82MOL0     N10985   8.395   1.791   9.645 -0.6429 -0.0148 -0.2878
   82MOL0     N10986   8.507   1.838   9.687  0.2326  0.8803 -0.8658
   82MOL0     C10987   8.750   2.278  10.815 -0.4339 -0.5601  0.0259
   82MOL0     C10988   8.673   2.322  10.928  0.3419 -0.1308  0.8734
   82MOL0     C10989   8.393   2.295  11.305 -0.4757 -0.0004  0.9665
   82MOL0     C10990   8.392   2.436  11.318 -0.4832 -0.1856  0.7247
   82MOL0     C10991   8.330   2.496  11.436 -0.5925 -0.2923  0.9507
   82MOL0     C10992   8.276   2.416  11.536 -0.0492  0.2768 -0.2166
   82MOL0     O10993   8.212   2.488  11.634  0.1755 -0.3172 -0.2692
   82MOL0     C10994   8.208   2.428  11.761  0.3400  0.3621  0.0254
   82MOL0     C10995   8.111   2.492  11.853  0.5997 -0.0961  0.2932
   82MOL0     C10996   8.093   2.642  11.826  0.1518  0.5347  0.0582
   82MOL0     C10997   8.220   2.731  11.846  1.0526 -0.8785  0.6851
   82MOL0     C10998   8.245   2.754  11.989  1.0389  0.1602  0.5583
   82MOL0     C10999   8.264   2.781  12.103 -1.0580  0.0873 -0.8376
   82MOL0     C11000   8.262   2.279  11.515 -0.9230 -0.2492  0.4621
   82MOL0     C11001   8.326   2.215  11.407  0.8729 -0.6002 -0.2054
   82MOL0     C11002   8.311   2.055  11.384  0.4028 -0.8211 -0.2537
   82MOL0     H11003   8.430   2.088  10.939 -1.5854  1.3144  0.0630
   82MOL0     H11004   8.572   1.986  10.771  1.2652  0.2959 -1.3799
   82MOL0     H11005   8.702   2.263  10.537 -0.4188 -0.3336  0.9537
   82MOL0     H11006   8.872   2.269  10.569 -1.2635  0.2660  4.1511
   82MOL0     H11007   8.911   2.085  10.422  1.3922  2.2061 -1.0772
   82MOL0     H11008   8.821   2.205  10.334 -2.1272  3.1438  2.0561
   82MOL0     H11009   8.603   2.073  10.399 -0.6904 -1.4385 -1.1961
   82MOL0     H11010   8.704   1.937  10.435  2.3585 -0.6389 -0.1475
   82MOL0     H11011   8.645   1.892  10.197 -0.8714 -0.0204 -2.0438
   82MOL0     H11012   8.623   2.061  10.178 -0.1815  1.1150  2.2981
   82MOL0     H11013   8.856   2.079  10.105  2.2986  0.3321  3.2278
   82MOL0     H11014   8.906   1.947  10.210 -0.6699  1.4735  1.9478
   82MOL0     H11015   8.933   1.887   9.980 -0.3443  2.4532 -0.1461
   82MOL0     H11016   8.831   1.775  10.078 -2.9676  0.1390  0.9304
   82MOL0     H11017   8.741   1.973   9.856  2.4421 -0.2313  0.8081
   82MOL0     H11018   8.628   1.899   9.967 -1.2608 -0.1075 -1.2723
   82MOL0     H11019   8.795   1.746   9.762  2.8016 -0.5339  2.3110
   82MOL0     H11020   8.707   1.672   9.899 -1.5041 -0.5329 -1.1590
   82MOL0     H11021   8.554   1.531   9.759  2.4858  1.1791 -1.8922
   82MOL0     H11022   8.224   1.603   9.557  0.9328  3.1082  1.2634
   82MOL0     H11023   8.356   1.479   9.564  3.9130  2.4577 -0.3759
   82MOL0     H11024   8.329   1.449   9.801  0.8512  1.2629  0.6351
   82MOL0     H11025   8.201   1.577   9.791 -1.5555 -0.4102  0.9765
   82MOL0     H11026   8.039   1.458   9.664  0.3165 -0.7023 -1.8137
   82MOL0     H11027   8.070   1.378   9.815 -2.0623 -0.9224 -1.9835
   82MOL0     H11028   8.244   1.245   9.694 -0.1203  0.6311 -0.0184
   82MOL0     H11029   8.169   1.298   9.541  0.5414  0.1440 -0.5950
   82MOL0     H11030   8.292   1.062   9.562 -0.1965 -0.8628 -0.3644
   82MOL0     H11031   8.317   0.849   9.494  0.4478  2.3180 -1.1317
   82MOL0     H11032   8.174   0.397   9.395 -1.3982 -1.9657 -2.5895
   82MOL0     H11033   8.198   0.135   9.399 -0.7571 -0.3170  0.7196
   82MOL0     H11034   7.967  -0.124   9.695 -2.4403 -1.8457 -1.3206
   82MOL0     H11035   7.915  -0.020   9.564  1.4194 -0.3489 -2.0867
   82MOL0     H11036   7.887  -0.250   9.523  0.6159 -1.0415  1.5628
   82MOL0     H11037   7.983  -0.185   9.391 -2.7725  0.7822 -0.3288
   82MOL0     H11038   8.177  -0.286   9.450  0.1342 -0.5567 -0.9959
   82MOL0     H11039   8.132  -0.321   9.617  2.3924  2.5672 -1.9351
   82MOL0     H11040   7.956  -0.431   9.392 -1.7230  0.5399  0.3407
   82MOL0     H11041   7.929  -0.474   9.547 -0.8971 -0.3740 -0.7273
   82MOL0     H11042   8.164  -0.537   9.370  1.8862  2.4007  1.1256
   82MOL0     H11043   8.031  -0.644   9.414  1.5122  0.6696 -0.4304
   82MOL0     H11044   8.253  -0.558   9.614  0.0689 -0.6391  0.5835
   82MOL0     H11045   8.115  -0.648   9.662  0.9827 -2.3191  0.9571
   82MOL0     H11046   8.146  -0.820   9.483 -1.7514  0.0794 -0.7062
   82MOL0     H11047   8.258  -0.816   9.626  3.2574  2.1165  0.0022
   82MOL0     H11048   8.346  -0.680   9.377  0.9494 -0.6229 -1.1541
   82MOL0     H11049   8.440  -0.756   9.510 -0.0383 -0.0095 -1.1308
   82MOL0     H11050   7.989   0.142   9.778  1.0274  0.6685  1.0977
   82MOL0     H11051   7.986   0.385   9.778 -1.7373 -2.9750  1.3498
   82MOL0     H11052   7.918   0.772   9.621 -0.1099 -0.5488 -1.1609
   82MOL0     H11053   7.892   1.016   9.679 -1.2464 -1.4763 -2.2243
   82MOL0     H11054   8.835   2.337  10.783 -0.3122 -0.1071  1.1218
   82MOL0     H11055   8.716   2.416  10.959 -0.5706  0.7079 -0.2977
   82MOL0     H11056   8.429   2.503  11.241  4.0023 -0.6346  2.2359
   82MOL0     H11057   8.320   2.604  11.436 -0.2075 -0.2439 -0.2160
   82MOL0     H11058   8.310   2.432  11.800 -0.6076  0.9110  2.6622
   82MOL0     H11059   8.175   2.323  11.759 -0.8665  0.6676  1.6250
   82MOL0     H11060   8.143   2.479  11.957 -1.2331 -0.5079  0.8551
   82MOL0     H11061   8.016   2.439  11.835  0.6409 -0.1960  0.3718
   82MOL0     H11062   8.013   2.688  11.885  1.1163  1.0755  0.9579
   82MOL0     H11063   8.062   2.658  11.722  3.2790  0.5393 -0.9686
   82MOL0     H11064   8.307   2.686  11.798  1.5863  1.7347 -0.9940
   82MOL0     H11065   8.201   2.830  11.803  3.7434  0.5372  2.4958
   82MOL0     H11066   8.293   2.804  12.204  1.0146 -3.7755 -0.3066
   82MOL0     H11067   8.208   2.221  11.589  1.5416 -0.8269  1.8759
   82MOL0     H11068   8.405   2.022  11.340  0.5593 -0.0530 -0.5067
   82MOL0     H11069   8.312   2.006  11.481  3.0956  1.2892  0.9074
   82MOL0     H11070   8.229   2.038  11.313  0.6123  0.9539 -0.9846
   83MOL0     O11071   3.263  11.186   7.298  0.5108  0.3668  0.5021
   83MOL0     C11072   3.313  11.097   7.231 -0.0556  0.9947  0.4190
   83MOL0     O11073   3.276  10.963   7.232  0.0837 -0.1104  0.0453
   83MOL0     C11074   3.188  10.934   7.328 -0.3616  0.7510  1.0614
   83MOL0     C11075   3.247  10.894   7.449  0.4110 -0.0853  0.3135
   83MOL0     C11076   3.170  10.841   7.548 -0.1805 -0.0308 -0.6312
   83MOL0     C11077   3.026  10.828   7.534 -0.3578 -0.2001 -0.1789
   83MOL0     O11078   2.956  10.744   7.613 -0.4490  0.0143 -0.0119
   83MOL0     C11079   2.947  10.799   7.756  0.4385  0.6553 -0.4463
   83MOL0     C11080   2.860  10.684   7.824 -0.2184  0.1501 -0.6188
   83MOL0     C11081   2.711  10.688   7.790  0.0092  0.6016 -0.0708
   83MOL0     C11082   2.626  10.592   7.875  0.2627 -0.8604 -0.5914
   83MOL0     C11083   2.474  10.578   7.841 -0.6665 -0.9258 -0.6135
   83MOL0     C11084   2.390  10.712   7.830 -1.1694  1.0342  0.5834
   83MOL0     C11085   2.245  10.667   7.794  0.1989  0.1156  0.0219
   83MOL0     C11086   2.173  10.603   7.911  0.2829  0.1509  0.3197
   83MOL0     N11087   2.193  10.658   8.046 -0.2794 -0.1669 -0.3412
   83MOL0     C11088   2.150  10.776   8.082  0.1974  1.2690 -1.4217
   83MOL0     C11089   2.179  10.783   8.214 -0.0762  0.5208  0.3005
   83MOL0     C11090   2.152  10.887   8.319  0.2495  0.7233  0.1105
   83MOL0     C11091   2.037  10.830   8.411 -0.9654  0.2338  0.1301
   83MOL0     C11092   2.072  10.893   8.547  0.2591 -0.8748  0.1052
   83MOL0     C11093   1.951  10.869   8.633 -0.4226  0.2834  0.0586
   83MOL0     O11094   1.999  10.898   8.767 -0.8843  0.3112  0.6831
   83MOL0     C11095   1.973  11.016   8.827  0.5791  0.0412  1.0175
   83MOL0     C11096   2.055  11.050   8.929  0.0198 -0.0394 -0.4350
   83MOL0     C11097   2.048  11.170   8.992 -0.1077 -0.8464  0.2151
   83MOL0     C11098   1.962  11.273   8.943  0.1353 -0.8872 -0.0947
   83MOL0     C11099   1.968  11.401   9.009 -0.6096 -0.0925 -0.1617
   83MOL0     O11100   2.022  11.410   9.134  0.3146  0.4337 -0.6708
   83MOL0     C11101   2.079  11.531   9.171  0.7845  0.0919  0.2484
   83MOL0     C11102   2.163  11.611   9.085  0.9101  0.0894 -0.1647
   83MOL0     C11103   2.212  11.743   9.130 -0.0278 -0.2314  0.0129
   83MOL0     C11104   2.159  11.789   9.258  0.2469 -1.0618 -0.4100
   83MOL0     O11105   2.187  11.905   9.316 -0.1972 -0.0259  0.1086
   83MOL0     C11106   2.326  11.961   9.296  0.7854  0.3293  0.4643
   83MOL0     C11107   2.412  11.886   9.392  0.4787  0.3322 -0.2429
   83MOL0     C11108   2.353  11.879   9.534  0.7676  0.2858 -0.4355
   83MOL0     C11109   2.447  11.808   9.631  0.7860 -0.0045 -0.2994
   83MOL0     C11110   2.394  11.831   9.778  0.4742 -0.6045 -0.1128
   83MOL0     C11111   2.248  11.780   9.795  0.0183 -1.1483 -0.2086
   83MOL0     C11112   2.227  11.635   9.752  0.2704 -0.4232 -0.3386
   83MOL0     C11113   2.108  11.572   9.826 -0.6627 -0.3074 -1.0842
   83MOL0    Cl11114   2.067  11.423   9.743 -0.1378  0.5022  0.2386
   83MOL0     C11115   2.064  11.715   9.328 -0.5724 -0.5014  0.0007
   83MOL0     C11116   2.019  11.591   9.283  0.0686  0.0091 -0.7210
   83MOL0     O11117   1.911  11.492   8.948  0.0339 -0.1545 -0.1172
   83MOL0     C11118   1.889  11.240   8.834 -0.0705  0.3663  0.7060
   83MOL0     C11119   1.892  11.113   8.776  0.1716 -0.7752  0.3690
   83MOL0     N11120   2.241  10.665   8.245  0.3674  0.6526 -0.1107
   83MOL0     N11121   2.264  10.598   8.146  0.2831  0.2741  0.7878
   83MOL0     C11122   2.972  10.878   7.412  0.0095  1.0573  0.4983
   83MOL0     C11123   3.048  10.929   7.305  0.9757  0.6403 -0.5984
   83MOL0     C11124   3.423  11.131   7.129  0.1931 -0.1723 -1.0777
   83MOL0     C11125   3.522  11.040   7.090  0.0534 -0.0224 -1.1412
   83MOL0     C11126   3.624  11.069   7.002 -1.4089  0.2614  0.0557
   83MOL0     C11127   3.645  11.198   6.959  0.4840  1.2152 -0.9303
   83MOL0     O11128   3.747  11.224   6.871  0.6013 -0.4336  0.5512
   83MOL0     C11129   3.808  11.353   6.889 -1.1238  0.3684 -0.5324
   83MOL0     C11130   3.939  11.361   6.809  0.6995 -0.0568  0.1610
   83MOL0     C11131   4.025  11.485   6.850 -0.5119  0.1001  1.0026
   83MOL0     C11132   4.161  11.464   6.785 -0.7906  0.1909  0.1189
   83MOL0     C11133   4.157  11.492   6.636 -0.0694  0.8473 -0.8234
   83MOL0     C11134   4.159  11.495   6.513 -0.3684 -0.5741 -0.7735
   83MOL0     C11135   3.543  11.291   6.984  0.1114 -0.0156 -0.3654
   83MOL0     C11136   3.432  11.260   7.070 -0.1908  0.8010 -0.2547
   83MOL0     C11137   3.327  11.372   7.077 -0.0917  0.2222 -0.5803
   83MOL0     H11138   3.355  10.903   7.459  0.6657 -1.6338 -0.6998
   83MOL0     H11139   3.228  10.819   7.637 -1.0058 -0.7886 -0.2651
   83MOL0     H11140   3.041  10.816   7.810 -1.5392  0.7569  3.2931
   83MOL0     H11141   2.890  10.891   7.740  0.7618  0.6615 -1.6580
   83MOL0     H11142   2.875  10.695   7.932 -1.6108  1.1455 -0.5024
   83MOL0     H11143   2.907  10.587   7.804  3.0867  1.6270 -0.6659
   83MOL0     H11144   2.704  10.662   7.684  2.5448 -0.7942  0.0394
   83MOL0     H11145   2.680  10.793   7.798  1.7224  1.3218 -2.1486
   83MOL0     H11146   2.680  10.497   7.862  2.0906 -0.0928  0.9058
   83MOL0     H11147   2.629  10.603   7.984 -2.4495 -4.1666 -0.0013
   83MOL0     H11148   2.464  10.520   7.749  1.0410  0.9701 -2.0792
   83MOL0     H11149   2.429  10.520   7.922  0.2371 -2.0022 -0.8623
   83MOL0     H11150   2.388  10.745   7.935 -0.5317  0.0833  0.9045
   83MOL0     H11151   2.431  10.789   7.764 -0.4420  0.2431  0.1031
   83MOL0     H11152   2.248  10.593   7.713  1.1304 -1.8780  1.7897
   83MOL0     H11153   2.184  10.748   7.753  0.2222 -0.7805 -1.9190
   83MOL0     H11154   2.065  10.608   7.894 -0.1495  1.0933  2.8634
   83MOL0     H11155   2.199  10.497   7.914 -0.5459 -0.0594  0.2858
   83MOL0     H11156   2.093  10.848   8.024 -0.3069  1.0827 -1.1622
   83MOL0     H11157   2.252  10.907   8.360 -0.4567 -0.9210  2.8375
   83MOL0     H11158   2.111  10.979   8.275 -2.9908 -0.4557  0.4784
   83MOL0     H11159   1.944  10.869   8.370 -0.6088 -0.3693 -1.3237
   83MOL0     H11160   2.039  10.720   8.410  2.4943  0.1780 -0.9376
   83MOL0     H11161   2.079  11.001   8.528 -0.7222 -0.9834 -0.9905
   83MOL0     H11162   2.167  10.852   8.583  0.6902 -0.7992 -0.8879
   83MOL0     H11163   1.926  10.762   8.631 -1.1882  0.4430  0.8396
   83MOL0     H11164   1.860  10.915   8.594 -0.5373 -1.0467 -1.3694
   83MOL0     H11165   2.127  10.976   8.963  1.8271 -0.0366 -3.8668
   83MOL0     H11166   2.110  11.188   9.079 -0.7824 -1.8297  0.9162
   83MOL0     H11167   2.179  11.568   8.987 -0.6730 -0.4855 -0.2032
   83MOL0     H11168   2.269  11.805   9.062 -1.1725  0.5805 -0.2300
   83MOL0     H11169   2.359  11.964   9.192 -2.7969  0.8867 -0.7819
   83MOL0     H11170   2.328  12.066   9.326  2.9105  1.2283 -2.3627
   83MOL0     H11171   2.442  11.788   9.354 -0.2415 -0.8135  1.9533
   83MOL0     H11172   2.510  11.933   9.406 -0.1654  1.0733  2.2066
   83MOL0     H11173   2.316  11.975   9.574  1.8718  1.6395 -2.4996
   83MOL0     H11174   2.267  11.813   9.549  1.4358 -0.5915 -0.4422
   83MOL0     H11175   2.548  11.851   9.624  0.6906  0.1805 -0.5652
   83MOL0     H11176   2.445  11.702   9.605 -1.5379 -0.0112 -0.3387
   83MOL0     H11177   2.391  11.938   9.801 -1.1893 -0.8029  0.7006
   83MOL0     H11178   2.465  11.783   9.846  1.2224  0.5289 -0.0556
   83MOL0     H11179   2.219  11.795   9.899 -4.0470  2.6659 -1.5524
   83MOL0     H11180   2.175  11.847   9.748  1.1700 -0.4188 -1.0062
   83MOL0     H11181   2.313  11.573   9.781 -0.3921  0.0777  3.1613
   83MOL0     H11182   2.205  11.629   9.645 -1.1521  0.1643 -0.0975
   83MOL0     H11183   2.148  11.547   9.925  1.8754 -1.8041 -2.3783
   83MOL0     H11184   2.023  11.641   9.828 -0.0693  0.4422  0.9953
   83MOL0     H11185   2.025  11.759   9.419  0.4707 -0.2496  0.3386
   83MOL0     H11186   1.935  11.547   9.336 -1.2305 -0.5571 -3.1096
   83MOL0     H11187   1.827  11.311   8.779 -1.5251 -1.1916  0.2504
   83MOL0     H11188   1.814  11.099   8.701  0.1318  1.4710 -0.1008
   83MOL0     H11189   2.869  10.848   7.394  0.4319  0.8527 -1.8802
   83MOL0     H11190   3.001  10.953   7.210  2.9705 -0.0500 -1.8225
   83MOL0     H11191   3.519  10.940   7.132  5.3139  1.2228  3.3315
   83MOL0     H11192   3.696  10.993   6.972 -1.5548  0.0832  0.1616
   83MOL0     H11193   3.843  11.370   6.992  1.1824 -2.0821 -0.7811
   83MOL0     H11194   3.738  11.431   6.861 -1.1734  0.2461 -0.7526
   83MOL0     H11195   3.913  11.380   6.705 -0.9625  2.8733  0.9948
   83MOL0     H11196   3.996  11.271   6.832 -2.0660 -2.1840 -0.6259
   83MOL0     H11197   4.035  11.479   6.959 -2.8379 -0.9442  1.2190
   83MOL0     H11198   3.976  11.580   6.827  0.6883  0.2129 -1.4511
   83MOL0     H11199   4.226  11.536   6.834  0.0468  2.0920 -3.4612
   83MOL0     H11200   4.205  11.370   6.820 -0.3883  0.0314 -0.7891
   83MOL0     H11201   4.164  11.492   6.406 -1.0085 -3.3667 -0.7973
   83MOL0     H11202   3.534  11.377   6.919 -0.9208 -0.4572 -0.8247
   83MOL0     H11203   3.311  11.409   7.179 -0.3076  0.7827 -0.8146
   83MOL0     H11204   3.367  11.456   7.020  3.8342 -0.0511  1.4200
   83MOL0     H11205   3.237  11.324   7.038 -0.1736 -1.5934  1.5926
   84MOL0     O11206  11.134   5.899   0.531  0.6037  0.0492  0.2047
   84MOL0     C11207  11.061   5.864   0.624  0.3931  0.4763 -0.2952
   84MOL0     O11208  10.943   5.801   0.608  0.0968  0.6428  0.7433
   84MOL0     C11209  10.891   5.779   0.478  0.1032 -0.3281  0.0504
   84MOL0     C11210  10.822   5.882   0.409 -0.8127 -0.0357  0.0020
   84MOL0     C11211  10.759   5.854   0.286 -1.0609  1.2063 -0.1687
   84MOL0     C11212  10.754   5.720   0.238 -0.9863 -0.2124  0.5565
   84MOL0     O11213  10.678   5.683   0.131  0.3152 -0.2963  0.3885
   84MOL0     C11214  10.597   5.781   0.063 -0.7712  0.2445  0.3149
   84MOL0     C11215  10.524   5.725  -0.056 -0.0786 -0.1051  0.2715
   84MOL0     C11216  10.447   5.827  -0.143 -0.2110  0.5026  0.6426
   84MOL0     C11217  10.408   5.751  -0.273  0.4445 -0.0683 -1.3028
   84MOL0     C11218  10.301   5.817  -0.348  1.1302  0.2849  0.5372
   84MOL0     C11219  10.352   5.929  -0.440 -0.0499 -0.8322 -0.9081
   84MOL0     C11220  10.239   5.968  -0.539 -0.8494 -0.0918  0.0091
   84MOL0     C11221  10.241   5.858  -0.655  0.0349 -0.4031 -0.7196
   84MOL0     N11222  10.139   5.902  -0.753  0.6727  1.1330  0.1774
   84MOL0     C11223  10.012   5.851  -0.759 -0.7560  0.0631  0.3621
   84MOL0     C11224   9.962   5.897  -0.873 -1.0290  1.1713  0.9618
   84MOL0     C11225   9.821   5.866  -0.903  0.4018 -0.0569 -0.0016
   84MOL0     C11226   9.806   5.767  -1.019  0.1840  0.4913  0.9611
   84MOL0     C11227   9.660   5.701  -1.034 -0.4754 -0.1619 -0.6554
   84MOL0     C11228   9.544   5.798  -1.038  0.5487  0.2902 -0.2681
   84MOL0     O11229   9.428   5.737  -0.996 -0.2823 -0.3487 -0.2705
   84MOL0     C11230   9.405   5.730  -0.862  0.7740 -0.4254 -0.6884
   84MOL0     C11231   9.288   5.659  -0.823  0.4504 -0.3332  0.4058
   84MOL0     C11232   9.244   5.645  -0.694  0.6823  0.5359  0.1820
   84MOL0     C11233   9.325   5.694  -0.593 -0.4542  0.1536  0.4021
   84MOL0     C11234   9.286   5.683  -0.450 -0.2180 -0.1076 -0.0692
   84MOL0     O11235   9.375   5.706  -0.357  0.0451 -0.2378  0.5435
   84MOL0     C11236   9.345   5.691  -0.229  0.4452 -0.7471  0.1858
   84MOL0     C11237   9.311   5.793  -0.146 -0.6545  0.0815 -0.1210
   84MOL0     C11238   9.287   5.777  -0.009  0.1377 -0.8859  1.4037
   84MOL0     C11239   9.302   5.647   0.048  0.2777 -0.1588 -0.1282
   84MOL0     O11240   9.277   5.649   0.181  0.7293 -0.3799  0.3652
   84MOL0     C11241   9.318   5.533   0.255 -0.2795  0.8473 -0.4757
   84MOL0     C11242   9.315   5.566   0.404  0.1396  0.5759  0.5532
   84MOL0     C11243   9.175   5.578   0.464  0.1290 -0.0826  0.3129
   84MOL0     C11244   9.141   5.726   0.491  0.3397  0.7167  0.4099
   84MOL0     C11245   9.024   5.738   0.586 -0.1802  0.3841 -0.1299
   84MOL0     C11246   8.956   5.882   0.589 -0.7372 -0.7233  0.5386
   84MOL0     C11247   9.053   6.003   0.592  0.3022 -0.4203  0.4330
   84MOL0     C11248   9.106   6.025   0.733  0.1454 -0.3299  0.1480
   84MOL0    Cl11249   9.163   6.189   0.755 -0.0009  0.2385  0.0406
   84MOL0     C11250   9.338   5.547  -0.033 -0.5297  0.4379 -0.1358
   84MOL0     C11251   9.356   5.561  -0.172  0.1406 -0.0437  0.3753
   84MOL0     O11252   9.165   5.653  -0.435  0.2587 -0.2403 -1.1658
   84MOL0     C11253   9.455   5.759  -0.626 -0.0537  0.3615 -0.2811
   84MOL0     C11254   9.488   5.778  -0.756 -0.7788  0.2014  0.2210
   84MOL0     N11255  10.068   5.969  -0.942 -0.8811 -0.4674 -0.3088
   84MOL0     N11256  10.174   5.970  -0.866  0.0415 -0.1986 -0.5061
   84MOL0     C11257  10.808   5.614   0.315  0.2236 -0.4750 -0.1316
   84MOL0     C11258  10.892   5.644   0.429 -0.3969  0.0008 -1.1760
   84MOL0     C11259  11.099   5.901   0.766 -0.2683 -0.3068 -0.6490
   84MOL0     C11260  11.145   6.032   0.784  0.2132  0.0787 -0.1573
   84MOL0     C11261  11.192   6.077   0.904 -0.1345  0.2293  0.1114
   84MOL0     C11262  11.185   5.998   1.021  0.4424 -0.6799 -0.5689
   84MOL0     O11263  11.241   6.044   1.142 -1.1920  0.0768 -0.4156
   84MOL0     C11264  11.228   5.970   1.276 -0.1715  0.1986  0.7277
   84MOL0     C11265  11.086   6.000   1.310  0.2056  0.6546 -0.1240
   84MOL0     C11266  11.075   6.129   1.385 -0.0732 -0.2990  0.6256
   84MOL0     C11267  10.939   6.204   1.362 -0.9561  0.6389 -0.0858
   84MOL0     C11268  10.834   6.128   1.424  0.2463  0.1202 -0.2112
   84MOL0     C11269  10.733   6.085   1.478 -1.5271 -0.6006  1.0212
   84MOL0     C11270  11.123   5.878   1.007 -0.8905  0.7923 -1.1279
   84MOL0     C11271  11.083   5.825   0.880  0.5358  0.5373  0.1567
   84MOL0     C11272  11.042   5.677   0.866 -0.1943 -0.3432 -0.1119
   84MOL0     H11273  10.831   5.981   0.452 -0.3113  0.1287 -0.4676
   84MOL0     H11274  10.707   5.935   0.237 -2.0745  0.0312 -1.1267
   84MOL0     H11275  10.522   5.816   0.134 -0.3833 -1.6690  1.7437
   84MOL0     H11276  10.670   5.857   0.036 -0.6067 -0.1599 -0.4252
   84MOL0     H11277  10.450   5.655  -0.017 -0.0501 -1.2637 -1.6623
   84MOL0     H11278  10.589   5.668  -0.122 -4.5333 -1.4321 -3.5214
   84MOL0     H11279  10.523   5.902  -0.165 -0.9259  1.4504  1.3355
   84MOL0     H11280  10.377   5.889  -0.087 -1.7639 -0.6164 -0.0024
   84MOL0     H11281  10.502   5.735  -0.327 -0.1047 -0.0272 -2.2792
   84MOL0     H11282  10.371   5.653  -0.242  2.6621 -0.9042 -1.1175
   84MOL0     H11283  10.251   5.740  -0.408  1.4903 -0.0865  0.7112
   84MOL0     H11284  10.224   5.842  -0.275  1.7942 -0.1514  1.4030
   84MOL0     H11285  10.381   6.019  -0.384 -0.7330  2.1314 -4.8665
   84MOL0     H11286  10.434   5.896  -0.505  1.9353 -0.0326  1.0794
   84MOL0     H11287  10.249   6.072  -0.571  2.7321 -0.8691 -1.8698
   84MOL0     H11288  10.149   5.964  -0.476 -0.4391  0.9154  0.6848
   84MOL0     H11289  10.339   5.869  -0.700  1.4826 -0.2805  2.2041
   84MOL0     H11290  10.231   5.757  -0.614  2.2015  0.8699  3.6106
   84MOL0     H11291   9.952   5.799  -0.685 -0.5729 -0.5902  0.0563
   84MOL0     H11292   9.764   5.825  -0.819 -0.3150 -3.4791 -1.9442
   84MOL0     H11293   9.763   5.957  -0.917  0.3589 -0.3582 -2.1407
   84MOL0     H11294   9.821   5.818  -1.115 -0.9578  1.0439  1.0647
   84MOL0     H11295   9.883   5.690  -1.018 -1.6752 -1.4646  0.1444
   84MOL0     H11296   9.661   5.629  -0.951 -0.5143 -0.0989 -0.6005
   84MOL0     H11297   9.653   5.648  -1.130  1.0448  2.7216 -2.4883
   84MOL0     H11298   9.520   5.819  -1.142  2.0161 -0.4841 -0.8013
   84MOL0     H11299   9.562   5.898  -0.997 -0.0518  0.1591  0.3187
   84MOL0     H11300   9.233   5.621  -0.908 -0.1076 -0.1340  0.6681
   84MOL0     H11301   9.150   5.596  -0.674  0.5701  0.7406  0.1634
   84MOL0     H11302   9.339   5.887  -0.192  2.1501 -1.4055 -1.7574
   84MOL0     H11303   9.263   5.867   0.047 -0.0862  0.4746 -0.7693
   84MOL0     H11304   9.260   5.446   0.224  1.5402  0.4816 -3.1171
   84MOL0     H11305   9.416   5.501   0.220 -1.5624 -2.0316 -1.6913
   84MOL0     H11306   9.371   5.496   0.467  0.2404 -2.1075 -2.2562
   84MOL0     H11307   9.376   5.657   0.409  2.0284 -0.5267 -0.8399
   84MOL0     H11308   9.097   5.548   0.394  3.5730  1.2985 -4.6480
   84MOL0     H11309   9.172   5.528   0.562  0.2928  0.6976  0.7246
   84MOL0     H11310   9.131   5.770   0.391  1.9755 -1.7413 -0.9370
   84MOL0     H11311   9.222   5.773   0.546 -0.0193  0.8815  0.7997
   84MOL0     H11312   9.068   5.722   0.685  0.1389 -0.7199 -0.4288
   84MOL0     H11313   8.953   5.657   0.566  0.8281 -0.6996  0.5423
   84MOL0     H11314   8.900   5.889   0.496  0.1147  1.5539  0.1448
   84MOL0     H11315   8.891   5.890   0.677 -3.3142  1.2057 -1.3912
   84MOL0     H11316   8.993   6.090   0.564 -0.6241 -0.9301  0.7898
   84MOL0     H11317   9.130   5.979   0.518  0.2124  1.6238 -0.3923
   84MOL0     H11318   9.030   6.022   0.812  2.6820  1.9202  2.8864
   84MOL0     H11319   9.170   5.941   0.763  0.7274 -0.2768 -0.8675
   84MOL0     H11320   9.370   5.449   0.002  0.8779  0.9275 -0.0199
   84MOL0     H11321   9.405   5.482  -0.227 -0.0977  0.5388 -0.7215
   84MOL0     H11322   9.515   5.805  -0.547  1.4047  1.2337 -1.8181
   84MOL0     H11323   9.575   5.840  -0.776 -0.9638 -0.1466 -1.9373
   84MOL0     H11324  10.803   5.509   0.287  2.6397 -0.4546 -0.9151
   84MOL0     H11325  10.938   5.556   0.473 -0.0220  0.7266 -0.0654
   84MOL0     H11326  11.158   6.089   0.693  4.0496 -1.9126 -1.0480
   84MOL0     H11327  11.252   6.166   0.922 -1.8565  1.0016  2.5460
   84MOL0     H11328  11.300   6.000   1.352  2.5367 -1.0691 -1.1894
   84MOL0     H11329  11.236   5.864   1.250 -2.5335 -0.1062  1.0477
   84MOL0     H11330  11.061   5.928   1.389 -2.0701  2.6581  1.1222
   84MOL0     H11331  11.015   5.990   1.228  0.1095  0.4208 -0.0153
   84MOL0     H11332  11.156   6.198   1.361  0.5922 -1.2817 -0.0679
   84MOL0     H11333  11.090   6.101   1.489 -1.9091  1.0478  1.3074
   84MOL0     H11334  10.930   6.305   1.403 -2.8536  0.3234  0.3752
   84MOL0     H11335  10.906   6.218   1.258  0.7120  1.4753 -0.5320
   84MOL0     H11336  10.643   6.059   1.528 -3.0001  3.9910  1.2770
   84MOL0     H11337  11.122   5.815   1.096  1.7421  1.6759 -0.3564
   84MOL0     H11338  11.062   5.626   0.961 -0.5363  1.2380  0.8513
   84MOL0     H11339  10.936   5.664   0.841  0.0013  1.8642 -2.6149
   84MOL0     H11340  11.089   5.625   0.782  0.3467  0.5441 -0.3845
   85MOL0     O11341   5.588   2.219   6.281 -0.0846 -0.0764 -0.3782
   85MOL0     C11342   5.575   2.273   6.172  0.3011  0.8459 -0.2979
   85MOL0     O11343   5.609   2.396   6.149 -0.5653 -0.1979  0.0683
   85MOL0     C11344   5.673   2.477   6.233  0.0862 -0.0627 -0.6549
   85MOL0     C11345   5.737   2.582   6.175  0.0725 -0.9303 -1.2508
   85MOL0     C11346   5.795   2.686   6.250 -0.3838  0.3937  0.0201
   85MOL0     C11347   5.798   2.675   6.389 -0.7906  0.4422  0.1669
   85MOL0     O11348   5.873   2.770   6.461  0.9323  0.2124 -0.1058
   85MOL0     C11349   5.808   2.893   6.487 -0.5209  1.1672 -0.6649
   85MOL0     C11350   5.913   2.989   6.564 -0.1049  0.5979 -0.4294
   85MOL0     C11351   5.876   3.137   6.541  0.1610 -0.2710  0.5512
   85MOL0     C11352   5.969   3.220   6.640  0.1597 -0.2880 -0.1324
   85MOL0     C11353   5.958   3.372   6.634  0.5643  0.1493  0.5054
   85MOL0     C11354   6.091   3.441   6.657  0.1458  0.0217 -0.4894
   85MOL0     C11355   6.104   3.482   6.802 -0.2938  0.3661 -0.5740
   85MOL0     C11356   6.237   3.530   6.845  0.0973 -0.2610 -0.6522
   85MOL0     N11357   6.259   3.669   6.812  0.2323 -0.3572 -1.1952
   85MOL0     C11358   6.299   3.722   6.697  0.0654 -0.3244  0.0347
   85MOL0     C11359   6.341   3.847   6.716  0.2668 -0.3360 -0.9702
   85MOL0     C11360   6.399   3.932   6.609 -0.5927 -0.1969 -0.4558
   85MOL0     C11361   6.400   4.080   6.640 -0.7712 -0.0411 -0.0075
   85MOL0     C11362   6.513   4.118   6.748  0.4318  0.8172  0.0789
   85MOL0     C11363   6.496   4.265   6.809 -0.4221  0.0804  0.3563
   85MOL0     O11364   6.558   4.357   6.725 -0.1420 -0.7752  0.2097
   85MOL0     C11365   6.545   4.491   6.757  1.2498  0.3019  0.8189
   85MOL0     C11366   6.609   4.575   6.666 -0.5251  0.2675 -0.1957
   85MOL0     C11367   6.604   4.709   6.689 -0.2416  0.5295  0.6172
   85MOL0     C11368   6.538   4.767   6.794  0.1537  1.4049 -0.4248
   85MOL0     C11369   6.517   4.921   6.803  0.3955  0.1369  0.9464
   85MOL0     O11370   6.393   4.968   6.831  0.4619  0.3740 -0.6555
   85MOL0     C11371   6.356   5.100   6.856  1.2379 -0.1513 -0.5917
   85MOL0     C11372   6.430   5.219   6.833 -0.1097  0.6183  0.2844
   85MOL0     C11373   6.370   5.342   6.839 -1.2163  0.5444 -0.0670
   85MOL0     C11374   6.236   5.360   6.867 -0.6274  0.7014 -0.2072
   85MOL0     O11375   6.169   5.482   6.875  0.8150 -0.1897 -1.0329
   85MOL0     C11376   6.245   5.594   6.935 -0.2059 -0.8578 -1.0673
   85MOL0     C11377   6.152   5.707   6.959 -0.0378 -0.7382  0.0372
   85MOL0     C11378   6.027   5.649   7.037  0.2986  0.4716  0.0888
   85MOL0     C11379   5.930   5.765   7.048  0.5348  0.9747 -0.4070
   85MOL0     C11380   5.788   5.736   7.114 -0.4315 -0.3699  0.6014
   85MOL0     C11381   5.705   5.863   7.139  0.1154 -0.0681  0.6641
   85MOL0     C11382   5.739   5.983   7.054 -0.1963 -0.1442 -0.2534
   85MOL0     C11383   5.641   6.097   7.080 -0.3225  0.7185  0.2446
   85MOL0    Cl11384   5.638   6.166   7.238 -0.0554 -0.1373  0.1722
   85MOL0     C11385   6.157   5.245   6.889  0.6003 -0.2506 -0.8902
   85MOL0     C11386   6.214   5.116   6.882 -0.4155 -0.4931 -0.7375
   85MOL0     O11387   6.612   4.994   6.791 -0.0275 -0.2370  0.6251
   85MOL0     C11388   6.457   4.678   6.878 -0.9107 -0.4384 -0.2954
   85MOL0     C11389   6.462   4.541   6.857  0.0338 -0.0758  0.2423
   85MOL0     N11390   6.326   3.871   6.847 -0.5698 -0.4420 -0.7496
   85MOL0     N11391   6.275   3.766   6.906  0.3239 -0.8815 -0.9632
   85MOL0     C11392   5.739   2.562   6.452  0.1366  0.5436  0.2024
   85MOL0     C11393   5.666   2.469   6.376 -0.4299  0.8836 -0.0050
   85MOL0     C11394   5.527   2.186   6.061  0.2742  0.0711 -0.4204
   85MOL0     C11395   5.505   2.252   5.936 -0.4256 -1.1897  0.5913
   85MOL0     C11396   5.456   2.175   5.821 -0.1017 -0.0900 -0.7224
   85MOL0     C11397   5.423   2.037   5.835  0.0997 -1.2300  0.7424
   85MOL0     O11398   5.377   1.966   5.724 -0.2774 -0.0825  0.3895
   85MOL0     C11399   5.292   2.011   5.616 -0.0789 -1.1594  0.4273
   85MOL0     C11400   5.258   1.889   5.538  0.2663  0.5169 -0.1385
   85MOL0     C11401   5.208   1.905   5.402 -0.0773 -0.6157  0.9198
   85MOL0     C11402   5.159   1.772   5.350 -0.1046  0.5462 -0.0278
   85MOL0     C11403   5.102   1.777   5.215  0.9312  0.8451  0.7327
   85MOL0     C11404   5.072   1.774   5.090 -0.1665 -0.3793 -0.4496
   85MOL0     C11405   5.433   1.984   5.953 -0.5541  0.2899  0.0236
   85MOL0     C11406   5.487   2.042   6.074 -0.1855 -1.7843  0.4770
   85MOL0     C11407   5.529   1.946   6.190  0.4741  0.3637  0.5094
   85MOL0     H11408   5.741   2.587   6.067  0.5455  0.8232 -1.1844
   85MOL0     H11409   5.853   2.764   6.202  3.6259 -1.4488  1.4107
   85MOL0     H11410   5.766   2.944   6.400 -0.8679  1.3341 -0.4054
   85MOL0     H11411   5.722   2.868   6.549 -1.5020 -2.4210 -3.1752
   85MOL0     H11412   6.015   2.959   6.538 -0.8010 -1.5859 -0.8148
   85MOL0     H11413   5.902   2.964   6.670 -1.2148  0.5233 -0.5451
   85MOL0     H11414   5.769   3.152   6.555  0.0051 -2.1067  1.6594
   85MOL0     H11415   5.903   3.170   6.440  1.3722 -0.0760  0.9283
   85MOL0     H11416   5.955   3.178   6.740  3.4245 -2.7335 -0.5013
   85MOL0     H11417   6.069   3.181   6.617 -0.3261 -0.4002 -2.2675
   85MOL0     H11418   5.920   3.397   6.535 -0.4267  0.3081  0.9222
   85MOL0     H11419   5.888   3.396   6.714 -0.4127  0.6880 -0.4939
   85MOL0     H11420   6.173   3.375   6.628  0.9462  0.6573  0.2329
   85MOL0     H11421   6.100   3.530   6.594  0.4758  0.3760  0.0444
   85MOL0     H11422   6.079   3.398   6.867  0.4664  1.6940  1.5648
   85MOL0     H11423   6.031   3.560   6.828  1.6782  2.5106 -1.1825
   85MOL0     H11424   6.244   3.527   6.954  4.6788  1.1766 -0.6711
   85MOL0     H11425   6.309   3.456   6.808 -0.4629 -0.2585 -1.7688
   85MOL0     H11426   6.305   3.657   6.610  2.6852  1.0533 -0.9198
   85MOL0     H11427   6.497   3.897   6.575 -0.0030 -1.3877  2.2437
   85MOL0     H11428   6.332   3.917   6.524 -2.0691 -1.5241  0.8693
   85MOL0     H11429   6.430   4.137   6.551  2.0991  3.1524  2.6876
   85MOL0     H11430   6.302   4.112   6.676  0.5204  2.6077  1.4829
   85MOL0     H11431   6.608   4.097   6.698  0.1878  1.0718 -0.4914
   85MOL0     H11432   6.496   4.053   6.835  0.0037  2.7440  1.4990
   85MOL0     H11433   6.552   4.283   6.902  2.5048 -0.5130 -1.1925
   85MOL0     H11434   6.390   4.290   6.816 -0.6098  1.6608 -4.7457
   85MOL0     H11435   6.663   4.546   6.576 -1.2746 -2.4570  0.1356
   85MOL0     H11436   6.652   4.780   6.622  0.3433 -0.2690  0.1749
   85MOL0     H11437   6.535   5.218   6.805 -0.6752 -1.6804 -2.2466
   85MOL0     H11438   6.437   5.426   6.824  2.3817 -2.2846 -1.3473
   85MOL0     H11439   6.280   5.553   7.030 -1.1441  0.3924 -0.1390
   85MOL0     H11440   6.335   5.631   6.887  0.8868 -1.2452  0.5878
   85MOL0     H11441   6.212   5.772   7.023 -1.3873 -0.6301  1.2369
   85MOL0     H11442   6.120   5.762   6.870 -0.7845 -0.1791  0.6350
   85MOL0     H11443   5.979   5.569   6.980  1.7734  0.7164 -1.6050
   85MOL0     H11444   6.048   5.612   7.138 -3.2406 -1.9831  0.0803
   85MOL0     H11445   5.913   5.785   6.942 -2.0503  0.1549 -0.2268
   85MOL0     H11446   5.979   5.849   7.098 -0.8456  0.2602  2.3461
   85MOL0     H11447   5.795   5.668   7.199 -0.4462 -0.4593  0.5316
   85MOL0     H11448   5.741   5.674   7.037  1.6053 -0.2129 -0.8769
   85MOL0     H11449   5.606   5.826   7.109  0.3171 -1.1161  1.2385
   85MOL0     H11450   5.703   5.886   7.246  0.5959  0.8775  0.4775
   85MOL0     H11451   5.739   5.963   6.946  1.8374 -0.9795 -0.1454
   85MOL0     H11452   5.835   6.027   7.081 -0.6540  2.9104 -2.9072
   85MOL0     H11453   5.672   6.183   7.020 -2.8456  1.4402 -0.1659
   85MOL0     H11454   5.540   6.071   7.047  0.2882 -0.8467 -0.4698
   85MOL0     H11455   6.050   5.264   6.892  1.2433  5.3738 -2.3076
   85MOL0     H11456   6.147   5.032   6.892 -1.7126  0.7735  2.2864
   85MOL0     H11457   6.402   4.720   6.962 -1.1828  0.1089 -0.7407
   85MOL0     H11458   6.403   4.473   6.918 -3.6669  2.4806 -0.1866
   85MOL0     H11459   5.728   2.563   6.560 -2.9829  1.1040 -0.0215
   85MOL0     H11460   5.628   2.388   6.436  3.0821 -0.3417  0.8094
   85MOL0     H11461   5.513   2.359   5.918 -0.1849 -1.6117 -2.4800
   85MOL0     H11462   5.443   2.219   5.723  0.0857 -0.3995 -0.8899
   85MOL0     H11463   5.336   2.097   5.564 -1.5218 -1.7438 -1.9158
   85MOL0     H11464   5.199   2.049   5.661  0.0270 -0.8863  0.4216
   85MOL0     H11465   5.191   1.833   5.604 -0.1926  1.7699  0.4962
   85MOL0     H11466   5.354   1.836   5.529  0.6868  1.2918 -0.2823
   85MOL0     H11467   5.279   1.952   5.334  1.3382 -2.7737  0.8163
   85MOL0     H11468   5.114   1.961   5.393 -2.0512 -3.7379  0.7660
   85MOL0     H11469   5.238   1.697   5.338  1.1428  1.9540 -0.9516
   85MOL0     H11470   5.078   1.730   5.409 -1.2264 -0.1908 -1.9769
   85MOL0     H11471   5.058   1.770   4.984  0.3219 -0.7822 -0.5043
   85MOL0     H11472   5.411   1.878   5.961  2.2835 -0.2742  1.9046
   85MOL0     H11473   5.500   1.841   6.176  1.6362  0.1657 -0.6201
   85MOL0     H11474   5.636   1.959   6.213  1.5059 -4.4383 -0.4189
   85MOL0     H11475   5.462   1.967   6.274 -0.2958 -0.4285  0.1100
   86MOL0     O11476   9.090   7.035   9.496 -0.2456  0.4510 -0.1881
   86MOL0     C11477   9.032   7.060   9.607 -0.0296 -0.6210 -0.1185
   86MOL0     O11478   8.966   6.968   9.674 -0.3204  0.5811 -0.1315
   86MOL0     C11479   8.989   6.834   9.636  0.1454  0.9768  1.1678
   86MOL0     C11480   9.125   6.783   9.627 -0.0955 -0.3528  0.7224
   86MOL0     C11481   9.141   6.643   9.609  0.3213  1.2541  0.2611
   86MOL0     C11482   9.029   6.561   9.593  0.8808 -0.1526  0.3692
   86MOL0     O11483   9.063   6.433   9.567  0.7977  0.5546  0.4357
   86MOL0     C11484   8.992   6.367   9.460  0.7668 -0.8558  0.1931
   86MOL0     C11485   9.068   6.230   9.434 -0.5232  0.8124 -0.5429
   86MOL0     C11486   9.047   6.157   9.303  0.1718  0.1851  0.3248
   86MOL0     C11487   9.129   6.024   9.311  0.8635  0.4651  0.2854
   86MOL0     C11488   9.280   6.056   9.319 -0.7880  0.5611 -0.8994
   86MOL0     C11489   9.396   5.941   9.321  0.0978 -0.1287 -0.7808
   86MOL0     C11490   9.418   5.873   9.187  0.0873  0.1863 -0.5112
   86MOL0     C11491   9.548   5.781   9.190 -0.2648 -0.1051  0.1558
   86MOL0     N11492   9.605   5.779   9.056 -0.2627  0.6329 -0.6733
   86MOL0     C11493   9.571   5.697   8.952  0.4603 -0.4845 -0.2267
   86MOL0     C11494   9.651   5.736   8.849 -0.5515  0.0885  0.4795
   86MOL0     C11495   9.662   5.655   8.724  0.3159  0.0510  0.0944
   86MOL0     C11496   9.784   5.553   8.730 -0.4973 -0.5087 -0.3819
   86MOL0     C11497   9.818   5.482   8.597 -0.0989 -0.3670 -1.0251
   86MOL0     C11498   9.928   5.544   8.510 -0.1171 -1.3483 -0.6512
   86MOL0     O11499  10.042   5.585   8.590 -1.0465 -0.6476  0.5578
   86MOL0     C11500  10.129   5.494   8.640 -0.1668 -0.2539  0.5283
   86MOL0     C11501  10.237   5.549   8.714  0.8314 -0.6186  0.1998
   86MOL0     C11502  10.339   5.460   8.760 -0.1681 -0.1885  0.0629
   86MOL0     C11503  10.324   5.315   8.740 -0.2270 -0.1715  0.3092
   86MOL0     C11504  10.436   5.223   8.776  0.0757 -0.9008  0.7100
   86MOL0     O11505  10.553   5.286   8.803  0.5388 -0.8032  0.2042
   86MOL0     C11506  10.664   5.216   8.830  0.6050 -0.5305 -0.5672
   86MOL0     C11507  10.674   5.123   8.933  0.1217 -0.3667 -0.3520
   86MOL0     C11508  10.785   5.041   8.955 -0.1401  0.1146 -0.3387
   86MOL0     C11509  10.902   5.052   8.878  1.1116  0.6988 -0.8952
   86MOL0     O11510  11.022   5.000   8.905  0.0980  1.7402 -0.0583
   86MOL0     C11511  11.126   5.089   8.910 -1.4824 -0.4339  0.4567
   86MOL0     C11512  11.246   5.029   8.986 -0.7581 -0.0177 -0.1673
   86MOL0     C11513  11.209   4.995   9.128 -0.8376  0.4108  0.7088
   86MOL0     C11514  11.337   4.967   9.209  0.6856  0.0139  0.3500
   86MOL0     C11515  11.301   4.941   9.354 -0.1633  0.4999  0.2780
   86MOL0     C11516  11.419   4.975   9.449 -0.0550  0.1898 -0.5283
   86MOL0     C11517  11.522   4.864   9.462 -0.2479 -0.1229  0.3913
   86MOL0     C11518  11.619   4.859   9.585 -0.0940  0.0229  0.2611
   86MOL0    Cl11519  11.698   5.025   9.595 -0.0407  0.3558 -0.0368
   86MOL0     C11520  10.887   5.134   8.761  0.2764  0.7556  0.2074
   86MOL0     C11521  10.766   5.202   8.738 -0.5506  0.5903  0.1945
   86MOL0     O11522  10.405   5.109   8.804  0.1614  0.1198 -0.2350
   86MOL0     C11523  10.208   5.263   8.671 -0.3846 -1.3305  0.0066
   86MOL0     C11524  10.118   5.358   8.623  1.0007 -0.3584  0.6439
   86MOL0     N11525   9.734   5.835   8.907  0.1730 -0.0485 -0.0039
   86MOL0     N11526   9.701   5.862   9.029  0.4177 -0.6909 -0.6959
   86MOL0     C11527   8.900   6.618   9.607 -0.3524 -1.1411  0.0261
   86MOL0     C11528   8.873   6.758   9.625  0.4037  0.5995  0.0549
   86MOL0     C11529   9.049   7.200   9.656 -0.4852  0.5247 -0.7228
   86MOL0     C11530   9.157   7.274   9.607 -0.2342 -0.4465  0.4764
   86MOL0     C11531   9.184   7.412   9.634 -0.0532  0.9425  0.2357
   86MOL0     C11532   9.085   7.480   9.710  0.1365  0.2706 -0.8024
   86MOL0     O11533   9.095   7.613   9.770  0.1676  1.0700 -0.1815
   86MOL0     C11534   9.201   7.696   9.727 -0.4896 -0.8261  0.0833
   86MOL0     C11535   9.340   7.692   9.794 -0.3287  0.9426  0.4747
   86MOL0     C11536   9.325   7.714   9.943  0.1226  0.1651 -0.5746
   86MOL0     C11537   9.223   7.827   9.990  0.4650  0.2439 -1.0041
   86MOL0     C11538   9.223   7.839  10.138  0.0547 -0.5537  0.1143
   86MOL0     C11539   9.198   7.828  10.261  0.5052  0.0936  1.4922
   86MOL0     C11540   8.975   7.403   9.766 -0.2848 -0.2981  0.8607
   86MOL0     C11541   8.950   7.272   9.735 -0.4473 -0.2350  0.3798
   86MOL0     C11542   8.828   7.203   9.784 -0.3367 -0.2844 -0.2705
   86MOL0     H11543   9.217   6.840   9.633  0.6698 -0.8132 -3.4864
   86MOL0     H11544   9.232   6.592   9.581 -0.5768 -1.4421  1.7918
   86MOL0     H11545   8.886   6.348   9.478  0.6338 -0.6720 -0.3750
   86MOL0     H11546   8.989   6.422   9.365 -0.6515 -0.9564  0.1632
   86MOL0     H11547   9.067   6.161   9.519  0.2892  0.4056 -0.8474
   86MOL0     H11548   9.174   6.260   9.431  0.4934 -2.5242 -2.0804
   86MOL0     H11549   9.075   6.214   9.214 -0.3855  2.7031  1.6885
   86MOL0     H11550   8.942   6.139   9.280 -0.7261  3.4017  1.3765
   86MOL0     H11551   9.094   5.970   9.400  0.3316 -0.2557 -0.3402
   86MOL0     H11552   9.102   5.969   9.220 -2.9480  1.2305  0.7718
   86MOL0     H11553   9.307   6.131   9.244  2.7933  0.2170 -0.1247
   86MOL0     H11554   9.313   6.099   9.414  0.5703  1.7499 -1.8679
   86MOL0     H11555   9.489   5.996   9.340 -1.7592  2.5207  1.5370
   86MOL0     H11556   9.389   5.872   9.406 -2.9251 -0.0090 -0.8111
   86MOL0     H11557   9.437   5.955   9.116 -0.1188 -0.2237 -1.0470
   86MOL0     H11558   9.335   5.812   9.152 -0.6407  1.5464 -1.2629
   86MOL0     H11559   9.630   5.820   9.251 -1.3480 -1.6425  2.7317
   86MOL0     H11560   9.524   5.677   9.212 -1.1588 -0.1727 -1.0194
   86MOL0     H11561   9.493   5.623   8.963  1.7289 -1.8074  0.2053
   86MOL0     H11562   9.561   5.621   8.697 -2.4306  5.1223  2.5426
   86MOL0     H11563   9.687   5.732   8.649  0.5496 -2.1648 -2.2558
   86MOL0     H11564   9.871   5.595   8.782  0.1936 -1.4763 -0.7080
   86MOL0     H11565   9.737   5.478   8.793 -2.2784  0.3398 -0.6576
   86MOL0     H11566   9.725   5.475   8.540 -0.8785  1.6247 -0.0882
   86MOL0     H11567   9.852   5.378   8.609 -3.4910 -1.8185 -2.5712
   86MOL0     H11568   9.890   5.635   8.462 -0.8117 -1.1125  0.3349
   86MOL0     H11569   9.957   5.467   8.438 -0.6098 -2.7783  0.6205
   86MOL0     H11570  10.245   5.656   8.727 -4.2454 -0.0065  0.3549
   86MOL0     H11571  10.437   5.502   8.782 -0.7347  1.2879 -0.1960
   86MOL0     H11572  10.586   5.085   8.985 -1.3153  2.8527 -0.1852
   86MOL0     H11573  10.780   4.973   9.039 -0.4520  0.0552 -0.4042
   86MOL0     H11574  11.153   5.110   8.806 -1.1019  2.0074  0.9892
   86MOL0     H11575  11.103   5.187   8.954 -0.6400  1.3893 -2.8061
   86MOL0     H11576  11.282   4.936   8.941  0.4711 -0.2011  1.1505
   86MOL0     H11577  11.337   5.089   8.977 -0.8570 -0.0599 -1.7666
   86MOL0     H11578  11.153   5.080   9.168 -4.1473 -1.4145  0.3023
   86MOL0     H11579  11.148   4.905   9.117 -0.4139  0.4418 -2.9182
   86MOL0     H11580  11.407   5.051   9.213 -0.2857  0.9294 -0.6999
   86MOL0     H11581  11.388   4.877   9.173 -1.0600 -1.5066  1.5060
   86MOL0     H11582  11.264   4.839   9.369 -0.3702  0.3706 -1.0051
   86MOL0     H11583  11.219   5.007   9.383  1.5102  2.7582  0.1729
   86MOL0     H11584  11.476   5.067   9.433 -0.0527  0.3176  0.1808
   86MOL0     H11585  11.369   4.989   9.545 -2.0171  2.0272 -1.7186
   86MOL0     H11586  11.589   4.880   9.377  2.9020 -2.3939  2.2325
   86MOL0     H11587  11.473   4.768   9.444 -0.0561  0.2541 -2.8096
   86MOL0     H11588  11.558   4.836   9.673 -0.4412 -0.6822 -0.1561
   86MOL0     H11589  11.686   4.773   9.575  0.1062 -0.0551  2.0871
   86MOL0     H11590  10.968   5.168   8.699  2.0187 -0.0284  1.9415
   86MOL0     H11591  10.772   5.260   8.646  1.9501 -1.7139 -1.2260
   86MOL0     H11592  10.217   5.158   8.644  1.5742 -1.6647  1.7436
   86MOL0     H11593  10.043   5.305   8.565 -0.3216  0.8184  1.2247
   86MOL0     H11594   8.818   6.547   9.603 -0.1397 -1.3406 -2.0299
   86MOL0     H11595   8.786   6.820   9.643  0.6618  2.5460 -4.2115
   86MOL0     H11596   9.238   7.243   9.542  0.1169  1.5634 -0.1383
   86MOL0     H11597   9.272   7.456   9.586  1.0206 -0.1668  1.1144
   86MOL0     H11598   9.161   7.798   9.738  0.0275 -0.8776  3.4756
   86MOL0     H11599   9.214   7.684   9.619  1.5759  2.2497 -0.1511
   86MOL0     H11600   9.400   7.773   9.751 -1.1381  0.8484 -0.8732
   86MOL0     H11601   9.379   7.591   9.777  2.9059  1.7502  2.2917
   86MOL0     H11602   9.427   7.734   9.977  0.0553 -2.1601  1.2080
   86MOL0     H11603   9.311   7.623  10.003  0.7155  1.4077  1.5562
   86MOL0     H11604   9.268   7.920   9.952  1.8729  0.1488  0.3235
   86MOL0     H11605   9.125   7.807   9.945  0.3829  0.0696 -0.7484
   86MOL0     H11606   9.193   7.802  10.365  0.3194 -2.1385  0.9786
   86MOL0     H11607   8.905   7.445   9.837 -1.7360  0.4050 -0.9192
   86MOL0     H11608   8.850   7.133   9.865 -0.2073 -1.4013 -1.2551
   86MOL0     H11609   8.759   7.274   9.832  2.6159  2.3909  0.3592
   86MOL0     H11610   8.776   7.148   9.705 -0.7534 -1.4792  0.7962
   87MOL0     O11611   4.435   4.723   4.162  0.0537 -0.0185  0.0441
   87MOL0     C11612   4.481   4.631   4.235  0.4204 -0.3614  1.1070
   87MOL0     O11613   4.463   4.501   4.201  0.5268  0.1611 -0.1080
   87MOL0     C11614   4.357   4.470   4.124  0.0156 -0.8553  0.9006
   87MOL0     C11615   4.226   4.469   4.172  0.1340  0.1088  0.0393
   87MOL0     C11616   4.123   4.424   4.074  0.4919  0.1945 -0.2843
   87MOL0     C11617   4.153   4.388   3.943  0.7015  0.2403  0.0202
   87MOL0     O11618   4.059   4.342   3.854 -0.3139 -0.5924  0.0400
   87MOL0     C11619   3.922   4.319   3.883  0.6355 -0.2555 -0.0325
   87MOL0     C11620   3.860   4.241   3.766 -0.7502  0.2712  0.7577
   87MOL0     C11621   3.956   4.122   3.732 -0.0682 -0.2282  0.6467
   87MOL0     C11622   3.961   3.994   3.813  0.3472  0.1335  0.0066
   87MOL0     C11623   3.834   3.915   3.800 -0.3479  0.5353 -0.7857
   87MOL0     C11624   3.822   3.841   3.931  0.9447  0.5960 -0.5702
   87MOL0     C11625   3.713   3.732   3.924 -0.5198  0.2505 -0.1138
   87MOL0     C11626   3.746   3.622   4.025  0.1129  1.1340 -0.1407
   87MOL0     N11627   3.720   3.662   4.167 -0.0023 -1.0023  0.1023
   87MOL0     C11628   3.609   3.633   4.237  0.0415 -0.7365  0.3795
   87MOL0     C11629   3.624   3.712   4.350 -0.6042 -1.0385  0.3979
   87MOL0     C11630   3.531   3.732   4.465  0.9901 -0.0035 -0.2101
   87MOL0     C11631   3.569   3.852   4.556  0.0315 -0.6393 -1.3299
   87MOL0     C11632   3.698   3.832   4.644  0.6645 -0.3230  0.8172
   87MOL0     C11633   3.740   3.970   4.711 -0.8038  0.4972  0.2205
   87MOL0     O11634   3.836   3.952   4.813 -0.4969 -0.2829  0.0642
   87MOL0     C11635   3.798   3.884   4.927 -0.1443  0.6126 -0.6532
   87MOL0     C11636   3.674   3.891   4.996  0.4916 -0.4023 -0.5128
   87MOL0     C11637   3.647   3.813   5.110 -0.1145  0.2673  0.5307
   87MOL0     C11638   3.741   3.710   5.148  0.0043 -0.4554 -0.2466
   87MOL0     C11639   3.702   3.618   5.260  0.3546  0.7974 -0.0329
   87MOL0     O11640   3.565   3.609   5.293 -0.2432 -0.6760  0.4504
   87MOL0     C11641   3.519   3.492   5.352 -0.3072  0.3223  0.4192
   87MOL0     C11642   3.572   3.362   5.337 -0.3966 -0.1312 -0.0627
   87MOL0     C11643   3.547   3.263   5.426 -0.1241  0.3791  0.2940
   87MOL0     C11644   3.448   3.273   5.524 -0.4239 -1.0074 -0.0031
   87MOL0     O11645   3.411   3.178   5.614 -0.0583 -0.4099 -0.4771
   87MOL0     C11646   3.474   3.054   5.613 -0.1341 -0.0718  0.4273
   87MOL0     C11647   3.407   2.968   5.719  0.2535  0.0801  0.6029
   87MOL0     C11648   3.485   2.836   5.721  0.0957  0.5198 -0.3815
   87MOL0     C11649   3.463   2.755   5.849 -0.7309  0.0536  0.4272
   87MOL0     C11650   3.328   2.684   5.852  1.2462  0.2201 -0.0863
   87MOL0     C11651   3.277   2.612   5.725 -0.5901 -0.1389 -0.7166
   87MOL0     C11652   3.379   2.511   5.663  0.5867  0.3173 -0.6981
   87MOL0     C11653   3.430   2.412   5.767 -0.9264  0.6260 -0.1717
   87MOL0    Cl11654   3.479   2.254   5.701  0.2746 -0.3275 -0.2958
   87MOL0     C11655   3.391   3.407   5.541  0.3948  0.6087  0.4185
   87MOL0     C11656   3.431   3.511   5.451 -0.1959  0.2721  0.0509
   87MOL0     O11657   3.789   3.547   5.303  0.4695 -0.0833 -0.2751
   87MOL0     C11658   3.854   3.691   5.062  0.7422 -0.0328  0.1338
   87MOL0     C11659   3.890   3.785   4.965 -0.2499 -0.2554 -0.5981
   87MOL0     N11660   3.744   3.782   4.343 -0.8391  0.1494 -0.2384
   87MOL0     N11661   3.801   3.750   4.237 -0.6385 -0.2156  0.3491
   87MOL0     C11662   4.277   4.416   3.898  0.2730  0.3601  0.4051
   87MOL0     C11663   4.378   4.456   3.988  0.2679 -0.6733  1.0218
   87MOL0     C11664   4.569   4.674   4.349 -0.1149  0.4608  0.4027
   87MOL0     C11665   4.633   4.571   4.423  0.1215 -0.5658 -0.3781
   87MOL0     C11666   4.695   4.593   4.543  0.8725  0.2466 -1.4528
   87MOL0     C11667   4.696   4.722   4.604  0.3461  0.6607  0.4647
   87MOL0     O11668   4.752   4.758   4.720  0.1323 -0.0051  0.5941
   87MOL0     C11669   4.857   4.689   4.769 -0.3750 -0.3676  0.0206
   87MOL0     C11670   4.903   4.757   4.892  0.6011  0.1268 -0.1669
   87MOL0     C11671   4.979   4.886   4.874  0.0189  0.0739 -0.7721
   87MOL0     C11672   5.129   4.880   4.838 -1.5106  0.3269 -0.7789
   87MOL0     C11673   5.204   4.785   4.922 -0.2903  0.6643  0.1373
   87MOL0     C11674   5.259   4.700   4.991  0.0137 -0.2397  0.2593
   87MOL0     C11675   4.628   4.827   4.540  0.8975  1.2625 -0.2804
   87MOL0     C11676   4.568   4.808   4.408 -0.0902  0.5843  0.0679
   87MOL0     C11677   4.504   4.934   4.351  0.3285  0.2900 -0.2766
   87MOL0     H11678   4.201   4.477   4.277  1.1347  1.1614  0.2213
   87MOL0     H11679   4.019   4.415   4.102 -0.8610  0.1793 -4.6504
   87MOL0     H11680   3.915   4.267   3.978  3.3169  0.5229  0.6879
   87MOL0     H11681   3.870   4.415   3.890 -2.8611 -1.8603 -1.4608
   87MOL0     H11682   3.870   4.315   3.686  0.6957 -2.7129 -2.0695
   87MOL0     H11683   3.753   4.220   3.774 -1.4134  2.1841 -1.7562
   87MOL0     H11684   4.060   4.154   3.732 -0.0345 -0.2819  1.8638
   87MOL0     H11685   3.931   4.087   3.632 -2.0574  0.0598  0.9865
   87MOL0     H11686   4.045   3.937   3.772  1.9911  3.4910 -1.7098
   87MOL0     H11687   3.980   4.013   3.920  1.4611 -2.9574  0.4453
   87MOL0     H11688   3.749   3.974   3.764 -0.8106 -1.4292 -3.1784
   87MOL0     H11689   3.844   3.833   3.728 -2.7839 -0.6976  0.1626
   87MOL0     H11690   3.918   3.790   3.947  0.8948 -0.8639 -3.9588
   87MOL0     H11691   3.805   3.911   4.013  3.2848 -0.0110  0.5268
   87MOL0     H11692   3.720   3.684   3.826  2.4561  0.5066 -0.1257
   87MOL0     H11693   3.609   3.764   3.938 -0.9757  0.4939 -3.4013
   87MOL0     H11694   3.699   3.524   4.013  2.8609 -0.4412  0.8241
   87MOL0     H11695   3.853   3.600   4.016  0.4330  3.3491 -3.3881
   87MOL0     H11696   3.515   3.581   4.218  0.5976 -2.2709  1.5972
   87MOL0     H11697   3.432   3.752   4.422  0.9931 -0.6442 -0.5195
   87MOL0     H11698   3.512   3.638   4.517 -1.1815 -0.6423 -1.9877
   87MOL0     H11699   3.593   3.942   4.499 -2.7069  1.5153  0.6408
   87MOL0     H11700   3.492   3.873   4.631  0.6527 -3.0857  0.1099
   87MOL0     H11701   3.782   3.794   4.586  0.0644 -1.2487  0.5425
   87MOL0     H11702   3.673   3.759   4.721  0.0326  0.4291  1.3475
   87MOL0     H11703   3.649   4.021   4.745 -2.1134 -1.9500  0.5965
   87MOL0     H11704   3.789   4.033   4.637  0.8645  0.6722  1.4261
   87MOL0     H11705   3.608   3.965   4.952 -1.0042 -1.5767 -0.3073
   87MOL0     H11706   3.559   3.829   5.171 -1.0590  1.6854 -1.1291
   87MOL0     H11707   3.644   3.340   5.258 -1.2018  4.2774 -2.3405
   87MOL0     H11708   3.600   3.169   5.414 -2.4772 -0.9168 -0.7993
   87MOL0     H11709   3.473   3.008   5.514  0.2717  3.3446 -1.3353
   87MOL0     H11710   3.575   3.071   5.652 -0.8113 -0.9339  2.6609
   87MOL0     H11711   3.389   3.014   5.817 -4.2616 -0.7201  0.3652
   87MOL0     H11712   3.306   2.946   5.685 -0.9107  0.1901  3.6548
   87MOL0     H11713   3.453   2.778   5.634 -0.5863  0.7951 -0.3241
   87MOL0     H11714   3.591   2.858   5.710  0.1388  1.0317  0.8268
   87MOL0     H11715   3.474   2.816   5.939 -1.7955  0.6106  0.1969
   87MOL0     H11716   3.544   2.682   5.850 -0.2093  0.5229 -1.9002
   87MOL0     H11717   3.252   2.753   5.888 -0.8265 -0.8158 -2.2207
   87MOL0     H11718   3.328   2.607   5.930 -1.9769  0.8471  0.6566
   87MOL0     H11719   3.180   2.573   5.758 -1.5403  0.6794 -2.4498
   87MOL0     H11720   3.249   2.690   5.654  0.7123  1.6081  0.6022
   87MOL0     H11721   3.459   2.566   5.613 -3.2088  3.0617 -4.4738
   87MOL0     H11722   3.325   2.454   5.587  1.0482  2.7956 -3.0486
   87MOL0     H11723   3.521   2.456   5.808 -0.3457 -1.6682  1.1529
   87MOL0     H11724   3.362   2.392   5.850  2.3685  1.6958  3.0323
   87MOL0     H11725   3.314   3.432   5.613 -0.1567  0.4893 -0.1198
   87MOL0     H11726   3.393   3.612   5.463  2.8780  1.3167  2.2328
   87MOL0     H11727   3.924   3.611   5.086  0.6580 -0.4609 -1.0043
   87MOL0     H11728   3.977   3.760   4.905 -0.9730 -1.8346 -1.0567
   87MOL0     H11729   4.299   4.400   3.793 -2.3007  3.1662 -0.7379
   87MOL0     H11730   4.479   4.450   3.949 -0.2749 -0.3360 -0.5044
   87MOL0     H11731   4.625   4.469   4.386 -1.3037 -0.1771 -1.2426
   87MOL0     H11732   4.741   4.510   4.596 -2.2441 -1.7644 -1.6391
   87MOL0     H11733   4.943   4.706   4.704 -0.5438  1.2750  0.1730
   87MOL0     H11734   4.843   4.585   4.798  3.9772 -0.7862  1.4207
   87MOL0     H11735   4.958   4.676   4.941  0.0424 -1.3094 -1.8050
   87MOL0     H11736   4.822   4.773   4.964 -0.7967 -2.3888 -1.0301
   87MOL0     H11737   4.983   4.921   4.977  0.1833 -1.1381 -0.3469
   87MOL0     H11738   4.921   4.955   4.813  0.1528 -1.1657 -2.3802
   87MOL0     H11739   5.128   4.837   4.737 -4.8072  0.1076 -0.7445
   87MOL0     H11740   5.177   4.979   4.845  0.6255 -0.6011 -1.4125
   87MOL0     H11741   5.324   4.637   5.048  2.8928 -2.6307 -4.9994
   87MOL0     H11742   4.622   4.922   4.592 -2.3302  0.5312  0.9062
   87MOL0     H11743   4.540   4.939   4.248  0.5677  1.3219 -0.1615
   87MOL0     H11744   4.395   4.940   4.354  0.3342  0.2989 -0.1101
   87MOL0     H11745   4.550   5.023   4.396  1.5972 -1.8509  3.0011
   88MOL0     O11746   8.145   2.304   7.572 -0.5719 -0.2409 -0.3384
   88MOL0     C11747   8.158   2.428   7.555  0.2260  0.6285  0.4050
   88MOL0     O11748   8.059   2.516   7.588 -0.2544  0.3102  0.8012
   88MOL0     C11749   7.944   2.469   7.647 -0.1012 -0.8257  0.7632
   88MOL0     C11750   7.856   2.373   7.590 -0.7743  0.3751 -0.3137
   88MOL0     C11751   7.734   2.343   7.651  0.5922 -0.6233 -0.0597
   88MOL0     C11752   7.686   2.414   7.768  0.8300 -0.7856  0.7993
   88MOL0     O11753   7.566   2.391   7.843  0.1405 -0.1643  0.3523
   88MOL0     C11754   7.496   2.254   7.821  0.3289 -0.0845  0.5988
   88MOL0     C11755   7.388   2.228   7.923  0.6872 -0.5849  0.2519
   88MOL0     C11756   7.295   2.349   7.958  1.0695  0.4512  0.1858
   88MOL0     C11757   7.161   2.284   8.022 -1.5836  0.4595  0.4031
   88MOL0     C11758   7.069   2.390   8.089  1.0811  0.8364  0.6549
   88MOL0     C11759   7.121   2.415   8.233 -0.9956  0.2474  0.4741
   88MOL0     C11760   7.062   2.547   8.290 -0.4262  0.4843  0.0399
   88MOL0     C11761   7.089   2.673   8.209 -0.4254 -0.4726 -0.1746
   88MOL0     N11762   7.118   2.795   8.294  0.4369  0.5353  0.2761
   88MOL0     C11763   7.023   2.853   8.366  0.2035 -0.1690  0.0013
   88MOL0     C11764   7.081   2.936   8.449  0.0813  0.3858 -0.2674
   88MOL0     C11765   7.002   3.028   8.541 -0.0673  0.4142  1.2096
   88MOL0     C11766   6.965   2.962   8.680 -0.0209 -0.3346  0.3731
   88MOL0     C11767   6.813   2.975   8.701  0.0513 -0.5733 -0.0384
   88MOL0     C11768   6.763   2.934   8.837  1.0399  0.4056 -0.5382
   88MOL0     O11769   6.620   2.955   8.825 -0.0616  0.2096  0.7454
   88MOL0     C11770   6.555   2.952   8.945  0.0444  0.0584  0.5832
   88MOL0     C11771   6.430   3.016   8.952 -0.3547 -0.4748  0.6377
   88MOL0     C11772   6.358   3.024   9.074  0.2903 -0.3159 -0.6861
   88MOL0     C11773   6.409   2.972   9.193 -0.2992  0.7956 -0.3161
   88MOL0     C11774   6.336   2.977   9.321  0.4965 -0.4386  0.6736
   88MOL0     O11775   6.394   2.922   9.427  0.0361  0.7007  0.1795
   88MOL0     C11776   6.340   2.941   9.553  0.8355 -0.0089  0.7073
   88MOL0     C11777   6.295   3.068   9.590  0.2030 -0.5645  0.3519
   88MOL0     C11778   6.236   3.080   9.719  0.8639 -0.6647 -0.6295
   88MOL0     C11779   6.215   2.969   9.807 -0.1130  0.3321  0.0023
   88MOL0     O11780   6.163   2.980   9.939 -0.3900  1.2038  0.5079
   88MOL0     C11781   6.141   3.112   9.985 -0.2343 -0.1964 -0.3853
   88MOL0     C11782   6.098   3.109  10.128 -0.3247 -0.2283  0.5100
   88MOL0     C11783   6.016   3.240  10.152 -0.1276 -0.7960  0.0481
   88MOL0     C11784   5.987   3.255  10.301  1.1850 -0.3853 -0.1204
   88MOL0     C11785   5.888   3.370  10.328 -1.2072  0.2209  0.3366
   88MOL0     C11786   5.849   3.380  10.478  0.1836  0.5223 -0.3741
   88MOL0     C11787   5.749   3.497  10.501 -0.1616  0.0435 -0.0851
   88MOL0     C11788   5.715   3.501  10.650 -0.2942  0.4182  0.8424
   88MOL0    Cl11789   5.704   3.673  10.697  0.3102  0.0539 -0.1914
   88MOL0     C11790   6.242   2.842   9.757 -0.2949  0.8656  0.7140
   88MOL0     C11791   6.308   2.828   9.631 -0.8297  0.3267  0.5103
   88MOL0     O11792   6.228   3.022   9.324  0.2529 -0.3684  0.6806
   88MOL0     C11793   6.532   2.909   9.184  0.6215  0.1948  0.7573
   88MOL0     C11794   6.605   2.906   9.066 -0.5083 -0.9679 -0.9745
   88MOL0     N11795   7.218   2.923   8.441  0.2889  0.4300 -0.9263
   88MOL0     N11796   7.232   2.843   8.339 -0.3255  0.3167  0.5375
   88MOL0     C11797   7.769   2.516   7.806 -0.6034 -1.1907 -0.4978
   88MOL0     C11798   7.889   2.547   7.748  0.6865 -0.6035  0.1639
   88MOL0     C11799   8.286   2.482   7.508 -0.5040 -0.4701 -0.9705
   88MOL0     C11800   8.274   2.585   7.411  0.3597 -0.3706 -0.2409
   88MOL0     C11801   8.388   2.634   7.353 -0.0256  0.6964 -0.5171
   88MOL0     C11802   8.517   2.586   7.374  0.0644 -0.7685  0.5370
   88MOL0     O11803   8.604   2.630   7.282 -1.0336  0.1576  0.2578
   88MOL0     C11804   8.744   2.601   7.302  0.1988 -0.5446 -0.4031
   88MOL0     C11805   8.838   2.658   7.198 -0.3546  0.1576 -0.9031
   88MOL0     C11806   8.851   2.807   7.200  0.4479  0.4731 -0.0799
   88MOL0     C11807   8.972   2.844   7.110 -0.2535 -0.1438  0.5562
   88MOL0     C11808   8.971   2.990   7.069  0.1667  0.5675 -0.0408
   88MOL0     C11809   8.963   3.111   7.045  0.7017  0.9039  0.1283
   88MOL0     C11810   8.531   2.498   7.482 -0.2851 -0.2992 -0.3466
   88MOL0     C11811   8.415   2.436   7.542 -0.3044  0.6411 -0.0594
   88MOL0     C11812   8.441   2.316   7.633 -0.0020 -0.1726  0.3139
   88MOL0     H11813   7.894   2.314   7.507 -2.4741 -0.3634 -0.6100
   88MOL0     H11814   7.672   2.264   7.611 -2.1277  1.8803 -1.1789
   88MOL0     H11815   7.453   2.256   7.721 -0.7967  1.5077  1.0903
   88MOL0     H11816   7.569   2.172   7.826  0.5461 -0.0287 -1.0015
   88MOL0     H11817   7.431   2.201   8.019 -0.0967 -1.7123  0.3005
   88MOL0     H11818   7.329   2.148   7.877 -1.2682  2.0279 -2.2304
   88MOL0     H11819   7.263   2.408   7.872 -1.3794 -0.2695  0.5325
   88MOL0     H11820   7.330   2.417   8.036 -1.4966  1.3709  0.6284
   88MOL0     H11821   7.109   2.223   7.948  1.0120 -1.5733  0.1182
   88MOL0     H11822   7.181   2.206   8.096 -0.9055  0.8889  0.6855
   88MOL0     H11823   7.075   2.478   8.024 -2.0444 -0.3787 -1.5232
   88MOL0     H11824   6.966   2.354   8.084  1.2824  0.4102 -0.8402
   88MOL0     H11825   7.107   2.322   8.289  1.5073 -0.9426 -0.7242
   88MOL0     H11826   7.230   2.422   8.229 -1.0616  0.7405 -1.4330
   88MOL0     H11827   7.104   2.563   8.390 -1.4797 -2.0034  0.9522
   88MOL0     H11828   6.956   2.534   8.314 -0.8674  2.5276 -0.6562
   88MOL0     H11829   7.185   2.660   8.158 -1.5884  0.4198 -2.7092
   88MOL0     H11830   7.019   2.692   8.128 -1.6432 -0.1685  0.9180
   88MOL0     H11831   6.917   2.839   8.347  0.4226  0.6788 -2.0129
   88MOL0     H11832   7.064   3.116   8.559  2.4477 -0.7298 -1.0729
   88MOL0     H11833   6.905   3.048   8.495 -0.5532 -3.3711  0.2086
   88MOL0     H11834   6.998   2.858   8.680 -0.1687 -0.4611 -2.6037
   88MOL0     H11835   7.024   3.013   8.756 -1.9550  2.1530  0.3352
   88MOL0     H11836   6.773   2.918   8.617  3.4558  0.2082 -2.3957
   88MOL0     H11837   6.799   3.083   8.693  1.3970 -0.3984 -0.2740
   88MOL0     H11838   6.806   3.001   8.912  1.7702 -1.5165  0.8487
   88MOL0     H11839   6.785   2.828   8.849  0.3069 -0.5034 -5.2100
   88MOL0     H11840   6.383   3.069   8.870 -2.5730 -0.1978  2.0081
   88MOL0     H11841   6.263   3.074   9.089  0.3711 -0.8646  2.2635
   88MOL0     H11842   6.318   3.159   9.536  0.6073 -1.2307 -0.6139
   88MOL0     H11843   6.216   3.181   9.754 -2.3517 -2.1982  2.7067
   88MOL0     H11844   6.214   3.190   9.959 -0.4936 -0.3437 -1.6455
   88MOL0     H11845   6.054   3.146   9.928  0.2217  1.3095 -0.2413
   88MOL0     H11846   6.035   3.025  10.158  2.4367 -1.8591  2.1488
   88MOL0     H11847   6.191   3.105  10.186  0.4139 -2.8296 -0.7070
   88MOL0     H11848   6.070   3.333  10.132 -0.2346 -0.4396  1.3437
   88MOL0     H11849   5.919   3.242  10.102 -1.3227 -0.1047  2.2638
   88MOL0     H11850   6.079   3.281  10.353  1.9590 -0.6942 -1.2875
   88MOL0     H11851   5.954   3.157  10.336 -1.5157  1.0188  1.6082
   88MOL0     H11852   5.793   3.354  10.276 -0.1487 -0.1669 -1.5547
   88MOL0     H11853   5.932   3.466  10.304  0.9483 -1.4437 -3.1281
   88MOL0     H11854   5.801   3.285  10.504  0.3955  0.6369  0.4870
   88MOL0     H11855   5.940   3.399  10.536 -0.3949  2.7276 -0.0866
   88MOL0     H11856   5.652   3.471  10.457 -0.3732 -3.6350  2.1558
   88MOL0     H11857   5.769   3.600  10.469 -1.9749  1.0429  1.7619
   88MOL0     H11858   5.619   3.450  10.666  1.4264 -4.1079 -1.2821
   88MOL0     H11859   5.778   3.440  10.715 -2.0124  0.5570  2.7203
   88MOL0     H11860   6.221   2.756   9.819  0.6980 -1.4204 -1.8945
   88MOL0     H11861   6.336   2.728   9.600 -1.1815  0.6764 -1.0109
   88MOL0     H11862   6.576   2.864   9.273 -0.4978  0.6609  1.5722
   88MOL0     H11863   6.711   2.881   9.059 -0.6562 -1.2187 -3.0073
   88MOL0     H11864   7.746   2.577   7.892 -0.2668  0.7849 -1.7449
   88MOL0     H11865   7.942   2.633   7.788 -0.2423 -1.7932  4.4741
   88MOL0     H11866   8.183   2.619   7.362  1.9017  1.6800 -1.9017
   88MOL0     H11867   8.378   2.722   7.289  2.1394  2.1159  0.9580
   88MOL0     H11868   8.745   2.492   7.297 -2.8473 -0.6579 -0.4237
   88MOL0     H11869   8.775   2.653   7.393 -0.2548  4.7028 -2.8314
   88MOL0     H11870   8.797   2.623   7.102 -1.6676 -0.0730 -0.2835
   88MOL0     H11871   8.934   2.609   7.213 -0.9015 -0.2084  1.8015
   88MOL0     H11872   8.846   2.849   7.300  0.3816 -1.0944  0.6010
   88MOL0     H11873   8.759   2.847   7.156 -0.7434  0.2544  2.0904
   88MOL0     H11874   9.064   2.820   7.165  1.8702  2.6256 -1.5016
   88MOL0     H11875   8.967   2.789   7.015 -1.7592 -0.9509  1.0702
   88MOL0     H11876   8.965   3.212   7.008  3.1103  0.0538 -2.3674
   88MOL0     H11877   8.631   2.464   7.505  0.9436  3.2699  0.0701
   88MOL0     H11878   8.407   2.345   7.733  4.0726 -1.6759  2.3595
   88MOL0     H11879   8.395   2.225   7.591  1.1695 -1.3935  1.5664
   88MOL0     H11880   8.547   2.289   7.634  0.7376  2.5141  1.1012
   89MOL0     O11881   2.299   7.742   0.918 -0.2707 -0.9721  0.4945
   89MOL0     C11882   2.286   7.650   0.994  0.4053  0.3068 -0.0259
   89MOL0     O11883   2.221   7.644   1.115 -0.5529 -0.2629  0.5500
   89MOL0     C11884   2.210   7.748   1.199  0.1929 -1.3276 -0.0972
   89MOL0     C11885   2.116   7.721   1.298 -0.5294  0.0425 -0.9015
   89MOL0     C11886   2.081   7.822   1.380  0.1835  0.2928  0.3314
   89MOL0     C11887   2.144   7.949   1.375  0.0673  0.8443 -0.1418
   89MOL0     O11888   2.092   8.046   1.455  0.1142  0.3473  0.0104
   89MOL0     C11889   2.150   8.182   1.458  0.6330  0.5332 -0.2054
   89MOL0     C11890   2.274   8.183   1.548  0.0152  0.1666  0.6721
   89MOL0     C11891   2.259   8.128   1.689 -0.5111 -1.1112 -0.7203
   89MOL0     C11892   2.203   8.240   1.782 -0.1877 -0.7058 -0.4170
   89MOL0     C11893   2.318   8.330   1.832  0.1395  0.6543 -0.5314
   89MOL0     C11894   2.272   8.407   1.959  0.0233 -0.0062  0.5578
   89MOL0     C11895   2.171   8.520   1.937 -0.0877 -0.5088 -0.0431
   89MOL0     C11896   2.240   8.634   1.852 -0.8305 -0.1266 -1.0348
   89MOL0     N11897   2.164   8.759   1.874  0.3234 -0.3956 -0.6958
   89MOL0     C11898   2.196   8.853   1.973 -0.0113 -0.4454  0.0330
   89MOL0     C11899   2.084   8.930   1.970  0.2998 -0.3240  0.0333
   89MOL0     C11900   2.076   9.076   2.014  0.2915  0.6933  0.1008
   89MOL0     C11901   2.073   9.080   2.162  0.4555 -0.0150  0.4922
   89MOL0     C11902   1.943   9.013   2.219 -0.2866 -0.1132 -1.1228
   89MOL0     C11903   1.980   8.969   2.356  0.3600 -0.3876  0.0911
   89MOL0     O11904   1.993   9.076   2.452 -0.0093  0.5083 -0.0004
   89MOL0     C11905   2.025   9.033   2.579 -0.1189 -0.8574 -0.4079
   89MOL0     C11906   2.080   8.905   2.612 -0.4405 -0.9656  0.5460
   89MOL0     C11907   2.094   8.868   2.740  0.5405  0.2515 -0.9617
   89MOL0     C11908   2.072   8.959   2.838 -0.3002 -0.1524  0.0675
   89MOL0     C11909   2.101   8.921   2.986  0.1811 -0.0331  0.6040
   89MOL0     O11910   2.116   8.789   3.007  0.1702  0.1018 -0.2700
   89MOL0     C11911   2.136   8.759   3.141  0.2013  0.1412 -0.1862
   89MOL0     C11912   2.253   8.691   3.182  0.0783 -0.3284  0.6880
   89MOL0     C11913   2.281   8.679   3.314  0.4336  0.5313  0.3121
   89MOL0     C11914   2.196   8.729   3.418 -0.3737 -0.9233  0.1390
   89MOL0     O11915   2.225   8.723   3.552  1.0910 -0.7830  0.2252
   89MOL0     C11916   2.362   8.715   3.601  0.3649 -0.6706 -0.3319
   89MOL0     C11917   2.404   8.565   3.606  1.0384 -0.3723  0.5186
   89MOL0     C11918   2.524   8.555   3.691  1.0039 -0.4185  0.0288
   89MOL0     C11919   2.578   8.408   3.710 -0.1326 -0.5717 -0.6156
   89MOL0     C11920   2.737   8.402   3.693 -0.3941 -0.3167 -0.7536
   89MOL0     C11921   2.784   8.424   3.548 -0.6136 -0.3486  0.7029
   89MOL0     C11922   2.932   8.404   3.545 -0.7973 -0.9293 -0.4347
   89MOL0     C11923   2.997   8.425   3.406 -0.1429 -0.3368 -0.5566
   89MOL0    Cl11924   3.172   8.429   3.418  0.5367 -0.0876  0.0832
   89MOL0     C11925   2.077   8.784   3.380  0.3030  0.0122  0.6369
   89MOL0     C11926   2.051   8.808   3.243  0.4024  0.3753 -0.4358
   89MOL0     O11927   2.126   9.015   3.067  0.5419  0.0339  0.4649
   89MOL0     C11928   2.023   9.088   2.807 -0.2913  0.3816  0.6691
   89MOL0     C11929   2.007   9.131   2.681 -0.6234  0.1719  0.2636
   89MOL0     N11930   1.984   8.877   1.888 -0.2366  0.9354 -0.1054
   89MOL0     N11931   2.033   8.768   1.839 -0.5600 -0.3697  1.0698
   89MOL0     C11932   2.247   7.968   1.283  0.9074  0.2543  0.6597
   89MOL0     C11933   2.269   7.869   1.186  0.0487  0.2447 -0.8557
   89MOL0     C11934   2.354   7.516   0.961  0.0934 -0.2374  1.3472
   89MOL0     C11935   2.323   7.400   1.039 -0.9617 -0.9401  0.4538
   89MOL0     C11936   2.395   7.283   1.019  0.3601 -0.2672 -0.2309
   89MOL0     C11937   2.481   7.262   0.918 -0.0485  0.0440 -0.1430
   89MOL0     O11938   2.510   7.128   0.908 -0.1958 -0.2765  0.4890
   89MOL0     C11939   2.593   7.074   0.803  0.1487  0.0366  0.0990
   89MOL0     C11940   2.509   7.045   0.671 -1.3628 -0.1111  0.7283
   89MOL0     C11941   2.394   6.940   0.695  0.5944 -0.1195  0.2812
   89MOL0     C11942   2.358   6.889   0.554  0.6667  0.5241  0.9431
   89MOL0     C11943   2.276   6.993   0.487  0.1414  0.7301  0.1083
   89MOL0     C11944   2.220   7.087   0.436  0.0382  0.0385 -0.1872
   89MOL0     C11945   2.504   7.364   0.835  0.8682  0.8901  0.4600
   89MOL0     C11946   2.450   7.490   0.856  0.0821  0.1292 -0.3077
   89MOL0     C11947   2.510   7.602   0.776 -0.7120 -0.6036 -0.7983
   89MOL0     H11948   2.079   7.620   1.310 -0.7341  0.3256  1.1458
   89MOL0     H11949   2.006   7.805   1.457 -2.3136  0.3738 -1.9312
   89MOL0     H11950   2.175   8.217   1.358  3.3336 -0.3941  0.0579
   89MOL0     H11951   2.068   8.245   1.493  0.4650  0.3356 -0.2373
   89MOL0     H11952   2.313   8.285   1.547  0.4913  0.0124 -1.4289
   89MOL0     H11953   2.350   8.120   1.502  0.9372  2.6498 -1.4660
   89MOL0     H11954   2.352   8.084   1.724 -1.8702 -0.6884  4.3273
   89MOL0     H11955   2.182   8.050   1.685  1.2569 -2.9924  0.1959
   89MOL0     H11956   2.131   8.301   1.727 -0.7706 -1.1075 -0.1161
   89MOL0     H11957   2.150   8.205   1.872  1.5831 -0.6258  0.7029
   89MOL0     H11958   2.399   8.267   1.869 -0.8375 -0.3406 -0.0123
   89MOL0     H11959   2.367   8.391   1.756  0.0811  1.0075 -0.2897
   89MOL0     H11960   2.235   8.345   2.041 -1.0401  0.1663  0.2179
   89MOL0     H11961   2.359   8.446   2.014  1.2260 -0.6740 -0.8202
   89MOL0     H11962   2.142   8.559   2.035 -4.8163 -2.2195 -0.5039
   89MOL0     H11963   2.082   8.483   1.887  0.1338 -1.3831  0.1931
   89MOL0     H11964   2.346   8.647   1.876 -0.2589 -3.6126 -1.1281
   89MOL0     H11965   2.246   8.590   1.752  1.7663 -1.6337 -0.3278
   89MOL0     H11966   2.297   8.876   2.008  0.5351 -3.2437  0.5201
   89MOL0     H11967   2.162   9.129   1.971 -0.3982  1.3382 -0.5164
   89MOL0     H11968   1.986   9.124   1.974  1.5690  0.5471 -3.2766
   89MOL0     H11969   2.175   9.055   2.192  1.3783  1.5637 -1.1419
   89MOL0     H11970   2.073   9.186   2.191 -0.2294 -0.1851  1.1562
   89MOL0     H11971   1.927   8.921   2.163  0.7385  0.2584 -2.0772
   89MOL0     H11972   1.860   9.084   2.212 -2.0448 -2.1190 -1.6019
   89MOL0     H11973   2.076   8.917   2.345  1.5017  1.6132  0.0282
   89MOL0     H11974   1.902   8.903   2.395 -0.4235  2.2840  3.6373
   89MOL0     H11975   2.135   8.844   2.541  2.2739  0.3002  1.4304
   89MOL0     H11976   2.132   8.768   2.761 -1.7375 -0.2808  1.1002
   89MOL0     H11977   2.326   8.663   3.107 -0.5887 -0.9784  0.2607
   89MOL0     H11978   2.364   8.611   3.328 -0.2901 -0.5753 -0.6358
   89MOL0     H11979   2.411   8.773   3.522 -1.4116 -1.7171 -2.3009
   89MOL0     H11980   2.382   8.763   3.698  3.0010 -0.0137 -1.1361
   89MOL0     H11981   2.320   8.509   3.649 -0.6659  1.4641 -0.2531
   89MOL0     H11982   2.429   8.519   3.510 -0.6963 -0.0915 -0.0998
   89MOL0     H11983   2.596   8.612   3.631  0.1836  1.6443  0.9029
   89MOL0     H11984   2.508   8.609   3.785  2.1393 -1.6761  0.9981
   89MOL0     H11985   2.515   8.329   3.669  1.2784 -3.2380  1.9530
   89MOL0     H11986   2.570   8.389   3.817 -1.5939 -0.4710 -0.6820
   89MOL0     H11987   2.771   8.306   3.733  3.0976  0.8621 -0.5485
   89MOL0     H11988   2.781   8.488   3.744 -1.9992  0.3615 -0.4591
   89MOL0     H11989   2.745   8.354   3.474 -2.2845  0.3162  0.8893
   89MOL0     H11990   2.753   8.523   3.512 -4.0481 -0.8871  1.7702
   89MOL0     H11991   2.967   8.311   3.589  0.6664 -0.8617 -1.3761
   89MOL0     H11992   2.969   8.487   3.607 -1.6405 -0.5219 -0.4614
   89MOL0     H11993   2.969   8.344   3.337  2.3831 -0.0057 -2.0900
   89MOL0     H11994   2.964   8.516   3.354 -1.4918 -0.9388 -0.8071
   89MOL0     H11995   2.003   8.820   3.451 -0.6372  2.2497 -1.3222
   89MOL0     H11996   1.961   8.861   3.213 -0.2983 -0.9411 -0.7561
   89MOL0     H11997   2.002   9.164   2.882  0.9733  2.0831 -0.6040
   89MOL0     H11998   1.967   9.230   2.665 -2.5941 -0.7700 -0.9654
   89MOL0     H11999   2.301   8.062   1.280 -1.6147  1.7780  0.2232
   89MOL0     H12000   2.341   7.884   1.106 -1.4726  1.5304 -2.0434
   89MOL0     H12001   2.240   7.416   1.106 -0.7342  1.7857  0.1948
   89MOL0     H12002   2.361   7.205   1.086 -0.9637  0.3399 -0.1622
   89MOL0     H12003   2.628   6.978   0.844 -1.0772 -1.0796 -1.3880
   89MOL0     H12004   2.675   7.146   0.797  0.1381 -0.0409 -1.0459
   89MOL0     H12005   2.567   6.993   0.594 -0.4431  0.2628  1.1482
   89MOL0     H12006   2.472   7.135   0.623 -1.4474 -0.5521 -0.0610
   89MOL0     H12007   2.314   6.995   0.745  2.7226  1.8409  1.7667
   89MOL0     H12008   2.428   6.859   0.760 -1.5658  0.3076  2.0571
   89MOL0     H12009   2.436   6.852   0.488 -2.2646  0.7649 -3.0330
   89MOL0     H12010   2.285   6.808   0.567  1.9458 -0.9314 -0.4892
   89MOL0     H12011   2.171   7.176   0.403  0.4635  0.9192  1.4257
   89MOL0     H12012   2.578   7.346   0.759  1.8491  2.8879  0.8754
   89MOL0     H12013   2.516   7.701   0.822 -1.6869  0.3119 -2.5467
   89MOL0     H12014   2.614   7.583   0.749 -0.0997  0.5062  0.6536
   89MOL0     H12015   2.455   7.608   0.682  1.3300 -2.6402 -2.2308
   90MOL0     O12016   2.366  11.054   4.612 -0.1655  0.4412  0.4027
   90MOL0     C12017   2.336  11.054   4.491  0.6938 -0.0505  0.5188
   90MOL0     O12018   2.383  10.964   4.395 -0.1798 -0.8216  0.0332
   90MOL0     C12019   2.443  10.843   4.427 -0.2902 -1.3430 -0.8502
   90MOL0     C12020   2.458  10.782   4.557  0.6647  0.1660  1.0664
   90MOL0     C12021   2.530  10.666   4.572  1.0148 -0.1295 -0.1283
   90MOL0     C12022   2.579  10.597   4.460 -0.1118  0.4899  1.1036
   90MOL0     O12023   2.665  10.496   4.485  0.2700  1.1716  0.2518
   90MOL0     C12024   2.645  10.389   4.396 -0.7731 -0.3462 -0.0548
   90MOL0     C12025   2.735  10.264   4.434  0.1765 -0.6405  0.4124
   90MOL0     C12026   2.885  10.290   4.439  0.5262  0.1588 -0.5616
   90MOL0     C12027   2.968  10.161   4.425  0.3696  0.6756  0.1899
   90MOL0     C12028   3.109  10.189   4.442  0.3343  0.5161  0.0097
   90MOL0     C12029   3.206  10.077   4.439 -0.1917  0.0046  1.0650
   90MOL0     C12030   3.221  10.020   4.295 -0.3851  0.4942 -0.7606
   90MOL0     C12031   3.367   9.974   4.276  0.8488 -0.2219 -0.2972
   90MOL0     N12032   3.410   9.852   4.334  0.0462 -0.3289 -0.7798
   90MOL0     C12033   3.395   9.722   4.279 -0.6339 -0.8207  1.4490
   90MOL0     C12034   3.443   9.645   4.376 -0.5016  0.8897 -0.2484
   90MOL0     C12035   3.458   9.489   4.381 -0.3981 -0.4003  0.0276
   90MOL0     C12036   3.459   9.431   4.530  0.0423  0.1130  0.3151
   90MOL0     C12037   3.328   9.453   4.603  0.0338 -0.5889  0.3696
   90MOL0     C12038   3.346   9.449   4.757 -0.0624  0.0863 -0.0692
   90MOL0     O12039   3.395   9.328   4.821  0.4896 -0.5175 -0.5892
   90MOL0     C12040   3.344   9.276   4.933 -0.1987 -0.4673 -1.0952
   90MOL0     C12041   3.323   9.352   5.049  0.0725  0.6792  0.6745
   90MOL0     C12042   3.267   9.288   5.161  0.0463 -0.9038  0.0010
   90MOL0     C12043   3.233   9.149   5.159  0.5452  0.6060 -0.7369
   90MOL0     C12044   3.170   9.091   5.274 -0.0055 -0.1997 -0.3926
   90MOL0     O12045   3.116   8.960   5.267  0.1822 -0.3503  0.3463
   90MOL0     C12046   3.058   8.892   5.371  0.3079  0.0114  0.9591
   90MOL0     C12047   2.927   8.840   5.350  0.1530  0.0501 -0.8197
   90MOL0     C12048   2.873   8.757   5.441  0.0882 -0.0643 -0.6171
   90MOL0     C12049   2.943   8.716   5.560  0.1857  1.0914  0.3060
   90MOL0     O12050   2.865   8.641   5.644 -0.2782  0.0021  0.3236
   90MOL0     C12051   2.918   8.582   5.762 -0.8028  0.2693 -0.1380
   90MOL0     C12052   2.794   8.520   5.832  0.3500  0.0904  0.6516
   90MOL0     C12053   2.820   8.434   5.962  0.8156 -0.3197  0.0253
   90MOL0     C12054   2.825   8.521   6.087  0.5077 -0.3552 -0.0468
   90MOL0     C12055   2.835   8.443   6.223  0.4893  0.1176  0.1578
   90MOL0     C12056   2.977   8.399   6.258 -0.0877 -0.4846  0.4114
   90MOL0     C12057   2.999   8.336   6.395 -0.6086 -0.3935 -0.2290
   90MOL0     C12058   2.935   8.201   6.395  0.8350 -0.3395  0.4865
   90MOL0    Cl12059   2.960   8.122   6.557 -0.2929 -0.4560  0.1359
   90MOL0     C12060   3.078   8.765   5.586 -0.1335 -0.6087  0.1098
   90MOL0     C12061   3.137   8.847   5.483 -0.2365 -1.1196  0.1248
   90MOL0     O12062   3.174   9.153   5.380 -0.2292  0.4731  0.5065
   90MOL0     C12063   3.250   9.083   5.042  0.8401  0.1249 -0.1608
   90MOL0     C12064   3.317   9.142   4.938  0.0719  0.2582  0.2306
   90MOL0     N12065   3.504   9.718   4.478 -0.4442  0.1030  0.0028
   90MOL0     N12066   3.471   9.847   4.455 -0.5216 -0.6971 -0.6745
   90MOL0     C12067   2.580  10.660   4.335  0.8208  0.1799  0.1206
   90MOL0     C12068   2.505  10.776   4.319 -0.0570 -0.6520  0.1927
   90MOL0     C12069   2.228  11.147   4.447 -0.2473  0.9875 -0.3538
   90MOL0     C12070   2.196  11.265   4.523  0.1003  0.2306  0.0245
   90MOL0     C12071   2.085  11.343   4.498  0.3861 -0.1040  0.2572
   90MOL0     C12072   1.997  11.316   4.395  0.1159  0.0379 -0.3616
   90MOL0     O12073   1.883  11.384   4.367  0.3076  0.3396  0.9551
   90MOL0     C12074   1.824  11.473   4.454  0.5590 -0.9650 -0.6161
   90MOL0     C12075   1.701  11.537   4.388 -0.1112 -0.4027  0.4045
   90MOL0     C12076   1.572  11.451   4.414 -0.0229 -0.2062  0.3957
   90MOL0     C12077   1.564  11.309   4.354 -0.9918  0.7715  0.1164
   90MOL0     C12078   1.478  11.223   4.436 -0.0707 -0.3127  0.0823
   90MOL0     C12079   1.400  11.153   4.505  0.4899  0.1073  0.1605
   90MOL0     C12080   2.031  11.220   4.307 -0.9943  0.6001 -0.2173
   90MOL0     C12081   2.136  11.129   4.335  0.1363  0.6242  0.0192
   90MOL0     C12082   2.142  11.007   4.250 -0.7328  0.5614 -0.3701
   90MOL0     H12083   2.422  10.830   4.648 -2.8963  1.4952 -0.8073
   90MOL0     H12084   2.563  10.626   4.667 -0.7237  2.2129  1.5801
   90MOL0     H12085   2.544  10.352   4.377  0.2949 -2.8250 -1.3450
   90MOL0     H12086   2.682  10.431   4.302  2.9155  1.1870  1.8708
   90MOL0     H12087   2.712  10.194   4.353  1.1133  1.1159 -1.4725
   90MOL0     H12088   2.695  10.226   4.528 -2.8221  2.4107  0.5839
   90MOL0     H12089   2.906  10.342   4.533 -1.7695  4.6813 -2.2324
   90MOL0     H12090   2.910  10.352   4.352 -0.6884  1.4157 -0.0499
   90MOL0     H12091   2.931  10.097   4.506 -0.2058  3.8842  2.6532
   90MOL0     H12092   2.965  10.115   4.326  2.4989  0.7239  0.0413
   90MOL0     H12093   3.149  10.273   4.383 -0.5837  1.1908  0.3309
   90MOL0     H12094   3.121  10.220   4.546  0.6900 -1.6207  0.6471
   90MOL0     H12095   3.308  10.099   4.470  1.6253 -3.8174 -1.4546
   90MOL0     H12096   3.175  10.002   4.512  1.8902 -0.8047  1.1887
   90MOL0     H12097   3.191  10.093   4.219  1.9097  0.7181 -1.5296
   90MOL0     H12098   3.156   9.933   4.285 -2.1395  2.0100 -3.8826
   90MOL0     H12099   3.387   9.981   4.168  1.1111  1.9249 -0.1443
   90MOL0     H12100   3.427  10.056   4.316 -2.8254  0.3325  5.1837
   90MOL0     H12101   3.350   9.699   4.183  2.9762 -0.7733 -0.4063
   90MOL0     H12102   3.364   9.456   4.335 -0.9652  1.7542 -0.5209
   90MOL0     H12103   3.553   9.463   4.333 -0.6124  2.4350 -2.2246
   90MOL0     H12104   3.465   9.322   4.531 -1.3184 -0.1433  4.8753
   90MOL0     H12105   3.541   9.473   4.590  0.2932 -2.6389  2.0740
   90MOL0     H12106   3.259   9.373   4.575  2.7927 -3.0187  0.0645
   90MOL0     H12107   3.293   9.553   4.577  2.2179  0.4897  1.3430
   90MOL0     H12108   3.257   9.482   4.811 -0.0804 -2.0112  1.2652
   90MOL0     H12109   3.420   9.527   4.777 -1.5022  1.2167  1.0803
   90MOL0     H12110   3.339   9.459   5.044 -1.3186  0.8580 -0.9717
   90MOL0     H12111   3.268   9.343   5.255 -1.2752 -2.2192  0.8205
   90MOL0     H12112   2.887   8.881   5.258  0.6882  0.1656 -1.0040
   90MOL0     H12113   2.770   8.726   5.431 -0.3195  1.3969 -1.1878
   90MOL0     H12114   2.980   8.493   5.747  0.1544  1.4988 -6.1231
   90MOL0     H12115   2.967   8.652   5.831  0.8717  0.0030 -1.0076
   90MOL0     H12116   2.730   8.605   5.856  0.2012  1.5759 -3.9488
   90MOL0     H12117   2.739   8.466   5.754  2.6568  1.7385 -2.3808
   90MOL0     H12118   2.741   8.359   5.973 -0.3441  0.5017 -2.1740
   90MOL0     H12119   2.915   8.379   5.960 -0.9879 -3.7892  1.4187
   90MOL0     H12120   2.736   8.583   6.077  0.3635 -0.7543 -1.4590
   90MOL0     H12121   2.906   8.594   6.077 -0.0622  0.2064 -0.6453
   90MOL0     H12122   2.777   8.352   6.205 -1.9200  1.0796  2.4627
   90MOL0     H12123   2.797   8.496   6.311 -4.6155 -3.0248  0.2519
   90MOL0     H12124   3.021   8.340   6.177 -0.6093  2.2550 -2.0412
   90MOL0     H12125   3.017   8.498   6.280 -1.4407  0.7395 -2.2467
   90MOL0     H12126   2.952   8.405   6.465 -3.5461 -2.5661  0.0919
   90MOL0     H12127   3.104   8.323   6.422 -1.4742 -3.5047  2.1992
   90MOL0     H12128   2.830   8.208   6.369  1.4877  0.1996 -2.2971
   90MOL0     H12129   2.982   8.141   6.316 -0.9875 -1.9588  0.5619
   90MOL0     H12130   3.140   8.727   5.667  0.5855 -3.9932 -1.8346
   90MOL0     H12131   3.239   8.881   5.485  0.0755 -2.0546  1.9732
   90MOL0     H12132   3.220   8.979   5.040  0.2068  0.3013 -2.3196
   90MOL0     H12133   3.339   9.097   4.841 -3.2194 -1.0591 -0.0448
   90MOL0     H12134   2.640  10.626   4.252  0.2006 -1.8954  0.4616
   90MOL0     H12135   2.509  10.832   4.226  1.6617  1.6868  1.5605
   90MOL0     H12136   2.262  11.276   4.609 -1.3181 -4.5070  2.0824
   90MOL0     H12137   2.057  11.421   4.568 -2.1493 -0.0339 -0.7203
   90MOL0     H12138   1.894  11.552   4.480  2.5968 -2.8361 -0.1569
   90MOL0     H12139   1.788  11.436   4.550 -1.0965  2.3503  0.1771
   90MOL0     H12140   1.719  11.548   4.281  0.3343 -0.2445  0.4946
   90MOL0     H12141   1.694  11.636   4.433  2.4584 -1.1789  2.7686
   90MOL0     H12142   1.489  11.500   4.364  1.4416 -1.5629 -3.8287
   90MOL0     H12143   1.560  11.457   4.522  1.4993  0.5666  0.5550
   90MOL0     H12144   1.521  11.318   4.254  0.2250  0.2293 -0.4705
   90MOL0     H12145   1.663  11.266   4.338 -1.0929  0.4437  0.3638
   90MOL0     H12146   1.333  11.094   4.564 -0.8168  0.6494 -0.7319
   90MOL0     H12147   1.966  11.190   4.225  2.1008 -4.2042 -1.3447
   90MOL0     H12148   2.235  11.014   4.193  1.6120 -1.5176  2.9101
   90MOL0     H12149   2.148  10.916   4.310 -0.2942 -0.0027 -1.2472
   90MOL0     H12150   2.062  10.998   4.175 -1.6002  2.2072  0.3064
   91MOL0     O12151   0.184   1.250   1.401  0.2175 -0.6973 -0.3117
   91MOL0     C12152   0.165   1.129   1.376  0.8232 -0.0070 -0.4512
   91MOL0     O12153   0.115   1.043   1.470  0.4525  0.2507 -0.0266
   91MOL0     C12154   0.113   1.081   1.603 -0.4844 -0.6871 -0.0365
   91MOL0     C12155   0.030   1.193   1.648  0.0310  0.4585  0.0739
   91MOL0     C12156   0.038   1.225   1.780  0.1352  0.5214  0.1589
   91MOL0     C12157   0.126   1.166   1.866  0.0056  0.1667  0.5633
   91MOL0     O12158   0.122   1.192   2.001 -0.5303  0.2899 -0.1601
   91MOL0     C12159   0.077   1.086   2.083 -0.2251  0.8034  0.3932
   91MOL0     C12160   0.037   1.118   2.229 -0.4736  0.5371 -0.3943
   91MOL0     C12161   0.011   0.995   2.324 -0.1501  0.1184 -0.3618
   91MOL0     C12162   0.129   0.941   2.417  0.3920  0.5551 -0.0674
   91MOL0     C12163   0.122   0.797   2.477 -0.7609 -0.1180 -0.2044
   91MOL0     C12164  -0.010   0.795   2.553  0.1517 -0.7948  0.6812
   91MOL0     C12165  -0.007   0.885   2.683  0.4966 -0.6797  0.5154
   91MOL0     C12166  -0.150   0.897   2.741 -0.1012 -0.5589  0.5727
   91MOL0     N12167  -0.150   0.934   2.885 -0.6868  0.0754 -0.6220
   91MOL0     C12168  -0.147   1.065   2.945  0.4267 -0.1102  0.5257
   91MOL0     C12169  -0.186   1.063   3.076  0.4048  0.4544 -0.6754
   91MOL0     C12170  -0.185   1.173   3.162  0.0812  0.4357 -0.2400
   91MOL0     C12171  -0.079   1.157   3.268 -0.6162  0.2345 -0.2649
   91MOL0     C12172  -0.040   1.284   3.343 -0.0200  0.7549  0.4056
   91MOL0     C12173   0.046   1.383   3.262 -0.4269  0.6632  1.2279
   91MOL0     O12174   0.098   1.494   3.341 -0.3445  0.5335  0.6187
   91MOL0     C12175   0.171   1.584   3.266  0.0159 -0.1884 -0.0526
   91MOL0     C12176   0.240   1.679   3.334  0.1735 -0.7023 -0.3076
   91MOL0     C12177   0.320   1.779   3.273  0.5857  0.7972  0.6108
   91MOL0     C12178   0.347   1.772   3.139 -0.3735  0.1532  0.6167
   91MOL0     C12179   0.457   1.845   3.082 -0.8122  0.1101 -0.4735
   91MOL0     O12180   0.446   1.896   2.958  0.1259 -1.4621  0.1036
   91MOL0     C12181   0.546   1.982   2.914 -0.7224  0.4709 -0.2806
   91MOL0     C12182   0.659   1.931   2.848  0.4062 -1.0965 -1.1315
   91MOL0     C12183   0.767   2.024   2.816 -0.2486  0.4031  0.3375
   91MOL0     C12184   0.758   2.163   2.832  0.6242  0.0494  0.2680
   91MOL0     O12185   0.848   2.248   2.797  0.3761  0.1739 -0.3623
   91MOL0     C12186   0.945   2.296   2.897  0.1831 -1.4310  0.4696
   91MOL0     C12187   1.080   2.303   2.823 -0.4721  0.8701 -0.5007
   91MOL0     C12188   1.151   2.166   2.803 -0.6863 -0.3882  0.7556
   91MOL0     C12189   1.177   2.078   2.924 -0.5868 -0.1100 -0.0524
   91MOL0     C12190   1.314   2.016   2.923 -0.9180  0.1270 -0.1291
   91MOL0     C12191   1.329   1.901   3.026 -0.1144 -1.0128  0.1966
   91MOL0     C12192   1.377   1.961   3.157  0.0667  0.4995 -0.4254
   91MOL0     C12193   1.448   1.855   3.248 -0.1854 -0.0885 -0.1591
   91MOL0    Cl12194   1.618   1.841   3.222 -0.3128 -0.4599 -0.2315
   91MOL0     C12195   0.640   2.211   2.883  0.2750  0.8486 -0.3085
   91MOL0     C12196   0.532   2.119   2.915 -0.0971 -0.2405 -0.1030
   91MOL0     O12197   0.564   1.850   3.144  0.6155 -0.2122 -0.0083
   91MOL0     C12198   0.277   1.672   3.064 -0.5260  1.0049  0.3057
   91MOL0     C12199   0.191   1.581   3.122  0.3363  0.6419 -0.8046
   91MOL0     N12200  -0.226   0.930   3.095  0.6731 -0.3338 -0.1108
   91MOL0     N12201  -0.215   0.864   2.977  0.6429 -0.3267 -1.0065
   91MOL0     C12202   0.216   1.065   1.821  0.7867 -0.7883  0.8193
   91MOL0     C12203   0.200   1.015   1.691 -0.2175  0.7268 -0.5916
   91MOL0     C12204   0.207   1.065   1.245  0.7231 -0.4715 -0.2993
   91MOL0     C12205   0.209   0.925   1.233  0.3579  0.3860 -0.6005
   91MOL0     C12206   0.247   0.856   1.122 -0.1700 -0.1550 -0.1664
   91MOL0     C12207   0.291   0.929   1.006  0.3609  0.3898 -0.4526
   91MOL0     O12208   0.316   0.860   0.889 -0.7135  0.5534 -0.8457
   91MOL0     C12209   0.384   0.930   0.790  1.1353  0.5439  0.2063
   91MOL0     C12210   0.445   0.832   0.683 -0.1690  0.1904  0.4733
   91MOL0     C12211   0.527   0.912   0.583  0.4853 -0.5308 -0.1466
   91MOL0     C12212   0.636   0.825   0.497  0.1727  0.2542 -0.4635
   91MOL0     C12213   0.580   0.702   0.436 -0.5027  0.8976  0.6775
   91MOL0     C12214   0.531   0.605   0.393  0.9661 -0.4622 -0.3152
   91MOL0     C12215   0.296   1.075   1.022 -0.0836  0.1741  0.0600
   91MOL0     C12216   0.259   1.143   1.138  1.0215  0.1690 -0.3774
   91MOL0     C12217   0.245   1.289   1.128 -0.0226 -0.5337 -0.1449
   91MOL0     H12218  -0.044   1.241   1.585 -0.9369 -2.1699 -0.9253
   91MOL0     H12219  -0.013   1.311   1.822  0.9753 -0.0882  2.5503
   91MOL0     H12220  -0.003   1.026   2.039  0.9035  0.1496 -0.8516
   91MOL0     H12221   0.169   1.027   2.090  2.7976  4.7204 -2.1505
   91MOL0     H12222  -0.058   1.169   2.207 -1.9260 -1.0786  1.7696
   91MOL0     H12223   0.108   1.189   2.274 -0.6731  0.2135  0.4416
   91MOL0     H12224  -0.036   0.920   2.261 -0.8319  0.0654  0.2031
   91MOL0     H12225  -0.058   1.037   2.398 -2.0309  1.1395 -2.5624
   91MOL0     H12226   0.216   0.925   2.353  2.3306 -2.7478  3.0148
   91MOL0     H12227   0.172   1.011   2.489  1.5413 -1.9873  1.8952
   91MOL0     H12228   0.096   0.726   2.398 -1.2791  3.0656 -3.1323
   91MOL0     H12229   0.206   0.773   2.542  0.1854  3.4849  0.0701
   91MOL0     H12230  -0.092   0.820   2.486  0.2254  3.2948  1.8397
   91MOL0     H12231  -0.040   0.699   2.596 -2.0992 -0.9275 -1.0185
   91MOL0     H12232   0.033   0.986   2.671  1.2563 -0.4330  4.0863
   91MOL0     H12233   0.059   0.838   2.757  0.6504 -1.3487 -0.0440
   91MOL0     H12234  -0.199   0.979   2.688  0.3719 -2.7517 -3.6950
   91MOL0     H12235  -0.210   0.806   2.727  0.7059 -1.0678  0.3064
   91MOL0     H12236  -0.104   1.158   2.910 -2.2021  0.9389 -0.2006
   91MOL0     H12237  -0.169   1.266   3.107  1.6320  0.4931  0.2808
   91MOL0     H12238  -0.285   1.183   3.206 -0.4465  1.6875 -1.6598
   91MOL0     H12239  -0.112   1.089   3.347  4.6461 -0.3052  1.8860
   91MOL0     H12240   0.009   1.123   3.213 -3.1218 -0.8382 -4.0107
   91MOL0     H12241   0.015   1.234   3.423 -1.4545  1.2983  1.7771
   91MOL0     H12242  -0.126   1.330   3.391 -0.2908 -0.3548  1.0236
   91MOL0     H12243  -0.012   1.413   3.174 -1.7732 -2.0557  1.0774
   91MOL0     H12244   0.136   1.334   3.225 -0.7867  2.2449 -2.1692
   91MOL0     H12245   0.231   1.662   3.441  0.4929 -1.9880 -0.4566
   91MOL0     H12246   0.386   1.841   3.332  0.3807  1.9018 -0.2978
   91MOL0     H12247   0.671   1.824   2.839  0.0141 -1.2107 -0.3685
   91MOL0     H12248   0.853   1.971   2.776  0.6532  2.1657 -0.1683
   91MOL0     H12249   0.917   2.396   2.930 -0.6173 -0.1850 -3.4042
   91MOL0     H12250   0.952   2.233   2.986  0.5307 -0.9451  0.7906
   91MOL0     H12251   1.065   2.365   2.734  1.1834 -1.9106 -2.8934
   91MOL0     H12252   1.147   2.360   2.888  0.7105  2.0553 -2.6411
   91MOL0     H12253   1.096   2.103   2.733  1.0073  0.0212 -1.0443
   91MOL0     H12254   1.249   2.185   2.758 -1.0027  1.1223  0.6707
   91MOL0     H12255   1.103   1.997   2.919 -0.7908  0.1248 -1.0648
   91MOL0     H12256   1.166   2.145   3.010  0.5606 -2.2139  1.8403
   91MOL0     H12257   1.388   2.092   2.950 -2.1829  0.3635  3.0092
   91MOL0     H12258   1.328   1.983   2.819 -4.1390 -0.9755 -0.3208
   91MOL0     H12259   1.257   1.819   3.036  0.3584 -1.2986  1.5812
   91MOL0     H12260   1.418   1.853   2.986 -1.2178 -0.8790 -2.6314
   91MOL0     H12261   1.281   1.977   3.208 -1.8277  0.1639 -3.6223
   91MOL0     H12262   1.439   2.050   3.147  1.0955  0.2699  2.7569
   91MOL0     H12263   1.424   1.877   3.352  0.6108  0.0597 -0.0037
   91MOL0     H12264   1.409   1.755   3.227  1.4768 -1.4403  2.6539
   91MOL0     H12265   0.630   2.317   2.902  0.3239  0.6514  0.9650
   91MOL0     H12266   0.442   2.166   2.954  1.0516  1.9660  0.0757
   91MOL0     H12267   0.314   1.669   2.962  3.4554  0.2900  1.6164
   91MOL0     H12268   0.137   1.512   3.058 -0.0650  0.2487 -0.0683
   91MOL0     H12269   0.271   1.014   1.899 -0.5487  1.4317  3.3620
   91MOL0     H12270   0.276   0.944   1.661  0.7015  2.2530 -2.0993
   91MOL0     H12271   0.169   0.867   1.315 -1.0566  0.5411 -1.1400
   91MOL0     H12272   0.246   0.748   1.122  1.5318 -0.2137  0.9810
   91MOL0     H12273   0.465   0.997   0.820 -0.0065  2.5024 -0.9060
   91MOL0     H12274   0.307   0.990   0.742 -0.3383 -0.1873  1.5624
   91MOL0     H12275   0.378   0.774   0.620  0.9028 -0.9978  0.3793
   91MOL0     H12276   0.506   0.751   0.725  3.6318  1.7854 -1.4767
   91MOL0     H12277   0.592   0.983   0.635  0.0232  0.6391 -1.1025
   91MOL0     H12278   0.456   0.971   0.523 -2.1434  1.0944  4.1080
   91MOL0     H12279   0.660   0.887   0.411 -3.7164  0.8722 -1.3007
   91MOL0     H12280   0.724   0.798   0.556 -1.6757 -2.7106  1.2444
   91MOL0     H12281   0.480   0.518   0.356  0.0221 -1.0775  2.1594
   91MOL0     H12282   0.332   1.142   0.945  0.0446  1.3602  1.1183
   91MOL0     H12283   0.306   1.342   1.202 -2.7167  0.2404  1.6807
   91MOL0     H12284   0.279   1.323   1.030 -0.6096  0.9977  0.1548
   91MOL0     H12285   0.139   1.315   1.135 -0.7139 -2.6438 -1.8683
   92MOL0     O12286   7.748  11.004   8.636 -0.1454  0.2606 -0.4428
   92MOL0     C12287   7.697  10.950   8.534 -0.1366 -0.3467 -0.5607
   92MOL0     O12288   7.700  10.994   8.409 -0.0924 -0.0831  0.2183
   92MOL0     C12289   7.746  11.120   8.386 -0.6619 -0.1730 -1.0447
   92MOL0     C12290   7.881  11.156   8.410 -0.8601 -1.2494 -0.2657
   92MOL0     C12291   7.931  11.277   8.358  0.1222  0.1805 -0.4045
   92MOL0     C12292   7.845  11.363   8.291  0.0137 -0.1786  0.4531
   92MOL0     O12293   7.879  11.487   8.238 -0.1345 -0.5595  1.2313
   92MOL0     C12294   8.016  11.530   8.256  0.4271 -0.9453  1.0451
   92MOL0     C12295   8.025  11.654   8.169  0.2002  0.5999 -0.6613
   92MOL0     C12296   7.931  11.765   8.241  0.2525  0.3835 -0.3924
   92MOL0     C12297   7.998  11.902   8.211 -0.4929  0.9941 -0.4027
   92MOL0     C12298   7.928  12.012   8.295  0.4955  0.8587 -0.4796
   92MOL0     C12299   8.020  12.122   8.327  0.3429 -0.5114  0.3533
   92MOL0     C12300   7.932  12.234   8.411  0.3899  0.4230 -0.5345
   92MOL0     C12301   7.984  12.382   8.411 -0.3925 -0.4859 -0.4282
   92MOL0     N12302   7.874  12.471   8.461 -0.1512  0.5207 -0.4367
   92MOL0     C12303   7.853  12.591   8.402 -0.0446  0.3737 -0.1946
   92MOL0     C12304   7.799  12.666   8.496 -0.7150 -0.6172 -0.7686
   92MOL0     C12305   7.802  12.816   8.491 -0.3210  0.1048 -0.0726
   92MOL0     C12306   7.939  12.863   8.532  0.1356  0.6992 -0.8065
   92MOL0     C12307   7.970  12.991   8.468 -1.1524  0.5938  0.6020
   92MOL0     C12308   7.985  12.986   8.307  0.5961  0.0626 -0.3362
   92MOL0     O12309   8.042  12.863   8.265 -0.1075 -0.3451  0.2838
   92MOL0     C12310   8.176  12.864   8.224  0.4156  0.3357 -0.1734
   92MOL0     C12311   8.269  12.974   8.227  0.0361 -0.3110 -0.4051
   92MOL0     C12312   8.404  12.951   8.188  0.7079  0.3384 -0.6850
   92MOL0     C12313   8.454  12.827   8.174 -0.1469 -0.0234 -0.0214
   92MOL0     C12314   8.605  12.794   8.150  0.1803  0.1977 -0.1613
   92MOL0     O12315   8.635  12.675   8.087  0.2299 -0.9173 -0.8073
   92MOL0     C12316   8.780  12.651   8.075 -0.6674  0.4469  0.5443
   92MOL0     C12317   8.845  12.561   8.158 -0.5292  0.0372 -0.2145
   92MOL0     C12318   8.978  12.528   8.134  0.2698 -0.5557 -0.5510
   92MOL0     C12319   9.052  12.595   8.039 -0.6437 -0.1690  0.9009
   92MOL0     O12320   9.184  12.541   8.034  1.3544 -0.0770 -0.1123
   92MOL0     C12321   9.284  12.590   7.944 -0.4101 -0.4188  0.4327
   92MOL0     C12322   9.361  12.706   8.017  0.1217 -0.2762 -0.0578
   92MOL0     C12323   9.448  12.639   8.118 -0.0463  0.1407  1.0210
   92MOL0     C12324   9.383  12.636   8.260 -0.2281 -0.4892  0.8587
   92MOL0     C12325   9.488  12.568   8.356 -0.1485 -0.0555  0.2886
   92MOL0     C12326   9.426  12.556   8.499 -0.6703 -0.3406  0.9882
   92MOL0     C12327   9.532  12.515   8.604 -1.5559  0.2892  0.0641
   92MOL0     C12328   9.484  12.509   8.748  0.4066 -0.7762 -0.3324
   92MOL0    Cl12329   9.627  12.534   8.854 -0.1389  0.4797  0.2411
   92MOL0     C12330   8.992  12.680   7.955 -0.2822  0.9701  0.1087
   92MOL0     C12331   8.861  12.715   7.974  0.9591  0.2885  0.4803
   92MOL0     O12332   8.685  12.875   8.205  0.0630  0.8704  0.0303
   92MOL0     C12333   8.365  12.716   8.168 -0.7009 -0.1197  0.1353
   92MOL0     C12334   8.230  12.733   8.194 -0.3222  0.0703 -0.8672
   92MOL0     N12335   7.775  12.592   8.610  0.5340  0.0592 -0.1961
   92MOL0     N12336   7.827  12.474   8.587  0.1458 -0.7163 -0.1860
   92MOL0     C12337   7.713  11.331   8.271 -0.2292  0.7452 -0.4892
   92MOL0     C12338   7.662  11.210   8.326 -0.4150 -0.6660 -0.3620
   92MOL0     C12339   7.612  10.827   8.560  0.4365  0.1923 -0.0590
   92MOL0     C12340   7.492  10.821   8.491  0.6421  0.4146  0.1204
   92MOL0     C12341   7.403  10.718   8.518 -0.0534  0.0264 -0.3937
   92MOL0     C12342   7.435  10.622   8.610 -1.3238  0.2701 -0.3064
   92MOL0     O12343   7.336  10.542   8.657  0.1891 -0.4240 -0.1638
   92MOL0     C12344   7.353  10.437   8.752  0.1723 -0.5861  0.8247
   92MOL0     C12345   7.234  10.341   8.730 -0.7548 -1.0198 -0.3728
   92MOL0     C12346   7.090  10.401   8.712 -0.3714 -0.2490  0.1938
   92MOL0     C12347   7.021  10.411   8.850 -0.2256 -0.6564  0.2601
   92MOL0     C12348   7.093  10.516   8.922 -0.1114 -0.6695 -0.9784
   92MOL0     C12349   7.144  10.601   8.990  0.5694 -0.0519  0.4250
   92MOL0     C12350   7.560  10.619   8.668 -0.7106 -0.8280  0.2909
   92MOL0     C12351   7.651  10.725   8.647 -0.5425  0.0775  0.0109
   92MOL0     C12352   7.797  10.731   8.717  0.7215  0.0375 -0.1044
   92MOL0     H12353   7.932  11.103   8.489  2.0964  2.2169  0.3718
   92MOL0     H12354   8.036  11.302   8.369  0.4518 -0.9206 -0.9316
   92MOL0     H12355   8.041  11.546   8.361 -3.1089  1.7334  1.6869
   92MOL0     H12356   8.078  11.453   8.209 -0.4828 -0.7604 -0.5576
   92MOL0     H12357   7.990  11.637   8.067 -0.9077  0.4759 -0.2766
   92MOL0     H12358   8.131  11.682   8.165  0.1613  1.1021  1.0909
   92MOL0     H12359   7.923  11.742   8.347 -3.4636 -0.3091 -0.6845
   92MOL0     H12360   7.829  11.761   8.203 -0.5968  3.5879  1.2729
   92MOL0     H12361   8.106  11.894   8.230 -0.0693 -1.7018 -3.1631
   92MOL0     H12362   7.989  11.932   8.106  0.9301  0.3226 -0.7383
   92MOL0     H12363   7.839  12.042   8.240 -2.1541 -1.1313  2.3837
   92MOL0     H12364   7.891  11.979   8.392  2.4057  1.9927  0.7100
   92MOL0     H12365   8.107  12.094   8.387  0.5435 -0.6481  0.0061
   92MOL0     H12366   8.049  12.178   8.237 -1.5377  1.5785  0.9477
   92MOL0     H12367   7.914  12.209   8.516 -1.1773 -0.5195 -0.9978
   92MOL0     H12368   7.843  12.251   8.350  0.0840 -2.3193 -0.9759
   92MOL0     H12369   8.061  12.391   8.489  1.7491 -2.4270 -2.1757
   92MOL0     H12370   8.013  12.405   8.308 -1.4816 -1.3737 -0.9581
   92MOL0     H12371   7.898  12.622   8.308  0.5625  2.0106  0.5867
   92MOL0     H12372   7.760  12.841   8.393 -0.3924  1.8544  0.3683
   92MOL0     H12373   7.731  12.850   8.567 -1.3522 -1.2366 -0.4065
   92MOL0     H12374   7.961  12.882   8.637  0.6551  3.5870 -1.3306
   92MOL0     H12375   8.018  12.795   8.497  0.2301  0.3305  0.1036
   92MOL0     H12376   8.066  13.031   8.502 -1.0342  0.1118  0.8334
   92MOL0     H12377   7.894  13.067   8.489 -2.1789  0.5710 -2.5319
   92MOL0     H12378   8.026  13.075   8.258  1.7896 -0.2619  0.0325
   92MOL0     H12379   7.884  12.989   8.264 -0.9568  2.0573  3.0276
   92MOL0     H12380   8.231  13.073   8.252  1.2725  0.8993 -2.9415
   92MOL0     H12381   8.482  13.026   8.175  1.3154  0.1030  1.2439
   92MOL0     H12382   8.791  12.520   8.243 -2.5297 -0.8458 -1.8261
   92MOL0     H12383   9.025  12.448   8.191  1.4751 -0.5117 -1.4422
   92MOL0     H12384   9.349  12.507   7.917  0.3897  0.9082 -2.0050
   92MOL0     H12385   9.238  12.627   7.852 -3.4933 -0.7440  1.6938
   92MOL0     H12386   9.424  12.759   7.945 -1.9453  0.2949 -1.5249
   92MOL0     H12387   9.307  12.784   8.071  1.9680  0.4819  0.7511
   92MOL0     H12388   9.473  12.533   8.102 -1.9532 -0.4823  1.9150
   92MOL0     H12389   9.543  12.692   8.130  1.1847 -2.0424  1.5227
   92MOL0     H12390   9.292  12.577   8.244 -1.0957  0.5087  1.9504
   92MOL0     H12391   9.363  12.740   8.284  1.4384  0.4841 -1.5997
   92MOL0     H12392   9.577  12.631   8.351  1.4047 -2.2174 -1.5438
   92MOL0     H12393   9.538  12.475   8.327  1.2191  0.9063 -0.5684
   92MOL0     H12394   9.386  12.654   8.526 -0.7449 -0.1921  0.3556
   92MOL0     H12395   9.351  12.477   8.490 -0.6467 -0.4417  1.6992
   92MOL0     H12396   9.616  12.585   8.604 -0.2825 -1.1726  1.1922
   92MOL0     H12397   9.571  12.416   8.580 -1.2097 -0.2684  2.6880
   92MOL0     H12398   9.426  12.600   8.765  1.6340 -0.3427  1.8141
   92MOL0     H12399   9.422  12.419   8.755  0.1131 -0.5929 -0.5728
   92MOL0     H12400   9.065  12.734   7.895  0.7028  1.4884  1.7120
   92MOL0     H12401   8.810  12.786   7.909 -0.3680 -1.5511 -0.5944
   92MOL0     H12402   8.415  12.627   8.131  1.5499  1.5890 -1.1844
   92MOL0     H12403   8.164  12.648   8.211 -2.8230  1.5650 -2.3854
   92MOL0     H12404   7.640  11.401   8.234 -1.4550  0.4361  1.2397
   92MOL0     H12405   7.558  11.182   8.316 -0.5794 -0.0447 -0.3917
   92MOL0     H12406   7.469  10.894   8.413 -3.7028  1.5062  2.1514
   92MOL0     H12407   7.303  10.714   8.475 -0.4060 -1.3582  0.4967
   92MOL0     H12408   7.338  10.487   8.848 -0.7767  1.8812 -0.5305
   92MOL0     H12409   7.447  10.381   8.748 -0.3927 -1.6049 -3.5903
   92MOL0     H12410   7.233  10.277   8.819 -0.3780  0.5744  0.8083
   92MOL0     H12411   7.256  10.283   8.640 -1.1600  1.3928 -2.1092
   92MOL0     H12412   7.030  10.333   8.651  1.6581 -1.0686 -0.9899
   92MOL0     H12413   7.080  10.501   8.668 -2.2131 -0.5773 -0.2232
   92MOL0     H12414   6.916  10.439   8.840  0.3801  2.3216  1.0824
   92MOL0     H12415   7.019  10.317   8.906 -0.3250 -1.8695 -1.7144
   92MOL0     H12416   7.182  10.674   9.059 -1.1970 -0.7830  2.2651
   92MOL0     H12417   7.596  10.539   8.732 -2.3363 -2.8594 -1.1667
   92MOL0     H12418   7.829  10.626   8.728 -1.6976 -0.5691  2.5809
   92MOL0     H12419   7.875  10.781   8.660  1.4729 -0.0546  0.8040
   92MOL0     H12420   7.786  10.775   8.817 -2.0258 -0.9654  0.1352
   93MOL0     O12421   1.415  11.227   5.175 -0.6510  0.1717  0.4934
   93MOL0     C12422   1.298  11.220   5.185 -0.4336  0.7632 -0.0102
   93MOL0     O12423   1.205  11.304   5.126  0.2694  0.7954 -0.0400
   93MOL0     C12424   1.243  11.368   5.014  0.5133 -0.1993 -0.4082
   93MOL0     C12425   1.305  11.319   4.896 -0.3480  0.0157 -0.4905
   93MOL0     C12426   1.328  11.393   4.777 -0.5657 -0.7677 -0.3227
   93MOL0     C12427   1.303  11.529   4.780  0.8458  0.2603 -0.4242
   93MOL0     O12428   1.354  11.609   4.672  0.2400  0.0030  0.4462
   93MOL0     C12429   1.341  11.759   4.682 -0.6715 -0.9690  0.3893
   93MOL0     C12430   1.431  11.840   4.588 -0.3216  0.2139  0.9619
   93MOL0     C12431   1.378  11.859   4.451  0.3813  0.2949  0.0290
   93MOL0     C12432   1.486  11.904   4.357 -0.2763  0.2969  0.1786
   93MOL0     C12433   1.444  11.912   4.205 -0.6189 -0.4528  0.3362
   93MOL0     C12434   1.488  11.784   4.135 -0.7589  0.5815 -0.2773
   93MOL0     C12435   1.400  11.753   4.003  0.6252  1.1361 -0.0202
   93MOL0     C12436   1.422  11.861   3.904 -0.3212 -0.3772  1.1434
   93MOL0     N12437   1.384  11.843   3.766 -0.3813 -0.2653  1.1594
   93MOL0     C12438   1.256  11.851   3.724 -0.2013 -0.2015 -0.0875
   93MOL0     C12439   1.263  11.841   3.585  0.6048  0.0909  0.3080
   93MOL0     C12440   1.147  11.865   3.490 -0.3617  1.6596 -0.3444
   93MOL0     C12441   1.128  11.745   3.389 -0.3906  0.3359 -0.4054
   93MOL0     C12442   1.123  11.605   3.460 -0.1894 -0.2331 -0.1055
   93MOL0     C12443   1.019  11.577   3.569 -0.5633 -0.2944 -0.3626
   93MOL0     O12444   0.886  11.561   3.509  0.0563 -0.3361  0.4662
   93MOL0     C12445   0.774  11.608   3.563 -0.0671  0.6286  0.7042
   93MOL0     C12446   0.769  11.710   3.661  0.3605  0.3233 -0.1026
   93MOL0     C12447   0.647  11.735   3.728 -0.4128  1.2486  0.8798
   93MOL0     C12448   0.527  11.672   3.676  0.1406  0.2355  0.5505
   93MOL0     C12449   0.397  11.694   3.730 -0.3772  0.7225  0.3045
   93MOL0     O12450   0.394  11.756   3.853  0.5294  0.3778  0.0510
   93MOL0     C12451   0.280  11.775   3.933 -0.5685 -0.1870  0.0370
   93MOL0     C12452   0.158  11.722   3.907  1.1120  0.1323 -0.1879
   93MOL0     C12453   0.046  11.757   3.991 -0.6310  0.3737 -0.1608
   93MOL0     C12454   0.062  11.844   4.103 -0.3506 -0.2715  0.7567
   93MOL0     O12455  -0.051  11.874   4.168 -0.4084 -0.0806 -0.3140
   93MOL0     C12456  -0.075  12.016   4.196 -0.2818  0.1118  1.3124
   93MOL0     C12457  -0.178  12.024   4.309 -0.0353 -0.5998 -0.2397
   93MOL0     C12458  -0.215  12.177   4.331 -0.6770 -0.7327 -1.1973
   93MOL0     C12459  -0.329  12.186   4.438 -0.9990  1.3335 -0.5748
   93MOL0     C12460  -0.319  12.328   4.492  0.2717  0.4080  1.1068
   93MOL0     C12461  -0.395  12.362   4.613 -0.7999 -0.6183 -0.7975
   93MOL0     C12462  -0.391  12.254   4.722 -1.5147 -0.5177 -0.4425
   93MOL0     C12463  -0.420  12.309   4.865  0.8165 -0.9399 -0.4120
   93MOL0    Cl12464  -0.291  12.419   4.929  0.3279 -0.0286  0.1682
   93MOL0     C12465   0.191  11.888   4.133 -0.7732 -0.6274 -0.4194
   93MOL0     C12466   0.298  11.851   4.052  0.4327 -0.3227  0.9538
   93MOL0     O12467   0.303  11.650   3.670 -0.1736  0.2780  0.5813
   93MOL0     C12468   0.540  11.579   3.568 -0.1389 -0.1390  0.1812
   93MOL0     C12469   0.662  11.549   3.504  0.3710 -0.3555  0.1839
   93MOL0     N12470   1.396  11.838   3.547  0.7522 -0.1199  0.4098
   93MOL0     N12471   1.466  11.836   3.657  0.3138  0.1665 -0.5131
   93MOL0     C12472   1.236  11.589   4.888 -0.6309  0.2208  0.1504
   93MOL0     C12473   1.210  11.501   5.002  0.8111  0.2403  1.0958
   93MOL0     C12474   1.233  11.121   5.270  0.7418  0.4415  0.7414
   93MOL0     C12475   1.100  11.078   5.244  0.1940 -0.0285  0.5069
   93MOL0     C12476   1.031  10.995   5.334 -0.5854  0.5350 -0.1020
   93MOL0     C12477   1.089  10.944   5.445 -0.2231  1.3927 -0.0174
   93MOL0     O12478   1.021  10.859   5.527 -0.9035  0.7642 -0.2322
   93MOL0     C12479   0.891  10.908   5.569  0.7566 -0.7411 -0.0235
   93MOL0     C12480   0.870  10.869   5.718  0.8825 -0.7537 -0.0567
   93MOL0     C12481   0.741  10.923   5.773 -0.1833  0.1177 -0.4150
   93MOL0     C12482   0.615  10.891   5.689  0.2617 -0.3047 -0.0276
   93MOL0     C12483   0.501  10.924   5.772 -0.9334 -0.1717 -1.0123
   93MOL0     C12484   0.395  10.938   5.826  0.3190  1.4348  0.5416
   93MOL0     C12485   1.220  10.977   5.475  0.2800 -0.0656  0.2807
   93MOL0     C12486   1.293  11.067   5.390  0.0217 -0.2158  0.0612
   93MOL0     C12487   1.424  11.100   5.437 -0.0004 -0.3582 -0.0242
   93MOL0     H12488   1.333  11.215   4.906  2.0844  0.6210 -0.3360
   93MOL0     H12489   1.387  11.359   4.692  3.9185  1.7318  1.4261
   93MOL0     H12490   1.237  11.784   4.663  0.7915  2.8442 -4.6086
   93MOL0     H12491   1.381  11.791   4.779 -2.1149  1.8770  0.1163
   93MOL0     H12492   1.520  11.777   4.584  0.6171  1.5191 -3.3623
   93MOL0     H12493   1.459  11.935   4.635  0.3094 -0.7364  2.5807
   93MOL0     H12494   1.300  11.934   4.466  2.0190  2.0677  0.0764
   93MOL0     H12495   1.338  11.766   4.409  1.9875  0.8162 -2.8604
   93MOL0     H12496   1.524  12.000   4.392 -0.3601  1.0457 -1.6863
   93MOL0     H12497   1.563  11.826   4.360  0.4688  1.0341  1.4061
   93MOL0     H12498   1.335  11.920   4.196 -0.9744 -2.8523  1.6075
   93MOL0     H12499   1.494  11.996   4.158  1.1325 -0.3695  2.2091
   93MOL0     H12500   1.595  11.774   4.113 -0.6429 -3.1462  1.1379
   93MOL0     H12501   1.477  11.699   4.203  2.2749 -0.4392 -0.9028
   93MOL0     H12502   1.293  11.743   4.019  0.8333 -1.1452  0.3375
   93MOL0     H12503   1.427  11.656   3.960 -3.5536 -2.1915  3.8337
   93MOL0     H12504   1.379  11.957   3.935  1.0865 -0.1843  2.6822
   93MOL0     H12505   1.529  11.882   3.903 -0.7403  2.2426 -1.4863
   93MOL0     H12506   1.169  11.866   3.787 -0.6351  2.1489 -1.1409
   93MOL0     H12507   1.053  11.892   3.537 -0.7429 -0.9482  0.5445
   93MOL0     H12508   1.177  11.944   3.420  1.7770 -2.2078 -4.3288
   93MOL0     H12509   1.040  11.759   3.327  0.2551 -1.5639 -1.8612
   93MOL0     H12510   1.219  11.748   3.327  0.0358 -1.8432  0.0202
   93MOL0     H12511   1.224  11.572   3.487 -0.2119 -0.0298  0.2358
   93MOL0     H12512   1.095  11.537   3.379 -0.4430 -0.4336  0.1495
   93MOL0     H12513   1.025  11.650   3.650 -0.5224 -4.8188  4.1729
   93MOL0     H12514   1.057  11.486   3.616  3.9302  0.2845 -2.4028
   93MOL0     H12515   0.859  11.763   3.691 -0.9882  1.6743  1.7013
   93MOL0     H12516   0.635  11.807   3.809 -1.1879  0.1487  1.7616
   93MOL0     H12517   0.133  11.676   3.812 -1.0810  1.0700 -0.1249
   93MOL0     H12518  -0.041  11.700   3.959  0.4392 -0.4708 -1.7256
   93MOL0     H12519   0.015  12.069   4.230 -0.2453 -0.6876  2.5355
   93MOL0     H12520  -0.112  12.065   4.106 -0.3755  2.4321  2.5515
   93MOL0     H12521  -0.257  11.953   4.284 -1.0200  0.6136 -0.6401
   93MOL0     H12522  -0.132  11.985   4.400  1.1985  3.0011  0.8187
   93MOL0     H12523  -0.121  12.223   4.365 -0.9213 -1.9210  1.3057
   93MOL0     H12524  -0.233  12.229   4.237  1.4862  1.2151 -0.6321
   93MOL0     H12525  -0.323  12.109   4.515 -1.9854  2.3068  0.5213
   93MOL0     H12526  -0.419  12.165   4.380 -0.5231  1.3474 -1.3343
   93MOL0     H12527  -0.357  12.394   4.413  1.5018 -0.2650 -0.0835
   93MOL0     H12528  -0.214  12.349   4.514  0.4031  0.1159  0.7760
   93MOL0     H12529  -0.368  12.457   4.660  1.3380 -2.4190  1.9073
   93MOL0     H12530  -0.501  12.373   4.587 -0.7054 -1.6151 -1.6401
   93MOL0     H12531  -0.289  12.216   4.712 -0.9011  1.1332 -0.9748
   93MOL0     H12532  -0.467  12.181   4.694 -0.8785 -0.8720 -1.2757
   93MOL0     H12533  -0.518  12.359   4.866 -1.1676 -4.2088  4.4848
   93MOL0     H12534  -0.442  12.227   4.933 -0.7512  0.6297  1.0622
   93MOL0     H12535   0.210  11.946   4.223  1.1607 -1.6789 -0.0955
   93MOL0     H12536   0.395  11.885   4.087 -0.0302  2.1614  0.0498
   93MOL0     H12537   0.449  11.528   3.538 -0.6302  1.2147 -0.7496
   93MOL0     H12538   0.668  11.467   3.434  0.8659 -1.2680  1.2641
   93MOL0     H12539   1.211  11.695   4.893  0.6240  0.5161  0.6012
   93MOL0     H12540   1.173  11.564   5.082 -2.5882  4.2973 -3.1164
   93MOL0     H12541   1.056  11.106   5.148  2.2856 -0.2902 -0.5945
   93MOL0     H12542   0.926  10.981   5.311 -0.5774  2.0462 -1.1928
   93MOL0     H12543   0.814  10.860   5.508  2.1920 -2.6667 -0.4073
   93MOL0     H12544   0.880  11.017   5.562  2.1221 -0.3179  2.8712
   93MOL0     H12545   0.952  10.911   5.777 -2.4545  2.3168  2.8494
   93MOL0     H12546   0.868  10.759   5.718 -3.5763 -0.8691 -0.1026
   93MOL0     H12547   0.749  11.032   5.776  1.4001  0.1007 -1.9167
   93MOL0     H12548   0.730  10.871   5.868  1.1364 -1.5599 -1.1205
   93MOL0     H12549   0.605  10.952   5.598  0.7859 -0.3099 -0.0934
   93MOL0     H12550   0.624  10.783   5.673  2.5794 -0.0270 -1.0555
   93MOL0     H12551   0.298  10.945   5.869 -0.4716  2.2085 -1.2398
   93MOL0     H12552   1.259  10.935   5.567 -1.5816  2.7809  2.5536
   93MOL0     H12553   1.435  11.070   5.541 -1.2365 -0.0937  0.2020
   93MOL0     H12554   1.505  11.049   5.384  0.9661  0.0739  1.0051
   93MOL0     H12555   1.434  11.209   5.425 -1.8843 -0.0547  0.7820
   94MOL0     O12556   2.878   3.369   4.164 -0.4653  0.3162 -0.2179
   94MOL0     C12557   2.758   3.387   4.157  0.1601 -0.0753 -0.5436
   94MOL0     O12558   2.656   3.356   4.248 -0.2747  0.2225  0.7409
   94MOL0     C12559   2.684   3.297   4.367 -0.5569  0.1113  0.3740
   94MOL0     C12560   2.606   3.344   4.470 -0.2531 -0.2739 -0.3041
   94MOL0     C12561   2.626   3.296   4.598 -0.0071  0.3454  0.1190
   94MOL0     C12562   2.700   3.181   4.620 -0.3535 -0.4063 -1.0317
   94MOL0     O12563   2.723   3.138   4.741  0.1059  0.4653 -0.7025
   94MOL0     C12564   2.595   3.067   4.784 -1.1476 -0.1548 -0.9646
   94MOL0     C12565   2.468   3.147   4.823 -0.3738 -0.0827  0.8071
   94MOL0     C12566   2.383   3.085   4.936  0.2825  0.2712 -0.1442
   94MOL0     C12567   2.238   3.130   4.915 -0.4379 -0.3030 -0.5342
   94MOL0     C12568   2.220   3.279   4.917 -0.3429  0.3950  0.0610
   94MOL0     C12569   2.071   3.295   4.900 -0.2586  1.2528  0.3277
   94MOL0     C12570   1.992   3.301   5.029 -0.8144 -0.1351 -0.2636
   94MOL0     C12571   1.848   3.338   5.009  0.0316  0.0382 -0.3948
   94MOL0     N12572   1.781   3.213   4.961  0.1920 -0.5699  0.6532
   94MOL0     C12573   1.678   3.208   4.870  1.6917 -0.1537  0.8140
   94MOL0     C12574   1.624   3.084   4.888  1.1383 -0.9640  0.0568
   94MOL0     C12575   1.522   3.030   4.792 -0.2274  0.0027  0.1049
   94MOL0     C12576   1.402   2.992   4.876  0.4639 -0.3753 -1.0796
   94MOL0     C12577   1.325   3.114   4.926  0.1354  0.9375  0.7335
   94MOL0     C12578   1.194   3.074   4.980  1.0777  0.0607 -0.2039
   94MOL0     O12579   1.221   2.981   5.081 -0.0290  0.8026 -0.2804
   94MOL0     C12580   1.151   2.979   5.201 -0.2835 -0.5199  0.1476
   94MOL0     C12581   1.030   3.037   5.216 -0.0770 -0.0681 -0.8903
   94MOL0     C12582   0.975   3.049   5.353  0.4527 -0.0170  0.6219
   94MOL0     C12583   1.041   3.002   5.468  0.2876 -0.2290  0.0669
   94MOL0     C12584   0.990   3.022   5.605 -0.9357 -0.3142  0.9426
   94MOL0     O12585   0.850   3.047   5.606  1.2323 -0.8216 -0.1590
   94MOL0     C12586   0.785   3.072   5.728  0.8266  0.3193 -0.0921
   94MOL0     C12587   0.785   2.972   5.825  0.1177 -0.8085 -0.1783
   94MOL0     C12588   0.721   2.980   5.941 -0.3460 -0.4148 -0.0176
   94MOL0     C12589   0.644   3.100   5.961  0.3931 -0.7152 -0.6513
   94MOL0     O12590   0.557   3.104   6.069  0.0814 -0.0973  0.5731
   94MOL0     C12591   0.612   3.147   6.189 -0.6138  1.2295  0.1325
   94MOL0     C12592   0.510   3.090   6.292  0.0850 -0.0935  0.3011
   94MOL0     C12593   0.566   3.107   6.435 -0.1539  0.0500  1.0828
   94MOL0     C12594   0.450   3.133   6.534  0.5838 -0.9058  0.2658
   94MOL0     C12595   0.505   3.119   6.669 -0.3517  0.2734 -0.6300
   94MOL0     C12596   0.403   3.126   6.785  0.0543  0.9286  0.0818
   94MOL0     C12597   0.309   2.998   6.801 -0.6239  0.4303  0.6876
   94MOL0     C12598   0.409   2.888   6.844 -0.1923  1.2249 -0.6276
   94MOL0    Cl12599   0.323   2.736   6.865 -0.6307 -0.0691  0.0663
   94MOL0     C12600   0.634   3.200   5.865 -0.2828 -0.4953  0.0740
   94MOL0     C12601   0.711   3.190   5.747  0.4547  0.3032 -0.5956
   94MOL0     O12602   1.067   3.027   5.704  0.1573 -0.2250 -0.1498
   94MOL0     C12603   1.163   2.941   5.452  0.9222  0.1955  0.4080
   94MOL0     C12604   1.218   2.929   5.319 -0.5668  0.1674  1.4911
   94MOL0     N12605   1.717   3.006   4.958  0.6451  0.7326 -0.2842
   94MOL0     N12606   1.811   3.087   4.990 -0.3345  0.3171  0.8066
   94MOL0     C12607   2.773   3.125   4.520  0.1706  0.8115  0.1107
   94MOL0     C12608   2.771   3.188   4.391  1.3392  0.2028  0.2038
   94MOL0     C12609   2.713   3.439   4.030  1.0176 -0.5264  1.3510
   94MOL0     C12610   2.781   3.534   3.962 -0.6565  0.1261  0.0836
   94MOL0     C12611   2.744   3.583   3.836 -0.6823  0.1621 -1.4737
   94MOL0     C12612   2.622   3.540   3.782  0.2561 -0.0127  0.0833
   94MOL0     O12613   2.573   3.582   3.664 -0.0252 -0.5017 -0.4356
   94MOL0     C12614   2.647   3.676   3.585  0.0390 -0.0801  0.9298
   94MOL0     C12615   2.658   3.823   3.628  0.2332  0.7159 -0.0687
   94MOL0     C12616   2.517   3.887   3.638  0.2075  0.1232  0.3684
   94MOL0     C12617   2.467   3.868   3.784  0.0732  0.5023 -0.7715
   94MOL0     C12618   2.322   3.904   3.801  0.4758  0.3854  0.6107
   94MOL0     C12619   2.204   3.943   3.794  0.9448 -0.3866  0.0326
   94MOL0     C12620   2.544   3.439   3.839  0.1552  0.4881 -0.2631
   94MOL0     C12621   2.589   3.384   3.963  1.2127 -0.3322 -0.3213
   94MOL0     C12622   2.495   3.279   4.029  0.0207  0.3251 -0.2247
   94MOL0     H12623   2.526   3.415   4.454  0.4114 -0.1056 -3.5854
   94MOL0     H12624   2.586   3.355   4.680  1.9436  2.4191 -0.3108
   94MOL0     H12625   2.573   2.984   4.716  0.1408 -1.6961  0.3919
   94MOL0     H12626   2.626   3.009   4.872 -1.2348  0.1799 -0.7121
   94MOL0     H12627   2.417   3.185   4.735  1.1139 -0.7642 -0.3943
   94MOL0     H12628   2.525   3.232   4.863  1.0498 -2.0528  3.2790
   94MOL0     H12629   2.429   3.125   5.027  0.4396 -2.4814  1.1017
   94MOL0     H12630   2.384   2.975   4.936  0.2894  0.2613 -1.4158
   94MOL0     H12631   2.195   3.081   4.828  1.1231  0.0458 -1.5402
   94MOL0     H12632   2.186   3.086   5.001  0.9962 -0.1006  0.4747
   94MOL0     H12633   2.254   3.327   5.009 -0.3557 -1.3008  1.0005
   94MOL0     H12634   2.263   3.325   4.828  5.3267 -0.8507  1.7537
   94MOL0     H12635   2.045   3.391   4.855 -2.0301  0.2824 -0.8605
   94MOL0     H12636   2.030   3.224   4.826 -0.0755 -0.1633  1.5447
   94MOL0     H12637   2.036   3.378   5.094 -1.1302 -0.9747  0.9818
   94MOL0     H12638   1.999   3.216   5.097  1.0696  1.8840  2.3026
   94MOL0     H12639   1.808   3.381   5.102  2.3330  0.5416  0.4401
   94MOL0     H12640   1.825   3.414   4.934  2.3739  0.4133 -0.8134
   94MOL0     H12641   1.635   3.287   4.809  1.0795 -0.5177  0.7717
   94MOL0     H12642   1.490   3.098   4.713 -1.2806 -1.5162 -0.8442
   94MOL0     H12643   1.565   2.944   4.739 -2.7649  0.2628 -2.6033
   94MOL0     H12644   1.345   2.917   4.822 -1.8567  2.3785 -2.7701
   94MOL0     H12645   1.435   2.936   4.964  4.3971 -2.1437 -3.4059
   94MOL0     H12646   1.319   3.175   4.835 -0.2465 -2.5724 -1.8285
   94MOL0     H12647   1.383   3.164   5.004  0.8806  0.2732  0.6225
   94MOL0     H12648   1.118   3.029   4.917  0.7675  0.9833 -0.5021
   94MOL0     H12649   1.155   3.170   5.017  0.2470 -1.2258  2.5539
   94MOL0     H12650   0.981   3.086   5.132 -2.0232 -1.5115 -0.6843
   94MOL0     H12651   0.889   3.115   5.367  1.2179  0.9107  1.0677
   94MOL0     H12652   0.835   2.879   5.800  3.8748  1.0624 -0.2702
   94MOL0     H12653   0.730   2.900   6.014 -0.2103 -1.0417 -0.7088
   94MOL0     H12654   0.710   3.100   6.201 -1.2867 -0.3152 -0.0944
   94MOL0     H12655   0.622   3.255   6.206 -2.8885  1.6412 -0.8120
   94MOL0     H12656   0.414   3.142   6.287 -0.9964 -1.9030  1.4648
   94MOL0     H12657   0.490   2.985   6.269  0.8309  0.3903 -2.9561
   94MOL0     H12658   0.620   3.015   6.458  0.9755  0.4625  0.1836
   94MOL0     H12659   0.641   3.185   6.445 -0.4494  0.3619  0.9065
   94MOL0     H12660   0.356   3.077   6.534  0.2127 -0.5227  4.1885
   94MOL0     H12661   0.415   3.237   6.529  0.5463 -0.8904  0.8478
   94MOL0     H12662   0.575   3.201   6.689  0.5897 -0.6572 -0.0369
   94MOL0     H12663   0.556   3.022   6.666 -0.7677  0.0181  0.3313
   94MOL0     H12664   0.457   3.151   6.877  0.7968  0.2340 -0.1521
   94MOL0     H12665   0.340   3.214   6.773 -0.8884  0.0451 -2.0196
   94MOL0     H12666   0.260   2.980   6.705 -1.8257 -0.5555  1.4570
   94MOL0     H12667   0.230   3.006   6.876 -3.3699  0.5168 -2.0527
   94MOL0     H12668   0.480   2.864   6.765  0.1298 -0.8509  0.2444
   94MOL0     H12669   0.466   2.917   6.933 -0.1457  0.3045 -0.3549
   94MOL0     H12670   0.569   3.285   5.879 -0.2506  0.3477 -3.8465
   94MOL0     H12671   0.695   3.265   5.669 -1.6373  0.6430  0.1101
   94MOL0     H12672   1.217   2.896   5.534 -0.7252 -1.5064  0.6294
   94MOL0     H12673   1.314   2.880   5.307 -1.0922 -0.5389 -0.2328
   94MOL0     H12674   2.837   3.039   4.532  3.0001  2.5750 -1.2920
   94MOL0     H12675   2.843   3.150   4.319  1.5101  3.0299 -1.2632
   94MOL0     H12676   2.878   3.564   3.999  0.1348 -0.9677 -1.0316
   94MOL0     H12677   2.809   3.659   3.793 -0.3955  1.8568  1.6373
   94MOL0     H12678   2.596   3.681   3.488 -1.7456 -2.6528  1.6281
   94MOL0     H12679   2.748   3.635   3.580  0.3669  0.7331  0.8303
   94MOL0     H12680   2.706   3.868   3.541  1.5899  1.0673  0.8335
   94MOL0     H12681   2.714   3.844   3.720  0.3021  1.9444 -0.3760
   94MOL0     H12682   2.453   3.836   3.564 -1.1104  0.8685  0.9440
   94MOL0     H12683   2.522   3.994   3.615  1.8480  0.1252  0.6235
   94MOL0     H12684   2.483   3.768   3.825  2.3404  1.5582  1.1172
   94MOL0     H12685   2.508   3.935   3.860  1.4299 -0.8171 -0.3153
   94MOL0     H12686   2.100   3.969   3.792  1.1325  0.3571 -1.4578
   94MOL0     H12687   2.448   3.412   3.797 -1.9200  3.0078  2.4521
   94MOL0     H12688   2.430   3.228   3.958  0.7261  0.8624 -1.2908
   94MOL0     H12689   2.547   3.191   4.068 -0.1938  0.8025  1.1624
   94MOL0     H12690   2.436   3.323   4.109  0.3972  0.2618  0.0924
   95MOL0     O12691   3.843  11.165   3.095  0.2737  0.3091 -0.1760
   95MOL0     C12692   3.734  11.231   3.108 -0.2602  0.2405  0.3434
   95MOL0     O12693   3.607  11.183   3.134 -0.6757 -0.5474 -0.6054
   95MOL0     C12694   3.585  11.051   3.146 -0.8942  0.5850 -0.0830
   95MOL0     C12695   3.641  10.990   3.255 -0.1851 -0.4002  0.0821
   95MOL0     C12696   3.619  10.858   3.284 -0.5417  0.5869 -0.0225
   95MOL0     C12697   3.537  10.780   3.200  0.9026  0.4164 -0.0637
   95MOL0     O12698   3.499  10.659   3.233  0.4586  0.6894  0.3803
   95MOL0     C12699   3.571  10.570   3.319 -0.4268  0.1527 -0.2897
   95MOL0     C12700   3.522  10.424   3.312  0.2923 -1.0259  0.1445
   95MOL0     C12701   3.475  10.388   3.167 -0.2378  1.6135  0.4955
   95MOL0     C12702   3.429  10.242   3.144 -1.5017 -0.2478  0.2530
   95MOL0     C12703   3.394  10.227   2.995 -0.3283  0.3129  1.0079
   95MOL0     C12704   3.375  10.084   2.949  0.4957  0.8334  1.0434
   95MOL0     C12705   3.234  10.041   2.992  0.0045 -0.4445 -0.0419
   95MOL0     C12706   3.211   9.892   2.989  1.0733  0.1186  0.3089
   95MOL0     N12707   3.074   9.854   3.005 -0.7873  0.3014 -0.3779
   95MOL0     C12708   2.975   9.907   2.926 -0.5796 -0.6311  0.6635
   95MOL0     C12709   2.871   9.824   2.926 -0.0990 -0.2443  0.7421
   95MOL0     C12710   2.719   9.836   2.871 -0.0631 -0.0565  0.5339
   95MOL0     C12711   2.617   9.851   2.978  0.8448 -0.6322 -0.5555
   95MOL0     C12712   2.472   9.841   2.928  0.0884  0.5291 -0.0240
   95MOL0     C12713   2.371   9.888   3.034 -0.4458 -0.0176  0.2130
   95MOL0     O12714   2.398   9.862   3.178 -0.3449  0.1093  0.4723
   95MOL0     C12715   2.286   9.814   3.252 -0.2818  1.1881 -0.1426
   95MOL0     C12716   2.315   9.730   3.363 -0.4744  0.2940  0.0021
   95MOL0     C12717   2.212   9.673   3.440  0.2294  0.9096  0.2526
   95MOL0     C12718   2.075   9.697   3.408  0.0222  0.6736  0.5479
   95MOL0     C12719   1.974   9.636   3.499 -0.8293  0.4274 -0.7986
   95MOL0     O12720   2.021   9.567   3.613 -0.9502  0.2127 -0.4112
   95MOL0     C12721   1.934   9.565   3.720  0.7787  1.3696  0.0847
   95MOL0     C12722   1.928   9.672   3.806  0.8977  0.7011  0.0676
   95MOL0     C12723   1.831   9.678   3.911  0.6096 -0.0871  0.5975
   95MOL0     C12724   1.740   9.566   3.920  0.1643  0.8552 -1.0432
   95MOL0     O12725   1.635   9.555   4.025  0.3370 -0.4092  0.5276
   95MOL0     C12726   1.519   9.644   4.015  0.7628  0.1183  0.2913
   95MOL0     C12727   1.397   9.595   4.099 -0.3247  0.3888  0.1489
   95MOL0     C12728   1.436   9.573   4.248  0.5523  0.8045  0.6160
   95MOL0     C12729   1.331   9.504   4.335  0.1180  0.1276 -1.4325
   95MOL0     C12730   1.191   9.570   4.342  0.0264 -0.7155 -1.1283
   95MOL0     C12731   1.182   9.715   4.402 -1.0627 -0.3145 -0.7167
   95MOL0     C12732   1.044   9.772   4.354 -0.3411 -0.8697  0.5464
   95MOL0     C12733   0.933   9.741   4.448  0.0894  0.2105  0.5357
   95MOL0    Cl12734   0.779   9.824   4.408 -0.2553  0.2448  0.0484
   95MOL0     C12735   1.744   9.458   3.840 -0.1360 -0.4283  0.2100
   95MOL0     C12736   1.840   9.463   3.730  0.1976 -0.9423  0.3958
   95MOL0     O12737   1.859   9.652   3.474 -0.2972 -0.1743  0.6559
   95MOL0     C12738   2.042   9.784   3.307 -0.0092 -0.0256  0.7512
   95MOL0     C12739   2.151   9.840   3.225 -1.2374  0.3803 -0.1451
   95MOL0     N12740   2.911   9.709   2.980  0.3581 -0.1398  0.1477
   95MOL0     N12741   3.028   9.725   3.033 -0.3375 -0.5412  0.2590
   95MOL0     C12742   3.483  10.836   3.085 -0.2524 -0.3500  1.1784
   95MOL0     C12743   3.506  10.969   3.062 -0.2269 -0.8109  0.1934
   95MOL0     C12744   3.739  11.378   3.080 -0.0402 -0.0637  0.0331
   95MOL0     C12745   3.650  11.440   2.982  0.0795 -0.0383 -0.1768
   95MOL0     C12746   3.663  11.573   2.946  0.8015  0.8011 -1.0955
   95MOL0     C12747   3.747  11.653   3.020 -0.9282 -0.1805  0.8079
   95MOL0     O12748   3.751  11.786   2.991  0.2548 -0.5317 -0.4730
   95MOL0     C12749   3.753  11.876   3.110  0.0288 -0.1065 -0.3397
   95MOL0     C12750   3.681  12.013   3.093  0.0956 -0.0589  0.5001
   95MOL0     C12751   3.655  12.095   3.222 -0.8311 -0.2241 -0.5085
   95MOL0     C12752   3.786  12.182   3.248 -0.2417 -0.6957 -0.4331
   95MOL0     C12753   3.768  12.277   3.368 -0.7701 -0.0880  0.0440
   95MOL0     C12754   3.774  12.332   3.473 -0.3582  0.2669  0.4173
   95MOL0     C12755   3.836  11.602   3.117  1.1038 -0.4571  0.0805
   95MOL0     C12756   3.828  11.465   3.144 -1.2221 -0.1822  0.4255
   95MOL0     C12757   3.929  11.414   3.247 -0.7022  0.0340  0.0997
   95MOL0     H12758   3.697  11.047   3.329  0.9421 -3.8416  2.1319
   95MOL0     H12759   3.662  10.820   3.376  0.0094  0.9228 -0.1389
   95MOL0     H12760   3.678  10.583   3.300 -0.1666  0.7511  1.4025
   95MOL0     H12761   3.552  10.611   3.419 -0.7051 -0.4725 -0.0813
   95MOL0     H12762   3.428  10.426   3.367  1.0382  0.1992  1.4286
   95MOL0     H12763   3.597  10.362   3.362 -2.0049 -2.8742  1.5454
   95MOL0     H12764   3.559  10.400   3.097  0.6877  2.5948  1.7109
   95MOL0     H12765   3.389  10.445   3.131 -2.9618 -3.0354 -1.3287
   95MOL0     H12766   3.497  10.165   3.181 -1.7180 -1.9754 -2.6288
   95MOL0     H12767   3.340  10.224   3.205  0.0296  0.9055  3.0313
   95MOL0     H12768   3.304  10.282   2.968  1.5227  2.7974 -0.5139
   95MOL0     H12769   3.478  10.270   2.939 -1.0079  1.3360  0.7672
   95MOL0     H12770   3.377  10.077   2.839  3.0165 -1.5225  1.1296
   95MOL0     H12771   3.458  10.028   2.991 -0.9092 -2.3950 -0.1811
   95MOL0     H12772   3.159  10.098   2.937  2.1981  2.2234 -0.5019
   95MOL0     H12773   3.207  10.079   3.091  1.0247  2.0656 -0.6366
   95MOL0     H12774   3.241   9.851   2.892  1.6794  3.2212 -0.9123
   95MOL0     H12775   3.268   9.834   3.062  4.0745  1.3738 -0.8840
   95MOL0     H12776   2.982   9.999   2.868  0.8993  1.4607  3.8302
   95MOL0     H12777   2.713   9.933   2.820 -0.6180  1.5771  3.4840
   95MOL0     H12778   2.693   9.748   2.812  0.3264  0.8665 -1.0818
   95MOL0     H12779   2.617   9.764   3.045  0.1181 -0.4962 -0.3643
   95MOL0     H12780   2.632   9.938   3.042 -3.0396 -1.2555  1.5360
   95MOL0     H12781   2.450   9.737   2.902  1.7800  0.2019 -0.3004
   95MOL0     H12782   2.456   9.902   2.839  2.3875  0.5535 -0.5003
   95MOL0     H12783   2.278   9.843   3.001 -0.0442 -0.4074 -0.4158
   95MOL0     H12784   2.357   9.997   3.029 -2.0129 -0.2490 -1.3960
   95MOL0     H12785   2.421   9.710   3.380 -0.3982 -0.6514 -1.4389
   95MOL0     H12786   2.255   9.621   3.525  1.0072  1.5627  0.2639
   95MOL0     H12787   1.998   9.753   3.794  0.1151  1.0440 -2.8913
   95MOL0     H12788   1.822   9.767   3.971 -0.5369  1.5527 -1.8422
   95MOL0     H12789   1.536   9.747   4.049 -0.3112  0.8573 -1.2844
   95MOL0     H12790   1.489   9.652   3.910 -0.6736 -0.0069  0.6726
   95MOL0     H12791   1.320   9.673   4.101 -1.4960 -0.7482  2.0688
   95MOL0     H12792   1.368   9.502   4.047  3.4360  0.0197 -1.6408
   95MOL0     H12793   1.533   9.524   4.244 -0.9739 -2.5285 -4.3106
   95MOL0     H12794   1.445   9.673   4.291  0.4399  1.3037 -0.4893
   95MOL0     H12795   1.372   9.494   4.436 -2.1168 -0.1365 -0.4940
   95MOL0     H12796   1.312   9.399   4.311 -1.8650 -0.7462  2.8991
   95MOL0     H12797   1.124   9.501   4.395  0.4218 -0.1716  0.1049
   95MOL0     H12798   1.159   9.562   4.237 -1.1162 -2.6605 -0.6862
   95MOL0     H12799   1.194   9.714   4.511  0.9354 -5.4160 -0.6923
   95MOL0     H12800   1.267   9.771   4.363  0.8146 -0.6584  2.5042
   95MOL0     H12801   1.019   9.737   4.254 -0.7401 -4.3347  1.7109
   95MOL0     H12802   1.055   9.881   4.363 -0.2159 -0.9464  1.4610
   95MOL0     H12803   0.911   9.635   4.436 -1.7350  0.3449  2.1893
   95MOL0     H12804   0.952   9.768   4.552  1.2804  2.6030 -0.2247
   95MOL0     H12805   1.662   9.389   3.855 -0.7502  0.4222  0.8542
   95MOL0     H12806   1.859   9.396   3.647  1.6441  0.5556 -0.5608
   95MOL0     H12807   1.939   9.801   3.276 -0.3228 -1.3279  1.0142
   95MOL0     H12808   2.127   9.897   3.136  1.4562  0.1024 -1.1091
   95MOL0     H12809   3.408  10.795   3.019 -2.4762  0.5760  2.9746
   95MOL0     H12810   3.470  11.008   2.967  3.8072  0.4952 -1.0177
   95MOL0     H12811   3.582  11.385   2.918  0.4772 -0.0107 -0.6279
   95MOL0     H12812   3.595  11.610   2.871  0.4863 -1.0182 -1.7307
   95MOL0     H12813   3.855  11.888   3.145  0.2268  1.9880 -1.4650
   95MOL0     H12814   3.695  11.830   3.191  0.0440 -0.9183 -0.7741
   95MOL0     H12815   3.583  11.994   3.047  0.7288  1.6688 -1.7604
   95MOL0     H12816   3.745  12.069   3.025  4.9094 -1.5041  3.3693
   95MOL0     H12817   3.640  12.033   3.311 -0.6325 -0.7146 -0.8129
   95MOL0     H12818   3.569  12.162   3.210 -2.2246 -1.4187  2.0104
   95MOL0     H12819   3.876  12.120   3.251 -0.4090 -0.9147  0.2874
   95MOL0     H12820   3.792  12.251   3.163 -2.0719 -3.2209 -2.8080
   95MOL0     H12821   3.766  12.391   3.562 -1.3177 -0.1184  0.5990
   95MOL0     H12822   3.891  11.667   3.185 -1.0275  1.1781  0.3208
   95MOL0     H12823   4.028  11.381   3.213 -1.1798 -2.4763  0.8932
   95MOL0     H12824   3.957  11.487   3.322  0.6565  1.9890 -2.1599
   95MOL0     H12825   3.874  11.330   3.292 -2.0487  1.7689  1.8242
   96MOL0     O12826   1.965   5.709   4.783 -0.1296 -1.7790 -0.2901
   96MOL0     C12827   2.039   5.777   4.707 -0.0219  0.9185 -0.5091
   96MOL0     O12828   2.034   5.767   4.576  0.2682  0.1023 -0.6300
   96MOL0     C12829   1.942   5.673   4.532 -0.1138  0.0269 -0.1828
   96MOL0     C12830   1.808   5.715   4.509  1.5143 -0.4969  0.4426
   96MOL0     C12831   1.703   5.619   4.497 -0.5836 -0.6206  1.3167
   96MOL0     C12832   1.742   5.480   4.487  0.9213 -0.3664 -0.9818
   96MOL0     O12833   1.648   5.386   4.457  0.5428 -1.1452 -0.5166
   96MOL0     C12834   1.519   5.405   4.515  0.4358 -0.6018  0.4980
   96MOL0     C12835   1.466   5.267   4.506  0.0900  1.1138  0.2797
   96MOL0     C12836   1.552   5.164   4.591 -0.0343 -0.0669  0.9007
   96MOL0     C12837   1.511   5.015   4.566  0.5038  0.2478  0.6967
   96MOL0     C12838   1.526   4.976   4.419  0.3547 -0.4286 -0.4550
   96MOL0     C12839   1.526   4.831   4.397  0.6764  0.7249 -0.8835
   96MOL0     C12840   1.531   4.813   4.248 -0.6826 -0.2212 -0.3566
   96MOL0     C12841   1.570   4.670   4.206  0.6310 -0.2877 -0.4013
   96MOL0     N12842   1.704   4.624   4.244  0.0250  0.7291  0.4975
   96MOL0     C12843   1.738   4.548   4.353  0.2042  0.0367  0.1751
   96MOL0     C12844   1.863   4.505   4.319 -0.4967 -0.1299 -0.4140
   96MOL0     C12845   1.934   4.414   4.415  0.0755  0.3463 -0.5603
   96MOL0     C12846   1.878   4.270   4.439  1.2690 -0.6303 -0.6033
   96MOL0     C12847   1.960   4.196   4.544 -0.3074 -0.1295  0.0818
   96MOL0     C12848   1.927   4.048   4.552 -0.6431 -1.1620 -0.6593
   96MOL0     O12849   1.785   4.022   4.551  0.8121 -0.0769 -0.7082
   96MOL0     C12850   1.695   4.078   4.652 -0.5813  0.3741  1.1006
   96MOL0     C12851   1.740   4.114   4.776 -0.7925 -0.3085 -0.4396
   96MOL0     C12852   1.650   4.174   4.866 -1.7497  0.0339 -0.1743
   96MOL0     C12853   1.516   4.204   4.839  0.6182  0.0437 -0.4774
   96MOL0     C12854   1.416   4.247   4.944  0.0560 -0.0885  0.2586
   96MOL0     O12855   1.284   4.259   4.916  0.1743  0.4127  0.2859
   96MOL0     C12856   1.204   4.341   4.988  0.8436 -0.3358  0.3249
   96MOL0     C12857   1.072   4.338   4.945 -0.2040 -0.6731 -0.5522
   96MOL0     C12858   0.975   4.432   4.994  0.2834  0.1861  0.0806
   96MOL0     C12859   0.998   4.506   5.106 -0.3453  0.1089 -0.1821
   96MOL0     O12860   0.915   4.615   5.148  1.0039  0.9572  0.0314
   96MOL0     C12861   0.812   4.658   5.064  0.9372 -0.1606  0.1360
   96MOL0     C12862   0.789   4.807   5.114  0.7774 -0.1782 -0.6930
   96MOL0     C12863   0.909   4.889   5.136 -0.2225 -0.0733 -0.1979
   96MOL0     C12864   0.856   5.020   5.196 -0.3062 -0.2860 -0.0322
   96MOL0     C12865   0.959   5.126   5.225 -0.3208 -0.1496 -0.3109
   96MOL0     C12866   1.021   5.189   5.097  0.1765  0.3480 -0.2437
   96MOL0     C12867   0.946   5.316   5.044  0.5522 -0.0242  0.5321
   96MOL0     C12868   0.875   5.420   5.128  0.0002  0.1452  0.4539
   96MOL0    Cl12869   0.997   5.512   5.219  0.7853  0.0262 -0.3899
   96MOL0     C12870   1.120   4.494   5.166  0.7485  0.0166 -0.1262
   96MOL0     C12871   1.218   4.409   5.113 -0.6951  0.0600 -0.5038
   96MOL0     O12872   1.471   4.281   5.043 -0.5830 -0.0901  0.5489
   96MOL0     C12873   1.471   4.164   4.709 -0.4019  0.2442  0.7069
   96MOL0     C12874   1.558   4.093   4.618  0.4041 -1.0412  0.1607
   96MOL0     N12875   1.897   4.542   4.189  0.5059  0.6376 -0.5615
   96MOL0     N12876   1.811   4.630   4.157  0.1738 -0.1123 -0.2602
   96MOL0     C12877   1.873   5.439   4.496 -0.7596 -0.9534 -0.0733
   96MOL0     C12878   1.972   5.536   4.513  0.0879  0.1873  0.0977
   96MOL0     C12879   2.139   5.877   4.753  0.5335 -0.6484 -0.2327
   96MOL0     C12880   2.123   6.006   4.701 -0.0903 -0.0386  0.7875
   96MOL0     C12881   2.208   6.109   4.739  0.5984  0.0521  0.6324
   96MOL0     C12882   2.290   6.090   4.857 -0.0689 -0.0192 -0.6174
   96MOL0     O12883   2.374   6.189   4.893 -0.2969 -1.4610  0.4700
   96MOL0     C12884   2.310   6.293   4.960 -0.2679  0.0293  0.4414
   96MOL0     C12885   2.373   6.424   4.915 -0.3055 -0.0180 -0.3133
   96MOL0     C12886   2.515   6.424   4.972 -0.8266 -0.0547 -0.3569
   96MOL0     C12887   2.598   6.547   4.937  0.6287 -0.3150  0.6137
   96MOL0     C12888   2.629   6.541   4.795  0.2008  0.1753 -0.0230
   96MOL0     C12889   2.665   6.537   4.683 -0.3111 -0.0581 -0.6556
   96MOL0     C12890   2.288   5.961   4.932  0.3386 -0.1847  0.3250
   96MOL0     C12891   2.215   5.856   4.871  0.4753  0.4655  0.2371
   96MOL0     C12892   2.238   5.718   4.926 -0.1422  0.5965 -0.6980
   96MOL0     H12893   1.779   5.820   4.512  3.2382  0.1168 -1.5418
   96MOL0     H12894   1.602   5.655   4.479  0.4211  0.4974 -3.5819
   96MOL0     H12895   1.537   5.433   4.619  0.5214  2.2581 -0.2051
   96MOL0     H12896   1.465   5.485   4.463  4.3517  1.2222 -1.1800
   96MOL0     H12897   1.469   5.231   4.403  1.9880 -4.3799  1.8589
   96MOL0     H12898   1.360   5.253   4.533  0.5829 -2.2725  0.9351
   96MOL0     H12899   1.532   5.181   4.697  1.2586 -0.0329  1.1512
   96MOL0     H12900   1.659   5.175   4.572 -0.0422 -3.0867 -1.9693
   96MOL0     H12901   1.559   4.943   4.632  0.7397 -1.6656 -1.4391
   96MOL0     H12902   1.405   5.013   4.593  0.7012 -2.4299  1.5417
   96MOL0     H12903   1.440   5.020   4.367 -0.3525 -1.1831  0.0435
   96MOL0     H12904   1.607   5.034   4.375  0.4489 -0.9690 -1.0009
   96MOL0     H12905   1.611   4.784   4.448 -1.0646 -0.2828  1.2508
   96MOL0     H12906   1.434   4.794   4.443  1.4390  2.0114  1.9163
   96MOL0     H12907   1.612   4.880   4.217 -1.1759 -0.3863 -2.0905
   96MOL0     H12908   1.440   4.846   4.199 -0.8304 -1.7882 -1.2077
   96MOL0     H12909   1.491   4.602   4.240  1.7684 -1.4725 -0.0297
   96MOL0     H12910   1.580   4.682   4.097 -0.8817 -3.7839 -1.0665
   96MOL0     H12911   1.676   4.528   4.439 -2.5813 -0.0126 -1.7135
   96MOL0     H12912   2.034   4.392   4.375 -0.0640 -0.0260 -0.7034
   96MOL0     H12913   1.938   4.468   4.510 -0.5395 -0.6602  0.0564
   96MOL0     H12914   1.778   4.273   4.484  1.5271 -0.8789 -0.0006
   96MOL0     H12915   1.864   4.221   4.342 -1.6857  0.8665 -1.0451
   96MOL0     H12916   1.941   4.239   4.643 -2.1565 -1.6802  0.4682
   96MOL0     H12917   2.067   4.201   4.524 -0.4180  0.8603 -0.3050
   96MOL0     H12918   1.976   4.002   4.639  2.4914  2.8002 -0.0192
   96MOL0     H12919   1.959   3.993   4.463 -3.3552 -2.5044 -0.8969
   96MOL0     H12920   1.845   4.109   4.800 -1.0265 -1.8584  0.4310
   96MOL0     H12921   1.700   4.208   4.956  3.0000 -1.8301 -1.8028
   96MOL0     H12922   1.048   4.297   4.847 -2.1743 -2.9027  0.7687
   96MOL0     H12923   0.874   4.435   4.955  0.5117  0.0301 -0.5322
   96MOL0     H12924   0.842   4.666   4.959 -1.0457 -1.0025 -0.5437
   96MOL0     H12925   0.714   4.609   5.070 -0.2283  2.1247  1.6007
   96MOL0     H12926   0.715   4.859   5.053 -0.8039 -0.6614  0.7432
   96MOL0     H12927   0.733   4.812   5.208  2.0654  2.7009  0.0285
   96MOL0     H12928   0.969   4.836   5.210 -0.5515 -1.5401 -0.9588
   96MOL0     H12929   0.966   4.900   5.044 -0.4093 -0.8696 -0.4181
   96MOL0     H12930   0.819   5.000   5.297  2.1325 -5.1346  0.1978
   96MOL0     H12931   0.776   5.067   5.139  1.9637  2.9892 -0.8042
   96MOL0     H12932   1.046   5.081   5.274  0.0308  0.7516 -0.0844
   96MOL0     H12933   0.925   5.204   5.293  1.3015 -0.9067  1.4672
   96MOL0     H12934   1.125   5.211   5.121 -0.0457  2.8474 -1.2877
   96MOL0     H12935   1.034   5.120   5.013  0.9953 -1.4453  1.2876
   96MOL0     H12936   0.868   5.279   4.976  3.9234 -1.6105 -2.8671
   96MOL0     H12937   1.016   5.378   4.987 -0.6152  2.7916  1.9484
   96MOL0     H12938   0.836   5.499   5.063  0.0565  1.0652  1.5073
   96MOL0     H12939   0.797   5.365   5.181 -1.3194 -1.4095 -2.8233
   96MOL0     H12940   1.137   4.529   5.267  1.7629  0.9793 -0.6201
   96MOL0     H12941   1.314   4.408   5.163  0.2909 -1.3641 -2.2720
   96MOL0     H12942   1.365   4.168   4.684  0.1651 -1.0895 -2.2885
   96MOL0     H12943   1.527   4.057   4.520 -0.2784  2.3796 -0.9975
   96MOL0     H12944   1.899   5.335   4.480  1.9430 -0.1367 -1.4862
   96MOL0     H12945   2.075   5.502   4.511  0.4481  1.0462  1.8335
   96MOL0     H12946   2.049   6.029   4.625 -1.4020 -3.3911  0.8694
   96MOL0     H12947   2.199   6.202   4.684 -2.7022 -0.8078 -0.5047
   96MOL0     H12948   2.316   6.270   5.066 -2.4309 -0.2924  0.5383
   96MOL0     H12949   2.201   6.299   4.948 -0.2045  0.2348 -0.0700
   96MOL0     H12950   2.311   6.506   4.954 -0.5113  0.5676 -1.8082
   96MOL0     H12951   2.364   6.429   4.806  0.0481  0.3746 -0.3282
   96MOL0     H12952   2.571   6.332   4.951 -0.8161 -0.4623  1.3224
   96MOL0     H12953   2.497   6.419   5.080 -1.9717  2.6231 -0.3459
   96MOL0     H12954   2.533   6.634   4.948  1.0479  0.2754 -1.2298
   96MOL0     H12955   2.693   6.561   4.990  2.3785 -1.8157 -1.9177
   96MOL0     H12956   2.701   6.532   4.582  2.2254  0.1561  0.1701
   96MOL0     H12957   2.349   5.940   5.020 -0.2864 -2.3185  0.3086
   96MOL0     H12958   2.262   5.653   4.841  2.5915  0.3530  0.1660
   96MOL0     H12959   2.323   5.705   4.993 -0.6721 -1.1800 -0.3077
   96MOL0     H12960   2.152   5.668   4.971  0.4241 -0.0665 -0.3335
   97MOL0     O12961   0.931   1.369   6.746 -0.1136 -0.3974 -0.0119
   97MOL0     C12962   0.950   1.495   6.743  0.1322 -0.0502  0.2383
   97MOL0     O12963   0.920   1.577   6.636  0.0173 -0.0270 -0.3083
   97MOL0     C12964   0.834   1.518   6.541  0.4230  0.6941  0.9305
   97MOL0     C12965   0.707   1.561   6.529  1.1846 -0.9049 -0.3154
   97MOL0     C12966   0.607   1.511   6.448  0.7756 -0.2081  0.4289
   97MOL0     C12967   0.644   1.408   6.354 -0.7446 -0.3649 -0.8754
   97MOL0     O12968   0.553   1.358   6.265  0.0370 -0.1581  0.3491
   97MOL0     C12969   0.586   1.374   6.128  0.0479  0.3885 -0.3101
   97MOL0     C12970   0.582   1.243   6.051  0.7005  0.5045 -0.5971
   97MOL0     C12971   0.439   1.209   6.021  0.5023  0.6777 -0.1260
   97MOL0     C12972   0.417   1.092   5.919 -0.9358 -0.2073  0.1938
   97MOL0     C12973   0.478   1.137   5.783  0.1851  0.0903  0.3980
   97MOL0     C12974   0.423   1.254   5.714 -0.7824 -0.9135  0.1828
   97MOL0     C12975   0.491   1.285   5.575 -0.0803  0.2904 -0.6069
   97MOL0     C12976   0.411   1.405   5.512 -0.0698  0.2200  0.0113
   97MOL0     N12977   0.474   1.428   5.379 -0.0247 -0.7020 -0.1175
   97MOL0     C12978   0.599   1.476   5.353  0.1739 -0.2790  0.9516
   97MOL0     C12979   0.621   1.452   5.229  0.5600 -0.4826  0.9485
   97MOL0     C12980   0.749   1.484   5.164  0.6644 -0.4803 -0.0953
   97MOL0     C12981   0.739   1.610   5.079 -0.8265  0.2459 -1.6024
   97MOL0     C12982   0.882   1.666   5.038  0.1084 -0.2353 -0.6794
   97MOL0     C12983   0.984   1.587   4.965  0.4869 -0.5851  0.4496
   97MOL0     O12984   0.922   1.501   4.866 -0.4986  0.0247  0.2060
   97MOL0     C12985   0.935   1.530   4.734  0.1692 -0.2845  0.5510
   97MOL0     C12986   0.978   1.642   4.669 -0.1234 -0.0086  0.3485
   97MOL0     C12987   0.939   1.657   4.535  0.1703 -0.5921 -0.5529
   97MOL0     C12988   0.860   1.577   4.459  0.2785 -0.3407 -0.2361
   97MOL0     C12989   0.823   1.591   4.308 -0.1378  0.8725  0.2726
   97MOL0     O12990   0.727   1.522   4.258  0.0164 -0.7514 -0.3505
   97MOL0     C12991   0.716   1.515   4.128 -0.9657  0.0498  0.6251
   97MOL0     C12992   0.813   1.443   4.049 -0.3141  0.9572  0.1961
   97MOL0     C12993   0.792   1.415   3.909  0.3429 -0.6342 -0.3852
   97MOL0     C12994   0.685   1.483   3.839 -0.0835 -0.2838 -1.1358
   97MOL0     O12995   0.667   1.470   3.709 -0.5065 -0.1575  0.9438
   97MOL0     C12996   0.556   1.495   3.634 -0.5922 -0.9487 -0.0476
   97MOL0     C12997   0.559   1.441   3.487  0.4175  0.0468 -0.1404
   97MOL0     C12998   0.701   1.430   3.416 -0.1004 -0.0895 -0.1587
   97MOL0     C12999   0.673   1.393   3.274 -0.3316  0.2074  0.2136
   97MOL0     C13000   0.803   1.382   3.194  0.1591  0.2854 -0.2199
   97MOL0     C13001   0.761   1.407   3.047 -0.3140 -0.1766  0.2267
   97MOL0     C13002   0.879   1.394   2.945 -0.9102 -0.2590 -0.9316
   97MOL0     C13003   0.827   1.390   2.799 -1.8510  0.4358 -0.4298
   97MOL0    Cl13004   0.699   1.520   2.761 -0.3099 -0.1211 -0.0586
   97MOL0     C13005   0.603   1.565   3.921 -0.5878  0.0482 -0.1096
   97MOL0     C13006   0.612   1.575   4.064 -0.3008  0.7659  0.2613
   97MOL0     O13007   0.888   1.677   4.246  0.5471  0.3955  0.8300
   97MOL0     C13008   0.827   1.458   4.528 -0.1467 -0.6892  0.2395
   97MOL0     C13009   0.859   1.440   4.664  0.2827  0.3156  0.0343
   97MOL0     N13010   0.510   1.401   5.164  0.3694  0.1983 -0.0572
   97MOL0     N13011   0.421   1.375   5.260 -1.1730 -0.6166  0.3320
   97MOL0     C13012   0.780   1.360   6.364  0.0293  0.5735 -0.0855
   97MOL0     C13013   0.874   1.414   6.456  0.2703  0.0856  0.1152
   97MOL0     C13014   1.016   1.551   6.861 -0.3254 -0.0151  0.6889
   97MOL0     C13015   1.047   1.683   6.846 -0.1916  0.1957 -0.2959
   97MOL0     C13016   1.143   1.738   6.938 -0.3714  0.4586 -0.1615
   97MOL0     C13017   1.187   1.673   7.050  0.4024  0.1843  0.2768
   97MOL0     O13018   1.264   1.752   7.137  0.0385 -0.1192 -0.0716
   97MOL0     C13019   1.334   1.688   7.248 -1.3875 -0.3146  0.1634
   97MOL0     C13020   1.448   1.783   7.304  0.5219 -0.4755 -0.1713
   97MOL0     C13021   1.386   1.909   7.363  0.5574 -0.2746 -0.5989
   97MOL0     C13022   1.487   2.014   7.426  0.5193  0.0151 -1.1222
   97MOL0     C13023   1.501   1.975   7.569 -0.1291 -0.3791 -0.3052
   97MOL0     C13024   1.511   1.969   7.687 -0.5140 -0.7190  0.2158
   97MOL0     C13025   1.134   1.543   7.070  0.0081 -0.0049 -0.6553
   97MOL0     C13026   1.051   1.477   6.980  0.5191 -0.6197  0.5051
   97MOL0     C13027   1.007   1.337   7.013  0.3491  0.4450 -0.1969
   97MOL0     H13028   0.688   1.647   6.592  3.4996 -1.3664  1.1358
   97MOL0     H13029   0.508   1.554   6.446  0.4242 -0.9830 -1.8387
   97MOL0     H13030   0.509   1.439   6.086 -1.8978 -0.5539  1.6105
   97MOL0     H13031   0.688   1.411   6.112 -0.6845  1.8299 -1.9101
   97MOL0     H13032   0.628   1.161   6.108 -0.6350 -0.3572 -0.7138
   97MOL0     H13033   0.626   1.264   5.953  0.2984  4.8487 -0.0231
   97MOL0     H13034   0.379   1.298   5.995  0.0010  0.0971 -1.0160
   97MOL0     H13035   0.390   1.174   6.112  1.4374  0.4683  0.3085
   97MOL0     H13036   0.458   0.997   5.954 -2.8814  0.0662  3.5839
   97MOL0     H13037   0.312   1.065   5.907 -0.9925 -0.8314  1.8295
   97MOL0     H13038   0.587   1.149   5.779 -0.0203  2.1897 -0.4723
   97MOL0     H13039   0.451   1.055   5.717  0.6972  0.1036  0.1693
   97MOL0     H13040   0.314   1.255   5.704 -0.7931 -1.9997  0.1439
   97MOL0     H13041   0.438   1.339   5.781 -0.9777 -0.5271 -0.2574
   97MOL0     H13042   0.503   1.200   5.508  2.3960 -0.8620  1.1609
   97MOL0     H13043   0.590   1.325   5.598 -0.1442 -0.4253  1.0481
   97MOL0     H13044   0.304   1.391   5.492 -0.3550  3.7796 -1.7652
   97MOL0     H13045   0.429   1.488   5.581  3.1963 -0.6384  0.3542
   97MOL0     H13046   0.668   1.524   5.422 -0.0859  0.4691  0.7016
   97MOL0     H13047   0.824   1.492   5.243  0.5783 -2.7379  0.2895
   97MOL0     H13048   0.768   1.394   5.104 -1.3070 -3.1856  3.0388
   97MOL0     H13049   0.686   1.582   4.987 -1.8226  0.6112 -1.1528
   97MOL0     H13050   0.679   1.687   5.128 -0.0431  0.3543 -0.7922
   97MOL0     H13051   0.941   1.698   5.125 -1.2669 -0.6660  0.4533
   97MOL0     H13052   0.874   1.757   4.978  0.3835  1.2317  1.3819
   97MOL0     H13053   1.029   1.523   5.041 -3.2732 -1.1920  2.3936
   97MOL0     H13054   1.063   1.650   4.923 -1.8519  3.1008  1.1332
   97MOL0     H13055   1.030   1.720   4.724  0.0570 -0.9510  1.5702
   97MOL0     H13056   0.966   1.753   4.494  3.3032 -1.2086 -0.1964
   97MOL0     H13057   0.892   1.400   4.110 -0.0780 -0.4235 -1.0369
   97MOL0     H13058   0.872   1.371   3.851  0.1386 -0.7076 -0.6096
   97MOL0     H13059   0.464   1.456   3.680 -2.9376  2.3893 -1.4878
   97MOL0     H13060   0.551   1.604   3.619  1.5456 -1.1351 -2.7599
   97MOL0     H13061   0.495   1.352   3.492 -0.1851  0.2517 -2.5493
   97MOL0     H13062   0.488   1.500   3.427 -1.2015 -0.4661  1.1901
   97MOL0     H13063   0.746   1.530   3.418 -0.7549  0.2061  0.2526
   97MOL0     H13064   0.763   1.362   3.475  1.6076  0.8465 -0.8205
   97MOL0     H13065   0.611   1.478   3.243  1.1995  0.9938 -0.7926
   97MOL0     H13066   0.618   1.299   3.269 -1.2783  0.6216  1.8715
   97MOL0     H13067   0.856   1.287   3.198  2.5956  1.4998 -1.4652
   97MOL0     H13068   0.876   1.458   3.224  0.8891 -0.7595  0.7373
   97MOL0     H13069   0.688   1.330   3.022 -2.5167  1.7201  0.4400
   97MOL0     H13070   0.722   1.507   3.025 -0.4669 -0.9666 -3.9761
   97MOL0     H13071   0.935   1.303   2.970 -2.6874 -0.4335  3.3136
   97MOL0     H13072   0.940   1.479   2.979 -1.7653 -0.6892  1.9809
   97MOL0     H13073   0.909   1.390   2.726  0.7828  1.1643  2.3328
   97MOL0     H13074   0.772   1.296   2.785 -1.2921  0.1261 -0.5753
   97MOL0     H13075   0.515   1.613   3.879  0.3016 -0.7747 -3.2094
   97MOL0     H13076   0.537   1.625   4.124 -1.0061  0.7603 -0.5954
   97MOL0     H13077   0.761   1.393   4.471  1.5864 -0.5062 -2.1478
   97MOL0     H13078   0.820   1.354   4.716  1.1217  0.6000  1.1800
   97MOL0     H13079   0.800   1.275   6.300 -0.8251  0.4958 -0.2665
   97MOL0     H13080   0.975   1.374   6.465  1.3049  2.4810  0.1885
   97MOL0     H13081   1.014   1.742   6.761 -0.8914 -0.2271 -0.3189
   97MOL0     H13082   1.185   1.838   6.931  1.0364 -0.1121 -0.1624
   97MOL0     H13083   1.382   1.595   7.215 -1.0626 -0.1181  0.0731
   97MOL0     H13084   1.262   1.665   7.327 -0.9821 -0.5411  0.4688
   97MOL0     H13085   1.515   1.819   7.225  0.4627 -2.0992 -1.0123
   97MOL0     H13086   1.508   1.726   7.377  0.3646  0.4383  0.6880
   97MOL0     H13087   1.315   1.874   7.437 -2.9691 -0.4091 -3.7497
   97MOL0     H13088   1.325   1.950   7.282 -1.5142 -0.0793  1.0012
   97MOL0     H13089   1.584   2.006   7.375  3.9165  0.4002  4.4639
   97MOL0     H13090   1.463   2.120   7.414  1.0105  0.2286 -0.2837
   97MOL0     H13091   1.528   1.970   7.793  2.7497  1.1491 -0.1747
   97MOL0     H13092   1.139   1.497   7.169 -3.2796  1.3892  0.3072
   97MOL0     H13093   1.055   1.308   7.107  2.5269 -2.9078 -2.1305
   97MOL0     H13094   0.898   1.329   7.023  0.2923 -0.7640 -1.4787
   97MOL0     H13095   1.044   1.269   6.936 -2.6210 -0.8288 -0.6578
   98MOL0     O13096   6.691   2.099   2.719 -0.3156 -0.6156  0.3846
   98MOL0     C13097   6.654   2.215   2.691  0.9129 -0.8669 -1.4296
   98MOL0     O13098   6.706   2.330   2.744 -0.0668  0.1853  0.5436
   98MOL0     C13099   6.772   2.324   2.871  0.3640  0.7639  1.2460
   98MOL0     C13100   6.912   2.321   2.869 -0.1798 -1.5304  0.2732
   98MOL0     C13101   6.985   2.319   2.992  0.5062  0.5332 -0.0684
   98MOL0     C13102   6.914   2.295   3.114 -0.1712  0.2409  0.9456
   98MOL0     O13103   6.972   2.324   3.233 -0.9223 -0.3822  0.2873
   98MOL0     C13104   7.106   2.389   3.231  0.2753 -0.9179 -0.7273
   98MOL0     C13105   7.209   2.285   3.236  0.6852  0.3823 -0.2327
   98MOL0     C13106   7.193   2.180   3.359  0.1914  0.6661 -0.0547
   98MOL0     C13107   7.319   2.085   3.354 -0.0959  0.7855  0.7402
   98MOL0     C13108   7.358   2.032   3.491 -0.2540  1.3579 -0.5718
   98MOL0     C13109   7.247   1.938   3.553  0.6787 -0.3015 -1.2660
   98MOL0     C13110   7.293   1.898   3.690 -0.0261  0.7332 -0.2042
   98MOL0     C13111   7.183   1.805   3.754  0.6477  0.1999  0.0484
   98MOL0     N13112   7.225   1.717   3.870 -0.3499  0.4257 -0.0430
   98MOL0     C13113   7.143   1.634   3.950  0.0245 -0.2818  0.0028
   98MOL0     C13114   7.226   1.548   4.008  0.3164  0.5461  0.0005
   98MOL0     C13115   7.200   1.433   4.093  0.3225  0.2084 -0.7790
   98MOL0     C13116   7.269   1.305   4.046  0.2543  0.4151  0.5429
   98MOL0     C13117   7.212   1.263   3.907 -0.3488  1.0265 -0.0596
   98MOL0     C13118   7.290   1.146   3.861 -0.4587 -0.7378 -0.0465
   98MOL0     O13119   7.422   1.191   3.836  0.3238  0.3319 -0.3967
   98MOL0     C13120   7.512   1.102   3.793 -0.5748  0.3858  0.6093
   98MOL0     C13121   7.634   1.168   3.762  0.1862 -0.5546 -0.4465
   98MOL0     C13122   7.742   1.086   3.735 -0.9056  0.9312  0.0980
   98MOL0     C13123   7.725   0.950   3.716  0.1125  0.1591  0.9137
   98MOL0     C13124   7.840   0.869   3.693  0.1771 -0.0257 -0.5347
   98MOL0     O13125   7.882   0.840   3.571  0.6307 -0.2718 -0.3082
   98MOL0     C13126   8.014   0.809   3.560  0.3237  0.5418  0.4295
   98MOL0     C13127   8.116   0.866   3.620 -0.2385  0.2127  0.2815
   98MOL0     C13128   8.244   0.828   3.592 -0.3084  0.3293 -0.5020
   98MOL0     C13129   8.270   0.726   3.499  0.3631  0.2284  0.7656
   98MOL0     O13130   8.390   0.697   3.449 -0.2964 -0.5141 -0.1423
   98MOL0     C13131   8.474   0.654   3.557 -0.3236 -0.5043 -0.4581
   98MOL0     C13132   8.610   0.721   3.548  0.0140  0.5177  0.5615
   98MOL0     C13133   8.595   0.873   3.527  0.0236 -0.4958 -0.1246
   98MOL0     C13134   8.738   0.934   3.531  0.4183 -0.7737 -0.2448
   98MOL0     C13135   8.725   1.084   3.543 -0.2073  0.3714 -0.0332
   98MOL0     C13136   8.658   1.148   3.432  0.2000  0.2018 -0.5133
   98MOL0     C13137   8.678   1.297   3.434  0.2296 -0.0029 -0.0935
   98MOL0     C13138   8.611   1.376   3.314 -0.5861  0.3988 -0.0297
   98MOL0    Cl13139   8.428   1.379   3.341  0.7757 -0.2407 -0.1635
   98MOL0     C13140   8.164   0.658   3.439 -0.4148  0.9640 -0.2238
   98MOL0     C13141   8.036   0.699   3.470  0.8627  0.3146 -0.1159
   98MOL0     O13142   7.899   0.829   3.797 -0.3912 -0.1292  0.6439
   98MOL0     C13143   7.603   0.885   3.734 -0.0031 -0.2685 -0.1628
   98MOL0     C13144   7.496   0.963   3.777  0.6627  0.7166 -0.3781
   98MOL0     N13145   7.355   1.578   3.973  0.0290 -0.4485 -0.2865
   98MOL0     N13146   7.354   1.684   3.898 -0.4086  0.4422  0.4983
   98MOL0     C13147   6.774   2.290   3.109  0.8028  0.3457  0.8387
   98MOL0     C13148   6.707   2.295   2.990  0.7792 -0.1342 -0.2058
   98MOL0     C13149   6.563   2.228   2.577  0.0865 -0.9370 -0.5358
   98MOL0     C13150   6.499   2.353   2.561 -0.2223 -0.7031 -0.2371
   98MOL0     C13151   6.395   2.378   2.472  0.7780 -0.1517 -0.2208
   98MOL0     C13152   6.359   2.275   2.390  0.2768 -0.4118  0.2404
   98MOL0     O13153   6.287   2.288   2.274  0.5688 -0.0469  0.6346
   98MOL0     C13154   6.215   2.406   2.247 -0.2057  0.8131  0.9426
   98MOL0     C13155   6.134   2.391   2.115 -0.8238  0.5732 -0.5207
   98MOL0     C13156   6.226   2.369   1.991  0.0296 -0.7541  0.0104
   98MOL0     C13157   6.135   2.344   1.873 -0.0648 -1.0425 -0.1693
   98MOL0     C13158   6.062   2.217   1.895  0.6849 -0.1906 -0.0683
   98MOL0     C13159   6.027   2.106   1.932  1.1050  0.3576 -0.2742
   98MOL0     C13160   6.417   2.150   2.413 -0.4472 -0.1308 -0.0379
   98MOL0     C13161   6.518   2.121   2.502 -0.0839  0.0427 -0.3075
   98MOL0     C13162   6.570   1.984   2.504  0.5671 -0.5915 -0.5420
   98MOL0     H13163   6.979   2.318   2.784 -1.3927 -1.5354 -0.7050
   98MOL0     H13164   7.093   2.320   2.984  0.5010 -2.4603 -2.5863
   98MOL0     H13165   7.116   2.449   3.140  0.5580  0.3834  0.1308
   98MOL0     H13166   7.105   2.455   3.318 -0.6471 -2.6464  0.6075
   98MOL0     H13167   7.312   2.322   3.234  1.2691 -1.1658 -1.7941
   98MOL0     H13168   7.200   2.235   3.139 -1.8232  0.1347  0.0602
   98MOL0     H13169   7.098   2.127   3.346 -0.0541  1.7372 -3.9309
   98MOL0     H13170   7.183   2.240   3.450  0.6066  2.6403 -1.2556
   98MOL0     H13171   7.285   2.006   3.286 -1.7784  1.5685  0.6232
   98MOL0     H13172   7.414   2.121   3.313  1.7921 -3.5020  0.8043
   98MOL0     H13173   7.457   1.986   3.492  0.1036  1.8929  3.0535
   98MOL0     H13174   7.374   2.108   3.568  4.4815  0.1511 -0.0871
   98MOL0     H13175   7.146   1.979   3.549 -0.2464 -2.5718 -2.5709
   98MOL0     H13176   7.248   1.846   3.494 -1.4961 -0.9590 -0.3505
   98MOL0     H13177   7.306   1.992   3.746  1.0549  1.4269 -1.5528
   98MOL0     H13178   7.384   1.839   3.683  0.3611  1.4795 -2.1641
   98MOL0     H13179   7.102   1.866   3.795 -0.0456 -0.4393 -0.3436
   98MOL0     H13180   7.141   1.741   3.675  2.0422 -1.2532  0.4206
   98MOL0     H13181   7.034   1.635   3.949  0.0099  1.7062 -1.0040
   98MOL0     H13182   7.247   1.466   4.186  1.5264  0.4625 -1.4641
   98MOL0     H13183   7.092   1.413   4.104  0.9522 -4.6813 -1.0112
   98MOL0     H13184   7.378   1.316   4.044  1.3494 -4.9346 -5.6337
   98MOL0     H13185   7.256   1.219   4.111 -1.8377 -0.6437 -1.1610
   98MOL0     H13186   7.232   1.343   3.835  1.4446  0.5882 -0.0833
   98MOL0     H13187   7.110   1.222   3.902  0.9508 -2.4754 -1.5791
   98MOL0     H13188   7.244   1.100   3.773 -1.6867 -1.5067  0.9508
   98MOL0     H13189   7.269   1.066   3.933  1.0222 -1.6568 -0.5825
   98MOL0     H13190   7.651   1.273   3.785 -0.9836 -0.1929 -1.1301
   98MOL0     H13191   7.845   1.119   3.727 -0.0265 -1.8970 -2.5740
   98MOL0     H13192   8.105   0.954   3.683  2.0366  0.6558  0.1367
   98MOL0     H13193   8.316   0.900   3.632  0.6090  1.7706 -4.2729
   98MOL0     H13194   8.446   0.670   3.662  0.7875  0.7074 -0.3160
   98MOL0     H13195   8.473   0.545   3.559 -1.5940 -0.6454  4.4702
   98MOL0     H13196   8.667   0.698   3.639 -1.9458 -0.4894  1.5939
   98MOL0     H13197   8.676   0.677   3.473 -0.5339  0.8959 -0.1590
   98MOL0     H13198   8.557   0.896   3.428  2.9860  1.6081 -0.9205
   98MOL0     H13199   8.534   0.920   3.605  0.4974 -0.8521  0.4767
   98MOL0     H13200   8.797   0.917   3.440  2.0619 -0.9211  0.8054
   98MOL0     H13201   8.795   0.904   3.619  0.5114  1.9468  0.7062
   98MOL0     H13202   8.829   1.115   3.537  0.6993 -2.1764  1.2518
   98MOL0     H13203   8.697   1.119   3.643  0.4238 -0.5805  0.4843
   98MOL0     H13204   8.696   1.122   3.333  0.3152  6.1199 -2.4048
   98MOL0     H13205   8.551   1.126   3.439  0.0401  1.2378  0.8775
   98MOL0     H13206   8.787   1.308   3.432  0.5326 -2.0566  1.4479
   98MOL0     H13207   8.634   1.341   3.524  0.6496 -1.5285  0.8990
   98MOL0     H13208   8.666   1.470   3.315  1.1478 -0.4855  3.2737
   98MOL0     H13209   8.631   1.328   3.218  1.0771  1.7606 -0.4060
   98MOL0     H13210   8.176   0.598   3.350 -0.4428  1.6147 -0.6794
   98MOL0     H13211   7.944   0.660   3.427  1.0940 -0.5224  0.1204
   98MOL0     H13212   7.598   0.777   3.723 -1.3199 -0.0458 -2.4767
   98MOL0     H13213   7.398   0.917   3.789  1.1282 -0.2706 -0.3110
   98MOL0     H13214   6.729   2.288   3.207  1.3561 -0.7127  1.0831
   98MOL0     H13215   6.600   2.281   2.990  0.1405  3.5751  1.9181
   98MOL0     H13216   6.524   2.428   2.635  0.0801 -0.2400 -0.8038
   98MOL0     H13217   6.357   2.479   2.472  3.3084  0.8667 -0.3893
   98MOL0     H13218   6.295   2.479   2.230  1.4816 -1.5519 -2.3177
   98MOL0     H13219   6.161   2.453   2.329  2.7838  1.0281  2.9592
   98MOL0     H13220   6.073   2.481   2.099 -0.6432  1.7931  4.2867
   98MOL0     H13221   6.064   2.309   2.132  0.8991 -1.0735 -1.0344
   98MOL0     H13222   6.309   2.300   2.009  1.8040  1.1961 -0.2223
   98MOL0     H13223   6.282   2.460   1.968 -1.0417 -0.0375  0.1813
   98MOL0     H13224   6.071   2.432   1.887 -0.4201 -1.6775  3.0997
   98MOL0     H13225   6.187   2.341   1.777 -2.1825 -0.7060 -1.4018
   98MOL0     H13226   5.978   2.022   1.976  1.6011 -0.5317 -1.3832
   98MOL0     H13227   6.375   2.073   2.348  0.1511  0.2567 -0.9020
   98MOL0     H13228   6.560   1.942   2.605  0.8383  0.9014  0.1219
   98MOL0     H13229   6.514   1.921   2.433  1.0346 -1.7694  0.1023
   98MOL0     H13230   6.678   1.982   2.492  0.7814 -0.2884  1.0437
   99MOL0     O13231   1.723   8.386  11.079 -0.3254 -0.6376  0.0639
   99MOL0     C13232   1.648   8.408  11.173 -0.8035 -0.2494  0.9865
   99MOL0     O13233   1.529   8.476  11.154 -0.2775  1.0375  0.2024
   99MOL0     C13234   1.489   8.504  11.026 -1.0775  0.4684  0.5432
   99MOL0     C13235   1.552   8.616  10.964 -0.2909 -0.7573  0.0970
   99MOL0     C13236   1.508   8.657  10.836  0.4020  0.8063  0.4994
   99MOL0     C13237   1.409   8.581  10.774 -0.1477 -1.0279  0.5156
   99MOL0     O13238   1.392   8.598  10.635 -0.1950 -0.2434  0.0055
   99MOL0     C13239   1.315   8.710  10.612 -0.2617 -0.0353 -0.4131
   99MOL0     C13240   1.280   8.712  10.468  0.4511  0.6035  0.1574
   99MOL0     C13241   1.203   8.833  10.429  0.0064  0.5136 -0.0906
   99MOL0     C13242   1.176   8.826  10.272  0.0332  0.4154  0.1867
   99MOL0     C13243   1.173   8.969  10.200 -0.6233 -0.1918 -0.4895
   99MOL0     C13244   1.077   9.073  10.256 -0.6277  0.6406 -0.2699
   99MOL0     C13245   1.083   9.212  10.190 -0.6604 -0.6702  0.0850
   99MOL0     C13246   1.218   9.279  10.198 -0.2049 -1.3637  0.1530
   99MOL0     N13247   1.256   9.295  10.334  0.0391  0.0220 -0.9282
   99MOL0     C13248   1.185   9.332  10.446 -0.2682  0.1499  0.7196
   99MOL0     C13249   1.264   9.299  10.549  0.1931  0.0346 -1.2775
   99MOL0     C13250   1.240   9.316  10.686 -0.1178 -0.6623 -0.2654
   99MOL0     C13251   1.284   9.196  10.778  0.0857  0.1485 -0.2560
   99MOL0     C13252   1.227   9.067  10.735  0.4309 -0.4749  0.4549
   99MOL0     C13253   1.215   8.967  10.857  0.5967 -0.3963  0.4151
   99MOL0     O13254   1.118   9.010  10.957 -0.4522  0.0483 -0.7351
   99MOL0     C13255   1.107   8.928  11.072  1.0115 -0.8184  0.0362
   99MOL0     C13256   1.161   8.804  11.088  1.2131  0.4470 -0.7972
   99MOL0     C13257   1.158   8.733  11.208 -0.0829 -0.0721 -0.5135
   99MOL0     C13258   1.117   8.798  11.328  1.1739 -0.1933  0.0105
   99MOL0     C13259   1.141   8.749  11.459  0.7337  0.7545  0.8408
   99MOL0     O13260   1.066   8.816  11.551  0.9764  0.2126 -0.5037
   99MOL0     C13261   1.065   8.775  11.682  0.5636  0.0012 -0.0945
   99MOL0     C13262   1.054   8.880  11.771 -0.1397  0.4227  0.1475
   99MOL0     C13263   1.026   8.846  11.906  0.0392 -0.2313  0.5752
   99MOL0     C13264   1.003   8.719  11.949 -0.3816 -0.3385 -0.4607
   99MOL0     O13265   0.974   8.704  12.080  0.0698  0.1826  0.3392
   99MOL0     C13266   0.872   8.615  12.113  0.9859 -0.2749 -0.0677
   99MOL0     C13267   0.846   8.646  12.259  0.9639  0.3625  0.6007
   99MOL0     C13268   0.710   8.590  12.296  0.4218 -0.1707 -0.4386
   99MOL0     C13269   0.654   8.634  12.430 -0.7107  0.5141 -0.6350
   99MOL0     C13270   0.536   8.558  12.481 -0.5797  0.4890  0.7613
   99MOL0     C13271   0.495   8.594  12.622 -0.1506 -0.0604 -0.2304
   99MOL0     C13272   0.411   8.722  12.611 -0.4252  0.4956 -0.5243
   99MOL0     C13273   0.371   8.791  12.750 -0.0818  1.0044 -0.6236
   99MOL0    Cl13274   0.270   8.932  12.714 -0.3748  0.2586 -0.0698
   99MOL0     C13275   1.022   8.615  11.854  0.0433  0.3793  0.3870
   99MOL0     C13276   1.053   8.639  11.721 -0.0441  0.3503 -0.0635
   99MOL0     O13277   1.224   8.665  11.487 -0.4697 -0.0361 -0.0182
   99MOL0     C13278   1.063   8.926  11.311 -0.4173 -1.0670 -0.4703
   99MOL0     C13279   1.052   8.991  11.185  0.0821  0.4319  0.2046
   99MOL0     N13280   1.373   9.244  10.500  0.2159  0.3351  0.0640
   99MOL0     N13281   1.366   9.244  10.371  0.0061 -0.3604  0.1300
   99MOL0     C13282   1.340   8.481  10.847 -0.1881 -1.3254  0.1633
   99MOL0     C13283   1.376   8.443  10.974  0.5884 -0.2147  0.2760
   99MOL0     C13284   1.693   8.356  11.305  0.8041  0.0620  0.9107
   99MOL0     C13285   1.666   8.441  11.414 -0.3921  0.3717  0.5456
   99MOL0     C13286   1.701   8.406  11.540  0.8377 -0.2040  0.2875
   99MOL0     C13287   1.756   8.281  11.568  0.4452 -1.0038 -0.0377
   99MOL0     O13288   1.800   8.264  11.699 -0.8489  0.0642  0.3938
   99MOL0     C13289   1.928   8.192  11.714  0.9484 -0.5646  0.5173
   99MOL0     C13290   2.055   8.281  11.735  0.8255 -0.6220  0.1044
   99MOL0     C13291   2.036   8.395  11.846 -0.4842 -0.0369  1.6375
   99MOL0     C13292   2.110   8.519  11.808 -1.4902  0.8033  0.3278
   99MOL0     C13293   2.262   8.491  11.816  0.1614 -0.1822 -0.3061
   99MOL0     C13294   2.381   8.485  11.820 -0.9784  0.7148 -0.1045
   99MOL0     C13295   1.772   8.193  11.464 -0.2932 -0.1068  0.6025
   99MOL0     C13296   1.748   8.229  11.329  0.2339 -0.1573  0.5764
   99MOL0     C13297   1.785   8.127  11.228 -0.2721  0.5519  1.2656
   99MOL0     H13298   1.641   8.659  11.009 -2.1135  3.7521 -0.1055
   99MOL0     H13299   1.563   8.729  10.776  2.8809  0.2787  1.9926
   99MOL0     H13300   1.223   8.717  10.670  1.2692 -0.8770  2.2711
   99MOL0     H13301   1.375   8.798  10.637 -4.1760  2.4907  1.0205
   99MOL0     H13302   1.230   8.618  10.442  1.9633 -0.3477  0.5955
   99MOL0     H13303   1.371   8.716  10.407  0.7507  1.3583  0.6495
   99MOL0     H13304   1.272   8.912  10.460 -1.1756  1.3790  0.4040
   99MOL0     H13305   1.105   8.845  10.476 -0.1194  2.4409 -0.7649
   99MOL0     H13306   1.246   8.763  10.216 -1.2220 -2.0301  1.2083
   99MOL0     H13307   1.077   8.784  10.252  0.1008  0.7984 -1.0461
   99MOL0     H13308   1.276   9.003  10.210 -0.9242  1.2017 -1.7092
   99MOL0     H13309   1.150   8.961  10.093 -1.4485  0.7140 -0.3969
   99MOL0     H13310   0.972   9.040  10.247 -1.4173  3.1328 -1.0843
   99MOL0     H13311   1.096   9.083  10.363 -0.1472 -2.1627 -0.0273
   99MOL0     H13312   1.005   9.269  10.241  0.1612 -1.1313  1.9308
   99MOL0     H13313   1.046   9.200  10.088 -2.5220 -2.4301  0.9037
   99MOL0     H13314   1.297   9.226  10.143 -0.7511 -2.1345  0.0893
   99MOL0     H13315   1.213   9.380  10.157  0.9544  0.0926  3.2906
   99MOL0     H13316   1.087   9.377  10.459  0.6358  1.5628  3.2793
   99MOL0     H13317   1.307   9.400  10.709  3.4010 -3.7235  1.6512
   99MOL0     H13318   1.136   9.346  10.700 -0.1681 -0.8190 -0.3061
   99MOL0     H13319   1.392   9.189  10.771 -0.0304  0.2426 -2.8210
   99MOL0     H13320   1.238   9.207  10.877 -0.4949  1.4539 -0.6422
   99MOL0     H13321   1.286   9.019  10.656  2.9796  0.0625  1.9369
   99MOL0     H13322   1.125   9.062  10.694  0.0704 -0.1568  1.2990
   99MOL0     H13323   1.317   8.966  10.896  1.0049  0.5580 -0.5711
   99MOL0     H13324   1.182   8.870  10.819  1.0398 -1.1985  1.9993
   99MOL0     H13325   1.234   8.774  11.014  2.8472  4.2965 -1.0281
   99MOL0     H13326   1.199   8.632  11.213 -3.1896 -1.4704 -0.7573
   99MOL0     H13327   1.059   8.982  11.737 -3.0677  0.2121 -1.2059
   99MOL0     H13328   1.029   8.927  11.978  1.3165 -2.7648  3.5859
   99MOL0     H13329   0.787   8.645  12.050  0.1229  1.2154  1.7183
   99MOL0     H13330   0.907   8.511  12.112  2.4350  0.0451  3.4670
   99MOL0     H13331   0.925   8.591  12.311 -0.4637 -3.0551 -0.6033
   99MOL0     H13332   0.850   8.755  12.272 -0.7115  0.8362 -2.0578
   99MOL0     H13333   0.644   8.628  12.218  0.3488  3.3383  1.1282
   99MOL0     H13334   0.714   8.483  12.316  0.5296  0.0689  0.9446
   99MOL0     H13335   0.636   8.742  12.429 -1.6723  0.5182  2.8718
   99MOL0     H13336   0.740   8.618  12.495  0.8963  1.7038 -2.3561
   99MOL0     H13337   0.567   8.453  12.489  0.1359  0.8788  5.0987
   99MOL0     H13338   0.450   8.569  12.414  0.3548  3.6254 -0.0689
   99MOL0     H13339   0.433   8.518  12.670 -2.9664  1.4891 -1.1527
   99MOL0     H13340   0.578   8.627  12.685 -2.3820  6.1134  0.2065
   99MOL0     H13341   0.319   8.691  12.559 -0.4267 -1.1615  0.4068
   99MOL0     H13342   0.457   8.807  12.560 -0.7969  1.6781  1.0420
   99MOL0     H13343   0.299   8.727  12.802 -0.3180  1.0795 -0.8516
   99MOL0     H13344   0.465   8.811  12.802  0.5624  0.9306 -1.7240
   99MOL0     H13345   1.008   8.511  11.882  1.9214 -0.0972 -0.3026
   99MOL0     H13346   1.073   8.562  11.648  1.5341  0.7879 -0.1457
   99MOL0     H13347   1.022   8.987  11.391 -0.4105  0.5202 -1.6374
   99MOL0     H13348   1.018   9.094  11.183 -0.1424  0.4069  1.6514
   99MOL0     H13349   1.266   8.421  10.794 -4.5210  3.2068  0.3409
   99MOL0     H13350   1.336   8.371  11.044  3.7208 -1.1690  1.2065
   99MOL0     H13351   1.624   8.540  11.404 -1.9796 -0.4917 -2.6748
   99MOL0     H13352   1.699   8.482  11.618  3.4778 -0.2136  0.4484
   99MOL0     H13353   1.952   8.120  11.635  0.9485  0.4511 -0.4324
   99MOL0     H13354   1.915   8.129  11.802  2.0619 -0.9829  0.3977
   99MOL0     H13355   2.067   8.334  11.641  0.5253  0.3571  0.6048
   99MOL0     H13356   2.135   8.211  11.759  0.8905 -1.2235 -1.7619
   99MOL0     H13357   2.080   8.363  11.940  1.4110 -0.8569  0.5285
   99MOL0     H13358   1.930   8.421  11.846  0.0303  2.2828  1.6583
   99MOL0     H13359   2.082   8.541  11.704 -0.3997 -4.2892 -1.3200
   99MOL0     H13360   2.083   8.594  11.882 -0.1634 -0.1523  1.8290
   99MOL0     H13361   2.482   8.451  11.831 -1.5418 -0.8398  0.6256
   99MOL0     H13362   1.800   8.090  11.481  0.0048 -1.4006 -5.5251
   99MOL0     H13363   1.891   8.098  11.224 -1.0520 -2.5640  0.6363
   99MOL0     H13364   1.725   8.036  11.233  1.3319 -0.6924 -0.5841
   99MOL0     H13365   1.757   8.172  11.132 -0.6144  1.6211  1.8497
  100MOL0     O13366   3.785   1.789   4.975 -0.1546 -0.0939 -0.1148
  100MOL0     C13367   3.909   1.801   4.985  0.3098 -0.2418  0.2259
  100MOL0     O13368   3.998   1.696   4.989 -0.4275 -0.0111  0.1481
  100MOL0     C13369   3.973   1.564   5.009  0.3354 -0.1398  0.1066
  100MOL0     C13370   4.064   1.481   4.949  0.1246 -0.7826 -0.7895
  100MOL0     C13371   4.047   1.340   4.962  0.5418  0.3029  0.2136
  100MOL0     C13372   3.938   1.288   5.043 -0.1515  0.4837 -0.1747
  100MOL0     O13373   3.944   1.152   5.051 -0.0854 -0.3191  0.4218
  100MOL0     C13374   3.817   1.085   5.068 -0.0864 -0.6143 -0.0363
  100MOL0     C13375   3.827   0.995   5.195 -0.3609 -0.3349  0.1907
  100MOL0     C13376   3.683   0.935   5.208  0.2462 -1.0600  1.0278
  100MOL0     C13377   3.690   0.787   5.220  0.3234 -0.7580 -0.6511
  100MOL0     C13378   3.559   0.720   5.266  0.8553  0.3716 -0.3700
  100MOL0     C13379   3.584   0.570   5.280 -0.6468  0.6221  0.1762
  100MOL0     C13380   3.457   0.477   5.275 -0.5088 -1.5337 -0.9539
  100MOL0     C13381   3.495   0.329   5.317 -0.1702 -0.2263  0.5701
  100MOL0     N13382   3.375   0.253   5.317  0.7179  0.6084 -0.1304
  100MOL0     C13383   3.290   0.225   5.421  0.0685  1.1042 -1.4029
  100MOL0     C13384   3.200   0.138   5.369 -0.5634 -0.4791  1.0753
  100MOL0     C13385   3.110   0.039   5.439  0.6016 -0.3991 -0.0343
  100MOL0     C13386   3.179  -0.092   5.483  0.7110 -0.6356  0.1397
  100MOL0     C13387   3.068  -0.187   5.539  0.7812 -0.0153 -0.1508
  100MOL0     C13388   3.142  -0.324   5.572  0.2428 -0.2164 -0.4271
  100MOL0     O13389   3.066  -0.441   5.583 -0.1346 -0.3473 -1.1296
  100MOL0     C13390   3.094  -0.532   5.691  0.9565  0.1893  0.5123
  100MOL0     C13391   3.020  -0.648   5.686  0.4542  0.4969 -1.0079
  100MOL0     C13392   3.048  -0.750   5.783  0.1248 -0.0639 -0.4756
  100MOL0     C13393   3.144  -0.733   5.883  1.4810 -0.6685  0.5620
  100MOL0     C13394   3.176  -0.836   5.982 -0.1109 -0.4522 -0.7086
  100MOL0     O13395   3.278  -0.805   6.067 -0.4038  0.0294  0.0517
  100MOL0     C13396   3.291  -0.894   6.173 -0.1089 -0.1435 -0.4182
  100MOL0     C13397   3.369  -1.011   6.170  0.1785 -0.1006 -0.0081
  100MOL0     C13398   3.393  -1.098   6.277  0.3528  0.3907 -0.5993
  100MOL0     C13399   3.300  -1.082   6.382 -0.9578  0.3220 -0.0908
  100MOL0     O13400   3.305  -1.172   6.484  0.5086 -0.9958 -0.3663
  100MOL0     C13401   3.263  -1.300   6.427  0.4920 -0.6460 -0.0831
  100MOL0     C13402   3.308  -1.422   6.501  0.3778 -0.2990  0.2347
  100MOL0     C13403   3.259  -1.419   6.647 -0.4006 -0.2763  0.3197
  100MOL0     C13404   3.373  -1.375   6.739 -0.0365 -0.2846 -0.6422
  100MOL0     C13405   3.315  -1.360   6.883 -0.6763 -0.1618  0.3188
  100MOL0     C13406   3.250  -1.496   6.938 -0.4375 -0.9469 -0.0230
  100MOL0     C13407   3.208  -1.468   7.084  0.7266 -0.0023 -0.1516
  100MOL0     C13408   3.313  -1.435   7.190  0.1694 -0.2764 -0.0724
  100MOL0    Cl13409   3.428  -1.560   7.210  0.2435 -0.2460 -0.3834
  100MOL0     C13410   3.231  -0.968   6.397  0.3652 -0.2459  0.7437
  100MOL0     C13411   3.223  -0.872   6.298  0.7637 -0.8461 -0.0714
  100MOL0     O13412   3.111  -0.939   5.986 -0.0906 -0.2940 -0.5559
  100MOL0     C13413   3.213  -0.606   5.886 -0.7429  0.1347 -1.2635
  100MOL0     C13414   3.177  -0.505   5.799  0.3001  0.0690 -0.0672
  100MOL0     N13415   3.225   0.120   5.223  0.1663 -0.2281 -0.0705
  100MOL0     N13416   3.331   0.190   5.199 -0.9660 -0.3414 -0.5697
  100MOL0     C13417   3.849   1.377   5.099  0.3055 -0.2104  0.3595
  100MOL0     C13418   3.866   1.513   5.079  0.5332  0.9128  0.4145
  100MOL0     C13419   3.969   1.926   4.981  0.6686  0.1244  0.0269
  100MOL0     C13420   3.933   2.011   5.081 -0.5903 -0.0681 -0.6092
  100MOL0     C13421   3.985   2.142   5.094 -0.4693 -0.6789 -0.6467
  100MOL0     C13422   4.061   2.189   4.989 -0.3961 -0.7307 -0.9064
  100MOL0     O13423   4.073   2.327   4.988 -0.3471  0.2783 -0.5796
  100MOL0     C13424   4.137   2.387   5.098 -0.1618 -1.4396 -0.5668
  100MOL0     C13425   4.251   2.297   5.167  0.0828 -0.7379  0.9571
  100MOL0     C13426   4.360   2.393   5.236 -0.5950 -0.4033  0.0288
  100MOL0     C13427   4.321   2.482   5.350  0.0172  0.2242 -0.0498
  100MOL0     C13428   4.220   2.591   5.335  0.5263  0.8506 -0.0076
  100MOL0     C13429   4.143   2.683   5.316 -0.9335 -0.2711 -0.7326
  100MOL0     C13430   4.085   2.109   4.879  0.0766 -0.0836  0.9144
  100MOL0     C13431   4.041   1.976   4.871 -0.8507 -0.5855  0.1231
  100MOL0     C13432   4.083   1.891   4.753  0.0388  0.2902 -0.3756
  100MOL0     H13433   4.129   1.528   4.876 -1.2446  1.5526 -0.6193
  100MOL0     H13434   4.104   1.267   4.905  1.6106  1.3992 -0.1347
  100MOL0     H13435   3.734   1.156   5.059  2.1858  2.3109  0.5550
  100MOL0     H13436   3.817   1.010   4.989  0.1857 -3.0518  2.1471
  100MOL0     H13437   3.851   1.058   5.281 -0.0140 -2.2159  1.5217
  100MOL0     H13438   3.904   0.917   5.197  0.1886  0.0126  4.8848
  100MOL0     H13439   3.627   0.945   5.115 -0.5386  2.7479  1.7025
  100MOL0     H13440   3.611   0.977   5.280 -0.2930 -1.1036  0.5239
  100MOL0     H13441   3.739   0.738   5.135 -0.6413 -3.6239  0.3366
  100MOL0     H13442   3.765   0.770   5.297  2.1624  3.8995 -1.1146
  100MOL0     H13443   3.527   0.764   5.362  3.8796  2.3709 -0.1452
  100MOL0     H13444   3.475   0.745   5.200 -0.4755  2.1201  1.8318
  100MOL0     H13445   3.648   0.540   5.197  0.4629  0.0824  1.1890
  100MOL0     H13446   3.633   0.548   5.376 -0.4316 -0.7085 -0.2127
  100MOL0     H13447   3.409   0.495   5.179 -0.6688 -1.6367 -0.8939
  100MOL0     H13448   3.384   0.523   5.342  0.1317  3.1043 -3.0558
  100MOL0     H13449   3.571   0.292   5.247  0.8023  2.4325  0.1173
  100MOL0     H13450   3.540   0.327   5.417 -0.2073 -0.8499  0.5811
  100MOL0     H13451   3.299   0.251   5.526  0.0724  0.6097 -1.2800
  100MOL0     H13452   3.079   0.095   5.528  0.8050 -0.9325  0.3760
  100MOL0     H13453   3.026   0.021   5.371  0.2130 -0.8245  0.5538
  100MOL0     H13454   3.228  -0.136   5.396 -1.5702 -0.1370 -1.5044
  100MOL0     H13455   3.249  -0.071   5.564 -2.2939 -2.4181  3.5663
  100MOL0     H13456   2.987  -0.210   5.469  1.5614  1.5715 -1.6511
  100MOL0     H13457   3.018  -0.142   5.625  2.7284 -1.3543  1.8074
  100MOL0     H13458   3.191  -0.295   5.665 -2.2583  2.0331  0.3276
  100MOL0     H13459   3.219  -0.341   5.497 -1.1673 -0.0273 -1.9800
  100MOL0     H13460   2.948  -0.666   5.607 -1.4715 -0.8759  0.9387
  100MOL0     H13461   2.989  -0.840   5.774 -2.3083  1.4839 -1.0905
  100MOL0     H13462   3.437  -1.028   6.088  3.8704 -2.5935  3.1938
  100MOL0     H13463   3.457  -1.186   6.272 -2.0305 -1.4120 -2.6618
  100MOL0     H13464   3.154  -1.300   6.423  0.4795 -1.4296 -0.0494
  100MOL0     H13465   3.292  -1.318   6.323 -3.2281 -2.3650 -0.9788
  100MOL0     H13466   3.261  -1.507   6.452  1.3418  0.1221 -1.5083
  100MOL0     H13467   3.417  -1.430   6.493  0.8187  2.0468  2.5571
  100MOL0     H13468   3.178  -1.346   6.659 -1.3253 -0.8265 -1.9978
  100MOL0     H13469   3.225  -1.519   6.674  0.1525 -0.1305  1.6198
  100MOL0     H13470   3.413  -1.279   6.704 -1.3983  1.2660  1.7656
  100MOL0     H13471   3.451  -1.452   6.748 -1.1469 -1.4765 -0.9080
  100MOL0     H13472   3.240  -1.281   6.875  0.0564  0.3787 -3.3191
  100MOL0     H13473   3.390  -1.324   6.954 -0.0379  0.2512 -0.5363
  100MOL0     H13474   3.163  -1.513   6.873 -2.2711  1.2314  1.6547
  100MOL0     H13475   3.319  -1.579   6.924  4.0807  2.5893 -1.2373
  100MOL0     H13476   3.163  -1.558   7.126  2.8434 -0.3177  1.6465
  100MOL0     H13477   3.133  -1.389   7.081  0.5270 -0.0708 -4.6890
  100MOL0     H13478   3.347  -1.331   7.181  0.5535 -0.3219  0.7966
  100MOL0     H13479   3.275  -1.427   7.292  1.3472  0.7891  0.3160
  100MOL0     H13480   3.178  -0.954   6.491 -2.6537  0.2601 -0.8709
  100MOL0     H13481   3.142  -0.800   6.311  2.1746  0.4171  2.5373
  100MOL0     H13482   3.286  -0.582   5.962 -0.0278  2.7435 -2.6641
  100MOL0     H13483   3.236  -0.415   5.815  0.3533  0.3782 -1.8205
  100MOL0     H13484   3.761   1.341   5.152 -1.1737  0.4514 -1.4893
  100MOL0     H13485   3.788   1.577   5.118  1.0154  0.9601  1.3356
  100MOL0     H13486   3.870   1.963   5.156 -1.5563 -5.9372 -4.5033
  100MOL0     H13487   3.951   2.205   5.176 -0.5103  0.6551 -1.6541
  100MOL0     H13488   4.059   2.403   5.173  1.0090  0.5395  0.3144
  100MOL0     H13489   4.176   2.486   5.075 -0.0998 -1.1262  0.7690
  100MOL0     H13490   4.308   2.240   5.093  1.5811 -0.9032  2.2003
  100MOL0     H13491   4.208   2.230   5.242 -2.3889 -2.4806 -1.8062
  100MOL0     H13492   4.395   2.465   5.161  0.8311 -0.9399  0.1488
  100MOL0     H13493   4.451   2.342   5.268 -1.2667 -1.8538 -0.3030
  100MOL0     H13494   4.295   2.410   5.428 -1.5798 -1.4477 -2.0039
  100MOL0     H13495   4.407   2.534   5.393  0.4458 -1.1241  0.7683
  100MOL0     H13496   4.080   2.763   5.282 -0.3767 -0.3987 -2.1092
  100MOL0     H13497   4.154   2.140   4.801  2.6930  0.3934  3.2513
  100MOL0     H13498   4.051   1.786   4.753  2.8694 -0.7405  2.7809
  100MOL0     H13499   4.055   1.943   4.661 -1.4696  1.8783  0.9185
  100MOL0     H13500   4.192   1.885   4.763  0.0228  2.3604  2.1567
  101MOL0     O13501  11.320   4.359  11.042 -0.3058  0.4822  0.7883
  101MOL0     C13502  11.292   4.306  10.933 -0.0045  0.0884  0.2479
  101MOL0     O13503  11.263   4.176  10.914  0.4209  0.0382 -0.3611
  101MOL0     C13504  11.239   4.089  11.020 -1.2429 -0.0065 -0.6440
  101MOL0     C13505  11.144   3.986  11.001  0.5659  0.4574 -0.3508
  101MOL0     C13506  11.129   3.880  11.088  1.1593 -0.4585 -0.8157
  101MOL0     C13507  11.200   3.877  11.204 -0.2266  0.1309 -0.3827
  101MOL0     O13508  11.189   3.769  11.291  0.6506  0.3092  0.2922
  101MOL0     C13509  11.085   3.679  11.280  0.5139  0.5946 -0.0141
  101MOL0     C13510  11.150   3.542  11.240  0.8623  0.1318  0.7216
  101MOL0     C13511  11.287   3.520  11.316 -0.0051 -0.0808 -0.5481
  101MOL0     C13512  11.330   3.370  11.319  0.4869  1.7546 -0.3310
  101MOL0     C13513  11.430   3.338  11.432  0.8110  0.4983 -0.3214
  101MOL0     C13514  11.564   3.405  11.411 -1.0025 -0.0445 -0.3869
  101MOL0     C13515  11.676   3.332  11.499 -0.8925 -0.2885 -0.6022
  101MOL0     C13516  11.819   3.387  11.455 -0.2500 -0.4246  0.7596
  101MOL0     N13517  11.869   3.295  11.351  0.6508 -0.4571 -0.0347
  101MOL0     C13518  11.950   3.189  11.367 -0.1283  0.0330 -0.2671
  101MOL0     C13519  11.998   3.154  11.249 -0.1257 -0.2236 -0.7244
  101MOL0     C13520  12.130   3.072  11.216 -0.2110 -0.1069 -0.7451
  101MOL0     C13521  12.261   3.153  11.238  0.2661 -0.7989  0.3193
  101MOL0     C13522  12.384   3.058  11.241 -0.2259 -0.0156 -0.3036
  101MOL0     C13523  12.400   2.974  11.112 -0.6716  0.3719  0.1443
  101MOL0     O13524  12.516   2.890  11.133 -0.2851  0.4128 -0.1450
  101MOL0     C13525  12.561   2.791  11.051  0.5672  0.2310 -0.7475
  101MOL0     C13526  12.486   2.749  10.945  0.7031 -0.3784 -0.5470
  101MOL0     C13527  12.538   2.654  10.856 -0.5146 -0.2611  0.7499
  101MOL0     C13528  12.663   2.594  10.887 -0.3432  0.4149  0.2226
  101MOL0     C13529  12.713   2.488  10.803 -0.0464 -0.0563  1.2052
  101MOL0     O13530  12.830   2.428  10.850 -0.1956  0.2327  0.2749
  101MOL0     C13531  12.865   2.313  10.785 -0.3626 -0.1848  0.1221
  101MOL0     C13532  12.802   2.185  10.817 -0.9465  0.3621  0.4675
  101MOL0     C13533  12.853   2.078  10.743  0.1324  1.2566  0.4341
  101MOL0     C13534  12.948   2.088  10.634  0.0159  0.2997 -0.4662
  101MOL0     O13535  12.994   1.959  10.585  0.8806 -1.3780 -0.0952
  101MOL0     C13536  13.120   1.950  10.515  0.2428 -0.4058  0.1527
  101MOL0     C13537  13.164   1.805  10.520 -0.4707 -0.0906 -0.8627
  101MOL0     C13538  13.310   1.766  10.474 -0.0332 -0.2974  0.0217
  101MOL0     C13539  13.334   1.614  10.486  1.1748  0.3464 -0.6733
  101MOL0     C13540  13.471   1.552  10.481  0.2951  0.6326  0.6912
  101MOL0     C13541  13.468   1.404  10.463 -0.3588  0.0705 -0.5092
  101MOL0     C13542  13.418   1.340  10.595 -0.1881  0.1527  0.2367
  101MOL0     C13543  13.367   1.199  10.564 -0.2160 -0.2878 -0.2890
  101MOL0    Cl13544  13.480   1.113  10.442  0.3325 -0.1410  0.5167
  101MOL0     C13545  12.997   2.216  10.611  0.3967  0.4034 -0.3192
  101MOL0     C13546  12.957   2.328  10.686  0.2994 -0.5655  0.2621
  101MOL0     O13547  12.655   2.454  10.695  0.4372 -0.5274  0.2230
  101MOL0     C13548  12.722   2.615  11.007 -0.1151 -0.5188 -0.3330
  101MOL0     C13549  12.672   2.720  11.084 -1.2319  0.4642 -1.2451
  101MOL0     N13550  11.937   3.245  11.159 -0.2420  0.6133  0.1966
  101MOL0     N13551  11.859   3.321  11.219  0.1410 -0.0957  0.5895
  101MOL0     C13552  11.297   3.975  11.235 -0.4186 -0.2529  0.4560
  101MOL0     C13553  11.310   4.080  11.147  0.4944  0.0232  0.2088
  101MOL0     C13554  11.270   4.412  10.826 -0.0240 -0.9939  0.3109
  101MOL0     C13555  11.247   4.547  10.861 -0.6007  0.7943  0.0136
  101MOL0     C13556  11.239   4.647  10.769  0.0048  0.1264 -0.7657
  101MOL0     C13557  11.244   4.610  10.633  0.0052 -0.2400  0.3759
  101MOL0     O13558  11.238   4.710  10.537 -0.0823  0.9616  1.1020
  101MOL0     C13559  11.202   4.842  10.567 -0.2755 -0.8961  0.7340
  101MOL0     C13560  11.177   4.906  10.424 -0.5779  0.3995 -0.5780
  101MOL0     C13561  11.177   5.054  10.415  1.0362 -0.3789  0.9102
  101MOL0     C13562  11.302   5.113  10.347  0.1307 -0.3519  1.0797
  101MOL0     C13563  11.284   5.141  10.207  0.1826 -0.2444 -0.3772
  101MOL0     C13564  11.264   5.150  10.086 -0.6819 -0.0970  0.4522
  101MOL0     C13565  11.258   4.484  10.588  0.3025  0.2833 -0.0780
  101MOL0     C13566  11.276   4.389  10.686  0.0281 -0.1991 -0.7531
  101MOL0     C13567  11.303   4.257  10.635 -0.3558  0.5192  0.4525
  101MOL0     H13568  11.091   3.981  10.906 -0.0777  0.7488 -0.0086
  101MOL0     H13569  11.061   3.804  11.051 -2.2134  0.6228  2.5101
  101MOL0     H13570  11.038   3.663  11.378  1.4029 -1.3808  0.1369
  101MOL0     H13571  11.004   3.701  11.210 -2.5558 -1.4125  2.6197
  101MOL0     H13572  11.171   3.539  11.133  2.9332  1.8172  1.0230
  101MOL0     H13573  11.077   3.465  11.268  1.4370 -0.2872  1.1062
  101MOL0     H13574  11.278   3.554  11.419  1.2265  0.1011 -0.4950
  101MOL0     H13575  11.364   3.571  11.259  0.3073  0.7742  0.6161
  101MOL0     H13576  11.245   3.304  11.339  0.0754  2.4599  0.3003
  101MOL0     H13577  11.364   3.337  11.220 -1.2674 -1.0246 -0.1117
  101MOL0     H13578  11.389   3.365  11.529  0.4392  0.3254 -0.4291
  101MOL0     H13579  11.455   3.232  11.439  0.6118  0.2967 -2.1574
  101MOL0     H13580  11.597   3.385  11.309 -0.5603 -1.5695  0.0338
  101MOL0     H13581  11.557   3.513  11.432 -1.6047  0.4415 -2.8029
  101MOL0     H13582  11.671   3.224  11.514  0.5514  0.0047  3.2898
  101MOL0     H13583  11.659   3.379  11.597  1.7383 -0.8520  0.2012
  101MOL0     H13584  11.817   3.491  11.420  0.1609 -0.5609  0.3156
  101MOL0     H13585  11.883   3.385  11.543  2.7688 -2.7537 -1.2704
  101MOL0     H13586  11.983   3.143  11.460 -0.3462  0.7038  0.1498
  101MOL0     H13587  12.145   2.978  11.271  1.0075  2.1952  3.2598
  101MOL0     H13588  12.127   3.049  11.109 -2.2922  4.0866 -1.7999
  101MOL0     H13589  12.276   3.239  11.173  1.9937 -2.2612 -1.3196
  101MOL0     H13590  12.236   3.199  11.334 -1.6942 -1.7722  0.3385
  101MOL0     H13591  12.389   2.999  11.334  0.3815 -0.7523 -0.7893
  101MOL0     H13592  12.478   3.114  11.245  0.0927 -0.4413 -1.3420
  101MOL0     H13593  12.419   3.042  11.029 -3.1934  1.4581  0.3636
  101MOL0     H13594  12.313   2.915  11.083 -1.9717  1.1147  2.2884
  101MOL0     H13595  12.392   2.796  10.918 -0.6847 -1.8049  1.4401
  101MOL0     H13596  12.489   2.635  10.761 -2.5848  0.8795  1.5307
  101MOL0     H13597  12.726   2.175  10.893 -1.2279  2.1829  0.4717
  101MOL0     H13598  12.821   1.979  10.774  2.2296 -0.0912 -1.3887
  101MOL0     H13599  13.100   1.985  10.414 -0.6782 -2.3860 -0.4113
  101MOL0     H13600  13.190   2.015  10.569 -0.4884 -0.7858  1.6077
  101MOL0     H13601  13.142   1.780  10.625 -0.1182 -0.3044 -0.8343
  101MOL0     H13602  13.089   1.742  10.472 -0.2267 -1.8133  0.8800
  101MOL0     H13603  13.324   1.792  10.369 -1.6434  1.0689  0.1062
  101MOL0     H13604  13.378   1.820  10.541 -0.7005 -0.6584  1.0188
  101MOL0     H13605  13.267   1.562  10.416 -1.4898  2.2007  0.3335
  101MOL0     H13606  13.287   1.571  10.575  1.5171  1.8822  0.2952
  101MOL0     H13607  13.524   1.577  10.574 -0.7711  2.4482  0.8743
  101MOL0     H13608  13.518   1.595  10.392 -0.8240  0.6263  0.0776
  101MOL0     H13609  13.396   1.379  10.384  2.4552 -4.3199 -2.0334
  101MOL0     H13610  13.566   1.361  10.443 -0.4781 -0.0345 -0.8869
  101MOL0     H13611  13.342   1.406  10.639  0.8157  0.7840  1.0731
  101MOL0     H13612  13.504   1.332  10.662  0.5644  3.1052 -0.2108
  101MOL0     H13613  13.352   1.141  10.655  1.3960 -1.0427 -0.4659
  101MOL0     H13614  13.273   1.206  10.508  0.4245  3.0560 -1.2289
  101MOL0     H13615  13.071   2.228  10.532  1.7861  2.2485  1.1682
  101MOL0     H13616  12.997   2.427  10.666 -0.9936 -0.1242 -0.3100
  101MOL0     H13617  12.816   2.571  11.038 -0.8466 -1.6874  0.3040
  101MOL0     H13618  12.744   2.731  11.165 -1.4844  2.8813 -1.2729
  101MOL0     H13619  11.358   3.959  11.324  1.0552 -1.4750 -0.7234
  101MOL0     H13620  11.386   4.150  11.178  1.3158 -1.2737  1.2324
  101MOL0     H13621  11.244   4.574  10.966  3.3673  0.0723  0.4622
  101MOL0     H13622  11.228   4.752  10.794 -0.1263  0.7689 -3.2110
  101MOL0     H13623  11.275   4.888  10.635 -0.4757 -1.9623  1.7047
  101MOL0     H13624  11.110   4.836  10.627 -1.4610 -2.4266 -1.1048
  101MOL0     H13625  11.075   4.881  10.392 -0.4651  0.7577 -1.2459
  101MOL0     H13626  11.251   4.857  10.360  0.7580  1.5238  0.0504
  101MOL0     H13627  11.162   5.093  10.516  0.2749  2.4826 -0.1951
  101MOL0     H13628  11.084   5.093  10.373  1.4151 -0.7152 -0.2849
  101MOL0     H13629  11.332   5.204  10.399 -0.8066 -0.5211  1.9476
  101MOL0     H13630  11.379   5.036  10.357 -1.1148 -1.9209 -0.6879
  101MOL0     H13631  11.246   5.159   9.981  4.0075  2.3399 -0.4373
  101MOL0     H13632  11.259   4.463  10.481 -0.6913  0.6257 -0.1651
  101MOL0     H13633  11.206   4.207  10.640  0.7024 -1.5333  2.6884
  101MOL0     H13634  11.334   4.256  10.530 -1.0881  0.6694  0.2341
  101MOL0     H13635  11.377   4.201  10.693 -1.7609 -0.9701  0.8870
  102MOL0     O13636   3.268   5.775  11.092  0.0448 -0.5011  0.1708
  102MOL0     C13637   3.169   5.720  11.142 -0.5857 -0.8879  0.1998
  102MOL0     O13638   3.162   5.676  11.266 -0.0989 -0.1035 -1.0348
  102MOL0     C13639   3.248   5.695  11.364 -0.3553 -0.9910 -0.5713
  102MOL0     C13640   3.208   5.757  11.486 -0.2779  0.5802 -0.1616
  102MOL0     C13641   3.294   5.738  11.599  0.4200 -0.2389  0.0750
  102MOL0     C13642   3.416   5.676  11.585 -0.5023 -1.0174 -0.0698
  102MOL0     O13643   3.510   5.668  11.684 -0.0305 -0.2499  0.2876
  102MOL0     C13644   3.490   5.585  11.796  0.7055 -0.5458 -0.0552
  102MOL0     C13645   3.607   5.600  11.901  0.2342  1.2666  1.7176
  102MOL0     C13646   3.571   5.540  12.042  0.2791  0.6825  0.8461
  102MOL0     C13647   3.658   5.595  12.152  0.3372  0.2850 -0.1443
  102MOL0     C13648   3.631   5.506  12.279 -0.2341 -0.2793  0.5794
  102MOL0     C13649   3.710   5.577  12.385 -0.2401 -0.1432  0.3113
  102MOL0     C13650   3.618   5.648  12.486  0.3960  0.1411 -0.6245
  102MOL0     C13651   3.522   5.745  12.415  0.0668 -0.1578 -0.5283
  102MOL0     N13652   3.470   5.845  12.507  0.5191 -0.2305 -0.4799
  102MOL0     C13653   3.393   5.806  12.612  0.4255  0.2043 -0.0616
  102MOL0     C13654   3.386   5.912  12.693 -0.3008 -0.0633  1.0030
  102MOL0     C13655   3.292   5.934  12.821 -0.7412  0.1375 -0.5018
  102MOL0     C13656   3.326   5.838  12.924 -0.1154  0.2181 -0.0277
  102MOL0     C13657   3.283   5.874  13.070 -0.5611 -0.4651  0.3364
  102MOL0     C13658   3.146   5.813  13.116 -0.2214 -0.0936 -0.6776
  102MOL0     O13659   3.127   5.847  13.256  0.6471  0.7635 -0.2255
  102MOL0     C13660   3.216   5.783  13.354 -0.1580  0.6246  0.3363
  102MOL0     C13661   3.195   5.824  13.486 -0.0897  0.0599 -0.7160
  102MOL0     C13662   3.265   5.762  13.583 -0.1001  0.7022 -0.5149
  102MOL0     C13663   3.367   5.659  13.557  0.0886  0.3088  0.0721
  102MOL0     C13664   3.458   5.614  13.663  0.5878  1.2982  0.7376
  102MOL0     O13665   3.556   5.534  13.628  0.1384 -0.7647  0.6162
  102MOL0     C13666   3.649   5.480  13.716 -0.8894 -0.3270  0.2206
  102MOL0     C13667   3.616   5.360  13.787 -0.0541  0.1831  0.5693
  102MOL0     C13668   3.709   5.302  13.875  0.3372 -0.8788 -0.3663
  102MOL0     C13669   3.833   5.370  13.895 -0.3143 -1.0262 -0.8068
  102MOL0     O13670   3.928   5.316  13.979  0.3571  0.8070 -0.1800
  102MOL0     C13671   3.899   5.204  14.066  0.2911  0.0474  0.5752
  102MOL0     C13672   4.009   5.157  14.163 -1.2509 -0.5074 -1.0843
  102MOL0     C13673   4.122   5.089  14.081  0.1344  0.1291 -0.3709
  102MOL0     C13674   4.241   5.044  14.183 -0.1219  0.2577  0.2591
  102MOL0     C13675   4.354   4.950  14.125  0.3177 -0.8332  0.0458
  102MOL0     C13676   4.481   4.920  14.212 -0.6265  0.0952  0.3314
  102MOL0     C13677   4.546   4.793  14.154  0.9754  0.0188 -0.5116
  102MOL0     C13678   4.482   4.664  14.206 -0.1699 -0.5505 -0.6990
  102MOL0    Cl13679   4.529   4.523  14.107 -0.1505  0.9813  0.1349
  102MOL0     C13680   3.865   5.492  13.830  0.8020  0.0644  0.1964
  102MOL0     C13681   3.771   5.538  13.736 -0.3665 -0.5390 -0.3582
  102MOL0     O13682   3.437   5.661  13.778 -0.0224  0.2833 -0.4890
  102MOL0     C13683   3.378   5.612  13.428  0.6602  0.3147 -0.1679
  102MOL0     C13684   3.300   5.668  13.323  0.3156  0.1699 -0.4034
  102MOL0     N13685   3.466   6.006  12.641 -0.1297 -1.1117 -0.0545
  102MOL0     N13686   3.515   5.974  12.526  0.5882  0.6634 -0.4602
  102MOL0     C13687   3.460   5.631  11.465  0.2646 -0.0671  0.8918
  102MOL0     C13688   3.379   5.636  11.355  0.3428 -0.0887  0.3584
  102MOL0     C13689   3.032   5.728  11.078  0.0799 -0.1333 -0.0103
  102MOL0     C13690   3.011   5.843  10.995  0.0116 -0.4295 -0.1957
  102MOL0     C13691   2.891   5.864  10.917  0.2822  0.3814 -0.4138
  102MOL0     C13692   2.781   5.772  10.932  0.3571  0.4109 -1.5336
  102MOL0     O13693   2.656   5.792  10.888  0.3731  0.0719  0.3604
  102MOL0     C13694   2.580   5.693  10.811 -0.1281 -0.1278  0.7641
  102MOL0     C13695   2.617   5.684  10.662  0.3246  0.2307 -1.5756
  102MOL0     C13696   2.612   5.814  10.587 -0.0172 -0.7537  0.0654
  102MOL0     C13697   2.621   5.789  10.435 -0.3027 -0.4709  0.2840
  102MOL0     C13698   2.602   5.921  10.375  0.4411 -1.5325 -0.5986
  102MOL0     C13699   2.587   6.034  10.331  0.4630 -0.5202  0.1969
  102MOL0     C13700   2.797   5.666  11.011 -0.4502  0.6590 -0.5896
  102MOL0     C13701   2.923   5.637  11.088  0.0936  0.4708 -0.1969
  102MOL0     C13702   2.925   5.510  11.168  0.3556  0.2757  1.0281
  102MOL0     H13703   3.114   5.808  11.506 -1.2305 -0.5993 -1.4148
  102MOL0     H13704   3.258   5.772  11.695  0.2823  0.5984 -0.2641
  102MOL0     H13705   3.394   5.617  11.838  2.1866  2.3314  1.4374
  102MOL0     H13706   3.495   5.479  11.770 -2.8104 -0.5423 -1.2802
  102MOL0     H13707   3.626   5.707  11.911 -0.6733  1.8254 -1.4208
  102MOL0     H13708   3.699   5.558  11.860  0.2863  2.5190  0.4693
  102MOL0     H13709   3.574   5.430  12.046 -0.4931  0.5889 -0.5588
  102MOL0     H13710   3.465   5.562  12.058  0.5253  2.0900  0.6273
  102MOL0     H13711   3.764   5.610  12.130  0.2709 -1.2092 -1.6826
  102MOL0     H13712   3.630   5.699  12.172 -1.0322 -0.2734  0.9858
  102MOL0     H13713   3.525   5.505  12.306 -0.5873  1.9812 -0.4805
  102MOL0     H13714   3.676   5.407  12.272  0.4040  0.0444 -0.0845
  102MOL0     H13715   3.763   5.502  12.444 -0.7973 -2.2992 -1.7536
  102MOL0     H13716   3.795   5.632  12.344 -0.1936 -1.6685 -1.8046
  102MOL0     H13717   3.670   5.699  12.568 -1.3649  0.9325  0.0509
  102MOL0     H13718   3.555   5.583  12.546  0.3619  0.2846 -0.5036
  102MOL0     H13719   3.571   5.805  12.338 -1.6061 -0.1366 -1.6340
  102MOL0     H13720   3.439   5.694  12.365 -0.7903  1.2235 -0.5731
  102MOL0     H13721   3.356   5.708  12.641  1.6197 -0.1792  0.2348
  102MOL0     H13722   3.302   6.038  12.855  0.5321  0.4769 -1.8008
  102MOL0     H13723   3.186   5.918  12.800 -1.8452  4.3748  0.7234
  102MOL0     H13724   3.285   5.739  12.900  0.5703 -0.4541  1.4107
  102MOL0     H13725   3.435   5.828  12.920 -0.2126 -1.1637  0.1725
  102MOL0     H13726   3.269   5.982  13.083 -3.2450  0.0576 -4.6092
  102MOL0     H13727   3.360   5.849  13.144  0.9109  1.3000 -0.4930
  102MOL0     H13728   3.153   5.707  13.090  1.5505 -0.7506  2.0389
  102MOL0     H13729   3.073   5.875  13.062 -1.0488  0.6681  1.2433
  102MOL0     H13730   3.128   5.907  13.507 -0.0548 -0.3333  1.0629
  102MOL0     H13731   3.242   5.799  13.682 -1.3181 -0.3713 -0.3770
  102MOL0     H13732   3.517   5.317  13.776 -0.2356  0.5609  0.7075
  102MOL0     H13733   3.680   5.231  13.952  0.8388  2.0249  2.7615
  102MOL0     H13734   3.814   5.233  14.128 -0.1307  0.1227 -0.0276
  102MOL0     H13735   3.890   5.108  14.014  3.1656 -0.8193  1.4559
  102MOL0     H13736   4.045   5.247  14.214 -0.3913 -1.1919 -0.4502
  102MOL0     H13737   3.971   5.083  14.234  1.0617 -0.3670  0.3881
  102MOL0     H13738   4.086   5.009  14.016  0.9147 -0.0579 -0.5884
  102MOL0     H13739   4.162   5.160  14.008  0.1505 -2.0635 -2.6350
  102MOL0     H13740   4.191   5.001  14.271  2.2503  0.4005  1.7635
  102MOL0     H13741   4.302   5.122  14.230  1.2448 -1.4916  1.5250
  102MOL0     H13742   4.389   5.002  14.035  0.4219 -0.4785  0.2927
  102MOL0     H13743   4.305   4.862  14.083  1.0803  0.1634 -3.2440
  102MOL0     H13744   4.550   5.005  14.210 -2.9482  2.0930 -0.4718
  102MOL0     H13745   4.453   4.898  14.316  0.2672  2.7363  1.2081
  102MOL0     H13746   4.651   4.797  14.182  0.5666  1.8842  0.9984
  102MOL0     H13747   4.535   4.788  14.046  3.2528 -1.4090 -0.7461
  102MOL0     H13748   4.525   4.643  14.304  1.5276 -1.4985 -1.6091
  102MOL0     H13749   4.373   4.667  14.198 -0.0318  1.9566 -4.0061
  102MOL0     H13750   3.954   5.552  13.847  0.8181  0.9030 -2.4989
  102MOL0     H13751   3.792   5.625  13.676  1.9348 -1.0212 -0.3538
  102MOL0     H13752   3.445   5.529  13.409  1.3800  0.8549 -0.0306
  102MOL0     H13753   3.306   5.625  13.224  1.2231 -0.8488  0.0743
  102MOL0     H13754   3.558   5.589  11.446  1.3293  1.9923  1.5659
  102MOL0     H13755   3.411   5.604  11.257 -1.4159 -1.1528  0.0791
  102MOL0     H13756   3.093   5.910  10.971 -1.3259  2.5697  2.7291
  102MOL0     H13757   2.876   5.954  10.858  0.8807  0.5860 -0.2590
  102MOL0     H13758   2.474   5.717  10.828 -0.1136 -0.7165  1.7495
  102MOL0     H13759   2.586   5.595  10.858  0.8123  0.4592  1.8942
  102MOL0     H13760   2.551   5.615  10.609  2.6900 -0.3940 -3.9669
  102MOL0     H13761   2.721   5.650  10.653  1.1678  1.7363  1.2842
  102MOL0     H13762   2.691   5.881  10.620 -1.7376  0.9307  0.9935
  102MOL0     H13763   2.519   5.870  10.606  0.8146  0.1233  1.8096
  102MOL0     H13764   2.721   5.749  10.413 -1.0946 -0.9285 -2.8474
  102MOL0     H13765   2.552   5.719  10.387 -0.1809 -0.5712  0.2544
  102MOL0     H13766   2.570   6.121  10.271 -1.9811 -1.7527 -1.0575
  102MOL0     H13767   2.710   5.601  11.012  1.9695 -3.0357 -2.8532
  102MOL0     H13768   2.979   5.434  11.110  2.5778  0.7499  2.3607
  102MOL0     H13769   2.973   5.518  11.265 -1.6465  0.1162  2.0811
  102MOL0     H13770   2.821   5.477  11.169  0.0721  1.0212 -0.6192
  103MOL0     O13771   9.074   6.278   4.028  0.3284 -0.0670 -0.8702
  103MOL0     C13772   8.969   6.226   4.058  0.4537  0.3191 -0.5348
  103MOL0     O13773   8.848   6.292   4.083  0.1791 -0.4557  0.1881
  103MOL0     C13774   8.851   6.429   4.099  0.8272 -0.2071 -0.5338
  103MOL0     C13775   8.816   6.515   3.994 -0.0502  0.8443  0.4794
  103MOL0     C13776   8.818   6.652   4.019 -0.1200  0.3521 -0.2779
  103MOL0     C13777   8.850   6.709   4.149 -0.6290 -0.9335  0.4836
  103MOL0     O13778   8.844   6.845   4.151  0.5254  0.7883 -0.1641
  103MOL0     C13779   8.821   6.919   4.262  0.4325 -0.5691 -0.3661
  103MOL0     C13780   8.959   6.971   4.327  0.1157 -0.4785 -0.8100
  103MOL0     C13781   9.082   6.993   4.238  1.0007  0.7174 -0.6411
  103MOL0     C13782   9.062   7.121   4.159 -0.2386  0.4244 -1.0371
  103MOL0     C13783   9.196   7.173   4.108  0.4677 -0.6414 -1.1687
  103MOL0     C13784   9.180   7.289   4.022 -0.1454  0.0141  0.6238
  103MOL0     C13785   9.313   7.309   3.947  0.0399  1.0351 -0.7451
  103MOL0     C13786   9.316   7.432   3.866 -0.6391  0.2502 -0.2813
  103MOL0     N13787   9.196   7.451   3.791  0.3596  0.0241 -0.4752
  103MOL0     C13788   9.080   7.528   3.824  0.5649  0.0862  0.7307
  103MOL0     C13789   9.021   7.530   3.707  1.2618  0.2750  0.4971
  103MOL0     C13790   8.887   7.591   3.675  0.2197  0.9428 -0.1814
  103MOL0     C13791   8.909   7.745   3.669  0.3045  0.9261  0.9837
  103MOL0     C13792   8.768   7.806   3.688  0.3845  1.0288 -0.3260
  103MOL0     C13793   8.777   7.963   3.670  0.1786  1.3442  0.2375
  103MOL0     O13794   8.759   7.971   3.527  0.0157  0.3284 -0.1557
  103MOL0     C13795   8.679   8.078   3.484 -1.0511 -0.0971  0.4379
  103MOL0     C13796   8.595   8.065   3.368  1.0617 -0.5860 -0.1358
  103MOL0     C13797   8.521   8.166   3.325  0.3336 -0.2171 -0.1673
  103MOL0     C13798   8.523   8.294   3.390 -0.1009  0.3111  0.9127
  103MOL0     C13799   8.442   8.412   3.356  0.0311 -0.3400  0.1130
  103MOL0     O13800   8.363   8.387   3.246 -0.2852 -0.0777  0.3880
  103MOL0     C13801   8.288   8.487   3.197 -0.1530  0.3536  0.4810
  103MOL0     C13802   8.316   8.623   3.190 -0.5178 -0.3503  0.5400
  103MOL0     C13803   8.244   8.720   3.114  0.4720  0.1354 -0.3983
  103MOL0     C13804   8.125   8.672   3.055 -0.8263 -0.3028  0.2127
  103MOL0     O13805   8.051   8.748   2.970 -0.3867 -0.1553 -0.5159
  103MOL0     C13806   8.120   8.787   2.852  0.4596  0.1436 -0.2893
  103MOL0     C13807   8.068   8.924   2.806 -0.0601 -0.1725  0.0556
  103MOL0     C13808   8.088   9.040   2.912 -1.2528 -0.1050 -0.9487
  103MOL0     C13809   8.234   9.089   2.939  0.7577  0.3348 -1.3180
  103MOL0     C13810   8.307   9.118   2.806 -0.1481 -0.0279  0.8990
  103MOL0     C13811   8.458   9.119   2.830 -0.3030 -0.9208  0.9273
  103MOL0     C13812   8.529   9.160   2.712  0.0690 -0.0931  0.0183
  103MOL0     C13813   8.496   9.302   2.674  0.5484 -1.3400  0.3876
  103MOL0    Cl13814   8.608   9.378   2.562  0.1190 -0.0643  0.2832
  103MOL0     C13815   8.093   8.537   3.068  0.3876 -0.4204 -0.5463
  103MOL0     C13816   8.179   8.452   3.126 -0.5019  0.4047 -0.0741
  103MOL0     O13817   8.435   8.513   3.431 -0.0784  1.2007  0.6264
  103MOL0     C13818   8.602   8.301   3.508 -0.0267 -0.6767  0.6297
  103MOL0     C13819   8.686   8.202   3.548  0.2443 -0.0072  0.0075
  103MOL0     N13820   9.083   7.463   3.605 -0.8343  0.3301  0.3696
  103MOL0     N13821   9.188   7.417   3.659  0.4817  0.1430  0.0557
  103MOL0     C13822   8.864   6.621   4.252 -1.0667 -1.1573 -0.7150
  103MOL0     C13823   8.873   6.480   4.229 -0.1101 -0.7170  0.0685
  103MOL0     C13824   8.954   6.079   4.083 -0.4896 -0.0754  0.3901
  103MOL0     C13825   8.829   6.015   4.057  0.4162 -0.5840  0.0086
  103MOL0     C13826   8.814   5.876   4.060 -0.6395  0.1438  0.2565
  103MOL0     C13827   8.920   5.797   4.107  0.9484  1.0376  0.1900
  103MOL0     O13828   8.917   5.661   4.127 -0.4907  0.0116  0.2962
  103MOL0     C13829   8.795   5.598   4.153 -0.4413 -1.0466  0.7810
  103MOL0     C13830   8.801   5.484   4.242 -0.7199  0.1672  0.4389
  103MOL0     C13831   8.889   5.363   4.190  0.8833  0.1328 -0.1514
  103MOL0     C13832   8.800   5.241   4.141 -0.4913  0.0883 -0.5468
  103MOL0     C13833   8.693   5.190   4.231 -0.4761 -0.0432  0.0209
  103MOL0     C13834   8.591   5.167   4.293 -1.7384  0.1809 -0.3017
  103MOL0     C13835   9.036   5.866   4.158  1.0752  1.0370 -0.4138
  103MOL0     C13836   9.059   6.002   4.136  0.4005  0.5721 -0.5281
  103MOL0     C13837   9.191   6.052   4.198 -0.2806 -0.1473  0.9072
  103MOL0     H13838   8.791   6.471   3.898 -0.3978  3.1477 -0.5485
  103MOL0     H13839   8.787   6.711   3.934 -1.0878 -1.2908 -1.1145
  103MOL0     H13840   8.757   7.003   4.234  2.7960  1.6268  0.4232
  103MOL0     H13841   8.769   6.856   4.335  0.5108 -0.9572 -0.6475
  103MOL0     H13842   8.998   6.898   4.398  0.6554  1.0730  0.5571
  103MOL0     H13843   8.930   7.053   4.394 -0.5425 -0.6464 -0.8765
  103MOL0     H13844   9.102   6.903   4.178 -2.7682  1.4592 -3.3556
  103MOL0     H13845   9.165   7.010   4.307  0.8263  0.3881 -0.3469
  103MOL0     H13846   9.005   7.106   4.067  0.3217  2.2758 -1.7221
  103MOL0     H13847   9.002   7.193   4.216 -3.6603 -2.6915 -0.2539
  103MOL0     H13848   9.251   7.197   4.199 -2.0318 -3.2032  1.2184
  103MOL0     H13849   9.249   7.093   4.055 -0.0197 -1.0928 -0.9838
  103MOL0     H13850   9.101   7.267   3.949  1.3655 -1.9091 -0.5398
  103MOL0     H13851   9.146   7.382   4.069 -0.9074  1.5464 -2.6654
  103MOL0     H13852   9.331   7.226   3.879  0.1266 -0.9164  1.5370
  103MOL0     H13853   9.393   7.320   4.020 -1.8108  0.0508  1.5725
  103MOL0     H13854   9.309   7.524   3.925 -2.5528  1.4569 -2.1948
  103MOL0     H13855   9.403   7.431   3.800  1.1762  2.5125  1.8776
  103MOL0     H13856   9.052   7.557   3.925  1.2083  1.0922  0.6332
  103MOL0     H13857   8.845   7.547   3.585  2.7872 -1.6076 -0.2741
  103MOL0     H13858   8.819   7.565   3.756 -2.5192  0.7677 -2.4020
  103MOL0     H13859   8.979   7.765   3.750 -0.2037  0.4108  1.5633
  103MOL0     H13860   8.950   7.781   3.574 -0.5689 -1.3824 -0.3582
  103MOL0     H13861   8.736   7.790   3.791 -0.2707  0.1903 -0.6543
  103MOL0     H13862   8.701   7.759   3.615  1.4563  2.0773 -2.0884
  103MOL0     H13863   8.875   7.998   3.702  1.4981 -1.1920 -0.7120
  103MOL0     H13864   8.711   8.020   3.737  0.1153  0.5879  0.8408
  103MOL0     H13865   8.583   7.975   3.309  0.2603 -1.2868  1.0409
  103MOL0     H13866   8.455   8.156   3.239 -0.8240  0.2170  0.6436
  103MOL0     H13867   8.399   8.672   3.240 -1.0059  0.0389  0.9928
  103MOL0     H13868   8.268   8.824   3.131 -0.0077  0.4128 -1.3810
  103MOL0     H13869   8.229   8.793   2.855  0.8888 -1.6348 -4.8944
  103MOL0     H13870   8.103   8.707   2.780 -4.1446 -1.0082  1.6920
  103MOL0     H13871   8.108   8.960   2.710  0.6134  1.0751  0.7854
  103MOL0     H13872   7.963   8.895   2.794 -0.2026 -0.0018  0.8654
  103MOL0     H13873   8.032   9.129   2.882 -3.1375 -0.9944 -0.2355
  103MOL0     H13874   8.053   9.001   3.008  0.2721  0.2775 -0.1992
  103MOL0     H13875   8.286   9.021   3.007 -1.1432 -0.8392 -0.9753
  103MOL0     H13876   8.230   9.185   2.992 -1.8337 -0.9148  0.9933
  103MOL0     H13877   8.272   9.212   2.764  4.1149  2.2656  1.8528
  103MOL0     H13878   8.285   9.030   2.744 -0.6182 -0.4031  1.5831
  103MOL0     H13879   8.487   9.194   2.905  1.7127  1.5175 -2.0548
  103MOL0     H13880   8.486   9.016   2.854 -1.3481 -1.0398  1.7698
  103MOL0     H13881   8.508   9.096   2.626 -0.0154 -0.8885  0.6282
  103MOL0     H13882   8.636   9.151   2.734 -0.2987 -2.4580  1.1547
  103MOL0     H13883   8.404   9.318   2.618  0.8282  2.9058  0.8561
  103MOL0     H13884   8.475   9.367   2.760 -0.3117 -0.5467 -0.4074
  103MOL0     H13885   8.008   8.511   3.006  1.8500 -2.6123 -1.7540
  103MOL0     H13886   8.151   8.347   3.132 -1.1782  0.6303  1.0073
  103MOL0     H13887   8.611   8.400   3.550 -0.5310 -0.3579  0.0062
  103MOL0     H13888   8.756   8.226   3.627 -0.7159  2.6724  0.1560
  103MOL0     H13889   8.866   6.657   4.354 -4.6224 -0.3418 -0.7895
  103MOL0     H13890   8.895   6.410   4.309  1.8661  1.1383  1.2338
  103MOL0     H13891   8.742   6.072   4.027  0.2302 -0.6769  0.3675
  103MOL0     H13892   8.721   5.836   4.019 -1.0902  1.6861 -0.3010
  103MOL0     H13893   8.743   5.561   4.064 -2.0525 -3.2588  2.5026
  103MOL0     H13894   8.729   5.664   4.210  0.3373 -0.2330  0.7547
  103MOL0     H13895   8.708   5.444   4.283  0.8403 -2.9227  1.2483
  103MOL0     H13896   8.855   5.519   4.331 -0.9360  1.7898 -0.0266
  103MOL0     H13897   8.964   5.322   4.258  0.7652 -0.4342 -0.3543
  103MOL0     H13898   8.953   5.403   4.111  0.5094  0.6053 -0.2208
  103MOL0     H13899   8.757   5.253   4.041 -0.4757 -1.8360 -0.8329
  103MOL0     H13900   8.878   5.165   4.130  0.3419  0.6705  1.0789
  103MOL0     H13901   8.496   5.151   4.339 -1.6790 -1.0794 -0.5815
  103MOL0     H13902   9.116   5.801   4.191  0.6354 -1.2590 -3.4611
  103MOL0     H13903   9.241   5.972   4.253 -0.8844 -0.1576  1.4627
  103MOL0     H13904   9.259   6.101   4.129 -0.3092 -0.5058  0.6244
  103MOL0     H13905   9.164   6.128   4.272  0.2503  0.9330  0.0228
  104MOL0     O13906   6.128   6.093  11.322  0.5825 -0.1102  0.5321
  104MOL0     C13907   6.244   6.054  11.313  0.3608 -1.2636  0.1793
  104MOL0     O13908   6.333   6.106  11.221  0.4292  0.2930 -0.6018
  104MOL0     C13909   6.282   6.154  11.098  0.3791  0.5878 -1.5578
  104MOL0     C13910   6.253   6.295  11.085  0.5253  0.6171  0.0094
  104MOL0     C13911   6.194   6.336  10.963 -0.0373  0.1001 -0.6853
  104MOL0     C13912   6.184   6.242  10.848  0.6120  0.0647  0.0570
  104MOL0     O13913   6.127   6.279  10.733 -0.0242  0.2293  0.2609
  104MOL0     C13914   6.086   6.418  10.716 -0.7355  0.5299 -0.1890
  104MOL0     C13915   6.032   6.432  10.577 -0.9501  0.4459 -0.9023
  104MOL0     C13916   5.982   6.581  10.537  0.0631  0.3485  0.9620
  104MOL0     C13917   5.864   6.608  10.621  1.3737 -0.5955 -0.1267
  104MOL0     C13918   5.787   6.733  10.566  0.6562  0.4854  0.3176
  104MOL0     C13919   5.679   6.678  10.470  0.0156  0.0699 -0.0462
  104MOL0     C13920   5.602   6.793  10.406  0.2572  0.5906 -0.4957
  104MOL0     C13921   5.527   6.755  10.284 -0.6157  0.2568 -0.9586
  104MOL0     N13922   5.611   6.771  10.168 -0.0616 -0.2280 -0.2088
  104MOL0     C13923   5.666   6.654  10.109  0.1991 -0.4047 -0.6081
  104MOL0     C13924   5.677   6.681   9.979 -0.2898  0.4217  0.4126
  104MOL0     C13925   5.764   6.610   9.881 -0.5073 -0.7077  1.3475
  104MOL0     C13926   5.919   6.638   9.897  0.3713 -0.3379  0.2846
  104MOL0     C13927   6.002   6.521   9.842  0.5439 -0.1405  0.3079
  104MOL0     C13928   6.008   6.394   9.930  0.2904  0.1122 -0.3621
  104MOL0     O13929   6.046   6.429  10.062 -0.6593 -0.3766 -0.0817
  104MOL0     C13930   6.178   6.417  10.093 -0.1744 -0.7692 -0.5520
  104MOL0     C13931   6.213   6.497  10.201  0.0276  0.2252  0.9600
  104MOL0     C13932   6.342   6.498  10.260 -0.0807  0.4243  0.1372
  104MOL0     C13933   6.427   6.394  10.215  0.2777  0.1367 -0.7990
  104MOL0     C13934   6.569   6.388  10.249  0.1397 -0.5230  0.1822
  104MOL0     O13935   6.636   6.266  10.226  0.1752 -0.5183  0.7500
  104MOL0     C13936   6.775   6.258  10.245  0.0228  0.0250  1.0209
  104MOL0     C13937   6.822   6.202  10.359 -0.0659  0.4056 -0.0116
  104MOL0     C13938   6.959   6.182  10.380  0.1488 -0.3855  0.0522
  104MOL0     C13939   7.063   6.220  10.271  0.9229  0.0994 -0.5757
  104MOL0     O13940   7.198   6.192  10.287  0.7490 -0.5230  0.1362
  104MOL0     C13941   7.268   6.154  10.164  0.5651 -0.8260 -0.1237
  104MOL0     C13942   7.332   6.282  10.109 -0.7727  0.2533  0.9417
  104MOL0     C13943   7.434   6.231  10.015 -0.6687 -0.7382  0.2990
  104MOL0     C13944   7.515   6.364   9.966 -0.3802 -0.4832  1.0736
  104MOL0     C13945   7.644   6.317   9.880  0.9144 -0.0467  0.5353
  104MOL0     C13946   7.753   6.248   9.960 -0.3957 -0.1173 -1.3376
  104MOL0     C13947   7.865   6.194   9.875  0.7939 -0.1971  0.7091
  104MOL0     C13948   7.974   6.138   9.954 -0.5154  0.0374 -0.4290
  104MOL0    Cl13949   8.100   6.257  10.004 -0.1547  0.1148  0.2576
  104MOL0     C13950   7.007   6.276  10.156 -0.2865  0.7915 -0.0950
  104MOL0     C13951   6.872   6.297  10.148 -0.0075  0.6253 -0.3785
  104MOL0     O13952   6.620   6.488  10.295  0.3106 -0.4094  0.5070
  104MOL0     C13953   6.388   6.316  10.103 -0.0086 -0.4902 -0.1326
  104MOL0     C13954   6.271   6.333  10.044 -0.5043  1.1988  0.7126
  104MOL0     N13955   5.610   6.802   9.954 -0.2062 -0.5341  0.4580
  104MOL0     N13956   5.584   6.858  10.070  0.1331  0.1907  0.9234
  104MOL0     C13957   6.226   6.115  10.870  0.6262  0.6484  0.0756
  104MOL0     C13958   6.271   6.067  10.991 -0.7087  0.3884  0.0214
  104MOL0     C13959   6.298   5.973  11.426 -0.3492  1.2689 -0.0126
  104MOL0     C13960   6.244   6.000  11.553 -0.6059  0.6507  0.1753
  104MOL0     C13961   6.303   5.939  11.668  1.1159 -0.9347 -0.6643
  104MOL0     C13962   6.402   5.846  11.650 -0.0258  0.1007 -0.4190
  104MOL0     O13963   6.463   5.791  11.756 -0.5446  0.0489 -0.0623
  104MOL0     C13964   6.436   5.836  11.891 -0.0065  0.1823 -0.3862
  104MOL0     C13965   6.522   5.746  11.977 -0.0593 -0.0525 -0.4871
  104MOL0     C13966   6.490   5.591  11.954  0.7887  0.4569  0.0214
  104MOL0     C13967   6.496   5.486  12.068  0.2848  0.1240 -0.1566
  104MOL0     C13968   6.385   5.494  12.165 -0.2842  0.2328 -0.0949
  104MOL0     C13969   6.284   5.475  12.236  0.1277  0.0202  0.9093
  104MOL0     C13970   6.456   5.825  11.529  0.4516 -0.1323  0.3451
  104MOL0     C13971   6.407   5.882  11.411 -1.0198 -0.6973 -0.4375
  104MOL0     C13972   6.480   5.853  11.283  0.8035 -0.6804 -0.9139
  104MOL0     H13973   6.264   6.361  11.171 -0.2707  1.2610 -0.3649
  104MOL0     H13974   6.150   6.435  10.960  0.8829  0.5358 -0.2141
  104MOL0     H13975   6.007   6.433  10.790 -0.8036 -1.0914  0.1050
  104MOL0     H13976   6.170   6.487  10.732  1.6047 -1.1143 -4.0038
  104MOL0     H13977   5.955   6.358  10.552  0.2459 -0.5346 -1.8126
  104MOL0     H13978   6.119   6.401  10.518  0.0424  3.0943 -0.9690
  104MOL0     H13979   5.969   6.579  10.428  0.0344  1.4955  0.9348
  104MOL0     H13980   6.067   6.649  10.554  1.4355 -1.2263  0.6938
  104MOL0     H13981   5.791   6.528  10.633 -2.5034  2.7688  0.7223
  104MOL0     H13982   5.907   6.648  10.714 -1.9450 -0.6605  1.5602
  104MOL0     H13983   5.745   6.798  10.644 -1.3922 -0.2115 -0.1423
  104MOL0     H13984   5.851   6.798  10.506  2.3602  0.0752  1.5972
  104MOL0     H13985   5.715   6.607  10.395 -4.4736 -1.0067 -1.5090
  104MOL0     H13986   5.596   6.626  10.520  0.5732 -1.4278 -0.6457
  104MOL0     H13987   5.669   6.872  10.371 -0.5884  2.0601  1.0448
  104MOL0     H13988   5.531   6.841  10.475  1.2368 -0.3233  1.2210
  104MOL0     H13989   5.475   6.659  10.292  0.8420 -0.4402  0.7128
  104MOL0     H13990   5.444   6.826  10.279 -1.2484 -0.2578  1.2449
  104MOL0     H13991   5.710   6.571  10.162  1.1519 -1.0403 -2.3164
  104MOL0     H13992   5.744   6.503   9.892  0.4660 -1.0244  0.2615
  104MOL0     H13993   5.739   6.636   9.777  2.6129  0.5573  0.8018
  104MOL0     H13994   5.937   6.733   9.847  1.0133  1.0485  2.9696
  104MOL0     H13995   5.957   6.653   9.998 -0.3210  0.0227  0.4990
  104MOL0     H13996   6.104   6.560   9.841  0.1422  0.9342  0.5431
  104MOL0     H13997   5.982   6.487   9.740  0.6725 -0.7741  0.4831
  104MOL0     H13998   6.063   6.312   9.883  0.4389  0.1925 -0.3301
  104MOL0     H13999   5.903   6.365   9.936  0.1951  0.7046  1.8042
  104MOL0     H14000   6.129   6.561  10.225  0.1971  0.5555  0.6724
  104MOL0     H14001   6.377   6.576  10.327  3.8023  0.6562 -1.8433
  104MOL0     H14002   6.761   6.175  10.444 -1.2833  5.6252  1.1056
  104MOL0     H14003   6.996   6.151  10.477 -0.7739 -1.6927  0.0034
  104MOL0     H14004   7.359   6.111  10.205  0.3312  0.6190  2.0245
  104MOL0     H14005   7.217   6.092  10.089 -0.9731  0.0331  0.1512
  104MOL0     H14006   7.267   6.343  10.046 -1.4793  0.4434  1.8288
  104MOL0     H14007   7.378   6.343  10.188 -3.6958  0.9523  2.2313
  104MOL0     H14008   7.514   6.169  10.056 -0.2066 -1.2058 -1.2154
  104MOL0     H14009   7.388   6.180   9.930  0.9615  0.2301 -1.2421
  104MOL0     H14010   7.545   6.429  10.048 -1.0697  1.6867 -0.3249
  104MOL0     H14011   7.443   6.419   9.905  1.7593  3.0818  1.5403
  104MOL0     H14012   7.690   6.409   9.843 -2.4009  1.0060 -1.4335
  104MOL0     H14013   7.616   6.244   9.803 -0.8681 -1.0721  2.0655
  104MOL0     H14014   7.793   6.321  10.031  0.5799 -1.5751 -0.3287
  104MOL0     H14015   7.722   6.168  10.028 -2.5483 -0.3295 -2.4540
  104MOL0     H14016   7.912   6.275   9.817 -2.2047  1.0876 -0.1210
  104MOL0     H14017   7.841   6.126   9.792  0.5867  0.8002 -0.0717
  104MOL0     H14018   7.942   6.093  10.049  0.0059  1.1124  0.2734
  104MOL0     H14019   8.037   6.068   9.898 -0.5111 -0.1194 -0.2323
  104MOL0     H14020   7.069   6.293  10.069 -3.2742  0.4879 -2.4659
  104MOL0     H14021   6.835   6.349  10.060 -0.3148 -0.4834 -0.9358
  104MOL0     H14022   6.453   6.242  10.057  0.6554  0.8496 -1.4420
  104MOL0     H14023   6.251   6.268   9.959  2.4910  1.4091 -0.2837
  104MOL0     H14024   6.220   6.047  10.785 -0.6132  3.0102 -1.8568
  104MOL0     H14025   6.303   5.964  11.001 -2.2671 -0.1643 -0.3978
  104MOL0     H14026   6.163   6.071  11.568  1.0054  3.2151 -2.3012
  104MOL0     H14027   6.263   5.958  11.766  0.9746 -1.6822 -0.5702
  104MOL0     H14028   6.332   5.817  11.918 -0.1177 -0.8545 -1.4428
  104MOL0     H14029   6.459   5.942  11.905  1.4197 -0.3131  1.2835
  104MOL0     H14030   6.524   5.768  12.084 -3.7159  4.1310 -1.0223
  104MOL0     H14031   6.628   5.756  11.954  0.1931  1.3358  1.1187
  104MOL0     H14032   6.560   5.550  11.881  0.8132  0.5332  0.0026
  104MOL0     H14033   6.393   5.582  11.904  1.5214  0.9983 -1.5606
  104MOL0     H14034   6.493   5.385  12.027  2.0390 -0.9449  2.1308
  104MOL0     H14035   6.589   5.493  12.125  0.1017  1.0004  0.0419
  104MOL0     H14036   6.194   5.484  12.294  0.3911 -5.2240  2.6541
  104MOL0     H14037   6.544   5.762  11.518  1.5398  1.6333 -1.8770
  104MOL0     H14038   6.555   5.930  11.264  1.4262 -1.0226  0.0724
  104MOL0     H14039   6.527   5.754  11.279 -2.0810 -2.3652  1.7568
  104MOL0     H14040   6.410   5.852  11.199  0.2070  2.9195 -0.5917
  105MOL0     O14041  10.645   1.496   2.171  0.0467 -0.1521 -0.0324
  105MOL0     C14042  10.725   1.526   2.261  0.9099  0.2462  0.0719
  105MOL0     O14043  10.855   1.578   2.246 -0.0812 -0.5840  0.5488
  105MOL0     C14044  10.895   1.631   2.127  0.1476  0.0394  0.2966
  105MOL0     C14045  10.831   1.748   2.074  0.3972  0.9665  0.7331
  105MOL0     C14046  10.885   1.805   1.964  0.4390 -0.1216 -0.5619
  105MOL0     C14047  10.980   1.748   1.886 -0.0952 -0.4259 -0.8227
  105MOL0     O14048  11.028   1.825   1.792 -0.1950 -0.4134 -0.4020
  105MOL0     C14049  11.141   1.776   1.711  0.9662 -0.3861  0.1782
  105MOL0     C14050  11.164   1.877   1.611  1.1335 -0.4985 -0.0185
  105MOL0     C14051  11.267   1.831   1.512  0.1581  0.3181  0.2104
  105MOL0     C14052  11.337   1.948   1.445  0.4149 -0.1882 -0.1045
  105MOL0     C14053  11.407   1.899   1.315  0.5189 -1.2087  0.0696
  105MOL0     C14054  11.494   2.012   1.250 -0.6829 -0.3787  0.0596
  105MOL0     C14055  11.419   2.145   1.203  0.0040  0.2400  0.6892
  105MOL0     C14056  11.484   2.227   1.095  0.0432 -0.7820  0.5600
  105MOL0     N14057  11.632   2.251   1.108  0.6357 -0.8035 -0.7336
  105MOL0     C14058  11.722   2.159   1.084  0.2166  0.2380  0.2072
  105MOL0     C14059  11.843   2.204   1.127 -0.2869 -0.4942 -0.3119
  105MOL0     C14060  11.965   2.118   1.111  0.2410  0.8493 -0.2508
  105MOL0     C14061  11.985   2.034   1.238  0.0213 -0.3889 -0.7599
  105MOL0     C14062  11.874   1.930   1.268 -0.0276  0.2673  0.1621
  105MOL0     C14063  11.939   1.791   1.313  0.9015 -0.7215 -0.2174
  105MOL0     O14064  11.833   1.690   1.315  1.5798  0.5671 -0.1386
  105MOL0     C14065  11.749   1.676   1.428 -0.1762 -0.9744 -0.6333
  105MOL0     C14066  11.762   1.760   1.546  0.5755  0.4319  0.1351
  105MOL0     C14067  11.676   1.746   1.652  0.2910  0.9505  0.6182
  105MOL0     C14068  11.579   1.646   1.652  0.7842 -0.0929 -0.2079
  105MOL0     C14069  11.488   1.642   1.762  0.2547 -0.4350 -0.3919
  105MOL0     O14070  11.525   1.698   1.871 -0.8443 -0.8478  0.5583
  105MOL0     C14071  11.457   1.653   1.988 -0.7284  0.1510  0.2035
  105MOL0     C14072  11.490   1.534   2.045  0.3809  0.3716 -0.4180
  105MOL0     C14073  11.430   1.494   2.162 -0.1833 -0.3786  0.5387
  105MOL0     C14074  11.331   1.563   2.224 -0.2692  0.3097  0.1606
  105MOL0     O14075  11.268   1.507   2.334 -0.4621  0.8385  0.2851
  105MOL0     C14076  11.233   1.602   2.437  0.2211  0.8562  0.2053
  105MOL0     C14077  11.087   1.627   2.428 -1.0065  0.1410  0.0605
  105MOL0     C14078  11.012   1.716   2.526  0.6130 -0.6849 -0.1912
  105MOL0     C14079  11.025   1.687   2.676 -0.2478  0.7694 -0.3195
  105MOL0     C14080  10.922   1.760   2.766 -0.0850 -1.0252  0.5364
  105MOL0     C14081  10.946   1.724   2.913  0.6462  0.2791 -0.3009
  105MOL0     C14082  10.815   1.743   2.986  0.3194 -0.3815 -0.1815
  105MOL0     C14083  10.782   1.897   2.979 -0.1741 -0.3769 -0.7194
  105MOL0    Cl14084  10.660   1.919   3.105  0.0963 -0.2940  0.1668
  105MOL0     C14085  11.293   1.685   2.167 -0.4668 -0.1044 -0.6977
  105MOL0     C14086  11.350   1.731   2.045 -0.1760  0.2935  0.5251
  105MOL0     O14087  11.389   1.575   1.740  0.1867  0.2342 -0.1945
  105MOL0     C14088  11.571   1.567   1.534 -0.4162  0.1037 -0.1925
  105MOL0     C14089  11.646   1.579   1.422  0.1102  0.5512 -1.0962
  105MOL0     N14090  11.832   2.339   1.172  1.2504 -0.6997  0.0255
  105MOL0     N14091  11.696   2.361   1.159 -1.0695 -0.4850  0.3873
  105MOL0     C14092  11.023   1.627   1.931 -0.3178 -0.3617  0.0131
  105MOL0     C14093  10.982   1.569   2.048 -0.3848  0.2530  0.0578
  105MOL0     C14094  10.684   1.524   2.401 -0.6883 -0.2821 -0.3441
  105MOL0     C14095  10.604   1.624   2.459  0.4835 -0.2442  0.3236
  105MOL0     C14096  10.569   1.628   2.596  0.4539  0.5659  0.1429
  105MOL0     C14097  10.598   1.520   2.680  1.1075 -0.7280  0.4178
  105MOL0     O14098  10.567   1.509   2.820 -0.3679 -0.2713  0.2775
  105MOL0     C14099  10.459   1.590   2.868 -0.0908 -0.6719  0.4820
  105MOL0     C14100  10.330   1.565   2.795 -0.0856  0.6002 -0.1920
  105MOL0     C14101  10.281   1.430   2.829  0.0971 -0.1117  0.1591
  105MOL0     C14102  10.150   1.409   2.777  0.5099 -0.9463 -0.0546
  105MOL0     C14103  10.071   1.313   2.854 -0.2720 -0.0712  0.3538
  105MOL0     C14104  10.015   1.218   2.901  0.3975 -0.6975 -0.5469
  105MOL0     C14105  10.665   1.417   2.624  1.0410 -0.2032 -0.8450
  105MOL0     C14106  10.708   1.409   2.490 -1.0576  0.5530 -0.3131
  105MOL0     C14107  10.803   1.296   2.457  0.2143  0.0882  0.6321
  105MOL0     H14108  10.747   1.801   2.118 -0.9351 -0.5937  0.1672
  105MOL0     H14109  10.851   1.896   1.915  1.5021  0.8881  0.5094
  105MOL0     H14110  11.234   1.761   1.767  1.5249  1.1359 -0.2629
  105MOL0     H14111  11.110   1.676   1.679  2.1095 -0.9188  0.6777
  105MOL0     H14112  11.197   1.971   1.656  0.4461  0.6510 -1.8128
  105MOL0     H14113  11.068   1.909   1.569  1.8811 -0.3696 -1.7101
  105MOL0     H14114  11.216   1.764   1.443 -1.5101  0.5397  1.1681
  105MOL0     H14115  11.347   1.773   1.559 -0.4058 -1.2056 -0.6158
  105MOL0     H14116  11.255   2.018   1.425 -1.1195 -1.2150  2.0976
  105MOL0     H14117  11.400   2.008   1.511 -1.6708  0.8065  1.0859
  105MOL0     H14118  11.479   1.821   1.341 -2.0172 -3.7446 -0.0884
  105MOL0     H14119  11.335   1.862   1.243 -1.5523  1.3844  0.6633
  105MOL0     H14120  11.568   2.043   1.324  3.9965 -2.1712 -3.3521
  105MOL0     H14121  11.548   1.967   1.166  1.2789  1.0902  0.4597
  105MOL0     H14122  11.401   2.204   1.293 -2.3486  0.4871  0.1094
  105MOL0     H14123  11.320   2.112   1.173 -0.0950  0.5823  0.6351
  105MOL0     H14124  11.472   2.181   0.997  0.7231 -2.8461  1.3931
  105MOL0     H14125  11.431   2.322   1.087  2.5609  0.7523  1.0422
  105MOL0     H14126  11.697   2.060   1.047 -2.5370  0.7633  0.5161
  105MOL0     H14127  11.942   2.063   1.019 -1.0508 -0.2020  0.6488
  105MOL0     H14128  12.050   2.184   1.096 -0.3379  1.7505  0.3359
  105MOL0     H14129  12.085   1.990   1.236 -0.6093 -1.8799 -0.9515
  105MOL0     H14130  11.987   2.107   1.319  2.2152 -1.8402  0.6100
  105MOL0     H14131  11.816   1.906   1.178 -1.6366  2.9814  0.3691
  105MOL0     H14132  11.798   1.975   1.332 -1.5747 -0.0919 -1.3263
  105MOL0     H14133  11.996   1.794   1.406 -0.0001 -4.5355  0.6018
  105MOL0     H14134  12.007   1.759   1.233  0.9357 -2.1868  0.3807
  105MOL0     H14135  11.835   1.838   1.531  0.9592  0.2339  0.9185
  105MOL0     H14136  11.680   1.820   1.732 -0.6524  2.2567 -0.4911
  105MOL0     H14137  11.567   1.466   2.010  0.8956 -0.1778  1.6729
  105MOL0     H14138  11.469   1.407   2.214 -0.9917  0.5588  2.8644
  105MOL0     H14139  11.254   1.550   2.532 -1.2631 -1.0857 -0.4574
  105MOL0     H14140  11.304   1.685   2.436  4.0806 -2.1454 -0.0374
  105MOL0     H14141  11.069   1.657   2.324 -1.5357 -0.7127 -0.1053
  105MOL0     H14142  11.053   1.524   2.443  0.1235 -0.1466  0.7993
  105MOL0     H14143  11.054   1.816   2.512  1.5253 -0.8015  1.5714
  105MOL0     H14144  10.904   1.713   2.512 -0.1472  1.5752  3.7357
  105MOL0     H14145  11.127   1.719   2.699 -0.2522 -0.0240  0.8541
  105MOL0     H14146  11.013   1.580   2.692  0.8067  0.6786 -0.0705
  105MOL0     H14147  10.823   1.729   2.731 -0.1196  1.3025 -1.7526
  105MOL0     H14148  10.938   1.867   2.752  1.5957 -1.2938  0.0453
  105MOL0     H14149  10.964   1.616   2.918 -1.2043 -0.1293 -1.2834
  105MOL0     H14150  11.029   1.788   2.944  3.2486 -3.2589  0.6492
  105MOL0     H14151  10.828   1.738   3.095  0.5791  1.4511 -0.0970
  105MOL0     H14152  10.724   1.697   2.948 -1.2079  1.2672  1.3116
  105MOL0     H14153  10.867   1.962   3.003 -0.0367 -1.0139  0.5927
  105MOL0     H14154  10.735   1.920   2.883 -1.1267 -1.3161 -0.4909
  105MOL0     H14155  11.212   1.738   2.217 -3.4053 -3.2771 -1.7185
  105MOL0     H14156  11.326   1.819   1.987  1.8864 -0.8867 -2.3897
  105MOL0     H14157  11.495   1.489   1.532  0.2800 -0.7019  1.8914
  105MOL0     H14158  11.639   1.531   1.324  2.8912 -1.2862 -0.4988
  105MOL0     H14159  11.099   1.569   1.880 -2.6369 -4.3119  0.5824
  105MOL0     H14160  11.020   1.471   2.075 -1.3418 -0.4155 -0.9748
  105MOL0     H14161  10.572   1.699   2.387  0.0760 -1.3248 -0.6582
  105MOL0     H14162  10.505   1.713   2.619  1.6687  1.6991 -0.4712
  105MOL0     H14163  10.492   1.694   2.867  0.1475 -0.7480  0.4858
  105MOL0     H14164  10.438   1.560   2.971  0.8878  0.5497  1.0509
  105MOL0     H14165  10.349   1.570   2.688  5.2912 -0.1879  0.4747
  105MOL0     H14166  10.252   1.639   2.816  0.6307  1.3131  0.0149
  105MOL0     H14167  10.276   1.406   2.936  2.4176 -5.1416 -0.5215
  105MOL0     H14168  10.352   1.356   2.791 -2.6584 -2.2765 -1.1070
  105MOL0     H14169  10.097   1.505   2.771  0.6213 -0.8539  0.4225
  105MOL0     H14170  10.161   1.369   2.676 -2.1820 -1.0440 -0.3945
  105MOL0     H14171   9.961   1.138   2.947  1.9619 -0.9487  0.9648
  105MOL0     H14172  10.684   1.336   2.693  1.3799  1.6877  1.3926
  105MOL0     H14173  10.902   1.341   2.470  0.7578 -0.8643 -0.1332
  105MOL0     H14174  10.788   1.206   2.518 -1.1153  0.3760  0.7762
  105MOL0     H14175  10.798   1.269   2.352 -0.6263  5.1606 -0.9115
  106MOL0     O14176   0.011   1.929   8.786  0.1175 -0.2023 -0.5367
  106MOL0     C14177   0.074   1.860   8.699 -0.0105  0.3426  0.5256
  106MOL0     O14178   0.202   1.882   8.672  0.3347 -0.3108 -0.1577
  106MOL0     C14179   0.285   1.961   8.745 -0.5545 -0.0418 -0.2831
  106MOL0     C14180   0.266   2.099   8.771  0.0356  0.9523 -0.5411
  106MOL0     C14181   0.315   2.150   8.890 -0.1311 -0.0834  0.7393
  106MOL0     C14182   0.418   2.083   8.956 -0.5746  0.0232  0.9502
  106MOL0     O14183   0.470   2.131   9.079  0.3524 -0.0661 -0.3278
  106MOL0     C14184   0.387   2.212   9.170  0.4215  0.8115 -0.1129
  106MOL0     C14185   0.350   2.145   9.304 -0.4884 -0.0583  0.6304
  106MOL0     C14186   0.257   2.021   9.302 -0.0571 -0.2256  0.0615
  106MOL0     C14187   0.141   2.053   9.208 -0.1094  0.7944  0.3664
  106MOL0     C14188   0.050   2.175   9.247 -0.1670  0.7939 -0.7048
  106MOL0     C14189  -0.083   2.163   9.182 -0.0189 -0.9549  0.3076
  106MOL0     C14190  -0.086   2.165   9.020 -1.1129  1.3379 -0.6371
  106MOL0     C14191  -0.211   2.144   8.940 -0.7359 -0.0561  0.2260
  106MOL0     N14192  -0.288   2.039   9.004  0.1101  0.9049 -0.2293
  106MOL0     C14193  -0.266   1.904   8.994  1.0036  0.4912  0.5288
  106MOL0     C14194  -0.372   1.837   9.058  0.4355  0.3991  0.2713
  106MOL0     C14195  -0.393   1.690   9.063 -1.0197 -1.0793  0.6485
  106MOL0     C14196  -0.292   1.622   9.142  0.3524 -0.6485  0.2033
  106MOL0     C14197  -0.139   1.621   9.104  0.2834 -0.4534  0.3243
  106MOL0     C14198  -0.116   1.553   8.963 -0.2384 -0.4219  0.1642
  106MOL0     O14199  -0.184   1.427   8.959  0.2143 -0.3767 -0.3960
  106MOL0     C14200  -0.125   1.316   9.019  0.2891 -0.2513  0.0567
  106MOL0     C14201  -0.000   1.306   9.075 -0.2398  0.6969 -0.4150
  106MOL0     C14202   0.040   1.188   9.137 -0.3206 -0.5932 -0.2721
  106MOL0     C14203  -0.024   1.069   9.132 -0.0365  0.1828  0.3315
  106MOL0     C14204   0.027   0.937   9.184 -1.4200 -0.7272 -0.0671
  106MOL0     O14205   0.142   0.939   9.265 -0.6207 -0.7021 -0.6676
  106MOL0     C14206   0.200   0.824   9.307 -0.1390 -0.2099 -0.0519
  106MOL0     C14207   0.274   0.836   9.422  0.3753  0.6804 -0.7057
  106MOL0     C14208   0.343   0.733   9.491  0.4650 -0.2265  0.1288
  106MOL0     C14209   0.347   0.617   9.430 -0.3786  0.3576  0.1952
  106MOL0     O14210   0.398   0.509   9.489  0.8682  0.2088 -0.0390
  106MOL0     C14211   0.526   0.530   9.554 -0.6054  0.3571  0.7521
  106MOL0     C14212   0.613   0.412   9.523 -0.2515  0.2418 -0.0619
  106MOL0     C14213   0.747   0.431   9.594 -0.5225  0.0130  0.5634
  106MOL0     C14214   0.744   0.421   9.742 -0.1025 -0.3672  0.0425
  106MOL0     C14215   0.892   0.400   9.779  0.3937  0.0547  0.3221
  106MOL0     C14216   0.917   0.398   9.928 -0.3020 -0.9681 -0.6359
  106MOL0     C14217   0.865   0.265   9.994 -0.4824  0.2723  0.6612
  106MOL0     C14218   0.789   0.279  10.128  0.0768 -0.1007  0.0604
  106MOL0    Cl14219   0.912   0.347  10.248 -0.3511 -0.4395 -0.2156
  106MOL0     C14220   0.274   0.594   9.312  0.2552  0.2311  0.6816
  106MOL0     C14221   0.209   0.697   9.246 -0.0231 -0.7710  0.4651
  106MOL0     O14222  -0.039   0.844   9.144 -0.5121 -0.5299  0.2841
  106MOL0     C14223  -0.156   1.077   9.080 -1.8415  0.2782 -0.4429
  106MOL0     C14224  -0.209   1.203   9.025  0.7621  0.0998  0.1771
  106MOL0     N14225  -0.449   1.935   9.117  0.0357 -0.4753 -0.4520
  106MOL0     N14226  -0.393   2.056   9.088  0.2725  0.8640  1.1097
  106MOL0     C14227   0.462   1.956   8.914  0.2921 -0.4936 -0.1434
  106MOL0     C14228   0.385   1.892   8.814  0.6652 -0.4486 -0.0265
  106MOL0     C14229   0.014   1.737   8.650  1.0875  0.4050 -0.1228
  106MOL0     C14230   0.079   1.624   8.631 -0.3019  0.5603  0.0506
  106MOL0     C14231   0.022   1.499   8.626 -0.6143  1.2764  0.7469
  106MOL0     C14232  -0.109   1.483   8.591  0.6022  0.1658 -1.1505
  106MOL0     O14233  -0.158   1.360   8.556  0.4051  0.5342  0.0246
  106MOL0     C14234  -0.302   1.319   8.585 -0.2075 -0.9411  0.0430
  106MOL0     C14235  -0.328   1.173   8.552 -0.2922  0.1439  0.5115
  106MOL0     C14236  -0.472   1.137   8.569  0.3064  0.5903 -0.3086
  106MOL0     C14237  -0.515   1.113   8.716 -0.1292 -0.0581  0.1083
  106MOL0     C14238  -0.540   1.242   8.787  0.4138 -0.5160 -0.8438
  106MOL0     C14239  -0.559   1.346   8.834  0.2605 -0.2347 -1.0890
  106MOL0     C14240  -0.185   1.599   8.597  0.4847  0.4433 -0.5158
  106MOL0     C14241  -0.133   1.722   8.641  0.0188 -0.8534  0.2638
  106MOL0     C14242  -0.229   1.836   8.650  0.9157  1.3987  0.7307
  106MOL0     H14243   0.197   2.149   8.703 -1.8782 -4.7201 -3.4580
  106MOL0     H14244   0.281   2.248   8.922 -1.2525 -0.3203  0.2856
  106MOL0     H14245   0.439   2.306   9.192  1.5681 -0.3858  2.7044
  106MOL0     H14246   0.292   2.249   9.130 -0.2800 -0.9652 -0.1665
  106MOL0     H14247   0.294   2.218   9.364  0.1860  1.0534 -0.0617
  106MOL0     H14248   0.442   2.111   9.351 -0.0698 -0.8910 -0.7208
  106MOL0     H14249   0.223   1.997   9.403 -1.1266  3.2176  0.6166
  106MOL0     H14250   0.316   1.936   9.266  1.4101 -0.4162  2.6236
  106MOL0     H14251   0.186   2.066   9.109  0.3064 -0.8635  0.3133
  106MOL0     H14252   0.074   1.967   9.214  2.5387 -1.4627 -0.7522
  106MOL0     H14253   0.046   2.168   9.356 -0.5078 -3.5750 -0.8573
  106MOL0     H14254   0.091   2.272   9.215  1.3447  0.5116  0.3217
  106MOL0     H14255  -0.135   2.073   9.218 -3.4439  0.6166 -0.3402
  106MOL0     H14256  -0.149   2.244   9.214  0.6250  0.2798 -1.3455
  106MOL0     H14257  -0.018   2.084   8.992  1.1371  2.1107  2.0726
  106MOL0     H14258  -0.030   2.254   8.988  0.0707  1.0837  0.6275
  106MOL0     H14259  -0.263   2.237   8.962  3.0053  2.1436  0.7543
  106MOL0     H14260  -0.192   2.131   8.833 -0.2865  1.2562  0.1302
  106MOL0     H14261  -0.175   1.865   8.951  0.8184  1.1738 -0.5211
  106MOL0     H14262  -0.496   1.679   9.100 -0.3839  1.6769  3.7220
  106MOL0     H14263  -0.378   1.646   8.964  0.4787  0.6190  0.0735
  106MOL0     H14264  -0.303   1.657   9.246  0.5952  4.8084 -1.2920
  106MOL0     H14265  -0.339   1.523   9.139 -1.0983  0.0355 -1.1105
  106MOL0     H14266  -0.082   1.572   9.184 -1.3508  1.4776  2.8277
  106MOL0     H14267  -0.107   1.725   9.108 -2.9649  0.6906 -0.3964
  106MOL0     H14268  -0.007   1.538   8.960  0.0177  1.1817 -3.1612
  106MOL0     H14269  -0.136   1.616   8.876 -1.8220 -0.6135  0.3726
  106MOL0     H14270   0.075   1.383   9.086 -0.5190  0.6352  2.5720
  106MOL0     H14271   0.130   1.194   9.198 -0.6676 -2.3345  0.4548
  106MOL0     H14272   0.272   0.939   9.455  0.8378 -0.2099  2.3989
  106MOL0     H14273   0.402   0.752   9.580  0.4063  2.8930 -0.3567
  106MOL0     H14274   0.574   0.617   9.508 -1.3616 -0.0679 -0.9519
  106MOL0     H14275   0.518   0.534   9.663  2.3494 -1.2715  1.1362
  106MOL0     H14276   0.576   0.321   9.571  2.0749 -0.4808  0.5091
  106MOL0     H14277   0.626   0.394   9.416  2.8507  0.2298  0.2274
  106MOL0     H14278   0.809   0.351   9.554 -0.2313 -0.2904  1.5970
  106MOL0     H14279   0.794   0.526   9.566  1.4827 -0.7251  1.2956
  106MOL0     H14280   0.684   0.335   9.772  1.4123 -2.1928 -1.8853
  106MOL0     H14281   0.712   0.516   9.787  2.4828 -1.0242  3.6791
  106MOL0     H14282   0.952   0.483   9.741 -3.0639  3.5082  1.7088
  106MOL0     H14283   0.922   0.301   9.742 -1.4600 -0.0302 -1.1167
  106MOL0     H14284   1.025   0.390   9.940 -0.2866 -5.1641 -1.7643
  106MOL0     H14285   0.865   0.481   9.978 -0.3139 -0.5640 -1.3126
  106MOL0     H14286   0.951   0.199  10.008 -0.0982 -0.2192 -2.9622
  106MOL0     H14287   0.805   0.210   9.921 -1.3123  0.8518  0.8907
  106MOL0     H14288   0.703   0.341  10.101  0.7947  0.2737 -1.4782
  106MOL0     H14289   0.752   0.179  10.155  4.4262 -2.3131 -1.2853
  106MOL0     H14290   0.256   0.497   9.265 -1.0880  1.2930 -1.1463
  106MOL0     H14291   0.153   0.675   9.155 -0.4886  3.0559 -0.3716
  106MOL0     H14292  -0.209   0.983   9.070  1.9091 -1.8915 -2.1298
  106MOL0     H14293  -0.311   1.215   8.990  0.4324  4.3415  1.9636
  106MOL0     H14294   0.539   1.898   8.964 -2.0044 -3.9494 -0.3007
  106MOL0     H14295   0.392   1.787   8.786 -0.3915 -0.4040 -0.5118
  106MOL0     H14296   0.188   1.624   8.640 -0.3777 -2.4225  3.7540
  106MOL0     H14297   0.093   1.418   8.623 -1.5691  0.2782  3.0253
  106MOL0     H14298  -0.378   1.376   8.531 -0.2503  0.2016  1.2849
  106MOL0     H14299  -0.311   1.338   8.692 -4.0966 -0.7826 -0.1794
  106MOL0     H14300  -0.267   1.106   8.614 -1.8628 -0.9425  0.9533
  106MOL0     H14301  -0.305   1.146   8.448 -1.1959 -4.5124  1.2832
  106MOL0     H14302  -0.496   1.042   8.520  0.2678  0.2701  0.3144
  106MOL0     H14303  -0.533   1.211   8.515  1.4711  0.6444 -1.5927
  106MOL0     H14304  -0.615   1.073   8.735 -0.0548 -0.2757  0.0424
  106MOL0     H14305  -0.435   1.058   8.765 -0.0521 -1.2057 -1.2316
  106MOL0     H14306  -0.609   1.434   8.871  1.1467 -0.2167  0.1065
  106MOL0     H14307  -0.286   1.604   8.556  1.2972  0.0918 -2.7014
  106MOL0     H14308  -0.334   1.807   8.634  1.0530  1.2471  0.0622
  106MOL0     H14309  -0.236   1.882   8.749  2.8473  2.4916  0.4077
  106MOL0     H14310  -0.206   1.907   8.571 -0.9922 -0.8049 -2.0237
  107MOL0     O14311   6.037   9.989   7.311  0.6166  0.0949 -0.1605
  107MOL0     C14312   6.123  10.025   7.391 -0.3263 -0.1902  0.3829
  107MOL0     O14313   6.148  10.149   7.440  0.9059 -0.0062  0.3944
  107MOL0     C14314   6.074  10.257   7.389 -0.4488 -0.0358  0.0555
  107MOL0     C14315   5.968  10.314   7.464  0.5280 -0.0571 -0.8485
  107MOL0     C14316   5.894  10.425   7.425 -0.1844  0.2793  0.3111
  107MOL0     C14317   5.906  10.464   7.290  0.0256  0.3931 -0.0391
  107MOL0     O14318   5.815  10.565   7.267  0.1246  0.5688  0.4899
  107MOL0     C14319   5.757  10.558   7.140 -1.1593 -0.1124  0.5722
  107MOL0     C14320   5.603  10.546   7.149  1.1260 -0.2959  0.1073
  107MOL0     C14321   5.530  10.582   7.022 -0.6772 -0.1762  0.1954
  107MOL0     C14322   5.401  10.653   7.043 -0.0591 -0.2320 -0.2896
  107MOL0     C14323   5.332  10.717   6.923 -0.3552 -0.1729  0.2416
  107MOL0     C14324   5.420  10.811   6.843 -0.0725  0.8985  0.2923
  107MOL0     C14325   5.345  10.889   6.730 -0.6528 -0.4571 -0.3825
  107MOL0     C14326   5.309  11.038   6.763 -0.4460  0.6541 -0.4904
  107MOL0     N14327   5.240  11.101   6.655 -1.0445 -0.5070  0.7783
  107MOL0     C14328   5.099  11.107   6.636  0.1371  0.2988 -0.3323
  107MOL0     C14329   5.086  11.152   6.509 -0.1070 -1.0395 -1.0404
  107MOL0     C14330   4.950  11.172   6.446  1.0801 -0.0166 -0.0390
  107MOL0     C14331   4.901  11.317   6.451  0.3539 -0.1328 -0.1116
  107MOL0     C14332   4.999  11.413   6.373  0.4804  0.2737  0.7999
  107MOL0     C14333   4.970  11.550   6.386  1.0570  0.2389 -0.0662
  107MOL0     O14334   4.964  11.603   6.530  0.2068 -0.1275  0.1057
  107MOL0     C14335   5.041  11.719   6.569  0.4589  0.1745  0.0413
  107MOL0     C14336   5.174  11.737   6.518  0.5770 -0.1638  0.1048
  107MOL0     C14337   5.248  11.852   6.553 -0.4289 -0.4167  0.9459
  107MOL0     C14338   5.193  11.946   6.643  0.3197 -1.1517  1.0928
  107MOL0     C14339   5.268  12.076   6.676 -0.1706 -0.5810  0.4927
  107MOL0     O14340   5.404  12.077   6.649 -0.1744  1.4081 -0.4991
  107MOL0     C14341   5.477  12.185   6.690 -0.6151 -0.6082 -0.2771
  107MOL0     C14342   5.571  12.173   6.795 -0.4498  0.6022  0.0549
  107MOL0     C14343   5.621  12.292   6.858 -0.5783 -0.5852  0.0234
  107MOL0     C14344   5.580  12.420   6.819 -1.8949 -1.0360  0.7179
  107MOL0     O14345   5.622  12.541   6.871 -0.0045 -0.6553  0.4752
  107MOL0     C14346   5.674  12.536   7.003 -0.0018 -0.2991  0.2068
  107MOL0     C14347   5.818  12.496   7.022 -0.0856  0.2722 -0.2772
  107MOL0     C14348   5.926  12.605   7.000  0.5884 -0.5425 -0.0345
  107MOL0     C14349   6.053  12.558   6.930 -0.3682  0.7371  0.3346
  107MOL0     C14350   6.168  12.657   6.941  0.1791 -0.2840  0.4216
  107MOL0     C14351   6.195  12.745   6.817 -0.1833  0.9291 -0.4694
  107MOL0     C14352   6.086  12.857   6.801 -0.1812  0.4355 -0.0427
  107MOL0     C14353   6.129  12.960   6.691 -1.4472 -0.2891 -0.8947
  107MOL0    Cl14354   6.301  13.016   6.724 -0.5222  0.0463 -0.1489
  107MOL0     C14355   5.494  12.432   6.707  1.3872  0.2133 -0.4302
  107MOL0     C14356   5.445  12.316   6.648 -0.8756 -0.0864 -1.1336
  107MOL0     O14357   5.197  12.177   6.716 -0.1135  0.0447 -0.2448
  107MOL0     C14358   5.067  11.928   6.685 -0.2582 -0.1528  0.6981
  107MOL0     C14359   4.988  11.811   6.655  0.7419  1.0466  0.3301
  107MOL0     N14360   5.208  11.162   6.446 -0.5621 -0.3753  0.9340
  107MOL0     N14361   5.296  11.128   6.533 -0.9988  0.3723  0.2437
  107MOL0     C14362   5.996  10.393   7.206  0.2963 -0.2232 -1.3850
  107MOL0     C14363   6.088  10.300   7.251 -0.8915 -0.3142  0.1891
  107MOL0     C14364   6.220   9.921   7.425  0.5930 -0.1916 -0.4238
  107MOL0     C14365   6.234   9.819   7.334  0.5899  0.9640  0.1105
  107MOL0     C14366   6.319   9.709   7.357 -0.4656  0.3542 -0.3086
  107MOL0     C14367   6.402   9.708   7.472 -1.1034 -0.2924 -0.9484
  107MOL0     O14368   6.485   9.601   7.503 -0.3508 -0.5801 -0.9004
  107MOL0     C14369   6.504   9.482   7.431 -0.6280  0.0230  0.3720
  107MOL0     C14370   6.572   9.496   7.287  0.1400 -0.2100 -0.6582
  107MOL0     C14371   6.556   9.380   7.211  0.1695 -0.3162 -0.1463
  107MOL0     C14372   6.622   9.388   7.068  0.3671 -0.5931  0.8609
  107MOL0     C14373   6.766   9.367   7.067 -0.8080 -0.4240  1.1885
  107MOL0     C14374   6.878   9.347   7.097 -1.1411 -0.3493 -1.5691
  107MOL0     C14375   6.388   9.816   7.568  0.2443  0.3635  0.7537
  107MOL0     C14376   6.303   9.926   7.536 -0.0457  1.0630 -0.1390
  107MOL0     C14377   6.295  10.023   7.648 -0.1128 -1.1406  0.6851
  107MOL0     H14378   5.933  10.261   7.552 -1.1495 -1.0362 -2.0424
  107MOL0     H14379   5.829  10.479   7.492  1.7929  2.4475  0.6176
  107MOL0     H14380   5.791  10.643   7.081  1.7117 -0.7291  1.1729
  107MOL0     H14381   5.795  10.479   7.075 -0.0249  1.6421 -1.0118
  107MOL0     H14382   5.554  10.599   7.231  2.0377 -0.5438  0.8344
  107MOL0     H14383   5.582  10.441   7.172 -0.8976  0.5854  2.7916
  107MOL0     H14384   5.518  10.497   6.955 -0.0093  2.7224 -3.9700
  107MOL0     H14385   5.591  10.648   6.959  1.5925 -4.3218 -2.3963
  107MOL0     H14386   5.332  10.588   7.098 -0.9593  1.1760  0.3027
  107MOL0     H14387   5.428  10.731   7.115 -0.6816  0.5017 -0.8291
  107MOL0     H14388   5.292  10.644   6.852 -1.6928 -0.5131  1.3203
  107MOL0     H14389   5.240  10.765   6.958 -0.3776  1.4434 -1.8249
  107MOL0     H14390   5.471  10.875   6.917  1.7509 -3.7810  3.5900
  107MOL0     H14391   5.498  10.749   6.798 -1.8478 -0.2781 -1.2653
  107MOL0     H14392   5.251  10.835   6.720  0.1586 -1.6503 -2.2599
  107MOL0     H14393   5.399  10.880   6.635 -1.0269  0.4550 -0.6914
  107MOL0     H14394   5.251  11.059   6.853  0.6550  1.3175  0.0855
  107MOL0     H14395   5.406  11.087   6.770  0.3789 -0.8634 -0.6885
  107MOL0     H14396   5.028  11.069   6.709  1.0233 -1.2644 -0.2333
  107MOL0     H14397   4.942  11.126   6.348 -0.7785 -1.0507  0.5580
  107MOL0     H14398   4.879  11.114   6.506  1.0802  1.0789  1.0752
  107MOL0     H14399   4.800  11.320   6.409  0.0798 -0.5184  0.4971
  107MOL0     H14400   4.892  11.353   6.554  0.5928  0.4907 -0.3047
  107MOL0     H14401   5.000  11.389   6.267 -0.9568 -0.8072  1.0036
  107MOL0     H14402   5.099  11.401   6.417  0.6237  1.5780  0.8898
  107MOL0     H14403   4.875  11.568   6.335  0.3670  3.0816  1.9724
  107MOL0     H14404   5.049  11.601   6.329  0.0760  1.8062 -0.0523
  107MOL0     H14405   5.225  11.655   6.468  2.4855  0.3452  1.1280
  107MOL0     H14406   5.350  11.871   6.521 -0.6231 -1.8529 -0.6576
  107MOL0     H14407   5.590  12.078   6.845  0.5507  0.8613  0.1806
  107MOL0     H14408   5.684  12.278   6.946 -0.4125 -0.5797 -0.0951
  107MOL0     H14409   5.666  12.632   7.054  0.4060  0.1550 -0.5655
  107MOL0     H14410   5.612  12.469   7.065  3.3261 -1.7003  2.3314
  107MOL0     H14411   5.836  12.472   7.127  0.4234  1.4841 -0.0713
  107MOL0     H14412   5.843  12.410   6.959 -0.0589  0.0325  0.0565
  107MOL0     H14413   5.889  12.691   6.942 -2.1413 -2.2454 -1.0203
  107MOL0     H14414   5.953  12.650   7.096  4.0652  3.0509 -2.3965
  107MOL0     H14415   6.043  12.534   6.824  0.3461 -0.9051  0.6040
  107MOL0     H14416   6.076  12.459   6.970 -1.9804  0.2812  0.1992
  107MOL0     H14417   6.250  12.595   6.977 -1.6880 -1.8153  2.2902
  107MOL0     H14418   6.157  12.717   7.032  0.1545  0.2345  0.0798
  107MOL0     H14419   6.290  12.792   6.840  1.1943 -2.7406  2.3148
  107MOL0     H14420   6.198  12.678   6.730  0.9265  0.1966  0.1193
  107MOL0     H14421   6.074  12.912   6.895  0.7697 -0.6155  0.7281
  107MOL0     H14422   5.989  12.811   6.781  0.1389 -0.2906  0.0331
  107MOL0     H14423   6.120  12.925   6.588  0.1291 -0.5169 -0.9833
  107MOL0     H14424   6.058  13.043   6.700 -0.7385  0.2653 -0.3352
  107MOL0     H14425   5.463  12.529   6.669 -0.4716 -0.4174 -0.6325
  107MOL0     H14426   5.371  12.306   6.570 -4.9249 -1.1924  2.4959
  107MOL0     H14427   5.031  11.994   6.763  1.0963  0.9414  0.4376
  107MOL0     H14428   4.887  11.799   6.693 -0.2904 -2.8688 -2.9016
  107MOL0     H14429   5.993  10.415   7.099  0.6982 -3.2832 -2.0978
  107MOL0     H14430   6.154  10.245   7.184  1.3432 -0.0611  2.0722
  107MOL0     H14431   6.168   9.801   7.250 -1.5448 -0.6714  2.0223
  107MOL0     H14432   6.327   9.636   7.277 -2.0393 -0.6955  0.4413
  107MOL0     H14433   6.411   9.426   7.422 -0.4291 -0.1716 -0.6227
  107MOL0     H14434   6.580   9.422   7.482  1.1618  0.2336 -1.8855
  107MOL0     H14435   6.675   9.532   7.290 -0.1849  0.7109  0.0765
  107MOL0     H14436   6.527   9.577   7.230  0.7232 -0.0005 -0.8256
  107MOL0     H14437   6.452   9.352   7.194  0.3237  0.9166 -3.9552
  107MOL0     H14438   6.612   9.304   7.267  0.3794 -1.4528 -1.8177
  107MOL0     H14439   6.563   9.326   7.000  2.1760  0.6747 -2.0630
  107MOL0     H14440   6.609   9.494   7.044 -4.3514  0.4873  6.0905
  107MOL0     H14441   6.981   9.332   7.122 -1.3708  1.1412  0.5681
  107MOL0     H14442   6.445   9.819   7.661  1.5329 -1.7429  0.1282
  107MOL0     H14443   6.190  10.044   7.668 -0.4609  0.7476 -2.3448
  107MOL0     H14444   6.347   9.993   7.739  0.4325 -1.2436  0.3484
  107MOL0     H14445   6.338  10.118   7.614 -0.4014 -0.8349  1.1709
  108MOL0     O14446   1.763   6.064   4.279  0.6183 -0.1694  0.1299
  108MOL0     C14447   1.763   6.029   4.162 -0.4422 -0.1985  0.4536
  108MOL0     O14448   1.809   6.104   4.055 -0.5032  1.1072  0.7098
  108MOL0     C14449   1.846   6.237   4.077  1.4311 -0.5134 -1.0724
  108MOL0     C14450   1.745   6.340   4.082  0.5341  0.3918 -0.7118
  108MOL0     C14451   1.781   6.477   4.078  0.6716  0.1330  0.8167
  108MOL0     C14452   1.917   6.514   4.088  0.2738  0.3246 -0.6225
  108MOL0     O14453   1.937   6.644   4.125 -0.2113  0.1520  0.2070
  108MOL0     C14454   2.053   6.703   4.183 -0.0917  0.4783  0.2968
  108MOL0     C14455   2.050   6.854   4.205  0.2006  0.1723 -0.5591
  108MOL0     C14456   2.044   6.913   4.065  0.0665 -0.0036 -0.0031
  108MOL0     C14457   1.988   7.060   4.072  0.4713 -0.3352  1.0265
  108MOL0     C14458   2.025   7.139   3.946 -0.5040  0.8597  0.0981
  108MOL0     C14459   2.043   7.290   3.970  0.3031  0.0439  0.0718
  108MOL0     C14460   2.048   7.368   3.842  0.8752 -0.4642 -0.2691
  108MOL0     C14461   2.151   7.325   3.749  0.2481  0.3703 -0.1083
  108MOL0     N14462   2.131   7.402   3.627  0.0707 -0.6055 -0.5931
  108MOL0     C14463   2.160   7.534   3.613  0.2204 -0.6356  0.0248
  108MOL0     C14464   2.106   7.573   3.497 -0.3110 -0.7698 -0.6241
  108MOL0     C14465   2.100   7.712   3.437 -0.0394  0.0841 -0.4333
  108MOL0     C14466   1.973   7.776   3.480  0.0837  0.5546  0.3350
  108MOL0     C14467   1.849   7.703   3.429  0.0898  0.6206 -0.4772
  108MOL0     C14468   1.759   7.626   3.534 -0.5272  0.0094 -0.5965
  108MOL0     O14469   1.640   7.578   3.460  0.4612  0.0286  0.2381
  108MOL0     C14470   1.542   7.540   3.546  0.1265  0.0782  0.5259
  108MOL0     C14471   1.536   7.416   3.605  0.1089  0.7374 -0.7107
  108MOL0     C14472   1.423   7.375   3.696 -0.4743  0.0638  0.1609
  108MOL0     C14473   1.318   7.473   3.720  0.5408 -0.6982  1.0478
  108MOL0     C14474   1.213   7.446   3.817  0.2300 -0.4088  1.0749
  108MOL0     O14475   1.135   7.556   3.847 -0.1281 -0.0015  0.4559
  108MOL0     C14476   1.001   7.533   3.873 -0.6804  1.1573 -0.4482
  108MOL0     C14477   0.939   7.583   3.983 -0.2990  0.3992 -0.6259
  108MOL0     C14478   0.805   7.556   4.002  0.6013 -0.6154 -0.3073
  108MOL0     C14479   0.723   7.499   3.910 -0.4398 -0.2365  0.1537
  108MOL0     O14480   0.590   7.468   3.937 -0.2339 -0.2904 -0.0898
  108MOL0     C14481   0.506   7.584   3.941  0.0484  0.4301  0.0232
  108MOL0     C14482   0.377   7.547   3.855 -0.4465  0.7768 -0.2140
  108MOL0     C14483   0.274   7.654   3.833  0.3987  0.5589 -1.4106
  108MOL0     C14484   0.142   7.595   3.786  1.4631 -0.5532  0.1899
  108MOL0     C14485   0.019   7.669   3.851  0.0031  0.0815 -0.1583
  108MOL0     C14486  -0.110   7.610   3.805  0.4417  0.5347  0.5373
  108MOL0     C14487  -0.230   7.639   3.896 -0.2729  0.0470  0.5639
  108MOL0     C14488  -0.244   7.792   3.922  0.1724 -0.5844 -0.8759
  108MOL0    Cl14489  -0.221   7.883   3.774 -0.0444  0.1366  0.3506
  108MOL0     C14490   0.785   7.443   3.800  0.0793 -0.0242 -0.1474
  108MOL0     C14491   0.920   7.461   3.780 -0.0854 -0.3568 -0.4347
  108MOL0     O14492   1.202   7.332   3.855  0.5904 -0.9327 -0.3603
  108MOL0     C14493   1.322   7.602   3.649  0.4693  0.0249 -0.0727
  108MOL0     C14494   1.431   7.629   3.563  0.8623 -0.1337  0.7484
  108MOL0     N14495   2.053   7.457   3.431 -0.3004  1.0471 -0.2721
  108MOL0     N14496   2.070   7.358   3.520 -0.4047 -0.0237 -0.2478
  108MOL0     C14497   2.014   6.418   4.076  1.1692  0.5600  0.3090
  108MOL0     C14498   1.978   6.277   4.071  0.0193  0.5074  0.6243
  108MOL0     C14499   1.707   5.903   4.131  0.0717  0.6140 -0.3092
  108MOL0     C14500   1.769   5.796   4.181 -0.1242  0.4721 -1.2063
  108MOL0     C14501   1.738   5.664   4.144  0.8682 -0.0874 -0.0252
  108MOL0     C14502   1.632   5.641   4.056  0.7907  0.8000  0.3200
  108MOL0     O14503   1.592   5.509   4.016  0.2407  0.0577 -0.2188
  108MOL0     C14504   1.640   5.387   4.085 -0.2721  0.5752  0.0711
  108MOL0     C14505   1.540   5.263   4.088  0.0059  1.1697 -0.5475
  108MOL0     C14506   1.493   5.219   3.948 -0.3934  0.1601  0.3661
  108MOL0     C14507   1.599   5.140   3.872  0.8771 -0.4388  0.8267
  108MOL0     C14508   1.635   5.009   3.914  0.4608  0.4080  0.5795
  108MOL0     C14509   1.662   4.897   3.952  0.4784  0.3030  0.1563
  108MOL0     C14510   1.556   5.752   4.012  0.4379  0.1318 -0.3207
  108MOL0     C14511   1.593   5.885   4.044 -0.3851  0.1368  0.4386
  108MOL0     C14512   1.506   6.006   4.011 -0.3618 -0.1557 -0.1766
  108MOL0     H14513   1.639   6.320   4.070  0.7116  0.9138 -4.2077
  108MOL0     H14514   1.708   6.556   4.059 -1.2861 -2.0096 -1.1986
  108MOL0     H14515   2.061   6.655   4.281 -0.9686 -2.5002 -0.9777
  108MOL0     H14516   2.144   6.677   4.127  0.3695 -0.5389  1.4674
  108MOL0     H14517   2.137   6.887   4.263  0.5613 -0.1313 -0.9233
  108MOL0     H14518   1.959   6.880   4.260  0.6999 -0.0514  0.4016
  108MOL0     H14519   1.994   6.846   3.994 -0.0574  1.1073 -1.0034
  108MOL0     H14520   2.147   6.919   4.029 -0.6955 -1.9349 -2.8251
  108MOL0     H14521   1.881   7.039   4.067  0.6627 -1.1726  0.2820
  108MOL0     H14522   2.019   7.123   4.156 -1.4173  5.6955 -2.1997
  108MOL0     H14523   2.123   7.106   3.909 -0.4638  0.7159  0.3356
  108MOL0     H14524   1.953   7.108   3.870 -3.0839 -1.4974  3.2169
  108MOL0     H14525   1.957   7.330   4.026  0.3193 -0.7686  0.6826
  108MOL0     H14526   2.141   7.307   4.015  1.4764 -0.4568 -2.1403
  108MOL0     H14527   2.070   7.473   3.864 -0.7719  0.1131 -1.2079
  108MOL0     H14528   1.953   7.364   3.788  1.5688  1.1628 -1.6780
  108MOL0     H14529   2.252   7.326   3.791 -0.5332 -0.4876  1.9447
  108MOL0     H14530   2.140   7.223   3.713  0.8192  0.7852 -1.4994
  108MOL0     H14531   2.210   7.592   3.690  0.2605 -1.5979  0.7489
  108MOL0     H14532   2.182   7.769   3.482 -0.1979  0.1510 -0.2283
  108MOL0     H14533   2.093   7.720   3.328 -0.4639  1.0489 -0.3444
  108MOL0     H14534   1.972   7.791   3.588  0.4923  2.3227  0.1280
  108MOL0     H14535   1.987   7.875   3.435 -0.6198  0.7147  0.4483
  108MOL0     H14536   1.882   7.640   3.346  2.8551  1.6884 -0.3031
  108MOL0     H14537   1.779   7.779   3.392 -0.1071  0.5394 -0.2698
  108MOL0     H14538   1.714   7.695   3.607 -0.4587 -0.9540  0.3680
  108MOL0     H14539   1.814   7.550   3.589 -1.9100  0.3036  1.2706
  108MOL0     H14540   1.621   7.349   3.596  2.0950  2.9692  0.2265
  108MOL0     H14541   1.431   7.276   3.740 -0.5908  0.1570  0.3957
  108MOL0     H14542   1.004   7.637   4.051 -2.2157  0.5792  1.1669
  108MOL0     H14543   0.769   7.597   4.096  0.3993 -0.8212 -0.2934
  108MOL0     H14544   0.477   7.611   4.043  0.2487 -0.3325  0.2891
  108MOL0     H14545   0.546   7.675   3.897  1.4923  0.1784  0.7703
  108MOL0     H14546   0.414   7.521   3.755 -1.6015  2.4005 -1.0881
  108MOL0     H14547   0.343   7.451   3.896  1.5940 -1.0805 -2.5082
  108MOL0     H14548   0.258   7.688   3.936  1.9563 -1.8357 -0.2790
  108MOL0     H14549   0.307   7.742   3.776  1.1349  2.6872  2.0148
  108MOL0     H14550   0.136   7.492   3.822  0.1813 -0.6299 -0.2118
  108MOL0     H14551   0.129   7.597   3.678  1.3949 -3.0819  0.1001
  108MOL0     H14552   0.025   7.767   3.804  2.1577 -1.2076 -2.7922
  108MOL0     H14553   0.016   7.673   3.961  1.7848 -2.2624  0.0594
  108MOL0     H14554  -0.135   7.645   3.705 -2.1533  1.9243  1.5893
  108MOL0     H14555  -0.095   7.502   3.790  2.0543  0.8780 -0.6144
  108MOL0     H14556  -0.221   7.581   3.989 -1.8896  1.8401  1.9270
  108MOL0     H14557  -0.319   7.590   3.855  0.3273  1.0192 -2.0244
  108MOL0     H14558  -0.334   7.829   3.972  2.3516 -0.3947  3.3151
  108MOL0     H14559  -0.162   7.818   3.990 -0.5368  1.1636 -0.6244
  108MOL0     H14560   0.714   7.402   3.728  0.0761  0.0495 -0.1864
  108MOL0     H14561   0.945   7.407   3.689 -1.2861 -0.7187 -0.5612
  108MOL0     H14562   1.255   7.687   3.660 -0.5590 -0.8315  0.5319
  108MOL0     H14563   1.419   7.726   3.516 -0.2082  0.9820  3.1680
  108MOL0     H14564   2.117   6.448   4.061  1.3982 -0.9318 -1.4932
  108MOL0     H14565   2.053   6.201   4.048 -4.0821 -3.5952 -0.7561
  108MOL0     H14566   1.860   5.823   4.233 -1.5000 -1.0518  2.2967
  108MOL0     H14567   1.805   5.583   4.170 -1.3908 -2.1910 -0.4675
  108MOL0     H14568   1.653   5.410   4.191 -5.0146 -0.4549  1.1238
  108MOL0     H14569   1.735   5.349   4.048 -0.4004 -0.2554  0.5732
  108MOL0     H14570   1.453   5.280   4.152  0.1651 -0.8716  0.2844
  108MOL0     H14571   1.586   5.178   4.139 -2.4941 -0.0551 -0.1802
  108MOL0     H14572   1.485   5.303   3.879 -0.5905 -0.1289  0.0323
  108MOL0     H14573   1.405   5.154   3.945  1.8610 -3.1526 -1.4660
  108MOL0     H14574   1.563   5.141   3.768 -0.3548  1.6792  1.2197
  108MOL0     H14575   1.687   5.201   3.892 -0.7098  2.5330 -0.6203
  108MOL0     H14576   1.698   4.798   3.967 -0.7483  0.2655  3.5950
  108MOL0     H14577   1.472   5.730   3.946  2.1712 -0.4273 -2.4579
  108MOL0     H14578   1.567   6.074   3.949  0.8122 -0.5107  0.5541
  108MOL0     H14579   1.410   5.980   3.967 -2.4872  4.4216  1.1660
  108MOL0     H14580   1.484   6.062   4.102 -0.1851 -0.2772 -0.0590
  109MOL0     O14581   6.477   8.960   2.482 -0.7479  0.3185  0.8499
  109MOL0     C14582   6.547   8.946   2.586  0.6289 -0.3057 -0.3359
  109MOL0     O14583   6.521   8.849   2.688  0.4314 -1.1836 -0.1425
  109MOL0     C14584   6.412   8.766   2.680  1.1276  0.5591 -0.5345
  109MOL0     C14585   6.284   8.816   2.646  0.4874 -0.2724 -0.8437
  109MOL0     C14586   6.165   8.735   2.654  0.5939  0.2611 -0.6116
  109MOL0     C14587   6.171   8.604   2.693 -0.0848  0.5005 -0.2319
  109MOL0     O14588   6.054   8.540   2.684 -0.8789 -0.0969  0.5423
  109MOL0     C14589   6.059   8.398   2.684  1.3602  1.1802  0.7087
  109MOL0     C14590   5.925   8.338   2.653 -0.7493  0.4676  0.9993
  109MOL0     C14591   5.826   8.328   2.765 -0.1844 -0.3318 -0.7457
  109MOL0     C14592   5.764   8.190   2.781 -0.2570  0.2413 -0.6630
  109MOL0     C14593   5.864   8.084   2.844  0.4240  0.5563  0.7977
  109MOL0     C14594   5.823   7.945   2.791 -0.4551  0.5284  0.4984
  109MOL0     C14595   5.886   7.916   2.657  0.0489  0.2572  0.2721
  109MOL0     C14596   6.031   7.891   2.667 -1.0993 -0.4771 -0.4071
  109MOL0     N14597   6.084   7.869   2.532 -0.7958 -0.1390 -0.0944
  109MOL0     C14598   6.136   7.750   2.492  0.5080  0.6842 -0.0509
  109MOL0     C14599   6.146   7.753   2.357  0.6695 -0.1979  0.7033
  109MOL0     C14600   6.190   7.635   2.277 -0.3105 -0.0263  0.1143
  109MOL0     C14601   6.229   7.664   2.134  0.1766  0.3783  0.7487
  109MOL0     C14602   6.313   7.553   2.067  1.0896 -0.7742  0.3992
  109MOL0     C14603   6.336   7.605   1.924 -0.0530 -0.2193  0.0975
  109MOL0     O14604   6.207   7.589   1.854 -0.5280 -0.4457  0.0371
  109MOL0     C14605   6.208   7.562   1.722 -0.1845 -1.1844 -0.2742
  109MOL0     C14606   6.225   7.656   1.612  1.4270  0.8811 -0.1145
  109MOL0     C14607   6.227   7.606   1.475  0.2472 -0.3487 -0.4053
  109MOL0     C14608   6.199   7.474   1.449  0.7224  0.2132  0.4674
  109MOL0     C14609   6.174   7.429   1.306  0.5488 -0.2941 -0.8165
  109MOL0     O14610   6.259   7.489   1.225  0.2500 -0.0569  0.2544
  109MOL0     C14611   6.257   7.479   1.085 -0.3365 -0.1254 -0.0118
  109MOL0     C14612   6.147   7.496   1.005  0.1512 -0.9206  0.0145
  109MOL0     C14613   6.164   7.494   0.870  0.0556 -0.3711 -0.4105
  109MOL0     C14614   6.290   7.469   0.811 -0.1358 -0.3881 -0.0602
  109MOL0     O14615   6.293   7.459   0.674  1.0534 -0.4796  1.0622
  109MOL0     C14616   6.302   7.339   0.618  0.1008  0.1741 -0.5359
  109MOL0     C14617   6.322   7.342   0.471  0.1118  0.6577  0.9814
  109MOL0     C14618   6.213   7.280   0.392  0.5321  0.3542  0.5264
  109MOL0     C14619   6.111   7.376   0.356  1.4068 -0.0953  0.6117
  109MOL0     C14620   6.132   7.449   0.218  0.4784 -0.4516 -0.3991
  109MOL0     C14621   6.122   7.365   0.092  0.5291  0.3135  0.6778
  109MOL0     C14622   6.089   7.456  -0.032 -0.2806 -1.0356  0.7140
  109MOL0     C14623   6.042   7.370  -0.153 -0.1329 -0.4654 -0.2137
  109MOL0    Cl14624   6.151   7.245  -0.204 -0.1102 -0.1452  0.2091
  109MOL0     C14625   6.404   7.453   0.885  0.1018  0.5107 -0.1583
  109MOL0     C14626   6.386   7.457   1.024 -0.3832 -0.2413 -0.2254
  109MOL0     O14627   6.081   7.361   1.273  0.2328  0.0599  0.5086
  109MOL0     C14628   6.175   7.387   1.555 -0.6109 -1.0232  0.0092
  109MOL0     C14629   6.177   7.431   1.691  0.3622  0.2375  0.7322
  109MOL0     N14630   6.114   7.880   2.316 -0.6610  0.5927  0.3537
  109MOL0     N14631   6.092   7.956   2.423 -0.7068  0.1351 -0.2957
  109MOL0     C14632   6.301   8.556   2.730  0.4820  0.0820 -0.9097
  109MOL0     C14633   6.420   8.623   2.709  0.2391 -0.1873 -0.4825
  109MOL0     C14634   6.671   9.024   2.602  0.2291 -0.7294  0.1865
  109MOL0     C14635   6.752   9.042   2.487  1.0969  0.5851 -0.8793
  109MOL0     C14636   6.867   9.112   2.497 -0.0492 -0.0542 -0.0904
  109MOL0     C14637   6.918   9.168   2.619 -0.4271  0.3026  0.1867
  109MOL0     O14638   7.034   9.251   2.623  0.5617 -0.0440 -0.7943
  109MOL0     C14639   7.090   9.303   2.501 -0.3687  0.1822  0.6111
  109MOL0     C14640   7.234   9.340   2.537 -0.5733 -0.4605 -0.3722
  109MOL0     C14641   7.246   9.450   2.645 -0.1698  0.7112 -0.3080
  109MOL0     C14642   7.342   9.564   2.612  0.3141  0.9134 -0.1659
  109MOL0     C14643   7.370   9.650   2.732 -0.1718 -0.4072  0.2991
  109MOL0     C14644   7.396   9.719   2.828 -1.0265  0.5049  0.0857
  109MOL0     C14645   6.842   9.143   2.737  0.5363  0.0867  0.6213
  109MOL0     C14646   6.714   9.076   2.731 -0.4154 -0.2320 -0.0662
  109MOL0     C14647   6.643   9.053   2.862  0.2879 -0.1450  0.8849
  109MOL0     H14648   6.277   8.920   2.615  2.4677  0.4606  0.9993
  109MOL0     H14649   6.068   8.774   2.627  0.0641 -3.3795 -5.2994
  109MOL0     H14650   6.119   8.373   2.596  1.3812  3.1503  0.1018
  109MOL0     H14651   6.099   8.343   2.770  0.0807 -0.7232  0.1435
  109MOL0     H14652   5.932   8.243   2.598 -0.5286  2.5326 -2.8745
  109MOL0     H14653   5.881   8.400   2.574  2.4752  2.3993  0.5822
  109MOL0     H14654   5.743   8.398   2.751  2.6193  3.2609 -0.7862
  109MOL0     H14655   5.865   8.358   2.862  1.3795  0.6856 -1.6493
  109MOL0     H14656   5.676   8.208   2.843 -0.7113 -1.2658 -0.8263
  109MOL0     H14657   5.721   8.148   2.690 -2.7496  1.3534 -0.0869
  109MOL0     H14658   5.968   8.109   2.822  1.3633 -2.7691  0.9357
  109MOL0     H14659   5.830   8.102   2.946 -1.0194  0.3994  0.3737
  109MOL0     H14660   5.872   7.875   2.859  1.0910  1.9294  0.8971
  109MOL0     H14661   5.717   7.918   2.794 -0.6464  1.3001  2.2824
  109MOL0     H14662   5.870   7.992   2.580 -1.1913 -1.6666 -1.4633
  109MOL0     H14663   5.837   7.825   2.620  2.9706 -1.8220  1.1236
  109MOL0     H14664   6.083   7.980   2.705 -0.2381 -0.8384 -0.6998
  109MOL0     H14665   6.050   7.803   2.729  2.3378  0.6974  0.4413
  109MOL0     H14666   6.159   7.667   2.559  0.5726  2.0182  1.6401
  109MOL0     H14667   6.283   7.604   2.325  0.6703  1.6421 -0.6232
  109MOL0     H14668   6.125   7.548   2.292  1.4830 -1.5092 -0.2191
  109MOL0     H14669   6.135   7.681   2.081  1.1881 -3.2106 -2.7409
  109MOL0     H14670   6.289   7.755   2.139  3.3382 -1.4996  0.0128
  109MOL0     H14671   6.259   7.457   2.064  1.0383 -0.7216 -1.1999
  109MOL0     H14672   6.411   7.535   2.111  2.5998  1.5485 -1.7748
  109MOL0     H14673   6.413   7.545   1.874 -0.4735 -0.4715 -0.2551
  109MOL0     H14674   6.362   7.711   1.921 -1.2945  0.0917 -0.0607
  109MOL0     H14675   6.252   7.761   1.624 -2.8962  2.3706 -1.5480
  109MOL0     H14676   6.236   7.674   1.390  1.8797 -1.1104 -0.8906
  109MOL0     H14677   6.049   7.525   1.039  0.3535  1.6917 -1.3861
  109MOL0     H14678   6.088   7.501   0.792  2.4616  1.1544 -2.7956
  109MOL0     H14679   6.373   7.277   0.675 -2.7790 -0.5015  2.6324
  109MOL0     H14680   6.205   7.294   0.638  0.3133 -0.2833 -0.5049
  109MOL0     H14681   6.333   7.447   0.441 -3.0917  0.8779  0.2435
  109MOL0     H14682   6.415   7.287   0.455 -0.8859 -1.5211  2.3358
  109MOL0     H14683   6.264   7.232   0.307 -2.7688 -1.3032 -0.7038
  109MOL0     H14684   6.164   7.193   0.437  3.0607 -0.5738  1.6717
  109MOL0     H14685   6.092   7.461   0.423 -1.0426  0.9311 -1.2072
  109MOL0     H14686   6.018   7.322   0.337 -0.0602  2.9661 -2.0516
  109MOL0     H14687   6.224   7.508   0.223  0.7949 -0.9864  0.1902
  109MOL0     H14688   6.051   7.520   0.206  0.4411 -0.6839 -1.6301
  109MOL0     H14689   6.219   7.321   0.067  1.4065  2.1680  0.6409
  109MOL0     H14690   6.047   7.286   0.103  1.5051 -0.5185  1.6943
  109MOL0     H14691   6.187   7.499  -0.056  0.4086 -2.2985  1.2088
  109MOL0     H14692   6.013   7.533  -0.012 -2.2021 -2.6813  0.1284
  109MOL0     H14693   5.947   7.328  -0.120  0.7484 -1.2898  1.4480
  109MOL0     H14694   6.017   7.431  -0.240 -3.2855  3.7323  3.2242
  109MOL0     H14695   6.500   7.425   0.844 -0.6120 -0.7138 -1.0665
  109MOL0     H14696   6.474   7.439   1.084  0.2956  1.1547 -0.7447
  109MOL0     H14697   6.155   7.283   1.535  0.6692 -1.3795  0.4654
  109MOL0     H14698   6.169   7.355   1.769  2.6093  1.2113  2.0278
  109MOL0     H14699   6.319   8.451   2.747 -2.8099 -0.8388 -2.2286
  109MOL0     H14700   6.515   8.575   2.732 -0.4774 -0.5522  2.0050
  109MOL0     H14701   6.737   8.993   2.391  0.6510 -2.3246  0.5670
  109MOL0     H14702   6.911   9.114   2.398 -1.3159 -0.9241 -0.6956
  109MOL0     H14703   7.023   9.383   2.469 -1.4736 -1.4411 -1.3444
  109MOL0     H14704   7.094   9.231   2.419  1.2259  1.4094 -0.4444
  109MOL0     H14705   7.292   9.367   2.448  2.0414 -1.5504  0.8733
  109MOL0     H14706   7.280   9.246   2.566 -0.1756 -0.6183 -1.4475
  109MOL0     H14707   7.278   9.397   2.736  0.0359  0.6153 -0.4351
  109MOL0     H14708   7.142   9.476   2.664  0.5384  2.6710  1.2589
  109MOL0     H14709   7.432   9.524   2.565 -0.7121 -1.9158  0.1145
  109MOL0     H14710   7.293   9.627   2.538 -1.2925 -0.2938 -0.1786
  109MOL0     H14711   7.418   9.791   2.904 -1.4445 -0.3058  1.0002
  109MOL0     H14712   6.890   9.165   2.832  0.7042  0.1302  0.5273
  109MOL0     H14713   6.667   9.130   2.935 -1.4395  0.0673  1.2734
  109MOL0     H14714   6.533   9.055   2.858  0.1978 -0.1683  2.6066
  109MOL0     H14715   6.657   8.946   2.883  1.3233 -0.2164 -0.0617
  110MOL0     O14716   7.796  10.676   7.669  0.2632  0.1429  0.9935
  110MOL0     C14717   7.750  10.575   7.615 -1.3816  0.0274 -1.1270
  110MOL0     O14718   7.810  10.452   7.611 -0.9563  0.5871 -0.7121
  110MOL0     C14719   7.914  10.422   7.696 -1.2442  0.7070  0.7942
  110MOL0     C14720   8.039  10.493   7.689 -0.5565  0.1553  0.4571
  110MOL0     C14721   8.142  10.445   7.776 -0.5778 -0.1707  0.4294
  110MOL0     C14722   8.126  10.340   7.872 -0.6846 -0.0163  0.6420
  110MOL0     O14723   8.229  10.278   7.946 -0.2387 -0.1958 -1.0913
  110MOL0     C14724   8.366  10.284   7.906  0.4057 -0.0598  1.3213
  110MOL0     C14725   8.381  10.195   7.782  0.3873  0.7136  0.2637
  110MOL0     C14726   8.522  10.150   7.767 -1.0576 -0.0199  1.4132
  110MOL0     C14727   8.548  10.042   7.645 -0.2249 -0.5999  0.5981
  110MOL0     C14728   8.694   9.999   7.643  0.2077 -0.2389 -0.4123
  110MOL0     C14729   8.796  10.115   7.633 -0.5792  0.5754  0.3341
  110MOL0     C14730   8.945  10.064   7.625 -0.4266  0.0742  0.1342
  110MOL0     C14731   9.043  10.180   7.594  0.8544 -0.4059  0.8282
  110MOL0     N14732   9.172  10.142   7.548 -0.3983  0.3748 -0.0916
  110MOL0     C14733   9.283  10.219   7.576  0.4861 -0.7805 -0.6112
  110MOL0     C14734   9.383  10.144   7.527 -0.4135  0.2228 -0.0832
  110MOL0     C14735   9.524  10.155   7.536 -0.0367  0.2256  0.2550
  110MOL0     C14736   9.603  10.132   7.665  0.8364  0.2867  0.0233
  110MOL0     C14737   9.549  10.204   7.793  0.1742 -0.5588  0.6704
  110MOL0     C14738   9.439  10.131   7.869  0.7853  0.8428  0.4262
  110MOL0     O14739   9.380  10.231   7.948 -0.2511  0.3357 -0.8510
  110MOL0     C14740   9.247  10.240   7.951  0.4027 -0.0699 -0.6224
  110MOL0     C14741   9.189  10.368   7.974  0.0355 -0.0840  0.2561
  110MOL0     C14742   9.052  10.380   7.986  0.2662 -1.0749  0.0854
  110MOL0     C14743   8.972  10.269   7.987  0.4356  0.4525 -0.1568
  110MOL0     C14744   8.825  10.298   8.020 -0.3003  1.4407  0.0617
  110MOL0     O14745   8.784  10.421   8.069  0.0285 -0.0458 -0.3570
  110MOL0     C14746   8.667  10.437   8.125  0.3211  0.7459  0.2427
  110MOL0     C14747   8.647  10.386   8.243  0.2339  0.5486  0.0911
  110MOL0     C14748   8.519  10.396   8.300 -0.6529 -0.2159 -0.0996
  110MOL0     C14749   8.414  10.470   8.234  0.3848  0.0251 -0.3250
  110MOL0     O14750   8.294  10.491   8.283  0.2560 -0.4197  0.0367
  110MOL0     C14751   8.218  10.388   8.344  0.3314 -0.0969  0.0585
  110MOL0     C14752   8.071  10.439   8.349 -0.0812  0.6026 -0.7061
  110MOL0     C14753   7.986  10.358   8.440  0.3993  0.2059  0.3863
  110MOL0     C14754   7.827  10.374   8.428  0.9594  0.4089  0.4135
  110MOL0     C14755   7.784  10.271   8.530 -0.4128  0.1052  0.1139
  110MOL0     C14756   7.828  10.292   8.678 -0.2662  0.3519  1.1290
  110MOL0     C14757   7.734  10.220   8.774  0.5933  1.2256  0.0132
  110MOL0     C14758   7.805  10.183   8.904  0.6978  0.2659  0.0875
  110MOL0    Cl14759   7.851  10.331   8.989 -0.3376  0.4462 -0.0558
  110MOL0     C14760   8.445  10.537   8.113  0.1452  1.0585  0.3522
  110MOL0     C14761   8.573  10.516   8.057  0.8132  0.1898  0.8547
  110MOL0     O14762   8.758  10.200   8.010  0.4201 -0.7939  0.0667
  110MOL0     C14763   9.028  10.145   7.969  0.9230  0.0243  0.3951
  110MOL0     C14764   9.162  10.125   7.936  0.5611 -0.5699 -0.0450
  110MOL0     N14765   9.327  10.039   7.451  0.1659 -0.3097 -0.5168
  110MOL0     N14766   9.202  10.038   7.478  0.0135 -0.4859 -0.1561
  110MOL0     C14767   8.002  10.274   7.863  0.4524  0.4432  0.3685
  110MOL0     C14768   7.898  10.326   7.789 -0.1994 -0.3263  0.0977
  110MOL0     C14769   7.644  10.595   7.515 -0.4867 -0.5622  0.2911
  110MOL0     C14770   7.639  10.522   7.398 -0.7795 -0.5954  0.8574
  110MOL0     C14771   7.523  10.539   7.320  0.6132  0.9087  0.3220
  110MOL0     C14772   7.412  10.609   7.351  0.4663 -0.5159 -0.7052
  110MOL0     O14773   7.319  10.613   7.262  0.6211 -1.0631  0.5670
  110MOL0     C14774   7.181  10.634   7.298 -0.4682 -1.5921 -0.4982
  110MOL0     C14775   7.087  10.555   7.218 -0.0321 -0.2822 -0.8254
  110MOL0     C14776   7.101  10.408   7.260  0.9692  0.7085 -0.0813
  110MOL0     C14777   6.974  10.319   7.237 -0.9923 -0.1005 -0.2821
  110MOL0     C14778   6.940  10.309   7.098 -0.1260 -0.1178 -0.6863
  110MOL0     C14779   6.914  10.295   6.975  0.1439  0.4404 -0.1579
  110MOL0     C14780   7.409  10.675   7.468 -0.8663 -0.0237 -0.1138
  110MOL0     C14781   7.526  10.671   7.553 -0.7244 -0.3113  0.3503
  110MOL0     C14782   7.517  10.747   7.681 -0.7949  0.0902  0.2715
  110MOL0     H14783   8.040  10.576   7.620  0.8484  1.3242  1.8179
  110MOL0     H14784   8.235  10.499   7.765 -1.5835  1.1454 -3.1619
  110MOL0     H14785   8.390  10.382   7.865 -0.5040 -0.9540 -1.5698
  110MOL0     H14786   8.427  10.263   7.995 -0.6909 -0.1481  2.0721
  110MOL0     H14787   8.357  10.247   7.689  2.4423 -1.3438 -1.5232
  110MOL0     H14788   8.316  10.110   7.803  1.6685  0.8010  6.1838
  110MOL0     H14789   8.560  10.092   7.852  4.0951  1.5650  0.5550
  110MOL0     H14790   8.586  10.237   7.752 -2.3191  0.3792 -2.7571
  110MOL0     H14791   8.491   9.950   7.655 -0.1206 -1.3960 -3.7841
  110MOL0     H14792   8.526  10.090   7.549  1.5381 -1.6200 -0.3938
  110MOL0     H14793   8.710   9.951   7.740 -0.0234  1.0221  0.2555
  110MOL0     H14794   8.707   9.924   7.564  2.1475  0.2879 -0.6450
  110MOL0     H14795   8.762  10.166   7.542 -0.2255  3.6297  1.7634
  110MOL0     H14796   8.795  10.188   7.714  0.0878  0.7452  0.1956
  110MOL0     H14797   8.947   9.996   7.540  2.3356 -0.1120  0.2727
  110MOL0     H14798   8.971  10.006   7.714 -0.8668  0.3439  0.4446
  110MOL0     H14799   9.002  10.235   7.508 -1.4224  0.5584  2.4220
  110MOL0     H14800   9.049  10.254   7.674 -2.4089  1.5477 -0.4949
  110MOL0     H14801   9.286  10.303   7.644 -2.7010 -1.9198  1.1318
  110MOL0     H14802   9.583  10.107   7.457  3.0160  1.9812  1.2598
  110MOL0     H14803   9.551  10.260   7.521 -1.2493  1.0377  3.0218
  110MOL0     H14804   9.619  10.024   7.671  0.1103  0.0542 -1.7290
  110MOL0     H14805   9.703  10.175   7.649  0.1276  1.5793 -1.1574
  110MOL0     H14806   9.535  10.311   7.775 -2.9826 -0.3153  3.6856
  110MOL0     H14807   9.637  10.208   7.859  0.2900  0.0639  0.4816
  110MOL0     H14808   9.462  10.042   7.928  1.0520  1.0842  0.6868
  110MOL0     H14809   9.366  10.097   7.794 -0.2781  4.6450 -0.4741
  110MOL0     H14810   9.252  10.456   7.972 -0.7247  0.4970 -2.3844
  110MOL0     H14811   8.999  10.472   8.010  2.4028 -0.2002  1.7148
  110MOL0     H14812   8.717  10.317   8.289 -0.0026 -1.0682 -1.8336
  110MOL0     H14813   8.498  10.353   8.398  0.0140 -1.2483 -0.3898
  110MOL0     H14814   8.222  10.294   8.288  1.8773 -1.6484  2.5956
  110MOL0     H14815   8.248  10.356   8.444 -0.5676 -0.5808  0.1840
  110MOL0     H14816   8.078  10.546   8.370  0.4941  0.7215 -1.4397
  110MOL0     H14817   8.016  10.445   8.255 -5.1556 -1.8655  1.7011
  110MOL0     H14818   8.007  10.261   8.396  3.9592 -0.4722  3.0624
  110MOL0     H14819   8.023  10.367   8.543 -3.1440 -0.2288  1.8082
  110MOL0     H14820   7.786  10.334   8.335 -2.4614 -2.5970  2.9154
  110MOL0     H14821   7.773  10.467   8.446 -0.6435 -0.8094  2.3350
  110MOL0     H14822   7.815  10.170   8.499 -2.3430 -0.5957  0.3320
  110MOL0     H14823   7.676  10.287   8.533  0.0313  3.8041  1.3219
  110MOL0     H14824   7.924  10.242   8.694 -0.6092  0.2531  3.1485
  110MOL0     H14825   7.843  10.399   8.688  3.8236  0.6749 -4.1575
  110MOL0     H14826   7.694  10.131   8.725 -0.3271  0.3777  2.2056
  110MOL0     H14827   7.651  10.285   8.802 -1.9595 -0.1917 -3.5669
  110MOL0     H14828   7.742  10.123   8.971 -3.4800  2.2514 -1.6609
  110MOL0     H14829   7.885  10.112   8.885 -0.2410 -0.7702 -0.0872
  110MOL0     H14830   8.365  10.598   8.073 -1.9152 -2.6070 -1.6054
  110MOL0     H14831   8.595  10.564   7.962  0.2341 -0.0847  0.5759
  110MOL0     H14832   8.972  10.052   7.979  0.5653  0.3575  1.7641
  110MOL0     H14833   9.207  10.027   7.930  2.6660  0.3141  0.1235
  110MOL0     H14834   7.986  10.189   7.929  1.3392 -0.1591 -0.1727
  110MOL0     H14835   7.805  10.271   7.787 -0.0359 -1.2875 -6.6670
  110MOL0     H14836   7.710  10.460   7.344 -2.1005 -0.8796 -0.6477
  110MOL0     H14837   7.520  10.485   7.226 -3.6356 -0.7074  1.1417
  110MOL0     H14838   7.153  10.739   7.285 -0.8283 -1.7895 -1.3921
  110MOL0     H14839   7.149  10.613   7.401 -3.0525  4.0803  0.2488
  110MOL0     H14840   7.107  10.560   7.110 -0.5695 -0.7585 -0.9525
  110MOL0     H14841   6.990  10.597   7.243  0.0546 -0.9046  0.7044
  110MOL0     H14842   7.143  10.405   7.361  3.6240 -3.2688 -1.0402
  110MOL0     H14843   7.194  10.369   7.217  1.8800 -0.7800  2.9260
  110MOL0     H14844   6.998  10.216   7.267 -0.9541 -1.6796 -4.9572
  110MOL0     H14845   6.890  10.357   7.296 -2.3679 -0.2639 -2.0418
  110MOL0     H14846   6.881  10.278   6.875  1.4499  0.8509 -0.6759
  110MOL0     H14847   7.313  10.716   7.499 -1.3075 -0.9314 -0.2222
  110MOL0     H14848   7.530  10.684   7.769 -3.9808 -1.3346 -0.1319
  110MOL0     H14849   7.602  10.816   7.689 -0.2736 -0.5203  0.0025
  110MOL0     H14850   7.420  10.798   7.687  0.0354  1.9868 -1.2415
  111MOL0     O14851   8.445   2.536   9.376 -0.0858  0.0274  0.6138
  111MOL0     C14852   8.547   2.471   9.401  0.3062 -0.3242 -0.6206
  111MOL0     O14853   8.639   2.501   9.501  0.4984  1.1913 -0.5422
  111MOL0     C14854   8.615   2.605   9.588 -0.5080  0.4493  0.2390
  111MOL0     C14855   8.699   2.716   9.592 -0.0128 -0.0056 -0.0885
  111MOL0     C14856   8.668   2.825   9.673  0.8262  0.6714  1.0241
  111MOL0     C14857   8.548   2.814   9.754  0.5921  0.3196  0.1442
  111MOL0     O14858   8.494   2.902   9.845 -0.1078  0.9488 -0.2455
  111MOL0     C14859   8.555   3.029   9.849  0.8488 -0.6482  0.1194
  111MOL0     C14860   8.692   3.032   9.916  0.0565  0.1913  0.6370
  111MOL0     C14861   8.677   3.036  10.072  0.8628 -0.0888 -0.3499
  111MOL0     C14862   8.813   3.045  10.129  1.2974  0.0960  1.2027
  111MOL0     C14863   8.802   3.064  10.281 -0.5171  0.3518 -1.0575
  111MOL0     C14864   8.951   3.052  10.338  0.4266 -0.0968  0.1224
  111MOL0     C14865   8.967   3.054  10.493  0.8262 -0.9920 -0.1396
  111MOL0     C14866   8.920   3.201  10.543 -0.2436  0.5049 -0.1452
  111MOL0     N14867   8.960   3.208  10.691  0.9751  0.2271 -0.3220
  111MOL0     C14868   8.891   3.132  10.791 -0.1050  0.2420  0.0266
  111MOL0     C14869   8.952   3.161  10.904 -0.8352  0.1237 -0.6773
  111MOL0     C14870   8.925   3.093  11.042  0.0729 -0.4729  0.1390
  111MOL0     C14871   8.775   3.115  11.072  0.5728  0.3732  0.5416
  111MOL0     C14872   8.733   3.049  11.212 -0.0192  0.0496 -0.2689
  111MOL0     C14873   8.778   3.108  11.343 -0.1631 -0.5248 -0.5610
  111MOL0     O14874   8.765   3.252  11.344  0.0417 -0.6056 -0.8192
  111MOL0     C14875   8.783   3.308  11.471 -0.8587 -0.2741  0.9719
  111MOL0     C14876   8.732   3.429  11.505  0.5111 -0.5476 -0.0699
  111MOL0     C14877   8.755   3.493  11.635  0.3796  0.2364  0.6295
  111MOL0     C14878   8.806   3.426  11.742  1.2200 -0.2275  0.4198
  111MOL0     C14879   8.815   3.484  11.880 -0.3254 -0.1752  0.6697
  111MOL0     O14880   8.759   3.607  11.898 -0.5629 -0.8418 -0.6899
  111MOL0     C14881   8.810   3.681  12.009 -0.0416 -0.5893 -0.2339
  111MOL0     C14882   8.947   3.707  12.013  0.1206 -0.3874 -0.7305
  111MOL0     C14883   8.998   3.779  12.116 -0.7563  0.0739 -0.1397
  111MOL0     C14884   8.913   3.850  12.197  0.4307 -0.1858  0.3327
  111MOL0     O14885   8.960   3.921  12.302 -0.2174  0.1851 -0.5582
  111MOL0     C14886   8.941   3.864  12.434 -0.4688  1.0261 -0.4015
  111MOL0     C14887   9.009   3.954  12.535 -0.1397  0.1474  0.8501
  111MOL0     C14888   9.084   3.859  12.632 -0.0187 -0.1868  0.5297
  111MOL0     C14889   9.110   3.926  12.764  0.3271  0.1903 -0.5835
  111MOL0     C14890   9.193   3.835  12.864  0.0351  0.3948  0.7127
  111MOL0     C14891   9.149   3.882  13.005  0.1773  0.7569 -0.1716
  111MOL0     C14892   9.236   3.828  13.120 -0.4288  0.2858  0.0599
  111MOL0     C14893   9.384   3.843  13.116 -0.7821  0.2529 -0.0288
  111MOL0    Cl14894   9.430   4.014  13.050  0.2579  0.0870  0.0615
  111MOL0     C14895   8.774   3.842  12.186 -0.9272 -0.1892  0.9009
  111MOL0     C14896   8.722   3.760  12.087 -0.8491  0.2242  0.5757
  111MOL0     O14897   8.881   3.424  11.966  0.4645  0.2563  0.6872
  111MOL0     C14898   8.859   3.298  11.712 -0.2259 -1.1989  0.6292
  111MOL0     C14899   8.848   3.246  11.581  0.1992  0.0816  0.4260
  111MOL0     N14900   9.047   3.253  10.875  0.5739  1.0011 -0.2902
  111MOL0     N14901   9.051   3.284  10.749 -0.5810 -1.0165 -0.0118
  111MOL0     C14902   8.484   2.689   9.764  0.3085 -2.0425 -0.0163
  111MOL0     C14903   8.511   2.587   9.676 -0.2528 -0.3336  0.5689
  111MOL0     C14904   8.588   2.356   9.322 -0.4492  0.6226 -0.1184
  111MOL0     C14905   8.632   2.372   9.186 -0.1115  0.4283 -0.0270
  111MOL0     C14906   8.673   2.270   9.113  0.2246  0.2911 -0.0194
  111MOL0     C14907   8.653   2.140   9.154 -0.1302 -0.4414 -0.1208
  111MOL0     O14908   8.675   2.034   9.067 -0.1037 -0.0539  0.9330
  111MOL0     C14909   8.769   1.930   9.097  0.0384 -0.6629 -0.6184
  111MOL0     C14910   8.881   1.944   8.995  0.5164 -0.5383  0.8555
  111MOL0     C14911   8.850   1.918   8.845  0.4541 -0.0306  0.1549
  111MOL0     C14912   8.861   2.040   8.761 -0.1416 -0.4790 -1.1136
  111MOL0     C14913   8.854   2.003   8.621 -0.4455 -0.4988 -0.7941
  111MOL0     C14914   8.840   1.985   8.505 -0.0143  0.5247  0.0373
  111MOL0     C14915   8.592   2.121   9.282 -1.3366 -0.1493  0.4599
  111MOL0     C14916   8.549   2.229   9.361 -0.0867  0.1943 -0.1844
  111MOL0     C14917   8.481   2.192   9.499  0.0480 -0.2988  0.8155
  111MOL0     H14918   8.779   2.728   9.519 -1.1031  5.5819 -0.8412
  111MOL0     H14919   8.731   2.913   9.674 -2.2013  3.2079 -2.4634
  111MOL0     H14920   8.569   3.059   9.744 -2.3297 -1.2621 -0.5853
  111MOL0     H14921   8.489   3.102   9.897  1.1811 -0.8521  0.8964
  111MOL0     H14922   8.746   3.123   9.889  1.4511 -1.4246 -2.5569
  111MOL0     H14923   8.752   2.943   9.891 -2.0592 -0.6419 -1.8636
  111MOL0     H14924   8.629   2.942  10.102 -0.9405  0.3410 -1.7570
  111MOL0     H14925   8.615   3.117  10.109  0.1445 -1.4679  1.6936
  111MOL0     H14926   8.867   2.956  10.097 -1.4140 -2.2683  2.7445
  111MOL0     H14927   8.849   3.137  10.082 -1.4845  0.5664 -0.1830
  111MOL0     H14928   8.784   3.169  10.303 -1.8581 -0.4759  2.5366
  111MOL0     H14929   8.723   3.009  10.333  0.6437 -0.1856  0.1720
  111MOL0     H14930   8.990   2.958  10.297 -2.1806 -2.8653  3.2744
  111MOL0     H14931   9.002   3.141  10.302 -1.2282  0.6867 -0.3490
  111MOL0     H14932   9.066   3.026  10.531  1.2049 -5.3294 -3.4409
  111MOL0     H14933   8.904   2.976  10.538 -4.0833  1.5711 -1.8700
  111MOL0     H14934   8.960   3.287  10.488  0.5341 -1.2817 -2.5235
  111MOL0     H14935   8.811   3.204  10.541 -0.8210 -2.3766  5.7398
  111MOL0     H14936   8.812   3.063  10.761  1.3701 -1.2531 -0.5330
  111MOL0     H14937   8.956   2.988  11.035  2.1771  0.1281 -0.4625
  111MOL0     H14938   8.981   3.144  11.122 -2.5790  3.5444 -0.2496
  111MOL0     H14939   8.739   3.218  11.078 -1.5359 -0.2028 -0.9396
  111MOL0     H14940   8.716   3.055  11.002  0.5910 -2.7438  3.0054
  111MOL0     H14941   8.766   2.945  11.213  0.0756  0.0780  0.2439
  111MOL0     H14942   8.624   3.059  11.213 -0.0086  0.3444  1.3532
  111MOL0     H14943   8.879   3.068  11.356 -0.5108 -1.2435  0.0265
  111MOL0     H14944   8.715   3.057  11.417  0.4894 -0.7543 -0.1600
  111MOL0     H14945   8.690   3.484  11.421  3.4655 -0.7642 -1.8283
  111MOL0     H14946   8.728   3.598  11.649 -0.0322 -0.0369  2.0596
  111MOL0     H14947   9.018   3.669  11.940  1.8948  0.6707  0.3637
  111MOL0     H14948   9.106   3.782  12.127 -0.8337 -3.0141  3.7861
  111MOL0     H14949   8.834   3.853  12.457 -0.4610  2.2395  0.3359
  111MOL0     H14950   8.989   3.767  12.420  1.8468  1.8679  1.1833
  111MOL0     H14951   9.082   4.017  12.484  2.4984 -1.0867  2.8607
  111MOL0     H14952   8.944   4.023  12.590 -0.8952  1.3011 -1.3822
  111MOL0     H14953   9.030   3.764  12.640  0.6744 -0.8315 -1.6459
  111MOL0     H14954   9.180   3.834  12.585 -0.5484  0.5010 -0.9508
  111MOL0     H14955   9.011   3.950  12.803  0.5011 -0.3986  0.2400
  111MOL0     H14956   9.162   4.020  12.741 -0.6143  1.0370  0.5894
  111MOL0     H14957   9.302   3.837  12.849 -0.2394  2.6781 -1.8180
  111MOL0     H14958   9.168   3.729  12.851 -0.6571  0.7998 -1.7657
  111MOL0     H14959   9.161   3.989  13.022  3.3034 -0.0141  4.4002
  111MOL0     H14960   9.043   3.880  13.032  0.7044  2.4887  2.3292
  111MOL0     H14961   9.198   3.726  13.132 -3.3866  1.3318  0.5883
  111MOL0     H14962   9.205   3.863  13.219  1.0980 -2.8889  1.8404
  111MOL0     H14963   9.432   3.819  13.211 -0.3670 -0.4455 -0.4086
  111MOL0     H14964   9.416   3.766  13.045  2.1497  1.6898 -0.4235
  111MOL0     H14965   8.701   3.900  12.241 -1.9748 -0.8305  0.2345
  111MOL0     H14966   8.615   3.751  12.073 -0.6729  1.0539 -1.7174
  111MOL0     H14967   8.888   3.225  11.787  0.2593  0.8573  2.5566
  111MOL0     H14968   8.880   3.145  11.559 -1.1220 -0.2552 -0.0563
  111MOL0     H14969   8.412   2.680   9.846  0.9966  1.1127  1.0745
  111MOL0     H14970   8.444   2.502   9.678  0.1807 -0.6942  0.0646
  111MOL0     H14971   8.644   2.471   9.142  2.7744  0.2604  0.1917
  111MOL0     H14972   8.715   2.295   9.016 -2.0544 -2.9052 -2.0335
  111MOL0     H14973   8.723   1.830   9.091  0.5398 -1.0116  0.9340
  111MOL0     H14974   8.797   1.943   9.202 -4.4509  2.4066  0.4584
  111MOL0     H14975   8.964   1.879   9.024  0.6764 -0.0465  1.5239
  111MOL0     H14976   8.917   2.047   8.993  3.7584 -1.5391 -1.6960
  111MOL0     H14977   8.749   1.876   8.849  0.0240  1.0032  0.6597
  111MOL0     H14978   8.926   1.847   8.813  0.1163 -1.2817  1.9935
  111MOL0     H14979   8.779   2.109   8.782 -1.2226 -2.3933  1.4914
  111MOL0     H14980   8.956   2.085   8.791 -0.1940 -1.6020  0.8546
  111MOL0     H14981   8.816   1.952   8.406  4.2374  1.1621 -1.4097
  111MOL0     H14982   8.566   2.025   9.325 -2.1656  0.0657  0.4680
  111MOL0     H14983   8.445   2.288   9.537 -1.5660 -1.5448  2.5924
  111MOL0     H14984   8.407   2.114   9.481 -0.0109 -0.5246  1.9622
  111MOL0     H14985   8.554   2.139   9.561 -2.4727 -4.0429  0.9099
  112MOL0     O14986   4.558  10.916   2.996  0.3969 -0.5194 -0.4904
  112MOL0     C14987   4.679  10.904   3.029  0.2051  1.0772 -0.3597
  112MOL0     O14988   4.773  10.889   2.932 -0.3376  0.0908 -1.1554
  112MOL0     C14989   4.740  10.886   2.801 -0.1689 -0.0794  0.2456
  112MOL0     C14990   4.675  10.790   2.736 -0.0552  0.6885  0.4858
  112MOL0     C14991   4.675  10.778   2.594 -1.3197  0.0134  0.6222
  112MOL0     C14992   4.742  10.877   2.519  0.3120  0.2515  0.2608
  112MOL0     O14993   4.739  10.889   2.386 -0.0990  0.0044 -0.3690
  112MOL0     C14994   4.845  10.831   2.315 -0.8910 -0.4818 -0.0173
  112MOL0     C14995   4.788  10.736   2.218 -0.3597 -0.2406  0.3028
  112MOL0     C14996   4.873  10.686   2.099  0.4683 -1.0006 -0.1001
  112MOL0     C14997   4.973  10.586   2.151 -0.6579  0.3123 -0.0976
  112MOL0     C14998   5.116  10.622   2.106  1.2562  0.1137 -0.7963
  112MOL0     C14999   5.170  10.747   2.183  0.3209  0.3211  0.4867
  112MOL0     C15000   5.319  10.763   2.165 -1.1167 -0.5628  0.6303
  112MOL0     C15001   5.384  10.741   2.020  0.3847  0.3837 -0.2267
  112MOL0     N15002   5.332  10.841   1.926  0.7873 -0.7629 -0.4068
  112MOL0     C15003   5.359  10.978   1.926  0.4155 -0.7061 -1.4193
  112MOL0     C15004   5.277  11.020   1.826 -0.5921 -0.9082  0.0684
  112MOL0     C15005   5.267  11.153   1.752  0.0052 -0.3191 -0.7755
  112MOL0     C15006   5.333  11.156   1.613  0.0740 -0.4241  0.3549
  112MOL0     C15007   5.467  11.078   1.608 -0.4340  0.5137  0.3942
  112MOL0     C15008   5.567  11.129   1.494  0.5446 -0.3888  0.2877
  112MOL0     O15009   5.610  11.262   1.506 -0.1030 -0.2049 -1.0753
  112MOL0     C15010   5.690  11.301   1.399  0.0105  0.9058  0.4149
  112MOL0     C15011   5.625  11.364   1.295  0.0314 -0.0080  0.6806
  112MOL0     C15012   5.690  11.415   1.187  0.3308 -0.4581 -0.0779
  112MOL0     C15013   5.824  11.404   1.178  0.1880  0.6234 -0.5725
  112MOL0     C15014   5.893  11.439   1.055 -0.7425 -1.0880 -0.0028
  112MOL0     O15015   6.026  11.394   1.026  0.3890 -0.2548  0.0218
  112MOL0     C15016   6.099  11.466   0.938 -0.0140 -0.6228 -0.5465
  112MOL0     C15017   6.175  11.578   0.989  1.3298 -0.1464  0.0217
  112MOL0     C15018   6.243  11.663   0.902 -0.7149  0.4618 -1.2001
  112MOL0     C15019   6.266  11.631   0.773  0.8347  0.5825  0.5323
  112MOL0     O15020   6.362  11.705   0.706 -0.0084  0.0073  0.2706
  112MOL0     C15021   6.378  11.682   0.558  0.3247  0.2019 -0.2897
  112MOL0     C15022   6.459  11.808   0.510  0.4720  0.3401  1.1295
  112MOL0     C15023   6.601  11.806   0.569 -0.5689 -0.3286 -0.2731
  112MOL0     C15024   6.669  11.946   0.537  0.0698  0.5806 -0.6655
  112MOL0     C15025   6.821  11.905   0.518  0.6635 -0.3618 -0.5471
  112MOL0     C15026   6.914  12.025   0.549 -0.8386  0.0724  1.3485
  112MOL0     C15027   7.068  12.003   0.584  0.7932 -0.2695 -0.5141
  112MOL0     C15028   7.126  12.146   0.609  0.7585  0.6392  0.4760
  112MOL0    Cl15029   7.299  12.142   0.653 -0.4372 -0.0342  0.6912
  112MOL0     C15030   6.214  11.512   0.732  0.2322 -0.1626 -0.6700
  112MOL0     C15031   6.128  11.429   0.811 -0.4199 -0.1245 -0.1362
  112MOL0     O15032   5.836  11.517   0.984 -0.0661  0.3957  0.4720
  112MOL0     C15033   5.892  11.348   1.287  0.2279  0.2881  0.0359
  112MOL0     C15034   5.827  11.295   1.403  0.6115 -0.1201  0.3326
  112MOL0     N15035   5.201  10.917   1.779  0.1223  0.5980 -0.9398
  112MOL0     N15036   5.229  10.808   1.838 -0.3775  0.2822 -0.6332
  112MOL0     C15037   4.817  10.979   2.586  0.6126  0.6421 -0.3446
  112MOL0     C15038   4.819  10.979   2.722 -0.7480 -0.6837 -1.3707
  112MOL0     C15039   4.718  10.917   3.167  1.0933 -0.8524  0.6600
  112MOL0     C15040   4.844  10.882   3.195 -0.6192  0.1890  0.7300
  112MOL0     C15041   4.898  10.876   3.324  0.6559 -0.9981  0.6802
  112MOL0     C15042   4.821  10.922   3.430 -0.1949 -0.0706  0.1968
  112MOL0     O15043   4.852  10.925   3.564 -0.4416  0.0867  0.2843
  112MOL0     C15044   4.959  10.845   3.623  0.0786  0.3748 -0.9143
  112MOL0     C15045   4.934  10.825   3.771  0.2433  1.0305 -1.0532
  112MOL0     C15046   4.988  10.938   3.857  0.3507 -0.6770  0.7176
  112MOL0     C15047   4.922  11.080   3.837 -0.4180 -1.0797  0.6525
  112MOL0     C15048   4.781  11.081   3.798  0.0315  0.1390 -0.1956
  112MOL0     C15049   4.662  11.076   3.784  1.0809 -0.1181  0.1562
  112MOL0     C15050   4.698  10.980   3.397  0.7623  0.5014 -0.3671
  112MOL0     C15051   4.643  10.973   3.271 -0.2520  0.4300  0.7265
  112MOL0     C15052   4.506  11.021   3.254 -0.0313 -0.2362  0.4096
  112MOL0     H15053   4.623  10.717   2.798  2.4336  1.7106  4.1312
  112MOL0     H15054   4.618  10.693   2.559  2.2257 -2.7473  0.9975
  112MOL0     H15055   4.898  10.917   2.271 -2.9892  0.5153 -0.7198
  112MOL0     H15056   4.921  10.774   2.369  0.5413 -1.5694 -2.9934
  112MOL0     H15057   4.703  10.784   2.167  0.3971  0.4260 -0.3511
  112MOL0     H15058   4.755  10.657   2.286 -0.8307 -1.8383 -1.6711
  112MOL0     H15059   4.922  10.772   2.052 -1.5936  1.5401  2.0865
  112MOL0     H15060   4.809  10.633   2.027 -0.1510 -1.6518  0.8939
  112MOL0     H15061   4.964  10.582   2.260  1.1529 -1.1323  0.0432
  112MOL0     H15062   4.960  10.494   2.095 -1.1779  1.4917 -1.9964
  112MOL0     H15063   5.186  10.537   2.109  2.4280  1.0813  1.0792
  112MOL0     H15064   5.106  10.651   2.001 -1.8708  0.7129 -0.4088
  112MOL0     H15065   5.116  10.835   2.148 -1.9724 -1.3518 -0.4173
  112MOL0     H15066   5.147  10.736   2.290 -0.6647  1.3728  0.3969
  112MOL0     H15067   5.383  10.697   2.224  1.1774 -1.7419 -2.8578
  112MOL0     H15068   5.349  10.863   2.198  1.3338 -0.7836 -0.7467
  112MOL0     H15069   5.493  10.740   2.028  0.6219  1.3047 -2.5892
  112MOL0     H15070   5.360  10.644   1.977  0.9666  0.8514 -1.6601
  112MOL0     H15071   5.442  11.037   1.964 -2.0354  1.4843  0.9319
  112MOL0     H15072   5.161  11.173   1.737 -0.1035 -0.3791 -0.1217
  112MOL0     H15073   5.309  11.224   1.823  0.9564 -2.2230  0.6444
  112MOL0     H15074   5.277  11.083   1.553 -1.1781  0.2731  0.6413
  112MOL0     H15075   5.340  11.254   1.565 -0.1631  1.2147  3.4527
  112MOL0     H15076   5.455  10.971   1.589 -0.5399  0.4623  0.7346
  112MOL0     H15077   5.514  11.091   1.706 -1.1631  0.6423  0.7343
  112MOL0     H15078   5.514  11.120   1.398 -2.6930  0.3985  1.8660
  112MOL0     H15079   5.661  11.074   1.484  1.3974  1.3186 -2.3638
  112MOL0     H15080   5.517  11.366   1.292  0.0023  2.1285  1.4990
  112MOL0     H15081   5.640  11.427   1.092 -0.8055 -2.3170  0.2338
  112MOL0     H15082   6.169  11.621   1.088  1.6794  1.3084 -0.5605
  112MOL0     H15083   6.289  11.752   0.943 -1.3733  1.1880 -1.9762
  112MOL0     H15084   6.422  11.588   0.524  0.0305 -0.4017  0.9382
  112MOL0     H15085   6.279  11.683   0.509  0.6653 -1.9146 -1.1358
  112MOL0     H15086   6.475  11.810   0.402 -2.0931 -1.5437  0.6337
  112MOL0     H15087   6.400  11.896   0.536 -3.5075 -1.9889  0.7269
  112MOL0     H15088   6.605  11.801   0.678  3.6436 -2.3490 -0.3614
  112MOL0     H15089   6.664  11.734   0.518  1.7404  1.0564  0.4535
  112MOL0     H15090   6.653  12.026   0.610  1.2579  1.9716 -1.8720
  112MOL0     H15091   6.638  11.988   0.442  2.5593  0.7422 -1.4879
  112MOL0     H15092   6.840  11.863   0.419  2.8418 -0.4150 -0.1628
  112MOL0     H15093   6.851  11.836   0.597 -0.3804 -1.9767 -1.4973
  112MOL0     H15094   6.901  12.101   0.471  0.8726 -2.1317 -1.2869
  112MOL0     H15095   6.866  12.061   0.640 -3.0247  0.5081  0.1077
  112MOL0     H15096   7.108  11.982   0.484 -2.9335 -0.3492 -2.1397
  112MOL0     H15097   7.099  11.916   0.644  1.1695  0.3200  0.1555
  112MOL0     H15098   7.114  12.202   0.515 -1.1719  0.4217  0.5513
  112MOL0     H15099   7.080  12.196   0.695 -1.7787 -1.7599  0.6381
  112MOL0     H15100   6.248  11.470   0.637  2.5983  1.8646 -0.8055
  112MOL0     H15101   6.077  11.342   0.771  0.0039 -0.9463  1.0534
  112MOL0     H15102   5.998  11.332   1.275  0.6907  0.0119  3.4002
  112MOL0     H15103   5.876  11.252   1.490 -1.5601 -0.3077  1.5376
  112MOL0     H15104   4.866  11.054   2.525 -2.4743  0.4108 -3.4475
  112MOL0     H15105   4.872  11.045   2.791  0.9087 -2.5879 -0.7293
  112MOL0     H15106   4.907  10.837   3.119 -2.4057  0.4774 -0.9774
  112MOL0     H15107   4.999  10.836   3.324  1.3635  0.7046  0.2410
  112MOL0     H15108   5.058  10.890   3.610  0.5592  0.1428  1.5624
  112MOL0     H15109   4.966  10.747   3.575  0.7941  1.0782 -2.3185
  112MOL0     H15110   4.976  10.731   3.807 -1.8615  0.2610 -0.4752
  112MOL0     H15111   4.826  10.811   3.774  0.4243 -1.8683 -3.6820
  112MOL0     H15112   5.093  10.951   3.827 -0.2117  0.0104 -1.1040
  112MOL0     H15113   4.991  10.920   3.964 -1.6098 -1.0435  0.7492
  112MOL0     H15114   4.952  11.139   3.924 -3.1148  1.6783 -0.1179
  112MOL0     H15115   4.973  11.125   3.751 -2.5103  0.0260 -0.0891
  112MOL0     H15116   4.555  11.066   3.775  1.0925 -3.7438  2.1259
  112MOL0     H15117   4.639  11.013   3.482  0.9540 -3.0124  1.3309
  112MOL0     H15118   4.506  11.101   3.180 -1.5970 -0.9881 -0.4369
  112MOL0     H15119   4.451  10.929   3.233  2.3902 -2.2750  2.2704
  112MOL0     H15120   4.451  11.061   3.340 -0.5955 -0.4825  0.1695
  113MOL0     O15121   3.809   8.644   8.090 -0.1015 -0.2712 -0.4235
  113MOL0     C15122   3.833   8.525   8.089  0.7996  0.1073  0.0366
  113MOL0     O15123   3.948   8.455   8.125 -0.2111 -0.6558 -0.3587
  113MOL0     C15124   4.043   8.534   8.180 -0.1699  0.8258 -0.6530
  113MOL0     C15125   4.038   8.564   8.315  0.3029  0.2933 -0.7784
  113MOL0     C15126   4.134   8.654   8.373 -0.2483 -0.5565 -0.2611
  113MOL0     C15127   4.239   8.702   8.294  0.7927 -0.0800 -0.4870
  113MOL0     O15128   4.315   8.793   8.361 -0.4289 -0.5257  0.3459
  113MOL0     C15129   4.372   8.898   8.274  0.9124 -0.4657 -0.5186
  113MOL0     C15130   4.445   8.991   8.383 -0.7875 -0.0271  0.2414
  113MOL0     C15131   4.491   9.116   8.308 -0.5842 -0.2807  0.7438
  113MOL0     C15132   4.588   9.198   8.388  0.3360 -0.5851  0.3151
  113MOL0     C15133   4.712   9.209   8.296  0.6470 -0.0081 -0.1679
  113MOL0     C15134   4.825   9.292   8.366  0.2090 -0.1464 -0.4921
  113MOL0     C15135   4.917   9.327   8.253  0.4932 -0.5665 -0.7209
  113MOL0     C15136   5.042   9.384   8.311  0.1900  0.4045  1.1089
  113MOL0     N15137   5.022   9.522   8.370  0.1628 -1.1850  0.3882
  113MOL0     C15138   5.068   9.643   8.320  0.3505  0.1740  0.2074
  113MOL0     C15139   5.040   9.742   8.408 -0.7608  0.3195  0.6895
  113MOL0     C15140   5.071   9.886   8.375  0.4624 -0.0978 -0.6685
  113MOL0     C15141   5.220   9.916   8.420 -0.4013  0.8117  0.5807
  113MOL0     C15142   5.252  10.061   8.438  1.1401 -0.0565  0.1566
  113MOL0     C15143   5.282  10.122   8.303  0.8858  0.3774 -0.2478
  113MOL0     O15144   5.411  10.089   8.251  0.4490 -0.2729  0.1512
  113MOL0     C15145   5.534  10.138   8.291 -0.6763 -0.3909 -0.1662
  113MOL0     C15146   5.544  10.236   8.395  0.6204  0.0083  0.2256
  113MOL0     C15147   5.666  10.301   8.413 -0.6841  0.5595  0.0354
  113MOL0     C15148   5.778  10.273   8.338 -0.8400  0.0979  1.0595
  113MOL0     C15149   5.912  10.338   8.363  0.0999 -0.1773  0.4655
  113MOL0     O15150   6.015  10.317   8.278  0.2547 -0.2760 -0.1682
  113MOL0     C15151   6.134  10.359   8.317 -0.2852  0.1947  0.3465
  113MOL0     C15152   6.226  10.262   8.342 -0.3290  0.6221 -0.4686
  113MOL0     C15153   6.355  10.300   8.389 -0.4977  0.0504  0.3650
  113MOL0     C15154   6.397  10.437   8.401 -0.1631 -0.1811  0.6465
  113MOL0     O15155   6.525  10.473   8.438  0.4265  0.3196  0.7119
  113MOL0     C15156   6.551  10.611   8.462  0.3273  0.2034 -0.0154
  113MOL0     C15157   6.699  10.626   8.495 -0.0949 -0.1372 -0.2077
  113MOL0     C15158   6.769  10.754   8.537 -0.2457 -0.1428  1.1877
  113MOL0     C15159   6.907  10.724   8.578 -0.3735  0.0509 -0.1003
  113MOL0     C15160   7.018  10.823   8.573  0.1269  0.1772  0.1239
  113MOL0     C15161   6.999  10.933   8.678  0.6519 -0.2234 -0.0991
  113MOL0     C15162   7.007  10.876   8.823  1.3614  0.1078  0.4500
  113MOL0     C15163   6.972  10.987   8.919 -0.5129 -0.1305  0.0640
  113MOL0    Cl15164   6.804  11.039   8.906  0.0209  0.2308 -0.0900
  113MOL0     C15165   6.295  10.533   8.368  0.1351  0.0783 -0.0888
  113MOL0     C15166   6.169  10.492   8.327 -0.0078 -0.1302  0.2321
  113MOL0     O15167   5.914  10.406   8.462 -0.1535  0.2345  0.6128
  113MOL0     C15168   5.768  10.171   8.239 -0.3151  1.0434 -0.3103
  113MOL0     C15169   5.653  10.102   8.213  1.1963  0.0787  0.1550
  113MOL0     N15170   4.972   9.683   8.511 -0.1877  0.0814 -0.6061
  113MOL0     N15171   4.972   9.554   8.498  0.5563 -0.0475  0.5275
  113MOL0     C15172   4.239   8.668   8.158  0.0671 -0.5798 -0.3943
  113MOL0     C15173   4.138   8.581   8.099  0.0821 -0.0838 -0.2741
  113MOL0     C15174   3.718   8.436   8.045 -0.9908  0.0289 -0.5835
  113MOL0     C15175   3.640   8.470   7.930 -0.3165 -0.0878  0.2714
  113MOL0     C15176   3.538   8.384   7.878 -0.0218 -0.4035 -0.4450
  113MOL0     C15177   3.526   8.262   7.943 -0.0226  0.4227 -1.1027
  113MOL0     O15178   3.437   8.170   7.900 -0.0367 -0.8718  0.0213
  113MOL0     C15179   3.452   8.030   7.923 -0.1517 -0.0351 -0.0982
  113MOL0     C15180   3.373   7.973   7.801  0.7183  0.3452  0.1256
  113MOL0     C15181   3.410   7.826   7.787  1.1802  0.3099 -0.3793
  113MOL0     C15182   3.296   7.733   7.838  0.3034  0.5557  0.7484
  113MOL0     C15183   3.315   7.712   7.987  0.7727  0.9029  0.7089
  113MOL0     C15184   3.323   7.676   8.106  0.1113  0.2167  0.2908
  113MOL0     C15185   3.590   8.237   8.062 -0.0830  0.5790 -0.4109
  113MOL0     C15186   3.689   8.317   8.112  0.5836  0.0913  0.5419
  113MOL0     C15187   3.769   8.268   8.239 -0.5325  0.0695 -0.9575
  113MOL0     H15188   3.945   8.532   8.360 -0.3779 -0.2879 -2.5248
  113MOL0     H15189   4.127   8.697   8.472 -0.6428  1.0202 -0.9240
  113MOL0     H15190   4.438   8.867   8.192  2.5133 -0.3450  0.6726
  113MOL0     H15191   4.286   8.949   8.230  2.8378  0.6146 -3.3960
  113MOL0     H15192   4.532   8.938   8.422 -0.1499  1.1372  0.4240
  113MOL0     H15193   4.372   9.020   8.460 -0.8678  0.8639 -0.1715
  113MOL0     H15194   4.407   9.184   8.293 -0.5890 -0.5536 -0.5751
  113MOL0     H15195   4.521   9.090   8.206  0.3810 -0.3098  1.0188
  113MOL0     H15196   4.553   9.300   8.408 -0.5263 -0.5321 -1.3022
  113MOL0     H15197   4.610   9.152   8.484  0.7902 -3.6355 -1.1243
  113MOL0     H15198   4.757   9.111   8.274 -0.4707 -0.1262 -2.1576
  113MOL0     H15199   4.691   9.256   8.200  1.3928  2.5041  0.8118
  113MOL0     H15200   4.778   9.382   8.408 -0.6084 -0.9840  0.4665
  113MOL0     H15201   4.853   9.233   8.454 -2.2607 -2.9211 -1.3711
  113MOL0     H15202   4.858   9.387   8.184 -2.7984 -1.9860  0.6101
  113MOL0     H15203   4.946   9.239   8.195 -1.9674 -1.5521 -0.5804
  113MOL0     H15204   5.083   9.329   8.396  0.8849  0.3554  0.7533
  113MOL0     H15205   5.113   9.375   8.228 -2.4542  0.6476 -1.3584
  113MOL0     H15206   5.113   9.656   8.222  1.0029  0.9325  0.5920
  113MOL0     H15207   5.043   9.913   8.273  0.0079  0.2887 -0.4466
  113MOL0     H15208   5.003   9.941   8.440 -1.0930 -2.8018  0.1813
  113MOL0     H15209   5.226   9.879   8.523  0.1126 -1.7684 -0.3128
  113MOL0     H15210   5.292   9.880   8.346  0.1576  4.0553 -0.6074
  113MOL0     H15211   5.342  10.077   8.499  1.2045  0.9865 -0.1932
  113MOL0     H15212   5.163  10.109   8.479  0.2201 -2.1059  0.6711
  113MOL0     H15213   5.268  10.230   8.309 -4.2360 -0.0799  0.0357
  113MOL0     H15214   5.204  10.081   8.238 -0.2326  0.0658  1.2465
  113MOL0     H15215   5.459  10.261   8.458 -1.5984 -2.9930 -1.2834
  113MOL0     H15216   5.672  10.363   8.502 -2.4541 -1.6832  1.8363
  113MOL0     H15217   6.189  10.160   8.344 -0.0720  0.4130 -2.8415
  113MOL0     H15218   6.420  10.220   8.422  1.0102  1.6898  1.5367
  113MOL0     H15219   6.524  10.666   8.372 -2.2211 -2.2284 -0.8558
  113MOL0     H15220   6.487  10.643   8.545 -4.4692  1.0271 -3.6276
  113MOL0     H15221   6.709  10.553   8.576  1.1048  0.2982  0.0495
  113MOL0     H15222   6.745  10.584   8.405 -2.0769  2.1381 -2.4394
  113MOL0     H15223   6.766  10.833   8.462 -0.6003 -3.8206 -3.0899
  113MOL0     H15224   6.735  10.790   8.635  2.5589  0.9727  1.8547
  113MOL0     H15225   6.944  10.651   8.506 -0.3891  1.7604 -1.8959
  113MOL0     H15226   6.895  10.663   8.669 -2.7516 -0.8011 -0.9065
  113MOL0     H15227   7.029  10.873   8.477 -3.0185  1.4355  0.2774
  113MOL0     H15228   7.100  10.760   8.605 -1.3921 -1.2971  1.3016
  113MOL0     H15229   7.085  11.001   8.676 -0.0613  0.9672  3.1240
  113MOL0     H15230   6.911  10.997   8.664  0.5239 -0.7109 -1.6260
  113MOL0     H15231   7.100  10.822   8.839  2.7064  1.3711 -2.3228
  113MOL0     H15232   6.925  10.804   8.836 -0.4556  2.0340  0.2276
  113MOL0     H15233   6.974  10.960   9.024  0.3143 -0.7643 -0.1093
  113MOL0     H15234   7.041  11.072   8.914  2.9494 -2.7065  0.4098
  113MOL0     H15235   6.313  10.639   8.381  0.0576 -0.2367  3.8433
  113MOL0     H15236   6.089  10.563   8.306  0.5404  0.0967 -1.2227
  113MOL0     H15237   5.843  10.142   8.166 -1.1325  0.5890 -0.9872
  113MOL0     H15238   5.640  10.023   8.140  0.7007  0.2583  0.0409
  113MOL0     H15239   4.311   8.697   8.083 -0.1341 -1.9443 -1.1606
  113MOL0     H15240   4.141   8.557   7.994 -2.0721  0.4205 -0.4784
  113MOL0     H15241   3.641   8.570   7.887 -1.8196 -1.0840 -2.3393
  113MOL0     H15242   3.469   8.414   7.800  0.5002  0.9157 -0.4231
  113MOL0     H15243   3.401   7.995   8.013 -1.1054  1.3809 -0.0448
  113MOL0     H15244   3.556   7.996   7.926  0.2055  1.0686  1.5554
  113MOL0     H15245   3.396   8.025   7.707 -3.3713  3.5527  0.5775
  113MOL0     H15246   3.265   7.988   7.808  1.0688  4.6441 -0.8545
  113MOL0     H15247   3.502   7.795   7.837 -0.2410  1.1530  3.0736
  113MOL0     H15248   3.414   7.797   7.682 -1.6702 -0.1542 -0.4439
  113MOL0     H15249   3.191   7.753   7.814  0.0937  0.1206  1.2772
  113MOL0     H15250   3.321   7.637   7.791  2.0608  1.7175 -0.8117
  113MOL0     H15251   3.334   7.638   8.206 -1.9767 -0.8744  0.1598
  113MOL0     H15252   3.555   8.157   8.127 -2.2615  0.2721 -1.8654
  113MOL0     H15253   3.709   8.200   8.300 -1.0538 -0.1699 -1.7289
  113MOL0     H15254   3.853   8.207   8.207 -0.0527 -0.0413  0.4408
  113MOL0     H15255   3.805   8.350   8.302 -2.8190 -0.3638  1.0629
  114MOL0     O15256   0.987   6.736   0.409  0.3866  0.5023  0.2131
  114MOL0     C15257   0.970   6.641   0.487  0.5787  0.0927 -0.3508
  114MOL0     O15258   0.976   6.641   0.623  0.4038  0.4985 -0.3998
  114MOL0     C15259   0.946   6.754   0.699  0.7086  0.9779 -0.0501
  114MOL0     C15260   1.018   6.768   0.816 -0.4872 -0.5084 -0.1110
  114MOL0     C15261   1.024   6.886   0.883 -0.4546  0.0236  0.4216
  114MOL0     C15262   0.956   6.999   0.845  0.4260 -1.3738 -0.0111
  114MOL0     O15263   0.963   7.117   0.919  0.4338  0.5290 -0.2654
  114MOL0     C15264   0.874   7.224   0.895 -0.1697 -0.0916  0.8831
  114MOL0     C15265   0.742   7.205   0.972 -0.3454  0.0898 -0.4164
  114MOL0     C15266   0.758   7.218   1.130 -0.4881  1.0191 -0.4291
  114MOL0     C15267   0.629   7.159   1.200  0.5128  0.9659 -0.9767
  114MOL0     C15268   0.607   7.221   1.332  0.6142 -0.1364 -0.8822
  114MOL0     C15269   0.455   7.198   1.370 -1.0089 -0.8673 -0.1077
  114MOL0     C15270   0.403   7.048   1.367  0.3677  0.0961  0.0270
  114MOL0     C15271   0.254   7.056   1.415  0.0484  0.8154  0.8348
  114MOL0     N15272   0.161   7.118   1.323 -0.3271  0.4541 -0.2129
  114MOL0     C15273   0.086   7.046   1.229  0.1909  0.5477 -0.0341
  114MOL0     C15274  -0.012   7.133   1.196  0.0481  1.2084 -0.5407
  114MOL0     C15275  -0.113   7.125   1.089  0.6682  0.7531 -0.4513
  114MOL0     C15276  -0.066   7.032   0.984 -0.0250 -0.1370  0.0938
  114MOL0     C15277  -0.162   7.033   0.871  0.2660  0.0559 -0.1272
  114MOL0     C15278  -0.121   6.942   0.752  0.1000  0.0505 -0.9779
  114MOL0     O15279  -0.147   6.803   0.788 -0.9133  0.5624  0.3275
  114MOL0     C15280  -0.186   6.708   0.686  0.1079  0.8883 -0.5383
  114MOL0     C15281  -0.193   6.731   0.547 -0.5628 -0.0592  1.0333
  114MOL0     C15282  -0.240   6.631   0.460  0.0328 -0.9409 -0.4035
  114MOL0     C15283  -0.300   6.518   0.514  0.5202 -0.7250 -0.5076
  114MOL0     C15284  -0.373   6.439   0.417 -0.0087  0.4511 -0.8162
  114MOL0     O15285  -0.325   6.414   0.286  0.2419  0.1657 -0.0670
  114MOL0     C15286  -0.401   6.337   0.204 -0.0808  0.2259  0.4288
  114MOL0     C15287  -0.409   6.389   0.068  0.0330 -0.1277 -0.3323
  114MOL0     C15288  -0.475   6.321  -0.031  0.6666  0.0701 -0.7783
  114MOL0     C15289  -0.541   6.202  -0.007 -1.5705  1.2948  0.0351
  114MOL0     O15290  -0.607   6.136  -0.109 -0.4503 -0.2405 -0.1073
  114MOL0     C15291  -0.648   6.230  -0.211  0.5215  0.6623  0.5150
  114MOL0     C15292  -0.736   6.153  -0.321  0.0206 -0.2318  0.9575
  114MOL0     C15293  -0.758   6.233  -0.455 -0.1979 -0.6158 -0.1685
  114MOL0     C15294  -0.859   6.179  -0.560 -0.3641  0.0371  0.3983
  114MOL0     C15295  -0.874   6.302  -0.659 -0.9762  0.0412 -0.5059
  114MOL0     C15296  -0.824   6.255  -0.797  0.0526  0.8312 -1.0684
  114MOL0     C15297  -0.868   6.340  -0.919 -0.7991 -0.4471 -1.2405
  114MOL0     C15298  -0.969   6.260  -0.995  0.0200  0.1228 -0.2671
  114MOL0    Cl15299  -1.014   6.344  -1.136  0.3607  0.1953 -0.3580
  114MOL0     C15300  -0.544   6.147   0.121  0.0679 -0.8485  0.3620
  114MOL0     C15301  -0.470   6.213   0.221  0.0565 -0.7659  0.1049
  114MOL0     O15302  -0.477   6.405   0.464  0.8830  0.7537 -0.0199
  114MOL0     C15303  -0.291   6.488   0.652  0.7299 -0.8044  0.4948
  114MOL0     C15304  -0.243   6.588   0.738  0.0276  0.0297  0.4064
  114MOL0     N15305   0.008   7.252   1.267  0.1777 -0.0280  0.0134
  114MOL0     N15306   0.109   7.239   1.339  0.1852 -0.0462 -1.2739
  114MOL0     C15307   0.873   6.990   0.727  0.2887 -0.1298  0.7396
  114MOL0     C15308   0.874   6.869   0.651  0.7224  0.9558 -1.0208
  114MOL0     C15309   0.949   6.510   0.425  0.1989 -0.1968  0.6199
  114MOL0     C15310   0.953   6.391   0.504  0.2511  0.3663  0.6040
  114MOL0     C15311   0.919   6.262   0.453  0.1556  0.5011 -0.7447
  114MOL0     C15312   0.894   6.244   0.316 -0.0622 -1.3236 -0.2046
  114MOL0     O15313   0.870   6.126   0.249  0.7660 -0.3818  0.5515
  114MOL0     C15314   0.871   6.001   0.319  0.4839  0.2713 -0.1701
  114MOL0     C15315   0.731   5.955   0.347  0.1102 -0.1516  0.3985
  114MOL0     C15316   0.663   5.938   0.202  0.7375 -0.3053 -0.4997
  114MOL0     C15317   0.509   5.909   0.205  0.3552  1.1113 -0.3588
  114MOL0     C15318   0.451   5.989   0.307  0.0517 -0.0401  0.0082
  114MOL0     C15319   0.374   6.042   0.382 -1.5012  0.2381  0.1813
  114MOL0     C15320   0.872   6.367   0.251  0.5173  1.0356 -0.5668
  114MOL0     C15321   0.893   6.490   0.298  0.3013  0.1845 -0.4411
  114MOL0     C15322   0.868   6.604   0.192  1.2333 -0.4609 -0.7948
  114MOL0     H15323   1.076   6.688   0.860 -0.4072 -0.4630 -0.1328
  114MOL0     H15324   1.084   6.891   0.973 -0.0450  2.4129  0.0832
  114MOL0     H15325   0.928   7.308   0.941  0.7359 -0.8630  1.2558
  114MOL0     H15326   0.856   7.243   0.789 -0.5442 -1.2165  0.7378
  114MOL0     H15327   0.700   7.107   0.947 -3.4075  0.4634  2.6072
  114MOL0     H15328   0.682   7.287   0.933  1.2586  2.4651  1.7959
  114MOL0     H15329   0.778   7.317   1.171 -0.0838 -0.0828  2.2129
  114MOL0     H15330   0.843   7.154   1.155  0.2689  1.9239 -0.6340
  114MOL0     H15331   0.545   7.171   1.131  0.2797  1.1924 -0.6521
  114MOL0     H15332   0.653   7.052   1.208  0.8353  1.0358 -0.9802
  114MOL0     H15333   0.678   7.181   1.405 -0.9173 -2.4367 -0.5476
  114MOL0     H15334   0.623   7.328   1.319  1.4283 -0.3052 -1.3695
  114MOL0     H15335   0.440   7.238   1.471 -0.7840 -1.9976  0.3940
  114MOL0     H15336   0.405   7.269   1.303  2.9448 -0.3625 -2.8289
  114MOL0     H15337   0.468   6.987   1.430  1.2668 -0.1397 -1.0930
  114MOL0     H15338   0.398   7.011   1.265 -3.9894  1.2088 -0.3394
  114MOL0     H15339   0.224   6.953   1.432  1.8291 -0.0442 -0.7710
  114MOL0     H15340   0.248   7.122   1.503  1.3188  1.5106  0.4368
  114MOL0     H15341   0.109   6.950   1.184 -2.3290  0.3521 -1.0536
  114MOL0     H15342  -0.197   7.074   1.138  1.2399 -0.0204 -0.2491
  114MOL0     H15343  -0.143   7.224   1.056 -1.5595  0.0203 -0.8421
  114MOL0     H15344   0.032   7.065   0.949  0.0822 -1.2728 -0.7275
  114MOL0     H15345  -0.056   6.936   1.036 -1.1423  1.2698  3.1633
  114MOL0     H15346  -0.175   7.136   0.837 -3.5188  0.9394  3.2350
  114MOL0     H15347  -0.260   6.995   0.902 -1.1610  1.5792 -2.4318
  114MOL0     H15348  -0.015   6.956   0.729  0.5328  0.5487  1.1472
  114MOL0     H15349  -0.177   6.975   0.664 -0.2244 -1.2140 -1.2521
  114MOL0     H15350  -0.163   6.824   0.499 -1.5051  1.3697  3.0478
  114MOL0     H15351  -0.233   6.644   0.353  1.7420  2.7348 -0.0147
  114MOL0     H15352  -0.356   6.479   0.039 -0.3644 -0.0889 -0.9595
  114MOL0     H15353  -0.452   6.355  -0.132  2.3914  2.3973  0.3137
  114MOL0     H15354  -0.709   6.309  -0.166  1.1664  1.9555 -0.8192
  114MOL0     H15355  -0.570   6.271  -0.276 -2.1626  0.9499 -2.7898
  114MOL0     H15356  -0.673   6.067  -0.340  1.6145  0.7641  1.5389
  114MOL0     H15357  -0.828   6.117  -0.273 -0.4875  0.8493  0.8301
  114MOL0     H15358  -0.786   6.333  -0.421  0.9190 -1.7877  5.1183
  114MOL0     H15359  -0.659   6.242  -0.501  0.1025 -1.6954  0.2381
  114MOL0     H15360  -0.950   6.135  -0.520  0.6778 -2.9432 -0.2955
  114MOL0     H15361  -0.810   6.093  -0.605  0.3804  0.1148  1.0457
  114MOL0     H15362  -0.820   6.396  -0.642 -1.3214  1.0212 -4.0697
  114MOL0     H15363  -0.980   6.330  -0.658 -1.1806 -0.7025  0.8547
  114MOL0     H15364  -0.715   6.253  -0.796  0.1852  2.0148 -4.1199
  114MOL0     H15365  -0.863   6.153  -0.807  1.0348  0.2146  0.7727
  114MOL0     H15366  -0.780   6.360  -0.981 -2.0237  2.3165 -2.2530
  114MOL0     H15367  -0.910   6.437  -0.888 -0.4376 -1.1143  1.6015
  114MOL0     H15368  -0.912   6.168  -1.016  0.5236  0.1066  1.0798
  114MOL0     H15369  -1.060   6.246  -0.937  1.9178  2.1486  3.6266
  114MOL0     H15370  -0.587   6.047   0.121  0.4449 -1.0266 -0.9418
  114MOL0     H15371  -0.466   6.164   0.318 -1.5157  0.8934  1.0846
  114MOL0     H15372  -0.328   6.394   0.691  1.8704 -1.8112 -0.7079
  114MOL0     H15373  -0.240   6.581   0.847  0.3254 -0.7411  0.3566
  114MOL0     H15374   0.830   7.078   0.679 -2.0212 -2.7409 -2.4325
  114MOL0     H15375   0.819   6.868   0.557 -0.3817  2.4181 -0.4269
  114MOL0     H15376   0.981   6.402   0.608 -1.1666  0.1333  1.0309
  114MOL0     H15377   0.931   6.181   0.524  0.0441  0.6197 -0.5896
  114MOL0     H15378   0.925   5.992   0.413 -2.6130 -0.0946  1.7127
  114MOL0     H15379   0.913   5.930   0.247  4.5813 -0.4251  2.6192
  114MOL0     H15380   0.683   6.030   0.411  2.5141  0.6877  1.3465
  114MOL0     H15381   0.740   5.858   0.397  1.7701  0.7130  1.9094
  114MOL0     H15382   0.703   5.862   0.135  0.3240 -0.4908 -0.5377
  114MOL0     H15383   0.681   6.027   0.141  2.1490 -0.2498 -0.0328
  114MOL0     H15384   0.459   5.931   0.110 -1.2803 -0.0572  0.1853
  114MOL0     H15385   0.502   5.803   0.233  2.6500  0.8396 -0.5827
  114MOL0     H15386   0.295   6.094   0.433 -0.8577  1.4511 -0.0142
  114MOL0     H15387   0.837   6.350   0.149  0.5846 -0.5376 -0.3645
  114MOL0     H15388   0.826   6.688   0.248  3.8000 -0.4991  1.4045
  114MOL0     H15389   0.957   6.653   0.153  0.8295  2.4588  1.5941
  114MOL0     H15390   0.804   6.572   0.109  0.9042  1.0412 -1.1405
  115MOL0     O15391   5.192   4.927  11.367  0.5666  0.2407 -0.3266
  115MOL0     C15392   5.271   5.024  11.346 -0.2121  0.5175  1.1423
  115MOL0     O15393   5.367   5.021  11.248  0.5718 -0.7579  0.4065
  115MOL0     C15394   5.337   4.960  11.130  0.0525 -0.7801 -0.1713
  115MOL0     C15395   5.292   4.831  11.132 -0.2667 -0.4919  0.7114
  115MOL0     C15396   5.282   4.768  11.009  0.2266 -0.5960  0.5009
  115MOL0     C15397   5.303   4.837  10.884  0.8592  0.4700  1.1398
  115MOL0     O15398   5.283   4.771  10.766  0.3600 -0.2635 -0.2761
  115MOL0     C15399   5.319   4.848  10.644  0.7121  0.0439 -0.0466
  115MOL0     C15400   5.318   4.749  10.525  0.4864 -0.0207 -0.2992
  115MOL0     C15401   5.373   4.811  10.396  0.0543 -1.3637 -0.1528
  115MOL0     C15402   5.284   4.776  10.278  0.6032 -0.4270  0.5513
  115MOL0     C15403   5.357   4.788  10.147  0.6343  0.4261  0.5619
  115MOL0     C15404   5.260   4.732  10.037  0.2278 -0.0192 -0.4349
  115MOL0     C15405   5.270   4.580  10.031  0.6022 -0.4255 -0.0506
  115MOL0     C15406   5.411   4.507  10.031 -0.5241 -0.6131 -0.3615
  115MOL0     N15407   5.439   4.458  10.168 -0.0309  0.1736  1.0842
  115MOL0     C15408   5.523   4.503  10.263  0.6790  0.6663  0.0713
  115MOL0     C15409   5.493   4.417  10.369 -0.1216 -0.0814  0.4741
  115MOL0     C15410   5.553   4.434  10.507 -0.4266  0.2930 -0.0465
  115MOL0     C15411   5.697   4.375  10.519 -0.4528 -0.2960 -0.9393
  115MOL0     C15412   5.689   4.223  10.532 -0.2019  0.7663 -0.1900
  115MOL0     C15413   5.824   4.154  10.540 -0.1115  0.0515 -0.0717
  115MOL0     O15414   5.821   4.011  10.574 -0.5895  0.2939  0.5196
  115MOL0     C15415   5.917   3.926  10.535 -1.3117 -0.6985 -0.0837
  115MOL0     C15416   6.006   3.877  10.632  0.1371  0.2337  0.4419
  115MOL0     C15417   6.121   3.812  10.590  0.5155 -0.0352  0.4006
  115MOL0     C15418   6.133   3.771  10.449  0.7460  0.3294 -0.0496
  115MOL0     C15419   6.236   3.679  10.403 -0.5430 -0.0110 -0.0477
  115MOL0     O15420   6.226   3.614  10.284  0.0176 -0.6454  0.5599
  115MOL0     C15421   6.299   3.508  10.247  0.5216  0.7649  0.8012
  115MOL0     C15422   6.360   3.410  10.329 -0.3198 -0.4611 -0.3819
  115MOL0     C15423   6.420   3.296  10.274 -0.4920 -0.7428  0.8718
  115MOL0     C15424   6.432   3.278  10.137 -0.3254 -1.0458  0.4846
  115MOL0     O15425   6.523   3.180  10.097  0.9276 -1.0241  0.3494
  115MOL0     C15426   6.542   3.166   9.964  0.3671  0.2251 -0.4146
  115MOL0     C15427   6.622   3.045   9.929 -0.5770 -0.6374  0.0044
  115MOL0     C15428   6.617   3.009   9.781 -0.3803  0.5573  0.0184
  115MOL0     C15429   6.701   3.099   9.691  0.0448 -0.2105 -0.5235
  115MOL0     C15430   6.723   3.057   9.545 -0.4087  0.0092 -0.4672
  115MOL0     C15431   6.833   3.136   9.476 -0.0388  0.4007 -1.0435
  115MOL0     C15432   6.882   3.071   9.352 -0.1492 -0.1817  0.1124
  115MOL0     C15433   6.973   2.950   9.360 -0.0592 -0.1892  0.3336
  115MOL0    Cl15434   6.994   2.886   9.194  0.7145  0.6216 -0.1973
  115MOL0     C15435   6.365   3.370  10.048 -0.8278 -0.3929 -0.6517
  115MOL0     C15436   6.300   3.480  10.108 -0.1695  0.0514  0.6445
  115MOL0     O15437   6.332   3.665  10.483  0.2904 -0.5543  0.5575
  115MOL0     C15438   6.036   3.813  10.364  0.2540 -0.1812  0.2511
  115MOL0     C15439   5.933   3.897  10.401 -0.3428  0.3752 -0.1444
  115MOL0     N15440   5.416   4.318  10.316  0.0576 -0.1369 -0.3333
  115MOL0     N15441   5.379   4.342  10.200  0.3945  0.9602  0.2715
  115MOL0     C15442   5.363   4.966  10.894 -0.9803  0.6084 -0.4262
  115MOL0     C15443   5.385   5.021  11.017 -0.6169 -0.2297  0.4258
  115MOL0     C15444   5.239   5.150  11.424 -1.2555  0.1027  0.5408
  115MOL0     C15445   5.329   5.261  11.389 -0.3345 -0.0332 -0.3295
  115MOL0     C15446   5.322   5.374  11.460  0.2682 -0.1717 -0.8048
  115MOL0     C15447   5.235   5.391  11.569  0.6286 -0.4203  1.0346
  115MOL0     O15448   5.237   5.509  11.641 -0.2429  0.0354  1.1907
  115MOL0     C15449   5.303   5.624  11.582 -0.3531 -0.6525 -0.1049
  115MOL0     C15450   5.224   5.687  11.477  0.3016  0.5617  0.5641
  115MOL0     C15451   5.068   5.711  11.513 -0.7946 -0.1928  1.1827
  115MOL0     C15452   5.050   5.837  11.601 -0.0593  0.0018  0.2964
  115MOL0     C15453   5.108   5.951  11.538  1.0271  0.0941  0.3821
  115MOL0     C15454   5.154   6.037  11.468 -0.3356  0.2257  0.0522
  115MOL0     C15455   5.153   5.288  11.608 -0.1672  0.2466 -0.0428
  115MOL0     C15456   5.150   5.164  11.535  1.7041  0.0881  0.5541
  115MOL0     C15457   5.057   5.061  11.575  0.3590  0.9024 -0.6660
  115MOL0     H15458   5.284   4.767  11.219 -0.3653 -0.0749  1.0072
  115MOL0     H15459   5.244   4.666  11.006  1.0191 -0.8976  0.0883
  115MOL0     H15460   5.245   4.923  10.614 -0.7547 -2.0602 -2.1018
  115MOL0     H15461   5.421   4.886  10.641  0.2217  1.3683 -1.0768
  115MOL0     H15462   5.216   4.718  10.500 -0.2292  0.5861  1.6890
  115MOL0     H15463   5.381   4.666  10.562 -0.4481  0.1837  1.8837
  115MOL0     H15464   5.475   4.776  10.379  0.4069 -0.0047 -1.0183
  115MOL0     H15465   5.370   4.921  10.400 -0.2801 -1.3195 -1.2090
  115MOL0     H15466   5.244   4.675  10.279  1.1459 -0.7405 -1.9080
  115MOL0     H15467   5.196   4.841  10.276  0.3117 -0.8154  0.7848
  115MOL0     H15468   5.381   4.894  10.128  1.7284  0.1244  0.1253
  115MOL0     H15469   5.445   4.724  10.154  1.7070  1.2319 -2.9779
  115MOL0     H15470   5.155   4.758  10.049  0.1776  0.7703 -2.2687
  115MOL0     H15471   5.301   4.766   9.942  2.9147 -2.2328 -0.2148
  115MOL0     H15472   5.214   4.553   9.941  0.4319  2.2588 -0.8303
  115MOL0     H15473   5.209   4.539  10.112 -0.6689 -2.7578 -2.0551
  115MOL0     H15474   5.408   4.427   9.956 -2.4501  0.2498 -1.2865
  115MOL0     H15475   5.491   4.578  10.007 -0.6181  0.6056  2.5839
  115MOL0     H15476   5.590   4.589  10.269 -1.3099  2.2931  0.2374
  115MOL0     H15477   5.570   4.539  10.535 -1.8747  0.3198  0.8317
  115MOL0     H15478   5.479   4.400  10.580 -2.0446 -0.3766 -1.8959
  115MOL0     H15479   5.749   4.412  10.430  0.5858  3.0360  0.8741
  115MOL0     H15480   5.750   4.405  10.610  1.1171 -1.0208 -1.5763
  115MOL0     H15481   5.630   4.192  10.445 -3.2879  0.9362  1.6571
  115MOL0     H15482   5.634   4.202  10.625 -0.0942  3.7473  0.6605
  115MOL0     H15483   5.869   4.197  10.630  0.4011 -0.7386  0.0559
  115MOL0     H15484   5.882   4.184  10.452  1.8791  2.9520  2.0779
  115MOL0     H15485   5.989   3.912  10.733 -0.7530 -1.0025  0.7403
  115MOL0     H15486   6.202   3.785  10.657 -0.4984  0.0117  1.6850
  115MOL0     H15487   6.345   3.423  10.436  2.4366  0.5670 -0.0556
  115MOL0     H15488   6.475   3.250  10.356 -0.8031  1.3175  2.3468
  115MOL0     H15489   6.443   3.134   9.930  0.0390  0.5637  0.2059
  115MOL0     H15490   6.581   3.257   9.917  1.1467 -0.4822 -1.1747
  115MOL0     H15491   6.729   3.063   9.947 -0.9277  1.4710  0.2677
  115MOL0     H15492   6.597   2.967  10.002 -1.0362  1.4037  2.1609
  115MOL0     H15493   6.649   2.905   9.767  1.4466  1.0861 -0.0182
  115MOL0     H15494   6.514   3.010   9.744 -0.9601 -1.0611  1.4572
  115MOL0     H15495   6.799   3.115   9.737  0.8506  1.2300 -2.5624
  115MOL0     H15496   6.662   3.202   9.694  3.5444  1.2389  1.5774
  115MOL0     H15497   6.628   3.075   9.494 -0.1320 -1.9002 -1.7592
  115MOL0     H15498   6.739   2.949   9.537  0.3116 -0.0953  1.5998
  115MOL0     H15499   6.788   3.227   9.436 -1.8598 -0.9593 -2.2389
  115MOL0     H15500   6.914   3.169   9.541 -0.0756 -1.7225  0.1773
  115MOL0     H15501   6.931   3.154   9.300  1.2423  0.2539  1.9851
  115MOL0     H15502   6.790   3.037   9.304 -1.3622 -2.0527  3.4195
  115MOL0     H15503   7.067   2.983   9.405 -0.6235  2.5091 -0.3212
  115MOL0     H15504   6.932   2.871   9.425  3.1293 -1.6570  0.7483
  115MOL0     H15505   6.373   3.354   9.941 -1.2890 -0.3360 -0.6977
  115MOL0     H15506   6.259   3.556  10.041 -0.1662  0.7290  1.3941
  115MOL0     H15507   6.041   3.765  10.267  3.1104 -0.2842  0.3648
  115MOL0     H15508   5.872   3.931  10.318 -0.5014 -0.6179 -0.4525
  115MOL0     H15509   5.406   5.033  10.819  1.1673  1.1515  1.1910
  115MOL0     H15510   5.421   5.123  11.026  0.5336 -0.4640 -1.1161
  115MOL0     H15511   5.397   5.248  11.305  0.9587  1.6936  0.4001
  115MOL0     H15512   5.395   5.447  11.428  2.5449 -1.0554  1.9674
  115MOL0     H15513   5.407   5.597  11.560  0.8456  2.9980  0.3820
  115MOL0     H15514   5.318   5.693  11.666 -0.0724 -0.4838 -0.2929
  115MOL0     H15515   5.234   5.614  11.397  2.8834  0.5064  0.8473
  115MOL0     H15516   5.279   5.777  11.448 -2.1384  1.9040 -0.1892
  115MOL0     H15517   5.024   5.622  11.560 -2.1014 -1.4423 -2.0952
  115MOL0     H15518   5.011   5.727  11.421  1.2507 -3.9248 -0.9980
  115MOL0     H15519   4.943   5.860  11.611 -0.2107 -0.3809 -0.3663
  115MOL0     H15520   5.084   5.835  11.705 -2.2696  3.7168  1.2960
  115MOL0     H15521   5.198   6.105  11.397 -1.6707 -1.8965 -3.0440
  115MOL0     H15522   5.076   5.304  11.683 -1.5428 -2.7315 -0.6609
  115MOL0     H15523   5.108   4.965  11.579 -0.6030  0.4094  0.2080
  115MOL0     H15524   5.008   5.084  11.670  1.3497 -2.1733  0.6909
  115MOL0     H15525   4.971   5.052  11.508  1.8920 -0.3719 -2.5740
  116MOL0     O15526  10.515   2.831   3.392  0.8138 -0.2061  0.3129
  116MOL0     C15527  10.577   2.763   3.467  0.2074  0.3028  0.5829
  116MOL0     O15528  10.524   2.702   3.572  0.1727  0.3598 -0.2967
  116MOL0     C15529  10.388   2.711   3.595 -0.2520  0.3818 -0.2730
  116MOL0     C15530  10.291   2.719   3.493 -0.5464  0.5595  0.0660
  116MOL0     C15531  10.168   2.763   3.534  0.1722 -0.7550  0.1986
  116MOL0     C15532  10.131   2.768   3.666 -0.4373 -0.4149  0.0774
  116MOL0     O15533  10.009   2.804   3.717 -0.0299 -0.2817 -0.3713
  116MOL0     C15534   9.890   2.779   3.645  0.3992  0.8219 -0.4251
  116MOL0     C15535   9.780   2.846   3.724  0.7499 -0.2081  0.3395
  116MOL0     C15536   9.643   2.790   3.693 -0.8096 -0.6286  1.2384
  116MOL0     C15537   9.582   2.831   3.566 -0.5228 -0.6888 -0.3325
  116MOL0     C15538   9.446   2.754   3.559 -0.6706 -0.6573 -0.1058
  116MOL0     C15539   9.383   2.735   3.418  0.4655 -0.0758 -0.0170
  116MOL0     C15540   9.258   2.661   3.419  0.1570  0.9595  0.7709
  116MOL0     C15541   9.291   2.510   3.459  1.1335 -0.1292  0.2736
  116MOL0     N15542   9.185   2.433   3.394 -0.0107 -0.4525 -0.2021
  116MOL0     C15543   9.138   2.446   3.261  0.1962  0.0017 -0.1447
  116MOL0     C15544   9.030   2.368   3.247 -0.2525  0.2592 -0.2651
  116MOL0     C15545   8.936   2.350   3.126 -0.3574 -0.7031 -0.5386
  116MOL0     C15546   8.967   2.242   3.030  0.1606 -0.2739 -0.0936
  116MOL0     C15547   8.858   2.235   2.926  1.1438  1.4023  0.6433
  116MOL0     C15548   8.826   2.102   2.856  1.0978  1.1152  0.3333
  116MOL0     O15549   8.947   2.040   2.796 -0.1229  0.2287  0.0733
  116MOL0     C15550   8.933   1.996   2.672  0.2499  0.5048 -0.5651
  116MOL0     C15551   9.043   1.996   2.593 -0.6423  0.7593 -0.1310
  116MOL0     C15552   9.051   1.953   2.460  0.4279 -0.2204  0.1744
  116MOL0     C15553   8.939   1.893   2.396 -0.0776 -0.4395  0.8841
  116MOL0     C15554   8.939   1.814   2.272  0.7053 -0.1644 -0.5162
  116MOL0     O15555   9.055   1.817   2.203  0.5766  0.3970  0.2524
  116MOL0     C15556   9.059   1.745   2.080  0.3077  1.1614 -0.3386
  116MOL0     C15557   9.018   1.611   2.056  0.1480  0.2619 -0.2950
  116MOL0     C15558   9.004   1.564   1.925 -0.2175  0.5933  0.5642
  116MOL0     C15559   9.053   1.649   1.817 -0.0907 -0.0860  0.1485
  116MOL0     O15560   9.054   1.615   1.690  0.2108  0.3643  0.3129
  116MOL0     C15561   8.983   1.504   1.632 -0.2122  0.1049  0.3938
  116MOL0     C15562   9.063   1.369   1.665  0.1888  0.2127  0.0708
  116MOL0     C15563   9.160   1.322   1.549 -0.3488  0.1826 -0.0729
  116MOL0     C15564   9.282   1.422   1.514 -0.3960  0.4416 -0.6767
  116MOL0     C15565   9.357   1.357   1.398 -0.4100 -0.6504  1.1829
  116MOL0     C15566   9.442   1.225   1.425  0.4200 -0.1408 -0.2960
  116MOL0     C15567   9.476   1.153   1.291 -0.8297  0.0860  1.0259
  116MOL0     C15568   9.524   1.016   1.308  0.3914 -0.2506  0.1530
  116MOL0    Cl15569   9.382   0.906   1.351 -0.2128  0.1500 -0.2482
  116MOL0     C15570   9.112   1.769   1.847  0.8856 -0.4728  0.5278
  116MOL0     C15571   9.115   1.817   1.978 -0.4310  1.0190 -0.4608
  116MOL0     O15572   8.836   1.754   2.243 -0.2666 -0.2028 -0.1499
  116MOL0     C15573   8.815   1.913   2.467 -0.2637  0.7617 -0.1775
  116MOL0     C15574   8.812   1.956   2.606  0.4234  0.7389  0.5124
  116MOL0     N15575   9.008   2.315   3.374  0.9905 -0.1468  0.4194
  116MOL0     N15576   9.093   2.354   3.455 -1.1122  0.7545  0.2130
  116MOL0     C15577  10.221   2.740   3.766 -0.1454  0.4946  0.2535
  116MOL0     C15578  10.356   2.713   3.732  0.4536  0.2054 -0.1690
  116MOL0     C15579  10.715   2.759   3.477 -0.0561  1.4577 -0.2936
  116MOL0     C15580  10.759   2.746   3.605 -0.5223 -0.1057 -0.3207
  116MOL0     C15581  10.901   2.733   3.620  0.2700 -0.2845 -0.2804
  116MOL0     C15582  10.990   2.756   3.510  0.2871  0.8836 -0.7507
  116MOL0     O15583  11.126   2.744   3.535 -0.6662  0.2219  0.2496
  116MOL0     C15584  11.188   2.615   3.510 -0.1499  1.4110  0.6558
  116MOL0     C15585  11.174   2.523   3.625  0.5273 -0.0752  0.3977
  116MOL0     C15586  11.228   2.381   3.598 -0.2977 -0.8528 -0.8869
  116MOL0     C15587  11.252   2.286   3.721 -0.1639 -0.0659  0.7549
  116MOL0     C15588  11.128   2.269   3.797 -0.1091  0.4372 -1.2159
  116MOL0     C15589  11.041   2.264   3.882  0.2435 -0.8089  0.0788
  116MOL0     C15590  10.936   2.761   3.381 -0.5702  1.0367 -0.0973
  116MOL0     C15591  10.797   2.762   3.360  0.6559 -0.8951 -0.1427
  116MOL0     C15592  10.737   2.750   3.219 -0.0918  0.0990  0.2164
  116MOL0     H15593  10.311   2.703   3.387 -3.2056 -4.6324  0.0196
  116MOL0     H15594  10.101   2.797   3.455  1.2830 -0.2808 -0.5683
  116MOL0     H15595   9.906   2.837   3.553  2.0264  1.0003 -0.0618
  116MOL0     H15596   9.862   2.674   3.634  1.6786  0.4952 -0.8379
  116MOL0     H15597   9.785   2.956   3.723 -3.7111  0.1516 -0.3663
  116MOL0     H15598   9.803   2.825   3.829 -1.0890  3.2950  1.6032
  116MOL0     H15599   9.581   2.826   3.776 -1.0070 -1.7392  1.5868
  116MOL0     H15600   9.635   2.681   3.701 -0.4437 -0.9494 -1.7828
  116MOL0     H15601   9.565   2.939   3.559 -0.1543 -0.6965 -1.6324
  116MOL0     H15602   9.652   2.813   3.484  1.3846 -2.1913  1.5258
  116MOL0     H15603   9.457   2.657   3.607  0.5384  0.9809  3.2698
  116MOL0     H15604   9.367   2.798   3.621  0.9191  1.8020  0.3305
  116MOL0     H15605   9.361   2.840   3.393  0.8036  0.5563  2.1365
  116MOL0     H15606   9.456   2.690   3.351  1.5846 -2.3944  2.5497
  116MOL0     H15607   9.211   2.667   3.320 -0.7064 -0.5703  1.0541
  116MOL0     H15608   9.183   2.690   3.493 -3.8894 -1.1747 -2.1044
  116MOL0     H15609   9.393   2.483   3.433  3.1132  1.5505  5.1410
  116MOL0     H15610   9.281   2.501   3.567 -0.7850 -0.7622  0.0939
  116MOL0     H15611   9.176   2.490   3.169  0.9546  0.1098  0.2101
  116MOL0     H15612   8.837   2.329   3.166 -0.9899  0.1681 -1.6100
  116MOL0     H15613   8.923   2.447   3.077 -2.3131 -1.0342 -0.7522
  116MOL0     H15614   9.059   2.273   2.979  0.5019 -2.1379 -0.6657
  116MOL0     H15615   8.967   2.143   3.075  1.0087 -1.2723 -2.1540
  116MOL0     H15616   8.878   2.315   2.854 -1.0688  4.5363  3.2466
  116MOL0     H15617   8.763   2.261   2.973  1.3794 -0.9351  2.5884
  116MOL0     H15618   8.750   2.110   2.778  1.4514  1.6474  0.0345
  116MOL0     H15619   8.808   2.028   2.934  3.8416 -1.5512 -1.3433
  116MOL0     H15620   9.141   2.025   2.630 -0.0782  1.1903 -1.8510
  116MOL0     H15621   9.147   1.962   2.410  0.1814  0.8120 -0.1281
  116MOL0     H15622   8.982   1.556   2.143  0.9841  0.3204  0.0913
  116MOL0     H15623   8.971   1.463   1.906 -0.1006  0.4523  1.1164
  116MOL0     H15624   8.885   1.497   1.680  0.3445  1.9160  1.9109
  116MOL0     H15625   8.962   1.504   1.525 -2.5770 -1.2792  0.7869
  116MOL0     H15626   9.135   1.386   1.746  1.8879  0.6151 -1.4371
  116MOL0     H15627   8.991   1.289   1.684  1.9098 -1.8285 -1.5022
  116MOL0     H15628   9.207   1.226   1.573  0.9375  1.0920  1.2942
  116MOL0     H15629   9.109   1.308   1.454  1.6295 -0.0839 -1.1465
  116MOL0     H15630   9.343   1.427   1.604  0.9122  0.5172 -1.5433
  116MOL0     H15631   9.250   1.518   1.472  3.1085  0.8892 -2.6600
  116MOL0     H15632   9.424   1.437   1.365 -2.1328  1.1833  1.9175
  116MOL0     H15633   9.286   1.340   1.317 -0.9649 -0.9816  1.7325
  116MOL0     H15634   9.534   1.262   1.471 -1.3636  1.0538  2.6268
  116MOL0     H15635   9.390   1.148   1.483 -1.7571 -1.6944 -4.0175
  116MOL0     H15636   9.556   1.211   1.243 -0.4567 -1.3906 -0.2098
  116MOL0     H15637   9.387   1.140   1.229 -1.2994 -0.0657  1.7265
  116MOL0     H15638   9.556   0.977   1.210 -4.7365 -2.2093 -1.0620
  116MOL0     H15639   9.612   1.016   1.374  1.4807 -0.0762 -1.2406
  116MOL0     H15640   9.146   1.833   1.766 -0.1893  0.0627  0.4756
  116MOL0     H15641   9.169   1.908   2.002  0.8536 -0.2883  1.9879
  116MOL0     H15642   8.725   1.876   2.420  0.6111  0.9106 -2.0560
  116MOL0     H15643   8.717   1.946   2.658  1.7188 -0.1776  2.8544
  116MOL0     H15644  10.197   2.739   3.872  0.4823  0.7272  0.4057
  116MOL0     H15645  10.420   2.692   3.817  0.8990  0.4948 -0.4251
  116MOL0     H15646  10.696   2.757   3.693  1.7009  0.9609  1.2143
  116MOL0     H15647  10.940   2.740   3.721  0.3762  5.1504 -0.4374
  116MOL0     H15648  11.294   2.628   3.487 -0.0665  1.4840  1.0784
  116MOL0     H15649  11.136   2.562   3.430  0.0660 -0.0284  1.4407
  116MOL0     H15650  11.073   2.513   3.665  1.3139 -2.4935  2.0684
  116MOL0     H15651  11.229   2.560   3.712  0.7431 -3.4678  1.8591
  116MOL0     H15652  11.321   2.401   3.543  0.1259 -0.6350 -0.0966
  116MOL0     H15653  11.150   2.335   3.536 -1.3875 -1.4431  0.8549
  116MOL0     H15654  11.279   2.185   3.689 -1.8179  0.0596 -1.2538
  116MOL0     H15655  11.334   2.330   3.778 -0.5834 -0.1468  1.4242
  116MOL0     H15656  10.963   2.261   3.956 -0.9595 -1.2458 -1.1689
  116MOL0     H15657  10.999   2.773   3.294 -0.4584 -0.5842 -0.2715
  116MOL0     H15658  10.825   2.746   3.154 -0.7135  0.0500 -0.6407
  116MOL0     H15659  10.682   2.655   3.213  1.7177 -0.8851 -2.6957
  116MOL0     H15660  10.666   2.828   3.190  0.1610  0.3997  0.3963
  117MOL0     O15661   9.655   7.978   5.443  0.7278 -0.3053 -0.3220
  117MOL0     C15662   9.777   7.984   5.429  0.7238 -0.9129  0.5088
  117MOL0     O15663   9.862   8.074   5.487 -0.6454  1.0868 -0.1823
  117MOL0     C15664   9.816   8.193   5.539  0.2153  0.2082 -0.1181
  117MOL0     C15665   9.694   8.206   5.605  0.3410  0.0957  0.0532
  117MOL0     C15666   9.658   8.331   5.667 -0.5107  0.1734 -0.1700
  117MOL0     C15667   9.746   8.435   5.678  0.7961 -1.0843 -0.6006
  117MOL0     O15668   9.715   8.559   5.736  0.1498 -0.2963 -0.1639
  117MOL0     C15669   9.590   8.578   5.801 -0.5998 -0.2160 -0.5720
  117MOL0     C15670   9.602   8.711   5.877  1.1455  0.1778 -0.2607
  117MOL0     C15671   9.596   8.832   5.790  0.1455 -0.3402  0.5137
  117MOL0     C15672   9.577   8.966   5.863 -0.3748 -0.0133  0.2811
  117MOL0     C15673   9.616   9.083   5.774  0.1273  0.2318  0.0018
  117MOL0     C15674   9.576   9.212   5.844  0.1314  0.6592  0.7156
  117MOL0     C15675   9.625   9.335   5.771 -0.7673 -0.2345  0.5893
  117MOL0     C15676   9.545   9.377   5.645 -0.2444 -0.3938 -0.8920
  117MOL0     N15677   9.569   9.519   5.598  1.0437  0.1212 -0.4171
  117MOL0     C15678   9.580   9.631   5.679  0.2591 -0.4174 -0.2053
  117MOL0     C15679   9.602   9.732   5.601 -0.3759  0.3387 -0.2216
  117MOL0     C15680   9.611   9.874   5.650  0.1966 -0.3837  0.0849
  117MOL0     C15681   9.624   9.963   5.534 -0.6651  0.3074  1.2064
  117MOL0     C15682   9.538  10.087   5.541  0.4234  0.2110  0.0964
  117MOL0     C15683   9.548  10.189   5.435  0.1993 -0.4941  1.1738
  117MOL0     O15684   9.688  10.218   5.399 -0.1915  0.0993 -0.5902
  117MOL0     C15685   9.754  10.316   5.473 -0.3574 -0.5113 -0.9591
  117MOL0     C15686   9.712  10.363   5.604  0.0396  0.3854  0.2297
  117MOL0     C15687   9.782  10.471   5.663  0.1760 -0.1509 -0.2521
  117MOL0     C15688   9.890  10.528   5.597  0.2470  0.4835  0.2581
  117MOL0     C15689   9.972  10.634   5.663  0.8193  0.9394  0.6558
  117MOL0     O15690   9.945  10.650   5.796  0.0271 -0.3400 -0.4156
  117MOL0     C15691  10.005  10.750   5.876 -0.3870  1.0024  0.1978
  117MOL0     C15692   9.941  10.776   5.996  0.4484 -0.3923  0.0067
  117MOL0     C15693   9.978  10.888   6.077  0.4060 -0.1919  1.0207
  117MOL0     C15694  10.104  10.957   6.057  0.8906  0.3119  0.1707
  117MOL0     O15695  10.142  11.046   6.153 -0.4262  0.3883 -0.0534
  117MOL0     C15696  10.195  10.996   6.284 -0.1461  0.4032  0.7711
  117MOL0     C15697  10.281  10.870   6.267 -0.6570 -0.8432 -0.4648
  117MOL0     C15698  10.217  10.735   6.273  0.4187 -0.3891 -0.1178
  117MOL0     C15699  10.282  10.622   6.354  0.2959  0.4370  0.4780
  117MOL0     C15700  10.251  10.642   6.504 -0.4146  0.0631  0.6221
  117MOL0     C15701  10.320  10.545   6.595  0.7080 -0.6000 -0.2010
  117MOL0     C15702  10.472  10.532   6.590 -0.1521 -0.1587  0.9246
  117MOL0     C15703  10.526  10.446   6.700 -0.4937 -0.4433 -0.0609
  117MOL0    Cl15704  10.701  10.421   6.689 -0.2622  0.0686  0.2608
  117MOL0     C15705  10.176  10.921   5.947 -0.6021  0.5820  0.3882
  117MOL0     C15706  10.132  10.813   5.859  0.0646  0.2766  0.5355
  117MOL0     O15707  10.036  10.708   5.584 -0.3933  0.3138 -0.3679
  117MOL0     C15708   9.923  10.482   5.471 -1.1522  0.0555 -0.3754
  117MOL0     C15709   9.863  10.378   5.403 -0.3325  0.2431 -0.6013
  117MOL0     N15710   9.616   9.691   5.471 -1.0494 -0.9389 -0.2931
  117MOL0     N15711   9.619   9.559   5.475  0.5874  0.4966 -0.0915
  117MOL0     C15712   9.873   8.428   5.618 -0.2444 -0.7711 -0.2898
  117MOL0     C15713   9.905   8.302   5.554  0.6309  0.6491  0.3049
  117MOL0     C15714   9.833   7.874   5.349 -0.1506  0.0335 -0.1064
  117MOL0     C15715   9.759   7.802   5.257  0.7911 -0.2806 -0.2308
  117MOL0     C15716   9.800   7.689   5.188 -0.7113  0.6148 -0.6408
  117MOL0     C15717   9.933   7.646   5.210  0.9959 -0.3744  0.4832
  117MOL0     O15718   9.982   7.536   5.146 -0.1234  0.3473 -0.0822
  117MOL0     C15719  10.113   7.482   5.162 -0.3395 -0.4561 -0.7557
  117MOL0     C15720  10.111   7.348   5.086 -0.3281 -1.5592  1.1359
  117MOL0     C15721  10.238   7.262   5.113  0.6516 -0.5611  0.2604
  117MOL0     C15722  10.371   7.324   5.064 -0.0249 -1.0038 -0.0795
  117MOL0     C15723  10.489   7.253   5.100 -0.5146 -0.6122  0.0826
  117MOL0     C15724  10.596   7.206   5.125 -0.3423  0.1135  0.1233
  117MOL0     C15725  10.011   7.718   5.301  0.0155  0.9070 -0.2476
  117MOL0     C15726   9.970   7.832   5.368 -0.3687  0.1600  0.1536
  117MOL0     C15727  10.068   7.895   5.469 -0.2146 -0.1394  0.0194
  117MOL0     H15728   9.616   8.132   5.619  1.4123 -0.7509  1.8864
  117MOL0     H15729   9.561   8.326   5.715 -0.0734 -1.4863  0.6316
  117MOL0     H15730   9.521   8.592   5.717  1.0263  3.1512 -1.4983
  117MOL0     H15731   9.560   8.490   5.860 -1.4043 -1.1239 -2.2471
  117MOL0     H15732   9.699   8.712   5.929  1.9079  0.0614 -1.6432
  117MOL0     H15733   9.528   8.704   5.957  0.7566 -1.5541 -0.7284
  117MOL0     H15734   9.511   8.829   5.721  1.2059 -0.9169 -0.8347
  117MOL0     H15735   9.687   8.838   5.729  1.1001  0.2332  1.9503
  117MOL0     H15736   9.476   8.978   5.902 -1.3362 -0.8541 -1.7658
  117MOL0     H15737   9.643   8.955   5.950  0.0094 -3.4919 -0.2806
  117MOL0     H15738   9.725   9.078   5.758  0.1784  2.2892 -0.5712
  117MOL0     H15739   9.580   9.067   5.672  0.9139 -0.1523 -0.2216
  117MOL0     H15740   9.468   9.204   5.827  0.4098  1.7543 -2.2218
  117MOL0     H15741   9.605   9.226   5.948  1.7843  0.3325  0.3336
  117MOL0     H15742   9.732   9.332   5.748 -0.5223 -0.9964  1.6933
  117MOL0     H15743   9.604   9.415   5.842  1.6628  1.3356 -0.3334
  117MOL0     H15744   9.568   9.317   5.556  1.9746  1.4485 -1.6614
  117MOL0     H15745   9.438   9.366   5.663 -0.2542 -0.1710 -0.8162
  117MOL0     H15746   9.560   9.638   5.786  1.1688  0.9114 -0.0968
  117MOL0     H15747   9.525   9.913   5.704 -0.9475  1.3440 -2.8166
  117MOL0     H15748   9.691   9.893   5.722  1.3453 -1.7737 -0.7585
  117MOL0     H15749   9.728   9.994   5.526 -0.8357  1.0974  1.8760
  117MOL0     H15750   9.585   9.922   5.440  0.4005 -0.6120  1.1517
  117MOL0     H15751   9.542  10.126   5.643 -1.0914 -0.1090  0.3080
  117MOL0     H15752   9.429  10.071   5.537 -0.3923  4.2428  1.7055
  117MOL0     H15753   9.498  10.284   5.456 -0.5885  0.7439 -4.5650
  117MOL0     H15754   9.496  10.149   5.348  2.8059 -1.5200 -0.0387
  117MOL0     H15755   9.630  10.316   5.658  0.9575  0.6317  1.9117
  117MOL0     H15756   9.753  10.503   5.762 -2.0998 -2.6804  0.0365
  117MOL0     H15757   9.848  10.726   6.021  0.9925 -0.9340  0.9936
  117MOL0     H15758   9.905  10.912   6.154 -0.4483  1.7492 -0.3174
  117MOL0     H15759  10.252  11.066   6.345  1.5521 -2.1204  2.2721
  117MOL0     H15760  10.101  10.978   6.337 -0.7233 -2.0661 -0.8645
  117MOL0     H15761  10.361  10.879   6.193  3.6752 -1.6033  3.6112
  117MOL0     H15762  10.346  10.871   6.355 -1.8460 -1.8709  0.4652
  117MOL0     H15763  10.113  10.744   6.307  0.8076 -1.0892  1.3324
  117MOL0     H15764  10.217  10.694   6.171  3.2026 -0.5491 -0.1146
  117MOL0     H15765  10.386  10.604   6.323 -0.3691 -2.0934 -0.5441
  117MOL0     H15766  10.231  10.527   6.337  0.4417  0.8985 -3.6985
  117MOL0     H15767  10.142  10.639   6.510 -0.5877  1.5303 -0.9363
  117MOL0     H15768  10.284  10.738   6.545  0.7663 -0.9144  2.1000
  117MOL0     H15769  10.291  10.577   6.696 -0.9650 -1.3784 -0.3973
  117MOL0     H15770  10.277  10.448   6.568 -2.7108  1.0051 -1.0795
  117MOL0     H15771  10.519  10.630   6.599  2.4760 -1.3982  1.7060
  117MOL0     H15772  10.498  10.497   6.489 -3.1292 -0.4254  0.1383
  117MOL0     H15773  10.495  10.483   6.798  0.8058  0.6797 -0.0540
  117MOL0     H15774  10.472  10.353   6.678 -1.0982 -0.4581  1.3836
  117MOL0     H15775  10.276  10.962   5.935 -1.4841  3.0329  0.8350
  117MOL0     H15776  10.202  10.785   5.781  0.2607  0.0484  0.7859
  117MOL0     H15777  10.013  10.522   5.425 -0.5573  0.3957  1.0186
  117MOL0     H15778   9.900  10.355   5.303 -1.9396  0.9388 -1.4057
  117MOL0     H15779   9.941   8.512   5.606 -0.6004 -0.5684 -0.9310
  117MOL0     H15780  10.006   8.290   5.516  0.5844  0.9330  0.0841
  117MOL0     H15781   9.658   7.840   5.245  0.9228 -0.5926 -3.0809
  117MOL0     H15782   9.744   7.621   5.125 -0.7569  1.3904 -1.4514
  117MOL0     H15783  10.132   7.468   5.269 -2.5718 -3.0216 -0.5853
  117MOL0     H15784  10.184   7.553   5.117 -1.7953  0.3833 -1.8230
  117MOL0     H15785  10.107   7.380   4.981  0.9815  0.0845  1.5565
  117MOL0     H15786  10.015   7.296   5.095 -1.0321 -1.6151 -3.9642
  117MOL0     H15787  10.222   7.166   5.064 -0.2620  0.3959 -1.4497
  117MOL0     H15788  10.237   7.244   5.220 -1.8607  2.9402  1.0039
  117MOL0     H15789  10.377   7.324   4.954  1.3435 -0.0300 -0.0258
  117MOL0     H15790  10.365   7.426   5.101 -1.5690 -1.6715  1.6943
  117MOL0     H15791  10.697   7.184   5.151 -0.6600  3.1359  5.2963
  117MOL0     H15792  10.115   7.695   5.321  0.2242  2.3782  0.4878
  117MOL0     H15793  10.100   7.997   5.445  2.9010 -1.1272 -0.4536
  117MOL0     H15794  10.032   7.885   5.572  2.4435 -1.1676  0.9125
  117MOL0     H15795  10.163   7.841   5.461  1.7454  2.6625  2.5100
  118MOL0     O15796   5.031   5.302   9.144  0.3667  0.3812  0.4751
  118MOL0     C15797   5.094   5.215   9.096 -1.0099 -0.3683  0.6359
  118MOL0     O15798   5.062   5.151   8.986  0.7670 -0.6060  0.0842
  118MOL0     C15799   4.936   5.176   8.924  0.1504 -1.2185  0.8942
  118MOL0     C15800   4.847   5.072   8.902  0.2708  0.3144  0.7816
  118MOL0     C15801   4.731   5.101   8.837 -0.2650  0.4539  0.9565
  118MOL0     C15802   4.696   5.232   8.803  0.7656 -0.3003 -0.9709
  118MOL0     O15803   4.571   5.258   8.760  0.8626 -0.0174  0.3363
  118MOL0     C15804   4.507   5.376   8.811 -0.4843 -1.1598  0.4033
  118MOL0     C15805   4.515   5.505   8.723  0.3732  1.0857  0.0909
  118MOL0     C15806   4.495   5.486   8.565  0.4669 -0.8200 -0.0214
  118MOL0     C15807   4.454   5.611   8.497  0.1478  0.0481 -0.4731
  118MOL0     C15808   4.454   5.606   8.343 -0.6038 -0.4920 -0.3674
  118MOL0     C15809   4.317   5.555   8.287 -0.8765 -0.6842 -0.6356
  118MOL0     C15810   4.185   5.633   8.325 -0.2773  0.3069 -0.1321
  118MOL0     C15811   4.086   5.588   8.225  0.3151  0.7249 -0.5085
  118MOL0     N15812   3.961   5.670   8.229 -0.4240  0.4234  0.3036
  118MOL0     C15813   3.957   5.805   8.214 -0.0788  0.1900 -0.4674
  118MOL0     C15814   3.828   5.850   8.226  0.2500 -0.3208  0.4249
  118MOL0     C15815   3.781   5.999   8.207 -0.2288 -1.0412  0.5558
  118MOL0     C15816   3.640   6.015   8.274 -0.4993 -0.8699  0.1603
  118MOL0     C15817   3.609   6.162   8.294 -0.0366  0.9806  0.6927
  118MOL0     C15818   3.675   6.234   8.412  0.8690  0.0653  0.0713
  118MOL0     O15819   3.599   6.208   8.538  0.0839  0.3467 -0.5073
  118MOL0     C15820   3.515   6.311   8.582  0.2333  0.5928  0.6132
  118MOL0     C15821   3.468   6.305   8.710 -0.9373 -0.3089  0.1316
  118MOL0     C15822   3.380   6.385   8.773 -0.0212 -0.1678 -0.4319
  118MOL0     C15823   3.324   6.480   8.691  0.2594  0.4925 -0.5090
  118MOL0     C15824   3.232   6.574   8.754  0.0892 -0.7740 -0.9711
  118MOL0     O15825   3.193   6.548   8.883 -0.1431 -0.0918 -0.4917
  118MOL0     C15826   3.140   6.639   8.974  1.6649 -0.1015 -0.0969
  118MOL0     C15827   3.119   6.573   9.096 -0.6930  1.1305 -0.0725
  118MOL0     C15828   3.065   6.643   9.203  0.4966 -0.6116 -0.6655
  118MOL0     C15829   3.044   6.785   9.205 -0.1501  0.4260 -0.2214
  118MOL0     O15830   3.014   6.850   9.315 -0.2714  0.1130 -0.0737
  118MOL0     C15831   2.987   6.790   9.437  0.7159  0.9320 -0.4347
  118MOL0     C15832   2.969   6.887   9.554  0.8288 -0.2304  0.0084
  118MOL0     C15833   2.840   6.978   9.529 -0.0050  0.0372  0.2821
  118MOL0     C15834   2.805   7.061   9.648  0.2159 -0.3643  0.2491
  118MOL0     C15835   2.730   6.989   9.768  0.3535 -0.1405 -0.3173
  118MOL0     C15836   2.680   7.090   9.873  0.8774  0.5074 -0.8807
  118MOL0     C15837   2.558   7.164   9.821  1.0148 -0.7206  0.3393
  118MOL0     C15838   2.543   7.299   9.894  0.3261 -0.0053  0.6435
  118MOL0    Cl15839   2.516   7.262  10.077  0.2849 -0.0822  0.0881
  118MOL0     C15840   3.074   6.848   9.089 -0.1473 -0.3933  0.7657
  118MOL0     C15841   3.119   6.786   8.972  0.6978 -0.1039  0.2300
  118MOL0     O15842   3.194   6.663   8.689 -0.0536  0.1068 -0.0097
  118MOL0     C15843   3.363   6.493   8.555 -0.9850 -0.9049 -1.1637
  118MOL0     C15844   3.458   6.410   8.502  0.2787 -0.2702  0.2519
  118MOL0     N15845   3.760   5.733   8.252  0.0682  0.6377  0.2718
  118MOL0     N15846   3.837   5.626   8.249  0.6905 -0.3484 -0.7788
  118MOL0     C15847   4.790   5.327   8.810  0.3968 -0.3359 -0.1687
  118MOL0     C15848   4.915   5.301   8.868 -0.0232 -0.4903 -0.7495
  118MOL0     C15849   5.210   5.162   9.171 -0.0358  1.0277 -1.3061
  118MOL0     C15850   5.250   5.030   9.155  0.5552 -0.2039  0.6662
  118MOL0     C15851   5.365   4.973   9.209 -0.3705 -1.2343  0.8334
  118MOL0     C15852   5.445   5.055   9.295 -0.1476  1.2045  0.6702
  118MOL0     O15853   5.562   5.014   9.368 -0.1273 -0.4243 -0.4885
  118MOL0     C15854   5.641   4.894   9.327 -0.0601 -0.3734 -0.5949
  118MOL0     C15855   5.710   4.907   9.199 -0.4786  0.1864 -0.9302
  118MOL0     C15856   5.800   5.031   9.193  0.5814  0.2398 -1.1388
  118MOL0     C15857   5.881   5.026   9.061  0.2049 -0.5348  0.0457
  118MOL0     C15858   5.994   4.935   9.086 -0.6298 -0.4440  0.0796
  118MOL0     C15859   6.071   4.841   9.116 -0.5575 -0.0611  0.4757
  118MOL0     C15860   5.391   5.185   9.328  1.2378  0.7229 -0.3640
  118MOL0     C15861   5.276   5.236   9.270  1.2826 -0.0739 -0.5603
  118MOL0     C15862   5.243   5.377   9.333  0.5281  0.6241  0.2516
  118MOL0     H15863   4.872   4.980   8.953  1.9848 -0.0766 -0.6898
  118MOL0     H15864   4.650   5.032   8.817  1.5557 -1.4602 -0.1880
  118MOL0     H15865   4.402   5.348   8.799 -0.3657 -0.8664 -1.6177
  118MOL0     H15866   4.526   5.400   8.917 -1.1074  0.1682  0.2300
  118MOL0     H15867   4.614   5.550   8.734  0.9622  0.4054 -1.9674
  118MOL0     H15868   4.440   5.578   8.756  1.3344  1.3897  1.7076
  118MOL0     H15869   4.409   5.421   8.546 -0.2796 -0.5682  2.1296
  118MOL0     H15870   4.575   5.434   8.512 -1.6696 -3.4411 -0.8876
  118MOL0     H15871   4.358   5.651   8.532  1.6367  2.2663  1.3714
  118MOL0     H15872   4.519   5.690   8.536 -0.4899  0.3491  0.0160
  118MOL0     H15873   4.481   5.705   8.305 -2.3377 -0.3515 -1.3612
  118MOL0     H15874   4.538   5.544   8.310  0.3158 -1.2625  3.0971
  118MOL0     H15875   4.334   5.531   8.182  0.6737 -0.7575 -0.3914
  118MOL0     H15876   4.299   5.460   8.338 -2.6364  0.3482  0.7856
  118MOL0     H15877   4.204   5.740   8.318 -2.9196  1.0851  2.5562
  118MOL0     H15878   4.146   5.607   8.424 -2.6338  0.0234 -1.0698
  118MOL0     H15879   4.129   5.587   8.125  0.6034  0.5582 -0.3833
  118MOL0     H15880   4.059   5.486   8.253 -1.8469  1.8882  2.1484
  118MOL0     H15881   4.040   5.874   8.200 -0.0135 -0.3139 -2.9317
  118MOL0     H15882   3.862   6.068   8.229 -0.5538  0.9278 -3.4427
  118MOL0     H15883   3.764   6.015   8.100  2.6287 -2.4547 -0.2137
  118MOL0     H15884   3.571   5.983   8.196 -0.2707  0.4211 -0.5892
  118MOL0     H15885   3.625   5.965   8.370  1.5362  0.4746  1.2655
  118MOL0     H15886   3.500   6.176   8.289 -0.0427  0.7867  0.1806
  118MOL0     H15887   3.637   6.200   8.195 -0.9978  2.4488  0.9516
  118MOL0     H15888   3.688   6.342   8.398 -5.7342  1.2428  0.0008
  118MOL0     H15889   3.776   6.193   8.417  0.8853  0.1042  0.0652
  118MOL0     H15890   3.497   6.222   8.774  1.6373  2.7720  3.3884
  118MOL0     H15891   3.358   6.372   8.878  2.0655  0.6061  0.1428
  118MOL0     H15892   3.144   6.472   9.128 -1.0115  2.2976  4.6106
  118MOL0     H15893   3.048   6.601   9.301 -4.5261  0.4159 -0.8295
  118MOL0     H15894   2.898   6.727   9.427 -0.4146  2.8144 -3.9886
  118MOL0     H15895   3.065   6.724   9.475 -2.2894 -0.7155  3.6972
  118MOL0     H15896   2.955   6.831   9.646  0.4305  0.5643  0.4450
  118MOL0     H15897   3.060   6.946   9.568  0.6216 -0.2085  1.4005
  118MOL0     H15898   2.857   7.044   9.443 -1.8315 -1.3558 -1.2507
  118MOL0     H15899   2.753   6.918   9.501  0.4978 -0.0733 -1.1340
  118MOL0     H15900   2.744   7.145   9.612 -1.0558 -1.4963 -0.3349
  118MOL0     H15901   2.898   7.104   9.687 -0.2330  0.9689 -0.0894
  118MOL0     H15902   2.802   6.922   9.816  0.0606 -1.4899 -1.6935
  118MOL0     H15903   2.651   6.929   9.724 -0.0369 -0.3871  0.6798
  118MOL0     H15904   2.655   7.036   9.965  2.1940  1.0519 -0.1886
  118MOL0     H15905   2.762   7.161   9.885  0.4613  1.0703 -1.2719
  118MOL0     H15906   2.466   7.105   9.827 -0.1677  1.0940  0.8749
  118MOL0     H15907   2.561   7.186   9.714  0.2516  0.1996  0.4978
  118MOL0     H15908   2.633   7.358   9.870  2.2083 -3.6691 -2.3157
  118MOL0     H15909   2.453   7.347   9.854  1.0658  0.6806 -0.2630
  118MOL0     H15910   3.062   6.956   9.089  3.4570  0.2793 -3.0565
  118MOL0     H15911   3.134   6.834   8.876 -2.7941 -0.3468 -0.5563
  118MOL0     H15912   3.318   6.563   8.486 -0.8964 -1.6225 -1.9641
  118MOL0     H15913   3.477   6.420   8.396 -2.1616 -4.3863 -0.7829
  118MOL0     H15914   4.764   5.429   8.784  1.0919  0.0251  0.5144
  118MOL0     H15915   4.988   5.377   8.896 -0.4307 -0.0942 -0.7461
  118MOL0     H15916   5.193   4.967   9.088  0.1150  2.3780 -1.5752
  118MOL0     H15917   5.400   4.871   9.195  2.0016 -0.2532 -1.4071
  118MOL0     H15918   5.576   4.807   9.339 -0.2038 -0.2707 -0.6296
  118MOL0     H15919   5.725   4.876   9.395 -1.2015  0.1598  1.0105
  118MOL0     H15920   5.628   4.925   9.129  0.3442  1.7365 -1.5369
  118MOL0     H15921   5.758   4.811   9.178  0.2916 -0.4702  3.1032
  118MOL0     H15922   5.864   5.035   9.282  1.0044 -1.6274 -1.3022
  118MOL0     H15923   5.738   5.119   9.177  0.2431 -0.0906 -1.6601
  118MOL0     H15924   5.821   4.984   8.980  1.3695 -1.6473 -0.2736
  118MOL0     H15925   5.917   5.128   9.048  1.2094 -0.9620 -0.5802
  118MOL0     H15926   6.140   4.761   9.131 -2.6454 -1.6477  2.3603
  118MOL0     H15927   5.420   5.237   9.419  1.8101  1.0874 -0.7485
  118MOL0     H15928   5.170   5.437   9.277 -1.3031 -1.7298 -0.0532
  118MOL0     H15929   5.198   5.368   9.433  2.9454  3.1962  1.7228
  118MOL0     H15930   5.341   5.423   9.346  2.3395 -3.1437  1.3207
  119MOL0     O15931   4.449   1.216  10.398 -0.1619 -0.1552  0.1582
  119MOL0     C15932   4.547   1.233  10.468 -0.2142  1.2157 -0.0579
  119MOL0     O15933   4.668   1.188  10.455 -0.0143  0.7085 -0.2798
  119MOL0     C15934   4.691   1.104  10.348  0.1979 -1.4268 -0.2259
  119MOL0     C15935   4.731   1.160  10.228 -0.0651  0.3717 -0.1312
  119MOL0     C15936   4.748   1.086  10.116 -1.0899 -0.6051  1.5678
  119MOL0     C15937   4.729   0.950  10.126 -1.0393 -0.2830 -0.6561
  119MOL0     O15938   4.764   0.862  10.027 -0.0601 -0.0104  0.5465
  119MOL0     C15939   4.738   0.894   9.889  0.0474 -0.2853 -0.2448
  119MOL0     C15940   4.681   0.778   9.799  0.4350  0.0466  0.5965
  119MOL0     C15941   4.564   0.722   9.872  0.8383  1.1863 -0.0303
  119MOL0     C15942   4.488   0.595   9.806  0.1471 -1.2233 -0.5593
  119MOL0     C15943   4.357   0.548   9.887 -0.1873  0.3609  0.1491
  119MOL0     C15944   4.331   0.392   9.864  0.4069  0.2539 -1.0053
  119MOL0     C15945   4.203   0.348   9.922  1.1277  0.2135  0.6747
  119MOL0     C15946   4.188   0.202   9.861  0.8097 -0.5771 -0.0652
  119MOL0     N15947   4.107   0.105   9.934 -0.0674  0.2434  1.3890
  119MOL0     C15948   4.106   0.087  10.069  0.2958 -0.1409 -0.3078
  119MOL0     C15949   3.989   0.012  10.090  0.3264 -0.1578  0.7325
  119MOL0     C15950   3.938  -0.072  10.208 -1.3746  1.4108  0.4665
  119MOL0     C15951   3.935   0.015  10.335 -0.4690  0.0252  0.3753
  119MOL0     C15952   3.906  -0.080  10.443  0.5974 -0.0212  0.2563
  119MOL0     C15953   3.913  -0.017  10.583  0.4239  0.8414  0.7439
  119MOL0     O15954   3.800   0.062  10.631 -0.1191 -0.0570 -0.2263
  119MOL0     C15955   3.806   0.112  10.758 -0.4856  1.4591 -0.8653
  119MOL0     C15956   3.677   0.114  10.827 -0.2256  0.4635  0.2790
  119MOL0     C15957   3.670   0.176  10.954  1.2501  0.2721 -0.0494
  119MOL0     C15958   3.784   0.218  11.018 -0.8113  0.3225  0.8691
  119MOL0     C15959   3.784   0.269  11.157  0.2979 -0.7360 -0.3349
  119MOL0     O15960   3.669   0.313  11.209  0.9962  0.8070 -0.0185
  119MOL0     C15961   3.676   0.404  11.315 -0.1967  0.5070  0.9218
  119MOL0     C15962   3.626   0.364  11.444 -0.6111  0.1754 -0.2030
  119MOL0     C15963   3.632   0.464  11.550  1.1752  0.0445  0.4040
  119MOL0     C15964   3.654   0.598  11.516 -1.0299  0.4786  0.3071
  119MOL0     O15965   3.631   0.692  11.618 -0.4669  0.4925  0.2371
  119MOL0     C15966   3.516   0.775  11.599 -0.0148 -0.2236  0.2082
  119MOL0     C15967   3.500   0.872  11.716  0.5073 -0.4369  0.0145
  119MOL0     C15968   3.368   0.955  11.716  0.6226 -0.6091  1.0267
  119MOL0     C15969   3.261   0.928  11.830 -0.2401  0.1265 -0.3244
  119MOL0     C15970   3.125   0.992  11.803  1.1882  0.4478  0.5162
  119MOL0     C15971   3.053   1.020  11.936  0.4690 -0.2055  0.4490
  119MOL0     C15972   2.928   1.099  11.913  0.5347 -0.4496  0.3160
  119MOL0     C15973   2.845   1.116  12.042 -0.8041 -0.2075 -1.2766
  119MOL0    Cl15974   2.703   1.212  11.992 -0.0646  0.0323 -0.7817
  119MOL0     C15975   3.700   0.642  11.391  0.0093  0.2930  0.3240
  119MOL0     C15976   3.697   0.542  11.282  0.2344 -0.6099 -0.4188
  119MOL0     O15977   3.888   0.285  11.212  0.2558 -0.0024  0.4240
  119MOL0     C15978   3.908   0.204  10.950 -0.6569  0.2197  0.1151
  119MOL0     C15979   3.917   0.161  10.820 -0.2964 -0.1809  0.5181
  119MOL0     N15980   3.930  -0.005   9.968  0.3521  0.6306 -0.2722
  119MOL0     N15981   3.995   0.050   9.875  1.0117 -0.1307  0.4573
  119MOL0     C15982   4.701   0.888  10.243  0.3471 -0.5204 -0.0808
  119MOL0     C15983   4.686   0.971  10.363  0.4419 -0.1437 -0.0101
  119MOL0     C15984   4.528   1.306  10.598  0.5177  0.3634  0.4651
  119MOL0     C15985   4.641   1.316  10.676  0.9350  0.3590  0.1907
  119MOL0     C15986   4.633   1.381  10.801  0.5352  0.5826  0.1303
  119MOL0     C15987   4.511   1.438  10.845  0.2766  0.4712 -0.8262
  119MOL0     O15988   4.516   1.520  10.956  0.4978 -0.2485 -0.5212
  119MOL0     C15989   4.399   1.599  10.990 -0.4120  0.5866 -0.5048
  119MOL0     C15990   4.435   1.691  11.109 -0.6863 -0.3853  0.6647
  119MOL0     C15991   4.395   1.629  11.242 -0.1925 -0.2646  0.3835
  119MOL0     C15992   4.465   1.498  11.275 -0.6986 -0.0243  0.3323
  119MOL0     C15993   4.434   1.454  11.415 -1.2777 -0.3414  0.1311
  119MOL0     C15994   4.393   1.418  11.518  0.9881 -0.2978 -0.3117
  119MOL0     C15995   4.402   1.427  10.759 -0.2119  0.2145  1.0632
  119MOL0     C15996   4.402   1.357  10.644  0.5087 -0.5302  0.3334
  119MOL0     C15997   4.271   1.332  10.572  0.0698 -0.7446 -0.1606
  119MOL0     H15998   4.715   1.265  10.208 -2.7405 -0.2861 -2.0117
  119MOL0     H15999   4.765   1.121  10.015 -1.8745  1.4834  2.1086
  119MOL0     H16000   4.657   0.967   9.887  0.5215  0.2445 -2.1834
  119MOL0     H16001   4.826   0.941   9.845  0.1893  0.6896  1.0370
  119MOL0     H16002   4.750   0.693   9.792  1.0624  0.6989 -2.6498
  119MOL0     H16003   4.644   0.815   9.703 -1.8799 -1.1880  0.9416
  119MOL0     H16004   4.489   0.802   9.873 -0.7146 -0.1845  2.0466
  119MOL0     H16005   4.578   0.708   9.980 -2.8515  2.4219  0.7682
  119MOL0     H16006   4.474   0.626   9.702  1.4180  4.9150  0.7291
  119MOL0     H16007   4.572   0.524   9.811  0.0879 -1.2240  2.8249
  119MOL0     H16008   4.383   0.562   9.993  2.3510 -1.8894 -0.0604
  119MOL0     H16009   4.266   0.605   9.869 -0.3150  1.2396  3.0409
  119MOL0     H16010   4.325   0.379   9.755  2.4096  0.2937 -1.1583
  119MOL0     H16011   4.415   0.337   9.908 -1.2892 -2.2742 -0.7879
  119MOL0     H16012   4.116   0.408   9.892  1.2795  0.6041  0.9956
  119MOL0     H16013   4.201   0.360  10.031 -0.5968  0.4719  0.6402
  119MOL0     H16014   4.150   0.216   9.760 -1.4068 -2.4064  0.4200
  119MOL0     H16015   4.290   0.163   9.854  0.8071 -0.3007 -2.9377
  119MOL0     H16016   4.186   0.101  10.140  1.5425 -4.1049 -0.6954
  119MOL0     H16017   3.841  -0.112  10.179 -0.0719  0.0160 -2.4675
  119MOL0     H16018   3.997  -0.161  10.233 -1.4199  0.8162 -1.3549
  119MOL0     H16019   4.033   0.061  10.351 -0.8937  0.7384  1.0128
  119MOL0     H16020   3.862   0.096  10.331 -3.0885 -2.0601 -5.4097
  119MOL0     H16021   3.961  -0.174  10.445 -2.2714 -2.0459 -3.0080
  119MOL0     H16022   3.804  -0.117  10.425  1.5728 -1.5988 -2.8790
  119MOL0     H16023   4.003   0.046  10.586  1.3113 -0.4111  1.2302
  119MOL0     H16024   3.942  -0.102  10.645 -0.8788 -1.4828 -1.6264
  119MOL0     H16025   3.584   0.085  10.779 -0.7813  0.7835  1.1471
  119MOL0     H16026   3.571   0.178  10.998  0.5248  0.1079 -1.5902
  119MOL0     H16027   3.597   0.262  11.467 -1.3156  0.7072  1.4359
  119MOL0     H16028   3.588   0.442  11.646 -0.4607  2.7982  0.3870
  119MOL0     H16029   3.510   0.835  11.508 -2.8842 -1.0925 -0.2801
  119MOL0     H16030   3.429   0.709  11.592  1.4342 -2.5222  2.0977
  119MOL0     H16031   3.501   0.810  11.807  0.1457 -2.0527 -1.0460
  119MOL0     H16032   3.589   0.936  11.717  1.8045 -2.1690  1.1160
  119MOL0     H16033   3.394   1.061  11.708 -1.4653 -0.1890 -1.1766
  119MOL0     H16034   3.314   0.929  11.625  1.3151 -0.5350  0.5924
  119MOL0     H16035   3.299   0.978  11.920  0.0895  1.9251 -1.4077
  119MOL0     H16036   3.255   0.818  11.833  1.3709  0.0172 -0.1991
  119MOL0     H16037   3.072   0.922  11.737  1.8199 -1.7186  2.1907
  119MOL0     H16038   3.124   1.085  11.745  1.3291 -0.6972 -1.4417
  119MOL0     H16039   3.031   0.926  11.987 -1.3858 -0.2598 -0.3885
  119MOL0     H16040   3.119   1.069  12.009 -0.6280 -1.3290  2.2753
  119MOL0     H16041   2.870   1.034  11.847  1.7639 -1.9410  0.6448
  119MOL0     H16042   2.944   1.195  11.865 -2.6777  0.1477  0.2230
  119MOL0     H16043   2.825   1.018  12.085  3.1450 -0.0369  1.4713
  119MOL0     H16044   2.902   1.173  12.116 -3.0523 -1.3054  1.4854
  119MOL0     H16045   3.724   0.746  11.370  0.0812  0.1014 -0.5682
  119MOL0     H16046   3.708   0.583  11.182  0.2974 -0.3573 -0.3101
  119MOL0     H16047   3.994   0.246  11.002 -1.4086 -1.8175  3.2513
  119MOL0     H16048   4.012   0.162  10.767 -0.4258  1.1440  0.2824
  119MOL0     H16049   4.690   0.780  10.256  1.9700 -1.2570 -3.6883
  119MOL0     H16050   4.661   0.930  10.460  3.2003  1.6875  1.5985
  119MOL0     H16051   4.741   1.277  10.659  1.6685  2.7052 -1.6210
  119MOL0     H16052   4.720   1.411  10.860  1.7239 -0.5206 -1.0068
  119MOL0     H16053   4.309   1.544  11.018  0.7428 -0.1478  2.1000
  119MOL0     H16054   4.362   1.671  10.916 -1.1955 -1.2883 -2.0047
  119MOL0     H16055   4.390   1.788  11.085  2.7015  0.8661 -1.5615
  119MOL0     H16056   4.544   1.698  11.106 -0.7266  0.2083 -2.0163
  119MOL0     H16057   4.290   1.599  11.239  0.0106 -1.1259  1.3512
  119MOL0     H16058   4.428   1.698  11.320 -0.8787  0.4336  0.0628
  119MOL0     H16059   4.423   1.423  11.207  1.3123  1.4674 -2.8372
  119MOL0     H16060   4.573   1.506  11.263 -0.6778 -0.7666 -0.0448
  119MOL0     H16061   4.337   1.381  11.602  1.3741  0.5914  0.3561
  119MOL0     H16062   4.307   1.477  10.771 -0.1112  0.9759 -0.8767
  119MOL0     H16063   4.259   1.370  10.471 -1.9706 -0.6906  0.0512
  119MOL0     H16064   4.252   1.224  10.566 -0.0656 -0.7427  0.1584
  119MOL0     H16065   4.190   1.380  10.628  1.1384  0.2712  0.5653
  120MOL0     O16066   1.559   1.952   1.465 -0.2048  0.1655 -0.4511
  120MOL0     C16067   1.441   1.941   1.448  0.3555 -0.0019 -0.0563
  120MOL0     O16068   1.374   1.820   1.425 -0.1779 -0.5734 -0.5234
  120MOL0     C16069   1.461   1.729   1.372  0.3938  0.6630  0.3399
  120MOL0     C16070   1.501   1.613   1.444 -0.2659  0.5137 -0.3546
  120MOL0     C16071   1.610   1.532   1.393 -0.2287  0.1487  0.1267
  120MOL0     C16072   1.637   1.539   1.253 -0.8872  0.7008  0.0122
  120MOL0     O16073   1.729   1.454   1.198  0.0420  0.1892 -1.1051
  120MOL0     C16074   1.687   1.353   1.106  0.1427  0.3712 -0.1346
  120MOL0     C16075   1.612   1.243   1.175 -0.2262 -0.9195 -0.0958
  120MOL0     C16076   1.462   1.256   1.169 -0.3309 -0.3484  0.1080
  120MOL0     C16077   1.413   1.141   1.265  1.1063  1.0892  0.1996
  120MOL0     C16078   1.261   1.160   1.294 -1.2637  0.4517  0.2018
  120MOL0     C16079   1.216   1.297   1.347  0.0978  0.4156  0.0585
  120MOL0     C16080   1.276   1.333   1.483 -0.1337 -0.0363  0.1907
  120MOL0     C16081   1.213   1.454   1.556  0.1764 -0.2562  0.0736
  120MOL0     N16082   1.090   1.437   1.620  1.0405  1.0378 -0.0118
  120MOL0     C16083   1.056   1.427   1.759  0.3128  0.1584  0.2941
  120MOL0     C16084   0.923   1.397   1.761 -0.4410 -0.2190  0.6624
  120MOL0     C16085   0.835   1.377   1.875 -0.0784  0.5333 -0.2016
  120MOL0     C16086   0.894   1.346   2.015 -1.0463  0.6833  0.2998
  120MOL0     C16087   0.954   1.207   2.024 -0.5687 -0.4150  1.4797
  120MOL0     C16088   0.920   1.132   2.161 -0.5495 -0.0923 -0.8564
  120MOL0     O16089   0.979   1.203   2.277  0.0570 -0.5859  0.7365
  120MOL0     C16090   0.989   1.158   2.403 -0.0306  0.6072 -0.6614
  120MOL0     C16091   0.960   1.026   2.440  0.6215 -0.8514 -0.1281
  120MOL0     C16092   0.980   0.981   2.577 -0.1418 -0.8625  0.5835
  120MOL0     C16093   1.039   1.067   2.666 -0.0881 -0.9447 -0.5528
  120MOL0     C16094   1.065   1.020   2.805 -0.6583  0.0565  1.2548
  120MOL0     O16095   1.116   1.112   2.882  0.0470  0.1525  0.4646
  120MOL0     C16096   1.163   1.071   3.000 -0.4737  0.0166  0.2355
  120MOL0     C16097   1.083   1.041   3.107  0.6147 -0.1901 -0.3005
  120MOL0     C16098   1.129   0.995   3.223  0.7350 -0.5053 -0.3732
  120MOL0     C16099   1.270   0.947   3.239 -0.5072  0.5700  1.0171
  120MOL0     O16100   1.313   0.877   3.344 -0.6374 -0.6197 -0.4458
  120MOL0     C16101   1.267   0.914   3.470  0.0644 -0.2886 -0.1589
  120MOL0     C16102   1.294   0.798   3.565  0.2131 -0.3261  0.4580
  120MOL0     C16103   1.271   0.859   3.698 -0.4770 -0.4050  0.0756
  120MOL0     C16104   1.337   0.762   3.805  0.0036  0.5254  0.0628
  120MOL0     C16105   1.339   0.808   3.947 -0.3776 -0.7141 -0.7921
  120MOL0     C16106   1.403   0.944   3.958 -0.3096 -0.8749  0.1681
  120MOL0     C16107   1.424   0.959   4.106 -0.3140 -0.4390 -0.6049
  120MOL0     C16108   1.442   1.111   4.156  0.7197 -0.3836  0.6790
  120MOL0    Cl16109   1.451   1.108   4.336 -0.0835  0.1025  0.1501
  120MOL0     C16110   1.350   0.968   3.124  0.0262 -0.2791 -0.8447
  120MOL0     C16111   1.296   1.027   3.010  0.1738 -0.0039 -0.0666
  120MOL0     O16112   1.018   0.912   2.831  0.1976 -0.3364 -0.8223
  120MOL0     C16113   1.076   1.199   2.634  0.6149 -0.0741 -0.1148
  120MOL0     C16114   1.052   1.238   2.506  0.1944 -0.4934  0.5694
  120MOL0     N16115   0.878   1.392   1.630  0.0817 -0.0489  0.4313
  120MOL0     N16116   0.975   1.419   1.548 -0.0183  0.7795 -0.8308
  120MOL0     C16117   1.575   1.639   1.171  1.3817 -0.2747 -0.6626
  120MOL0     C16118   1.491   1.731   1.236  0.9383 -0.7235 -0.9380
  120MOL0     C16119   1.361   2.058   1.501  0.2485 -0.3701  0.8920
  120MOL0     C16120   1.254   2.037   1.598  0.3523  0.1938  0.1872
  120MOL0     C16121   1.158   2.133   1.612 -0.5008 -0.3270 -0.1350
  120MOL0     C16122   1.162   2.250   1.547 -0.1972 -0.0123 -0.3236
  120MOL0     O16123   1.082   2.363   1.566 -0.2253  0.2469  0.4547
  120MOL0     C16124   0.997   2.385   1.681 -0.5730 -0.3461 -0.5714
  120MOL0     C16125   1.092   2.430   1.793  0.4828  0.5859 -0.2245
  120MOL0     C16126   1.011   2.465   1.929  0.6280  0.4509  0.5850
  120MOL0     C16127   0.946   2.345   1.992  0.3365 -0.5856 -0.5374
  120MOL0     C16128   0.811   2.322   1.935 -0.1898  0.1804 -0.2171
  120MOL0     C16129   0.718   2.291   1.864 -0.1824  0.4568  0.2703
  120MOL0     C16130   1.256   2.274   1.449 -0.3774  0.3849 -0.0153
  120MOL0     C16131   1.359   2.182   1.425  0.2104  0.0211 -0.0707
  120MOL0     C16132   1.451   2.218   1.322 -0.6717  0.8025 -0.5695
  120MOL0     H16133   1.459   1.609   1.545  3.2933  1.2784  1.3227
  120MOL0     H16134   1.671   1.464   1.453 -1.2167 -0.0610  0.9322
  120MOL0     H16135   1.623   1.389   1.025 -0.1116 -3.5654 -1.9070
  120MOL0     H16136   1.781   1.314   1.067 -0.0472 -1.7561  1.3746
  120MOL0     H16137   1.654   1.233   1.275 -0.4109  1.3494  0.2529
  120MOL0     H16138   1.633   1.158   1.109 -1.2328 -1.0166 -0.2997
  120MOL0     H16139   1.410   1.245   1.074 -0.3444  3.4476 -0.5037
  120MOL0     H16140   1.439   1.357   1.204  0.3749 -0.7721  1.8804
  120MOL0     H16141   1.428   1.042   1.220 -0.7688  0.2570  1.2968
  120MOL0     H16142   1.460   1.148   1.363 -2.3852 -1.3652  2.3098
  120MOL0     H16143   1.205   1.138   1.203 -0.3528  2.3221 -0.8711
  120MOL0     H16144   1.240   1.085   1.371  2.3427  1.5240  2.4571
  120MOL0     H16145   1.252   1.380   1.285  1.7288  0.4491  0.9983
  120MOL0     H16146   1.108   1.289   1.355 -0.1994 -2.2971 -3.7784
  120MOL0     H16147   1.383   1.351   1.468 -0.1039 -0.7871 -0.5490
  120MOL0     H16148   1.266   1.248   1.552 -1.7622 -0.2476 -0.2675
  120MOL0     H16149   1.278   1.487   1.638 -0.5777 -0.1080  0.6157
  120MOL0     H16150   1.210   1.533   1.481 -0.1010 -2.3036 -2.1778
  120MOL0     H16151   1.116   1.452   1.845  0.4278  1.2671 -0.0874
  120MOL0     H16152   0.777   1.469   1.884 -3.1705 -1.3207  0.2494
  120MOL0     H16153   0.766   1.296   1.849  2.3718 -1.6167 -0.4011
  120MOL0     H16154   0.974   1.419   2.036 -1.8590  1.6049  0.2783
  120MOL0     H16155   0.813   1.358   2.087 -0.4202 -2.0181  1.5583
  120MOL0     H16156   1.059   1.215   1.995 -1.0747 -2.9449 -1.5690
  120MOL0     H16157   0.902   1.155   1.943 -1.7158  3.7957 -0.7993
  120MOL0     H16158   0.969   1.036   2.145  0.4118 -0.1678  2.0084
  120MOL0     H16159   0.814   1.113   2.182 -0.4045  2.3280  2.9605
  120MOL0     H16160   0.921   0.960   2.363  0.9491  1.2754 -2.2531
  120MOL0     H16161   0.942   0.883   2.603 -2.3040  0.1119  1.4532
  120MOL0     H16162   0.979   1.073   3.100  0.3403 -0.1648  2.5034
  120MOL0     H16163   1.056   0.978   3.301  1.4994 -0.2389  0.4117
  120MOL0     H16164   1.322   1.005   3.498  0.9655 -0.3308 -1.7097
  120MOL0     H16165   1.160   0.937   3.467 -0.1105 -1.1424 -0.6268
  120MOL0     H16166   1.234   0.711   3.536 -2.2278  0.9511  1.4087
  120MOL0     H16167   1.398   0.765   3.559  0.1233 -0.5018 -0.2051
  120MOL0     H16168   1.301   0.963   3.707 -3.0679  0.5822 -1.5000
  120MOL0     H16169   1.162   0.860   3.711 -0.4085 -2.8250  1.3813
  120MOL0     H16170   1.441   0.743   3.777  0.0456 -1.0757  1.1792
  120MOL0     H16171   1.285   0.666   3.802 -0.4322  0.7626 -0.1805
  120MOL0     H16172   1.401   0.745   4.012 -0.5926  1.3347  1.4887
  120MOL0     H16173   1.242   0.798   3.995 -0.7301  3.2598 -0.3782
  120MOL0     H16174   1.499   0.946   3.906 -0.4759  0.4438 -0.1253
  120MOL0     H16175   1.344   1.029   3.922  2.2653  0.7233 -0.5233
  120MOL0     H16176   1.512   0.905   4.143  0.1951  1.0815  0.5235
  120MOL0     H16177   1.331   0.921   4.149 -1.4228 -1.6152 -3.7693
  120MOL0     H16178   1.530   1.153   4.106 -0.2804  0.4062 -0.4640
  120MOL0     H16179   1.357   1.175   4.128  0.2844 -1.6797 -1.1470
  120MOL0     H16180   1.456   0.949   3.137  0.0354  1.0893  1.6806
  120MOL0     H16181   1.370   1.044   2.932  1.9724  0.3238  1.6342
  120MOL0     H16182   1.133   1.269   2.695 -1.6718 -0.4742  2.6700
  120MOL0     H16183   1.068   1.339   2.469 -4.9886 -0.1748 -1.6562
  120MOL0     H16184   1.594   1.630   1.065  0.0744  1.4468 -1.1018
  120MOL0     H16185   1.441   1.810   1.182 -2.1503 -0.6760  1.7112
  120MOL0     H16186   1.240   1.949   1.661  1.4121  0.8226  1.3457
  120MOL0     H16187   1.092   2.108   1.694  0.1629 -1.9865 -0.0626
  120MOL0     H16188   0.939   2.294   1.696  0.4327 -1.0313 -0.7087
  120MOL0     H16189   0.936   2.474   1.667  2.0179  1.6200 -0.2318
  120MOL0     H16190   1.141   2.523   1.761 -0.5921  1.9331  1.8900
  120MOL0     H16191   1.158   2.345   1.814 -1.7056 -0.6039  2.4304
  120MOL0     H16192   0.948   2.547   1.895 -0.5965 -1.3371 -1.7119
  120MOL0     H16193   1.078   2.492   2.012  0.5466 -2.1437  1.6065
  120MOL0     H16194   1.018   2.263   1.987 -0.0089 -0.9409  0.1539
  120MOL0     H16195   0.929   2.375   2.096 -2.8991  0.2671 -1.1987
  120MOL0     H16196   0.640   2.252   1.801 -0.1350  0.3024  0.3088
  120MOL0     H16197   1.245   2.359   1.383 -0.1823 -0.5702 -1.3106
  120MOL0     H16198   1.529   2.285   1.358  1.2833 -1.3057 -0.6188
  120MOL0     H16199   1.496   2.126   1.285  1.2227  0.8428  1.4230
  120MOL0     H16200   1.390   2.273   1.250 -2.0134  1.6594  1.1449
  121MOL0     O16201  11.495   0.444   9.793  0.2975 -0.3493  0.5029
  121MOL0     C16202  11.489   0.568   9.771 -0.7198 -0.5194 -0.4956
  121MOL0     O16203  11.565   0.661   9.844  0.1290 -0.5333 -0.0605
  121MOL0     C16204  11.664   0.619   9.932  0.0067 -0.2535  0.6702
  121MOL0     C16205  11.659   0.649  10.065  0.1417  0.1201  0.0287
  121MOL0     C16206  11.770   0.616  10.148  0.6385  0.0795  0.2739
  121MOL0     C16207  11.877   0.540  10.097  0.3989 -0.3427  0.1281
  121MOL0     O16208  11.994   0.511  10.168 -0.1643 -0.3071 -0.1225
  121MOL0     C16209  11.990   0.518  10.313  0.6111 -0.4923  0.2164
  121MOL0     C16210  12.127   0.489  10.368  0.1630 -0.2188 -0.0940
  121MOL0     C16211  12.144   0.534  10.504 -0.0640 -1.0613  0.3342
  121MOL0     C16212  12.272   0.469  10.556 -0.0545  0.0857 -0.6396
  121MOL0     C16213  12.307   0.476  10.710 -0.2967 -0.8993  0.7611
  121MOL0     C16214  12.339   0.615  10.767 -0.4542  0.0054 -0.7860
  121MOL0     C16215  12.409   0.716  10.666  0.2592 -0.2245  1.2391
  121MOL0     C16216  12.450   0.844  10.756  0.3263  0.2826  1.4197
  121MOL0     N16217  12.499   0.938  10.654 -0.1724  0.2515  0.0150
  121MOL0     C16218  12.421   1.004  10.564 -0.5200  0.6187 -0.3001
  121MOL0     C16219  12.509   1.083  10.506 -0.6028  0.0054  0.3585
  121MOL0     C16220  12.490   1.184  10.397  0.2076  1.1375 -0.4263
  121MOL0     C16221  12.472   1.124  10.260  0.0566  0.8062  0.2175
  121MOL0     C16222  12.582   1.029  10.210  0.2733 -0.2025  0.2362
  121MOL0     C16223  12.725   1.093  10.187  1.3056 -0.2113  0.4039
  121MOL0     O16224  12.715   1.214  10.111  0.3723 -0.5609  0.0898
  121MOL0     C16225  12.751   1.214   9.978 -0.6554  0.1091  0.8665
  121MOL0     C16226  12.742   1.106   9.891  0.9525 -0.4015 -0.4669
  121MOL0     C16227  12.782   1.119   9.758  0.1399 -0.1991 -0.1426
  121MOL0     C16228  12.840   1.240   9.708  0.1062 -0.7147 -0.3303
  121MOL0     C16229  12.881   1.243   9.565 -0.3639  0.6389 -0.5261
  121MOL0     O16230  12.958   1.341   9.521 -0.3757  0.6951  0.2699
  121MOL0     C16231  13.009   1.334   9.398 -0.3959 -0.6693  0.5552
  121MOL0     C16232  13.037   1.459   9.335  0.4520  0.0143  0.4507
  121MOL0     C16233  13.106   1.468   9.212 -0.4010  0.0190 -0.3793
  121MOL0     C16234  13.144   1.347   9.152  0.2446  0.2600  0.4870
  121MOL0     O16235  13.213   1.346   9.037  0.5467 -0.4114  0.1913
  121MOL0     C16236  13.330   1.252   9.011  0.1538 -1.4606  0.0696
  121MOL0     C16237  13.425   1.341   8.931  0.9701  0.0714 -0.0084
  121MOL0     C16238  13.382   1.358   8.788  0.0934  0.7316  0.4209
  121MOL0     C16239  13.495   1.365   8.686 -0.0999 -0.0088  0.5082
  121MOL0     C16240  13.452   1.432   8.552 -0.0892  0.4012  1.2439
  121MOL0     C16241  13.567   1.421   8.445  0.7041 -0.1950  0.3118
  121MOL0     C16242  13.598   1.546   8.359 -1.1398  0.1993  0.0622
  121MOL0     C16243  13.500   1.568   8.250 -0.2474  0.6424  0.6751
  121MOL0    Cl16244  13.506   1.428   8.150 -0.3875  0.4338 -0.4767
  121MOL0     C16245  13.107   1.225   9.206  1.1030  0.8799 -0.3417
  121MOL0     C16246  13.051   1.213   9.339  0.3534 -0.7176 -0.0454
  121MOL0     O16247  12.825   1.158   9.505  0.6325 -0.4251 -0.0708
  121MOL0     C16248  12.846   1.351   9.788 -1.0029 -0.5908 -0.5363
  121MOL0     C16249  12.802   1.329   9.922 -0.8319 -0.2351  0.2125
  121MOL0     N16250  12.637   1.069  10.566  0.5192 -0.3404  0.0743
  121MOL0     N16251  12.627   0.985  10.654  0.8567  0.3144 -0.4471
  121MOL0     C16252  11.871   0.505   9.958  0.2444 -0.7389 -0.3851
  121MOL0     C16253  11.775   0.554   9.871  1.1157 -0.3499  0.1176
  121MOL0     C16254  11.397   0.616   9.668 -0.4625 -0.4100 -0.7346
  121MOL0     C16255  11.438   0.686   9.552 -0.6102 -0.6901 -0.3172
  121MOL0     C16256  11.336   0.722   9.456 -0.4569  0.3996 -0.1909
  121MOL0     C16257  11.208   0.682   9.472 -0.5890 -0.8888 -0.1288
  121MOL0     O16258  11.126   0.726   9.379  0.1470  0.5358  0.0196
  121MOL0     C16259  10.984   0.724   9.399  0.2552 -0.5219  0.0124
  121MOL0     C16260  10.923   0.767   9.260  0.9509  0.9382 -1.3921
  121MOL0     C16261  10.931   0.922   9.250 -0.3311 -0.8266  0.3098
  121MOL0     C16262  10.923   0.979   9.110  0.0903  0.9028 -0.1985
  121MOL0     C16263  10.874   1.117   9.116 -0.3802  0.7919  0.0792
  121MOL0     C16264  10.829   1.225   9.115  0.1022  0.6495 -0.5962
  121MOL0     C16265  11.166   0.624   9.588  0.9409 -0.3298 -1.1220
  121MOL0     C16266  11.258   0.595   9.692 -0.4394 -0.2206  0.5896
  121MOL0     C16267  11.189   0.510   9.798  0.0476  0.2648 -0.4092
  121MOL0     H16268  11.577   0.699  10.116  1.2433  1.8287  0.1896
  121MOL0     H16269  11.767   0.650  10.251  3.8330  0.1773  0.4273
  121MOL0     H16270  11.963   0.617  10.350  1.3945  0.3817 -1.4373
  121MOL0     H16271  11.920   0.444  10.355  1.0122 -0.6189  0.6729
  121MOL0     H16272  12.200   0.533  10.300  2.3542 -3.0937  0.2299
  121MOL0     H16273  12.148   0.383  10.350  0.3590  0.1714 -2.4977
  121MOL0     H16274  12.064   0.500  10.570 -0.9231  2.5865  1.4089
  121MOL0     H16275  12.144   0.643  10.506 -0.8232 -1.0039 -1.2112
  121MOL0     H16276  12.260   0.364  10.526 -2.3973  0.8855 -2.8158
  121MOL0     H16277  12.357   0.507  10.497 -0.3917 -1.1307 -1.9823
  121MOL0     H16278  12.221   0.431  10.759 -2.0591  0.0853 -1.2405
  121MOL0     H16279  12.398   0.418  10.728  1.7481  1.0566 -2.3177
  121MOL0     H16280  12.249   0.664  10.807  1.3738  2.0202  1.1368
  121MOL0     H16281  12.391   0.588  10.859 -0.2651  0.0956 -0.8667
  121MOL0     H16282  12.348   0.743  10.579  0.6411 -0.5311  0.8681
  121MOL0     H16283  12.504   0.674  10.633  1.2195  2.7958 -0.1727
  121MOL0     H16284  12.371   0.889  10.817  0.2191 -0.7811  2.0792
  121MOL0     H16285  12.526   0.825  10.832  0.9876  1.4732  1.0813
  121MOL0     H16286  12.317   0.983  10.540 -0.5216  1.2385 -0.9000
  121MOL0     H16287  12.402   1.246  10.417 -0.3183  0.3154 -0.1211
  121MOL0     H16288  12.578   1.250  10.394  0.3477  0.9777  0.1379
  121MOL0     H16289  12.378   1.068  10.265 -0.0379  0.7335 -1.6397
  121MOL0     H16290  12.445   1.196  10.182 -4.6674  0.0466  0.8869
  121MOL0     H16291  12.547   0.992  10.113  0.1005  0.8418 -0.1129
  121MOL0     H16292  12.606   0.949  10.281  3.7633  0.8283  0.4109
  121MOL0     H16293  12.793   1.023  10.139  1.6670  0.2285  0.2718
  121MOL0     H16294  12.769   1.106  10.287  0.9369  1.0401  0.4186
  121MOL0     H16295  12.698   1.011   9.921  1.0306 -0.1997  0.3261
  121MOL0     H16296  12.773   1.043   9.681  0.9602  2.4298 -3.0157
  121MOL0     H16297  13.008   1.550   9.387 -0.7754  0.6941 -1.3123
  121MOL0     H16298  13.142   1.558   9.165 -2.6782 -0.5945 -3.6267
  121MOL0     H16299  13.374   1.216   9.104 -0.3835  0.4632  1.1313
  121MOL0     H16300  13.301   1.163   8.955 -0.8833 -0.7214 -0.6138
  121MOL0     H16301  13.445   1.437   8.981 -1.2377 -0.4393  2.0482
  121MOL0     H16302  13.521   1.291   8.925 -1.4001 -4.9938 -0.9299
  121MOL0     H16303  13.326   1.270   8.757 -0.0300  0.7029  0.7240
  121MOL0     H16304  13.321   1.447   8.771  1.4265  1.7603  0.8219
  121MOL0     H16305  13.525   1.262   8.665  0.2658 -0.8519  4.3612
  121MOL0     H16306  13.586   1.416   8.720 -1.2336  2.3894  0.1454
  121MOL0     H16307  13.431   1.537   8.572  1.8708  1.7510 -2.7198
  121MOL0     H16308  13.358   1.382   8.523  0.1462  0.5454  0.2004
  121MOL0     H16309  13.659   1.394   8.498  0.5793  0.6760  1.0003
  121MOL0     H16310  13.546   1.336   8.379 -3.0454 -0.4130  1.5553
  121MOL0     H16311  13.697   1.564   8.316 -1.3262  0.4567 -0.2616
  121MOL0     H16312  13.568   1.629   8.424  0.7825  1.8784 -1.0634
  121MOL0     H16313  13.397   1.569   8.286 -0.7463  2.2606 -0.6630
  121MOL0     H16314  13.511   1.663   8.197 -0.1652 -0.0500 -0.5860
  121MOL0     H16315  13.120   1.139   9.141  2.4959 -2.1814  3.6069
  121MOL0     H16316  13.023   1.118   9.382 -0.7356 -0.2655  0.2827
  121MOL0     H16317  12.889   1.448   9.769 -2.0240  0.2473  1.1204
  121MOL0     H16318  12.797   1.414   9.990 -0.4673 -0.1952  0.1916
  121MOL0     H16319  11.955   0.448   9.918  1.3798  1.9437 -2.1074
  121MOL0     H16320  11.790   0.549   9.764  0.2795  1.1521 -0.0859
  121MOL0     H16321  11.543   0.696   9.526  0.3864  0.4177  3.5935
  121MOL0     H16322  11.366   0.789   9.376 -0.3401 -0.7832 -1.1670
  121MOL0     H16323  10.964   0.794   9.481  1.8861 -1.0265  0.8868
  121MOL0     H16324  10.947   0.625   9.427  2.4629 -0.3444  4.5902
  121MOL0     H16325  10.816   0.745   9.255  1.3206 -2.5652  1.5891
  121MOL0     H16326  10.976   0.703   9.190 -0.1872 -0.3701 -1.0928
  121MOL0     H16327  11.019   0.951   9.308 -0.3715 -4.3466  2.3919
  121MOL0     H16328  10.848   0.964   9.307 -0.9761  0.1323 -1.2460
  121MOL0     H16329  11.026   0.992   9.076 -0.2185  1.0422 -1.0988
  121MOL0     H16330  10.867   0.914   9.043  2.2794  0.2324 -1.5022
  121MOL0     H16331  10.783   1.321   9.104 -2.1523 -0.2865  0.0335
  121MOL0     H16332  11.067   0.582   9.605  1.0096 -0.2704 -0.5609
  121MOL0     H16333  11.120   0.432   9.764 -0.4800 -0.1711  1.5541
  121MOL0     H16334  11.265   0.476   9.869 -0.5028  0.1912  0.1579
  121MOL0     H16335  11.126   0.577   9.858  0.3975  2.1888 -2.0661
  122MOL0     O16336   6.792   2.499   5.262  0.1880  1.0354 -0.2684
  122MOL0     C16337   6.799   2.555   5.374 -0.7117 -0.2636 -0.1633
  122MOL0     O16338   6.795   2.479   5.493  1.0372  0.3023  0.3986
  122MOL0     C16339   6.812   2.350   5.501  0.8310 -0.3148  0.9392
  122MOL0     C16340   6.747   2.291   5.604  0.3596  0.3366 -0.6043
  122MOL0     C16341   6.760   2.148   5.632  1.2050 -0.3608 -0.1191
  122MOL0     C16342   6.839   2.074   5.538  0.2758 -0.0324  0.8497
  122MOL0     O16343   6.827   1.938   5.553 -0.3000 -0.0190 -0.3823
  122MOL0     C16344   6.850   1.880   5.680  0.3139  0.2404  0.4034
  122MOL0     C16345   6.914   1.745   5.651 -0.6326 -0.2320  0.3571
  122MOL0     C16346   6.969   1.661   5.772 -1.0917  0.0452 -0.8420
  122MOL0     C16347   7.076   1.554   5.727  0.1650 -0.5318  0.2541
  122MOL0     C16348   7.114   1.461   5.839  1.0091  0.0930 -1.2019
  122MOL0     C16349   7.232   1.384   5.810 -0.1865  0.1308  0.0324
  122MOL0     C16350   7.242   1.285   5.924  0.2505 -0.7757 -0.4349
  122MOL0     C16351   7.332   1.168   5.881  0.3580 -0.9699  0.0838
  122MOL0     N16352   7.475   1.201   5.866 -0.6527 -0.6135 -0.6025
  122MOL0     C16353   7.571   1.229   5.960 -0.2428  0.7447  0.4605
  122MOL0     C16354   7.687   1.239   5.896  0.2445  0.5069  0.5974
  122MOL0     C16355   7.818   1.213   5.949 -0.5087  0.4151 -0.3158
  122MOL0     C16356   7.938   1.253   5.862  0.4472  0.0415 -0.4156
  122MOL0     C16357   8.070   1.233   5.928 -0.6284  0.1838  1.5458
  122MOL0     C16358   8.186   1.250   5.828 -0.1210  0.7216 -0.0876
  122MOL0     O16359   8.310   1.247   5.893 -0.3824  0.0539  0.0777
  122MOL0     C16360   8.423   1.211   5.825 -1.0417 -0.0290 -0.1107
  122MOL0     C16361   8.448   1.167   5.690  0.8930  0.2280  0.6523
  122MOL0     C16362   8.567   1.144   5.635 -1.2992  0.4671  1.3782
  122MOL0     C16363   8.679   1.159   5.718  0.0464 -0.9942 -0.2596
  122MOL0     C16364   8.814   1.135   5.658 -0.2035 -0.3063 -0.1693
  122MOL0     O16365   8.925   1.199   5.714  0.2405  0.8475  0.3174
  122MOL0     C16366   9.043   1.182   5.646  0.4000 -0.0605  1.6416
  122MOL0     C16367   9.134   1.075   5.686  0.2411 -0.7462  1.7290
  122MOL0     C16368   9.245   1.049   5.616 -1.2229  0.7062  0.6016
  122MOL0     C16369   9.267   1.120   5.501  0.7528 -0.1603  0.3734
  122MOL0     O16370   9.366   1.073   5.426  0.3551  0.7017  0.0634
  122MOL0     C16371   9.392   1.145   5.302 -0.0952 -1.1928 -0.5097
  122MOL0     C16372   9.522   1.112   5.248 -0.7244  0.6560 -0.3273
  122MOL0     C16373   9.535   1.141   5.100  0.7640 -0.3013  0.9012
  122MOL0     C16374   9.665   1.070   5.038  0.1062  0.4274  0.2176
  122MOL0     C16375   9.795   1.133   5.097  0.1839 -0.1458  0.2541
  122MOL0     C16376   9.794   1.287   5.077  0.2766 -0.7245 -0.1414
  122MOL0     C16377   9.897   1.379   5.146  0.6647 -0.4040  0.2573
  122MOL0     C16378  10.049   1.372   5.108  0.0711  0.3681  0.1312
  122MOL0    Cl16379  10.115   1.218   5.150 -0.4697 -0.0952 -0.1337
  122MOL0     C16380   9.188   1.228   5.467 -0.7018 -0.0508  0.1927
  122MOL0     C16381   9.080   1.264   5.538  0.5049  0.2205  0.6468
  122MOL0     O16382   8.822   1.066   5.555  0.4246 -0.0881  0.2289
  122MOL0     C16383   8.667   1.192   5.855  0.2253  0.7382 -0.6404
  122MOL0     C16384   8.534   1.205   5.904 -1.0474 -0.8380  0.1597
  122MOL0     N16385   7.656   1.241   5.763 -0.5289 -0.2250  0.7418
  122MOL0     N16386   7.540   1.227   5.746  0.3493  1.2870  0.4113
  122MOL0     C16387   6.898   2.133   5.424 -0.4298 -0.2031 -0.0095
  122MOL0     C16388   6.888   2.272   5.409 -1.9122  1.2402 -0.1787
  122MOL0     C16389   6.782   2.694   5.391 -0.3035  0.2633  0.3847
  122MOL0     C16390   6.772   2.743   5.529 -0.0482 -0.6156  0.4353
  122MOL0     C16391   6.739   2.876   5.545 -0.0065  0.1340 -0.4375
  122MOL0     C16392   6.731   2.972   5.438 -0.1544  0.9658  0.3382
  122MOL0     O16393   6.717   3.106   5.452  0.0163  0.1580 -0.0791
  122MOL0     C16394   6.741   3.155   5.588  0.1579  0.6134 -0.6409
  122MOL0     C16395   6.730   3.303   5.598  0.5164 -1.2643  0.0817
  122MOL0     C16396   6.857   3.379   5.559 -0.1276 -0.1966  0.6220
  122MOL0     C16397   6.915   3.349   5.430 -1.2270 -0.2492  0.1111
  122MOL0     C16398   7.049   3.417   5.417  0.6601  0.9308  0.6426
  122MOL0     C16399   7.156   3.457   5.390  0.2944 -0.3266 -1.2313
  122MOL0     C16400   6.744   2.921   5.303  0.4744 -0.5163 -0.9030
  122MOL0     C16401   6.774   2.787   5.281  0.6006 -0.5191 -0.4571
  122MOL0     C16402   6.803   2.757   5.129  0.2629  0.3407 -0.0382
  122MOL0     H16403   6.702   2.346   5.685 -1.9778 -2.0422 -0.1456
  122MOL0     H16404   6.712   2.102   5.717  0.3980 -2.9727 -1.8517
  122MOL0     H16405   6.901   1.944   5.753  1.7492 -0.0168 -0.3510
  122MOL0     H16406   6.751   1.873   5.728  1.2986 -2.7181  2.2632
  122MOL0     H16407   6.999   1.747   5.582 -1.0165 -1.6746 -0.2138
  122MOL0     H16408   6.843   1.683   5.596 -0.4139  0.0434 -0.2435
  122MOL0     H16409   6.891   1.611   5.829  0.6429  0.7562  2.4072
  122MOL0     H16410   7.017   1.728   5.844 -2.8546 -1.5963  2.0286
  122MOL0     H16411   7.038   1.489   5.648 -2.0801 -1.2863  1.8360
  122MOL0     H16412   7.166   1.605   5.692  0.0938 -2.3229 -2.9666
  122MOL0     H16413   7.133   1.507   5.937  1.1136  0.5988 -1.4571
  122MOL0     H16414   7.029   1.397   5.864 -1.0902  2.6737 -1.3319
  122MOL0     H16415   7.220   1.330   5.716  1.3958 -0.6335  0.2452
  122MOL0     H16416   7.327   1.435   5.795  1.5742 -2.1679  2.5264
  122MOL0     H16417   7.146   1.249   5.961 -0.1016  2.0144  1.7827
  122MOL0     H16418   7.284   1.340   6.009  1.4394 -2.6800  0.2611
  122MOL0     H16419   7.316   1.095   5.961 -2.3102 -2.2031 -1.4369
  122MOL0     H16420   7.297   1.130   5.785 -0.5446  2.1983 -0.9642
  122MOL0     H16421   7.561   1.217   6.067 -0.5738 -0.7180  0.2979
  122MOL0     H16422   7.832   1.260   6.047 -0.5941 -0.0697 -0.0687
  122MOL0     H16423   7.841   1.109   5.974  0.5000  0.7462  0.1930
  122MOL0     H16424   7.935   1.204   5.764 -2.7917 -2.0794  0.5629
  122MOL0     H16425   7.927   1.362   5.856  0.0807  0.1216  1.3425
  122MOL0     H16426   8.079   1.127   5.953 -0.5470 -0.7467 -1.8892
  122MOL0     H16427   8.094   1.302   6.009  2.5057  1.6805 -0.4253
  122MOL0     H16428   8.183   1.347   5.778  2.5076  2.0124  1.9778
  122MOL0     H16429   8.179   1.176   5.748 -2.7747  2.0858 -1.2261
  122MOL0     H16430   8.360   1.152   5.628  0.4064  2.5491  0.6905
  122MOL0     H16431   8.556   1.104   5.535 -1.0119  0.8497  1.1887
  122MOL0     H16432   9.090   1.015   5.765 -0.9745 -3.0707 -0.5506
  122MOL0     H16433   9.309   0.961   5.620 -1.6456  0.2819 -0.9974
  122MOL0     H16434   9.321   1.120   5.223 -0.3739 -0.6886 -0.4239
  122MOL0     H16435   9.385   1.252   5.326  1.1712 -1.0349 -0.7694
  122MOL0     H16436   9.599   1.162   5.307  4.1862 -3.4986 -2.4919
  122MOL0     H16437   9.538   1.007   5.274 -4.1798  0.0235 -0.2674
  122MOL0     H16438   9.445   1.116   5.043  1.7399 -1.6658 -0.1022
  122MOL0     H16439   9.533   1.251   5.099  1.7890 -0.2101  3.1834
  122MOL0     H16440   9.657   1.078   4.930  1.9356 -0.8047 -0.0375
  122MOL0     H16441   9.667   0.962   5.056  2.1556  0.2240 -0.9812
  122MOL0     H16442   9.879   1.085   5.046 -0.6401 -0.0662 -1.2479
  122MOL0     H16443   9.789   1.112   5.204 -4.4556 -2.2964 -0.1784
  122MOL0     H16444   9.772   1.324   4.977 -0.1072 -0.5687 -0.0001
  122MOL0     H16445   9.708   1.324   5.133  0.3947 -0.3502 -0.2039
  122MOL0     H16446   9.889   1.361   5.254  1.4847 -0.3437  0.3406
  122MOL0     H16447   9.875   1.485   5.132 -2.4126 -1.1815 -1.6564
  122MOL0     H16448  10.040   1.375   4.999 -3.3435 -1.1545  0.2220
  122MOL0     H16449  10.115   1.451   5.145  0.9359 -0.1318 -0.3235
  122MOL0     H16450   9.204   1.275   5.370  1.0812 -4.3970 -1.9061
  122MOL0     H16451   9.018   1.350   5.515  1.8806  1.0393 -0.0762
  122MOL0     H16452   8.751   1.181   5.923  0.4550  3.8798 -0.2786
  122MOL0     H16453   8.499   1.231   6.004 -1.2244  4.2585 -0.9608
  122MOL0     H16454   6.934   2.060   5.352  0.0556 -1.7989  1.7822
  122MOL0     H16455   6.955   2.311   5.333  0.1955  2.2696  2.0412
  122MOL0     H16456   6.773   2.666   5.605  1.0156 -0.8709  0.1791
  122MOL0     H16457   6.710   2.895   5.648  0.1765  2.8312 -0.8091
  122MOL0     H16458   6.839   3.128   5.627 -1.4051  0.5641  3.8416
  122MOL0     H16459   6.669   3.120   5.663 -2.1218  2.2749 -1.9298
  122MOL0     H16460   6.694   3.333   5.697  1.7225 -0.4397  0.2876
  122MOL0     H16461   6.647   3.334   5.533 -0.6293  0.0701  2.0661
  122MOL0     H16462   6.928   3.363   5.640 -0.7043  2.2556  1.7160
  122MOL0     H16463   6.840   3.488   5.560  0.8345 -0.0359  0.3655
  122MOL0     H16464   6.945   3.245   5.414 -0.7712 -0.1893  0.5327
  122MOL0     H16465   6.850   3.390   5.352 -2.1330  0.5535  1.2632
  122MOL0     H16466   7.244   3.509   5.358  1.8454 -2.3649 -0.4753
  122MOL0     H16467   6.746   2.991   5.220  1.5496 -0.9196 -1.2392
  122MOL0     H16468   6.907   2.727   5.112  1.7937  3.3853  2.8489
  122MOL0     H16469   6.736   2.681   5.087 -0.3844  2.1227 -2.4121
  122MOL0     H16470   6.799   2.844   5.063  1.4688 -0.1864 -0.8417
  123MOL0     O16471   8.997   2.558   7.565  0.7893  0.2884  0.4906
  123MOL0     C16472   8.936   2.449   7.561 -0.2305  0.0846  0.1680
  123MOL0     O16473   8.954   2.339   7.477  0.2107  0.3910 -1.0848
  123MOL0     C16474   9.053   2.364   7.386 -0.2250 -0.3646  0.2548
  123MOL0     C16475   9.191   2.365   7.433 -0.3809 -0.0486  1.0358
  123MOL0     C16476   9.299   2.376   7.340 -0.4332 -0.2083  0.5283
  123MOL0     C16477   9.271   2.386   7.197  0.0346 -0.5882 -0.6274
  123MOL0     O16478   9.377   2.401   7.111  0.5350  0.2248 -0.1547
  123MOL0     C16479   9.388   2.367   6.972  0.4049  0.9903 -1.5845
  123MOL0     C16480   9.321   2.453   6.886  0.4357  0.0722 -0.0186
  123MOL0     C16481   9.374   2.595   6.895 -0.2721  0.2913  0.1192
  123MOL0     C16482   9.292   2.701   6.977  0.5627 -0.7061  0.6130
  123MOL0     C16483   9.346   2.845   6.975 -0.8185 -0.1942 -0.5055
  123MOL0     C16484   9.358   2.888   7.118 -0.0087  0.2136  0.2713
  123MOL0     C16485   9.338   3.036   7.140 -0.9027 -0.1253 -1.0038
  123MOL0     C16486   9.440   3.122   7.078  0.0782 -0.4705 -0.1168
  123MOL0     N16487   9.425   3.264   7.122 -0.7078 -0.5806  0.0930
  123MOL0     C16488   9.523   3.334   7.197 -0.5226 -0.0257  1.0452
  123MOL0     C16489   9.463   3.454   7.213  0.5911  0.2042 -0.7537
  123MOL0     C16490   9.526   3.572   7.285  0.1130  0.2977  0.8241
  123MOL0     C16491   9.615   3.641   7.186  0.0466 -0.6664  0.3376
  123MOL0     C16492   9.654   3.788   7.232 -1.2953 -0.5142 -0.1894
  123MOL0     C16493   9.703   3.805   7.376  0.0309 -0.2863  0.4163
  123MOL0     O16494   9.808   3.714   7.400  0.3519  0.4446 -0.3354
  123MOL0     C16495   9.847   3.718   7.535 -0.0367  0.4051 -0.3713
  123MOL0     C16496   9.896   3.834   7.601 -0.2231  0.3506 -0.5073
  123MOL0     C16497   9.926   3.830   7.738  0.1358 -0.2217  0.8317
  123MOL0     C16498   9.915   3.708   7.805  0.1357  0.5046  0.8236
  123MOL0     C16499   9.959   3.697   7.941 -0.4222 -0.3548  0.6151
  123MOL0     O16500  10.060   3.784   7.983 -0.0983  0.2054 -0.1859
  123MOL0     C16501  10.085   3.769   8.117  0.2093 -0.9311  0.6769
  123MOL0     C16502  10.187   3.691   8.155 -0.1360  0.0265 -0.3830
  123MOL0     C16503  10.208   3.669   8.292 -0.1002  0.5644 -0.6550
  123MOL0     C16504  10.124   3.721   8.395  0.1237 -0.3741  0.1515
  123MOL0     O16505  10.161   3.697   8.532  0.1031 -0.2238  0.2608
  123MOL0     C16506  10.135   3.797   8.627  0.5659 -0.1934 -0.0461
  123MOL0     C16507   9.990   3.802   8.671 -0.3541 -0.3791  0.4369
  123MOL0     C16508   9.965   3.804   8.824  0.0960  0.2820 -0.1461
  123MOL0     C16509   9.806   3.798   8.864 -0.5253 -0.4597  0.5011
  123MOL0     C16510   9.774   3.825   9.006 -0.5350 -0.1166  0.9606
  123MOL0     C16511   9.878   3.782   9.107 -0.2289 -0.0632 -0.0367
  123MOL0     C16512   9.848   3.838   9.254  0.3782  0.0888  0.0842
  123MOL0     C16513   9.963   3.802   9.335  0.4370  0.0104 -0.5432
  123MOL0    Cl16514   9.953   3.909   9.476 -0.2766 -0.1882 -0.1295
  123MOL0     C16515  10.018   3.808   8.354 -1.9977  0.1504 -0.4278
  123MOL0     C16516  10.003   3.823   8.216 -0.3619 -0.5751  0.9428
  123MOL0     O16517   9.909   3.600   8.003 -0.0127  0.1413  0.2307
  123MOL0     C16518   9.866   3.592   7.739 -0.3490 -0.0159  0.1441
  123MOL0     C16519   9.834   3.596   7.599  1.2055 -0.6669  0.3032
  123MOL0     N16520   9.339   3.449   7.145  0.3807  0.2608 -0.2807
  123MOL0     N16521   9.317   3.337   7.096  0.2458 -0.0718  0.3580
  123MOL0     C16522   9.132   2.377   7.158  0.1041  0.0140  0.9104
  123MOL0     C16523   9.023   2.362   7.246 -0.0506 -0.0261 -0.3106
  123MOL0     C16524   8.848   2.434   7.674 -1.0674  0.5021  0.7447
  123MOL0     C16525   8.829   2.301   7.725 -0.6341  0.9696 -0.6613
  123MOL0     C16526   8.754   2.281   7.837 -0.3151 -0.1351 -0.9848
  123MOL0     C16527   8.692   2.386   7.895 -1.0468 -0.5268  0.6004
  123MOL0     O16528   8.628   2.355   8.009  0.0406 -0.3104  0.2907
  123MOL0     C16529   8.626   2.441   8.120 -0.5661 -0.9408 -1.1469
  123MOL0     C16530   8.620   2.344   8.238 -0.3488  0.0177  0.1503
  123MOL0     C16531   8.600   2.428   8.363  0.6318  0.3617 -0.3087
  123MOL0     C16532   8.642   2.340   8.483 -0.3150 -0.4297 -0.7633
  123MOL0     C16533   8.629   2.415   8.612 -0.1667 -0.2942 -0.6117
  123MOL0     C16534   8.646   2.477   8.715  0.2215 -0.2413  1.0492
  123MOL0     C16535   8.704   2.521   7.846 -0.0244  0.1476 -0.1079
  123MOL0     C16536   8.789   2.542   7.737  0.6532  0.1340  0.7958
  123MOL0     C16537   8.785   2.694   7.699 -0.1866 -0.0001 -0.6263
  123MOL0     H16538   9.209   2.374   7.539  4.2310 -0.6141  0.5017
  123MOL0     H16539   9.404   2.375   7.368 -0.3018  0.2156  0.0651
  123MOL0     H16540   9.493   2.373   6.943  0.4544  3.6856 -1.0409
  123MOL0     H16541   9.339   2.271   6.951  0.1651  0.2219  1.9345
  123MOL0     H16542   9.213   2.473   6.890  0.5763  0.7350  1.0722
  123MOL0     H16543   9.333   2.414   6.785  1.8735 -0.0642  0.1852
  123MOL0     H16544   9.402   2.619   6.792  2.0100 -1.0994  0.3528
  123MOL0     H16545   9.473   2.582   6.940 -0.2027 -1.2011 -0.3963
  123MOL0     H16546   9.200   2.709   6.919  2.2267  0.1355 -2.0628
  123MOL0     H16547   9.270   2.669   7.080 -3.9395  0.5330  0.2562
  123MOL0     H16548   9.444   2.852   6.926 -1.1102 -1.0012 -1.2285
  123MOL0     H16549   9.274   2.903   6.915 -0.6682 -0.7122 -1.2009
  123MOL0     H16550   9.288   2.836   7.185 -2.1396 -0.4230 -2.2937
  123MOL0     H16551   9.456   2.858   7.157 -0.0412 -1.6103 -0.9510
  123MOL0     H16552   9.329   3.067   7.245  2.5556  0.5960 -0.7993
  123MOL0     H16553   9.242   3.068   7.098 -1.8631 -1.1281  0.3497
  123MOL0     H16554   9.539   3.086   7.110  0.4127  1.0954  0.6845
  123MOL0     H16555   9.429   3.118   6.969 -0.6287 -1.0643 -0.0271
  123MOL0     H16556   9.620   3.293   7.226  0.1998 -0.3319 -1.5632
  123MOL0     H16557   9.442   3.637   7.313 -0.5189 -0.2519  0.2528
  123MOL0     H16558   9.583   3.551   7.376  1.6608  0.0845 -0.1577
  123MOL0     H16559   9.708   3.585   7.180  0.9678  0.8664 -0.1901
  123MOL0     H16560   9.571   3.631   7.086 -3.7760  0.6067  1.6858
  123MOL0     H16561   9.569   3.852   7.208 -1.5103 -0.9150 -0.4981
  123MOL0     H16562   9.745   3.815   7.177 -0.8933  1.1353  1.1699
  123MOL0     H16563   9.622   3.787   7.448  0.6491  1.7402  1.7107
  123MOL0     H16564   9.733   3.910   7.377 -0.8791  0.2503 -4.3420
  123MOL0     H16565   9.890   3.930   7.551  0.8423  1.3871  1.2695
  123MOL0     H16566   9.978   3.911   7.790  2.3830 -0.9800 -0.1293
  123MOL0     H16567  10.249   3.638   8.082  0.9376 -0.8494  1.1078
  123MOL0     H16568  10.291   3.603   8.315  2.6648  2.2958 -4.5869
  123MOL0     H16569  10.188   3.763   8.716 -0.2787 -0.8307  0.2298
  123MOL0     H16570  10.180   3.894   8.603  0.8947 -0.7794 -1.9510
  123MOL0     H16571   9.952   3.895   8.628 -2.2650 -1.6821 -0.9196
  123MOL0     H16572   9.934   3.721   8.622  0.4012 -1.1200  0.7712
  123MOL0     H16573  10.013   3.718   8.870 -2.4896 -2.1615 -1.6958
  123MOL0     H16574  10.022   3.888   8.865  1.8572 -1.6980  1.6449
  123MOL0     H16575   9.794   3.693   8.835  0.6217 -0.4865  0.0360
  123MOL0     H16576   9.763   3.866   8.791  3.1207  0.7783 -0.7239
  123MOL0     H16577   9.668   3.801   9.019 -0.6499 -0.1433  0.0618
  123MOL0     H16578   9.769   3.932   9.028 -0.8681  0.4804 -1.7031
  123MOL0     H16579   9.891   3.674   9.106 -0.4411 -0.0868 -0.2555
  123MOL0     H16580   9.977   3.827   9.089  0.0253 -1.1480 -1.5008
  123MOL0     H16581   9.759   3.792   9.299 -0.3213 -0.6716 -1.9462
  123MOL0     H16582   9.826   3.945   9.260 -2.0499 -0.4252  2.5145
  123MOL0     H16583   9.946   3.702   9.375  0.2043  0.3302  0.1671
  123MOL0     H16584  10.064   3.801   9.293 -0.0595  0.3441 -1.8121
  123MOL0     H16585   9.954   3.866   8.419  1.1077  1.3832  1.8094
  123MOL0     H16586   9.920   3.887   8.188  1.2918  0.1401 -2.8705
  123MOL0     H16587   9.836   3.499   7.787 -3.0887  2.4785  3.9241
  123MOL0     H16588   9.802   3.509   7.542 -2.6126  1.7608 -1.6552
  123MOL0     H16589   9.105   2.374   7.053  0.4069  2.2241  0.7103
  123MOL0     H16590   8.920   2.357   7.211 -1.0648 -1.3128  2.6186
  123MOL0     H16591   8.868   2.207   7.687 -1.0070  0.7305 -0.4580
  123MOL0     H16592   8.759   2.180   7.878  0.3650 -0.3804 -1.6440
  123MOL0     H16593   8.544   2.514   8.117  1.0960  1.0527 -0.2052
  123MOL0     H16594   8.724   2.488   8.127 -0.5437 -1.1784  0.3318
  123MOL0     H16595   8.720   2.300   8.246  1.1748  2.7084 -2.0608
  123MOL0     H16596   8.539   2.273   8.223  2.6207 -4.1230  1.8858
  123MOL0     H16597   8.493   2.446   8.363  1.0321  3.3743 -2.1897
  123MOL0     H16598   8.658   2.517   8.339  0.6963 -0.0060 -1.6147
  123MOL0     H16599   8.587   2.247   8.500 -0.2285 -0.3374  0.1089
  123MOL0     H16600   8.744   2.305   8.465  0.2666  1.4351 -1.3067
  123MOL0     H16601   8.677   2.522   8.807  1.3470  1.8500 -0.2889
  123MOL0     H16602   8.658   2.609   7.889  0.5125  0.9917 -1.2091
  123MOL0     H16603   8.686   2.725   7.666 -0.9639 -2.7919 -1.1671
  123MOL0     H16604   8.791   2.756   7.788 -2.2916  2.7146 -2.2167
  123MOL0     H16605   8.863   2.734   7.633  0.0489  1.8744  0.7142
  124MOL0     O16606   7.269   9.358   7.705  0.8648 -0.2314 -1.1325
  124MOL0     C16607   7.168   9.288   7.728  0.2661  1.0275  1.1363
  124MOL0     O16608   7.040   9.308   7.679 -0.1166  0.0204 -0.3094
  124MOL0     C16609   7.019   9.402   7.575 -0.2751 -0.5213 -0.3160
  124MOL0     C16610   7.092   9.409   7.461 -0.2834 -0.3526 -0.1221
  124MOL0     C16611   7.062   9.509   7.361  0.4456 -0.0702 -0.9299
  124MOL0     C16612   6.939   9.582   7.375 -0.0420 -0.5469  1.2258
  124MOL0     O16613   6.899   9.668   7.277  1.0756 -0.1811 -0.2959
  124MOL0     C16614   6.998   9.765   7.235  0.0836 -0.6701 -0.7568
  124MOL0     C16615   6.930   9.830   7.109 -1.2064  0.5187  0.2534
  124MOL0     C16616   6.931   9.729   6.988  0.1508  0.7279  0.1462
  124MOL0     C16617   6.902   9.801   6.855 -0.6715 -0.2310 -0.8743
  124MOL0     C16618   7.026   9.815   6.777  0.4839 -0.0849  0.5229
  124MOL0     C16619   7.007   9.912   6.661 -0.1000  0.2309  0.5956
  124MOL0     C16620   7.140   9.958   6.603  0.7730 -0.1158  0.1764
  124MOL0     C16621   7.127  10.009   6.455  0.5140 -0.3286  0.0089
  124MOL0     N16622   7.032  10.117   6.422 -0.3266  0.7911  0.0910
  124MOL0     C16623   7.016  10.162   6.293  0.9680 -0.5944 -0.5769
  124MOL0     C16624   6.903  10.234   6.288 -0.1918  0.5318 -1.4626
  124MOL0     C16625   6.847  10.317   6.174  0.1028 -0.6975  0.3698
  124MOL0     C16626   6.728  10.245   6.117  0.2547  0.3660  0.4192
  124MOL0     C16627   6.783  10.130   6.030 -0.0463  0.5382 -0.0081
  124MOL0     C16628   6.677  10.084   5.917 -0.3335 -0.0693 -0.7371
  124MOL0     O16629   6.571  10.010   5.979 -0.0733 -0.0803  0.3655
  124MOL0     C16630   6.484   9.942   5.892  0.2112  0.2212 -0.5803
  124MOL0     C16631   6.522   9.871   5.786 -0.5289 -0.4004 -0.2732
  124MOL0     C16632   6.437   9.783   5.714  0.2811 -0.7493  0.2956
  124MOL0     C16633   6.296   9.784   5.738 -0.2306  0.4886 -0.3485
  124MOL0     C16634   6.199   9.693   5.668 -0.9771  0.5275 -0.3994
  124MOL0     O16635   6.075   9.680   5.729 -0.0828 -0.6222  0.1290
  124MOL0     C16636   5.961   9.632   5.677  0.8933  0.6586 -0.0577
  124MOL0     C16637   5.944   9.542   5.568 -0.5642 -0.4017 -0.7564
  124MOL0     C16638   5.823   9.498   5.524  0.5334  1.6984 -1.2301
  124MOL0     C16639   5.707   9.548   5.580 -0.0153  0.0830  0.5807
  124MOL0     O16640   5.584   9.521   5.526  0.5031 -0.0357 -0.1184
  124MOL0     C16641   5.540   9.607   5.421  0.0058  0.0572 -0.8365
  124MOL0     C16642   5.396   9.584   5.373 -0.7195  1.3981 -0.8518
  124MOL0     C16643   5.383   9.675   5.252  1.6270 -0.1152  0.0353
  124MOL0     C16644   5.236   9.680   5.195 -0.3299  0.7900 -0.2020
  124MOL0     C16645   5.211   9.772   5.078 -0.7975  0.3844  0.1738
  124MOL0     C16646   5.060   9.808   5.087  0.9692  0.5707  0.7529
  124MOL0     C16647   5.004   9.849   4.950  0.1518  0.2246  0.6270
  124MOL0     C16648   4.887   9.943   4.975 -0.4325  0.5554 -0.0773
  124MOL0    Cl16649   4.758   9.834   5.029  0.1593  0.0584 -0.2467
  124MOL0     C16650   5.719   9.642   5.681  0.5820  0.4317  0.2193
  124MOL0     C16651   5.844   9.677   5.739  0.2658 -0.0450 -0.4525
  124MOL0     O16652   6.239   9.630   5.568 -0.1738 -0.4293  0.4179
  124MOL0     C16653   6.265   9.847   5.856  0.7956  0.0742 -0.1305
  124MOL0     C16654   6.352   9.929   5.928 -0.3493 -0.4466 -1.5549
  124MOL0     N16655   6.857  10.240   6.426 -0.4630 -0.9044  0.8513
  124MOL0     N16656   6.939  10.180   6.497 -0.3365  0.0463  0.1411
  124MOL0     C16657   6.862   9.569   7.486  0.3921  0.0028  1.0746
  124MOL0     C16658   6.906   9.475   7.584 -0.0902  0.3224  0.3340
  124MOL0     C16659   7.181   9.177   7.821  0.5088  0.2565  0.4271
  124MOL0     C16660   7.111   9.063   7.792 -0.1475 -0.0601 -0.4561
  124MOL0     C16661   7.132   8.945   7.860  0.3383 -0.4432  0.1520
  124MOL0     C16662   7.228   8.931   7.963  0.1467 -0.1852 -0.1497
  124MOL0     O16663   7.230   8.819   8.039 -0.1663  0.3812 -0.3098
  124MOL0     C16664   7.361   8.745   8.044 -0.1629 -0.6994 -0.5177
  124MOL0     C16665   7.432   8.773   8.174  0.1687  0.3134 -0.2106
  124MOL0     C16666   7.348   8.720   8.287  1.2322  0.3064 -0.5492
  124MOL0     C16667   7.337   8.806   8.420 -0.6070 -0.4532 -0.5328
  124MOL0     C16668   7.301   8.952   8.404 -0.6243  0.3067 -0.0158
  124MOL0     C16669   7.280   9.069   8.383  0.2892  0.5615 -0.7583
  124MOL0     C16670   7.305   9.045   7.993  0.8875 -0.7242  1.2540
  124MOL0     C16671   7.284   9.170   7.918  0.2237  0.5918  0.1005
  124MOL0     C16672   7.376   9.278   7.966  0.5593 -0.1202  0.2428
  124MOL0     H16673   7.183   9.350   7.458  0.5398  0.2207  4.6381
  124MOL0     H16674   7.121   9.505   7.270  0.0303 -2.0381 -1.1617
  124MOL0     H16675   7.024   9.842   7.307  1.2066  0.6576 -2.5182
  124MOL0     H16676   7.098   9.728   7.209  0.9942  0.9775  0.2451
  124MOL0     H16677   6.983   9.917   7.071  0.9553 -0.1195  1.6066
  124MOL0     H16678   6.832   9.854   7.153 -1.3743 -1.2978  0.9874
  124MOL0     H16679   6.857   9.649   6.996  0.8685 -0.2603 -2.0931
  124MOL0     H16680   7.025   9.673   6.981  2.0170  3.8302 -2.4081
  124MOL0     H16681   6.825   9.755   6.793 -1.4328  1.2892 -1.0924
  124MOL0     H16682   6.862   9.898   6.885  2.7298  0.7685  0.9717
  124MOL0     H16683   7.105   9.847   6.847  1.3572  0.1372 -0.5393
  124MOL0     H16684   7.064   9.719   6.740  0.0470  0.3612 -1.1211
  124MOL0     H16685   6.980   9.853   6.573  0.9046 -1.5566  1.4475
  124MOL0     H16686   6.948   9.999   6.691 -0.9117  0.4081 -1.3530
  124MOL0     H16687   7.203   9.869   6.606  3.4651  1.6304 -0.9422
  124MOL0     H16688   7.184  10.034   6.669 -2.5663  5.3180 -3.0470
  124MOL0     H16689   7.225  10.037   6.418  0.6632  3.2163  2.6188
  124MOL0     H16690   7.094   9.924   6.395 -0.5666 -0.3017  0.5298
  124MOL0     H16691   7.070  10.120   6.209  1.9051  0.0669 -0.3298
  124MOL0     H16692   6.817  10.415   6.210 -0.5598 -0.7967  0.0904
  124MOL0     H16693   6.927  10.331   6.100 -1.1099  0.7121 -0.7294
  124MOL0     H16694   6.672  10.201   6.200  1.7604  0.3681  1.4824
  124MOL0     H16695   6.658  10.307   6.061 -0.6274  0.1121  1.2089
  124MOL0     H16696   6.820  10.053   6.097  3.0958  3.1795  1.5752
  124MOL0     H16697   6.869  10.161   5.970  1.8102 -1.4816  1.4958
  124MOL0     H16698   6.726  10.012   5.851  0.8996 -0.2725  0.3602
  124MOL0     H16699   6.637  10.165   5.856 -2.7448  0.6038  1.5559
  124MOL0     H16700   6.629   9.872   5.764  0.4779 -1.4028  3.7753
  124MOL0     H16701   6.465   9.714   5.635 -2.3896 -0.6864 -0.8177
  124MOL0     H16702   6.025   9.516   5.500  1.5641  3.3497  0.0381
  124MOL0     H16703   5.801   9.429   5.443 -1.7089  1.4559 -0.5066
  124MOL0     H16704   5.561   9.714   5.431  0.2429 -0.1784  1.9375
  124MOL0     H16705   5.607   9.576   5.341  0.9880 -2.7357  0.9188
  124MOL0     H16706   5.380   9.481   5.339  3.9871  1.1788 -3.1191
  124MOL0     H16707   5.320   9.598   5.451 -2.1487 -1.0523 -1.6762
  124MOL0     H16708   5.411   9.775   5.286 -0.5206  1.0307 -1.3414
  124MOL0     H16709   5.444   9.646   5.166  1.8985  0.5238  0.0139
  124MOL0     H16710   5.172   9.698   5.282 -0.9240  0.9133 -0.6631
  124MOL0     H16711   5.213   9.576   5.169  3.0938 -0.2434  0.3421
  124MOL0     H16712   5.228   9.713   4.988 -2.3107  1.2055 -0.6881
  124MOL0     H16713   5.275   9.861   5.082 -0.7329  0.3345  3.1967
  124MOL0     H16714   5.006   9.719   5.122  1.9070 -1.0954 -1.7969
  124MOL0     H16715   5.053   9.893   5.156  1.3149 -1.0518  2.8713
  124MOL0     H16716   4.971   9.771   4.881 -3.4472  2.2124 -0.1941
  124MOL0     H16717   5.085   9.901   4.897  1.1776  0.3326  2.2293
  124MOL0     H16718   4.900  10.036   5.031 -1.7003 -0.0311  1.2764
  124MOL0     H16719   4.857   9.977   4.875 -0.1820 -0.0409 -0.3598
  124MOL0     H16720   5.620   9.669   5.718  0.5267 -0.2936  0.6180
  124MOL0     H16721   5.846   9.733   5.832  1.9149  0.2043 -0.6054
  124MOL0     H16722   6.167   9.840   5.902  1.3397  0.2784  1.1068
  124MOL0     H16723   6.308   9.983   6.011 -0.5131  1.1831 -2.6499
  124MOL0     H16724   6.778   9.632   7.509 -0.3725 -0.5928  0.0004
  124MOL0     H16725   6.842   9.459   7.671 -1.5249  1.0862 -0.5309
  124MOL0     H16726   7.031   9.068   7.718  0.4104  0.0144 -1.0664
  124MOL0     H16727   7.064   8.865   7.832 -0.2165 -0.7363  2.1142
  124MOL0     H16728   7.427   8.769   7.960  3.2313 -2.0416  1.5646
  124MOL0     H16729   7.359   8.636   8.034  2.0283 -0.7108 -1.4521
  124MOL0     H16730   7.450   8.877   8.203 -2.0387  1.1876 -1.8100
  124MOL0     H16731   7.532   8.731   8.159  0.3373  1.4843 -2.9469
  124MOL0     H16732   7.390   8.627   8.326 -2.2389 -0.3098  2.3372
  124MOL0     H16733   7.247   8.704   8.247  2.0642 -1.0504 -2.2411
  124MOL0     H16734   7.262   8.767   8.490 -1.7575  2.3655 -0.0667
  124MOL0     H16735   7.438   8.798   8.463 -0.9356  3.0031  1.1802
  124MOL0     H16736   7.254   9.172   8.365 -0.9679  0.0213 -2.2523
  124MOL0     H16737   7.370   9.030   8.078  0.0020  2.9884  2.7669
  124MOL0     H16738   7.390   9.256   8.072 -2.2685 -1.2636  0.4671
  124MOL0     H16739   7.468   9.275   7.907  1.6069 -1.0794  1.8512
  124MOL0     H16740   7.325   9.375   7.969 -0.8969 -0.8760  0.9578
  125MOL0     O16741   6.299   0.098   1.355  0.0779  0.3021  0.2128
  125MOL0     C16742   6.399   0.126   1.284 -0.2101 -0.3678 -0.9415
  125MOL0     O16743   6.499   0.212   1.323 -0.0893 -0.3643  0.2023
  125MOL0     C16744   6.477   0.318   1.413  0.5964  0.6007  0.5036
  125MOL0     C16745   6.582   0.388   1.471  0.2435  0.3386 -0.6359
  125MOL0     C16746   6.565   0.496   1.557 -0.2658  0.2452 -0.3441
  125MOL0     C16747   6.441   0.528   1.603 -0.1521  0.6646 -0.0455
  125MOL0     O16748   6.418   0.643   1.671  0.9441 -0.2210  0.2584
  125MOL0     C16749   6.490   0.657   1.795  0.4609 -0.0938  1.6352
  125MOL0     C16750   6.411   0.602   1.908 -0.0003  0.9260 -0.3930
  125MOL0     C16751   6.500   0.598   2.028 -0.1970  1.6953  0.6551
  125MOL0     C16752   6.453   0.483   2.126 -0.5280  0.1929 -0.0721
  125MOL0     C16753   6.538   0.488   2.264 -0.0047  0.6241  0.2723
  125MOL0     C16754   6.695   0.467   2.264 -0.0224  0.1680  0.0294
  125MOL0     C16755   6.753   0.350   2.179 -0.0220  0.3868  0.7381
  125MOL0     C16756   6.868   0.257   2.239 -0.2297 -0.0411  0.2385
  125MOL0     N16757   6.995   0.323   2.271  0.3897  0.2664 -0.0095
  125MOL0     C16758   7.092   0.343   2.176 -0.3059  0.0966 -0.0898
  125MOL0     C16759   7.208   0.376   2.241  0.0817 -0.0951 -0.3333
  125MOL0     C16760   7.352   0.401   2.191  0.8063  0.0611 -0.1600
  125MOL0     C16761   7.368   0.553   2.156 -0.1447  0.6755  0.3419
  125MOL0     C16762   7.375   0.577   2.005 -0.6118 -0.6499 -0.7192
  125MOL0     C16763   7.436   0.714   1.965  0.0433  0.0003  0.9643
  125MOL0     O16764   7.396   0.811   2.060 -0.5314 -0.3982 -0.2771
  125MOL0     C16765   7.469   0.924   2.072 -0.1026 -0.9031  0.5364
  125MOL0     C16766   7.574   0.972   1.986 -0.6473  1.0283  0.2541
  125MOL0     C16767   7.620   1.105   1.981 -0.7205  1.2287 -1.0721
  125MOL0     C16768   7.576   1.195   2.085 -0.2685 -0.6888  0.7141
  125MOL0     C16769   7.611   1.337   2.081  0.3402 -0.4053  0.3094
  125MOL0     O16770   7.709   1.368   1.998 -0.7988  0.2060 -0.1653
  125MOL0     C16771   7.769   1.495   2.001  0.5381  0.0716  0.2288
  125MOL0     C16772   7.896   1.501   2.003 -0.0670  0.1321  0.2449
  125MOL0     C16773   7.959   1.626   1.989  0.7261  0.3397 -0.1398
  125MOL0     C16774   7.886   1.745   1.987  0.1236 -0.5429  0.0452
  125MOL0     O16775   7.941   1.877   2.001  0.5375 -0.6116  0.0698
  125MOL0     C16776   7.875   2.003   1.971  0.4555 -0.0106 -0.6009
  125MOL0     C16777   7.854   2.030   1.829 -1.0119 -0.0913 -0.1666
  125MOL0     C16778   7.985   2.062   1.749  0.6649 -0.2374 -0.1661
  125MOL0     C16779   7.967   2.092   1.603  0.9758 -0.1603  0.5409
  125MOL0     C16780   8.074   2.176   1.544  0.0513 -0.4130 -0.0163
  125MOL0     C16781   8.214   2.132   1.574 -0.1841  0.1349 -0.3694
  125MOL0     C16782   8.301   2.190   1.469  0.5470 -0.0235  0.2715
  125MOL0     C16783   8.440   2.130   1.484 -0.1207 -0.1063 -0.0662
  125MOL0    Cl16784   8.505   2.099   1.645 -0.5323 -0.2914  0.0901
  125MOL0     C16785   7.746   1.726   1.968  0.2966  1.2862  0.1831
  125MOL0     C16786   7.682   1.605   1.988 -0.8827  0.5725  0.0953
  125MOL0     O16787   7.561   1.418   2.167 -0.1278  0.7905  0.4286
  125MOL0     C16788   7.475   1.153   2.170  0.0474  0.3369  0.3888
  125MOL0     C16789   7.433   1.018   2.167 -1.0947 -0.1222 -0.2963
  125MOL0     N16790   7.175   0.398   2.377 -0.1322  1.0302  0.5061
  125MOL0     N16791   7.052   0.354   2.394  0.2352 -0.1053  0.4658
  125MOL0     C16792   6.330   0.461   1.550  0.4103 -0.1200  0.1069
  125MOL0     C16793   6.345   0.359   1.455 -0.2025  0.1429  0.1719
  125MOL0     C16794   6.429   0.027   1.172  0.3953  0.0871 -0.2389
  125MOL0     C16795   6.372  -0.101   1.175  0.2568  0.7192  0.3198
  125MOL0     C16796   6.395  -0.189   1.072  0.0128  0.8327 -0.0738
  125MOL0     C16797   6.483  -0.168   0.964 -0.4534  0.1508  0.3091
  125MOL0     O16798   6.527  -0.263   0.882 -0.4389  0.0060  0.3090
  125MOL0     C16799   6.441  -0.355   0.816  0.9531 -0.5408 -0.4115
  125MOL0     C16800   6.478  -0.370   0.664 -0.4841 -0.2233 -0.1675
  125MOL0     C16801   6.393  -0.489   0.593 -1.3494 -0.1785 -0.2928
  125MOL0     C16802   6.244  -0.471   0.595 -0.2892  0.2280  0.5261
  125MOL0     C16803   6.195  -0.353   0.529 -0.5339 -0.1957  0.1224
  125MOL0     C16804   6.168  -0.254   0.462  0.2410  0.8936  0.5597
  125MOL0     C16805   6.542  -0.041   0.957  0.1894 -0.3541 -0.2811
  125MOL0     C16806   6.519   0.056   1.061  0.1599  0.0759 -0.2771
  125MOL0     C16807   6.578   0.199   1.038  0.1191  0.2012 -0.0057
  125MOL0     H16808   6.683   0.356   1.451  0.3869 -1.3914  2.2263
  125MOL0     H16809   6.647   0.552   1.600  2.0152 -2.9969 -0.1431
  125MOL0     H16810   6.580   0.594   1.795 -1.3826 -2.8892  1.7702
  125MOL0     H16811   6.523   0.761   1.807 -0.0865  0.6272 -2.0620
  125MOL0     H16812   6.373   0.503   1.878 -0.1519  1.3387 -1.5864
  125MOL0     H16813   6.321   0.655   1.941  2.4162  6.1300 -1.2483
  125MOL0     H16814   6.515   0.694   2.076  1.1089  0.7402  2.2448
  125MOL0     H16815   6.599   0.570   1.991 -1.2459  1.5742 -2.4094
  125MOL0     H16816   6.349   0.490   2.157 -1.1893 -4.1444 -0.6968
  125MOL0     H16817   6.468   0.385   2.080 -1.5395 -0.4957  1.0224
  125MOL0     H16818   6.519   0.583   2.315  2.1136  0.6251  1.1660
  125MOL0     H16819   6.493   0.410   2.327 -0.2488  0.0029 -0.6489
  125MOL0     H16820   6.738   0.556   2.219  0.4883 -0.4554 -0.7477
  125MOL0     H16821   6.727   0.446   2.367  0.1516 -2.6830 -0.5225
  125MOL0     H16822   6.780   0.385   2.079  4.1666  0.7014  1.7959
  125MOL0     H16823   6.673   0.278   2.159  1.1587 -0.6266 -0.4359
  125MOL0     H16824   6.842   0.203   2.330  2.5419  1.7149  2.2425
  125MOL0     H16825   6.887   0.184   2.160  2.0297 -1.3359  1.8500
  125MOL0     H16826   7.068   0.300   2.079 -2.9594 -2.6809  1.6024
  125MOL0     H16827   7.428   0.376   2.265  4.1068  2.8831 -2.2985
  125MOL0     H16828   7.377   0.334   2.107 -2.2493  0.3976 -1.4748
  125MOL0     H16829   7.289   0.613   2.200 -4.6708 -2.7743 -2.2031
  125MOL0     H16830   7.466   0.581   2.195 -1.5803  2.6520  2.7607
  125MOL0     H16831   7.272   0.571   1.969 -0.9986  1.8387 -0.1778
  125MOL0     H16832   7.426   0.497   1.951 -4.1041 -1.0785 -3.7467
  125MOL0     H16833   7.390   0.741   1.869 -2.1332  3.6008  2.7770
  125MOL0     H16834   7.543   0.704   1.949 -0.2988 -2.8960  0.0248
  125MOL0     H16835   7.602   0.907   1.903  0.4798  0.8252  0.7642
  125MOL0     H16836   7.677   1.117   1.890  1.7758 -0.6415  0.1537
  125MOL0     H16837   7.960   1.414   1.996  1.2296  0.9989  0.8975
  125MOL0     H16838   8.067   1.629   1.989  0.7031  1.4975 -0.3838
  125MOL0     H16839   7.774   2.002   2.012  0.1130  0.2173 -1.4211
  125MOL0     H16840   7.941   2.080   2.012 -0.0846 -0.7181  1.7087
  125MOL0     H16841   7.796   1.949   1.784  1.0278 -2.2094  0.8100
  125MOL0     H16842   7.802   2.126   1.824 -0.5210  0.1228 -2.7623
  125MOL0     H16843   8.038   2.140   1.804  1.6201 -1.7344  1.1099
  125MOL0     H16844   8.048   1.974   1.764 -3.0641 -3.0873  0.3901
  125MOL0     H16845   7.868   2.134   1.587  0.3815 -2.1091 -1.4245
  125MOL0     H16846   7.962   1.994   1.555 -1.0836  0.5535 -0.7928
  125MOL0     H16847   8.067   2.279   1.580 -1.7697 -0.8490  0.9919
  125MOL0     H16848   8.069   2.183   1.435 -0.1599  3.3866  0.0791
  125MOL0     H16849   8.245   2.161   1.675  0.4121  1.1676 -0.8300
  125MOL0     H16850   8.220   2.023   1.576  0.0624  0.0852 -2.1764
  125MOL0     H16851   8.315   2.298   1.474 -0.2845  0.0799  0.4403
  125MOL0     H16852   8.266   2.158   1.370  2.4764  0.5725 -0.6550
  125MOL0     H16853   8.446   2.036   1.428 -0.5677 -0.5679  0.6382
  125MOL0     H16854   8.515   2.201   1.448 -1.2799  0.7986 -0.7856
  125MOL0     H16855   7.671   1.804   1.963 -0.1205  0.9552  1.1444
  125MOL0     H16856   7.576   1.582   2.001 -0.0889 -3.1574  1.1487
  125MOL0     H16857   7.434   1.222   2.243  0.9870  0.6703  0.6152
  125MOL0     H16858   7.353   0.999   2.239  0.8480 -1.7503  1.5876
  125MOL0     H16859   6.230   0.501   1.565 -0.4364 -2.8894  3.2492
  125MOL0     H16860   6.253   0.318   1.417 -1.3586  3.6319 -1.1834
  125MOL0     H16861   6.300  -0.139   1.247  2.0398 -1.3487  1.0979
  125MOL0     H16862   6.340  -0.283   1.075  1.3339 -0.0172 -1.0708
  125MOL0     H16863   6.336  -0.330   0.836  0.5644 -0.6299 -2.1767
  125MOL0     H16864   6.453  -0.447   0.874 -3.1784  0.3162  2.2335
  125MOL0     H16865   6.583  -0.397   0.654 -0.7723 -2.6370  2.3141
  125MOL0     H16866   6.468  -0.281   0.601 -1.2272  0.0537  0.3239
  125MOL0     H16867   6.426  -0.583   0.638  2.5445  1.1664  0.0202
  125MOL0     H16868   6.418  -0.501   0.488 -1.2686  1.0213 -0.4233
  125MOL0     H16869   6.199  -0.548   0.531 -2.3402  1.8780 -0.1197
  125MOL0     H16870   6.191  -0.482   0.690  1.4395 -0.8484  1.4062
  125MOL0     H16871   6.136  -0.175   0.397  2.8778  2.8790  1.5072
  125MOL0     H16872   6.613  -0.018   0.878 -0.1349  3.1794  0.2808
  125MOL0     H16873   6.670   0.219   1.094  1.7311  1.0220 -2.7192
  125MOL0     H16874   6.614   0.203   0.935  2.4054 -3.2992  0.4860
  125MOL0     H16875   6.507   0.277   1.065  1.2911  1.4205 -0.3382
  126MOL0     O16876   8.061   3.033   2.635 -0.1169 -0.0151 -0.7131
  126MOL0     C16877   8.109   3.003   2.528 -0.3578  0.3189  0.0439
  126MOL0     O16878   8.198   2.899   2.507 -0.2729  0.4394  0.6990
  126MOL0     C16879   8.232   2.822   2.618 -0.0060  0.6957 -0.1699
  126MOL0     C16880   8.273   2.867   2.735  0.1061  0.5151 -0.1975
  126MOL0     C16881   8.319   2.773   2.832  0.6629 -1.0794  0.6883
  126MOL0     C16882   8.329   2.638   2.812 -0.1033 -0.4813 -0.2311
  126MOL0     O16883   8.386   2.556   2.906 -0.3458  0.1175 -0.9181
  126MOL0     C16884   8.421   2.417   2.870  0.2725 -1.1901 -0.1252
  126MOL0     C16885   8.487   2.353   2.999 -0.0682 -0.3015  0.2619
  126MOL0     C16886   8.488   2.193   3.019  0.0795 -0.5888 -0.3222
  126MOL0     C16887   8.556   2.161   3.153  0.5617 -0.5773 -0.7664
  126MOL0     C16888   8.555   2.006   3.186 -0.2910 -0.1823 -0.7561
  126MOL0     C16889   8.453   1.919   3.118  0.0282 -0.3834 -0.4660
  126MOL0     C16890   8.480   1.787   3.170  0.5184  0.1755  0.2229
  126MOL0     C16891   8.396   1.678   3.108  0.5396 -0.3671  0.9422
  126MOL0     N16892   8.458   1.618   2.989 -0.5391 -1.0907 -0.4244
  126MOL0     C16893   8.397   1.595   2.869 -0.5725  0.7045  0.1981
  126MOL0     C16894   8.481   1.529   2.790 -0.4299 -0.2815  0.5942
  126MOL0     C16895   8.461   1.487   2.649 -1.0023  0.7031  1.0555
  126MOL0     C16896   8.380   1.355   2.643  0.0871 -0.2220  0.4699
  126MOL0     C16897   8.227   1.380   2.629  0.0551 -1.0409 -0.0338
  126MOL0     C16898   8.158   1.247   2.585 -0.4489  0.7408 -0.4543
  126MOL0     O16899   8.121   1.171   2.696 -0.3649  0.3598 -0.2528
  126MOL0     C16900   8.067   1.044   2.681  0.0819 -0.3611 -0.3875
  126MOL0     C16901   8.068   0.981   2.563 -0.0207  0.2218  0.1020
  126MOL0     C16902   8.024   0.844   2.539  0.4514  0.1215 -0.3500
  126MOL0     C16903   7.978   0.769   2.652  1.1093 -0.3972 -0.9606
  126MOL0     C16904   7.930   0.625   2.639  0.1805 -0.2150 -0.0738
  126MOL0     O16905   7.897   0.561   2.751 -0.7677  0.4045 -0.5400
  126MOL0     C16906   7.848   0.427   2.742  0.0285  0.2204 -0.3719
  126MOL0     C16907   7.712   0.410   2.699  0.0551  0.1859 -0.2370
  126MOL0     C16908   7.676   0.275   2.674  0.4724  0.3912  0.5690
  126MOL0     C16909   7.761   0.165   2.689  0.3028 -0.2782  0.5210
  126MOL0     O16910   7.711   0.033   2.686  0.4070  0.2870 -0.5181
  126MOL0     C16911   7.632  -0.013   2.585  0.1141  0.5142 -0.0122
  126MOL0     C16912   7.501  -0.077   2.652 -1.1029  0.5163  0.0379
  126MOL0     C16913   7.365  -0.045   2.588 -0.1984 -0.2776 -0.7835
  126MOL0     C16914   7.326  -0.122   2.456  0.2498 -0.1203 -1.1415
  126MOL0     C16915   7.196  -0.093   2.392  0.5231 -0.3623  0.3544
  126MOL0     C16916   7.195  -0.116   2.236  0.4075 -0.2336  0.9593
  126MOL0     C16917   7.264  -0.001   2.158  0.2925 -0.4176 -0.3505
  126MOL0     C16918   7.372  -0.049   2.068 -0.1859  0.8471  1.2818
  126MOL0    Cl16919   7.495   0.077   2.025  0.0156  0.3322 -0.0977
  126MOL0     C16920   7.895   0.185   2.733  0.8306  0.6683  0.5877
  126MOL0     C16921   7.939   0.321   2.752 -0.0678 -0.5990  0.2009
  126MOL0     O16922   7.952   0.571   2.533  0.9330 -0.2301 -0.5598
  126MOL0     C16923   7.966   0.833   2.777 -1.0904 -0.5384  0.4402
  126MOL0     C16924   8.011   0.969   2.789 -0.6138 -0.1083 -0.1239
  126MOL0     N16925   8.602   1.517   2.866  0.0660 -0.8582  0.8310
  126MOL0     N16926   8.583   1.564   2.982 -0.5933  0.0254 -0.0723
  126MOL0     C16927   8.280   2.596   2.685 -0.1794 -0.0698  0.0463
  126MOL0     C16928   8.240   2.682   2.584  0.7520 -0.5955 -0.0772
  126MOL0     C16929   8.079   3.084   2.416  0.2859 -0.5216  0.8348
  126MOL0     C16930   8.070   3.226   2.445  0.9602  0.5708  0.4839
  126MOL0     C16931   8.052   3.321   2.341  0.5739  0.2873 -0.5755
  126MOL0     C16932   8.041   3.284   2.212  0.0799 -0.0259  0.8828
  126MOL0     O16933   8.032   3.374   2.103 -0.5090 -0.1477  0.0887
  126MOL0     C16934   7.895   3.391   2.061 -0.1883 -0.1135  0.3685
  126MOL0     C16935   7.819   3.503   2.135 -0.1553 -0.5636 -0.6724
  126MOL0     C16936   7.849   3.649   2.102 -0.4752 -0.3762  0.5831
  126MOL0     C16937   7.888   3.724   2.224 -0.0389  0.5940  0.1061
  126MOL0     C16938   7.786   3.718   2.334 -0.5091  0.0033 -0.0529
  126MOL0     C16939   7.718   3.703   2.423  0.1475 -0.5643 -0.1161
  126MOL0     C16940   8.045   3.143   2.181  0.6704 -0.0702  0.6093
  126MOL0     C16941   8.049   3.047   2.281  0.3098  0.7026  1.2135
  126MOL0     C16942   8.049   2.897   2.243  0.3977 -0.0413 -0.2734
  126MOL0     H16943   8.275   2.973   2.756 -2.5327  1.0184 -2.0324
  126MOL0     H16944   8.361   2.815   2.922  0.3690  2.9995 -0.8644
  126MOL0     H16945   8.334   2.356   2.845  1.0559 -1.9524 -1.0868
  126MOL0     H16946   8.498   2.422   2.793 -0.6392  0.5591 -0.9880
  126MOL0     H16947   8.434   2.392   3.087  1.2468  3.2844 -0.3692
  126MOL0     H16948   8.587   2.398   2.997 -0.6617  1.3605  2.8996
  126MOL0     H16949   8.553   2.141   2.947  2.5390  0.3179  1.1246
  126MOL0     H16950   8.385   2.158   3.019  0.1201 -0.7486  1.1112
  126MOL0     H16951   8.653   2.206   3.174  0.0527 -0.2493  1.1094
  126MOL0     H16952   8.493   2.208   3.230  0.4931 -0.7162 -0.7367
  126MOL0     H16953   8.656   1.986   3.150  1.0550 -0.9053  2.9217
  126MOL0     H16954   8.557   2.010   3.296  0.8166  0.1037 -0.7646
  126MOL0     H16955   8.355   1.952   3.154  0.6369  3.6628 -2.0360
  126MOL0     H16956   8.472   1.913   3.011 -0.5777  0.8012 -0.6447
  126MOL0     H16957   8.460   1.787   3.278  5.5897  2.4982  1.4596
  126MOL0     H16958   8.585   1.764   3.149  0.5117  1.3189 -1.2419
  126MOL0     H16959   8.385   1.594   3.178 -2.4639 -0.3022  0.6926
  126MOL0     H16960   8.298   1.718   3.079  1.2157 -0.4185 -1.7214
  126MOL0     H16961   8.294   1.625   2.851  0.2806  3.3238 -0.7828
  126MOL0     H16962   8.413   1.561   2.584 -0.9755  3.4709  3.9358
  126MOL0     H16963   8.567   1.475   2.624 -1.3355  0.7360 -0.4828
  126MOL0     H16964   8.404   1.298   2.553 -0.1011 -1.9104  1.4476
  126MOL0     H16965   8.402   1.291   2.729  1.5040  1.4411  1.4070
  126MOL0     H16966   8.196   1.467   2.571 -0.6348 -0.3437  1.3169
  126MOL0     H16967   8.195   1.396   2.733  0.3036 -4.6015  0.7135
  126MOL0     H16968   8.220   1.191   2.515  1.6927 -0.9689  2.5740
  126MOL0     H16969   8.058   1.271   2.546 -0.1541 -0.2334 -1.9045
  126MOL0     H16970   8.103   1.020   2.468 -0.5952 -1.7608 -0.9769
  126MOL0     H16971   8.027   0.809   2.436 -4.3859  0.3786 -0.8128
  126MOL0     H16972   7.667   0.503   2.668 -0.1705  0.5694  1.2069
  126MOL0     H16973   7.571   0.247   2.663  0.0539  1.8290  0.7672
  126MOL0     H16974   7.601   0.062   2.512  1.4392 -1.1843 -2.4799
  126MOL0     H16975   7.684  -0.093   2.531  0.6753  1.6440 -1.2063
  126MOL0     H16976   7.516  -0.183   2.675  1.4726  0.5149 -1.1944
  126MOL0     H16977   7.506  -0.039   2.754  1.9703  0.2222  0.0904
  126MOL0     H16978   7.297  -0.073   2.670  2.0357  2.1632  2.1389
  126MOL0     H16979   7.357   0.064   2.580  2.9655  0.2238  1.1377
  126MOL0     H16980   7.339  -0.231   2.463 -4.9347 -1.1389 -2.8546
  126MOL0     H16981   7.406  -0.079   2.396  0.9883 -0.6653 -0.5557
  126MOL0     H16982   7.171   0.013   2.401  1.3424  0.1906 -2.7560
  126MOL0     H16983   7.129  -0.166   2.440  2.3743 -2.1274  0.3866
  126MOL0     H16984   7.230  -0.215   2.204 -0.4129  0.3881 -2.2987
  126MOL0     H16985   7.091  -0.120   2.200  0.7297 -1.2899  0.0860
  126MOL0     H16986   7.299   0.078   2.226 -2.4962  0.3041  0.4061
  126MOL0     H16987   7.187   0.049   2.099 -1.1618 -0.2664  1.5777
  126MOL0     H16988   7.431  -0.123   2.124  0.1096  0.2699  0.2230
  126MOL0     H16989   7.333  -0.093   1.976  0.8850 -1.5176  1.8741
  126MOL0     H16990   7.964   0.107   2.762  1.1595  0.9250  0.5068
  126MOL0     H16991   8.035   0.341   2.797  0.0748  2.2380 -1.1840
  126MOL0     H16992   7.952   0.779   2.870  2.8390 -0.9969  0.9169
  126MOL0     H16993   8.023   1.021   2.884  1.4973  1.5976 -1.2263
  126MOL0     H16994   8.264   2.493   2.654 -0.5262 -0.4269  1.3171
  126MOL0     H16995   8.209   2.640   2.489 -3.3031  1.3349  0.1815
  126MOL0     H16996   8.098   3.255   2.545 -1.2397  2.6789  0.5802
  126MOL0     H16997   8.033   3.426   2.358 -3.3734 -0.7160  2.7425
  126MOL0     H16998   7.844   3.298   2.089 -0.4165 -0.1005 -0.0011
  126MOL0     H16999   7.884   3.422   1.957 -3.7921  2.1322  1.2056
  126MOL0     H17000   7.830   3.478   2.241  0.2812 -0.0268 -0.5825
  126MOL0     H17001   7.711   3.496   2.121  0.0916 -1.4716 -2.2961
  126MOL0     H17002   7.763   3.696   2.054 -0.8723  1.1252  2.6229
  126MOL0     H17003   7.933   3.654   2.032 -1.1038 -0.3134 -0.1800
  126MOL0     H17004   7.969   3.674   2.277  0.0767  0.6787  0.0082
  126MOL0     H17005   7.913   3.827   2.199  1.7828  0.9458  2.9432
  126MOL0     H17006   7.652   3.688   2.506 -2.8085  3.2640 -1.4254
  126MOL0     H17007   8.029   3.112   2.078  0.4434  0.6172  0.4339
  126MOL0     H17008   7.971   2.842   2.297 -0.6970  1.0766 -0.6673
  126MOL0     H17009   8.024   2.888   2.137  2.5493 -1.7748 -0.7068
  126MOL0     H17010   8.146   2.849   2.260  0.2079 -0.0815  0.7592
  127MOL0     O17011   4.290   4.734   2.225 -1.1218  0.7178 -1.0112
  127MOL0     C17012   4.184   4.759   2.285 -0.9296 -0.3964  0.1145
  127MOL0     O17013   4.093   4.855   2.238 -0.1491  0.0320 -0.1982
  127MOL0     C17014   4.120   4.983   2.212 -0.3189 -0.6739  0.7340
  127MOL0     C17015   4.021   5.068   2.165  0.3523 -0.2741  0.4091
  127MOL0     C17016   4.044   5.188   2.100 -0.7978  0.0391  0.0672
  127MOL0     C17017   4.177   5.242   2.113  0.6754 -0.5475 -0.6519
  127MOL0     O17018   4.200   5.361   2.056  0.0305 -0.3010  0.5144
  127MOL0     C17019   4.242   5.476   2.142 -0.4037  0.6467  0.1593
  127MOL0     C17020   4.313   5.591   2.066 -0.0899 -0.5969  0.1414
  127MOL0     C17021   4.451   5.551   2.018  0.1209 -0.4903  0.6238
  127MOL0     C17022   4.532   5.680   1.980 -0.1494  0.7791 -0.3340
  127MOL0     C17023   4.662   5.647   1.928 -0.3849  0.2121  0.3653
  127MOL0     C17024   4.724   5.763   1.839  0.8276  0.1042 -0.1997
  127MOL0     C17025   4.863   5.758   1.809  0.4405  0.3445 -0.7107
  127MOL0     C17026   4.924   5.846   1.699 -0.2629 -0.0529  0.1807
  127MOL0     N17027   4.968   5.988   1.724 -0.0305  1.0256 -0.2763
  127MOL0     C17028   5.046   6.038   1.820 -0.6114  0.0229 -0.3035
  127MOL0     C17029   5.056   6.173   1.798  0.1216  1.0343  0.2163
  127MOL0     C17030   5.139   6.258   1.887  0.3968  0.0221 -0.5792
  127MOL0     C17031   5.063   6.390   1.922 -0.0055  0.0957  0.7162
  127MOL0     C17032   4.981   6.388   2.053  0.4997  0.3922  0.5296
  127MOL0     C17033   4.902   6.261   2.085  0.2219 -0.0820  0.2901
  127MOL0     O17034   4.982   6.150   2.119  0.4477  0.1444 -0.5070
  127MOL0     C17035   4.931   6.034   2.156 -0.3127 -0.2182 -0.7716
  127MOL0     C17036   5.020   5.929   2.199  0.5217 -0.2582 -0.3691
  127MOL0     C17037   4.974   5.794   2.228 -0.2935  1.1086 -0.1742
  127MOL0     C17038   4.828   5.772   2.232  0.6052 -0.6436  1.0471
  127MOL0     C17039   4.781   5.633   2.260 -0.8174  0.1461  1.7505
  127MOL0     O17040   4.871   5.530   2.252 -0.0608  0.2413 -0.0932
  127MOL0     C17041   4.836   5.406   2.290 -0.5825 -0.2295  0.6894
  127MOL0     C17042   4.734   5.357   2.369  0.4264 -0.0601  0.3134
  127MOL0     C17043   4.712   5.222   2.383  0.5324  0.1957 -0.1087
  127MOL0     C17044   4.790   5.122   2.318  0.9164  0.4197 -0.4440
  127MOL0     O17045   4.756   4.993   2.336  0.4554  0.2776  0.4557
  127MOL0     C17046   4.651   4.948   2.241  0.8917 -0.3123  0.9763
  127MOL0     C17047   4.698   4.817   2.188  0.5489  0.2799  0.6298
  127MOL0     C17048   4.690   4.698   2.279 -0.4964 -0.1574 -0.2904
  127MOL0     C17049   4.748   4.558   2.223  0.6217  1.0144  0.7639
  127MOL0     C17050   4.715   4.442   2.309  0.3912  0.5133 -0.8544
  127MOL0     C17051   4.782   4.310   2.267  0.0382  0.0166  0.4948
  127MOL0     C17052   4.747   4.205   2.371 -0.3051  0.6314 -0.2348
  127MOL0     C17053   4.804   4.064   2.337 -0.2543 -0.8592  0.7823
  127MOL0    Cl17054   4.705   3.998   2.209 -0.0795  0.3978  0.0188
  127MOL0     C17055   4.908   5.177   2.255 -0.2001 -0.2656 -0.3001
  127MOL0     C17056   4.921   5.314   2.240  0.3018  0.9212 -0.4365
  127MOL0     O17057   4.663   5.630   2.287  1.0113 -1.0295  0.8755
  127MOL0     C17058   4.741   5.881   2.209 -0.8811  0.0532  0.9609
  127MOL0     C17059   4.788   6.004   2.168 -0.5737 -0.6146  0.0168
  127MOL0     N17060   4.983   6.199   1.674 -0.3179 -0.4057 -0.5431
  127MOL0     N17061   4.930   6.091   1.643 -0.4510  0.0611 -0.5998
  127MOL0     C17062   4.275   5.163   2.171 -0.6611 -0.2622 -0.3307
  127MOL0     C17063   4.249   5.041   2.220  0.4300  0.6591  0.2087
  127MOL0     C17064   4.152   4.672   2.405  0.5932 -0.3482  0.5156
  127MOL0     C17065   4.250   4.573   2.439 -0.5557 -0.1025  0.1918
  127MOL0     C17066   4.212   4.482   2.540 -0.2449 -0.2974  0.9686
  127MOL0     C17067   4.089   4.469   2.597  0.5506 -0.0159 -0.1829
  127MOL0     O17068   4.057   4.374   2.691  0.1364 -0.8385  0.8648
  127MOL0     C17069   4.159   4.315   2.782  0.5209  0.1222  0.1063
  127MOL0     C17070   4.133   4.377   2.919 -0.6954 -0.6955  0.7710
  127MOL0     C17071   4.213   4.503   2.955 -0.1614  0.9719  0.4250
  127MOL0     C17072   4.165   4.564   3.091 -0.2765  0.7707  0.5991
  127MOL0     C17073   4.201   4.701   3.104 -0.8731 -0.0585  0.7332
  127MOL0     C17074   4.217   4.826   3.113  1.1752 -0.4676  0.4152
  127MOL0     C17075   3.991   4.555   2.550  0.9197 -1.0670  0.1878
  127MOL0     C17076   4.026   4.666   2.467  1.1126  0.8437  0.0699
  127MOL0     C17077   3.913   4.761   2.437 -0.3229  0.0573  0.1366
  127MOL0     H17078   3.922   5.024   2.156  1.2503 -2.3288  0.1421
  127MOL0     H17079   3.971   5.262   2.066 -0.2564  0.9800  0.8941
  127MOL0     H17080   4.143   5.513   2.172 -2.3258 -3.8894  0.2253
  127MOL0     H17081   4.305   5.443   2.225  0.6479 -1.8979 -1.5585
  127MOL0     H17082   4.317   5.678   2.133 -0.8636 -1.5244  1.4524
  127MOL0     H17083   4.247   5.624   1.986 -0.5425 -2.4946 -0.3216
  127MOL0     H17084   4.436   5.491   1.928 -4.0015  2.1864 -0.7886
  127MOL0     H17085   4.499   5.498   2.100 -0.9001 -0.0158  1.5612
  127MOL0     H17086   4.484   5.730   1.896  0.9565 -0.4985 -1.7883
  127MOL0     H17087   4.541   5.752   2.062  0.7856 -0.2936  0.5460
  127MOL0     H17088   4.718   5.637   2.022 -2.7863 -0.1740  1.8319
  127MOL0     H17089   4.655   5.545   1.887 -1.9564 -0.1566  1.4656
  127MOL0     H17090   4.662   5.757   1.749 -3.1228 -1.0798  2.3522
  127MOL0     H17091   4.712   5.861   1.887 -0.1692 -0.5346  0.9072
  127MOL0     H17092   4.872   5.653   1.780  1.9953 -0.1386  1.2590
  127MOL0     H17093   4.931   5.769   1.895  0.0593 -1.3191 -0.1485
  127MOL0     H17094   4.998   5.793   1.639 -0.9906  1.4990 -2.2351
  127MOL0     H17095   4.844   5.873   1.629 -2.7730  1.3241  3.3221
  127MOL0     H17096   5.095   5.974   1.893 -2.3481  1.4113  2.2464
  127MOL0     H17097   5.170   6.210   1.980 -1.2604  0.6140  0.3218
  127MOL0     H17098   5.231   6.286   1.836 -0.0610  2.6928 -0.0886
  127MOL0     H17099   5.135   6.472   1.921 -2.2935  2.4456 -3.6129
  127MOL0     H17100   4.993   6.407   1.840  0.8065 -0.0500 -0.0118
  127MOL0     H17101   4.909   6.470   2.061 -0.5506 -0.4037 -0.4477
  127MOL0     H17102   5.041   6.413   2.141  1.0036 -1.1137  0.6350
  127MOL0     H17103   4.857   6.231   1.990  2.4431 -1.6270 -0.3536
  127MOL0     H17104   4.824   6.285   2.158 -1.2817 -2.2351 -0.5080
  127MOL0     H17105   5.126   5.951   2.210  0.4311 -0.6001  1.5589
  127MOL0     H17106   5.047   5.714   2.241  0.3791  1.6811 -0.3756
  127MOL0     H17107   4.672   5.431   2.419  1.4026  1.1514 -0.2147
  127MOL0     H17108   4.630   5.191   2.447  2.3398 -0.0491  2.2407
  127MOL0     H17109   4.556   4.949   2.294 -1.1291  0.3150 -2.3453
  127MOL0     H17110   4.650   5.015   2.154  1.7487 -0.8644  0.5208
  127MOL0     H17111   4.622   4.811   2.109 -4.2845 -0.7303  4.8212
  127MOL0     H17112   4.799   4.823   2.148  0.5449  0.1222  0.5971
  127MOL0     H17113   4.745   4.722   2.370 -1.3736  0.6761  0.0310
  127MOL0     H17114   4.585   4.694   2.307 -0.8822  0.8685 -1.4805
  127MOL0     H17115   4.857   4.561   2.219  1.0022 -2.6555  3.2844
  127MOL0     H17116   4.699   4.547   2.126  0.6384 -0.6816  0.9121
  127MOL0     H17117   4.607   4.428   2.320  0.2021  2.5967  0.6009
  127MOL0     H17118   4.749   4.460   2.412  3.1818  1.2218 -1.8375
  127MOL0     H17119   4.754   4.285   2.165  2.2459  1.8715 -0.6795
  127MOL0     H17120   4.890   4.328   2.254 -0.2833  1.9787  0.1771
  127MOL0     H17121   4.639   4.201   2.388 -0.4689  3.2479 -0.2647
  127MOL0     H17122   4.786   4.239   2.467  2.3368  0.8701 -1.3020
  127MOL0     H17123   4.905   4.086   2.301 -1.5350  4.9654 -0.3069
  127MOL0     H17124   4.798   3.987   2.413  1.4926 -2.6828 -0.8157
  127MOL0     H17125   4.978   5.099   2.224  2.0540  0.2464  3.0168
  127MOL0     H17126   5.010   5.348   2.187  2.0317 -1.9834  0.3605
  127MOL0     H17127   4.638   5.846   2.214 -0.9433  0.2449  1.0059
  127MOL0     H17128   4.714   6.079   2.141 -1.1636 -0.7149  1.2693
  127MOL0     H17129   4.376   5.202   2.183 -0.8209 -0.0813  0.5736
  127MOL0     H17130   4.329   4.988   2.271  0.4347  0.1092 -0.3636
  127MOL0     H17131   4.350   4.567   2.397  0.9715  0.0674  3.5366
  127MOL0     H17132   4.297   4.417   2.560  0.1271 -0.1158  0.0169
  127MOL0     H17133   4.267   4.323   2.767  1.0904 -1.3174  2.8341
  127MOL0     H17134   4.134   4.209   2.773  1.3368 -0.1231  0.6718
  127MOL0     H17135   4.154   4.305   2.998  0.3023  0.2105  1.3738
  127MOL0     H17136   4.025   4.394   2.930 -0.5912 -0.9126  2.3276
  127MOL0     H17137   4.208   4.577   2.875  2.7345  2.0365  1.1121
  127MOL0     H17138   4.317   4.471   2.971 -0.6947 -0.7259  0.7753
  127MOL0     H17139   4.058   4.549   3.103  0.0065 -1.3252  0.8116
  127MOL0     H17140   4.216   4.512   3.172  0.1933 -2.9076 -1.8410
  127MOL0     H17141   4.224   4.932   3.128  0.3554 -0.1774 -1.0874
  127MOL0     H17142   3.899   4.534   2.604 -0.3001 -1.4915 -1.9635
  127MOL0     H17143   3.900   4.763   2.328 -1.2754  0.3502  0.2499
  127MOL0     H17144   3.824   4.740   2.497  0.1220  0.4603  0.9600
  127MOL0     H17145   3.932   4.865   2.464 -0.7084  0.5258 -1.3238
  128MOL0     O17146   3.974   9.606   3.417  0.5982 -1.0049 -0.0440
  128MOL0     C17147   4.065   9.543   3.373  0.2915  0.3381 -0.8629
  128MOL0     O17148   4.199   9.585   3.372 -0.5021  0.3784  0.4279
  128MOL0     C17149   4.233   9.704   3.433 -0.6998  1.3188 -1.2267
  128MOL0     C17150   4.344   9.693   3.515 -0.1396  0.3807 -0.1413
  128MOL0     C17151   4.391   9.813   3.571  0.4808 -0.5700 -0.4107
  128MOL0     C17152   4.342   9.946   3.533 -0.5429 -0.3864 -0.4831
  128MOL0     O17153   4.399  10.050   3.612 -0.3122  0.6654 -0.1373
  128MOL0     C17154   4.324  10.176   3.626  0.0814  0.9452  0.4167
  128MOL0     C17155   4.416  10.278   3.688  0.1253  0.5780 -0.5813
  128MOL0     C17156   4.515  10.325   3.575 -0.2148 -0.1893 -0.3153
  128MOL0     C17157   4.598  10.426   3.648  0.3517  0.0074 -0.6101
  128MOL0     C17158   4.647  10.542   3.552  0.2401 -0.4490  0.6914
  128MOL0     C17159   4.541  10.639   3.480  0.6537  0.8298  0.0229
  128MOL0     C17160   4.448  10.705   3.582  0.0981  0.3242 -0.6020
  128MOL0     C17161   4.334  10.788   3.510  0.1393  0.0298  0.4358
  128MOL0     N17162   4.280  10.909   3.583 -0.8664  0.3462 -0.1256
  128MOL0     C17163   4.168  10.978   3.547 -0.1506  1.0342  0.1919
  128MOL0     C17164   4.156  11.097   3.615  1.3783  0.4084  0.3787
  128MOL0     C17165   4.061  11.211   3.612  0.2084 -0.1548  0.9992
  128MOL0     C17166   3.928  11.183   3.677 -0.5196  0.2313 -0.0480
  128MOL0     C17167   3.847  11.081   3.599 -0.0662 -0.6557 -0.2022
  128MOL0     C17168   3.831  10.955   3.676  0.0620 -0.0077 -0.1205
  128MOL0     O17169   3.752  10.854   3.597 -0.8367  0.1935 -0.1608
  128MOL0     C17170   3.800  10.723   3.596  0.5726  0.4394 -0.6406
  128MOL0     C17171   3.746  10.635   3.697 -0.1954 -0.1733  0.6307
  128MOL0     C17172   3.793  10.506   3.699 -0.1141  0.4612  0.0374
  128MOL0     C17173   3.896  10.463   3.606 -0.7793  0.4051 -0.0609
  128MOL0     C17174   3.948  10.329   3.627 -0.9678  1.2095 -0.6975
  128MOL0     O17175   3.954  10.284   3.755  0.8089 -0.8164 -0.0894
  128MOL0     C17176   3.994  10.156   3.790 -0.6962 -0.9237  0.1477
  128MOL0     C17177   4.001  10.046   3.700  0.2539 -0.0816  0.8609
  128MOL0     C17178   4.039   9.919   3.731  0.1251 -0.1218  0.2862
  128MOL0     C17179   4.090   9.892   3.859  0.0958  0.7619  0.0430
  128MOL0     O17180   4.132   9.770   3.910  0.0281 -0.0154 -0.1628
  128MOL0     C17181   4.100   9.655   3.831 -0.4782  0.6082  0.0798
  128MOL0     C17182   4.151   9.534   3.895  0.3818  0.5075  0.4608
  128MOL0     C17183   4.159   9.407   3.805 -0.0873  0.1080  1.1108
  128MOL0     C17184   4.018   9.361   3.760  0.6728 -0.4106 -0.5409
  128MOL0     C17185   4.013   9.214   3.721  0.0235  0.7749 -0.1574
  128MOL0     C17186   3.881   9.153   3.764 -0.2002  0.7514  1.0108
  128MOL0     C17187   3.836   9.042   3.669  0.1967  0.7506 -0.2348
  128MOL0     C17188   3.925   8.915   3.697 -0.0220 -0.3355  0.0234
  128MOL0    Cl17189   3.895   8.797   3.569 -0.2689  0.0175 -0.2333
  128MOL0     C17190   4.099   9.997   3.948  0.7516 -0.1963  0.5295
  128MOL0     C17191   4.045  10.123   3.916  0.6048  0.5154  0.1594
  128MOL0     O17192   4.016  10.281   3.536  0.7402 -0.3671  1.0412
  128MOL0     C17193   3.949  10.549   3.511  0.3646 -0.4662 -0.3169
  128MOL0     C17194   3.900  10.677   3.508 -0.3112 -0.4601  0.0514
  128MOL0     N17195   4.275  11.098   3.689  0.1623  0.7276  0.0466
  128MOL0     N17196   4.345  10.986   3.668 -0.4373 -0.3205  0.2933
  128MOL0     C17197   4.240   9.949   3.446  0.5610 -0.6854  0.5700
  128MOL0     C17198   4.185   9.829   3.393  0.2814  0.5157  0.0899
  128MOL0     C17199   4.015   9.413   3.315 -0.4200 -0.1298  0.6230
  128MOL0     C17200   3.886   9.362   3.347 -0.3932  0.0188 -0.4199
  128MOL0     C17201   3.841   9.238   3.292  0.1885 -0.5314 -0.2526
  128MOL0     C17202   3.927   9.156   3.214 -0.6149  0.4190  0.3268
  128MOL0     O17203   3.917   9.027   3.166  0.4470  0.5954  0.0004
  128MOL0     C17204   3.792   8.956   3.188  0.2686  0.4644  1.0604
  128MOL0     C17205   3.678   9.011   3.105  0.4061  0.8991  0.8876
  128MOL0     C17206   3.697   8.995   2.950 -0.2973 -0.1200  0.5224
  128MOL0     C17207   3.726   8.855   2.887 -0.4430 -0.6866  0.3485
  128MOL0     C17208   3.716   8.871   2.741 -0.3110 -0.5797 -0.5373
  128MOL0     C17209   3.692   8.869   2.619 -0.2202 -0.3779  0.5795
  128MOL0     C17210   4.048   9.211   3.166 -0.5387 -0.3312  0.4390
  128MOL0     C17211   4.087   9.330   3.215  0.0138  0.3650 -0.0494
  128MOL0     C17212   4.231   9.369   3.176  0.1244  0.6332  0.2033
  128MOL0     H17213   4.383   9.598   3.550 -1.1173  0.1933  0.4863
  128MOL0     H17214   4.471   9.807   3.644  0.5901 -3.0766 -0.6503
  128MOL0     H17215   4.286  10.202   3.527  0.9308  1.8236  0.3090
  128MOL0     H17216   4.246  10.159   3.701  1.2936  0.8129  1.6895
  128MOL0     H17217   4.473  10.225   3.766 -0.4774  0.8253  0.0384
  128MOL0     H17218   4.349  10.354   3.729  3.9482  2.0991  3.6945
  128MOL0     H17219   4.469  10.353   3.480  0.2564  0.7342 -0.2881
  128MOL0     H17220   4.581  10.240   3.556 -0.6477 -0.6762  0.3218
  128MOL0     H17221   4.538  10.478   3.723  0.1378 -0.5033 -0.4219
  128MOL0     H17222   4.686  10.377   3.688  0.1687 -1.4219 -1.8738
  128MOL0     H17223   4.703  10.602   3.623  3.1412 -1.5380 -0.5178
  128MOL0     H17224   4.718  10.497   3.481 -0.0492  0.1041  0.0431
  128MOL0     H17225   4.593  10.719   3.426  0.2537  3.6520  3.4371
  128MOL0     H17226   4.490  10.574   3.408  0.8347 -1.4681  1.8447
  128MOL0     H17227   4.507  10.765   3.652 -2.8284 -0.2159  2.5330
  128MOL0     H17228   4.403  10.629   3.646 -1.6559  0.9829 -0.9882
  128MOL0     H17229   4.392  10.835   3.430  0.2902 -0.3341  0.3248
  128MOL0     H17230   4.258  10.718   3.473 -0.6068  0.8677  0.3440
  128MOL0     H17231   4.095  10.961   3.468 -1.1068  1.3054  0.9994
  128MOL0     H17232   4.093  11.301   3.666  0.1192 -1.5385  3.5346
  128MOL0     H17233   4.030  11.234   3.510 -2.1017 -1.7100  1.2925
  128MOL0     H17234   3.947  11.149   3.779  1.5334 -1.1284 -0.8119
  128MOL0     H17235   3.882  11.282   3.683  1.7905  1.3687  0.1741
  128MOL0     H17236   3.897  11.069   3.502 -1.3813  1.4762 -1.2373
  128MOL0     H17237   3.748  11.123   3.578  0.0860 -0.6521 -0.9464
  128MOL0     H17238   3.780  10.975   3.770  3.2656 -1.7065  2.1673
  128MOL0     H17239   3.929  10.910   3.692  0.2937  0.0425 -1.2807
  128MOL0     H17240   3.672  10.692   3.754  1.3030  3.1983 -0.5379
  128MOL0     H17241   3.746  10.424   3.752 -1.3137 -0.6398 -2.5480
  128MOL0     H17242   3.968  10.063   3.598  2.3204  1.1912  0.3487
  128MOL0     H17243   4.038   9.840   3.656 -0.4126  0.1443  0.0084
  128MOL0     H17244   3.991   9.649   3.822 -0.4102 -1.9831  0.3920
  128MOL0     H17245   4.152   9.670   3.736 -0.5787  0.7519  0.0460
  128MOL0     H17246   4.254   9.538   3.930 -0.8125 -0.4237  4.6622
  128MOL0     H17247   4.098   9.503   3.986 -2.4064  2.5437 -0.3177
  128MOL0     H17248   4.220   9.432   3.718 -2.3442  0.4753 -0.4661
  128MOL0     H17249   4.204   9.332   3.871  0.5721  0.8847  1.5530
  128MOL0     H17250   3.966   9.431   3.694 -0.1859 -0.3067  0.2227
  128MOL0     H17251   3.956   9.369   3.850  0.5206 -0.2048 -0.6645
  128MOL0     H17252   4.096   9.151   3.754  0.3105 -0.9827 -3.7490
  128MOL0     H17253   4.030   9.205   3.614  3.7193  0.5003  0.3104
  128MOL0     H17254   3.874   9.135   3.872  1.1160 -0.3438  0.9394
  128MOL0     H17255   3.803   9.229   3.755 -0.0063  1.6386  4.9854
  128MOL0     H17256   3.836   9.073   3.564 -3.2819  1.9628 -0.0106
  128MOL0     H17257   3.730   9.024   3.693 -0.0762  2.0383 -0.4058
  128MOL0     H17258   4.030   8.944   3.691 -0.7335  2.2640 -1.9162
  128MOL0     H17259   3.902   8.884   3.799  2.1460 -0.5877  0.4900
  128MOL0     H17260   4.144   9.980   4.045  3.3384 -3.6982 -1.0344
  128MOL0     H17261   4.034  10.201   3.990 -0.7461 -0.2578  0.8047
  128MOL0     H17262   4.004  10.522   3.422 -2.8169  2.4417 -3.4602
  128MOL0     H17263   3.941  10.743   3.432  3.6588 -0.1387  2.1740
  128MOL0     H17264   4.194  10.034   3.396 -1.1067 -0.0214  3.0416
  128MOL0     H17265   4.093   9.835   3.337 -0.3802  4.0401  1.2779
  128MOL0     H17266   3.824   9.426   3.409 -2.8021 -0.1790 -2.4930
  128MOL0     H17267   3.745   9.207   3.332  1.1582  0.0794  2.8136
  128MOL0     H17268   3.759   8.956   3.293  2.2754 -0.0518  1.7282
  128MOL0     H17269   3.797   8.852   3.155 -1.5232  0.6018  0.1998
  128MOL0     H17270   3.660   9.118   3.117 -2.0440  1.1057 -2.9562
  128MOL0     H17271   3.587   8.958   3.135  2.0360 -2.4844  0.3050
  128MOL0     H17272   3.786   9.050   2.918 -0.6072 -1.8890 -4.3347
  128MOL0     H17273   3.602   9.023   2.903 -0.7446 -2.9925 -0.5221
  128MOL0     H17274   3.827   8.824   2.918 -0.2944 -0.8937 -0.3329
  128MOL0     H17275   3.650   8.777   2.900 -0.6576 -0.8174 -1.5362
  128MOL0     H17276   3.675   8.860   2.513  0.9367  3.4964 -0.0759
  128MOL0     H17277   4.106   9.160   3.090 -0.5168 -0.0179  0.2421
  128MOL0     H17278   4.272   9.298   3.103 -1.3308  0.1079 -0.1435
  128MOL0     H17279   4.210   9.460   3.117  1.6944 -0.5369 -2.3629
  128MOL0     H17280   4.292   9.389   3.264 -0.8086 -0.5788  1.1438
  129MOL0     O17281   8.209   0.304   9.138  0.3187  0.2397 -0.1516
  129MOL0     C17282   8.150   0.328   9.035 -0.4967  1.0103 -0.3206
  129MOL0     O17283   8.020   0.348   9.026 -0.6592  0.1149 -0.2465
  129MOL0     C17284   7.941   0.335   9.141 -0.5302  0.1630 -0.2981
  129MOL0     C17285   7.851   0.437   9.161 -0.4016 -0.2050 -0.1586
  129MOL0     C17286   7.768   0.442   9.271  0.0198  0.6865  1.2129
  129MOL0     C17287   7.758   0.333   9.353  1.0034  0.7600  0.1549
  129MOL0     O17288   7.681   0.341   9.467 -0.1647  0.3794  1.1179
  129MOL0     C17289   7.568   0.263   9.471  0.1319 -0.2387  0.3612
  129MOL0     C17290   7.440   0.346   9.441 -0.3036  0.7032  0.1390
  129MOL0     C17291   7.314   0.264   9.463 -0.0534  0.1515 -0.0004
  129MOL0     C17292   7.195   0.338   9.418  0.2642 -0.4767 -1.0752
  129MOL0     C17293   7.064   0.260   9.435  0.7651 -0.5038  0.5638
  129MOL0     C17294   7.030   0.190   9.570 -0.0416 -0.3580  0.6098
  129MOL0     C17295   6.880   0.134   9.571 -0.7709 -0.2352  0.3967
  129MOL0     C17296   6.761   0.234   9.571 -0.6122  0.5101  0.3562
  129MOL0     N17297   6.698   0.264   9.448  0.4817  0.7510 -0.2634
  129MOL0     C17298   6.629   0.161   9.379  0.2913 -1.0368  0.0229
  129MOL0     C17299   6.603   0.208   9.256 -0.9056  0.0259  0.2394
  129MOL0     C17300   6.513   0.142   9.156  0.2761  0.0176 -0.2624
  129MOL0     C17301   6.430   0.235   9.061  0.1365 -0.5034  0.4184
  129MOL0     C17302   6.508   0.335   8.975  0.6568 -0.5232 -0.3733
  129MOL0     C17303   6.619   0.260   8.898  0.0411  0.8535  0.4278
  129MOL0     O17304   6.668   0.362   8.816  0.1051 -0.3914  0.3965
  129MOL0     C17305   6.804   0.399   8.833  0.2762 -0.5942  0.4761
  129MOL0     C17306   6.863   0.468   8.727 -0.5796 -0.2535 -0.2620
  129MOL0     C17307   6.992   0.518   8.730 -0.6668 -0.6118 -0.1867
  129MOL0     C17308   7.064   0.503   8.853 -0.0171  0.3492 -0.8324
  129MOL0     C17309   7.197   0.562   8.869 -0.5311 -0.2019  0.6391
  129MOL0     O17310   7.274   0.511   8.966 -0.0684 -0.0666 -0.8071
  129MOL0     C17311   7.396   0.562   8.973  0.9045 -0.3749  0.6383
  129MOL0     C17312   7.437   0.636   9.085 -0.8104 -0.9170  1.4458
  129MOL0     C17313   7.571   0.687   9.097 -0.3268 -0.1723  0.8318
  129MOL0     C17314   7.654   0.683   8.988 -0.4111 -0.2109  0.9442
  129MOL0     O17315   7.773   0.749   9.006  0.1271  0.3168  0.6481
  129MOL0     C17316   7.793   0.834   8.894 -0.5649 -0.7791  0.3873
  129MOL0     C17317   7.888   0.949   8.940  0.9907  0.5111  0.8229
  129MOL0     C17318   8.016   0.900   8.987  0.4907 -0.2465  0.5053
  129MOL0     C17319   8.114   0.873   8.880  0.2140 -0.1013  0.1888
  129MOL0     C17320   8.242   0.796   8.927 -0.0637  0.2446 -0.6236
  129MOL0     C17321   8.357   0.793   8.818  0.0610  0.6381 -0.4323
  129MOL0     C17322   8.462   0.683   8.823 -0.2466 -1.1448 -0.0836
  129MOL0     C17323   8.553   0.699   8.939 -0.0046 -0.8101  0.1071
  129MOL0    Cl17324   8.652   0.551   8.976  0.2569  0.2751 -0.0722
  129MOL0     C17325   7.620   0.603   8.884  0.0533 -0.4296  0.3319
  129MOL0     C17326   7.495   0.536   8.869 -0.1288 -0.2145 -0.2109
  129MOL0     O17327   7.228   0.648   8.781  0.7186 -0.1794 -0.0442
  129MOL0     C17328   7.004   0.434   8.955 -0.4067  0.4261  0.5186
  129MOL0     C17329   6.875   0.392   8.957 -0.6667 -0.4499  0.4444
  129MOL0     N17330   6.661   0.340   9.253 -0.1695 -0.7266  0.2327
  129MOL0     N17331   6.722   0.369   9.369 -0.6178  1.1663 -0.1137
  129MOL0     C17332   7.849   0.220   9.335 -0.1664 -0.0196  0.7006
  129MOL0     C17333   7.947   0.221   9.230  0.1830  0.3060 -0.3578
  129MOL0     C17334   8.219   0.335   8.908 -0.3323  1.3550 -0.6366
  129MOL0     C17335   8.159   0.416   8.801 -0.2036 -0.5637  0.5341
  129MOL0     C17336   8.233   0.431   8.686  0.1376 -1.0187  0.5116
  129MOL0     C17337   8.354   0.387   8.666  0.8596  0.2570 -0.2002
  129MOL0     O17338   8.423   0.406   8.546  0.3984 -0.5195 -0.1582
  129MOL0     C17339   8.380   0.309   8.444  0.4025 -0.4464 -0.3817
  129MOL0     C17340   8.415   0.356   8.303 -0.0249 -0.0077 -0.2278
  129MOL0     C17341   8.573   0.362   8.285  1.7709 -0.0860  0.4951
  129MOL0     C17342   8.612   0.373   8.141  1.2942 -0.4976 -0.5870
  129MOL0     C17343   8.742   0.306   8.125 -0.1000 -1.0378  0.2695
  129MOL0     C17344   8.852   0.257   8.110 -0.5163  1.6794  0.1813
  129MOL0     C17345   8.409   0.306   8.768  0.5421 -0.4540  0.7988
  129MOL0     C17346   8.348   0.273   8.889 -0.0466 -0.3482  0.4128
  129MOL0     C17347   8.425   0.193   8.991  0.2359  0.0169  0.0713
  129MOL0     H17348   7.840   0.514   9.085 -2.2250  1.5083  1.6849
  129MOL0     H17349   7.696   0.519   9.297  0.9091  1.3019  1.9304
  129MOL0     H17350   7.569   0.176   9.405  1.2115 -0.7473  1.0443
  129MOL0     H17351   7.568   0.215   9.569  3.6049 -2.5258 -0.6087
  129MOL0     H17352   7.449   0.388   9.341 -4.2576  2.4108  0.3235
  129MOL0     H17353   7.446   0.429   9.513  0.3730  0.5831  0.2278
  129MOL0     H17354   7.295   0.248   9.570  1.7251  2.0781  0.6634
  129MOL0     H17355   7.326   0.165   9.417  0.7555  0.2555 -0.0341
  129MOL0     H17356   7.180   0.424   9.484  3.9391 -0.5673  0.1003
  129MOL0     H17357   7.224   0.384   9.323  5.4652  1.0104  0.8798
  129MOL0     H17358   6.977   0.325   9.424  1.6083  0.7533  1.0490
  129MOL0     H17359   7.067   0.185   9.355 -1.7893 -0.4004  0.2890
  129MOL0     H17360   7.106   0.112   9.580  2.5216  1.6853 -1.2561
  129MOL0     H17361   7.046   0.256   9.656  1.0633  0.5262 -0.2359
  129MOL0     H17362   6.874   0.071   9.661  0.3014 -0.1997  0.5053
  129MOL0     H17363   6.862   0.070   9.485  0.3401 -1.4636  1.0354
  129MOL0     H17364   6.688   0.190   9.640 -0.9993 -0.5269 -0.6982
  129MOL0     H17365   6.799   0.322   9.625 -2.3503  0.4867  1.7263
  129MOL0     H17366   6.600   0.068   9.426 -1.2355 -0.0450  1.1291
  129MOL0     H17367   6.583   0.084   9.093 -0.9644  1.1313 -2.8216
  129MOL0     H17368   6.449   0.072   9.209  2.6953 -3.5661 -1.6325
  129MOL0     H17369   6.372   0.178   8.988  0.1118  0.2046 -0.1353
  129MOL0     H17370   6.359   0.294   9.119 -0.4758  0.6107 -1.3880
  129MOL0     H17371   6.543   0.429   9.018 -3.7949  1.6969 -0.9903
  129MOL0     H17372   6.429   0.382   8.916  1.1092 -0.1765 -0.7059
  129MOL0     H17373   6.583   0.184   8.828 -0.4532 -1.2580  2.7969
  129MOL0     H17374   6.693   0.208   8.961 -0.1457 -0.0007 -0.0418
  129MOL0     H17375   6.814   0.505   8.638  0.7835  1.9370 -0.1757
  129MOL0     H17376   7.030   0.580   8.649  3.1278 -1.0914  1.0172
  129MOL0     H17377   7.367   0.659   9.164 -1.3278  0.9552  0.5052
  129MOL0     H17378   7.606   0.734   9.188  0.3011  0.4768  0.2596
  129MOL0     H17379   7.832   0.779   8.808 -0.2631  0.0559 -0.0266
  129MOL0     H17380   7.703   0.885   8.858  1.2873  0.0364 -3.6724
  129MOL0     H17381   7.912   1.004   8.848  1.8547  0.3769  0.9629
  129MOL0     H17382   7.835   1.014   9.010  2.6396  1.2667  1.4176
  129MOL0     H17383   8.061   0.981   9.046 -0.1631  0.8257 -0.4197
  129MOL0     H17384   8.010   0.812   9.051 -1.6558 -1.3157 -1.0360
  129MOL0     H17385   8.154   0.967   8.840 -1.0169  0.9537  1.3633
  129MOL0     H17386   8.074   0.812   8.799  2.1941 -1.8123  0.3946
  129MOL0     H17387   8.215   0.695   8.959  0.1795  0.6081  0.7755
  129MOL0     H17388   8.276   0.859   9.009 -0.9881  1.5440 -1.2102
  129MOL0     H17389   8.299   0.778   8.727 -1.3225  0.9302  0.3690
  129MOL0     H17390   8.412   0.887   8.832  2.7800 -0.8599 -0.3503
  129MOL0     H17391   8.509   0.700   8.726 -0.1997  2.2208  0.4107
  129MOL0     H17392   8.420   0.582   8.821 -1.1884 -0.7533 -0.9919
  129MOL0     H17393   8.616   0.786   8.916  0.8725 -1.3989  0.2245
  129MOL0     H17394   8.507   0.713   9.037  0.9795 -1.7890  0.7301
  129MOL0     H17395   7.696   0.587   8.808  3.0876 -1.8564  3.4037
  129MOL0     H17396   7.463   0.475   8.786 -0.6158  1.3523 -1.2142
  129MOL0     H17397   7.065   0.426   9.045  1.2202 -0.8979 -0.6320
  129MOL0     H17398   6.830   0.353   9.047 -2.9606 -1.5540 -1.0788
  129MOL0     H17399   7.856   0.148   9.415 -2.8582  1.6265  2.5997
  129MOL0     H17400   8.016   0.138   9.231 -2.1062 -1.7152  0.3285
  129MOL0     H17401   8.071   0.476   8.818  0.6202  0.5216  1.0796
  129MOL0     H17402   8.197   0.503   8.613  1.3825  1.4045  2.1282
  129MOL0     H17403   8.273   0.284   8.447  0.6454 -2.0436 -2.8020
  129MOL0     H17404   8.433   0.215   8.457  1.7644  0.2609 -0.6308
  129MOL0     H17405   8.383   0.458   8.283  0.0868 -0.2644 -1.8299
  129MOL0     H17406   8.367   0.299   8.224 -1.9022  1.4886 -0.2386
  129MOL0     H17407   8.607   0.262   8.311  2.8808  0.6476  2.0709
  129MOL0     H17408   8.623   0.442   8.342  1.4469 -0.5360  1.4351
  129MOL0     H17409   8.535   0.317   8.087 -3.9807  3.2804  2.1240
  129MOL0     H17410   8.609   0.478   8.114 -0.8549 -0.1257  0.8783
  129MOL0     H17411   8.946   0.205   8.104 -0.9862  0.5840  1.7062
  129MOL0     H17412   8.508   0.263   8.768  0.3558 -0.9226 -0.7735
  129MOL0     H17413   8.518   0.150   8.953 -0.5099 -3.1210  1.4511
  129MOL0     H17414   8.449   0.260   9.075  1.4268  1.4438 -1.3521
  129MOL0     H17415   8.354   0.123   9.035  0.9217  0.3756  1.8448
  130MOL0     O17416   5.596   7.695  10.076 -0.7419 -0.4860  0.5086
  130MOL0     C17417   5.676   7.652   9.993  0.3715  0.2482 -0.3119
  130MOL0     O17418   5.699   7.701   9.865  0.2257  0.3014 -0.8355
  130MOL0     C17419   5.668   7.833   9.840  0.4825  0.4211  0.3110
  130MOL0     C17420   5.645   7.864   9.701 -0.2668  0.9000  0.6824
  130MOL0     C17421   5.611   7.993   9.657  0.7941 -0.0584 -0.5153
  130MOL0     C17422   5.581   8.086   9.761 -0.2626  0.2760 -0.0425
  130MOL0     O17423   5.517   8.209   9.739  0.1571  0.6813 -0.1966
  130MOL0     C17424   5.471   8.229   9.601  0.6224 -0.3505 -0.0454
  130MOL0     C17425   5.379   8.356   9.599  0.6106  0.9489 -0.5307
  130MOL0     C17426   5.242   8.344   9.669  0.0297  0.1159 -0.2809
  130MOL0     C17427   5.147   8.228   9.614  0.2304 -0.4573 -0.3058
  130MOL0     C17428   5.103   8.226   9.464  0.2392 -0.0821 -0.4610
  130MOL0     C17429   4.985   8.126   9.448  0.0162 -1.0250  0.2038
  130MOL0     C17430   4.893   8.166   9.325 -0.0293  0.0939  0.2344
  130MOL0     C17431   4.964   8.189   9.190 -0.3002 -0.2000 -0.0030
  130MOL0     N17432   4.858   8.195   9.084 -0.0518 -0.1412  0.1877
  130MOL0     C17433   4.822   8.102   8.992  0.3241  0.1672 -0.7713
  130MOL0     C17434   4.741   8.169   8.914  0.5585 -0.6806 -0.0481
  130MOL0     C17435   4.683   8.100   8.792  0.4700  0.3194 -0.2302
  130MOL0     C17436   4.734   8.170   8.653  0.2785  1.0672 -0.4542
  130MOL0     C17437   4.689   8.091   8.526 -0.2944  0.1914  0.3465
  130MOL0     C17438   4.739   7.947   8.519  0.2232 -0.8517  0.0438
  130MOL0     O17439   4.872   7.933   8.556 -0.3674  0.4983  0.0907
  130MOL0     C17440   4.907   7.801   8.582 -0.1019 -0.3807  0.8468
  130MOL0     C17441   4.827   7.686   8.612  1.0223  0.3619  0.6737
  130MOL0     C17442   4.875   7.553   8.620 -0.5574 -0.1194 -0.4379
  130MOL0     C17443   5.011   7.527   8.602 -0.2462 -0.4153 -0.2516
  130MOL0     C17444   5.064   7.382   8.589 -0.7396 -0.3784  0.9877
  130MOL0     O17445   4.963   7.297   8.558  0.3455 -0.3810 -0.3720
  130MOL0     C17446   4.983   7.161   8.538 -0.5481  0.5805  0.3506
  130MOL0     C17447   5.077   7.085   8.599  0.3165 -0.6898  0.4904
  130MOL0     C17448   5.085   6.952   8.566 -0.9899 -0.6996  0.3311
  130MOL0     C17449   5.012   6.883   8.480  0.5805 -0.0629  0.9613
  130MOL0     O17450   5.045   6.750   8.449  0.4684 -0.4134  1.0362
  130MOL0     C17451   4.947   6.663   8.391 -0.2128 -0.4471  0.4652
  130MOL0     C17452   5.019   6.527   8.379  0.8820  0.4044 -0.6422
  130MOL0     C17453   4.919   6.423   8.324  0.4291  0.0251  0.5282
  130MOL0     C17454   4.976   6.298   8.263 -0.3920  0.5021  0.3744
  130MOL0     C17455   4.872   6.188   8.218 -0.5727 -0.4180  0.3723
  130MOL0     C17456   4.941   6.074   8.146 -0.1881  0.0685 -0.2905
  130MOL0     C17457   5.036   5.985   8.230  0.7409  0.2229  0.2224
  130MOL0     C17458   5.148   5.914   8.149  0.3975 -0.4781  0.0493
  130MOL0    Cl17459   5.078   5.791   8.030  0.3558  0.1351 -0.2028
  130MOL0     C17460   4.904   6.961   8.417 -0.5579  0.2741 -0.7704
  130MOL0     C17461   4.892   7.100   8.447 -0.4352 -0.2745  0.8566
  130MOL0     O17462   5.174   7.362   8.611 -0.4886 -0.0447  0.1877
  130MOL0     C17463   5.096   7.637   8.567  0.6264  0.0583 -0.4967
  130MOL0     C17464   5.047   7.772   8.570 -0.1675  0.4258  0.3170
  130MOL0     N17465   4.715   8.298   8.955 -0.7642  0.5171  0.3548
  130MOL0     N17466   4.798   8.316   9.054  1.4674  0.2090  0.4796
  130MOL0     C17467   5.626   8.064   9.892 -0.2556  0.2188 -0.0210
  130MOL0     C17468   5.673   7.938   9.934 -0.2309 -1.0517 -0.1127
  130MOL0     C17469   5.768   7.537  10.020  0.0287  0.3921 -0.9604
  130MOL0     C17470   5.813   7.454   9.914 -0.2569 -0.2942  0.1021
  130MOL0     C17471   5.905   7.352   9.930 -0.4095 -0.6022  0.0020
  130MOL0     C17472   5.953   7.325  10.057 -0.0956 -0.8714 -0.0292
  130MOL0     O17473   6.049   7.225  10.056  0.2432  0.3876  0.3977
  130MOL0     C17474   6.127   7.211  10.165 -0.5832 -0.2955 -0.9451
  130MOL0     C17475   6.259   7.136  10.136 -0.9012  1.1031 -0.2910
  130MOL0     C17476   6.341   7.189  10.017  0.7491  0.5600  0.8535
  130MOL0     C17477   6.448   7.081   9.972  0.3645 -0.8384  1.1830
  130MOL0     C17478   6.558   7.072  10.073  0.4293 -0.4598  0.6287
  130MOL0     C17479   6.641   7.034  10.156  0.4389 -0.4695  0.6358
  130MOL0     C17480   5.913   7.403  10.162 -0.0052 -0.0511 -0.2577
  130MOL0     C17481   5.829   7.514  10.147 -0.1662  0.2306  0.1044
  130MOL0     C17482   5.792   7.586  10.268 -0.3480  0.1950 -0.0042
  130MOL0     H17483   5.655   7.776   9.638  1.0368  0.5597  1.3195
  130MOL0     H17484   5.584   8.020   9.556  0.3440  3.6779  0.4607
  130MOL0     H17485   5.550   8.242   9.526  1.9646  0.0198  1.3699
  130MOL0     H17486   5.402   8.151   9.569  3.8507 -2.5533 -2.3253
  130MOL0     H17487   5.363   8.392   9.497  1.5583  1.1645 -0.6157
  130MOL0     H17488   5.440   8.427   9.656  1.6668 -3.2463  4.3686
  130MOL0     H17489   5.191   8.440   9.675 -0.3555 -0.0840 -0.2917
  130MOL0     H17490   5.268   8.316   9.772 -0.6744 -2.5492 -0.7382
  130MOL0     H17491   5.196   8.131   9.632 -1.0401 -1.0499  0.0352
  130MOL0     H17492   5.063   8.233   9.684 -0.2729 -2.0486 -0.7590
  130MOL0     H17493   5.075   8.329   9.440 -2.2582 -1.1668 -2.6413
  130MOL0     H17494   5.188   8.198   9.402 -0.3101 -2.9688 -0.0277
  130MOL0     H17495   5.024   8.027   9.423 -1.2054 -0.8725 -2.7726
  130MOL0     H17496   4.920   8.145   9.534  1.7961 -0.3896  1.4684
  130MOL0     H17497   4.840   8.257   9.354 -1.3892 -0.1512 -1.3572
  130MOL0     H17498   4.808   8.101   9.304  0.2850  0.7618 -3.7303
  130MOL0     H17499   5.019   8.283   9.191 -0.9132  0.1680 -0.0750
  130MOL0     H17500   5.028   8.103   9.168 -2.2544 -1.9062  0.6226
  130MOL0     H17501   4.846   7.999   8.972 -0.8909  0.3374 -3.5542
  130MOL0     H17502   4.702   7.992   8.796 -0.6448  0.1328  0.5497
  130MOL0     H17503   4.574   8.102   8.797  0.5070  0.6507  4.2979
  130MOL0     H17504   4.687   8.267   8.668  1.6473  1.5783  0.7766
  130MOL0     H17505   4.840   8.196   8.659  0.1465  1.3650  0.9181
  130MOL0     H17506   4.730   8.150   8.443  1.9782  2.5668  2.9440
  130MOL0     H17507   4.581   8.084   8.513 -0.6694 -1.1177  3.2949
  130MOL0     H17508   4.718   7.909   8.418 -1.2036 -1.5478  0.5746
  130MOL0     H17509   4.671   7.900   8.590 -0.6782  0.5425  0.1421
  130MOL0     H17510   4.724   7.696   8.646  0.6311 -2.9378  0.7780
  130MOL0     H17511   4.814   7.471   8.655  1.0143 -2.2103 -2.3123
  130MOL0     H17512   5.157   7.123   8.662  0.4261  2.5057 -1.3546
  130MOL0     H17513   5.168   6.900   8.614  1.5224  1.3249 -1.5349
  130MOL0     H17514   4.853   6.660   8.447 -0.3459 -2.5209  0.2203
  130MOL0     H17515   4.930   6.700   8.289 -0.1367 -1.2466  0.1540
  130MOL0     H17516   5.111   6.545   8.323  1.4567  0.5890  0.3460
  130MOL0     H17517   5.042   6.495   8.481 -1.5119 -0.0281 -0.1844
  130MOL0     H17518   4.862   6.394   8.413 -1.1325  0.9555 -0.1353
  130MOL0     H17519   4.849   6.473   8.257 -0.4079 -0.1697  1.2432
  130MOL0     H17520   5.040   6.261   8.344  0.5148  1.7671  0.2777
  130MOL0     H17521   5.042   6.327   8.181  0.1015  0.3895  0.7276
  130MOL0     H17522   4.793   6.232   8.158 -1.4062 -1.0571  0.9842
  130MOL0     H17523   4.824   6.147   8.308  0.0216 -0.5821  0.6214
  130MOL0     H17524   4.863   6.007   8.107 -0.0640 -0.2179 -0.0450
  130MOL0     H17525   5.007   6.113   8.068  3.8170 -3.5544  0.9300
  130MOL0     H17526   4.984   5.910   8.290 -0.4767  2.6805  2.4561
  130MOL0     H17527   5.083   6.053   8.301  2.3782 -0.1210 -0.4948
  130MOL0     H17528   5.206   5.979   8.084  1.3074 -2.2722 -1.0279
  130MOL0     H17529   5.224   5.868   8.213  1.9655 -1.0746 -2.1075
  130MOL0     H17530   4.832   6.908   8.356 -2.7057  3.1605 -0.9550
  130MOL0     H17531   4.820   7.157   8.389 -1.0944 -2.0005 -0.1035
  130MOL0     H17532   5.199   7.610   8.548  0.1172 -1.9896 -0.5985
  130MOL0     H17533   5.121   7.849   8.546  1.4444 -1.3266 -0.5704
  130MOL0     H17534   5.621   8.153   9.954  0.7757  0.2208  0.0883
  130MOL0     H17535   5.703   7.938  10.039 -0.3645  2.0433  0.0140
  130MOL0     H17536   5.787   7.492   9.815 -1.4054 -0.5774  0.2789
  130MOL0     H17537   5.943   7.315   9.835 -1.8806 -2.4722  0.0814
  130MOL0     H17538   6.085   7.141  10.237  0.7408 -2.3270 -2.0677
  130MOL0     H17539   6.154   7.310  10.204 -1.8981  0.3358 -1.5988
  130MOL0     H17540   6.225   7.033  10.119 -0.7049  1.0634 -0.4499
  130MOL0     H17541   6.319   7.131  10.227  1.8790  0.0173 -2.0258
  130MOL0     H17542   6.380   7.289  10.035  0.1227  1.0538 -0.4169
  130MOL0     H17543   6.275   7.205   9.931 -0.5332  1.7413  2.0362
  130MOL0     H17544   6.396   6.986   9.959  0.5400 -0.5923 -2.0848
  130MOL0     H17545   6.484   7.118   9.876 -1.8731  1.1783  1.0102
  130MOL0     H17546   6.719   6.996  10.218  4.1345  1.7459 -2.2493
  130MOL0     H17547   5.938   7.385  10.266 -0.5805  1.8875  0.2607
  130MOL0     H17548   5.694   7.557  10.308 -0.5487 -0.6377 -1.0511
  130MOL0     H17549   5.864   7.549  10.342 -0.0290  0.6925 -0.0705
  130MOL0     H17550   5.806   7.690  10.237 -1.6992  1.7173  3.8813
  131MOL0     O17551   5.944   1.027  10.949  0.2895 -0.9804 -0.8224
  131MOL0     C17552   6.017   1.005  11.044 -0.6423  0.1586 -0.6375
  131MOL0     O17553   6.094   1.094  11.113  0.6720  0.6044  0.4705
  131MOL0     C17554   6.096   1.223  11.079 -0.5087 -0.1162 -0.8048
  131MOL0     C17555   6.116   1.314  11.186 -0.2125  0.2338  0.0667
  131MOL0     C17556   6.142   1.444  11.150  0.6693 -0.1848 -0.2659
  131MOL0     C17557   6.151   1.489  11.017 -0.3685  0.3445 -0.7452
  131MOL0     O17558   6.162   1.620  10.981 -0.1701  0.5368 -0.0684
  131MOL0     C17559   6.035   1.687  11.011  0.0364  0.9234  0.0164
  131MOL0     C17560   5.931   1.689  10.894 -0.3436 -0.2571  0.2669
  131MOL0     C17561   5.922   1.817  10.802 -0.6131 -0.9632 -0.5817
  131MOL0     C17562   5.808   1.811  10.698  0.3648 -0.0777 -0.0209
  131MOL0     C17563   5.809   1.937  10.612  0.0627 -0.9109 -0.5490
  131MOL0     C17564   5.721   2.041  10.679  0.2285 -0.7398  0.2002
  131MOL0     C17565   5.760   2.175  10.632  0.3008 -0.3709 -0.0955
  131MOL0     C17566   5.659   2.277  10.693  0.9652  0.0402  0.3272
  131MOL0     N17567   5.694   2.416  10.680  0.0555 -0.1572  0.6240
  131MOL0     C17568   5.707   2.476  10.559  0.3190  0.0898 -0.0341
  131MOL0     C17569   5.805   2.568  10.577  0.0068  0.2793 -0.1138
  131MOL0     C17570   5.834   2.677  10.469 -0.4811 -0.0784 -0.4597
  131MOL0     C17571   5.962   2.644  10.393 -0.8760 -0.5024  0.4435
  131MOL0     C17572   5.981   2.743  10.279  0.6549 -0.1611  0.1765
  131MOL0     C17573   6.076   2.684  10.177  0.3763 -0.3555  0.1056
  131MOL0     O17574   6.206   2.642  10.228 -0.3553  0.6442  0.1861
  131MOL0     C17575   6.294   2.601  10.132  0.3070 -0.7587  0.2133
  131MOL0     C17576   6.366   2.702  10.067 -0.2587 -0.0812  0.6662
  131MOL0     C17577   6.451   2.672   9.964 -1.2202  0.1832 -0.2681
  131MOL0     C17578   6.465   2.537   9.919  0.2078  0.3388 -0.5706
  131MOL0     C17579   6.562   2.497   9.822 -0.6468  0.7609  0.6236
  131MOL0     O17580   6.636   2.596   9.772  0.3598 -0.6992  0.4569
  131MOL0     C17581   6.744   2.560   9.694 -0.5387 -0.3037  0.7867
  131MOL0     C17582   6.760   2.615   9.566 -0.4231 -0.9267 -0.3761
  131MOL0     C17583   6.878   2.594   9.483  0.2591 -0.2854  0.4603
  131MOL0     C17584   6.977   2.506   9.531 -0.8625  0.5687 -0.6874
  131MOL0     O17585   7.089   2.481   9.458  0.2642 -0.9159  0.1881
  131MOL0     C17586   7.091   2.351   9.410 -0.1559  0.0460  0.3279
  131MOL0     C17587   7.223   2.331   9.338 -0.2860  1.2026  0.6869
  131MOL0     C17588   7.254   2.179   9.316 -0.2863 -0.8248 -0.4479
  131MOL0     C17589   7.153   2.128   9.212  0.3540  0.8060 -0.7102
  131MOL0     C17590   7.198   1.991   9.159 -0.3927  1.2966 -0.1138
  131MOL0     C17591   7.083   1.907   9.097  0.7574  0.3054 -0.0668
  131MOL0     C17592   7.126   1.771   9.051 -0.2889 -1.4901  0.1183
  131MOL0     C17593   7.014   1.680   8.990 -0.7472  0.1720  0.5059
  131MOL0    Cl17594   7.097   1.532   8.921 -0.5811  0.0128  0.0974
  131MOL0     C17595   6.944   2.432   9.651  0.3554 -0.3301 -0.9003
  131MOL0     C17596   6.840   2.472   9.736 -1.1770 -0.4334  0.2768
  131MOL0     O17597   6.578   2.375   9.791  0.2051  0.5550 -0.1628
  131MOL0     C17598   6.404   2.439   9.994 -0.4869 -0.2527  0.8310
  131MOL0     C17599   6.319   2.472  10.110  1.4365 -0.0907  0.8709
  131MOL0     N17600   5.847   2.554  10.714 -0.2717 -0.7527 -0.3542
  131MOL0     N17601   5.784   2.464  10.768 -0.8320  0.1983 -0.9416
  131MOL0     C17602   6.126   1.404  10.910 -0.8659  0.2019  0.3970
  131MOL0     C17603   6.099   1.274  10.943 -0.2612 -0.1242  0.6509
  131MOL0     C17604   6.026   0.864  11.087  0.7647 -1.0582 -0.0252
  131MOL0     C17605   6.140   0.825  11.154 -0.0905  0.7491  0.1851
  131MOL0     C17606   6.160   0.692  11.198  0.3737  0.1282  0.8556
  131MOL0     C17607   6.064   0.592  11.183 -0.0441 -0.6785  1.2299
  131MOL0     O17608   6.101   0.476  11.238 -0.6936 -0.0894 -0.0483
  131MOL0     C17609   6.005   0.405  11.300 -0.1943 -0.2919  0.4316
  131MOL0     C17610   6.060   0.304  11.391 -0.1730  1.2453  0.7955
  131MOL0     C17611   6.132   0.359  11.508  0.6255  0.1445 -0.5008
  131MOL0     C17612   6.266   0.432  11.481 -0.6847 -0.1742 -0.0168
  131MOL0     C17613   6.317   0.471  11.611 -0.7449  0.8514  0.4974
  131MOL0     C17614   6.366   0.503  11.712  0.0660 -0.8623  0.5406
  131MOL0     C17615   5.941   0.634  11.131 -0.0839  0.5173  0.8429
  131MOL0     C17616   5.923   0.767  11.079 -0.0177 -0.5127  0.6232
  131MOL0     C17617   5.788   0.788  11.006  0.9446 -0.1804  0.4779
  131MOL0     H17618   6.106   1.288  11.291  1.5407 -0.3117  0.1301
  131MOL0     H17619   6.158   1.511  11.234 -0.6081 -3.7761  3.2116
  131MOL0     H17620   5.994   1.629  11.094  1.6921  2.1613  1.7808
  131MOL0     H17621   6.041   1.787  11.054 -3.2716  1.4184 -0.4407
  131MOL0     H17622   5.833   1.686  10.941 -1.3113 -0.8526 -1.6750
  131MOL0     H17623   5.948   1.604  10.828  2.5208  1.7176 -1.8052
  131MOL0     H17624   6.019   1.833  10.754  0.8529 -1.9709  1.8247
  131MOL0     H17625   5.919   1.904  10.868  4.0693 -0.8527 -0.1863
  131MOL0     H17626   5.821   1.730  10.626  0.2204 -0.1619  0.0471
  131MOL0     H17627   5.716   1.797  10.756  0.0455  0.1449 -0.4656
  131MOL0     H17628   5.916   1.957  10.599  0.5906 -3.5790 -1.0781
  131MOL0     H17629   5.769   1.925  10.510 -1.1814 -0.8444 -0.0815
  131MOL0     H17630   5.615   2.027  10.654  0.6559 -0.6219 -1.8306
  131MOL0     H17631   5.730   2.027  10.787  0.8576 -2.5007 -0.0447
  131MOL0     H17632   5.749   2.176  10.523 -2.9465 -1.6076  0.1095
  131MOL0     H17633   5.864   2.186  10.665  0.9189 -2.9116 -0.9521
  131MOL0     H17634   5.568   2.240  10.645  1.9460 -0.7919 -0.9510
  131MOL0     H17635   5.637   2.254  10.798  1.8078  1.9321  0.9809
  131MOL0     H17636   5.660   2.452  10.464  2.6185  1.3315 -1.5752
  131MOL0     H17637   5.751   2.693  10.399  0.3025  1.1475 -1.1487
  131MOL0     H17638   5.834   2.770  10.527 -0.6132 -2.9746  4.7338
  131MOL0     H17639   6.046   2.653  10.462  0.0576 -1.6499 -0.4848
  131MOL0     H17640   5.970   2.542  10.354  2.5046  0.4368 -1.8908
  131MOL0     H17641   6.012   2.839  10.322  0.2411  1.1441 -2.2551
  131MOL0     H17642   5.894   2.763  10.216  0.9526 -0.5321 -0.3597
  131MOL0     H17643   6.076   2.747  10.087 -2.2630 -1.4914 -0.7996
  131MOL0     H17644   6.030   2.596  10.130 -2.0044  1.6772 -1.6165
  131MOL0     H17645   6.351   2.807  10.091  0.5179  0.7295 -2.0319
  131MOL0     H17646   6.497   2.749   9.903 -0.2729 -2.4407 -3.1313
  131MOL0     H17647   6.692   2.687   9.521 -1.6011 -0.9784  1.2148
  131MOL0     H17648   6.880   2.640   9.385 -1.3019  1.6941  1.2935
  131MOL0     H17649   7.080   2.278   9.490 -0.4549 -0.0193  0.2264
  131MOL0     H17650   7.021   2.331   9.329  0.1650  3.2228 -0.8717
  131MOL0     H17651   7.225   2.386   9.243 -0.2190 -0.4985 -0.3357
  131MOL0     H17652   7.305   2.374   9.396  0.4983 -0.4189  0.8197
  131MOL0     H17653   7.349   2.167   9.262  0.3977 -1.8652  0.9460
  131MOL0     H17654   7.248   2.114   9.403 -1.2139 -0.6032 -0.3424
  131MOL0     H17655   7.125   2.200   9.134  0.8127  2.5502  0.6671
  131MOL0     H17656   7.057   2.119   9.263  1.1509 -3.3210  0.3929
  131MOL0     H17657   7.248   1.938   9.241  0.6330  4.4825  1.4848
  131MOL0     H17658   7.272   1.999   9.078 -1.7902  0.8172 -1.4761
  131MOL0     H17659   6.998   1.896   9.165  0.5985 -1.1988 -0.4841
  131MOL0     H17660   7.057   1.965   9.008  0.6724  1.2229  0.5418
  131MOL0     H17661   7.172   1.733   9.143  2.6097  1.9759  0.3572
  131MOL0     H17662   7.206   1.777   8.976 -0.3535 -0.1848  0.1291
  131MOL0     H17663   6.948   1.638   9.066  1.2659  1.1355  2.9226
  131MOL0     H17664   6.965   1.733   8.908  1.8701 -3.5252 -3.9454
  131MOL0     H17665   7.019   2.364   9.690 -0.8985  0.5089  3.5318
  131MOL0     H17666   6.834   2.430   9.836 -1.3476  0.6429  0.7300
  131MOL0     H17667   6.424   2.334   9.974  0.8070 -0.0127  0.7756
  131MOL0     H17668   6.263   2.401  10.170 -1.9590  1.7009  0.0285
  131MOL0     H17669   6.129   1.448  10.811  1.3398  2.9231  1.5327
  131MOL0     H17670   6.077   1.205  10.863  1.7675  0.0758 -0.1254
  131MOL0     H17671   6.225   0.891  11.166  1.0543 -0.6563  0.1421
  131MOL0     H17672   6.255   0.668  11.244  0.2901  0.6316  1.3042
  131MOL0     H17673   5.944   0.355  11.224 -2.2374  1.2652  0.9505
  131MOL0     H17674   5.946   0.473  11.362  0.3192  2.1483 -1.6048
  131MOL0     H17675   6.115   0.233  11.328 -1.4250  0.3110  0.7197
  131MOL0     H17676   5.976   0.245  11.430  0.3649  0.1289  0.3039
  131MOL0     H17677   6.153   0.283  11.584  2.0795  1.5297  0.5294
  131MOL0     H17678   6.064   0.429  11.558  2.1149  0.8609  0.5721
  131MOL0     H17679   6.348   0.369  11.448  0.0289  0.5665  0.2984
  131MOL0     H17680   6.259   0.524  11.421 -0.5885 -0.5758 -0.6515
  131MOL0     H17681   6.421   0.526  11.801 -1.2780 -0.3374  1.2622
  131MOL0     H17682   5.857   0.565  11.129  1.6051 -1.6042  0.1584
  131MOL0     H17683   5.800   0.823  10.903  0.9908 -1.3851  0.0654
  131MOL0     H17684   5.725   0.699  11.002 -0.8558  1.0187  0.4755
  131MOL0     H17685   5.719   0.859  11.054  1.6806 -0.0554  1.3878
  132MOL0     O17686  11.129   1.606   0.691  0.6011  1.1055 -0.8624
  132MOL0     C17687  11.096   1.557   0.581 -0.7300  0.8264  0.2309
  132MOL0     O17688  11.012   1.609   0.487 -0.0881 -0.1723  0.3134
  132MOL0     C17689  10.938   1.723   0.511  0.0822 -0.2064 -0.6799
  132MOL0     C17690  10.892   1.785   0.404 -0.4020 -0.7038 -0.6097
  132MOL0     C17691  10.809   1.903   0.416  0.1229 -0.2912 -0.7118
  132MOL0     C17692  10.783   1.954   0.544  0.8778 -0.8436  0.6246
  132MOL0     O17693  10.703   2.062   0.550  0.0188 -0.0795  0.2042
  132MOL0     C17694  10.754   2.191   0.494  0.4955  0.6191 -0.5017
  132MOL0     C17695  10.700   2.300   0.569 -0.0045  0.2270  0.6420
  132MOL0     C17696  10.723   2.277   0.718  0.4515  0.5728 -0.2105
  132MOL0     C17697  10.691   2.398   0.800  0.1651  0.1423 -0.1970
  132MOL0     C17698  10.726   2.380   0.949 -0.8666 -0.0460 -0.4135
  132MOL0     C17699  10.666   2.508   1.013 -0.8501  0.4801  0.1852
  132MOL0     C17700  10.689   2.495   1.169  0.2004 -0.5203 -0.1085
  132MOL0     C17701  10.596   2.581   1.254 -0.1250  0.4291  0.0259
  132MOL0     N17702  10.647   2.614   1.387  0.0259  0.4244 -0.5102
  132MOL0     C17703  10.730   2.532   1.475  0.6898  1.2352 -0.1958
  132MOL0     C17704  10.792   2.607   1.563 -0.5430  0.4510 -0.4980
  132MOL0     C17705  10.888   2.543   1.673  0.7371  0.1036 -0.5481
  132MOL0     C17706  10.797   2.485   1.782  0.4908 -0.4049 -0.2492
  132MOL0     C17707  10.882   2.405   1.881 -0.0574 -0.5221  0.2171
  132MOL0     C17708  10.802   2.340   1.996 -0.0577  0.3908  0.3622
  132MOL0     O17709  10.729   2.232   1.942  0.1664  0.1601  0.5769
  132MOL0     C17710  10.646   2.161   2.028 -1.0272  0.0553  0.1038
  132MOL0     C17711  10.590   2.050   1.973 -0.2131  0.0723  0.0270
  132MOL0     C17712  10.518   1.964   2.054 -0.8484  0.5626  0.4479
  132MOL0     C17713  10.477   1.994   2.184  0.8342 -0.1626 -0.0178
  132MOL0     C17714  10.391   1.906   2.258 -0.3904  0.4560 -0.6988
  132MOL0     O17715  10.344   1.793   2.204  0.5050 -0.0899 -0.3087
  132MOL0     C17716  10.248   1.721   2.279 -0.1481  0.0637  0.0297
  132MOL0     C17717  10.127   1.777   2.311  0.5341 -0.3390 -0.5585
  132MOL0     C17718  10.039   1.697   2.370  0.2533  0.3561 -0.6456
  132MOL0     C17719  10.060   1.564   2.411 -0.7958 -0.5371 -0.1131
  132MOL0     O17720   9.974   1.478   2.472 -0.0864 -0.2526 -0.0811
  132MOL0     C17721   9.864   1.547   2.524 -0.4332  0.7378  0.2220
  132MOL0     C17722   9.775   1.451   2.614 -0.1045 -0.0445  0.6445
  132MOL0     C17723   9.684   1.540   2.696  1.1653 -0.4131 -0.2047
  132MOL0     C17724   9.651   1.496   2.839  0.3500  0.5999  0.7091
  132MOL0     C17725   9.582   1.609   2.916  1.1004  0.7002 -0.1508
  132MOL0     C17726   9.547   1.555   3.060  0.4665  0.3815  1.7723
  132MOL0     C17727   9.444   1.650   3.124 -0.7336 -0.7044  0.0640
  132MOL0     C17728   9.472   1.660   3.271 -0.5203  0.1636  0.1650
  132MOL0    Cl17729   9.625   1.750   3.295  0.0347 -0.5475 -0.0265
  132MOL0     C17730  10.189   1.509   2.362  0.8144 -0.7778 -0.6851
  132MOL0     C17731  10.285   1.591   2.295  0.2203  0.3597 -0.1757
  132MOL0     O17732  10.369   1.940   2.383  0.3287 -0.3638 -0.2753
  132MOL0     C17733  10.530   2.109   2.236 -0.2844  0.2526 -0.4603
  132MOL0     C17734  10.616   2.194   2.160  0.5630  0.1772 -0.3796
  132MOL0     N17735  10.761   2.737   1.533  0.1112  0.3349  0.0525
  132MOL0     N17736  10.675   2.746   1.436  1.1543 -1.0672  0.3317
  132MOL0     C17737  10.827   1.877   0.651  0.5076 -1.1063 -0.5701
  132MOL0     C17738  10.891   1.763   0.643 -0.7346  0.6712 -0.5242
  132MOL0     C17739  11.151   1.423   0.547 -0.1068 -0.9113  0.5236
  132MOL0     C17740  11.286   1.414   0.567 -0.7340  0.4757  0.5848
  132MOL0     C17741  11.359   1.302   0.516  0.0677 -0.5800 -0.6006
  132MOL0     C17742  11.292   1.194   0.460 -0.0825  0.5202  0.6340
  132MOL0     O17743  11.350   1.076   0.417 -0.1153  0.2460  1.2782
  132MOL0     C17744  11.317   1.006   0.291  0.8417  0.6560  0.3099
  132MOL0     C17745  11.241   0.878   0.324 -0.1370 -1.0730  0.3859
  132MOL0     C17746  11.237   0.792   0.203  0.2648 -0.1162  1.2774
  132MOL0     C17747  11.159   0.664   0.225 -0.8821 -0.0979  1.0022
  132MOL0     C17748  11.202   0.584   0.341 -0.2997  0.4888 -0.8474
  132MOL0     C17749  11.249   0.511   0.428  0.0845  0.0019 -0.1067
  132MOL0     C17750  11.152   1.212   0.431  0.7000 -0.0196  0.1078
  132MOL0     C17751  11.082   1.321   0.479 -0.2593  1.0593  0.2597
  132MOL0     C17752  10.933   1.333   0.447  0.7553 -0.5898  0.2957
  132MOL0     H17753  10.923   1.744   0.308  0.7337 -3.4334  0.8230
  132MOL0     H17754  10.772   1.968   0.337 -0.3063 -1.4641 -1.4948
  132MOL0     H17755  10.863   2.192   0.500  0.5014 -0.1282 -0.2779
  132MOL0     H17756  10.731   2.191   0.388 -1.5009 -0.5964 -0.1226
  132MOL0     H17757  10.593   2.305   0.548  0.0487 -0.6426  0.1071
  132MOL0     H17758  10.741   2.392   0.529  1.1222 -1.0073 -1.1752
  132MOL0     H17759  10.829   2.253   0.730  0.6554 -0.1697 -2.8635
  132MOL0     H17760  10.653   2.204   0.758 -0.2608  1.7170  0.6856
  132MOL0     H17761  10.744   2.487   0.766 -1.6871  1.7442  0.9326
  132MOL0     H17762  10.590   2.427   0.770  0.1600 -0.0016 -0.3242
  132MOL0     H17763  10.677   2.294   0.995  2.0957 -2.4715 -1.4755
  132MOL0     H17764  10.833   2.381   0.972 -1.2121  2.3735  1.6017
  132MOL0     H17765  10.707   2.602   0.975  1.5784  0.0470  1.5038
  132MOL0     H17766  10.558   2.506   0.996 -0.9385 -2.7442  0.4887
  132MOL0     H17767  10.793   2.524   1.187  0.7558  0.4274 -4.0452
  132MOL0     H17768  10.665   2.389   1.184 -0.2791 -0.6681 -1.7494
  132MOL0     H17769  10.584   2.672   1.195  4.5861  1.1262 -0.2004
  132MOL0     H17770  10.503   2.525   1.266 -0.4761  1.2741  1.5278
  132MOL0     H17771  10.740   2.424   1.472  2.8276  1.3815 -3.1364
  132MOL0     H17772  10.952   2.470   1.623  2.0245  0.8124  0.0104
  132MOL0     H17773  10.945   2.629   1.710 -2.1745  1.6903  0.5885
  132MOL0     H17774  10.746   2.571   1.825 -2.3349 -2.2915  0.4617
  132MOL0     H17775  10.716   2.431   1.732  0.2832  0.9038 -1.3996
  132MOL0     H17776  10.944   2.487   1.919 -0.4503  0.9545 -2.1011
  132MOL0     H17777  10.939   2.340   1.813  1.3676 -0.7718  1.5747
  132MOL0     H17778  10.745   2.420   2.045 -0.5878 -0.5733  1.3775
  132MOL0     H17779  10.880   2.298   2.061  0.7548 -0.4747 -1.1233
  132MOL0     H17780  10.628   2.032   1.873  2.7011  0.7631  0.9184
  132MOL0     H17781  10.487   1.875   2.000 -2.2759  1.9719 -1.1694
  132MOL0     H17782  10.110   1.881   2.285  1.7519 -0.1964 -0.8376
  132MOL0     H17783   9.942   1.747   2.378  1.3950  2.4525  1.1268
  132MOL0     H17784   9.899   1.632   2.583 -1.9469  1.0918  0.6598
  132MOL0     H17785   9.802   1.586   2.443  1.1693 -2.7556 -2.9680
  132MOL0     H17786   9.713   1.379   2.560 -0.4569 -2.2112  3.7144
  132MOL0     H17787   9.843   1.390   2.674  1.1726 -1.6022 -2.1783
  132MOL0     H17788   9.725   1.642   2.696 -0.8726  0.4949 -2.3414
  132MOL0     H17789   9.592   1.557   2.639  0.1039  3.1726  2.2077
  132MOL0     H17790   9.742   1.474   2.895  0.9900  4.8371  1.6778
  132MOL0     H17791   9.595   1.402   2.836 -0.9250  1.3527 -1.1611
  132MOL0     H17792   9.489   1.620   2.858  1.3338  0.1180 -0.6449
  132MOL0     H17793   9.636   1.703   2.919  0.4112  1.1429 -1.1419
  132MOL0     H17794   9.498   1.457   3.054 -0.2390  0.7331  1.6767
  132MOL0     H17795   9.636   1.545   3.122  0.8209 -0.6334  1.1120
  132MOL0     H17796   9.343   1.617   3.099 -0.6161 -0.3180 -0.9854
  132MOL0     H17797   9.443   1.752   3.084  0.2572 -0.1894  1.2777
  132MOL0     H17798   9.387   1.692   3.332 -0.2031 -1.4689  1.5361
  132MOL0     H17799   9.499   1.562   3.312  4.4469  1.3547  0.3549
  132MOL0     H17800  10.211   1.403   2.371 -2.5737 -1.6308 -1.2763
  132MOL0     H17801  10.379   1.549   2.259 -0.5546  0.0256 -1.9027
  132MOL0     H17802  10.504   2.156   2.330 -0.2652 -1.3168  0.3576
  132MOL0     H17803  10.656   2.284   2.205  1.3792  0.1941 -1.1111
  132MOL0     H17804  10.786   1.915   0.744  0.1976  1.6351 -1.7221
  132MOL0     H17805  10.920   1.708   0.732 -3.0942 -0.2932 -0.2759
  132MOL0     H17806  11.337   1.499   0.612 -0.1182  0.9057 -0.8837
  132MOL0     H17807  11.467   1.295   0.523  0.2234  2.5915  2.6212
  132MOL0     H17808  11.407   0.985   0.233  0.0417 -2.4048  0.0315
  132MOL0     H17809  11.249   1.068   0.231 -0.9172  0.2642  1.7917
  132MOL0     H17810  11.137   0.904   0.347 -0.4787  0.4448 -2.4027
  132MOL0     H17811  11.299   0.834   0.405  0.5487 -0.0874  0.4416
  132MOL0     H17812  11.342   0.786   0.173  0.3910  4.6576 -0.0794
  132MOL0     H17813  11.191   0.845   0.118  0.7375  1.3090  1.8785
  132MOL0     H17814  11.053   0.692   0.234 -2.1971 -0.8074 -6.3069
  132MOL0     H17815  11.159   0.610   0.130  0.9873  0.9840  0.3337
  132MOL0     H17816  11.292   0.442   0.497  1.8582 -1.2429 -2.3120
  132MOL0     H17817  11.088   1.143   0.377  2.0241 -2.4256  1.4786
  132MOL0     H17818  10.890   1.234   0.461  2.9741 -1.5575  0.6232
  132MOL0     H17819  10.874   1.400   0.510 -2.1992 -2.1218 -0.6801
  132MOL0     H17820  10.922   1.343   0.338 -1.0334  1.4745  0.6010
  133MOL0     O17821   1.889   3.758   9.379  0.4869  0.1280  0.7656
  133MOL0     C17822   1.952   3.665   9.317  0.3161 -0.3879  0.6102
  133MOL0     O17823   2.079   3.684   9.275  0.4826  0.2158  1.9601
  133MOL0     C17824   2.126   3.811   9.274 -0.3275  0.4871  0.0092
  133MOL0     C17825   2.179   3.854   9.396  0.5877  0.3255  0.3931
  133MOL0     C17826   2.240   3.982   9.397 -0.0321  0.2596  0.1113
  133MOL0     C17827   2.242   4.061   9.281 -0.0292 -0.4183  1.3484
  133MOL0     O17828   2.305   4.178   9.295  0.3196  0.2081 -1.4239
  133MOL0     C17829   2.222   4.284   9.243  0.0480 -0.2201  0.2070
  133MOL0     C17830   2.267   4.417   9.310 -0.1604 -0.1265  0.1851
  133MOL0     C17831   2.252   4.428   9.461 -0.1115  0.0189  0.1878
  133MOL0     C17832   2.102   4.460   9.483 -0.9648 -0.2696 -1.0206
  133MOL0     C17833   2.078   4.497   9.629  0.6204 -0.2155  0.1067
  133MOL0     C17834   2.095   4.387   9.727 -0.0909 -0.1602  0.5657
  133MOL0     C17835   2.030   4.425   9.870 -0.2355 -0.2203  0.9257
  133MOL0     C17836   1.878   4.438   9.883 -0.5266 -0.0995  0.3489
  133MOL0     N17837   1.817   4.565   9.918  0.5714  0.7959 -0.3998
  133MOL0     C17838   1.780   4.599  10.046  0.1640 -0.0021 -0.6200
  133MOL0     C17839   1.749   4.728  10.035 -0.3588  0.3020  0.3167
  133MOL0     C17840   1.709   4.813  10.153 -0.2220 -0.6633  0.6236
  133MOL0     C17841   1.589   4.767  10.227 -0.4972 -1.0172 -0.2514
  133MOL0     C17842   1.550   4.877  10.328  0.5969 -0.8312  0.1630
  133MOL0     C17843   1.457   4.818  10.437  0.9068 -0.9803  0.9217
  133MOL0     O17844   1.399   4.914  10.519 -0.0524  0.9793 -0.6090
  133MOL0     C17845   1.317   4.875  10.615 -0.8348 -0.3194 -0.0976
  133MOL0     C17846   1.287   4.974  10.708  0.6213 -0.2098 -1.2562
  133MOL0     C17847   1.209   4.962  10.816  0.8352 -0.1668 -0.2252
  133MOL0     C17848   1.154   4.836  10.855 -0.7430 -0.4176 -0.6292
  133MOL0     C17849   1.061   4.830  10.970  0.4617  0.3516  0.0843
  133MOL0     O17850   1.012   4.946  11.016 -0.3515  0.0268 -0.2259
  133MOL0     C17851   0.954   4.958  11.146  0.7423  0.2488  0.8326
  133MOL0     C17852   0.989   5.068  11.232  0.1792  0.1994 -0.1845
  133MOL0     C17853   0.929   5.078  11.361 -0.2765  0.1769  0.4289
  133MOL0     C17854   0.823   4.988  11.400 -1.0133  0.0064 -0.1987
  133MOL0     O17855   0.757   5.002  11.510  0.1428  0.6201 -0.0343
  133MOL0     C17856   0.666   5.106  11.514  0.5995  0.0814 -0.8306
  133MOL0     C17857   0.621   5.128  11.659  0.7653 -0.4846 -0.3357
  133MOL0     C17858   0.531   5.255  11.675 -0.0930  0.5511  0.0687
  133MOL0     C17859   0.410   5.266  11.575  0.8424  0.1025 -0.3002
  133MOL0     C17860   0.330   5.396  11.578  0.3082  0.2855 -0.1578
  133MOL0     C17861   0.388   5.516  11.494 -0.3006 -0.0641  0.3743
  133MOL0     C17862   0.291   5.633  11.496  0.1395  0.2748 -0.0819
  133MOL0     C17863   0.331   5.742  11.404 -0.3552 -0.2218  0.5806
  133MOL0    Cl17864   0.363   5.682  11.241 -0.0041 -0.1713 -0.4229
  133MOL0     C17865   0.780   4.887  11.306 -1.0535  0.8268  1.0659
  133MOL0     C17866   0.848   4.872  11.185  0.6621  0.1215  0.1765
  133MOL0     O17867   1.037   4.719  11.021 -0.2956  0.2412 -0.8725
  133MOL0     C17868   1.191   4.728  10.765  0.6464 -0.2137 -0.3885
  133MOL0     C17869   1.256   4.754  10.642  0.5284  0.0545 -0.1636
  133MOL0     N17870   1.763   4.774   9.907 -0.4657  0.2241 -0.5627
  133MOL0     N17871   1.810   4.674   9.842 -0.3790 -0.1320  0.2319
  133MOL0     C17872   2.182   4.015   9.164 -0.4656  0.3280 -0.0458
  133MOL0     C17873   2.135   3.886   9.162 -0.7624  1.1702  0.6694
  133MOL0     C17874   1.901   3.523   9.316  0.3496  0.1928 -0.1049
  133MOL0     C17875   1.997   3.423   9.327 -0.3266  1.0538 -0.0830
  133MOL0     C17876   1.963   3.286   9.336 -1.3561  0.1560  0.5900
  133MOL0     C17877   1.829   3.242   9.315 -0.0217 -0.6868 -0.5953
  133MOL0     O17878   1.791   3.112   9.290 -1.1358  0.1730 -0.3112
  133MOL0     C17879   1.877   2.999   9.312 -0.4309 -0.9835  0.1486
  133MOL0     C17880   1.789   2.887   9.368 -0.4043  0.4979 -0.1663
  133MOL0     C17881   1.860   2.802   9.466  1.1647 -0.8088 -0.0361
  133MOL0     C17882   1.782   2.679   9.523 -0.3216  0.5701 -0.2365
  133MOL0     C17883   1.875   2.578   9.574  0.2345  0.1968 -0.1745
  133MOL0     C17884   1.960   2.508   9.609  0.5736  0.8321 -0.5684
  133MOL0     C17885   1.733   3.357   9.303 -0.1139 -0.4386 -0.4117
  133MOL0     C17886   1.764   3.490   9.325  0.6042 -0.5430 -0.5727
  133MOL0     C17887   1.653   3.590   9.303  0.3430  0.3203  0.8042
  133MOL0     H17888   2.191   3.789   9.481 -3.0000  0.2195  1.0007
  133MOL0     H17889   2.288   4.021   9.487 -0.6613 -3.1189  2.0877
  133MOL0     H17890   2.220   4.287   9.134  0.4141 -1.2088  0.1621
  133MOL0     H17891   2.122   4.256   9.280  0.7493 -1.4407  1.2669
  133MOL0     H17892   2.228   4.504   9.257  0.1807 -1.2187 -1.9440
  133MOL0     H17893   2.375   4.414   9.291 -0.2440  1.3622 -0.5975
  133MOL0     H17894   2.317   4.507   9.500  3.0232 -1.0059 -2.5354
  133MOL0     H17895   2.277   4.334   9.510  1.5748 -0.3287 -1.2645
  133MOL0     H17896   2.065   4.545   9.425  0.2652  0.9853 -0.0232
  133MOL0     H17897   2.043   4.371   9.456 -2.4721  0.8713 -1.6182
  133MOL0     H17898   2.137   4.584   9.660 -1.4248  0.6447  1.8064
  133MOL0     H17899   1.973   4.526   9.634  0.4816  0.1448 -2.9376
  133MOL0     H17900   2.042   4.300   9.687 -0.9024  2.0519 -3.7747
  133MOL0     H17901   2.199   4.354   9.727  0.3667  1.0702 -1.5582
  133MOL0     H17902   2.076   4.521   9.895  1.5425 -0.8521  0.2554
  133MOL0     H17903   2.070   4.350   9.939  1.3026  1.5849  2.0775
  133MOL0     H17904   1.839   4.417   9.783 -2.0654  2.2802  0.3751
  133MOL0     H17905   1.844   4.357   9.948  0.4811 -0.2848  0.6682
  133MOL0     H17906   1.765   4.530  10.128 -0.7471  1.7796  0.7688
  133MOL0     H17907   1.795   4.820  10.220 -0.7128 -0.1305  1.2123
  133MOL0     H17908   1.693   4.917  10.122  0.4774 -0.6949  0.1351
  133MOL0     H17909   1.498   4.755  10.167 -1.4898 -0.5175  1.1159
  133MOL0     H17910   1.620   4.679  10.283  2.0819  1.3281  2.2830
  133MOL0     H17911   1.497   4.963  10.286 -0.1640  1.4464  5.1003
  133MOL0     H17912   1.643   4.911  10.375 -0.0258 -0.0917  0.9040
  133MOL0     H17913   1.516   4.744  10.493  0.9096 -1.0492  0.8271
  133MOL0     H17914   1.383   4.765  10.376 -0.1184  0.8400  0.5071
  133MOL0     H17915   1.340   5.068  10.695  1.2607 -0.6213 -1.7454
  133MOL0     H17916   1.184   5.048  10.878  0.2990  0.1626 -0.8818
  133MOL0     H17917   1.058   5.144  11.198 -1.0409 -0.0832 -3.6269
  133MOL0     H17918   0.971   5.161  11.418  2.2242  0.3845 -1.5201
  133MOL0     H17919   0.715   5.191  11.467 -2.2412  2.8701  0.8133
  133MOL0     H17920   0.578   5.083  11.453 -0.0294 -0.0511  0.1065
  133MOL0     H17921   0.551   5.052  11.695 -0.4130  1.9067  2.9511
  133MOL0     H17922   0.701   5.140  11.734  1.1185 -0.0875 -0.7676
  133MOL0     H17923   0.497   5.257  11.779  0.2707 -6.3817  0.8160
  133MOL0     H17924   0.597   5.342  11.664  0.8185 -0.3379 -2.1561
  133MOL0     H17925   0.335   5.192  11.603  0.2229  0.5877 -0.6408
  133MOL0     H17926   0.438   5.252  11.470 -1.6208  0.1018 -1.0120
  133MOL0     H17927   0.320   5.420  11.685  0.1151 -2.0021  0.3848
  133MOL0     H17928   0.225   5.379  11.553  0.4310  0.3580 -0.7196
  133MOL0     H17929   0.488   5.557  11.512 -0.1811 -0.6100  0.9784
  133MOL0     H17930   0.390   5.480  11.391  0.8582 -1.1688  0.7633
  133MOL0     H17931   0.278   5.679  11.595 -0.4687 -0.4176  0.1750
  133MOL0     H17932   0.198   5.593  11.455 -0.0031 -0.8899  1.2779
  133MOL0     H17933   0.259   5.821  11.380  0.7609  0.5086 -0.4816
  133MOL0     H17934   0.412   5.802  11.447 -0.4283  0.3606 -0.0740
  133MOL0     H17935   0.697   4.818  11.315 -0.1134 -0.3574  0.9883
  133MOL0     H17936   0.816   4.801  11.109 -1.5525 -0.0010  1.1422
  133MOL0     H17937   1.161   4.625  10.782 -1.1378  0.2297 -0.5990
  133MOL0     H17938   1.275   4.667  10.580  1.6206 -0.8806  1.4011
  133MOL0     H17939   2.185   4.070   9.071 -1.4367 -1.9417 -1.4947
  133MOL0     H17940   2.093   3.859   9.066  4.1466  4.0409 -2.7702
  133MOL0     H17941   2.105   3.433   9.327  0.2196 -2.0641  4.0664
  133MOL0     H17942   2.043   3.212   9.337  1.0794  2.6231  1.2754
  133MOL0     H17943   1.961   3.022   9.379 -2.9700  2.3291  2.5274
  133MOL0     H17944   1.926   2.969   9.219 -1.4100  1.2014 -1.1535
  133MOL0     H17945   1.761   2.817   9.288  1.1139 -0.3397  0.0052
  133MOL0     H17946   1.694   2.928   9.404 -2.4526 -3.4725 -0.4653
  133MOL0     H17947   1.866   2.865   9.555 -1.2174  0.0502 -0.3994
  133MOL0     H17948   1.958   2.783   9.421  2.4998  0.2714  2.2211
  133MOL0     H17949   1.709   2.711   9.597 -0.9406  1.0815 -1.0502
  133MOL0     H17950   1.726   2.625   9.446 -1.4622  2.0937 -0.5082
  133MOL0     H17951   2.033   2.434   9.637  1.3455  1.6822 -0.2718
  133MOL0     H17952   1.630   3.333   9.281 -0.5222  1.0080 -0.1720
  133MOL0     H17953   1.560   3.544   9.269  0.6063  0.3515  0.0019
  133MOL0     H17954   1.630   3.639   9.398  0.0814  1.3787  0.2170
  133MOL0     H17955   1.681   3.667   9.230 -0.7315  2.0134  2.0983
  134MOL0     O17956   3.409   8.642   9.718  0.0793 -0.3194 -0.1974
  134MOL0     C17957   3.393   8.605   9.833 -0.3626  0.3237  0.6780
  134MOL0     O17958   3.447   8.490   9.872 -0.3126  0.5816  0.2762
  134MOL0     C17959   3.451   8.389   9.779  1.1377  0.6156  0.0934
  134MOL0     C17960   3.565   8.317   9.761 -0.3986  0.3815 -0.2125
  134MOL0     C17961   3.570   8.201   9.679  0.6961  0.5173  0.2424
  134MOL0     C17962   3.444   8.163   9.613 -0.0796 -0.3308 -0.2640
  134MOL0     O17963   3.446   8.050   9.541  0.1110 -0.4658 -1.1640
  134MOL0     C17964   3.455   7.933   9.623  0.1738  0.5166 -0.1263
  134MOL0     C17965   3.392   7.821   9.527  0.4966 -0.4733 -0.1629
  134MOL0     C17966   3.241   7.812   9.545 -0.3939  0.0223 -0.5040
  134MOL0     C17967   3.205   7.734   9.675 -0.9693  0.2021  0.5167
  134MOL0     C17968   3.077   7.785   9.740 -0.5064  0.9832 -0.6221
  134MOL0     C17969   2.943   7.755   9.678  0.1052 -0.2467 -0.2200
  134MOL0     C17970   2.924   7.774   9.519  0.2301 -0.3027 -0.6022
  134MOL0     C17971   2.779   7.740   9.494  0.4564  0.1164  0.0127
  134MOL0     N17972   2.719   7.792   9.367  0.7501 -0.3173  0.2427
  134MOL0     C17973   2.682   7.921   9.346 -0.3523  0.0818  0.5204
  134MOL0     C17974   2.603   7.928   9.238  0.3643  0.8464  0.3365
  134MOL0     C17975   2.539   8.041   9.167  0.6418  0.4351  0.1545
  134MOL0     C17976   2.586   8.187   9.213  0.4699  0.4289  0.2471
  134MOL0     C17977   2.512   8.296   9.145 -0.1145  0.0666 -0.3585
  134MOL0     C17978   2.584   8.357   9.026 -0.0007 -0.3204  0.7693
  134MOL0     O17979   2.611   8.269   8.916  0.1074  0.1661  0.2242
  134MOL0     C17980   2.576   8.311   8.785 -0.3450  0.1238  0.3513
  134MOL0     C17981   2.508   8.428   8.742 -0.2845  1.3102 -0.9669
  134MOL0     C17982   2.503   8.452   8.605 -0.0872  0.1028 -0.0959
  134MOL0     C17983   2.554   8.355   8.509  0.5723 -0.1558 -0.5796
  134MOL0     C17984   2.532   8.384   8.360  0.1400  0.0647  0.1316
  134MOL0     O17985   2.580   8.288   8.278 -0.4331 -0.2423 -0.3874
  134MOL0     C17986   2.586   8.330   8.150 -0.3469 -0.1823 -0.2131
  134MOL0     C17987   2.462   8.351   8.072 -0.4820 -0.2259 -0.1774
  134MOL0     C17988   2.477   8.384   7.936  0.3625  0.8933 -0.0600
  134MOL0     C17989   2.609   8.402   7.884  0.4584 -0.6157  0.2742
  134MOL0     O17990   2.615   8.453   7.754  0.3043 -0.0809 -0.7767
  134MOL0     C17991   2.681   8.586   7.747 -0.2958  0.2049  1.5335
  134MOL0     C17992   2.810   8.570   7.673 -0.1850 -0.3538 -0.1932
  134MOL0     C17993   2.815   8.536   7.523 -0.7400  0.4558  0.0539
  134MOL0     C17994   2.721   8.426   7.489 -0.3554  0.3438  0.9515
  134MOL0     C17995   2.734   8.400   7.339  0.2980 -0.7884  0.0714
  134MOL0     C17996   2.722   8.513   7.242 -0.4458 -1.1024 -0.0559
  134MOL0     C17997   2.591   8.582   7.234  0.1428 -0.0775 -0.1960
  134MOL0     C17998   2.473   8.491   7.206  0.5401  0.4834 -0.3615
  134MOL0    Cl17999   2.489   8.402   7.049 -0.2883 -0.3021 -0.2873
  134MOL0     C18000   2.727   8.383   7.971  0.3702 -0.0619 -0.3526
  134MOL0     C18001   2.714   8.336   8.092  0.7213 -0.5421  0.0490
  134MOL0     O18002   2.444   8.465   8.331  0.2029 -0.4552 -0.3703
  134MOL0     C18003   2.597   8.234   8.557  0.8200  1.2803 -0.4518
  134MOL0     C18004   2.623   8.218   8.690  0.4444 -0.0822  0.5122
  134MOL0     N18005   2.599   7.799   9.181  0.4065  0.1961  0.5757
  134MOL0     N18006   2.666   7.722   9.265  0.6597 -0.0201 -0.2128
  134MOL0     C18007   3.328   8.245   9.628 -0.7547  0.6711  0.3917
  134MOL0     C18008   3.332   8.350   9.725  0.0569  1.0237  1.0696
  134MOL0     C18009   3.363   8.701   9.940  0.5837 -0.2210 -0.5151
  134MOL0     C18010   3.474   8.785   9.986  0.0553  0.5967  0.5584
  134MOL0     C18011   3.468   8.861  10.106  0.5141  0.2107 -0.1650
  134MOL0     C18012   3.354   8.846  10.180  0.1066 -0.6437 -0.9087
  134MOL0     O18013   3.361   8.903  10.300 -0.0985  0.4162 -0.6219
  134MOL0     C18014   3.247   8.910  10.386  0.7984  0.0877  0.1867
  134MOL0     C18015   3.256   9.048  10.451 -0.0237  0.3067  0.7675
  134MOL0     C18016   3.135   9.092  10.516  0.4719 -0.0120 -0.0330
  134MOL0     C18017   3.143   9.246  10.549  0.6759 -0.5946  0.1962
  134MOL0     C18018   3.249   9.275  10.636 -0.2294 -0.0560 -0.0793
  134MOL0     C18019   3.321   9.324  10.716  0.6582 -1.8243 -0.4278
  134MOL0     C18020   3.236   8.783  10.133 -0.0223  0.0812  0.6373
  134MOL0     C18021   3.244   8.703  10.014  0.7121  0.4970 -0.0244
  134MOL0     C18022   3.121   8.616   9.991 -0.2233  0.0167 -0.5417
  134MOL0     H18023   3.659   8.348   9.805  1.0574 -0.3798 -2.5693
  134MOL0     H18024   3.663   8.149   9.662  0.3117 -0.9444  2.2464
  134MOL0     H18025   3.561   7.921   9.648  0.1603  0.4067 -0.1189
  134MOL0     H18026   3.401   7.940   9.718 -0.8362 -2.2106 -0.4115
  134MOL0     H18027   3.437   7.729   9.566  1.6815  0.0239 -0.3029
  134MOL0     H18028   3.426   7.830   9.424 -0.4279  0.0112 -0.4416
  134MOL0     H18029   3.198   7.759   9.460 -0.9096 -0.3302 -0.0295
  134MOL0     H18030   3.190   7.909   9.550 -3.1384 -1.3061  4.3980
  134MOL0     H18031   3.197   7.626   9.658 -3.4128 -0.0691  2.7275
  134MOL0     H18032   3.284   7.768   9.743  0.7563  2.0530 -2.2085
  134MOL0     H18033   3.079   7.733   9.836 -2.4697  1.0423 -0.4959
  134MOL0     H18034   3.093   7.892   9.760  1.5289  0.4439  0.8580
  134MOL0     H18035   2.935   7.647   9.695  0.3605 -0.7840 -3.0174
  134MOL0     H18036   2.861   7.802   9.733  0.8815 -0.6996  1.3800
  134MOL0     H18037   2.989   7.710   9.459 -1.1137 -2.0125 -0.3122
  134MOL0     H18038   2.946   7.879   9.496  0.9368 -1.1482 -4.4363
  134MOL0     H18039   2.772   7.630   9.494  0.5714  0.0978  0.8778
  134MOL0     H18040   2.713   7.781   9.572 -1.0747 -0.9040 -0.6806
  134MOL0     H18041   2.727   7.996   9.411  1.6824  1.0569 -1.8667
  134MOL0     H18042   2.532   8.030   9.058 -0.0270  0.3850  0.1980
  134MOL0     H18043   2.435   8.041   9.199  0.9197 -1.3975  1.1837
  134MOL0     H18044   2.561   8.191   9.320 -1.7012 -1.6407 -0.1087
  134MOL0     H18045   2.694   8.194   9.198  0.7675 -2.1057  0.6419
  134MOL0     H18046   2.510   8.383   9.212  1.0628  0.4914 -0.8558
  134MOL0     H18047   2.410   8.261   9.123 -0.1999 -1.5101  2.1528
  134MOL0     H18048   2.682   8.394   9.056  0.2360  1.9881 -2.3340
  134MOL0     H18049   2.533   8.447   8.990 -0.2387 -0.3771  0.9620
  134MOL0     H18050   2.477   8.494   8.822  0.3835 -0.5371  0.8984
  134MOL0     H18051   2.451   8.540   8.571  2.8873  2.1012  0.1849
  134MOL0     H18052   2.368   8.340   8.125 -0.3921  2.0593  0.5716
  134MOL0     H18053   2.388   8.391   7.875  0.0973 -0.0796  0.1954
  134MOL0     H18054   2.624   8.667   7.701 -1.3801 -2.2956 -1.8868
  134MOL0     H18055   2.708   8.617   7.849  0.7812 -2.5530  2.1924
  134MOL0     H18056   2.858   8.668   7.678  0.2915 -0.4280 -2.2966
  134MOL0     H18057   2.874   8.491   7.715  0.3560  1.4162  2.6049
  134MOL0     H18058   2.782   8.630   7.476 -1.0973 -0.7496 -2.2795
  134MOL0     H18059   2.918   8.511   7.495 -1.0480  0.4605 -1.1770
  134MOL0     H18060   2.615   8.449   7.495 -0.7734 -0.1879 -2.3789
  134MOL0     H18061   2.748   8.337   7.545 -4.5440 -1.8760 -0.1823
  134MOL0     H18062   2.656   8.328   7.311  0.2396 -0.2294 -1.3014
  134MOL0     H18063   2.828   8.348   7.320 -0.6719 -2.1518 -1.3470
  134MOL0     H18064   2.798   8.588   7.262 -1.8318  0.1547  0.7386
  134MOL0     H18065   2.738   8.472   7.142 -3.1058 -0.4362 -0.8402
  134MOL0     H18066   2.601   8.658   7.156  0.4468  1.0319  0.8979
  134MOL0     H18067   2.580   8.642   7.325  1.6638 -3.0357  2.0830
  134MOL0     H18068   2.455   8.418   7.286 -4.0320  2.5595  0.8573
  134MOL0     H18069   2.386   8.558   7.211 -0.3581 -0.7212  4.0413
  134MOL0     H18070   2.830   8.401   7.941  2.2916  1.3603  5.7102
  134MOL0     H18071   2.806   8.322   8.148  0.3100  1.5331  1.3877
  134MOL0     H18072   2.625   8.158   8.486  1.4941 -1.0031  2.0829
  134MOL0     H18073   2.674   8.130   8.727 -0.5387 -0.8051  0.1913
  134MOL0     H18074   3.237   8.226   9.572  0.0256  2.2156 -1.5106
  134MOL0     H18075   3.236   8.393   9.752 -0.9659 -1.1328  1.0223
  134MOL0     H18076   3.563   8.780   9.924 -1.3958  0.0680 -1.5970
  134MOL0     H18077   3.556   8.907  10.150  0.7073  0.9884 -1.3182
  134MOL0     H18078   3.238   8.829  10.459 -4.9213 -0.8532 -1.0605
  134MOL0     H18079   3.151   8.905  10.332  2.4237 -1.7028 -2.7851
  134MOL0     H18080   3.284   9.124  10.377  2.0192 -1.7524 -0.6900
  134MOL0     H18081   3.346   9.047  10.512  0.1722 -0.0904  0.4725
  134MOL0     H18082   3.133   9.031  10.607 -2.7704 -0.8269 -0.5310
  134MOL0     H18083   3.044   9.070  10.459 -1.7923  1.5376  2.7180
  134MOL0     H18084   3.147   9.311  10.460  2.1532 -0.6914  0.1541
  134MOL0     H18085   3.053   9.270  10.606 -0.9752 -3.1829 -1.1419
  134MOL0     H18086   3.388   9.360  10.792 -0.4537  1.5574 -0.8869
  134MOL0     H18087   3.141   8.783  10.186 -0.2694 -0.3197  0.2023
  134MOL0     H18088   3.111   8.588   9.885 -3.5652 -2.4918  0.2673
  134MOL0     H18089   3.131   8.518  10.038 -1.7984 -1.2434 -2.6780
  134MOL0     H18090   3.024   8.655  10.020 -0.9496 -1.8615 -0.3176
  135MOL0     O18091   2.859   9.370   8.052 -0.4420  0.2474 -0.2713
  135MOL0     C18092   2.957   9.398   8.130 -0.6456  0.0634 -0.4253
  135MOL0     O18093   3.086   9.388   8.099 -0.5905 -0.4838  0.0264
  135MOL0     C18094   3.127   9.363   7.977 -0.3860  0.8817 -0.5666
  135MOL0     C18095   3.156   9.469   7.893 -0.3757 -0.1351  0.8688
  135MOL0     C18096   3.186   9.441   7.759  0.1776  0.9011  0.0313
  135MOL0     C18097   3.198   9.315   7.707  0.0692  0.1464  0.0987
  135MOL0     O18098   3.250   9.291   7.580 -0.3466 -0.2336  0.5567
  135MOL0     C18099   3.280   9.403   7.492 -0.8106  1.1099 -0.1337
  135MOL0     C18100   3.359   9.364   7.372 -0.0259 -0.0500 -0.0502
  135MOL0     C18101   3.475   9.272   7.396  0.0805 -0.1042 -0.0923
  135MOL0     C18102   3.537   9.233   7.261 -0.3191  0.3621 -0.2230
  135MOL0     C18103   3.650   9.130   7.293 -0.1993  0.1766  0.5253
  135MOL0     C18104   3.599   8.982   7.287 -0.3418 -0.4948  0.1891
  135MOL0     C18105   3.709   8.872   7.338  1.0529 -0.7455 -0.5522
  135MOL0     C18106   3.825   8.855   7.242 -0.2230 -0.1491  2.0541
  135MOL0     N18107   3.782   8.763   7.137 -0.8199 -0.3998  0.5955
  135MOL0     C18108   3.773   8.800   7.005  0.3134  0.6237 -0.3418
  135MOL0     C18109   3.735   8.691   6.942  0.1650  0.2770 -0.7606
  135MOL0     C18110   3.705   8.688   6.794  0.0366  0.5886 -0.1460
  135MOL0     C18111   3.838   8.696   6.714 -0.8380  0.1157 -0.2702
  135MOL0     C18112   3.842   8.611   6.584 -0.5858 -0.2533 -0.3259
  135MOL0     C18113   3.989   8.607   6.536 -0.1889  0.5341  0.2554
  135MOL0     O18114   3.998   8.514   6.428 -0.2584  0.3455 -0.0111
  135MOL0     C18115   3.973   8.381   6.457 -0.3556 -0.5374  0.1155
  135MOL0     C18116   3.991   8.298   6.346  0.7602  0.4391 -0.5359
  135MOL0     C18117   3.965   8.159   6.355 -0.1343  0.3404 -1.3454
  135MOL0     C18118   3.950   8.097   6.478  0.0223 -0.2508  0.7555
  135MOL0     C18119   3.914   7.957   6.490 -0.5270 -0.6164  0.7692
  135MOL0     O18120   3.931   7.892   6.601  0.7358 -0.1811 -0.8719
  135MOL0     C18121   3.871   7.763   6.605  0.1690  0.2643  0.0626
  135MOL0     C18122   3.740   7.722   6.563 -0.5012  0.6149  0.5363
  135MOL0     C18123   3.690   7.594   6.587 -0.3842 -0.3446 -0.6169
  135MOL0     C18124   3.763   7.503   6.658 -0.4551 -0.4518 -0.4424
  135MOL0     O18125   3.723   7.375   6.687  0.0517 -0.1346 -0.3427
  135MOL0     C18126   3.633   7.309   6.597 -0.8119  0.2571  0.3495
  135MOL0     C18127   3.579   7.189   6.673  0.5284 -0.9214  0.3331
  135MOL0     C18128   3.472   7.108   6.590 -0.7168 -0.1990  0.5726
  135MOL0     C18129   3.420   7.001   6.688 -0.1448 -0.1211 -0.1417
  135MOL0     C18130   3.316   7.054   6.796 -0.7696 -0.0114 -0.4896
  135MOL0     C18131   3.268   6.931   6.868 -0.6822  0.4933  0.2843
  135MOL0     C18132   3.152   6.947   6.966  0.4567 -0.2315 -0.3875
  135MOL0     C18133   3.182   7.010   7.105  0.0210  0.2110 -0.6253
  135MOL0    Cl18134   3.224   6.886   7.222  0.3057 -0.2708  0.3500
  135MOL0     C18135   3.893   7.540   6.700  0.8425  0.7783  0.2082
  135MOL0     C18136   3.953   7.671   6.678 -0.2784  0.3989 -0.3376
  135MOL0     O18137   3.897   7.902   6.381  0.2747 -0.1554 -0.4365
  135MOL0     C18138   3.946   8.184   6.584 -0.4165  0.3314 -0.1819
  135MOL0     C18139   3.952   8.321   6.582  0.3917  0.4342  0.3633
  135MOL0     N18140   3.708   8.595   7.034  0.3183 -0.1756  0.5657
  135MOL0     N18141   3.741   8.638   7.150  0.9214  0.7140 -0.2716
  135MOL0     C18142   3.181   9.203   7.796  0.7568  0.0064  1.3917
  135MOL0     C18143   3.145   9.235   7.928 -0.0053  0.3374 -0.5708
  135MOL0     C18144   2.942   9.482   8.244 -0.1633  0.5053 -0.6630
  135MOL0     C18145   3.018   9.604   8.266 -0.3348 -0.7264 -0.1185
  135MOL0     C18146   2.991   9.688   8.382 -0.5644  0.1564  0.8419
  135MOL0     C18147   2.883   9.662   8.469 -0.6815 -0.6543  0.7573
  135MOL0     O18148   2.846   9.736   8.581  0.3201  0.3683  0.7534
  135MOL0     C18149   2.927   9.856   8.604 -0.6794 -0.7989  1.3471
  135MOL0     C18150   2.854   9.942   8.705 -0.1809 -1.5792 -1.0188
  135MOL0     C18151   2.851   9.876   8.847 -0.9237 -0.5518 -0.1946
  135MOL0     C18152   2.764   9.928   8.957 -0.1330 -0.1050 -0.6458
  135MOL0     C18153   2.855   9.942   9.076 -0.5924 -0.9597 -0.5603
  135MOL0     C18154   2.918   9.965   9.174  0.2615  0.1787  0.4488
  135MOL0     C18155   2.816   9.543   8.444  0.0834  0.1522 -1.3935
  135MOL0     C18156   2.832   9.457   8.333 -0.7971  0.0678 -0.1154
  135MOL0     C18157   2.750   9.324   8.323 -0.8556  0.6548  0.3568
  135MOL0     H18158   3.167   9.572   7.924  3.5986  0.0139 -0.4739
  135MOL0     H18159   3.213   9.525   7.695  2.9994 -1.1381 -1.6924
  135MOL0     H18160   3.187   9.452   7.462 -1.0236 -0.2644 -1.8999
  135MOL0     H18161   3.351   9.450   7.561 -3.1227 -0.0754  3.2652
  135MOL0     H18162   3.408   9.449   7.323  0.3944 -1.2002 -1.7030
  135MOL0     H18163   3.284   9.326   7.301 -1.1588  0.7082  0.7147
  135MOL0     H18164   3.431   9.188   7.450 -3.0133 -0.0938 -2.3792
  135MOL0     H18165   3.542   9.315   7.471  0.3209 -0.9545  0.1914
  135MOL0     H18166   3.467   9.183   7.194 -1.8205  2.5749 -0.4121
  135MOL0     H18167   3.584   9.313   7.202  3.3326 -1.1424  0.3718
  135MOL0     H18168   3.723   9.163   7.219  1.2798 -0.4974  1.6347
  135MOL0     H18169   3.683   9.149   7.395  3.0378 -4.3144  0.6085
  135MOL0     H18170   3.515   8.986   7.357  1.0700  0.1711  1.9443
  135MOL0     H18171   3.546   8.953   7.196 -1.9172  5.1190 -1.0594
  135MOL0     H18172   3.647   8.782   7.338 -0.1661  0.0556 -1.6279
  135MOL0     H18173   3.750   8.901   7.435 -1.5521 -4.5103  1.9449
  135MOL0     H18174   3.853   8.952   7.199 -1.0413 -0.9509 -0.4551
  135MOL0     H18175   3.913   8.819   7.296  1.6965 -1.3666 -1.5032
  135MOL0     H18176   3.800   8.897   6.965 -0.1526  1.2599  0.8151
  135MOL0     H18177   3.633   8.607   6.780  0.8412  0.0198 -1.1562
  135MOL0     H18178   3.659   8.778   6.752 -0.8746  0.7254  1.0946
  135MOL0     H18179   3.874   8.799   6.700  1.2575 -0.2978  1.6285
  135MOL0     H18180   3.922   8.654   6.770  0.6390  3.2744  0.1117
  135MOL0     H18181   3.795   8.669   6.504 -0.0005  0.2470 -0.3101
  135MOL0     H18182   3.788   8.516   6.598  0.7522 -1.2268 -1.5640
  135MOL0     H18183   4.060   8.563   6.606 -0.1449 -3.7097 -2.1561
  135MOL0     H18184   4.015   8.710   6.510 -3.5476  1.4687  0.0422
  135MOL0     H18185   3.977   8.332   6.244 -2.0317 -3.0014 -1.4733
  135MOL0     H18186   3.967   8.107   6.259  1.5061  2.1590 -2.3513
  135MOL0     H18187   3.683   7.783   6.494 -0.0811 -0.4912 -0.8483
  135MOL0     H18188   3.589   7.565   6.560 -0.7684  0.6013 -0.2435
  135MOL0     H18189   3.554   7.380   6.572  1.7036  2.7631 -0.9829
  135MOL0     H18190   3.675   7.288   6.498  1.2750  4.5671  0.1129
  135MOL0     H18191   3.662   7.122   6.699  4.6338  4.7717  4.7849
  135MOL0     H18192   3.534   7.224   6.766 -1.4994  0.5219 -1.1016
  135MOL0     H18193   3.397   7.173   6.544  0.1928  0.7200  0.3594
  135MOL0     H18194   3.516   7.052   6.506  0.4878 -1.1640  1.8045
  135MOL0     H18195   3.503   6.953   6.740 -0.0795  1.3119  1.1161
  135MOL0     H18196   3.375   6.922   6.626 -1.2169 -0.2714  0.7932
  135MOL0     H18197   3.229   7.110   6.763 -2.1839 -1.6454  0.3063
  135MOL0     H18198   3.371   7.122   6.863  0.5836 -0.2374 -1.3209
  135MOL0     H18199   3.242   6.857   6.792 -1.8439  0.0657  1.0584
  135MOL0     H18200   3.359   6.891   6.913  0.5117  0.9631 -1.6229
  135MOL0     H18201   3.114   6.845   6.982  1.3634 -0.7411 -1.3100
  135MOL0     H18202   3.068   6.998   6.918 -0.5295 -0.7803  0.6948
  135MOL0     H18203   3.255   7.090   7.088  1.0449 -0.3002  1.0930
  135MOL0     H18204   3.089   7.051   7.145 -0.1658 -1.2767  0.5318
  135MOL0     H18205   3.948   7.459   6.747 -1.0823 -1.3037 -0.8860
  135MOL0     H18206   4.047   7.704   6.721 -1.7762  1.0165  2.7703
  135MOL0     H18207   3.930   8.141   6.682  4.3591  0.8453  1.0669
  135MOL0     H18208   3.917   8.369   6.673  0.6907  2.1749 -0.3938
  135MOL0     H18209   3.203   9.103   7.760 -4.1086 -0.9454  0.3857
  135MOL0     H18210   3.135   9.155   8.001 -0.4452 -0.1456 -1.1458
  135MOL0     H18211   3.109   9.629   8.212 -0.7744 -1.8031 -1.4424
  135MOL0     H18212   3.062   9.770   8.378 -0.7790  0.2747 -1.9939
  135MOL0     H18213   2.951   9.909   8.512 -0.9487 -1.3958  0.9233
  135MOL0     H18214   3.022   9.814   8.640  0.6996 -0.6001 -1.7774
  135MOL0     H18215   2.747   9.950   8.682 -0.5039  0.6701  0.8691
  135MOL0     H18216   2.903  10.040   8.714  0.9539 -2.0047 -2.2198
  135MOL0     H18217   2.956   9.875   8.880 -0.1138  2.0554 -2.2540
  135MOL0     H18218   2.819   9.772   8.838  0.3759 -1.0087  0.1960
  135MOL0     H18219   2.721  10.024   8.928  0.9375  0.9806  1.2245
  135MOL0     H18220   2.675   9.868   8.976  1.0293 -1.8371 -0.3418
  135MOL0     H18221   2.971   9.988   9.264 -0.8699 -0.7059  1.3761
  135MOL0     H18222   2.738   9.508   8.511 -0.9825  4.7157  0.0398
  135MOL0     H18223   2.679   9.335   8.240  0.2484  0.7506 -0.6053
  135MOL0     H18224   2.807   9.231   8.315 -3.2475 -0.9886  1.0343
  135MOL0     H18225   2.683   9.318   8.409  1.7121  0.9179  2.4983
  136MOL0     O18226   0.297   4.087   7.319 -0.3720  0.3508  0.1833
  136MOL0     C18227   0.234   4.102   7.428 -0.9346  0.1435 -0.7953
  136MOL0     O18228   0.277   4.169   7.537 -0.0880  0.1010 -0.1161
  136MOL0     C18229   0.391   4.250   7.529  1.4465  0.2923 -0.1041
  136MOL0     C18230   0.384   4.381   7.493  0.3002  0.2033  0.0429
  136MOL0     C18231   0.506   4.460   7.520  0.9424 -0.0243  0.1883
  136MOL0     C18232   0.626   4.401   7.558  0.0961 -0.5981  0.2820
  136MOL0     O18233   0.741   4.472   7.543 -0.6173 -0.2266 -0.1848
  136MOL0     C18234   0.852   4.420   7.468  0.1589 -0.0210 -0.6849
  136MOL0     C18235   0.983   4.428   7.544  0.0761  0.5023 -0.3870
  136MOL0     C18236   1.086   4.409   7.446  0.8302 -0.5980  0.5976
  136MOL0     C18237   1.119   4.553   7.394 -0.4460 -0.4864  0.1050
  136MOL0     C18238   1.161   4.556   7.249 -0.4863 -0.2280  0.1055
  136MOL0     C18239   1.302   4.501   7.228 -0.0357  0.3810  0.1193
  136MOL0     C18240   1.354   4.527   7.090 -0.6473 -0.0881 -0.7374
  136MOL0     C18241   1.497   4.494   7.046  0.2596 -0.9179  0.3671
  136MOL0     N18242   1.540   4.580   6.928  0.5458 -0.5124 -0.3447
  136MOL0     C18243   1.502   4.551   6.792  0.0203  0.1044 -0.8398
  136MOL0     C18244   1.560   4.647   6.727 -0.1622 -0.0669  0.7563
  136MOL0     C18245   1.573   4.659   6.576  0.3101  0.1617  0.3388
  136MOL0     C18246   1.495   4.771   6.507 -0.2759 -0.4779  0.1412
  136MOL0     C18247   1.456   4.744   6.357  0.3314  0.3076  0.0425
  136MOL0     C18248   1.358   4.640   6.319  0.6251  0.5899 -1.3277
  136MOL0     O18249   1.421   4.503   6.322  0.2410  0.1964 -0.0143
  136MOL0     C18250   1.343   4.393   6.365 -0.0814 -0.7756 -0.7204
  136MOL0     C18251   1.390   4.265   6.349  0.0569  0.5212  0.2066
  136MOL0     C18252   1.312   4.151   6.363  0.2161 -0.6035 -0.3707
  136MOL0     C18253   1.189   4.167   6.425  0.5149 -0.5135  0.2873
  136MOL0     C18254   1.104   4.049   6.453 -0.6381  0.2865  0.9732
  136MOL0     O18255   0.997   4.070   6.536 -0.0148 -0.4662 -0.3313
  136MOL0     C18256   0.926   3.958   6.558 -0.5394  0.1970  0.0408
  136MOL0     C18257   0.984   3.856   6.651 -0.3089 -0.3296  0.1631
  136MOL0     C18258   0.918   3.747   6.688 -0.2535  0.1348  0.1648
  136MOL0     C18259   0.791   3.717   6.628 -1.0533 -0.5186 -0.5138
  136MOL0     O18260   0.715   3.608   6.668 -0.6795 -0.6864 -0.8915
  136MOL0     C18261   0.701   3.582   6.806 -1.3412  0.2208 -0.3545
  136MOL0     C18262   0.576   3.515   6.849 -0.3744 -0.5359 -1.0444
  136MOL0     C18263   0.570   3.514   7.001  0.3558  0.7394 -0.0603
  136MOL0     C18264   0.461   3.426   7.077  0.0629 -0.0109 -0.3831
  136MOL0     C18265   0.328   3.497   7.049  0.6493 -0.1606  0.7744
  136MOL0     C18266   0.212   3.407   7.098 -0.2861  0.7211  0.5978
  136MOL0     C18267   0.072   3.466   7.094 -0.3932 -0.4675 -0.7457
  136MOL0     C18268   0.044   3.568   7.202 -0.1735  0.7029  0.7426
  136MOL0    Cl18269  -0.124   3.622   7.165  0.1769 -0.0560  0.0711
  136MOL0     C18270   0.748   3.805   6.525  0.6782 -0.0429 -0.9662
  136MOL0     C18271   0.811   3.924   6.487  0.4575 -0.2052  0.1611
  136MOL0     O18272   1.137   3.935   6.402  0.1570 -0.6905  0.3228
  136MOL0     C18273   1.143   4.295   6.451 -0.4021 -0.4867 -0.5548
  136MOL0     C18274   1.216   4.406   6.421 -0.1057 -0.1043  0.4746
  136MOL0     N18275   1.625   4.731   6.820 -0.2604  0.0813 -0.0219
  136MOL0     N18276   1.614   4.689   6.943 -0.3989 -0.1189 -0.1812
  136MOL0     C18277   0.629   4.267   7.588 -0.0917 -0.2948  0.6991
  136MOL0     C18278   0.510   4.194   7.575  0.9329 -0.1913  0.1037
  136MOL0     C18279   0.113   4.028   7.452  0.8299  0.8121 -0.3884
  136MOL0     C18280   0.081   3.998   7.588  0.7161 -0.6969 -0.0782
  136MOL0     C18281  -0.034   3.931   7.620  0.4579 -0.5328  0.0041
  136MOL0     C18282  -0.114   3.887   7.517  0.1209  0.6461  0.0804
  136MOL0     O18283  -0.223   3.806   7.539  0.7917 -0.3388 -0.7578
  136MOL0     C18284  -0.208   3.677   7.598  0.6353  0.8435  0.0698
  136MOL0     C18285  -0.338   3.603   7.610  0.2271 -0.5883 -0.0391
  136MOL0     C18286  -0.320   3.460   7.640 -0.1421 -0.3840 -0.3492
  136MOL0     C18287  -0.455   3.393   7.665 -0.2979  0.0952 -0.3970
  136MOL0     C18288  -0.443   3.259   7.724  0.9675  0.3821 -0.3897
  136MOL0     C18289  -0.418   3.149   7.783  0.3289 -0.7226  0.6003
  136MOL0     C18290  -0.108   3.937   7.392 -0.2224  0.5493 -0.3666
  136MOL0     C18291   0.006   4.011   7.357 -0.6570  1.3301  0.1857
  136MOL0     C18292   0.009   4.069   7.211  0.4236 -1.1527  0.1036
  136MOL0     H18293   0.285   4.416   7.466 -0.1391 -1.1161 -0.1490
  136MOL0     H18294   0.517   4.565   7.497  3.8457 -0.8371 -2.9860
  136MOL0     H18295   0.837   4.316   7.439  3.7494 -0.2564 -2.2285
  136MOL0     H18296   0.863   4.483   7.379  3.0612 -1.1730 -1.2428
  136MOL0     H18297   0.984   4.356   7.626 -0.9140  1.5191  0.5646
  136MOL0     H18298   0.978   4.527   7.590 -0.7336  0.2175  0.1668
  136MOL0     H18299   1.048   4.345   7.366 -3.7816  0.3683  1.7612
  136MOL0     H18300   1.178   4.367   7.487  0.8431 -0.1208  1.0620
  136MOL0     H18301   1.031   4.618   7.397  0.3971  0.6550  1.2518
  136MOL0     H18302   1.197   4.603   7.452 -1.8334  3.6023 -1.2193
  136MOL0     H18303   1.090   4.499   7.189 -0.4175  2.0362 -2.3203
  136MOL0     H18304   1.164   4.658   7.209  4.4392  1.3290  3.5315
  136MOL0     H18305   1.374   4.556   7.289  1.4461  1.5541 -2.4866
  136MOL0     H18306   1.305   4.394   7.249  0.4663  0.3683 -0.0045
  136MOL0     H18307   1.340   4.635   7.076 -1.0840 -0.2518 -1.6842
  136MOL0     H18308   1.292   4.479   7.014 -0.0167 -1.1687 -0.5938
  136MOL0     H18309   1.572   4.514   7.123  1.5662 -0.5532 -0.9427
  136MOL0     H18310   1.513   4.393   7.008  0.3599  0.3834 -3.5568
  136MOL0     H18311   1.442   4.472   6.749 -1.8692  0.8297  0.3407
  136MOL0     H18312   1.676   4.648   6.542  0.1415  0.3480 -0.2367
  136MOL0     H18313   1.522   4.566   6.549 -2.7860  1.9452 -0.4167
  136MOL0     H18314   1.402   4.783   6.563  0.6278  0.0785  1.5631
  136MOL0     H18315   1.552   4.864   6.511 -0.4933 -0.3758  0.9901
  136MOL0     H18316   1.537   4.734   6.284 -0.4956  1.3336 -1.0658
  136MOL0     H18317   1.418   4.842   6.327  2.7364  1.0815 -0.7343
  136MOL0     H18318   1.312   4.647   6.220 -2.6057 -2.0487 -0.1840
  136MOL0     H18319   1.279   4.654   6.393  0.6799 -2.9399 -0.4341
  136MOL0     H18320   1.486   4.238   6.307  1.2090  1.7910  1.9173
  136MOL0     H18321   1.342   4.053   6.325 -1.4521 -0.7597 -1.3798
  136MOL0     H18322   1.084   3.862   6.695  0.3067 -1.6617 -0.9872
  136MOL0     H18323   0.968   3.670   6.745  0.3542 -1.8621 -2.8486
  136MOL0     H18324   0.785   3.520   6.838  0.5723  0.8657 -3.6795
  136MOL0     H18325   0.720   3.673   6.864  0.0858 -0.1075 -0.2625
  136MOL0     H18326   0.490   3.567   6.806 -3.0909 -3.5557  0.2999
  136MOL0     H18327   0.570   3.412   6.814  1.1557 -0.5174 -1.4124
  136MOL0     H18328   0.667   3.471   7.027 -0.6903 -2.6516 -1.1792
  136MOL0     H18329   0.563   3.612   7.049 -2.5862  0.6118 -0.0277
  136MOL0     H18330   0.491   3.426   7.182  1.9441 -0.4241 -0.8676
  136MOL0     H18331   0.454   3.324   7.038 -0.3280  0.2186 -0.9207
  136MOL0     H18332   0.318   3.520   6.943  3.9082 -0.1940  0.3560
  136MOL0     H18333   0.314   3.595   7.095 -1.4380  1.1958 -2.4587
  136MOL0     H18334   0.202   3.324   7.028  0.0041  2.3588 -1.4938
  136MOL0     H18335   0.235   3.373   7.200  1.5139  2.0526  0.6921
  136MOL0     H18336  -0.005   3.388   7.100 -0.4565 -0.4216 -0.9578
  136MOL0     H18337   0.068   3.519   6.998  2.8943  2.6757  0.6112
  136MOL0     H18338   0.027   3.518   7.298 -3.5041  1.4752  0.6546
  136MOL0     H18339   0.126   3.640   7.212  2.4043 -2.1105  1.4918
  136MOL0     H18340   0.649   3.771   6.495  0.1200 -0.4062  1.1129
  136MOL0     H18341   0.781   3.994   6.409  0.4654 -1.1748 -0.7385
  136MOL0     H18342   1.045   4.303   6.498  0.0783  1.3293  0.2224
  136MOL0     H18343   1.175   4.500   6.455  1.9582 -0.0972  3.2750
  136MOL0     H18344   0.721   4.228   7.629  0.8712  1.3882  0.2309
  136MOL0     H18345   0.507   4.089   7.601  0.2700 -0.8358 -2.3897
  136MOL0     H18346   0.152   4.024   7.666 -1.0495  4.0372  0.2992
  136MOL0     H18347  -0.039   3.912   7.727 -2.8131  2.1357  0.4575
  136MOL0     H18348  -0.165   3.680   7.699  0.5119  1.4213  0.1067
  136MOL0     H18349  -0.132   3.619   7.544  0.9951  2.1763 -0.9098
  136MOL0     H18350  -0.388   3.614   7.513 -2.4542  2.3759  1.4760
  136MOL0     H18351  -0.402   3.651   7.685  1.4186 -1.5904  1.6853
  136MOL0     H18352  -0.261   3.444   7.731 -0.1075  1.9621  0.0953
  136MOL0     H18353  -0.281   3.413   7.549 -3.4747  0.0956 -2.1973
  136MOL0     H18354  -0.520   3.449   7.733  0.0724 -0.4885  0.4404
  136MOL0     H18355  -0.502   3.391   7.566 -2.6416  0.6690  0.6217
  136MOL0     H18356  -0.399   3.055   7.830  1.2701 -2.7990 -3.4739
  136MOL0     H18357  -0.191   3.921   7.323 -1.3665  2.3741  0.4914
  136MOL0     H18358   0.092   4.026   7.155  1.0725  1.9025 -1.5582
  136MOL0     H18359  -0.086   4.055   7.158 -1.2736  3.5140  1.3771
  136MOL0     H18360   0.021   4.178   7.221  0.8049 -1.2080  0.2768
  137MOL0     O18361   3.120   4.836  10.079 -0.4594 -0.3881  0.3676
  137MOL0     C18362   2.999   4.826  10.074 -0.3957 -0.1091  0.8840
  137MOL0     O18363   2.920   4.765  10.168  0.5311 -0.0836  0.2345
  137MOL0     C18364   2.949   4.783  10.304  0.4049  0.3261  0.1918
  137MOL0     C18365   2.959   4.665  10.384  0.0416  0.1270 -0.3689
  137MOL0     C18366   2.992   4.670  10.520  0.1186 -0.4945  0.2002
  137MOL0     C18367   3.035   4.789  10.576  0.5697 -0.1774  0.3486
  137MOL0     O18368   3.082   4.778  10.707 -0.9090  0.1846  0.4125
  137MOL0     C18369   3.055   4.886  10.788  0.1392  0.8401  0.1427
  137MOL0     C18370   3.058   4.836  10.937  0.2308 -0.9463 -0.4986
  137MOL0     C18371   2.925   4.780  10.978 -0.4518  0.1303  0.8208
  137MOL0     C18372   2.912   4.642  10.908 -1.0541  0.7858  0.2805
  137MOL0     C18373   2.799   4.559  10.962  0.3501 -0.0507 -0.4553
  137MOL0     C18374   2.777   4.421  10.897 -0.0631 -0.4926 -0.7045
  137MOL0     C18375   2.655   4.348  10.954 -0.1803  0.7797 -0.3169
  137MOL0     C18376   2.636   4.358  11.109  0.1572 -0.2548 -0.9737
  137MOL0     N18377   2.520   4.266  11.147  0.0849 -0.2020  0.5562
  137MOL0     C18378   2.525   4.120  11.139 -0.3116 -0.5081  0.2442
  137MOL0     C18379   2.404   4.084  11.199 -0.6093 -0.8668  0.3561
  137MOL0     C18380   2.376   3.939  11.222  0.4097  0.0933 -0.6379
  137MOL0     C18381   2.248   3.883  11.171  0.1993 -0.2752 -0.2603
  137MOL0     C18382   2.122   3.932  11.239  0.1166 -0.6900  0.7310
  137MOL0     C18383   2.128   3.961  11.382 -0.2210  0.4130 -0.0401
  137MOL0     O18384   2.122   3.830  11.453  0.1892  0.1292 -0.1036
  137MOL0     C18385   2.127   3.823  11.590  0.0855  0.4319  0.7088
  137MOL0     C18386   2.142   3.930  11.681  0.3566  1.1237  0.9170
  137MOL0     C18387   2.139   3.896  11.822  0.0651 -0.4356  0.3373
  137MOL0     C18388   2.131   3.764  11.860  0.5883  0.2960  0.1209
  137MOL0     C18389   2.122   3.731  12.005 -0.9777  0.2047  0.1575
  137MOL0     O18390   2.138   3.605  12.040 -0.2135 -0.1766 -0.7917
  137MOL0     C18391   2.131   3.553  12.170  0.6873 -0.5055 -0.0493
  137MOL0     C18392   2.172   3.424  12.170 -0.1877  0.2640  0.0941
  137MOL0     C18393   2.169   3.356  12.293  0.6388 -0.6238 -0.5302
  137MOL0     C18394   2.120   3.415  12.417  0.6663  0.1632 -0.3928
  137MOL0     O18395   2.127   3.341  12.534  0.2057  0.0439 -0.1339
  137MOL0     C18396   2.040   3.388  12.630  0.2644  0.4842 -0.9833
  137MOL0     C18397   2.039   3.295  12.750 -0.2274  0.2649 -0.5349
  137MOL0     C18398   2.009   3.380  12.870  0.3521  0.1128 -0.1710
  137MOL0     C18399   1.975   3.284  12.985 -0.6305 -0.3728  0.2351
  137MOL0     C18400   1.825   3.242  12.989 -0.5401 -1.0018  0.1457
  137MOL0     C18401   1.821   3.164  13.120  0.1423  0.8218 -0.5944
  137MOL0     C18402   1.694   3.072  13.122  0.1467 -0.4743 -1.2452
  137MOL0     C18403   1.655   3.020  13.260  0.3366 -0.5301 -0.1855
  137MOL0    Cl18404   1.757   2.876  13.312 -0.3979  0.0254 -0.1352
  137MOL0     C18405   2.057   3.539  12.399 -0.0503  0.3858 -0.3873
  137MOL0     C18406   2.063   3.612  12.275  0.1082  0.5582  0.5477
  137MOL0     O18407   2.110   3.829  12.083 -0.5841  0.1700 -0.3635
  137MOL0     C18408   2.117   3.663  11.765 -0.2925  0.0975  0.3762
  137MOL0     C18409   2.108   3.693  11.634  0.1933  0.8654  0.1412
  137MOL0     N18410   2.334   4.199  11.242  0.3168 -0.3898  0.4449
  137MOL0     N18411   2.402   4.304  11.208 -0.4576  0.9104  0.3275
  137MOL0     C18412   3.047   4.901  10.492  0.9357 -0.8280  0.1206
  137MOL0     C18413   2.998   4.908  10.359  0.0319 -0.1700  0.3078
  137MOL0     C18414   2.936   4.859   9.945 -0.5721 -0.2613  0.7349
  137MOL0     C18415   2.827   4.783   9.890  0.8596 -0.3830 -0.6699
  137MOL0     C18416   2.775   4.793   9.765 -0.0746  0.4367 -0.3739
  137MOL0     C18417   2.818   4.893   9.679  0.0595  0.1148  0.3679
  137MOL0     O18418   2.767   4.929   9.555  0.8984  0.6035  0.5010
  137MOL0     C18419   2.709   4.815   9.487 -0.9730 -1.0538  0.8262
  137MOL0     C18420   2.714   4.837   9.339  0.4437 -0.6094 -0.0834
  137MOL0     C18421   2.852   4.848   9.285 -0.1391  0.4568 -0.5125
  137MOL0     C18422   2.840   4.869   9.134  0.1546  0.5612  0.4255
  137MOL0     C18423   2.971   4.896   9.083 -0.1008  0.1292  0.1525
  137MOL0     C18424   3.075   4.917   9.025 -0.0717  0.3474  0.1332
  137MOL0     C18425   2.920   4.978   9.729 -0.2747  0.4600  0.3545
  137MOL0     C18426   2.983   4.970   9.862  0.4070 -1.0074  1.4171
  137MOL0     C18427   3.087   5.066   9.899 -0.2371 -0.1902 -0.2065
  137MOL0     H18428   2.932   4.570  10.337 -0.3329 -1.9498  3.6225
  137MOL0     H18429   3.003   4.572  10.565  1.7585 -0.4339 -0.0197
  137MOL0     H18430   3.136   4.955  10.765 -1.2671  3.0842  1.5916
  137MOL0     H18431   2.960   4.929  10.756  0.4326  2.1330  0.9300
  137MOL0     H18432   3.075   4.929  10.993  0.2058 -0.1879 -1.7211
  137MOL0     H18433   3.139   4.766  10.961 -0.2930 -1.2825  0.3181
  137MOL0     H18434   2.844   4.846  10.947  1.1963  1.2248 -1.4252
  137MOL0     H18435   2.919   4.778  11.087  0.4487  1.3264  0.9103
  137MOL0     H18436   2.897   4.646  10.799  2.0208 -4.3301 -0.6779
  137MOL0     H18437   2.997   4.575  10.923 -1.7338 -0.2094 -0.2065
  137MOL0     H18438   2.823   4.539  11.067 -0.4122  0.5684 -0.1464
  137MOL0     H18439   2.711   4.623  10.968  2.1661  2.5003  2.6742
  137MOL0     H18440   2.753   4.426  10.790 -2.5948 -0.1623 -0.1818
  137MOL0     H18441   2.868   4.364  10.912 -1.8065 -3.6829 -1.3550
  137MOL0     H18442   2.667   4.246  10.914  4.5628  0.9832  0.0680
  137MOL0     H18443   2.560   4.382  10.912  0.4470  1.8664 -0.8962
  137MOL0     H18444   2.724   4.328  11.168 -1.7139 -1.0188  1.6213
  137MOL0     H18445   2.600   4.454  11.148  1.1308 -0.4861  0.5747
  137MOL0     H18446   2.606   4.067  11.090 -0.8777  1.0289 -2.6274
  137MOL0     H18447   2.465   3.891  11.178  1.9842  2.6272 -0.4073
  137MOL0     H18448   2.396   3.903  11.323 -0.2832 -3.0153 -1.4822
  137MOL0     H18449   2.243   3.898  11.063 -0.7706 -5.2621 -1.1403
  137MOL0     H18450   2.247   3.774  11.169 -0.7996 -0.3180 -3.9026
  137MOL0     H18451   2.034   3.873  11.214 -0.0579 -1.3287  2.7044
  137MOL0     H18452   2.112   4.034  11.202 -0.2763 -0.7728  0.6127
  137MOL0     H18453   2.039   4.014  11.418 -0.8394 -2.0755  2.5217
  137MOL0     H18454   2.210   4.027  11.411 -1.2464  1.0194  1.6993
  137MOL0     H18455   2.139   4.031  11.644 -3.4743  1.1264  0.8808
  137MOL0     H18456   2.169   3.975  11.891  0.6096 -0.6982  0.4103
  137MOL0     H18457   2.210   3.365  12.088 -3.8143 -3.2627  0.6298
  137MOL0     H18458   2.214   3.259  12.312  0.9670 -0.0600  1.8503
  137MOL0     H18459   2.091   3.479  12.665  0.6237 -1.0432  2.9701
  137MOL0     H18460   1.937   3.402  12.597  0.4363  1.4088 -1.1649
  137MOL0     H18461   1.966   3.215  12.741 -1.2434  0.9491  1.0399
  137MOL0     H18462   2.132   3.239  12.766 -1.6070 -1.4951  1.9049
  137MOL0     H18463   2.094   3.444  12.896  1.1743 -1.2700  0.6757
  137MOL0     H18464   1.918   3.437  12.851  0.5815  1.2200  1.8170
  137MOL0     H18465   2.006   3.331  13.078  1.6979 -0.2103 -0.5539
  137MOL0     H18466   2.044   3.200  12.975  1.1201  0.9946  0.2762
  137MOL0     H18467   1.811   3.194  12.892 -0.9854 -1.9966  0.6896
  137MOL0     H18468   1.754   3.324  13.001  0.2455 -0.3110  0.1407
  137MOL0     H18469   1.906   3.096  13.132 -0.4649 -0.0986 -1.4262
  137MOL0     H18470   1.821   3.239  13.200 -1.6657  2.4113 -1.9955
  137MOL0     H18471   1.706   2.993  13.048  2.2896 -3.6439  2.1816
  137MOL0     H18472   1.616   3.144  13.095 -1.0189 -2.1121 -2.4131
  137MOL0     H18473   1.669   3.100  13.333 -0.7447  1.0562 -1.6443
  137MOL0     H18474   1.550   2.990  13.265  0.1016 -0.4799 -3.1037
  137MOL0     H18475   2.019   3.594  12.484 -1.6330  0.3312 -1.0269
  137MOL0     H18476   2.022   3.711  12.262  0.6909  0.8571  0.9289
  137MOL0     H18477   2.135   3.564  11.805  2.2305 -0.6124 -2.1120
  137MOL0     H18478   2.091   3.623  11.552 -0.5867 -1.9681  2.5431
  137MOL0     H18479   3.117   4.972  10.536  0.3283 -0.9135  1.2392
  137MOL0     H18480   3.026   4.995  10.300  3.6347 -0.1902  1.7440
  137MOL0     H18481   2.796   4.694   9.942  1.7319 -1.6918 -2.2944
  137MOL0     H18482   2.685   4.739   9.736 -0.5599  1.7574 -1.4065
  137MOL0     H18483   2.605   4.791   9.512 -1.7596  2.5131  1.5188
  137MOL0     H18484   2.769   4.726   9.511 -0.8658 -1.3225 -0.3587
  137MOL0     H18485   2.658   4.927   9.314 -1.1086 -1.9417 -1.6544
  137MOL0     H18486   2.670   4.751   9.288 -1.2130  0.2350 -0.1318
  137MOL0     H18487   2.907   4.757   9.312  2.8229  2.3575  0.3743
  137MOL0     H18488   2.900   4.939   9.322  0.4508  0.3969 -1.1053
  137MOL0     H18489   2.799   4.778   9.090 -0.2845  1.2168 -0.5606
  137MOL0     H18490   2.774   4.953   9.110  1.1910  1.2910  0.0590
  137MOL0     H18491   3.179   4.926   8.999 -0.1878 -0.7658 -0.8003
  137MOL0     H18492   2.970   5.044   9.658  1.4624 -1.3469 -0.1932
  137MOL0     H18493   3.088   5.084  10.007  1.7259 -1.2868  0.0024
  137MOL0     H18494   3.190   5.037   9.877  0.4618  2.1318 -0.2145
  137MOL0     H18495   3.058   5.158   9.847  0.1936  0.2964  0.4032
  138MOL0     O18496  11.055   7.824   2.567  0.5658  0.2905  0.3622
  138MOL0     C18497  11.071   7.717   2.501 -0.7610 -0.1080  0.1073
  138MOL0     O18498  11.097   7.592   2.550 -0.7289  0.1289 -0.6303
  138MOL0     C18499  11.072   7.567   2.685 -0.2145  0.0348  0.3251
  138MOL0     C18500  10.988   7.459   2.726  0.0245 -0.0589 -1.5435
  138MOL0     C18501  10.975   7.435   2.862  1.6134 -0.5617 -0.6288
  138MOL0     C18502  11.030   7.519   2.963  0.6654  0.2856 -0.5175
  138MOL0     O18503  10.998   7.494   3.094 -0.0411  0.7803 -0.4895
  138MOL0     C18504  11.072   7.534   3.213  0.0057  0.4601  0.1025
  138MOL0     C18505  11.099   7.416   3.302 -0.3290 -0.5448  0.4432
  138MOL0     C18506  10.980   7.377   3.400 -0.2288 -0.6055  1.0541
  138MOL0     C18507  10.852   7.360   3.316  0.1302  0.4328  0.9159
  138MOL0     C18508  10.728   7.325   3.404  0.3412 -0.0620  0.3462
  138MOL0     C18509  10.737   7.184   3.454  0.1153  0.6388 -0.0048
  138MOL0     C18510  10.612   7.158   3.534 -0.1282 -0.9378  1.2081
  138MOL0     C18511  10.542   7.275   3.612 -0.1226 -0.3999 -0.2802
  138MOL0     N18512  10.423   7.255   3.691  0.3844 -0.8742 -0.4572
  138MOL0     C18513  10.384   7.148   3.771 -0.5379  0.5128 -1.2134
  138MOL0     C18514  10.266   7.184   3.837  0.0765  0.0713  0.6682
  138MOL0     C18515  10.178   7.101   3.932  0.6240  0.2935 -0.2673
  138MOL0     C18516  10.270   7.026   4.033  0.3125  0.1669 -0.1076
  138MOL0     C18517  10.198   6.979   4.164  0.5769 -0.0623  0.1450
  138MOL0     C18518  10.303   6.927   4.269  0.5190  0.9602  0.8323
  138MOL0     O18519  10.273   6.803   4.330 -0.4728  0.1839 -1.0076
  138MOL0     C18520  10.181   6.811   4.427  0.0120 -0.0431  0.1872
  138MOL0     C18521  10.217   6.839   4.560 -0.2611 -0.1552 -0.0465
  138MOL0     C18522  10.121   6.851   4.665  0.2985 -0.6848  0.0729
  138MOL0     C18523   9.984   6.831   4.637 -0.2779  0.1957  0.7698
  138MOL0     C18524   9.890   6.851   4.747 -0.0718  0.7176  0.1167
  138MOL0     O18525   9.927   6.879   4.869  0.0843 -0.0566  0.0982
  138MOL0     C18526   9.831   6.915   4.950  0.4869 -0.1523 -0.1231
  138MOL0     C18527   9.781   7.046   4.957 -0.9079 -1.1933 -0.9349
  138MOL0     C18528   9.675   7.080   5.049 -0.5695 -0.4860  0.6614
  138MOL0     C18529   9.620   6.979   5.132 -0.1554 -0.5056  0.0006
  138MOL0     O18530   9.514   7.030   5.208 -0.0240  0.5819  0.0385
  138MOL0     C18531   9.428   6.924   5.258 -0.3905 -0.3073 -0.0259
  138MOL0     C18532   9.298   6.966   5.324 -0.6322 -0.6224 -0.4201
  138MOL0     C18533   9.319   7.016   5.469 -0.2061  1.2867  0.2625
  138MOL0     C18534   9.343   6.902   5.561  0.4328  0.5796 -1.4069
  138MOL0     C18535   9.378   6.957   5.700 -0.4431 -0.2844 -0.8235
  138MOL0     C18536   9.327   6.850   5.797  0.2674  0.8139 -1.3893
  138MOL0     C18537   9.353   6.908   5.932  0.2780  0.8442  0.0167
  138MOL0     C18538   9.319   6.807   6.044  0.1565  0.4224 -0.2305
  138MOL0    Cl18539   9.387   6.656   6.017 -0.1608 -0.2229  0.1465
  138MOL0     C18540   9.665   6.847   5.120  0.1433  0.2313  0.0302
  138MOL0     C18541   9.775   6.819   5.035  0.2384  0.4262  0.2453
  138MOL0     O18542   9.775   6.863   4.706  0.5140  0.1322 -0.9184
  138MOL0     C18543   9.945   6.793   4.502 -1.5729  0.1881 -0.5619
  138MOL0     C18544  10.042   6.794   4.397 -0.0663  0.1981  0.1392
  138MOL0     N18545  10.222   7.307   3.789  0.3093 -0.3718  0.0346
  138MOL0     N18546  10.320   7.347   3.708 -0.0279  0.2513 -0.1130
  138MOL0     C18547  11.114   7.623   2.926 -0.3931 -0.1723  1.0312
  138MOL0     C18548  11.136   7.647   2.787 -0.1847 -0.6921  0.0711
  138MOL0     C18549  11.071   7.732   2.349 -0.7283  0.1394  0.2938
  138MOL0     C18550  11.163   7.828   2.293 -0.4305 -0.2577  0.3944
  138MOL0     C18551  11.173   7.850   2.156 -0.6816  0.3337  0.4909
  138MOL0     C18552  11.100   7.770   2.066 -0.0478 -0.2873 -0.8174
  138MOL0     O18553  11.125   7.765   1.937 -0.4866  0.2968  0.4087
  138MOL0     C18554  11.233   7.833   1.869  0.6572 -0.1584  0.0840
  138MOL0     C18555  11.178   7.971   1.819 -0.0871  0.0283 -0.2030
  138MOL0     C18556  11.057   7.961   1.722 -0.3893  0.1202  0.4257
  138MOL0     C18557  11.087   7.943   1.576 -0.9078  0.8471  0.5057
  138MOL0     C18558  11.162   8.048   1.511  0.6124 -0.8838 -0.3038
  138MOL0     C18559  11.233   8.125   1.448  0.6325 -1.8883  0.3290
  138MOL0     C18560  11.011   7.671   2.120 -0.3862  0.4849 -0.1860
  138MOL0     C18561  10.997   7.648   2.259 -0.1338 -0.4001  1.2968
  138MOL0     C18562  10.890   7.534   2.294 -0.3143  0.4470 -0.2642
  138MOL0     H18563  10.929   7.401   2.657 -0.3623 -3.6230  1.4542
  138MOL0     H18564  10.915   7.352   2.897 -0.8768  1.7705  0.9924
  138MOL0     H18565  11.167   7.569   3.171 -0.4385 -2.4282 -3.8753
  138MOL0     H18566  11.016   7.603   3.276  2.9504  2.2112  1.0276
  138MOL0     H18567  11.185   7.447   3.363 -0.6142 -0.6242  0.8878
  138MOL0     H18568  11.121   7.344   3.223  0.1856  1.0724 -0.9574
  138MOL0     H18569  10.960   7.463   3.465 -2.5893 -1.2580  1.2715
  138MOL0     H18570  11.001   7.294   3.467  1.2002  0.2451  1.7034
  138MOL0     H18571  10.830   7.452   3.261  0.3424 -0.7452 -1.2477
  138MOL0     H18572  10.881   7.283   3.244  1.1763 -0.6111  2.3614
  138MOL0     H18573  10.728   7.404   3.480  2.2229 -0.5303  0.8886
  138MOL0     H18574  10.647   7.344   3.333 -0.0820 -1.7051  0.3550
  138MOL0     H18575  10.747   7.122   3.364  2.8006  3.6004 -1.9739
  138MOL0     H18576  10.823   7.170   3.521 -1.4296 -0.2325  1.9063
  138MOL0     H18577  10.632   7.076   3.603 -1.2693 -2.4019 -0.1156
  138MOL0     H18578  10.532   7.122   3.468  0.8765  1.8711 -1.8159
  138MOL0     H18579  10.623   7.325   3.667  1.3245 -0.9417 -1.8052
  138MOL0     H18580  10.505   7.336   3.529 -0.6400 -0.4993 -0.1248
  138MOL0     H18581  10.436   7.057   3.801 -1.8140  0.2896  0.5285
  138MOL0     H18582  10.120   7.168   3.997  1.0159 -0.6560  1.1080
  138MOL0     H18583  10.112   7.029   3.882 -0.1568 -1.4996  3.0180
  138MOL0     H18584  10.306   6.936   3.982  0.8468  2.2130 -3.6858
  138MOL0     H18585  10.354   7.093   4.052 -1.0268  1.9928 -0.3547
  138MOL0     H18586  10.124   6.902   4.139 -0.2244 -0.0771  2.2763
  138MOL0     H18587  10.148   7.063   4.212 -1.8735 -2.2330  1.7102
  138MOL0     H18588  10.314   6.996   4.353 -1.3820 -0.8300  2.6928
  138MOL0     H18589  10.399   6.927   4.216 -1.1829  4.3467 -2.7299
  138MOL0     H18590  10.323   6.852   4.580 -0.2400  1.3740 -0.9974
  138MOL0     H18591  10.150   6.878   4.766  0.8527  0.6344 -0.4090
  138MOL0     H18592   9.815   7.120   4.885 -0.2483 -1.1055 -0.5398
  138MOL0     H18593   9.639   7.182   5.053 -1.1529 -0.5937 -1.0629
  138MOL0     H18594   9.410   6.840   5.191  1.6470 -1.6578  1.0068
  138MOL0     H18595   9.485   6.880   5.341 -2.4972 -0.4255  1.4460
  138MOL0     H18596   9.258   7.041   5.255  1.8075 -0.7402 -2.0880
  138MOL0     H18597   9.242   6.873   5.320  3.2936 -3.1822 -1.5804
  138MOL0     H18598   9.400   7.089   5.473 -0.8727  2.0160  0.6776
  138MOL0     H18599   9.225   7.059   5.507 -1.9954 -2.0566  0.0924
  138MOL0     H18600   9.434   6.847   5.534  0.6328 -2.3281  3.8264
  138MOL0     H18601   9.266   6.823   5.563 -0.1198  0.8780  3.6606
  138MOL0     H18602   9.332   7.051   5.734  2.2354  0.6286  0.6059
  138MOL0     H18603   9.486   6.976   5.708 -0.8327  2.1996 -0.5246
  138MOL0     H18604   9.219   6.831   5.790 -0.0499  0.0573  2.7225
  138MOL0     H18605   9.384   6.757   5.787  2.1398  1.5002  1.6944
  138MOL0     H18606   9.316   7.009   5.954 -0.9985  0.3630  0.1976
  138MOL0     H18607   9.460   6.922   5.950 -0.2985  1.7633  3.5822
  138MOL0     H18608   9.373   6.850   6.129  0.0341 -0.7050  0.4223
  138MOL0     H18609   9.215   6.797   6.076 -1.7795  2.9693 -4.6898
  138MOL0     H18610   9.620   6.774   5.187  2.4622 -3.8898 -2.4806
  138MOL0     H18611   9.801   6.715   5.018 -6.1917 -1.2222 -3.0893
  138MOL0     H18612   9.840   6.789   4.477 -1.6332  1.8069 -0.6864
  138MOL0     H18613  10.014   6.787   4.292  0.9601  0.2337 -0.1544
  138MOL0     H18614  11.152   7.694   2.999 -1.2805  2.0173 -0.5276
  138MOL0     H18615  11.193   7.730   2.747  0.1342 -1.1537 -0.4595
  138MOL0     H18616  11.208   7.896   2.364  0.9803 -2.4228  1.6892
  138MOL0     H18617  11.224   7.939   2.120 -0.7968 -0.3426 -1.4147
  138MOL0     H18618  11.276   7.773   1.788 -3.4309 -2.8819 -0.3639
  138MOL0     H18619  11.325   7.841   1.928  2.1025 -2.7504 -1.6364
  138MOL0     H18620  11.249   8.041   1.774  0.2391  0.4879  0.9952
  138MOL0     H18621  11.138   8.010   1.913 -1.0992  0.6969 -0.8857
  138MOL0     H18622  11.002   8.055   1.710 -0.2873  0.4053  2.0372
  138MOL0     H18623  10.990   7.891   1.772  2.0031 -1.9103  0.9888
  138MOL0     H18624  11.144   7.851   1.561  0.9710  2.1578 -0.9617
  138MOL0     H18625  10.999   7.926   1.513  0.1502 -1.2063 -0.5200
  138MOL0     H18626  11.289   8.202   1.399 -0.6508 -1.7985 -1.0809
  138MOL0     H18627  10.964   7.602   2.050 -0.6810 -0.7873  1.1975
  138MOL0     H18628  10.931   7.433   2.282 -0.5385  0.6488 -3.3390
  138MOL0     H18629  10.870   7.541   2.401  3.1901  1.8467  0.4504
  138MOL0     H18630  10.799   7.561   2.240  0.2772  6.7058  1.0976
  139MOL0     O18631   7.207   5.619   1.423 -0.2717 -0.7008 -0.8577
  139MOL0     C18632   7.321   5.632   1.388  0.8692  0.0602 -0.8226
  139MOL0     O18633   7.403   5.742   1.416 -1.1729 -0.7115 -1.1921
  139MOL0     C18634   7.360   5.796   1.533  0.0671 -0.9811  0.1441
  139MOL0     C18635   7.391   5.740   1.651  0.5884 -0.9520  0.3255
  139MOL0     C18636   7.329   5.791   1.764 -0.5703  0.8867  1.0252
  139MOL0     C18637   7.242   5.906   1.759 -0.7390  0.5541 -0.6581
  139MOL0     O18638   7.157   5.950   1.862 -0.0683  0.2738  0.0826
  139MOL0     C18639   7.164   5.880   1.985  0.2526  0.7992  0.3345
  139MOL0     C18640   7.089   5.963   2.090 -0.1582  0.5649  0.7604
  139MOL0     C18641   7.166   5.990   2.221 -0.9420  0.4269 -0.8152
  139MOL0     C18642   7.227   5.875   2.304  0.1573  0.4442  0.0601
  139MOL0     C18643   7.261   5.931   2.441  0.0351  0.8918  0.1240
  139MOL0     C18644   7.334   5.819   2.512  0.0535  0.2980 -0.7375
  139MOL0     C18645   7.400   5.862   2.647  0.0998 -0.7571  0.6386
  139MOL0     C18646   7.472   5.751   2.720  0.0813  0.2924  0.3788
  139MOL0     N18647   7.521   5.803   2.845  0.3891 -0.7410  0.1746
  139MOL0     C18648   7.448   5.778   2.959  0.1302 -0.8520 -0.6456
  139MOL0     C18649   7.545   5.782   3.056 -0.3708  0.3332 -0.6510
  139MOL0     C18650   7.519   5.750   3.204  0.3860  0.0133 -0.4898
  139MOL0     C18651   7.584   5.842   3.297  0.0927  0.6085 -1.1248
  139MOL0     C18652   7.527   5.827   3.437  0.0674  0.0071 -0.2051
  139MOL0     C18653   7.614   5.911   3.531 -0.2220 -0.2153  0.2139
  139MOL0     O18654   7.569   5.900   3.663  0.7430  0.4738 -0.3097
  139MOL0     C18655   7.596   5.783   3.733 -0.6317  0.9680  0.8787
  139MOL0     C18656   7.699   5.688   3.702 -0.4662 -0.1364  0.4884
  139MOL0     C18657   7.718   5.569   3.774  0.7835  0.0851 -0.0176
  139MOL0     C18658   7.624   5.542   3.877 -0.3560 -0.3353 -0.2755
  139MOL0     C18659   7.624   5.408   3.923 -0.6608  0.2874  0.5571
  139MOL0     O18660   7.747   5.338   3.903 -0.1894  0.0657 -0.0658
  139MOL0     C18661   7.759   5.203   3.945  0.0249 -0.5646 -0.0971
  139MOL0     C18662   7.662   5.109   3.994  0.0343 -0.9169  0.7036
  139MOL0     C18663   7.692   4.981   4.028 -0.0980  0.3655  1.1313
  139MOL0     C18664   7.815   4.932   4.022 -1.0338  0.2630 -0.4701
  139MOL0     O18665   7.852   4.799   4.051 -0.5637  0.4183  0.4868
  139MOL0     C18666   7.762   4.698   4.015  0.2927 -0.1842  0.1614
  139MOL0     C18667   7.756   4.678   3.864 -0.0737  0.2530 -0.7274
  139MOL0     C18668   7.650   4.568   3.831  0.1445 -0.0936 -0.2501
  139MOL0     C18669   7.662   4.499   3.695 -0.2883 -0.1400 -1.6864
  139MOL0     C18670   7.526   4.492   3.615 -0.1633  0.2602  0.7777
  139MOL0     C18671   7.527   4.424   3.469 -0.4024 -0.1053 -0.5297
  139MOL0     C18672   7.576   4.276   3.476  0.7306 -0.0429 -0.1419
  139MOL0     C18673   7.603   4.225   3.336 -0.0404 -0.5125 -0.3414
  139MOL0    Cl18674   7.451   4.203   3.248 -0.3083 -0.1571 -0.0307
  139MOL0     C18675   7.913   5.025   3.981 -0.8941 -1.5547  0.3716
  139MOL0     C18676   7.885   5.152   3.932  0.3466  1.0516  0.0534
  139MOL0     O18677   7.516   5.358   3.958  0.2055  0.1288 -0.8770
  139MOL0     C18678   7.514   5.627   3.899 -0.2492 -0.1004 -0.9462
  139MOL0     C18679   7.514   5.750   3.835 -0.0782 -0.3814 -0.5963
  139MOL0     N18680   7.671   5.802   2.990  0.0205 -0.1197  0.1865
  139MOL0     N18681   7.653   5.811   2.866 -0.5257 -0.5115  0.3965
  139MOL0     C18682   7.221   5.967   1.637 -0.4216  0.1175 -0.5604
  139MOL0     C18683   7.282   5.909   1.524  0.2574  0.3959 -0.0390
  139MOL0     C18684   7.360   5.539   1.274  0.9258  0.1927 -0.1761
  139MOL0     C18685   7.495   5.492   1.267 -0.6070 -0.5264 -0.7484
  139MOL0     C18686   7.539   5.385   1.197  0.3422  0.4418 -0.2635
  139MOL0     C18687   7.448   5.321   1.117 -0.2436  0.3794  0.2495
  139MOL0     O18688   7.482   5.208   1.053 -0.7298 -0.3688  0.5031
  139MOL0     C18689   7.450   5.199   0.908  0.7585 -0.4778 -0.6577
  139MOL0     C18690   7.583   5.193   0.833  1.4372 -0.6280 -1.3273
  139MOL0     C18691   7.557   5.161   0.690  0.2128  0.7962 -0.2008
  139MOL0     C18692   7.512   5.281   0.596  0.3391 -0.5574 -0.0978
  139MOL0     C18693   7.618   5.350   0.523 -0.3716 -0.5215  0.0832
  139MOL0     C18694   7.700   5.411   0.455  1.4287  0.2420  0.2961
  139MOL0     C18695   7.312   5.373   1.106  0.0578  0.1773 -0.1318
  139MOL0     C18696   7.269   5.484   1.181 -0.1817 -0.4521  0.1982
  139MOL0     C18697   7.151   5.556   1.132 -0.1891  0.0433 -0.3989
  139MOL0     H18698   7.447   5.648   1.665  1.8045  0.0898  3.0225
  139MOL0     H18699   7.354   5.738   1.855 -0.1625 -0.3615  0.2005
  139MOL0     H18700   7.123   5.780   1.975  2.5646 -0.0105 -2.5584
  139MOL0     H18701   7.270   5.868   2.012  1.3661  3.4831 -2.1886
  139MOL0     H18702   6.992   5.917   2.108  0.4393 -2.0722 -1.9667
  139MOL0     H18703   7.077   6.065   2.052  3.2263  1.5481  1.8825
  139MOL0     H18704   7.098   6.041   2.290  1.2011  0.3316  1.4852
  139MOL0     H18705   7.247   6.061   2.205  1.1009 -1.7474 -0.6796
  139MOL0     H18706   7.153   5.796   2.320  1.4428 -1.5319 -2.8838
  139MOL0     H18707   7.311   5.832   2.248  0.7002  1.9882 -0.3388
  139MOL0     H18708   7.337   6.008   2.431  1.6405 -0.6684 -0.1449
  139MOL0     H18709   7.175   5.971   2.496  0.3251  0.4900  0.8819
  139MOL0     H18710   7.260   5.751   2.556  0.4306  0.3285 -0.0378
  139MOL0     H18711   7.398   5.758   2.447 -0.8597 -1.6558  0.1166
  139MOL0     H18712   7.325   5.912   2.708  1.2765  0.5902  1.0478
  139MOL0     H18713   7.474   5.942   2.653  0.8179 -1.4673  4.5678
  139MOL0     H18714   7.395   5.675   2.735 -0.5202 -0.3552 -4.3324
  139MOL0     H18715   7.555   5.708   2.664 -1.0531 -0.4475 -0.7910
  139MOL0     H18716   7.348   5.741   2.979 -0.1143 -0.9002 -1.8737
  139MOL0     H18717   7.413   5.730   3.217  0.7770 -2.3420 -0.4068
  139MOL0     H18718   7.553   5.649   3.230 -0.7469 -0.1006  0.6438
  139MOL0     H18719   7.692   5.839   3.288  0.2317  1.8072 -0.2235
  139MOL0     H18720   7.546   5.940   3.266 -3.7062 -0.9353 -2.0022
  139MOL0     H18721   7.522   5.724   3.473 -0.4122  0.4092  0.9405
  139MOL0     H18722   7.439   5.892   3.442  2.7544  3.9339  1.4656
  139MOL0     H18723   7.627   6.018   3.510 -0.0221  0.6718  4.0574
  139MOL0     H18724   7.718   5.881   3.514 -0.5139 -1.7563  0.9738
  139MOL0     H18725   7.767   5.705   3.619 -0.8709  0.7832  0.3262
  139MOL0     H18726   7.794   5.495   3.749 -0.8889 -0.9662 -2.3319
  139MOL0     H18727   7.560   5.144   4.008  0.0698 -1.7681  3.7488
  139MOL0     H18728   7.601   4.924   4.046 -1.0339  1.8941  1.4389
  139MOL0     H18729   7.804   4.606   4.055  0.9247 -0.8434 -1.9165
  139MOL0     H18730   7.664   4.717   4.061  0.0146 -0.1488 -0.4443
  139MOL0     H18731   7.712   4.768   3.819 -3.1128 -1.1871 -0.9463
  139MOL0     H18732   7.857   4.662   3.826 -0.0836  0.3479 -0.7959
  139MOL0     H18733   7.666   4.489   3.904  0.4553  1.0511  0.9750
  139MOL0     H18734   7.548   4.603   3.847 -0.5168 -2.1388  0.2554
  139MOL0     H18735   7.708   4.401   3.705  2.2427  1.1431  0.7500
  139MOL0     H18736   7.734   4.566   3.647  3.0018 -0.2771  2.4792
  139MOL0     H18737   7.495   4.596   3.598  3.0959  1.0399 -1.3354
  139MOL0     H18738   7.455   4.452   3.688 -0.5840  2.3570  1.6060
  139MOL0     H18739   7.422   4.427   3.439 -0.3034  2.0834 -0.7915
  139MOL0     H18740   7.595   4.484   3.408 -1.1270  1.0251 -0.2479
  139MOL0     H18741   7.512   4.210   3.536 -1.3700  0.9143 -1.2272
  139MOL0     H18742   7.669   4.280   3.533 -0.5335 -1.6940  2.2311
  139MOL0     H18743   7.658   4.295   3.273  0.7901  0.6372  1.5601
  139MOL0     H18744   7.657   4.130   3.338 -1.5562 -1.4210 -0.5499
  139MOL0     H18745   8.017   4.995   3.972 -0.4358 -0.2818  1.1238
  139MOL0     H18746   7.973   5.210   3.904  2.3945 -2.2779 -1.0122
  139MOL0     H18747   7.442   5.592   3.972 -0.7269  0.7714 -0.9907
  139MOL0     H18748   7.427   5.813   3.848  0.0923 -0.0394 -1.0907
  139MOL0     H18749   7.155   6.052   1.626 -0.1683  0.7788  2.3238
  139MOL0     H18750   7.270   5.949   1.424  0.7784 -0.9055 -0.6526
  139MOL0     H18751   7.562   5.552   1.328 -1.7901  0.8056 -0.7141
  139MOL0     H18752   7.639   5.343   1.201 -0.0451 -0.7296 -1.8860
  139MOL0     H18753   7.401   5.291   0.876 -0.4479 -0.0498  2.1246
  139MOL0     H18754   7.376   5.120   0.889  3.7396 -2.6794 -4.8789
  139MOL0     H18755   7.642   5.108   0.869  0.4168 -1.1087 -0.7481
  139MOL0     H18756   7.639   5.286   0.847  1.2626 -0.3593 -2.3493
  139MOL0     H18757   7.475   5.088   0.691 -0.4018  1.4443  1.4511
  139MOL0     H18758   7.639   5.108   0.641 -0.6508 -2.0918  1.2379
  139MOL0     H18759   7.454   5.217   0.529  0.6652 -0.5498 -0.3913
  139MOL0     H18760   7.452   5.349   0.657 -2.4891 -2.1730 -0.9153
  139MOL0     H18761   7.757   5.461   0.380 -1.6738  2.1671 -0.9750
  139MOL0     H18762   7.239   5.329   1.039  1.1051 -0.6004 -0.7875
  139MOL0     H18763   7.177   5.644   1.073  2.3510 -0.0395  0.4955
  139MOL0     H18764   7.087   5.506   1.059 -2.4208  3.2683 -0.8566
  139MOL0     H18765   7.075   5.561   1.212 -2.7356 -3.5461 -2.2880
  140MOL0     O18766   2.404   9.258   0.686  0.8755 -0.1302 -0.8031
  140MOL0     C18767   2.511   9.289   0.736  1.2412  0.3460 -0.0871
  140MOL0     O18768   2.534   9.404   0.808 -0.2774  0.0040 -0.1488
  140MOL0     C18769   2.432   9.486   0.838  0.4628  0.3962 -0.6062
  140MOL0     C18770   2.445   9.536   0.964  0.1756 -0.9762  0.8337
  140MOL0     C18771   2.354   9.635   1.013  0.1161 -0.6695 -0.7072
  140MOL0     C18772   2.240   9.680   0.944 -0.6407 -0.6978 -0.1472
  140MOL0     O18773   2.157   9.773   1.009 -0.4016 -0.0182 -0.2556
  140MOL0     C18774   2.066   9.847   0.925 -0.2303 -0.0410  0.2365
  140MOL0     C18775   1.968   9.929   0.993 -0.3354 -0.6521 -0.7337
  140MOL0     C18776   1.895   9.854   1.110 -1.0161  0.7164 -0.3116
  140MOL0     C18777   1.803   9.931   1.204  0.7520 -0.8244  0.5955
  140MOL0     C18778   1.745   9.846   1.316  0.0325  0.8646 -0.1173
  140MOL0     C18779   1.672   9.723   1.262  0.3546  0.2744  0.6282
  140MOL0     C18780   1.608   9.640   1.379 -0.0113 -0.4811 -0.6629
  140MOL0     C18781   1.551   9.507   1.333  0.4002  0.9307  0.0452
  140MOL0     N18782   1.448   9.528   1.236 -0.1967  0.3799 -0.0800
  140MOL0     C18783   1.318   9.564   1.271 -0.5038 -0.4638  0.2573
  140MOL0     C18784   1.248   9.532   1.157  0.4031  0.4006 -0.5250
  140MOL0     C18785   1.098   9.531   1.159  0.4481  0.5733 -0.3307
  140MOL0     C18786   1.032   9.516   1.016 -0.4634  0.4071 -0.0884
  140MOL0     C18787   1.050   9.647   0.937  0.6563 -0.2988  0.3526
  140MOL0     C18788   1.009   9.627   0.792 -1.0481  0.0557  0.3207
  140MOL0     O18789   0.863   9.602   0.782  0.5565 -0.6158  0.9462
  140MOL0     C18790   0.805   9.592   0.655  0.0904  0.8194 -0.1404
  140MOL0     C18791   0.873   9.608   0.537  0.1280  0.2818  0.2860
  140MOL0     C18792   0.796   9.623   0.418 -0.2839  0.5258  0.5811
  140MOL0     C18793   0.649   9.611   0.417  0.0309 -0.1354  0.0044
  140MOL0     C18794   0.570   9.637   0.297  0.6432  0.2417 -0.2475
  140MOL0     O18795   0.444   9.583   0.297 -0.0649  0.6552  0.5417
  140MOL0     C18796   0.364   9.598   0.182  0.2677  0.0980 -0.6185
  140MOL0     C18797   0.249   9.677   0.188  0.7179  0.1490 -0.0479
  140MOL0     C18798   0.178   9.683   0.066  0.0301 -0.4340  0.3546
  140MOL0     C18799   0.214   9.620  -0.055  0.1518 -0.6638  0.6645
  140MOL0     O18800   0.142   9.620  -0.171  0.5750  0.2838  0.2458
  140MOL0     C18801   0.007   9.667  -0.166 -0.1317  0.1932 -0.0874
  140MOL0     C18802  -0.065   9.645  -0.298  0.5074  0.7486  0.6762
  140MOL0     C18803  -0.082   9.498  -0.346  0.1259 -0.0357  0.4778
  140MOL0     C18804  -0.170   9.417  -0.262  0.2021 -1.0203 -0.2351
  140MOL0     C18805  -0.173   9.266  -0.295 -0.6192 -0.0485 -0.1639
  140MOL0     C18806  -0.248   9.177  -0.195 -0.6291 -0.7044  0.4846
  140MOL0     C18807  -0.260   9.030  -0.236  0.1980 -0.0921 -0.2613
  140MOL0     C18808  -0.365   9.001  -0.349 -0.0137 -1.0192  0.5292
  140MOL0    Cl18809  -0.531   9.040  -0.292  0.1739  0.2736 -0.0427
  140MOL0     C18810   0.330   9.540  -0.047 -0.1308 -0.4132  0.3542
  140MOL0     C18811   0.399   9.524   0.070 -0.1676  0.0781  1.3033
  140MOL0     O18812   0.601   9.716   0.213 -0.5861 -0.0451 -0.0901
  140MOL0     C18813   0.585   9.590   0.545 -1.8511  0.2450 -0.0537
  140MOL0     C18814   0.667   9.566   0.653 -0.4047  0.5394 -0.0814
  140MOL0     N18815   1.333   9.481   1.061 -0.2308 -0.1060 -0.2720
  140MOL0     N18816   1.455   9.478   1.111  0.1816  0.8466 -0.0469
  140MOL0     C18817   2.231   9.632   0.809  0.3287  0.7092  0.1499
  140MOL0     C18818   2.333   9.544   0.755  0.2419 -0.3811 -0.6963
  140MOL0     C18819   2.626   9.202   0.709  1.0148 -0.2267  0.5709
  140MOL0     C18820   2.745   9.259   0.727 -0.3537  0.4089  0.5258
  140MOL0     C18821   2.860   9.189   0.704 -0.2311  1.0626  0.5491
  140MOL0     C18822   2.863   9.052   0.660  0.4880 -0.8141 -0.2953
  140MOL0     O18823   2.981   8.984   0.662  0.5719  0.1451  0.1888
  140MOL0     C18824   3.004   8.878   0.568  0.7296  0.2175 -0.1963
  140MOL0     C18825   3.146   8.817   0.568 -0.2822  0.1217 -0.2137
  140MOL0     C18826   3.186   8.743   0.688 -0.7662 -0.1058 -0.8291
  140MOL0     C18827   3.335   8.702   0.682  0.5507 -0.0648  0.5947
  140MOL0     C18828   3.388   8.677   0.817  0.1425 -0.8082 -0.5774
  140MOL0     C18829   3.437   8.668   0.927  1.1791 -0.6240 -0.1855
  140MOL0     C18830   2.738   8.996   0.646  0.6672  0.0026  1.1174
  140MOL0     C18831   2.619   9.064   0.659  0.5239 -0.1328 -0.7854
  140MOL0     C18832   2.493   9.000   0.628 -0.4314  0.1056 -0.4663
  140MOL0     H18833   2.538   9.508   1.014  2.9126  0.0903 -3.1905
  140MOL0     H18834   2.374   9.672   1.113  0.4492  2.7830 -1.8893
  140MOL0     H18835   2.127   9.908   0.858  2.1816 -3.1041 -0.5983
  140MOL0     H18836   2.005   9.776   0.868 -1.7399  0.7933  0.7853
  140MOL0     H18837   1.895   9.973   0.924 -0.7697 -0.0926  0.0630
  140MOL0     H18838   2.029  10.010   1.035 -1.4440  1.0169 -2.2056
  140MOL0     H18839   1.978   9.813   1.167 -0.1318  2.0196 -0.6068
  140MOL0     H18840   1.845   9.771   1.060  0.2893 -0.7579  0.7471
  140MOL0     H18841   1.838  10.019   1.259 -1.8796 -0.9987  2.7592
  140MOL0     H18842   1.716   9.977   1.156  1.3251  0.6206  0.8986
  140MOL0     H18843   1.825   9.804   1.377  2.8890  2.4656 -2.5115
  140MOL0     H18844   1.680   9.907   1.380  1.2920  1.4928  0.5919
  140MOL0     H18845   1.596   9.741   1.185  1.8444 -1.1015 -1.2427
  140MOL0     H18846   1.735   9.652   1.208  1.1330  1.6892 -0.3881
  140MOL0     H18847   1.533   9.684   1.447 -1.5017 -0.9333 -1.9539
  140MOL0     H18848   1.684   9.613   1.453 -2.7125 -1.4992  1.9522
  140MOL0     H18849   1.624   9.439   1.288 -3.3456 -2.9174 -0.8570
  140MOL0     H18850   1.498   9.463   1.418 -0.7801 -2.2457 -2.1344
  140MOL0     H18851   1.266   9.596   1.361 -3.6503 -0.2476 -1.4710
  140MOL0     H18852   1.055   9.462   1.232  2.2266  0.3756  0.5604
  140MOL0     H18853   1.062   9.631   1.187 -0.0693  1.2837 -3.2041
  140MOL0     H18854   1.087   9.432   0.973  0.4012 -0.5433  2.7085
  140MOL0     H18855   0.930   9.479   1.018 -0.2716 -0.1252 -0.1611
  140MOL0     H18856   1.156   9.671   0.939 -0.0739  3.5072  1.8661
  140MOL0     H18857   0.995   9.730   0.982  1.1726 -0.0057  0.4391
  140MOL0     H18858   1.076   9.550   0.751  0.8120  2.3377 -1.1768
  140MOL0     H18859   1.040   9.717   0.738  1.0576 -0.5514  0.3925
  140MOL0     H18860   0.975   9.644   0.525  0.0528  0.3771 -0.0760
  140MOL0     H18861   0.860   9.645   0.333 -1.7278  1.0938 -0.3960
  140MOL0     H18862   0.231   9.730   0.281 -1.3510 -2.0258  0.9321
  140MOL0     H18863   0.080   9.729   0.062 -0.0441 -0.6999 -1.9800
  140MOL0     H18864  -0.041   9.617  -0.081  1.4885  0.7855  1.2103
  140MOL0     H18865   0.002   9.776  -0.157 -2.5275  0.0837  0.7443
  140MOL0     H18866  -0.163   9.694  -0.296 -0.2133 -0.6228  0.4955
  140MOL0     H18867  -0.008   9.702  -0.372 -3.4754  3.9136 -0.2889
  140MOL0     H18868  -0.130   9.500  -0.444 -2.3518  1.4735  1.6378
  140MOL0     H18869   0.013   9.444  -0.352 -0.3454 -1.4392  3.7250
  140MOL0     H18870  -0.268   9.467  -0.261 -0.9292 -3.1058  0.0708
  140MOL0     H18871  -0.125   9.445  -0.167  1.8515  0.5760 -1.4257
  140MOL0     H18872  -0.068   9.233  -0.291 -0.8579 -0.8326  3.6830
  140MOL0     H18873  -0.215   9.252  -0.395 -0.1477  2.2143 -0.7378
  140MOL0     H18874  -0.195   9.176  -0.099 -2.6973 -0.2569  1.6878
  140MOL0     H18875  -0.349   9.218  -0.185  0.3222  1.9131  0.2049
  140MOL0     H18876  -0.278   8.972  -0.145  1.4053 -0.9556 -0.5433
  140MOL0     H18877  -0.170   8.998  -0.291 -0.3359  0.2097 -1.3452
  140MOL0     H18878  -0.336   9.058  -0.438  0.8749  0.5774  1.7787
  140MOL0     H18879  -0.352   8.895  -0.372  0.9864 -0.7460 -0.2183
  140MOL0     H18880   0.377   9.487  -0.129  4.2981 -1.3257  3.2002
  140MOL0     H18881   0.501   9.486   0.069  0.2955  1.2944  0.1649
  140MOL0     H18882   0.477   9.585   0.541 -1.8706 -0.0978  0.7876
  140MOL0     H18883   0.624   9.543   0.750 -0.9641 -1.2540 -0.7065
  140MOL0     H18884   2.155   9.660   0.738  1.8653 -0.6625 -2.1581
  140MOL0     H18885   2.301   9.509   0.657 -1.8070  3.6706 -1.7127
  140MOL0     H18886   2.762   9.362   0.755 -0.3040  0.1711  1.4156
  140MOL0     H18887   2.953   9.237   0.732 -0.4232  2.3369 -0.8427
  140MOL0     H18888   2.976   8.914   0.469  1.7467 -0.3773 -0.7165
  140MOL0     H18889   2.934   8.798   0.593  2.2366 -0.6830  1.3835
  140MOL0     H18890   3.220   8.895   0.543  1.9170 -0.3981  3.8505
  140MOL0     H18891   3.147   8.738   0.492  0.3647 -1.9508  1.8462
  140MOL0     H18892   3.114   8.662   0.704 -1.8480  0.1606 -3.8430
  140MOL0     H18893   3.190   8.812   0.773  1.7170 -0.8712 -0.2406
  140MOL0     H18894   3.347   8.621   0.609 -0.4516  0.8239 -0.5958
  140MOL0     H18895   3.389   8.790   0.646  0.7727 -0.2476  0.4781
  140MOL0     H18896   3.455   8.654   1.032 -3.9406  0.1864  1.0476
  140MOL0     H18897   2.734   8.891   0.618  1.7648  0.7227 -2.3072
  140MOL0     H18898   2.435   8.997   0.721 -1.3202  3.8801 -0.7353
  140MOL0     H18899   2.442   9.055   0.549 -0.6818  0.4219 -0.0895
  140MOL0     H18900   2.505   8.898   0.590  0.0219 -0.1908  0.4494
  141MOL0     O18901  10.365   8.060   4.703  0.0950  0.1314 -0.1281
  141MOL0     C18902  10.328   8.072   4.586 -0.8393  0.0122  0.2102
  141MOL0     O18903  10.239   8.162   4.546 -0.1194 -0.0713 -0.0134
  141MOL0     C18904  10.195   8.270   4.619 -0.8774  0.7872 -0.2900
  141MOL0     C18905  10.085   8.334   4.560 -0.4035 -0.8249  0.3550
  141MOL0     C18906  10.018   8.442   4.629  0.4417 -0.9845 -0.3520
  141MOL0     C18907  10.071   8.487   4.749 -0.0399 -0.2103 -0.5954
  141MOL0     O18908   9.983   8.568   4.824 -0.2672 -0.9191  0.2613
  141MOL0     C18909  10.034   8.646   4.933  0.3619 -0.1519 -0.8490
  141MOL0     C18910  10.089   8.774   4.886  1.2243  0.1386  0.5281
  141MOL0     C18911  10.125   8.881   4.992  0.0882 -0.1158  0.5670
  141MOL0     C18912  10.241   8.824   5.082  0.1261  0.1907 -0.0364
  141MOL0     C18913  10.262   8.906   5.202 -1.1166 -0.3138  0.4004
  141MOL0     C18914  10.310   9.063   5.186  1.1523 -0.6909 -0.0363
  141MOL0     C18915  10.357   9.119   5.321  0.1158  0.5749 -0.2583
  141MOL0     C18916  10.409   9.251   5.299 -0.3012 -0.6221  0.9060
  141MOL0     N18917  10.454   9.317   5.417 -0.9790  0.5248 -0.3737
  141MOL0     C18918  10.583   9.345   5.460 -0.7504  0.7343  1.0462
  141MOL0     C18919  10.563   9.408   5.579 -0.1104  0.0594 -0.1109
  141MOL0     C18920  10.665   9.453   5.675  0.8848 -0.3082 -0.4556
  141MOL0     C18921  10.706   9.605   5.655 -0.2869 -0.5354 -0.1417
  141MOL0     C18922  10.759   9.679   5.776  0.3444  0.2990 -0.8523
  141MOL0     C18923  10.656   9.729   5.876  0.1188 -0.3846 -0.4070
  141MOL0     O18924  10.605   9.853   5.842  0.6595 -0.0840  0.3812
  141MOL0     C18925  10.483   9.888   5.891  0.5459 -0.2815  0.5591
  141MOL0     C18926  10.396   9.804   5.969 -0.6576 -0.5429 -0.0931
  141MOL0     C18927  10.288   9.865   6.030  0.2879 -0.5094 -0.3076
  141MOL0     C18928  10.251   9.997   6.017 -0.1577  0.1657  0.3616
  141MOL0     C18929  10.133  10.059   6.087  0.1870 -0.2434  0.4221
  141MOL0     O18930  10.122  10.194   6.089 -0.2206 -0.2052 -0.6006
  141MOL0     C18931  10.082  10.261   6.208 -0.5401  0.1444  0.6273
  141MOL0     C18932  10.022  10.391   6.182 -0.2795 -0.8645 -0.9164
  141MOL0     C18933   9.981  10.467   6.292  0.3604 -0.5938 -0.5162
  141MOL0     C18934   9.979  10.416   6.424 -0.1923  0.6576 -0.9260
  141MOL0     O18935   9.899  10.469   6.522  0.6662  0.7744 -0.4432
  141MOL0     C18936   9.794  10.375   6.557  0.1333 -0.2781  0.2368
  141MOL0     C18937   9.682  10.351   6.445 -0.3654 -0.2716 -0.4153
  141MOL0     C18938   9.576  10.258   6.508 -0.1787 -0.3522 -0.3887
  141MOL0     C18939   9.473  10.217   6.409  0.3334 -0.2420 -0.1300
  141MOL0     C18940   9.367  10.130   6.472  0.5855  0.0270  0.0721
  141MOL0     C18941   9.266  10.197   6.564  0.0864 -0.0504 -0.2572
  141MOL0     C18942   9.152  10.110   6.591  0.5339 -0.3852 -0.6638
  141MOL0     C18943   9.052  10.191   6.674 -0.3804 -0.3905 -0.3786
  141MOL0    Cl18944   8.919  10.087   6.729 -0.5173  0.3769 -0.0436
  141MOL0     C18945  10.047  10.285   6.443  1.3536  0.0439  0.3481
  141MOL0     C18946  10.089  10.209   6.335  0.1530  0.1460  1.1491
  141MOL0     O18947  10.063   9.975   6.147  0.5046  0.3301  0.2982
  141MOL0     C18948  10.326  10.077   5.930 -0.1615  0.6266  0.1654
  141MOL0     C18949  10.434  10.019   5.862  0.3372  0.4014  0.1460
  141MOL0     N18950  10.429   9.423   5.592  0.3066 -0.4035 -0.7496
  141MOL0     N18951  10.371   9.370   5.499 -0.0525 -0.5731 -0.3434
  141MOL0     C18952  10.192   8.437   4.793  0.6217 -0.6323 -0.1448
  141MOL0     C18953  10.253   8.333   4.726 -1.1098  0.4353 -0.0311
  141MOL0     C18954  10.368   7.957   4.491 -0.7367  0.0261 -0.7142
  141MOL0     C18955  10.344   7.820   4.518 -0.6556  0.3575  0.2709
  141MOL0     C18956  10.397   7.722   4.430 -0.7475 -0.8403  0.1343
  141MOL0     C18957  10.466   7.754   4.317  0.7929 -0.1053  0.3696
  141MOL0     O18958  10.475   7.646   4.225  0.1921  0.1580 -0.3287
  141MOL0     C18959  10.530   7.668   4.095  0.2381  0.0736 -0.5439
  141MOL0     C18960  10.681   7.691   4.110 -0.3936 -0.2359 -0.2423
  141MOL0     C18961  10.752   7.692   3.979 -0.3185 -0.7882  0.8584
  141MOL0     C18962  10.785   7.548   3.929  0.1501  0.4941  1.2614
  141MOL0     C18963  10.876   7.547   3.814  0.0804  0.1650  0.4336
  141MOL0     C18964  10.961   7.562   3.726  0.3965 -0.0500  0.5865
  141MOL0     C18965  10.473   7.887   4.273 -0.1296 -0.1250  0.0959
  141MOL0     C18966  10.438   7.992   4.372 -0.1303  0.2862 -0.0726
  141MOL0     C18967  10.471   8.139   4.342 -0.8707  0.4038 -0.3714
  141MOL0     H18968  10.035   8.295   4.472 -4.0626 -1.5582  2.5890
  141MOL0     H18969   9.919   8.480   4.606  0.1170 -1.2664  0.5261
  141MOL0     H18970   9.947   8.672   4.994 -1.2452  0.1662 -3.1438
  141MOL0     H18971  10.098   8.586   4.998 -0.6709 -0.0220  0.3198
  141MOL0     H18972  10.030   8.824   4.808  2.1068  0.6003  0.1426
  141MOL0     H18973  10.180   8.750   4.831 -0.3990 -1.3148 -1.7220
  141MOL0     H18974  10.039   8.908   5.053 -0.1777  1.7605 -0.5653
  141MOL0     H18975  10.151   8.975   4.941 -2.7480  0.5322  0.1839
  141MOL0     H18976  10.218   8.723   5.115  0.8836  0.5451  1.6690
  141MOL0     H18977  10.331   8.837   5.022 -0.4426  0.5389 -0.8369
  141MOL0     H18978  10.180   8.909   5.274  0.2470  0.9461  2.0013
  141MOL0     H18979  10.342   8.863   5.263  0.4991 -1.8240 -2.5432
  141MOL0     H18980  10.385   9.066   5.106  1.4750  1.1194  0.2942
  141MOL0     H18981  10.226   9.121   5.147  2.5852  1.2261 -0.3900
  141MOL0     H18982  10.430   9.055   5.372  0.5473  2.9322  2.3058
  141MOL0     H18983  10.272   9.120   5.390  0.1847 -2.2381 -0.0013
  141MOL0     H18984  10.479   9.248   5.215  0.9438 -2.1145  1.9327
  141MOL0     H18985  10.330   9.321   5.271  0.2748 -0.0810  0.6163
  141MOL0     H18986  10.681   9.313   5.426 -0.3419  0.2613  2.6148
  141MOL0     H18987  10.625   9.449   5.777 -0.2555 -1.3708 -0.9177
  141MOL0     H18988  10.756   9.394   5.659  3.2119  3.3388 -2.0076
  141MOL0     H18989  10.798   9.611   5.596  1.2996  2.5943  2.3543
  141MOL0     H18990  10.619   9.660   5.620 -1.1192 -0.1755  2.3404
  141MOL0     H18991  10.827   9.761   5.752  0.5459  1.2374  2.4069
  141MOL0     H18992  10.816   9.605   5.834 -1.8498 -2.3422 -1.8451
  141MOL0     H18993  10.704   9.743   5.973 -0.9713 -0.3712  0.1401
  141MOL0     H18994  10.577   9.654   5.875 -0.3440  0.0640  0.9090
  141MOL0     H18995  10.428   9.706   6.001  2.3624  0.2080 -0.5546
  141MOL0     H18996  10.229   9.807   6.101 -0.7108  0.8604  0.0166
  141MOL0     H18997   9.999  10.423   6.081  1.3311  3.2320 -0.1560
  141MOL0     H18998   9.924  10.557   6.274 -0.0716 -0.4519  1.2877
  141MOL0     H18999   9.839  10.278   6.581  1.6533 -0.2462 -2.1178
  141MOL0     H19000   9.748  10.409   6.650  1.5885  0.6244  0.6711
  141MOL0     H19001   9.633  10.448   6.427  1.5313  0.9678  0.7537
  141MOL0     H19002   9.728  10.334   6.347 -3.0250  4.9468 -3.0513
  141MOL0     H19003   9.626  10.163   6.531 -4.0449 -1.9923  2.4684
  141MOL0     H19004   9.528  10.291   6.600  0.2973 -0.3055 -0.1534
  141MOL0     H19005   9.515  10.154   6.329  0.9012  1.7218 -1.4487
  141MOL0     H19006   9.423  10.301   6.361 -1.3291 -2.4995 -2.6573
  141MOL0     H19007   9.417  10.058   6.537 -1.6661 -0.6400  1.1331
  141MOL0     H19008   9.318  10.071   6.394 -1.6461  0.9322  0.7296
  141MOL0     H19009   9.320  10.215   6.657  1.8075  0.6371 -1.3355
  141MOL0     H19010   9.239  10.292   6.518 -2.4223 -0.6930 -0.2235
  141MOL0     H19011   9.188  10.015   6.631 -0.0465 -1.1651 -1.9186
  141MOL0     H19012   9.109  10.059   6.504  2.8508  0.9060 -2.7039
  141MOL0     H19013   9.104  10.233   6.760 -2.0760 -1.5188  1.2608
  141MOL0     H19014   9.006  10.266   6.609 -1.2924  1.0068  1.7813
  141MOL0     H19015  10.048  10.228   6.535  0.9936 -1.3574 -0.4910
  141MOL0     H19016  10.137  10.114   6.355  3.5368  1.2228 -0.9531
  141MOL0     H19017  10.292  10.178   5.908 -1.6652 -0.0945 -1.0643
  141MOL0     H19018  10.479  10.076   5.781  3.8042 -3.7852 -1.3098
  141MOL0     H19019  10.233   8.473   4.886  0.4989  1.7525 -0.9374
  141MOL0     H19020  10.344   8.289   4.765 -1.6528 -2.0104 -1.3157
  141MOL0     H19021  10.295   7.795   4.612  0.7793  1.5500  1.3901
  141MOL0     H19022  10.386   7.616   4.452 -1.9233 -0.8194 -0.3120
  141MOL0     H19023  10.501   7.765   4.055  3.7278  0.8439 -1.5647
  141MOL0     H19024  10.502   7.586   4.028  0.2060  0.2791 -0.7825
  141MOL0     H19025  10.727   7.616   4.175 -1.1263 -0.7257 -0.2873
  141MOL0     H19026  10.694   7.793   4.147 -2.7098  0.1135 -0.2449
  141MOL0     H19027  10.849   7.736   4.005 -1.4295  0.8347  2.4726
  141MOL0     H19028  10.689   7.741   3.904 -2.6299 -3.8312  0.6461
  141MOL0     H19029  10.819   7.491   4.017  1.4600  0.9710  1.0847
  141MOL0     H19030  10.691   7.507   3.890  0.8944  1.3505 -1.6544
  141MOL0     H19031  11.039   7.591   3.659 -0.6593  1.7583  0.0723
  141MOL0     H19032  10.507   7.926   4.178  2.9540 -3.1991 -0.2835
  141MOL0     H19033  10.552   8.147   4.268 -1.2335  0.9104 -0.7196
  141MOL0     H19034  10.386   8.193   4.300  0.9596  3.1432 -0.8516
  141MOL0     H19035  10.505   8.184   4.437  0.3178  0.2279 -0.6884
  142MOL0     O19036   5.016  10.626  10.841  0.2696 -0.1563 -0.0331
  142MOL0     C19037   5.011  10.745  10.864 -0.7541  0.1040 -0.4116
  142MOL0     O19038   5.051  10.805  10.983 -0.3603 -1.3132  0.2554
  142MOL0     C19039   5.152  10.761  11.070  0.1627  0.1006  0.1683
  142MOL0     C19040   5.259  10.684  11.024 -0.4039 -0.0140  0.3728
  142MOL0     C19041   5.354  10.642  11.111  0.4068 -0.8560 -0.4549
  142MOL0     C19042   5.344  10.677  11.246  0.3094  0.9511 -0.4098
  142MOL0     O19043   5.451  10.632  11.330  0.3077  0.9429 -1.0915
  142MOL0     C19044   5.455  10.642  11.472 -0.1062  0.0078  0.8418
  142MOL0     C19045   5.591  10.620  11.529 -0.8914  0.0574  0.0084
  142MOL0     C19046   5.596  10.624  11.685  0.3449 -0.3619 -0.4857
  142MOL0     C19047   5.735  10.593  11.730 -1.4931 -0.2784  0.2136
  142MOL0     C19048   5.744  10.620  11.882 -0.4817 -0.6164 -0.6581
  142MOL0     C19049   5.684  10.510  11.967  0.6333  0.0307 -0.1388
  142MOL0     C19050   5.719  10.537  12.125  0.6447  0.7447 -0.4136
  142MOL0     C19051   5.627  10.461  12.221 -0.0497  0.1085  0.6582
  142MOL0     N19052   5.628  10.530  12.350  0.5243  0.2164  0.2851
  142MOL0     C19053   5.692  10.480  12.457  0.7633  0.4845  1.6932
  142MOL0     C19054   5.666  10.547  12.561  0.4832 -0.6493 -0.2166
  142MOL0     C19055   5.712  10.513  12.703  0.5427 -0.2832  0.3554
  142MOL0     C19056   5.846  10.588  12.731 -0.9078  0.7287 -0.2523
  142MOL0     C19057   5.844  10.744  12.739  0.0418 -0.4992 -0.3349
  142MOL0     C19058   5.990  10.793  12.769  0.0373 -0.4666 -0.3989
  142MOL0     O19059   6.050  10.746  12.895  0.0755 -0.1354  0.4664
  142MOL0     C19060   6.005  10.807  13.010 -0.2109 -0.0535 -0.4138
  142MOL0     C19061   5.950  10.938  13.027 -0.4515  0.1777  0.4275
  142MOL0     C19062   5.880  10.965  13.143  0.5835  1.5012 -0.1382
  142MOL0     C19063   5.884  10.880  13.249 -0.4239 -0.5098  0.1466
  142MOL0     C19064   5.810  10.912  13.373  0.1512 -0.0060  0.6372
  142MOL0     O19065   5.855  10.849  13.490 -0.1306  0.1968  0.6523
  142MOL0     C19066   5.797  10.885  13.612 -0.0922 -0.0211 -0.4206
  142MOL0     C19067   5.824  11.006  13.672  1.0273  0.2063  1.1755
  142MOL0     C19068   5.756  11.037  13.795 -0.2070 -1.3734 -0.1004
  142MOL0     C19069   5.676  10.945  13.865 -0.1795  0.5250 -1.2583
  142MOL0     O19070   5.615  10.990  13.980  1.0177 -0.1006  0.2998
  142MOL0     C19071   5.601  10.896  14.092  0.5325  0.1793  0.6185
  142MOL0     C19072   5.552  10.959  14.218 -0.8708  0.2368 -0.4845
  142MOL0     C19073   5.641  11.077  14.268  0.4598  0.3520 -0.3292
  142MOL0     C19074   5.782  11.030  14.310 -1.5710 -0.7085 -0.4240
  142MOL0     C19075   5.857  11.149  14.381  0.0874  0.6562 -0.4628
  142MOL0     C19076   6.010  11.120  14.397 -0.0551  0.5786  0.7561
  142MOL0     C19077   6.086  11.244  14.440  0.0426  0.0108 -0.2034
  142MOL0     C19078   6.217  11.204  14.512  0.4489 -0.8197 -1.0684
  142MOL0    Cl19079   6.327  11.344  14.497 -0.0784 -0.0794  0.0604
  142MOL0     C19080   5.652  10.822  13.797 -0.0671  0.7776  0.1129
  142MOL0     C19081   5.713  10.791  13.678 -0.9093  0.5492 -0.6399
  142MOL0     O19082   5.718  10.992  13.370  0.6358  0.5890 -0.4663
  142MOL0     C19083   5.951  10.751  13.234 -0.0567 -0.1979  0.2326
  142MOL0     C19084   6.011  10.717  13.112 -0.0581 -0.8728 -0.3687
  142MOL0     N19085   5.580  10.651  12.522 -0.1974  0.6708 -0.5878
  142MOL0     N19086   5.549  10.625  12.394 -0.0709 -0.2769  0.2289
  142MOL0     C19087   5.229  10.739  11.291 -0.3166 -0.0506 -0.0681
  142MOL0     C19088   5.131  10.777  11.201  0.4663 -0.2913  0.1659
  142MOL0     C19089   4.937  10.826  10.766 -0.1342 -0.0326  0.2777
  142MOL0     C19090   4.799  10.857  10.797 -0.8319  0.1993  0.2497
  142MOL0     C19091   4.727  10.935  10.707 -0.2488  0.1419  0.5686
  142MOL0     C19092   4.789  10.983  10.589  0.5127 -0.5103  0.2372
  142MOL0     O19093   4.733  11.075  10.501  0.0477 -0.0429 -0.0764
  142MOL0     C19094   4.598  11.081  10.485 -0.3993  0.7787  0.0483
  142MOL0     C19095   4.530  10.950  10.436 -0.5346  0.5353 -0.1384
  142MOL0     C19096   4.583  10.910  10.296  0.3888 -0.7002 -0.3108
  142MOL0     C19097   4.521  10.777  10.242  1.5066  0.1062  0.1839
  142MOL0     C19098   4.531  10.675  10.334  0.1824 -0.6083  0.2120
  142MOL0     C19099   4.548  10.581  10.416  0.1328 -0.0858  0.8196
  142MOL0     C19100   4.918  10.959  10.564  0.1715 -0.1582 -0.2955
  142MOL0     C19101   4.989  10.865  10.639 -0.1052  1.3000  0.3503
  142MOL0     C19102   5.125  10.822  10.598  0.3644  0.7343  0.1377
  142MOL0     H19103   5.282  10.656  10.922 -3.2987 -0.9346 -0.1212
  142MOL0     H19104   5.438  10.584  11.072  1.6521 -0.4379  1.4362
  142MOL0     H19105   5.418  10.741  11.501  0.6459  0.0822  1.5999
  142MOL0     H19106   5.392  10.569  11.522  1.4962 -0.8565  1.6961
  142MOL0     H19107   5.666  10.692  11.494  1.9574 -0.8540  3.6651
  142MOL0     H19108   5.625  10.520  11.499  2.3442  0.2983  2.2771
  142MOL0     H19109   5.520  10.552  11.716  1.6007 -1.2266  0.7442
  142MOL0     H19110   5.580  10.730  11.706  2.8432 -0.0463  0.1885
  142MOL0     H19111   5.768  10.492  11.704  1.3037  1.0722 -1.9586
  142MOL0     H19112   5.805  10.666  11.688  0.6267 -1.7250  1.0894
  142MOL0     H19113   5.847  10.621  11.917 -0.4936  1.2337 -0.5829
  142MOL0     H19114   5.701  10.718  11.905  3.2816  0.9211  0.6887
  142MOL0     H19115   5.577  10.513  11.944  1.0672  1.2467 -2.2699
  142MOL0     H19116   5.729  10.417  11.932  0.8009 -0.1907  0.6424
  142MOL0     H19117   5.713  10.644  12.146  1.1796  0.7763 -0.3969
  142MOL0     H19118   5.820  10.497  12.140  0.0757 -1.2391 -1.4502
  142MOL0     H19119   5.522  10.462  12.188  0.3608  0.1461 -0.7289
  142MOL0     H19120   5.642  10.353  12.227 -0.8766 -0.2080 -1.7827
  142MOL0     H19121   5.751  10.389  12.455 -0.2392 -0.1590  0.1868
  142MOL0     H19122   5.633  10.548  12.770  0.8382  0.2655  0.4297
  142MOL0     H19123   5.717  10.404  12.709  1.9612 -0.1515  3.1956
  142MOL0     H19124   5.884  10.550  12.826 -1.7854  2.3845  0.8021
  142MOL0     H19125   5.908  10.555  12.646 -0.8685  2.8317 -1.0969
  142MOL0     H19126   5.785  10.762  12.829 -1.4420 -1.7336 -1.0173
  142MOL0     H19127   5.796  10.798  12.657 -3.1044  2.4609  3.0819
  142MOL0     H19128   5.985  10.902  12.768 -0.4991 -0.4515  1.3981
  142MOL0     H19129   6.056  10.770  12.684 -0.7726 -0.6550 -0.9846
  142MOL0     H19130   5.954  11.005  12.942  1.6506  1.3226  1.3302
  142MOL0     H19131   5.819  11.054  13.159 -0.7917  0.6534 -0.5556
  142MOL0     H19132   5.901  11.075  13.640  0.4242  1.2068  1.8499
  142MOL0     H19133   5.780  11.131  13.843  1.1460 -1.0660 -1.3111
  142MOL0     H19134   5.531  10.817  14.065 -0.4050  0.4642  2.0963
  142MOL0     H19135   5.699  10.850  14.103  0.4320  0.4323  3.1746
  142MOL0     H19136   5.447  10.986  14.211 -1.1869 -1.0242 -0.7941
  142MOL0     H19137   5.555  10.886  14.299  0.8462  2.6036  1.7641
  142MOL0     H19138   5.634  11.168  14.207  0.0045  0.3097 -0.3397
  142MOL0     H19139   5.606  11.099  14.370  2.7184 -0.1182  0.6183
  142MOL0     H19140   5.842  10.986  14.229 -2.9291 -1.2691 -1.1715
  142MOL0     H19141   5.768  10.946  14.379 -2.3831 -2.0494 -2.1158
  142MOL0     H19142   5.816  11.165  14.481  1.3862  0.9446  0.0416
  142MOL0     H19143   5.838  11.242  14.327 -2.4367  1.4425  1.6006
  142MOL0     H19144   6.028  11.036  14.465  3.9385 -0.5211 -1.3470
  142MOL0     H19145   6.044  11.081  14.301 -0.5146  0.3352  0.6863
  142MOL0     H19146   6.028  11.304  14.511  0.8899 -0.2409  0.7404
  142MOL0     H19147   6.111  11.303  14.352  3.9967  1.7210  1.7761
  142MOL0     H19148   6.203  11.175  14.616 -0.9313  3.5954  0.2116
  142MOL0     H19149   6.270  11.125  14.458  1.6260 -1.9734  1.5896
  142MOL0     H19150   5.585  10.752  13.846  3.0562 -1.1119  2.0205
  142MOL0     H19151   5.689  10.696  13.631 -0.9160 -0.0006  0.4287
  142MOL0     H19152   5.966  10.687  13.321  1.1642  1.1079  1.0209
  142MOL0     H19153   6.052  10.617  13.097  0.6492 -0.5503 -0.6621
  142MOL0     H19154   5.212  10.768  11.394 -1.9286  1.1995 -0.6350
  142MOL0     H19155   5.035  10.815  11.235  0.3297  2.0321 -2.5232
  142MOL0     H19156   4.772  10.829  10.899  3.3857  0.2546  1.5834
  142MOL0     H19157   4.627  10.968  10.732  0.0336  1.3365  0.1616
  142MOL0     H19158   4.574  11.157  10.409  3.4706  1.1386 -1.0032
  142MOL0     H19159   4.552  11.116  10.578 -2.0526 -1.6579  0.2443
  142MOL0     H19160   4.427  10.974  10.408 -0.0172  1.6140 -1.1896
  142MOL0     H19161   4.539  10.878  10.517  1.9666  2.7960  1.7789
  142MOL0     H19162   4.692  10.895  10.302  0.5562  0.4452 -0.2172
  142MOL0     H19163   4.575  10.999  10.234 -1.5356 -1.0168 -0.5562
  142MOL0     H19164   4.416  10.792  10.215  0.8069 -0.5973  2.3256
  142MOL0     H19165   4.579  10.745  10.155  1.8907 -0.3656  0.6085
  142MOL0     H19166   4.559  10.501  10.486  0.2408 -1.5705 -0.8223
  142MOL0     H19167   4.969  10.996  10.475 -2.5915  1.1353 -1.4362
  142MOL0     H19168   5.099  10.729  10.546  1.9311 -1.1820  2.5865
  142MOL0     H19169   5.169  10.894  10.529  1.1400  1.2092  1.1071
  142MOL0     H19170   5.196  10.807  10.680  3.3572  0.4717 -2.3007
  143MOL0     O19171   5.877   9.993   0.230  0.6978  1.1686  0.0556
  143MOL0     C19172   5.839   9.944   0.126  0.0065 -0.3825  0.4626
  143MOL0     O19173   5.920   9.913   0.018  0.3462  0.4691 -0.3079
  143MOL0     C19174   6.057   9.893   0.024  0.3385  0.4614 -0.2065
  143MOL0     C19175   6.138   9.996   0.060  0.4470  0.5887 -0.0503
  143MOL0     C19176   6.276   9.975   0.048 -0.4590 -0.9826 -0.1123
  143MOL0     C19177   6.328   9.854   0.015 -0.2306 -0.2867  0.3834
  143MOL0     O19178   6.458   9.824   0.022 -0.4006 -0.2005  0.5771
  143MOL0     C19179   6.527   9.819  -0.102 -0.3587  0.1397  0.8540
  143MOL0     C19180   6.624   9.697  -0.101 -0.4461 -0.4663  0.1934
  143MOL0     C19181   6.570   9.577  -0.025  0.2443 -0.1379 -0.1874
  143MOL0     C19182   6.640   9.451  -0.089  0.3739  1.5980  0.0888
  143MOL0     C19183   6.595   9.324  -0.012  0.5244 -0.3036  0.0899
  143MOL0     C19184   6.643   9.323   0.126  0.0710 -0.1822  0.6074
  143MOL0     C19185   6.664   9.185   0.183  0.4632 -0.0431 -0.1922
  143MOL0     C19186   6.775   9.187   0.281  0.3478  0.4717  1.0345
  143MOL0     N19187   6.783   9.074   0.366 -0.5277 -0.1244  0.2402
  143MOL0     C19188   6.695   8.967   0.374 -0.4127  0.2983  0.4025
  143MOL0     C19189   6.735   8.893   0.475  0.1058 -0.3222 -0.0842
  143MOL0     C19190   6.673   8.763   0.514  0.2006 -0.5835  0.0633
  143MOL0     C19191   6.659   8.758   0.669 -0.1448  0.5082 -0.9685
  143MOL0     C19192   6.788   8.690   0.744 -0.2849 -0.3018 -0.8382
  143MOL0     C19193   6.768   8.677   0.897 -0.4145  0.3778 -0.9413
  143MOL0     O19194   6.891   8.643   0.967 -0.3412 -0.4366  0.5981
  143MOL0     C19195   6.983   8.742   0.989  0.1150  0.3266 -0.2265
  143MOL0     C19196   6.985   8.874   0.935  0.4739  0.4616  0.7450
  143MOL0     C19197   7.088   8.967   0.962 -0.7269  0.3190 -0.6265
  143MOL0     C19198   7.182   8.931   1.056  0.5122  0.9552  0.2337
  143MOL0     C19199   7.284   9.024   1.100  1.0272 -0.6091 -0.1157
  143MOL0     O19200   7.247   9.157   1.115 -1.0950  0.3303  0.7831
  143MOL0     C19201   7.351   9.234   1.164 -0.0478 -0.4990 -0.0309
  143MOL0     C19202   7.466   9.250   1.081  0.9409 -0.8262  0.9649
  143MOL0     C19203   7.577   9.322   1.119 -0.8887 -0.0598 -0.2654
  143MOL0     C19204   7.569   9.400   1.237  0.8779 -0.3560  0.6928
  143MOL0     O19205   7.672   9.482   1.264 -0.0816  0.2699  0.0603
  143MOL0     C19206   7.661   9.583   1.357  0.8326 -0.7585 -0.1579
  143MOL0     C19207   7.786   9.666   1.336  0.0254 -1.0959 -0.8504
  143MOL0     C19208   7.777   9.752   1.207 -0.1045  0.8466  0.1496
  143MOL0     C19209   7.901   9.831   1.195  0.3112  0.5433 -0.5548
  143MOL0     C19210   7.993   9.809   1.075  0.0411  0.0831 -0.3398
  143MOL0     C19211   8.074   9.686   1.085 -0.5251  0.3534 -0.1427
  143MOL0     C19212   8.139   9.658   0.949 -0.8265  0.3285 -0.7033
  143MOL0     C19213   8.244   9.543   0.960 -0.3005 -0.0572  0.1545
  143MOL0    Cl19214   8.160   9.399   0.965  0.3412 -0.1111 -0.0262
  143MOL0     C19215   7.454   9.382   1.324 -0.2656  0.2070 -0.6589
  143MOL0     C19216   7.345   9.305   1.280  0.0830 -0.0837 -0.0218
  143MOL0     O19217   7.387   8.979   1.145  0.0438 -0.3636 -0.1052
  143MOL0     C19218   7.187   8.801   1.118 -0.6411  0.3924  0.8258
  143MOL0     C19219   7.088   8.704   1.074  0.3498  0.1108 -0.2122
  143MOL0     N19220   6.840   8.959   0.537 -0.4868  0.6745  0.0519
  143MOL0     N19221   6.872   9.062   0.466 -0.0842 -0.1714 -0.2807
  143MOL0     C19222   6.244   9.752  -0.013  0.4539  0.4132 -0.4242
  143MOL0     C19223   6.103   9.768  -0.005 -1.0675  0.2707 -0.2698
  143MOL0     C19224   5.695   9.927   0.104 -0.5678 -0.5039 -0.1266
  143MOL0     C19225   5.659   9.955  -0.022  0.3929 -0.2547  0.4821
  143MOL0     C19226   5.525   9.950  -0.065  0.0260 -0.1053 -1.0059
  143MOL0     C19227   5.425   9.906   0.026  0.6504  0.0122 -1.1444
  143MOL0     O19228   5.294   9.891  -0.004  0.0664 -0.6228 -0.6625
  143MOL0     C19229   5.245   9.908  -0.141 -0.1511 -0.0645  0.6380
  143MOL0     C19230   5.104   9.875  -0.163 -0.5252  0.1588  0.5903
  143MOL0     C19231   5.032   9.830  -0.039  0.3189  0.4963 -0.2227
  143MOL0     C19232   4.981   9.950   0.029 -0.1081  0.3666 -0.5882
  143MOL0     C19233   4.860  10.007  -0.031  0.3046  0.1748  0.5488
  143MOL0     C19234   4.757  10.058  -0.071 -0.3283  0.4159 -0.1048
  143MOL0     C19235   5.470   9.861   0.146 -0.3636  0.6357 -0.2777
  143MOL0     C19236   5.601   9.882   0.196 -0.5872 -0.9613  1.2707
  143MOL0     C19237   5.644   9.832   0.333  0.3233 -0.8827  0.4259
  143MOL0     H19238   6.079  10.084   0.084  0.9996  1.3845 -1.5208
  143MOL0     H19239   6.355  10.047   0.065  0.2299 -0.8677 -3.2329
  143MOL0     H19240   6.465   9.803  -0.191  0.1901  0.1454  0.4671
  143MOL0     H19241   6.577   9.915  -0.114 -1.0003  0.4480  0.6244
  143MOL0     H19242   6.713   9.735  -0.050  0.0093 -3.3315  1.6894
  143MOL0     H19243   6.658   9.676  -0.203  2.5340  1.9276  0.5203
  143MOL0     H19244   6.464   9.561  -0.043  0.6472 -1.0154 -2.0627
  143MOL0     H19245   6.589   9.582   0.082  1.0601  0.0425 -0.3306
  143MOL0     H19246   6.621   9.439  -0.196 -2.6696 -0.4667  0.7465
  143MOL0     H19247   6.748   9.459  -0.074  0.8211 -1.8887 -0.4405
  143MOL0     H19248   6.490   9.296  -0.026  0.9237 -2.1183  0.4226
  143MOL0     H19249   6.632   9.231  -0.055  0.4870 -2.2282  3.7715
  143MOL0     H19250   6.736   9.380   0.133  1.4732 -2.1686 -0.6771
  143MOL0     H19251   6.574   9.376   0.192 -2.1015 -3.4185  1.1450
  143MOL0     H19252   6.690   9.109   0.109  1.5398 -0.6688  0.7925
  143MOL0     H19253   6.569   9.160   0.231  0.9752 -1.8594 -0.0782
  143MOL0     H19254   6.867   9.185   0.222 -0.6622  1.6041 -0.6803
  143MOL0     H19255   6.771   9.274   0.347 -0.5179  0.0651  1.5444
  143MOL0     H19256   6.615   8.938   0.307 -1.1504  1.8962  0.5396
  143MOL0     H19257   6.570   8.747   0.480  0.0797  0.7172 -0.2274
  143MOL0     H19258   6.737   8.692   0.461  1.6411  1.6422 -1.3535
  143MOL0     H19259   6.653   8.863   0.699  0.5147  0.8866 -2.0659
  143MOL0     H19260   6.567   8.707   0.697  0.8472 -0.1529  1.3238
  143MOL0     H19261   6.875   8.751   0.719  0.6262 -2.6258 -3.9457
  143MOL0     H19262   6.811   8.591   0.702  3.0016  0.4376 -1.0626
  143MOL0     H19263   6.704   8.592   0.920  0.7001  0.2786  2.4012
  143MOL0     H19264   6.731   8.771   0.940 -0.1583 -0.1954  0.5838
  143MOL0     H19265   6.905   8.901   0.867  0.4955 -0.9947  0.0959
  143MOL0     H19266   7.083   9.066   0.918 -3.4275 -0.1109 -1.5039
  143MOL0     H19267   7.465   9.201   0.985 -1.5730  2.3522 -0.8522
  143MOL0     H19268   7.660   9.341   1.051 -1.0326  0.3803 -0.3242
  143MOL0     H19269   7.583   9.658   1.338  0.9400 -0.9294 -1.3918
  143MOL0     H19270   7.665   9.546   1.459  2.6992 -4.2812 -1.3607
  143MOL0     H19271   7.813   9.722   1.426  0.7313 -1.3199 -0.9139
  143MOL0     H19272   7.871   9.599   1.319  1.2918  0.3773 -0.4442
  143MOL0     H19273   7.775   9.696   1.113 -0.1981 -0.6345  1.0065
  143MOL0     H19274   7.690   9.819   1.203 -2.6183 -2.0863  1.8997
  143MOL0     H19275   7.969   9.812   1.279  2.1789 -0.0591 -2.1441
  143MOL0     H19276   7.888   9.938   1.211  3.5999  0.6762  2.7264
  143MOL0     H19277   8.051   9.901   1.060 -0.9747  0.3193 -3.4377
  143MOL0     H19278   7.928   9.801   0.988 -0.3445 -3.2162  0.1325
  143MOL0     H19279   8.142   9.705   1.169 -1.1576 -0.6597  0.6104
  143MOL0     H19280   8.022   9.598   1.123 -0.0090 -0.1868 -0.6602
  143MOL0     H19281   8.192   9.746   0.911 -0.7007 -0.8398 -3.4042
  143MOL0     H19282   8.067   9.619   0.877  0.9708 -2.8377 -0.9982
  143MOL0     H19283   8.295   9.565   0.866 -0.4210 -0.7831 -0.0902
  143MOL0     H19284   8.302   9.551   1.052 -0.2030  2.0650 -0.0399
  143MOL0     H19285   7.450   9.427   1.423 -2.0782 -4.1937  1.5452
  143MOL0     H19286   7.265   9.280   1.348 -0.8116  0.3914 -0.8785
  143MOL0     H19287   7.258   8.777   1.196  0.4489 -0.2972 -0.3331
  143MOL0     H19288   7.096   8.604   1.113  3.2627 -0.1871 -1.3128
  143MOL0     H19289   6.279   9.654  -0.045  0.6227  0.3713 -0.1107
  143MOL0     H19290   6.044   9.677  -0.006  0.3463 -0.7025  0.9463
  143MOL0     H19291   5.719  10.013  -0.091 -2.1098  1.2528 -0.5407
  143MOL0     H19292   5.491   9.989  -0.160 -1.9128  0.7711 -0.0211
  143MOL0     H19293   5.301   9.857  -0.220 -1.4039 -4.1569  2.1369
  143MOL0     H19294   5.263  10.014  -0.164  0.0791 -0.4324 -1.0509
  143MOL0     H19295   5.117   9.792  -0.233  2.4231  2.3305 -1.7341
  143MOL0     H19296   5.050   9.949  -0.223 -1.2959 -0.8337  0.0374
  143MOL0     H19297   5.104   9.779   0.026  1.2458  1.5989 -0.3717
  143MOL0     H19298   4.962   9.750  -0.065  2.0125 -2.2104  2.8179
  143MOL0     H19299   4.943   9.916   0.126 -0.4153  0.2257 -0.7601
  143MOL0     H19300   5.057  10.029   0.032 -0.2583  0.5273 -0.9328
  143MOL0     H19301   4.673  10.113  -0.109 -0.3898  0.7967  0.5818
  143MOL0     H19302   5.401   9.808   0.211 -0.0962  0.3719 -0.2055
  143MOL0     H19303   5.743   9.785   0.337  0.0760 -1.3766  1.0203
  143MOL0     H19304   5.646   9.921   0.397  3.2618 -2.2389  2.4979
  143MOL0     H19305   5.570   9.760   0.369 -2.2381  0.7974 -1.2285
  144MOL0     O19306   9.605   2.999   6.718  0.3290 -0.7187  0.5092
  144MOL0     C19307   9.614   3.050   6.607  1.1849 -0.3367  1.0514
  144MOL0     O19308   9.678   3.174   6.591 -0.0139 -0.4284  0.3646
  144MOL0     C19309   9.733   3.245   6.697  0.5776 -0.7295 -0.0058
  144MOL0     C19310   9.643   3.308   6.786  0.6317 -0.5249 -0.1247
  144MOL0     C19311   9.694   3.391   6.893 -0.8749 -0.4735  0.1217
  144MOL0     C19312   9.831   3.400   6.909  0.1049  0.0223  0.1469
  144MOL0     O19313   9.872   3.475   7.015 -0.0638  0.1756 -1.1783
  144MOL0     C19314  10.003   3.474   7.072 -0.2755  0.5631 -0.1848
  144MOL0     C19315  10.056   3.613   7.077 -0.6485 -0.0807 -0.1494
  144MOL0     C19316  10.179   3.635   7.164 -0.1100 -0.4736 -0.1514
  144MOL0     C19317  10.137   3.662   7.314  1.0423 -0.9576 -0.5239
  144MOL0     C19318  10.261   3.680   7.397  0.0778  0.0303  0.3415
  144MOL0     C19319  10.233   3.691   7.545 -0.0698  0.0625 -0.3824
  144MOL0     C19320  10.359   3.720   7.623 -0.1650  0.6177 -0.1103
  144MOL0     C19321  10.320   3.759   7.768 -0.9148  0.0749  0.1031
  144MOL0     N19322  10.440   3.783   7.851  0.0817 -0.1249  0.6496
  144MOL0     C19323  10.452   3.868   7.958  0.8960 -0.2659  0.9667
  144MOL0     C19324  10.576   3.860   8.003  0.3667 -0.3750  0.4884
  144MOL0     C19325  10.627   3.945   8.116 -1.2423  0.8827 -0.4837
  144MOL0     C19326  10.554   3.927   8.251  0.5271  0.2919 -0.4925
  144MOL0     C19327  10.544   3.773   8.287 -0.2408  0.2704  0.2042
  144MOL0     C19328  10.689   3.704   8.303 -0.7006 -0.3680  0.0948
  144MOL0     O19329  10.749   3.790   8.402 -0.8118 -0.1202  0.1128
  144MOL0     C19330  10.868   3.751   8.465  0.5345 -0.5043 -0.3053
  144MOL0     C19331  10.899   3.804   8.594 -0.0065 -0.4857 -0.5519
  144MOL0     C19332  11.020   3.768   8.650 -1.0246  0.3090 -0.0901
  144MOL0     C19333  11.110   3.683   8.583  0.7530  0.7370 -0.3209
  144MOL0     C19334  11.249   3.654   8.639 -0.0008 -0.3033  0.1678
  144MOL0     O19335  11.338   3.584   8.571  0.1156  0.1765  0.3507
  144MOL0     C19336  11.469   3.582   8.601 -2.0145 -0.3125 -0.1736
  144MOL0     C19337  11.549   3.694   8.627 -0.6036  0.4986  0.3235
  144MOL0     C19338  11.682   3.696   8.672  0.2880 -0.7352  0.3926
  144MOL0     C19339  11.747   3.575   8.683 -0.1260  0.0890 -0.2743
  144MOL0     O19340  11.879   3.557   8.694  0.1019  0.1584  0.4339
  144MOL0     C19341  11.928   3.599   8.824 -0.6936 -0.0037  0.7269
  144MOL0     C19342  12.061   3.535   8.844  0.3184  0.5289  0.0754
  144MOL0     C19343  12.039   3.387   8.905 -0.1940  0.1262 -0.8129
  144MOL0     C19344  11.974   3.380   9.052  0.1139  0.1574  0.3926
  144MOL0     C19345  11.951   3.234   9.101 -0.6886 -0.1759  0.8652
  144MOL0     C19346  11.818   3.216   9.165 -0.3690  0.0726 -0.1420
  144MOL0     C19347  11.794   3.080   9.229 -0.0419  0.1781 -0.3919
  144MOL0     C19348  11.643   3.080   9.268 -0.8198 -0.6509  0.2285
  144MOL0    Cl19349  11.615   2.940   9.371 -0.0284 -0.2408  0.4257
  144MOL0     C19350  11.676   3.457   8.666  0.8600  0.7753  0.8277
  144MOL0     C19351  11.540   3.455   8.621 -0.5110 -0.8306  0.0894
  144MOL0     O19352  11.279   3.708   8.745 -0.0729  1.0280 -0.9404
  144MOL0     C19353  11.067   3.630   8.461  0.5889  0.1970 -1.5802
  144MOL0     C19354  10.944   3.657   8.404 -0.2696 -0.0788  0.1382
  144MOL0     N19355  10.640   3.754   7.931  0.7017  0.0490 -0.3360
  144MOL0     N19356  10.561   3.718   7.837  0.5970  0.4316  0.3314
  144MOL0     C19357   9.921   3.322   6.827 -0.0356 -0.4170  1.0923
  144MOL0     C19358   9.877   3.248   6.717  0.8839 -0.0779 -0.0299
  144MOL0     C19359   9.544   2.995   6.490  0.3923  0.3650 -0.3168
  144MOL0     C19360   9.519   3.075   6.379 -0.6829  0.2251 -0.3742
  144MOL0     C19361   9.452   3.033   6.261  0.9138  0.3017  0.1004
  144MOL0     C19362   9.400   2.913   6.258 -0.2596  0.2685 -0.5464
  144MOL0     O19363   9.320   2.876   6.148  0.4325 -0.1008 -0.0705
  144MOL0     C19364   9.201   2.796   6.184  0.0718 -0.2935 -0.2122
  144MOL0     C19365   9.213   2.650   6.131  0.9015 -1.0125  0.0066
  144MOL0     C19366   9.079   2.596   6.083  0.2216  0.6903  0.8711
  144MOL0     C19367   9.026   2.675   5.960 -0.0426  0.1267 -0.6895
  144MOL0     C19368   8.950   2.599   5.873 -0.3236  0.5539 -0.8852
  144MOL0     C19369   8.886   2.551   5.784  0.0125 -0.3361  1.2644
  144MOL0     C19370   9.428   2.821   6.361  0.2784 -0.3755 -0.7472
  144MOL0     C19371   9.490   2.863   6.479  0.5951 -0.1747 -0.2305
  144MOL0     C19372   9.520   2.766   6.592 -0.4712 -0.6655 -0.6071
  144MOL0     H19373   9.535   3.305   6.772  0.5969 -1.8104  0.2564
  144MOL0     H19374   9.632   3.456   6.954  3.5336  4.1764  0.2720
  144MOL0     H19375   9.992   3.452   7.178  2.4951  2.4864  0.6310
  144MOL0     H19376  10.073   3.401   7.030 -1.1104 -0.2478 -0.2050
  144MOL0     H19377   9.973   3.677   7.110 -0.1644 -0.5155  2.1149
  144MOL0     H19378  10.093   3.646   6.979  2.0539 -3.2138 -0.3422
  144MOL0     H19379  10.232   3.724   7.130 -1.2259  0.8052  1.3078
  144MOL0     H19380  10.257   3.560   7.150 -1.7093 -1.9825 -1.4825
  144MOL0     H19381  10.066   3.745   7.319 -1.3683 -2.9102 -0.3851
  144MOL0     H19382  10.085   3.577   7.360  0.5686 -1.9722 -2.7522
  144MOL0     H19383  10.333   3.600   7.376  0.7238 -0.0839  2.6767
  144MOL0     H19384  10.300   3.775   7.362  0.9024 -0.3440  0.2274
  144MOL0     H19385  10.164   3.774   7.561 -0.0978 -0.1530  0.6742
  144MOL0     H19386  10.191   3.595   7.578 -1.2630 -0.0103 -1.9352
  144MOL0     H19387  10.413   3.798   7.568 -0.7584 -1.0728 -3.3342
  144MOL0     H19388  10.425   3.633   7.629  3.2467  3.0348 -0.1173
  144MOL0     H19389  10.253   3.845   7.761 -0.6581  0.2380 -0.4503
  144MOL0     H19390  10.275   3.680   7.829 -0.3457  0.0954  0.5512
  144MOL0     H19391  10.377   3.939   7.993 -1.9466  0.1193 -4.7517
  144MOL0     H19392  10.728   3.915   8.144 -1.6404 -0.8633 -0.7896
  144MOL0     H19393  10.630   4.051   8.089  1.5011  0.9576 -0.1628
  144MOL0     H19394  10.607   3.984   8.328 -1.2164 -1.2779  2.0226
  144MOL0     H19395  10.449   3.955   8.247  1.5730  4.7715 -1.7361
  144MOL0     H19396  10.486   3.722   8.210  5.3399 -2.8556 -2.5669
  144MOL0     H19397  10.493   3.768   8.384  1.1229  0.7023  0.9864
  144MOL0     H19398  10.748   3.719   8.212 -0.1038  0.3070  0.5852
  144MOL0     H19399  10.684   3.596   8.322 -1.3711 -0.1883  0.9928
  144MOL0     H19400  10.837   3.876   8.646  0.3277 -3.4064  4.5377
  144MOL0     H19401  11.063   3.821   8.735  2.3326  1.4846 -2.3126
  144MOL0     H19402  11.492   3.786   8.622 -0.7059  0.4675  0.8618
  144MOL0     H19403  11.727   3.791   8.700  0.9780 -0.7225 -0.6856
  144MOL0     H19404  11.953   3.706   8.823 -0.5457  0.0070  2.3391
  144MOL0     H19405  11.847   3.581   8.895  0.4802 -0.7847  1.9009
  144MOL0     H19406  12.109   3.528   8.746  0.9344 -1.7106  0.4872
  144MOL0     H19407  12.127   3.588   8.914  4.0013 -0.3454 -2.4918
  144MOL0     H19408  11.991   3.328   8.827 -0.7184  3.3366 -3.1355
  144MOL0     H19409  12.138   3.340   8.911 -1.2408 -2.2396 -1.0486
  144MOL0     H19410  11.882   3.439   9.051  1.0983  1.7262  0.8119
  144MOL0     H19411  12.038   3.427   9.126  2.0520 -0.9819 -0.4957
  144MOL0     H19412  12.026   3.219   9.178  0.4207  0.1148 -0.1300
  144MOL0     H19413  11.970   3.158   9.024 -0.4696 -0.2402  0.9812
  144MOL0     H19414  11.815   3.295   9.241  1.3864 -1.7935  1.9902
  144MOL0     H19415  11.739   3.222   9.089 -2.7766  0.5975  2.2386
  144MOL0     H19416  11.847   3.062   9.323 -0.3956 -3.4635 -0.7642
  144MOL0     H19417  11.826   2.993   9.171  1.6739 -1.0745  2.2318
  144MOL0     H19418  11.618   3.159   9.340 -3.4531 -1.3926  0.2185
  144MOL0     H19419  11.568   3.087   9.189 -1.7786 -1.5961  1.0212
  144MOL0     H19420  11.724   3.360   8.660 -3.8217 -1.7732 -0.8896
  144MOL0     H19421  11.495   3.359   8.597 -0.7804 -0.9660  1.0855
  144MOL0     H19422  11.144   3.569   8.415  2.5676  1.7803 -0.5648
  144MOL0     H19423  10.913   3.615   8.309 -0.1024  3.1349 -1.4637
  144MOL0     H19424  10.025   3.326   6.858  0.2688  0.6630  0.0015
  144MOL0     H19425   9.938   3.205   6.638  1.0870  0.7488 -0.3350
  144MOL0     H19426   9.557   3.177   6.376 -3.4436  1.3690 -0.3085
  144MOL0     H19427   9.446   3.106   6.181  0.0790 -0.0845 -0.2037
  144MOL0     H19428   9.107   2.835   6.143 -1.4186 -3.5575 -0.2058
  144MOL0     H19429   9.175   2.789   6.290  2.1582  0.3117  0.3829
  144MOL0     H19430   9.265   2.591   6.207 -1.6027 -2.7497  0.5071
  144MOL0     H19431   9.279   2.662   6.045 -1.4485  3.6356 -1.5173
  144MOL0     H19432   9.011   2.604   6.169 -0.1792 -1.4631  0.7910
  144MOL0     H19433   9.082   2.489   6.061 -0.8240  1.2208 -2.2627
  144MOL0     H19434   8.956   2.750   5.998  1.7299  1.3496  0.3063
  144MOL0     H19435   9.104   2.731   5.909  2.8172 -2.3300  0.6850
  144MOL0     H19436   8.808   2.513   5.721  0.3353  1.7708 -0.5289
  144MOL0     H19437   9.400   2.717   6.347 -0.8089 -0.3823  1.1908
  144MOL0     H19438   9.487   2.797   6.692 -2.7970 -1.7134 -0.9681
  144MOL0     H19439   9.465   2.673   6.579 -1.1321 -0.6948  1.9254
  144MOL0     H19440   9.628   2.750   6.587 -0.5685 -1.0352 -1.9342
  145MOL0     O19441   9.958  10.645   8.327  0.2848  0.1991 -0.3279
  145MOL0     C19442   9.968  10.689   8.444 -0.0744  0.1942 -0.0252
  145MOL0     O19443   9.872  10.687   8.535  0.8891 -0.4783 -0.1087
  145MOL0     C19444   9.742  10.678   8.485 -0.0343 -0.1061  0.5519
  145MOL0     C19445   9.679  10.799   8.441  0.1807 -0.8775  0.3497
  145MOL0     C19446   9.540  10.796   8.396  0.1149  0.1768 -1.0226
  145MOL0     C19447   9.480  10.671   8.387  0.7102 -0.7561  0.9997
  145MOL0     O19448   9.360  10.669   8.324  0.5213 -0.5370 -0.0983
  145MOL0     C19449   9.281  10.555   8.359  0.6070 -1.5782  0.5599
  145MOL0     C19450   9.142  10.568   8.311 -0.2166  0.5513 -0.1827
  145MOL0     C19451   9.052  10.689   8.373  0.4708  0.0216 -0.1847
  145MOL0     C19452   9.070  10.697   8.530 -0.5109 -0.1357 -0.8663
  145MOL0     C19453   8.959  10.766   8.597  0.9732 -0.6602 -0.4592
  145MOL0     C19454   8.975  10.765   8.745  0.1483 -1.3619 -0.9498
  145MOL0     C19455   8.856  10.833   8.827  0.5315  0.5408  1.1029
  145MOL0     C19456   8.817  10.976   8.783 -0.7625 -0.1829 -0.7420
  145MOL0     N19457   8.690  10.970   8.709  0.3172 -0.6901 -0.1260
  145MOL0     C19458   8.671  10.933   8.581 -0.2623  0.0991 -0.3797
  145MOL0     C19459   8.534  10.916   8.569 -0.1506 -0.6837 -0.3780
  145MOL0     C19460   8.445  10.884   8.454  0.2439  0.5143  0.1929
  145MOL0     C19461   8.509  10.913   8.325  0.1243 -0.6740 -0.9359
  145MOL0     C19462   8.609  10.814   8.274  0.8029 -0.2312 -0.9524
  145MOL0     C19463   8.672  10.854   8.146 -0.2966  0.6161  0.9873
  145MOL0     O19464   8.780  10.936   8.168  0.1160 -0.0808 -0.0364
  145MOL0     C19465   8.829  11.025   8.071  1.1882  0.4646 -1.0565
  145MOL0     C19466   8.741  11.099   7.976  0.1962 -0.4944 -0.1432
  145MOL0     C19467   8.797  11.147   7.857  0.0002  0.5714 -0.3880
  145MOL0     C19468   8.934  11.140   7.835 -0.2042 -0.1602  0.5220
  145MOL0     C19469   9.008  11.198   7.716  0.1923  0.2145 -0.7323
  145MOL0     O19470   8.934  11.224   7.614 -0.3214 -0.5001  0.3875
  145MOL0     C19471   8.989  11.272   7.492  0.2835 -0.0447 -0.3372
  145MOL0     C19472   9.004  11.182   7.383 -0.5040 -0.3677 -0.1200
  145MOL0     C19473   9.087  11.209   7.279 -0.1426 -0.3368 -0.8728
  145MOL0     C19474   9.167  11.324   7.283  0.6514 -0.4807 -0.3237
  145MOL0     O19475   9.259  11.361   7.189 -0.0233 -0.0575 -0.4176
  145MOL0     C19476   9.277  11.273   7.071  0.1044 -0.0320 -0.6442
  145MOL0     C19477   9.414  11.311   6.995 -0.0480  0.2740  0.1183
  145MOL0     C19478   9.409  11.445   6.925  0.0717  0.0496 -0.7546
  145MOL0     C19479   9.465  11.558   7.020 -0.5071  0.5831 -0.0861
  145MOL0     C19480   9.465  11.697   6.942 -0.7695  0.8732 -0.6879
  145MOL0     C19481   9.504  11.811   7.028  0.3234 -0.4419 -0.2478
  145MOL0     C19482   9.469  11.953   6.977 -0.2015  1.1465 -0.6040
  145MOL0     C19483   9.321  11.990   7.000  0.5965 -0.1859  0.6037
  145MOL0    Cl19484   9.319  12.161   7.001  0.5104 -0.4192 -0.2451
  145MOL0     C19485   9.165  11.403   7.396 -0.2568 -0.7441 -0.8314
  145MOL0     C19486   9.071  11.382   7.496  0.2992  0.8789 -0.2892
  145MOL0     O19487   9.129  11.226   7.727  0.2391 -0.2205  0.4706
  145MOL0     C19488   9.013  11.082   7.933 -0.0721 -0.2850  0.5162
  145MOL0     C19489   8.967  11.024   8.052  0.3436 -0.5488  0.1902
  145MOL0     N19490   8.479  10.963   8.690  0.2489  0.4477  0.0955
  145MOL0     N19491   8.572  11.001   8.769 -0.3437 -0.0748  0.0060
  145MOL0     C19492   9.537  10.559   8.446  0.5518 -0.3906  0.2372
  145MOL0     C19493   9.662  10.564   8.498 -0.7251 -1.0836  0.7755
  145MOL0     C19494  10.100  10.735   8.504  0.3719  0.2539  0.2810
  145MOL0     C19495  10.109  10.769   8.638 -0.5602 -0.2231 -0.2876
  145MOL0     C19496  10.231  10.817   8.696 -0.3793 -0.3371 -0.5993
  145MOL0     C19497  10.342  10.816   8.619  0.4737  0.3031 -0.3450
  145MOL0     O19498  10.464  10.854   8.664  0.1745 -0.3779  0.0529
  145MOL0     C19499  10.498  10.887   8.800  0.3020  0.9947 -0.6555
  145MOL0     C19500  10.497  10.757   8.881 -1.3112  0.3979 -0.1549
  145MOL0     C19501  10.584  10.651   8.805 -0.3430  0.2374  0.0949
  145MOL0     C19502  10.638  10.525   8.890 -0.0744  0.1959  1.1370
  145MOL0     C19503  10.518  10.445   8.944 -0.0799 -0.0632 -0.1540
  145MOL0     C19504  10.431  10.380   8.996 -0.1314 -0.1002  0.2557
  145MOL0     C19505  10.333  10.798   8.478 -0.3223 -0.4047  0.1752
  145MOL0     C19506  10.213  10.762   8.418  0.6209 -0.2163  0.1352
  145MOL0     C19507  10.208  10.746   8.263 -0.0292  0.4465 -0.1974
  145MOL0     H19508   9.738  10.890   8.450 -2.0312  0.8259 -1.2502
  145MOL0     H19509   9.498  10.891   8.366 -1.4169  0.7107  2.3669
  145MOL0     H19510   9.334  10.478   8.303  2.7997  0.2584 -0.0072
  145MOL0     H19511   9.282  10.537   8.467  1.0568 -1.0418  0.6478
  145MOL0     H19512   9.082  10.479   8.330  0.8015  0.2884  2.0972
  145MOL0     H19513   9.148  10.581   8.203  3.9660  1.6556  0.0079
  145MOL0     H19514   8.951  10.680   8.331  1.4249  1.6670 -3.1353
  145MOL0     H19515   9.096  10.782   8.337  2.0727 -0.2560  0.9790
  145MOL0     H19516   9.088  10.602   8.580 -0.7909 -0.8329 -2.0463
  145MOL0     H19517   9.154  10.762   8.553  0.5737 -1.8114  0.1200
  145MOL0     H19518   8.941  10.866   8.558  0.0610 -0.2914  0.8570
  145MOL0     H19519   8.867  10.711   8.575  1.0247 -0.1944 -1.9381
  145MOL0     H19520   8.978  10.659   8.770 -0.1143 -1.2626 -0.4919
  145MOL0     H19521   9.069  10.808   8.782  0.2854 -0.3610 -2.4023
  145MOL0     H19522   8.901  10.855   8.925 -2.3517 -0.0225  2.6675
  145MOL0     H19523   8.764  10.774   8.837 -0.6463  2.1552  0.1025
  145MOL0     H19524   8.814  11.033   8.876  0.1592 -1.3965  0.0636
  145MOL0     H19525   8.897  11.022   8.724 -2.5059  3.9893 -0.2116
  145MOL0     H19526   8.742  10.900   8.506  0.1699 -1.4389  0.6604
  145MOL0     H19527   8.403  10.783   8.452  0.3201  0.4579  1.0481
  145MOL0     H19528   8.356  10.945   8.468 -1.0343 -1.0524 -0.7607
  145MOL0     H19529   8.429  10.914   8.251 -1.7443  0.2770  0.9943
  145MOL0     H19530   8.545  11.017   8.329 -1.6354  0.1032 -3.2634
  145MOL0     H19531   8.540  10.733   8.250 -0.4395  0.2564  0.7421
  145MOL0     H19532   8.684  10.766   8.339  1.2049 -2.4195 -2.9017
  145MOL0     H19533   8.592  10.901   8.087 -0.8363  1.6101  2.4620
  145MOL0     H19534   8.697  10.766   8.086 -1.5268  1.6084 -1.1256
  145MOL0     H19535   8.633  11.094   7.975  0.2301 -1.5088 -1.9900
  145MOL0     H19536   8.729  11.190   7.784  0.6696  1.5610 -0.4410
  145MOL0     H19537   8.953  11.088   7.398 -2.8284  0.8229 -0.0545
  145MOL0     H19538   9.101  11.133   7.203  0.4402 -2.0782  0.8847
  145MOL0     H19539   9.289  11.168   7.102  0.7042  1.2273  4.1892
  145MOL0     H19540   9.190  11.294   7.009 -0.0936  1.9812  0.2528
  145MOL0     H19541   9.486  11.316   7.077 -0.0693  4.7135  0.1142
  145MOL0     H19542   9.448  11.235   6.923  0.5095 -0.0968  0.7540
  145MOL0     H19543   9.471  11.453   6.835  1.2869 -0.5442 -0.0025
  145MOL0     H19544   9.303  11.468   6.909 -0.8960 -0.8563  3.3405
  145MOL0     H19545   9.568  11.542   7.053 -0.8822  2.0597  2.0116
  145MOL0     H19546   9.409  11.570   7.114 -2.7202  0.7313 -1.3592
  145MOL0     H19547   9.362  11.706   6.905 -0.1396 -1.4283 -3.3462
  145MOL0     H19548   9.540  11.685   6.863  0.1806 -1.8750  0.5318
  145MOL0     H19549   9.451  11.809   7.124 -0.9489  0.4602 -0.9191
  145MOL0     H19550   9.612  11.816   7.048  0.2380  4.3324 -0.0028
  145MOL0     H19551   9.504  11.954   6.873 -1.1291 -0.6849 -0.9643
  145MOL0     H19552   9.526  12.033   7.025 -0.3456  1.6379 -1.2453
  145MOL0     H19553   9.266  11.950   6.915 -1.0126  1.9082  0.5579
  145MOL0     H19554   9.297  11.948   7.097  1.6412 -1.5444  0.3015
  145MOL0     H19555   9.233  11.487   7.395 -0.4513 -0.5871 -1.8000
  145MOL0     H19556   9.057  11.455   7.574  0.5409  0.4425  0.1665
  145MOL0     H19557   9.120  11.084   7.917 -0.3467 -0.5121 -1.5579
  145MOL0     H19558   9.050  10.980   8.107  2.3059  2.2031 -0.3272
  145MOL0     H19559   9.488  10.463   8.455  0.4196 -0.5578 -1.9111
  145MOL0     H19560   9.704  10.474   8.540 -0.3609  0.0196  2.9048
  145MOL0     H19561  10.024  10.763   8.706  1.3113  1.4191  2.4309
  145MOL0     H19562  10.229  10.839   8.802  1.4905 -1.1947 -0.3440
  145MOL0     H19563  10.427  10.960   8.840  1.2871  0.7422  1.6664
  145MOL0     H19564  10.598  10.929   8.814  1.7708 -1.7913 -2.0032
  145MOL0     H19565  10.397  10.713   8.881 -0.4659 -1.7262 -2.4487
  145MOL0     H19566  10.543  10.778   8.978  3.1529  3.7069 -2.6054
  145MOL0     H19567  10.678  10.703   8.788 -1.1381  1.5601 -0.4052
  145MOL0     H19568  10.534  10.628   8.710  1.5901 -0.6866 -0.7623
  145MOL0     H19569  10.701  10.471   8.820  1.0956  2.7165  0.1259
  145MOL0     H19570  10.683  10.558   8.984 -3.5601  2.3873  2.2573
  145MOL0     H19571  10.358  10.315   9.041 -0.5404 -0.7537 -1.2930
  145MOL0     H19572  10.417  10.828   8.417  0.7300  0.1582  1.8273
  145MOL0     H19573  10.182  10.643   8.237  1.6334  0.0217 -0.3175
  145MOL0     H19574  10.134  10.816   8.224 -0.2627 -0.2696 -1.0602
  145MOL0     H19575  10.299  10.781   8.215 -0.0375  1.3954  0.4559
  146MOL0     O19576   6.130   3.518   3.151 -0.4198 -0.4612 -0.0419
  146MOL0     C19577   6.118   3.631   3.104 -0.3386  0.8321 -0.6277
  146MOL0     O19578   6.006   3.677   3.039  0.3607  0.8174 -0.4247
  146MOL0     C19579   5.875   3.620   3.040 -1.1783 -0.1278  0.3586
  146MOL0     C19580   5.794   3.642   2.927 -0.0841  0.1388 -1.0371
  146MOL0     C19581   5.673   3.580   2.911  0.7086  1.2494  0.9577
  146MOL0     C19582   5.614   3.505   3.016 -0.0833 -0.8235  0.2745
  146MOL0     O19583   5.496   3.451   3.000 -0.2567  0.7136 -0.3620
  146MOL0     C19584   5.395   3.520   2.929 -0.0868 -0.0846  0.1820
  146MOL0     C19585   5.261   3.439   2.935  0.4422  0.1903 -0.4275
  146MOL0     C19586   5.210   3.395   3.074 -0.1370 -0.8100  1.2123
  146MOL0     C19587   5.099   3.291   3.049  0.2594  0.0730 -0.0942
  146MOL0     C19588   5.171   3.159   3.023  0.3546 -0.8686  0.6982
  146MOL0     C19589   5.085   3.039   3.048 -0.8399 -0.4944  0.6957
  146MOL0     C19590   5.157   2.913   2.987  0.0810  0.1804 -0.2435
  146MOL0     C19591   5.094   2.775   3.018  0.0227 -0.3404 -0.1538
  146MOL0     N19592   5.162   2.705   3.132 -0.3430 -0.3926 -0.3917
  146MOL0     C19593   5.108   2.693   3.253 -0.0223  0.6077  0.0125
  146MOL0     C19594   5.185   2.602   3.312 -0.2338 -0.3046 -0.3092
  146MOL0     C19595   5.156   2.533   3.444 -0.1442 -0.1136  0.0188
  146MOL0     C19596   5.049   2.424   3.403  0.3238 -0.2179 -0.0373
  146MOL0     C19597   5.016   2.351   3.533 -0.4520 -0.0412  0.6127
  146MOL0     C19598   4.893   2.262   3.523  0.0086  0.2193 -0.0627
  146MOL0     O19599   4.931   2.142   3.455  0.0137 -0.0432  0.9395
  146MOL0     C19600   4.834   2.050   3.420 -0.1645  0.3318 -0.0970
  146MOL0     C19601   4.871   1.913   3.415 -0.5140  0.4496  0.5675
  146MOL0     C19602   4.770   1.816   3.400  0.3846 -0.3700  0.7774
  146MOL0     C19603   4.636   1.844   3.359 -0.1619 -0.0602  0.4021
  146MOL0     C19604   4.535   1.731   3.335 -0.1703 -0.8580 -0.1334
  146MOL0     O19605   4.556   1.613   3.409  0.1451  0.3193 -0.1583
  146MOL0     C19606   4.468   1.514   3.396 -1.0926  1.0180 -0.2792
  146MOL0     C19607   4.471   1.449   3.273  0.1002 -0.9609  0.7373
  146MOL0     C19608   4.387   1.333   3.244 -0.3019  0.1882 -0.4852
  146MOL0     C19609   4.302   1.290   3.345 -0.4424 -0.1099 -0.4868
  146MOL0     O19610   4.230   1.180   3.317 -0.1863 -0.1885  0.7056
  146MOL0     C19611   4.144   1.119   3.410 -0.7366  0.2939  0.7163
  146MOL0     C19612   4.093   0.986   3.342  0.0390  0.0881 -0.6101
  146MOL0     C19613   4.010   1.001   3.208  0.4240 -0.3008 -0.2053
  146MOL0     C19614   3.892   1.103   3.214 -0.0304  0.5913 -0.3524
  146MOL0     C19615   3.842   1.138   3.066 -0.0936  0.1023  0.0212
  146MOL0     C19616   3.789   1.281   3.056 -0.0810 -0.1334 -0.2258
  146MOL0     C19617   3.749   1.295   2.911  0.1484 -1.0503 -0.0759
  146MOL0     C19618   3.700   1.435   2.883 -0.3274  0.2152 -0.3392
  146MOL0    Cl19619   3.545   1.446   2.956 -0.6772 -0.0611  0.4556
  146MOL0     C19620   4.298   1.358   3.473 -0.6849  0.1763 -0.1391
  146MOL0     C19621   4.386   1.466   3.500 -1.1625 -0.1707 -0.2152
  146MOL0     O19622   4.440   1.757   3.265 -0.0819 -0.5936 -0.0163
  146MOL0     C19623   4.604   1.979   3.356  0.4652  0.3676  0.0341
  146MOL0     C19624   4.702   2.076   3.391  0.0404  0.5635  0.3414
  146MOL0     N19625   5.284   2.561   3.216  0.2094 -0.5519  0.0668
  146MOL0     N19626   5.270   2.626   3.110  0.1740  0.8810  0.4186
  146MOL0     C19627   5.692   3.497   3.133  0.2725 -0.3759  0.6333
  146MOL0     C19628   5.818   3.552   3.145 -0.0477  0.9157 -0.7974
  146MOL0     C19629   6.241   3.719   3.094  0.5801  0.1139 -0.5487
  146MOL0     C19630   6.364   3.653   3.107 -0.0613 -0.3183  0.6011
  146MOL0     C19631   6.487   3.722   3.122  0.3570 -0.0556  0.0446
  146MOL0     C19632   6.497   3.859   3.113  0.2523  0.4889 -0.7535
  146MOL0     O19633   6.612   3.936   3.117  0.4891  0.5211  0.0516
  146MOL0     C19634   6.719   3.886   3.041 -0.2792 -0.7034  0.5361
  146MOL0     C19635   6.719   3.992   2.927  0.9013  0.1410 -0.4021
  146MOL0     C19636   6.828   3.955   2.831  0.4498 -0.9820  0.2224
  146MOL0     C19637   6.831   4.054   2.703 -0.3202 -0.2409 -1.0242
  146MOL0     C19638   6.703   4.043   2.628 -0.0887  0.9193 -0.5532
  146MOL0     C19639   6.595   4.055   2.571  0.3851 -0.5634  0.2765
  146MOL0     C19640   6.380   3.917   3.084 -0.1978  0.5342  0.4661
  146MOL0     C19641   6.254   3.859   3.068  0.5262  0.2102 -1.0861
  146MOL0     C19642   6.140   3.956   3.060  0.3640  0.8086  0.0325
  146MOL0     H19643   5.827   3.713   2.851 -2.2823  2.3568 -0.0643
  146MOL0     H19644   5.631   3.593   2.812 -3.4744  2.7730  2.6924
  146MOL0     H19645   5.382   3.623   2.963  1.6555 -0.3341  1.7801
  146MOL0     H19646   5.420   3.521   2.823  1.4483  2.1113  0.4885
  146MOL0     H19647   5.280   3.364   2.859  0.2474  1.4987 -1.8207
  146MOL0     H19648   5.190   3.516   2.903 -0.7615  0.3115  2.1909
  146MOL0     H19649   5.168   3.484   3.124 -0.3614  0.9416 -1.8317
  146MOL0     H19650   5.289   3.369   3.145  1.0592 -1.6541 -0.3945
  146MOL0     H19651   5.038   3.286   3.140 -0.0682  0.6466 -0.2757
  146MOL0     H19652   5.037   3.316   2.963 -0.4704  1.0379  0.6856
  146MOL0     H19653   5.212   3.165   2.922  0.8432  0.0193  0.9383
  146MOL0     H19654   5.258   3.149   3.089 -0.4440 -1.6351  1.6726
  146MOL0     H19655   5.050   3.026   3.151 -1.2934 -1.0513  0.4751
  146MOL0     H19656   4.991   3.057   2.995 -1.0526  0.1530  1.2760
  146MOL0     H19657   5.266   2.903   2.987  0.0833  0.0284 -1.8765
  146MOL0     H19658   5.140   2.925   2.880  1.1326 -0.7659 -0.5382
  146MOL0     H19659   4.993   2.805   3.048  0.9741  1.3637  1.5364
  146MOL0     H19660   5.088   2.715   2.927  0.8741  0.2227 -0.5948
  146MOL0     H19661   5.021   2.745   3.292 -2.1848 -0.3727 -3.0542
  146MOL0     H19662   5.236   2.487   3.503 -0.4730  0.7080  1.1307
  146MOL0     H19663   5.100   2.606   3.503 -0.7946  0.2111 -0.9613
  146MOL0     H19664   4.964   2.480   3.364  1.5269  0.9355 -1.0783
  146MOL0     H19665   5.088   2.349   3.334 -0.5719 -0.6794 -0.0684
  146MOL0     H19666   4.991   2.427   3.607 -1.9180  1.3612 -1.2433
  146MOL0     H19667   5.097   2.288   3.570 -1.1816 -0.6068  1.2722
  146MOL0     H19668   4.813   2.320   3.476  1.3282  1.4961 -0.8204
  146MOL0     H19669   4.870   2.249   3.629  3.8126  0.9129  1.0179
  146MOL0     H19670   4.966   1.875   3.452 -1.9411 -1.1201  2.8869
  146MOL0     H19671   4.811   1.718   3.421  0.0299 -0.4398  1.1612
  146MOL0     H19672   4.540   1.489   3.200  2.0896  0.4224  3.1858
  146MOL0     H19673   4.395   1.281   3.149 -1.0388  2.5741 -1.9614
  146MOL0     H19674   4.187   1.099   3.509 -2.3902  0.3116  1.4783
  146MOL0     H19675   4.056   1.178   3.438  1.6198  3.1959  2.6014
  146MOL0     H19676   4.183   0.930   3.313  1.6979  2.0218  0.5030
  146MOL0     H19677   4.028   0.922   3.402 -3.0957  1.0330 -2.7421
  146MOL0     H19678   4.075   1.045   3.132  0.0357  0.6848  0.0035
  146MOL0     H19679   3.972   0.905   3.172  3.5787 -2.6256  2.1899
  146MOL0     H19680   3.928   1.195   3.262  0.2328  0.4699 -0.3135
  146MOL0     H19681   3.796   1.066   3.251 -1.9036  2.7609 -2.6687
  146MOL0     H19682   3.780   1.057   3.025  2.4314 -0.4701 -3.0713
  146MOL0     H19683   3.916   1.135   2.985  1.5342  1.4510  1.3798
  146MOL0     H19684   3.710   1.291   3.131 -0.2823 -0.0265 -0.4517
  146MOL0     H19685   3.864   1.357   3.081 -0.0157  0.1628 -1.2722
  146MOL0     H19686   3.683   1.219   2.869  0.2083 -0.0186 -2.1843
  146MOL0     H19687   3.841   1.298   2.853 -0.6776  0.3185 -1.4076
  146MOL0     H19688   3.768   1.513   2.920 -0.0918  0.7967 -1.9165
  146MOL0     H19689   3.689   1.462   2.777 -2.3207  0.7115 -0.0559
  146MOL0     H19690   4.235   1.318   3.551 -1.8679  1.3616 -0.4376
  146MOL0     H19691   4.374   1.512   3.598  0.7305  1.3756 -0.6428
  146MOL0     H19692   4.509   2.016   3.319  1.9999  0.9080 -3.9186
  146MOL0     H19693   4.677   2.181   3.381 -0.7609  0.2641 -1.1521
  146MOL0     H19694   5.645   3.446   3.217 -0.5147 -1.0659 -0.1966
  146MOL0     H19695   5.875   3.533   3.235  0.7527 -0.2539 -1.5212
  146MOL0     H19696   6.356   3.545   3.113 -1.5739 -0.1902  1.2677
  146MOL0     H19697   6.580   3.666   3.128  1.6215  1.6732 -2.0558
  146MOL0     H19698   6.714   3.784   3.001 -0.0865  0.0838 -1.6660
  146MOL0     H19699   6.809   3.904   3.100 -1.8605  2.1055  2.2934
  146MOL0     H19700   6.730   4.095   2.964  0.4526 -0.1480  0.5737
  146MOL0     H19701   6.625   3.974   2.875  1.9031 -2.9163 -1.3539
  146MOL0     H19702   6.822   3.852   2.795  3.6005 -0.5631 -1.8976
  146MOL0     H19703   6.922   3.956   2.888 -0.3577 -3.2357  1.7311
  146MOL0     H19704   6.859   4.158   2.721  1.4411 -0.3065 -2.9622
  146MOL0     H19705   6.908   4.019   2.633  0.9121  4.5989 -2.4240
  146MOL0     H19706   6.497   4.083   2.538 -0.2272 -0.0206  2.4331
  146MOL0     H19707   6.393   4.023   3.066 -1.1611  0.4386 -0.8790
  146MOL0     H19708   6.172   4.060   3.052  1.2106  0.7933  2.4173
  146MOL0     H19709   6.090   3.922   2.969  0.4785 -3.3067  1.2898
  146MOL0     H19710   6.073   3.953   3.147  0.5732 -1.4378  0.1909
  147MOL0     O19711   0.785   3.233   7.537 -0.5427  0.6029  0.3174
  147MOL0     C19712   0.720   3.286   7.627  0.0999  0.2365  0.0180
  147MOL0     O19713   0.582   3.262   7.644  0.1156 -0.3360  0.2118
  147MOL0     C19714   0.516   3.177   7.559  0.5470  0.1794 -0.1678
  147MOL0     C19715   0.477   3.228   7.440 -1.3806 -0.1203 -0.1844
  147MOL0     C19716   0.407   3.148   7.344 -0.4325  0.7008  0.5595
  147MOL0     C19717   0.390   3.013   7.367  0.5402  0.3581  0.6572
  147MOL0     O19718   0.316   2.930   7.282 -0.5556 -0.7055 -0.7981
  147MOL0     C19719   0.210   2.986   7.202 -0.8904  0.2788 -0.4261
  147MOL0     C19720   0.128   2.861   7.141 -0.2355  0.5849 -0.4792
  147MOL0     C19721   0.015   2.923   7.059  0.8880  0.0032 -0.1745
  147MOL0     C19722  -0.100   2.832   7.019 -0.1398  0.0462 -0.7532
  147MOL0     C19723  -0.059   2.747   6.911 -0.9654  0.1581 -0.7070
  147MOL0     C19724  -0.158   2.642   6.857 -0.5671  0.6289 -0.1820
  147MOL0     C19725  -0.109   2.584   6.720 -0.9443 -0.4588  1.6326
  147MOL0     C19726  -0.164   2.439   6.708  0.0151  0.8639 -0.0935
  147MOL0     N19727  -0.190   2.411   6.571 -0.6272 -0.2022  0.5469
  147MOL0     C19728  -0.128   2.331   6.481  0.1243 -0.5939  0.0230
  147MOL0     C19729  -0.223   2.290   6.400  0.2141 -0.6644 -0.6441
  147MOL0     C19730  -0.191   2.190   6.290 -0.7325 -0.9656  0.2263
  147MOL0     C19731  -0.089   2.225   6.175  0.3330 -0.6303 -1.4233
  147MOL0     C19732  -0.005   2.109   6.123 -0.1290 -0.0309  0.0102
  147MOL0     C19733  -0.096   2.007   6.050  0.9892  0.9724 -0.5644
  147MOL0     O19734  -0.127   1.909   6.157  0.0042 -1.0726  0.1460
  147MOL0     C19735  -0.217   1.806   6.122 -0.1416 -0.0856  0.4226
  147MOL0     C19736  -0.237   1.703   6.217 -0.6427  0.4857 -0.3008
  147MOL0     C19737  -0.306   1.586   6.182  0.2043  0.0874  0.0820
  147MOL0     C19738  -0.363   1.572   6.052  0.4797 -0.1073  0.1920
  147MOL0     C19739  -0.429   1.452   6.012 -0.4301 -0.1055 -0.1588
  147MOL0     O19740  -0.502   1.468   5.904  0.2508 -0.5277 -0.4636
  147MOL0     C19741  -0.520   1.358   5.828  0.7208  0.5831 -0.7011
  147MOL0     C19742  -0.467   1.367   5.694 -0.0678  0.1035 -0.7812
  147MOL0     C19743  -0.497   1.276   5.596  0.3473  0.3835 -0.4724
  147MOL0     C19744  -0.581   1.167   5.627  0.7877 -0.4882 -0.3278
  147MOL0     O19745  -0.609   1.076   5.528  0.0113 -0.0514 -0.2167
  147MOL0     C19746  -0.743   1.026   5.527  0.0049 -0.1935  0.1417
  147MOL0     C19747  -0.844   1.139   5.478  0.0469  1.2057 -0.3183
  147MOL0     C19748  -0.944   1.068   5.379 -0.1023 -0.5266  0.4385
  147MOL0     C19749  -0.911   1.076   5.226 -0.7482  0.4884 -0.1239
  147MOL0     C19750  -1.041   1.025   5.154  0.1524 -0.3189  0.8348
  147MOL0     C19751  -1.025   1.057   5.007 -0.4787  1.0786  0.5360
  147MOL0     C19752  -1.127   0.988   4.918  0.3517  0.2549 -0.2127
  147MOL0     C19753  -1.103   1.033   4.775 -0.1762  0.4418 -0.0743
  147MOL0    Cl19754  -1.210   0.942   4.657  0.2892 -0.0615 -0.3757
  147MOL0     C19755  -0.636   1.158   5.758  0.1347  0.1571 -0.6695
  147MOL0     C19756  -0.607   1.254   5.860 -0.3345  0.1283  0.4844
  147MOL0     O19757  -0.426   1.349   6.079  0.0984  0.5917 -0.5770
  147MOL0     C19758  -0.348   1.677   5.962  0.0158  0.0804  0.2399
  147MOL0     C19759  -0.275   1.796   5.993  0.8235  0.5274  0.0917
  147MOL0     N19760  -0.340   2.352   6.439  0.1263 -0.5195 -0.2990
  147MOL0     N19761  -0.320   2.426   6.536 -0.0181 -1.0846 -1.5956
  147MOL0     C19762   0.425   2.961   7.495 -1.1315 -0.3771 -0.3098
  147MOL0     C19763   0.474   3.049   7.593  0.8386 -0.2786 -0.1974
  147MOL0     C19764   0.772   3.391   7.710 -0.2850  0.1541  0.4046
  147MOL0     C19765   0.677   3.478   7.776  0.1212  0.7617  0.0897
  147MOL0     C19766   0.711   3.587   7.852 -0.0845  0.8741 -0.5558
  147MOL0     C19767   0.848   3.621   7.861 -0.0892 -0.2962 -1.1503
  147MOL0     O19768   0.877   3.736   7.933  0.5369 -0.5171  0.0524
  147MOL0     C19769   0.998   3.727   8.007  0.6636  0.3994 -0.9943
  147MOL0     C19770   0.996   3.861   8.095 -0.3557 -0.1418  0.7290
  147MOL0     C19771   0.937   3.828   8.226  0.8642 -0.4013 -0.4618
  147MOL0     C19772   0.921   3.958   8.327  0.6590 -0.4361 -0.0892
  147MOL0     C19773   0.839   4.066   8.270  0.0778  0.5373 -0.8057
  147MOL0     C19774   0.775   4.161   8.231  0.5395 -0.7568  0.1117
  147MOL0     C19775   0.943   3.548   7.786 -0.1693  0.8128 -0.6003
  147MOL0     C19776   0.909   3.431   7.712  0.2579 -0.2540  0.5317
  147MOL0     C19777   1.016   3.353   7.645 -0.7587  0.5035 -0.2059
  147MOL0     H19778   0.492   3.334   7.420  2.1539  0.8235  5.3202
  147MOL0     H19779   0.367   3.194   7.254  1.0841  2.7818  0.8770
  147MOL0     H19780   0.151   3.040   7.276  0.3919 -0.8063  1.4533
  147MOL0     H19781   0.252   3.057   7.130 -1.2818 -1.2907 -2.2769
  147MOL0     H19782   0.078   2.796   7.214 -2.9869  1.4167 -1.4787
  147MOL0     H19783   0.196   2.794   7.089 -0.4623  0.6706 -0.8939
  147MOL0     H19784   0.057   2.963   6.966 -3.8002 -0.6533 -2.8687
  147MOL0     H19785  -0.035   3.000   7.118 -1.4997 -0.3113 -1.6843
  147MOL0     H19786  -0.118   2.763   7.103  1.9303 -1.6169 -1.5803
  147MOL0     H19787  -0.196   2.881   6.999 -1.3119 -2.0806 -0.6486
  147MOL0     H19788  -0.027   2.806   6.825 -0.6415 -2.2211 -2.3049
  147MOL0     H19789   0.026   2.680   6.926 -2.4266 -1.6910 -0.2950
  147MOL0     H19790  -0.160   2.562   6.932  1.7022 -0.4805 -1.2126
  147MOL0     H19791  -0.257   2.684   6.839 -2.0362 -0.8531  3.4678
  147MOL0     H19792   0.000   2.588   6.710 -1.1317  0.0975 -0.7193
  147MOL0     H19793  -0.151   2.647   6.641 -0.3811  0.8303  2.3302
  147MOL0     H19794  -0.073   2.390   6.742  2.1785  3.5998 -1.4732
  147MOL0     H19795  -0.240   2.425   6.786  0.2141 -0.5595 -0.1401
  147MOL0     H19796  -0.025   2.299   6.489  0.9313  2.0248  1.0973
  147MOL0     H19797  -0.156   2.095   6.330  4.7293  0.4100 -0.5273
  147MOL0     H19798  -0.291   2.168   6.251  0.4148 -1.0374 -2.9733
  147MOL0     H19799  -0.140   2.276   6.092 -1.6972 -0.4968 -0.1691
  147MOL0     H19800  -0.018   2.291   6.224 -0.0090 -0.0386 -1.7184
  147MOL0     H19801   0.046   2.059   6.205 -1.4050 -1.8503 -0.2193
  147MOL0     H19802   0.064   2.134   6.042 -0.6336 -0.5815 -0.6092
  147MOL0     H19803  -0.035   1.969   5.968  1.0439  1.9754 -0.9968
  147MOL0     H19804  -0.188   2.038   6.000 -0.8857 -2.5917  0.2752
  147MOL0     H19805  -0.189   1.726   6.312  2.4663 -1.4225 -1.2692
  147MOL0     H19806  -0.315   1.503   6.252  0.2929  1.4134  1.7324
  147MOL0     H19807  -0.408   1.455   5.671  2.2402 -1.0406  0.5211
  147MOL0     H19808  -0.449   1.302   5.503  2.2965  2.1354  0.9224
  147MOL0     H19809  -0.737   0.950   5.448  1.4455  0.8525 -0.8194
  147MOL0     H19810  -0.771   0.978   5.621  1.7067  1.2847  1.4712
  147MOL0     H19811  -0.892   1.177   5.568 -3.7153 -1.9130 -0.7686
  147MOL0     H19812  -0.797   1.224   5.428  1.2376  0.8509  0.1587
  147MOL0     H19813  -0.948   0.965   5.416  2.3549 -0.7357  0.3375
  147MOL0     H19814  -1.039   1.121   5.388 -1.8478 -3.3309 -0.0874
  147MOL0     H19815  -0.819   1.027   5.192 -2.6839 -2.6173 -1.2930
  147MOL0     H19816  -0.901   1.182   5.200 -1.6966 -0.2003 -3.9491
  147MOL0     H19817  -1.123   1.084   5.194 -0.0264  0.5470 -0.7240
  147MOL0     H19818  -1.067   0.921   5.178 -4.2878 -0.1397 -2.0136
  147MOL0     H19819  -1.042   1.165   4.996  1.9621  1.3034 -2.1163
  147MOL0     H19820  -0.927   1.039   4.962 -0.1932  1.8140  0.8377
  147MOL0     H19821  -1.232   1.015   4.935  0.4015  1.2125 -1.2680
  147MOL0     H19822  -1.124   0.881   4.939 -0.9591  0.1948 -0.2481
  147MOL0     H19823  -1.109   1.141   4.763 -0.4426  0.6905  2.0827
  147MOL0     H19824  -1.001   1.006   4.742 -1.0433 -1.6885 -1.2500
  147MOL0     H19825  -0.701   1.076   5.789 -0.9088  0.7989 -1.0953
  147MOL0     H19826  -0.648   1.255   5.960 -0.2119  0.9998  0.5377
  147MOL0     H19827  -0.378   1.661   5.859  1.0382  3.0901 -0.6286
  147MOL0     H19828  -0.266   1.875   5.920 -2.7808 -0.6390 -1.8894
  147MOL0     H19829   0.410   2.856   7.517 -0.7140 -0.4840 -0.5136
  147MOL0     H19830   0.483   3.018   7.697 -0.5285  2.8268  0.9884
  147MOL0     H19831   0.570   3.466   7.770 -0.2565 -0.0761  4.6344
  147MOL0     H19832   0.640   3.655   7.897 -2.4201 -1.7741  0.0886
  147MOL0     H19833   1.091   3.731   7.948  1.6535  2.8508  0.5760
  147MOL0     H19834   1.002   3.644   8.077 -0.7107 -1.8364 -3.3592
  147MOL0     H19835   0.932   3.938   8.050 -0.8375 -0.6425  0.5410
  147MOL0     H19836   1.096   3.904   8.106  0.3745 -2.0610  2.1345
  147MOL0     H19837   0.998   3.752   8.275  2.2409  2.0533  1.9523
  147MOL0     H19838   0.835   3.789   8.229  0.3844  0.8294  1.5215
  147MOL0     H19839   0.864   3.934   8.417  1.1970  0.6298  0.5583
  147MOL0     H19840   1.014   3.993   8.371 -0.4348  0.1752  1.8688
  147MOL0     H19841   0.732   4.254   8.200  2.9751  0.6783  0.7666
  147MOL0     H19842   1.047   3.576   7.782 -0.5589  2.2162 -1.9853
  147MOL0     H19843   1.117   3.380   7.676 -0.5517 -0.4681 -0.0111
  147MOL0     H19844   1.013   3.253   7.688  3.2008 -0.1850 -1.1661
  147MOL0     H19845   0.998   3.342   7.538 -1.6304 -0.6011  0.0376
  148MOL0     O19846   1.121   7.575  10.098 -0.2019 -0.2866 -0.3818
  148MOL0     C19847   1.212   7.556  10.025 -0.7637  0.6140  0.4922
  148MOL0     O19848   1.257   7.429   9.990  0.4567 -0.1052 -0.0989
  148MOL0     C19849   1.207   7.320  10.057  0.1523  0.1263 -0.0077
  148MOL0     C19850   1.216   7.319  10.196  0.1288 -0.3891  0.6505
  148MOL0     C19851   1.176   7.203  10.271 -0.4637  0.5157 -0.1158
  148MOL0     C19852   1.135   7.083  10.210  0.0687 -0.4151  1.3256
  148MOL0     O19853   1.087   6.985  10.289  0.0616  0.7807 -0.6009
  148MOL0     C19854   0.964   6.923  10.259  0.6391  0.4311  0.5295
  148MOL0     C19855   0.930   6.849  10.400 -0.7498 -0.6210  0.3587
  148MOL0     C19856   0.795   6.780  10.402  0.1072 -0.4194  0.5630
  148MOL0     C19857   0.678   6.887  10.399  0.8005 -0.6854 -0.2648
  148MOL0     C19858   0.539   6.832  10.423  0.1208  0.5470 -0.7250
  148MOL0     C19859   0.510   6.706  10.335  0.0485  0.3770 -0.2300
  148MOL0     C19860   0.357   6.675  10.355  0.3303  0.5070 -0.2580
  148MOL0     C19861   0.304   6.557  10.252 -0.5102  1.2694 -0.4912
  148MOL0     N19862   0.288   6.589  10.111  0.4207 -0.0987 -0.6818
  148MOL0     C19863   0.341   6.697  10.037 -0.1868  0.3170 -0.8958
  148MOL0     C19864   0.366   6.654   9.913  0.1550 -1.5759 -0.6003
  148MOL0     C19865   0.446   6.745   9.818  0.6028 -0.5105  0.3100
  148MOL0     C19866   0.361   6.824   9.719 -0.1743  0.5459  0.9745
  148MOL0     C19867   0.433   6.903   9.606  0.4951 -0.0849 -1.1639
  148MOL0     C19868   0.504   6.819   9.494 -0.0895 -0.4959 -1.0444
  148MOL0     O19869   0.585   6.713   9.548 -0.0554  0.1164  0.9668
  148MOL0     C19870   0.582   6.610   9.452  0.1203  0.5082  0.4403
  148MOL0     C19871   0.634   6.620   9.325 -0.4806  0.7821  0.5050
  148MOL0     C19872   0.608   6.526   9.223  0.9181  0.6571 -0.1373
  148MOL0     C19873   0.531   6.413   9.245  0.2791 -0.4739 -0.5100
  148MOL0     C19874   0.516   6.315   9.135  1.0738  0.5323 -0.3389
  148MOL0     O19875   0.556   6.349   9.005 -0.1805  0.3666 -0.0195
  148MOL0     C19876   0.516   6.270   8.899  0.2525 -0.5231  0.2942
  148MOL0     C19877   0.586   6.281   8.774 -0.2712 -0.2987 -0.2064
  148MOL0     C19878   0.529   6.219   8.660 -0.0496  0.5900 -0.4087
  148MOL0     C19879   0.424   6.127   8.668  1.1843  0.5977 -0.3198
  148MOL0     O19880   0.387   6.064   8.552  0.2649 -1.2515  0.0563
  148MOL0     C19881   0.246   6.053   8.523  0.3343  0.2352  0.9235
  148MOL0     C19882   0.169   6.189   8.500 -0.0956  0.2806 -0.0041
  148MOL0     C19883   0.022   6.177   8.488 -0.2498  0.4551  0.1579
  148MOL0     C19884  -0.057   6.149   8.617 -0.2802  1.0813  0.3937
  148MOL0     C19885  -0.209   6.137   8.599 -0.0491 -0.6178 -0.6223
  148MOL0     C19886  -0.288   6.248   8.515 -0.3158 -0.6503  0.5337
  148MOL0     C19887  -0.306   6.382   8.588 -0.2780 -0.0803  0.5070
  148MOL0     C19888  -0.387   6.476   8.491  0.4852 -0.2373  0.2879
  148MOL0    Cl19889  -0.445   6.623   8.567  0.2775 -0.4077 -0.0147
  148MOL0     C19890   0.352   6.115   8.789 -0.1061 -0.4493 -0.4140
  148MOL0     C19891   0.397   6.191   8.905 -0.4077 -0.0943  0.5235
  148MOL0     O19892   0.475   6.203   9.176 -0.0733 -0.8413 -0.0088
  148MOL0     C19893   0.478   6.398   9.367  0.4462 -0.0161 -0.0005
  148MOL0     C19894   0.507   6.489   9.469 -0.4848  0.1662  0.4863
  148MOL0     N19895   0.324   6.524   9.905  0.7477 -0.7948  0.1683
  148MOL0     N19896   0.265   6.486  10.019 -0.2108 -0.4923 -0.2840
  148MOL0     C19897   1.126   7.088  10.068 -0.0374  0.6930 -0.0675
  148MOL0     C19898   1.165   7.204  10.000 -0.1700  0.7108  0.2442
  148MOL0     C19899   1.276   7.673   9.961  0.0846  0.2908 -0.5725
  148MOL0     C19900   1.309   7.661   9.825  0.5130 -0.2515 -0.0958
  148MOL0     C19901   1.356   7.772   9.754 -0.0851  0.1545 -0.7671
  148MOL0     C19902   1.360   7.901   9.812  0.2161  0.0629 -0.4119
  148MOL0     O19903   1.376   8.006   9.732 -0.8228 -0.1997 -0.0305
  148MOL0     C19904   1.473   8.003   9.627  0.3908 -0.1101  0.9979
  148MOL0     C19905   1.578   8.100   9.644  1.4987  0.2450  0.1006
  148MOL0     C19906   1.659   8.059   9.765  0.1026 -0.4281 -0.5140
  148MOL0     C19907   1.611   8.140   9.888  0.4405 -0.3739  0.1881
  148MOL0     C19908   1.629   8.085  10.015 -0.8481 -0.1742  0.2090
  148MOL0     C19909   1.628   8.022  10.116 -0.3798 -0.2027 -0.2081
  148MOL0     C19910   1.334   7.915   9.952 -0.4411  0.4818 -0.0396
  148MOL0     C19911   1.304   7.797  10.025  0.5840  0.1657 -0.0691
  148MOL0     C19912   1.287   7.817  10.165  0.4788  1.1023 -0.3954
  148MOL0     H19913   1.252   7.412  10.241 -1.3162  0.4372  0.1649
  148MOL0     H19914   1.178   7.205  10.380 -1.5713 -2.2799  0.0506
  148MOL0     H19915   0.889   6.990  10.216 -0.7923 -1.7619 -0.5971
  148MOL0     H19916   0.972   6.851  10.177  0.2485  1.7627 -0.7225
  148MOL0     H19917   0.926   6.915  10.487 -0.3332 -0.0627 -0.0387
  148MOL0     H19918   1.012   6.778  10.412  1.1336  1.5346  0.9875
  148MOL0     H19919   0.784   6.721  10.494  1.6786 -2.0368 -0.2181
  148MOL0     H19920   0.782   6.697  10.332  0.6903 -1.2427  1.3951
  148MOL0     H19921   0.693   6.960  10.479  0.1132 -1.2704  0.4229
  148MOL0     H19922   0.683   6.934  10.300  0.0497  3.0625  1.3099
  148MOL0     H19923   0.527   6.808  10.529  0.1030  4.5195  0.3228
  148MOL0     H19924   0.473   6.917  10.401  0.6514  1.4829  1.0691
  148MOL0     H19925   0.536   6.733  10.232 -1.4063 -1.8393 -1.2685
  148MOL0     H19926   0.576   6.624  10.367  0.1908  0.7112  0.3594
  148MOL0     H19927   0.303   6.769  10.342  1.0891  1.4285  2.6514
  148MOL0     H19928   0.339   6.638  10.456  1.5724 -0.3759 -0.3280
  148MOL0     H19929   0.373   6.474  10.271 -1.9976  0.4929  2.1000
  148MOL0     H19930   0.199   6.535  10.274 -0.4002  1.3862  0.1739
  148MOL0     H19931   0.390   6.784  10.079 -0.6032  0.1873 -0.1121
  148MOL0     H19932   0.497   6.817   9.883 -1.8491 -0.0896  1.8783
  148MOL0     H19933   0.516   6.680   9.764  1.3001  2.7191 -3.0882
  148MOL0     H19934   0.301   6.752   9.662  0.7692  0.5790 -0.0880
  148MOL0     H19935   0.287   6.886   9.770 -3.3323 -1.5548 -0.7085
  148MOL0     H19936   0.505   6.967   9.658  3.6592 -5.7423  2.5147
  148MOL0     H19937   0.354   6.962   9.559 -2.3872 -1.6673  1.3426
  148MOL0     H19938   0.563   6.886   9.431 -0.9242 -0.4506 -1.8028
  148MOL0     H19939   0.438   6.785   9.414 -1.4064 -2.8551  0.9111
  148MOL0     H19940   0.691   6.710   9.301  0.4696  0.4129  1.3376
  148MOL0     H19941   0.656   6.543   9.128  1.3246  2.4179  0.3497
  148MOL0     H19942   0.671   6.348   8.772  0.4528 -1.1181  1.2452
  148MOL0     H19943   0.577   6.253   8.569  0.1009  4.8493  1.0648
  148MOL0     H19944   0.226   6.002   8.428 -2.2813  4.5675 -1.1818
  148MOL0     H19945   0.201   5.997   8.606  0.9624  1.9485  2.4737
  148MOL0     H19946   0.191   6.236   8.597  3.3328 -2.1059  0.5601
  148MOL0     H19947   0.213   6.247   8.418  5.1752 -1.1636  1.3651
  148MOL0     H19948  -0.010   6.277   8.458  2.7947  1.8020  0.9246
  148MOL0     H19949  -0.010   6.104   8.414  2.6464  0.9530 -1.7289
  148MOL0     H19950  -0.044   6.219   8.699 -2.6918 -0.7128  2.4862
  148MOL0     H19951  -0.015   6.055   8.655  1.1202  1.3804 -0.3398
  148MOL0     H19952  -0.258   6.123   8.696 -1.0044  0.6738 -0.8989
  148MOL0     H19953  -0.237   6.051   8.539 -0.6754  2.1593 -4.7319
  148MOL0     H19954  -0.237   6.270   8.420 -2.6825 -4.5411 -1.9334
  148MOL0     H19955  -0.390   6.222   8.486 -0.8732  0.0781  1.7869
  148MOL0     H19956  -0.209   6.425   8.616 -0.9363 -0.2158  3.2773
  148MOL0     H19957  -0.356   6.366   8.684  0.0715  0.6365  0.8149
  148MOL0     H19958  -0.323   6.505   8.407 -1.3741  0.4319 -0.9476
  148MOL0     H19959  -0.477   6.430   8.451  0.2017  1.8423 -1.6459
  148MOL0     H19960   0.261   6.057   8.788 -1.3712  1.3546 -3.1116
  148MOL0     H19961   0.337   6.173   8.993  0.2755 -6.4747  0.2058
  148MOL0     H19962   0.418   6.315   9.403 -0.0404  1.1666  2.0795
  148MOL0     H19963   0.466   6.451   9.562  0.7088  0.4884  1.1616
  148MOL0     H19964   1.075   7.011  10.011 -1.9099  2.8205 -1.4925
  148MOL0     H19965   1.148   7.208   9.893  0.4250 -1.1759  0.0450
  148MOL0     H19966   1.299   7.568   9.771  1.0965 -0.3374 -0.0622
  148MOL0     H19967   1.371   7.751   9.649  1.2639  4.3305 -1.6072
  148MOL0     H19968   1.421   8.019   9.531 -0.4439  1.2231  1.6362
  148MOL0     H19969   1.515   7.904   9.610  2.3610  1.2233 -3.5594
  148MOL0     H19970   1.541   8.203   9.649 -1.2462 -0.6634  0.2599
  148MOL0     H19971   1.639   8.097   9.553  1.3333  1.1811 -0.0603
  148MOL0     H19972   1.767   8.076   9.757 -0.0175  0.1565 -0.9964
  148MOL0     H19973   1.650   7.951   9.780 -3.5487 -0.5861 -2.6325
  148MOL0     H19974   1.656   8.240   9.895 -1.9317  0.6933  1.2568
  148MOL0     H19975   1.503   8.159   9.887  0.4669  0.3052 -3.6227
  148MOL0     H19976   1.622   7.958  10.202 -0.1106 -0.3559 -0.3036
  148MOL0     H19977   1.358   8.011   9.995 -2.9668  1.6718 -1.0883
  148MOL0     H19978   1.324   7.731  10.223 -1.6654  0.7766  0.5881
  148MOL0     H19979   1.344   7.907  10.188  0.9252  1.2515 -1.9748
  148MOL0     H19980   1.183   7.831  10.193  0.8468  3.8203 -0.1719
  149MOL0     O19981   6.434   8.204   2.258 -0.1718 -0.1653 -0.0833
  149MOL0     C19982   6.467   8.220   2.378  1.6205  0.0958 -0.3753
  149MOL0     O19983   6.435   8.321   2.456 -0.3433 -0.1378 -0.1112
  149MOL0     C19984   6.341   8.406   2.418 -0.0641  1.0664 -0.1218
  149MOL0     C19985   6.219   8.360   2.371 -0.1132  0.2158  0.2441
  149MOL0     C19986   6.120   8.447   2.316  0.2710  0.7789  0.1173
  149MOL0     C19987   6.145   8.581   2.300 -0.2528 -0.1203  0.4998
  149MOL0     O19988   6.050   8.667   2.256  0.1848 -0.5801  0.6915
  149MOL0     C19989   6.001   8.625   2.121  0.1632  0.1539  0.7013
  149MOL0     C19990   6.109   8.646   2.016  1.1848 -0.0270  1.6543
  149MOL0     C19991   6.047   8.615   1.877 -0.3435  0.3413 -1.0670
  149MOL0     C19992   6.027   8.459   1.868 -0.5732 -0.1352  0.0477
  149MOL0     C19993   6.157   8.396   1.819 -0.2647  0.4719  0.0575
  149MOL0     C19994   6.132   8.268   1.743 -0.0774 -0.1115 -0.6841
  149MOL0     C19995   6.045   8.162   1.806  1.4243 -0.0185  0.3732
  149MOL0     C19996   6.115   8.097   1.931  0.2750 -0.6749  0.4997
  149MOL0     N19997   6.243   8.028   1.897  0.1522 -0.1549  0.0775
  149MOL0     C19998   6.360   8.084   1.950 -0.4775  0.6036 -0.2511
  149MOL0     C19999   6.462   8.018   1.903 -0.9384 -0.0174 -0.4053
  149MOL0     C20000   6.608   8.030   1.931  0.5733 -1.0461 -0.6661
  149MOL0     C20001   6.680   7.892   1.940 -0.4808  0.2214 -0.7734
  149MOL0     C20002   6.833   7.905   1.972 -0.2087 -0.1690  0.2169
  149MOL0     C20003   6.917   7.785   1.955  0.1867  0.2919 -0.5036
  149MOL0     O20004   6.870   7.691   2.047  0.1147  0.4763 -0.1141
  149MOL0     C20005   6.962   7.624   2.117 -0.6786 -0.7183  1.1336
  149MOL0     C20006   6.980   7.490   2.099 -0.1701 -0.5003  0.4874
  149MOL0     C20007   7.066   7.418   2.175  0.1615  0.1124  0.6503
  149MOL0     C20008   7.136   7.481   2.276 -0.7071  0.3480 -1.6857
  149MOL0     C20009   7.230   7.408   2.370  0.1314  0.1397  0.6609
  149MOL0     O20010   7.222   7.274   2.344  0.1625  0.1910 -0.3261
  149MOL0     C20011   7.288   7.191   2.428  0.5492 -0.7494 -0.4636
  149MOL0     C20012   7.428   7.185   2.431  0.0905 -0.1457 -0.5728
  149MOL0     C20013   7.497   7.097   2.517 -0.8187  0.6438 -1.0660
  149MOL0     C20014   7.412   6.997   2.589  0.7533 -0.7297  0.1844
  149MOL0     O20015   7.488   6.903   2.647  0.4823  0.0026  0.2081
  149MOL0     C20016   7.415   6.810   2.717  0.2302 -0.2150  0.2006
  149MOL0     C20017   7.511   6.723   2.787 -0.1073  0.5279  0.0996
  149MOL0     C20018   7.471   6.642   2.906 -0.0271  0.1804 -0.2402
  149MOL0     C20019   7.421   6.718   3.023  0.5390  0.2125 -0.3338
  149MOL0     C20020   7.395   6.647   3.150  0.7154 -1.1032  0.4552
  149MOL0     C20021   7.401   6.738   3.268 -0.1786 -0.9077  0.3106
  149MOL0     C20022   7.359   6.664   3.397 -0.5870 -0.1546  0.4362
  149MOL0     C20023   7.213   6.653   3.421  0.4223  0.2267 -0.0272
  149MOL0    Cl20024   7.190   6.565   3.580 -0.0555  0.2088 -0.0006
  149MOL0     C20025   7.266   7.001   2.578  0.0499 -0.0593  0.9165
  149MOL0     C20026   7.209   7.110   2.511 -1.1576  0.4956  0.4191
  149MOL0     O20027   7.296   7.461   2.463  0.5240 -0.2742 -0.2868
  149MOL0     C20028   7.120   7.620   2.295  0.1640  1.0998 -0.7338
  149MOL0     C20029   7.040   7.690   2.209 -0.2463 -0.2713  0.6794
  149MOL0     N20030   6.412   7.927   1.813  0.2992  0.2702  0.4223
  149MOL0     N20031   6.278   7.931   1.816  0.2644 -0.4372  0.3224
  149MOL0     C20032   6.276   8.623   2.351 -0.2471  0.2209  0.1943
  149MOL0     C20033   6.363   8.540   2.421  0.2666  1.5657 -0.2525
  149MOL0     C20034   6.569   8.128   2.439  0.6305 -0.2624 -0.4041
  149MOL0     C20035   6.672   8.183   2.520  0.8123 -0.0317  0.7867
  149MOL0     C20036   6.781   8.111   2.566  0.4618 -0.0997  0.0075
  149MOL0     C20037   6.794   7.975   2.532 -0.4804 -0.2196  0.8129
  149MOL0     O20038   6.914   7.897   2.552  0.5760  0.1618 -0.2952
  149MOL0     C20039   6.987   7.928   2.673 -0.0976  0.2330 -0.1454
  149MOL0     C20040   7.100   7.832   2.700  1.1367  0.4764 -0.2486
  149MOL0     C20041   7.061   7.683   2.651 -0.3568  0.2618  0.1315
  149MOL0     C20042   7.006   7.606   2.765 -0.9802 -0.4299 -0.3036
  149MOL0     C20043   6.974   7.468   2.730  0.4415 -0.0600 -0.1034
  149MOL0     C20044   6.938   7.359   2.699  0.3426  1.2571  0.1547
  149MOL0     C20045   6.697   7.919   2.456  1.6191 -0.0382 -0.1272
  149MOL0     C20046   6.587   7.992   2.401  0.3687  0.3021  0.6319
  149MOL0     C20047   6.498   7.914   2.301 -0.0769 -0.8177 -1.0383
  149MOL0     H20048   6.195   8.255   2.382 -0.8680  0.2095 -1.1656
  149MOL0     H20049   6.023   8.405   2.291  0.7789 -0.6306  0.4162
  149MOL0     H20050   5.958   8.525   2.129 -0.4391  0.4324  1.0146
  149MOL0     H20051   5.923   8.700   2.107 -0.4624 -0.0064  2.9481
  149MOL0     H20052   6.193   8.578   2.028  1.2910  0.1022  1.6393
  149MOL0     H20053   6.146   8.748   2.031  0.7585  0.4495 -0.2055
  149MOL0     H20054   6.101   8.659   1.793  0.3715  0.5050 -0.5267
  149MOL0     H20055   5.952   8.667   1.864  0.2809  1.3788 -1.5463
  149MOL0     H20056   5.979   8.416   1.957 -0.0278  1.9059  1.4126
  149MOL0     H20057   5.956   8.430   1.791 -0.5578 -0.3475  0.1130
  149MOL0     H20058   6.200   8.469   1.750 -1.1051 -0.5680 -1.6156
  149MOL0     H20059   6.219   8.374   1.907 -4.6194 -3.0517  2.6689
  149MOL0     H20060   6.094   8.298   1.645 -0.7938  1.6635  0.0979
  149MOL0     H20061   6.233   8.232   1.719  0.8904 -0.8042  3.7054
  149MOL0     H20062   6.033   8.090   1.724  3.3686  1.6447 -1.4905
  149MOL0     H20063   5.947   8.198   1.838 -0.4978 -1.4242 -3.3648
  149MOL0     H20064   6.136   8.169   2.011 -0.7578  2.3812 -1.7624
  149MOL0     H20065   6.042   8.026   1.968 -0.2222  0.3210  1.4869
  149MOL0     H20066   6.368   8.156   2.031 -0.8241 -1.9060  2.1841
  149MOL0     H20067   6.654   8.084   1.847  1.4901  0.4377  0.7170
  149MOL0     H20068   6.628   8.085   2.024  1.7920  1.9117 -2.4930
  149MOL0     H20069   6.628   7.835   2.018  0.3209  1.3564  0.6456
  149MOL0     H20070   6.665   7.836   1.847  3.9961  0.2134 -1.7210
  149MOL0     H20071   6.830   7.931   2.079 -3.8504  0.1430  0.1422
  149MOL0     H20072   6.873   7.983   1.906  2.2720 -0.8068  0.8560
  149MOL0     H20073   7.022   7.816   1.953 -0.2834  2.4824  2.2488
  149MOL0     H20074   6.904   7.742   1.855 -2.3630  2.2970 -1.1343
  149MOL0     H20075   6.924   7.445   2.017  0.9490  0.1762 -0.6950
  149MOL0     H20076   7.066   7.313   2.145 -3.9552  0.4416 -1.1983
  149MOL0     H20077   7.486   7.247   2.364  3.6283 -3.0127 -0.4701
  149MOL0     H20078   7.605   7.103   2.531 -0.5730 -2.3111 -1.0698
  149MOL0     H20079   7.355   6.853   2.798 -0.8463 -1.6104  0.1969
  149MOL0     H20080   7.356   6.743   2.654 -1.5483  1.0121  0.4871
  149MOL0     H20081   7.531   6.642   2.716 -0.5897  0.5164 -0.0243
  149MOL0     H20082   7.600   6.780   2.815 -0.9275  2.6128 -1.3076
  149MOL0     H20083   7.391   6.577   2.871 -1.4663  2.2979 -1.0916
  149MOL0     H20084   7.560   6.586   2.937 -1.3432 -1.1257  1.3305
  149MOL0     H20085   7.319   6.755   3.006 -0.7806 -2.4816  0.9966
  149MOL0     H20086   7.486   6.804   3.043  2.5907 -0.0020 -4.7638
  149MOL0     H20087   7.462   6.562   3.154  2.0662 -0.1142 -0.4734
  149MOL0     H20088   7.294   6.607   3.134  0.3721 -0.1079  0.0336
  149MOL0     H20089   7.506   6.767   3.272  0.9649 -3.8453 -2.9644
  149MOL0     H20090   7.336   6.824   3.252 -1.7799 -2.4137 -2.0409
  149MOL0     H20091   7.402   6.701   3.490  1.7049 -0.2146 -0.5475
  149MOL0     H20092   7.401   6.564   3.388  0.0327  0.2447 -1.6101
  149MOL0     H20093   7.169   6.753   3.433 -1.9398 -0.8772  1.2683
  149MOL0     H20094   7.165   6.594   3.342 -0.8392 -1.4555  1.8868
  149MOL0     H20095   7.203   6.932   2.634  0.5776 -1.2347  0.0963
  149MOL0     H20096   7.101   7.113   2.511 -1.2810 -1.7394 -0.6126
  149MOL0     H20097   7.178   7.664   2.376 -0.8675  1.5255 -0.2015
  149MOL0     H20098   7.018   7.791   2.242  1.5930 -0.5173  2.9204
  149MOL0     H20099   6.295   8.730   2.348  0.3970  0.0994 -0.4365
  149MOL0     H20100   6.455   8.574   2.466  0.0042  4.4764 -1.6803
  149MOL0     H20101   6.666   8.284   2.559  1.2081 -0.2478  1.4190
  149MOL0     H20102   6.841   8.159   2.643  0.0705  0.3425  0.0442
  149MOL0     H20103   6.919   7.918   2.758  1.1944  2.3100  1.2521
  149MOL0     H20104   7.008   8.035   2.677 -2.6796  0.7703  2.4518
  149MOL0     H20105   7.138   7.833   2.803  0.8057 -0.3803 -0.1061
  149MOL0     H20106   7.182   7.877   2.645 -0.2933  1.3090 -1.7827
  149MOL0     H20107   7.152   7.634   2.613  0.0372 -0.4607  1.9002
  149MOL0     H20108   6.984   7.679   2.573  0.1878  1.6103 -0.5060
  149MOL0     H20109   7.081   7.614   2.845 -2.0702  0.9794  0.6373
  149MOL0     H20110   6.929   7.668   2.812  1.7585  1.3374  2.2902
  149MOL0     H20111   6.941   7.260   2.659  3.3210  1.8644 -1.4421
  149MOL0     H20112   6.694   7.814   2.425 -0.2878 -0.3389  0.9276
  149MOL0     H20113   6.488   7.969   2.207 -2.8360 -0.8828 -0.8645
  149MOL0     H20114   6.544   7.820   2.270  0.8719 -0.4255 -0.8613
  149MOL0     H20115   6.400   7.890   2.343 -0.6593  2.3801 -0.3402
  150MOL0     O20116   4.787   2.572   1.610  0.9996 -0.2341  1.4171
  150MOL0     C20117   4.757   2.653   1.697  0.7533 -0.2618  0.3871
  150MOL0     O20118   4.779   2.791   1.678  0.2971  0.2386  0.6955
  150MOL0     C20119   4.859   2.815   1.569 -0.5646  0.5824 -0.3145
  150MOL0     C20120   4.989   2.754   1.556  0.1766  0.0296 -0.3376
  150MOL0     C20121   5.073   2.770   1.448 -1.0232 -0.1258 -0.8694
  150MOL0     C20122   5.026   2.847   1.340  0.3951  0.0398  1.0872
  150MOL0     O20123   5.097   2.868   1.231  0.2152 -0.6594 -0.1198
  150MOL0     C20124   5.223   2.915   1.267 -0.2862  1.0511 -0.1684
  150MOL0     C20125   5.283   2.943   1.134 -0.4458  0.7743  0.2699
  150MOL0     C20126   5.413   3.007   1.126 -0.1936 -0.5060  1.1033
  150MOL0     C20127   5.525   2.910   1.151 -0.4942  0.1624  0.2606
  150MOL0     C20128   5.653   2.995   1.155  0.9206  0.2155  0.2845
  150MOL0     C20129   5.777   2.935   1.222 -0.3492  0.5690 -0.7037
  150MOL0     C20130   5.828   2.824   1.132 -0.4105 -0.1622 -0.0914
  150MOL0     C20131   5.977   2.805   1.138 -0.6972  0.2889 -0.4926
  150MOL0     N20132   6.032   2.733   1.258 -0.8214  0.7731  0.2983
  150MOL0     C20133   6.002   2.731   1.391  0.2041  0.7610  0.0040
  150MOL0     C20134   6.095   2.661   1.457 -0.2000 -0.5291 -0.2199
  150MOL0     C20135   6.084   2.620   1.594 -0.1518  0.5417 -0.0414
  150MOL0     C20136   6.171   2.710   1.675 -0.5064  0.6963  0.2612
  150MOL0     C20137   6.099   2.777   1.800 -0.2735  1.1521  0.0027
  150MOL0     C20138   6.029   2.901   1.760 -0.2157  0.0613  0.2371
  150MOL0     O20139   5.903   2.860   1.696  0.1335 -0.4951 -0.8463
  150MOL0     C20140   5.819   2.956   1.645 -0.1973 -0.4055  0.4642
  150MOL0     C20141   5.699   2.919   1.593  0.2368  0.1638  0.4484
  150MOL0     C20142   5.605   3.008   1.528 -0.2915 -0.1572 -0.6031
  150MOL0     C20143   5.636   3.148   1.526 -0.8176  0.0719  0.3903
  150MOL0     C20144   5.546   3.244   1.448 -0.3287  0.6697 -0.2583
  150MOL0     O20145   5.416   3.250   1.486 -0.1542  0.5281 -0.6337
  150MOL0     C20146   5.330   3.348   1.452 -0.0450 -1.2470  0.4726
  150MOL0     C20147   5.208   3.326   1.391 -0.4022 -0.5518  0.5005
  150MOL0     C20148   5.117   3.427   1.361 -0.0872  0.7756  0.4224
  150MOL0     C20149   5.151   3.560   1.386 -0.1357  0.5627 -0.1172
  150MOL0     O20150   5.057   3.654   1.364  0.2144  0.2353  0.0663
  150MOL0     C20151   5.053   3.770   1.443  0.2324 -1.0323 -0.0329
  150MOL0     C20152   4.910   3.832   1.443 -0.6314  0.7864  0.0534
  150MOL0     C20153   4.844   3.887   1.323  1.2371  0.3412  0.1457
  150MOL0     C20154   4.743   4.000   1.356  0.5461  0.7025 -0.2774
  150MOL0     C20155   4.649   4.066   1.245 -0.2509  0.1324 -0.0683
  150MOL0     C20156   4.730   4.146   1.142 -0.5256 -1.5485  0.6605
  150MOL0     C20157   4.776   4.295   1.193  0.1649  0.4449 -0.1811
  150MOL0     C20158   4.665   4.404   1.190  0.1980 -0.2844 -0.0825
  150MOL0    Cl20159   4.729   4.546   1.274 -0.2253  0.1120  0.5123
  150MOL0     C20160   5.277   3.583   1.458  0.2583 -0.4947  1.3245
  150MOL0     C20161   5.366   3.480   1.485  0.8489 -1.4897  0.0945
  150MOL0     O20162   5.590   3.281   1.349  0.0359  0.4029  0.4071
  150MOL0     C20163   5.767   3.187   1.580 -0.3731  0.3621 -1.4347
  150MOL0     C20164   5.850   3.092   1.642  0.1503 -0.6586  0.0269
  150MOL0     N20165   6.183   2.618   1.363  0.2664  0.4347 -0.4775
  150MOL0     N20166   6.149   2.659   1.247  0.2415  0.4258 -0.3031
  150MOL0     C20167   4.898   2.907   1.357  0.6333 -0.8391 -0.0808
  150MOL0     C20168   4.822   2.900   1.476 -0.1369 -0.2435  0.6521
  150MOL0     C20169   4.703   2.617   1.836  0.0707  0.9779  0.4597
  150MOL0     C20170   4.641   2.716   1.917 -0.3338  0.2855 -0.3426
  150MOL0     C20171   4.602   2.691   2.045 -0.7137 -0.2221 -1.1262
  150MOL0     C20172   4.586   2.560   2.089  0.3114  0.9193  0.1291
  150MOL0     O20173   4.517   2.504   2.199  0.2475  0.3961 -0.9544
  150MOL0     C20174   4.427   2.589   2.269 -0.4975  0.0196  0.4198
  150MOL0     C20175   4.471   2.584   2.414 -0.3646  0.0404 -0.4266
  150MOL0     C20176   4.511   2.438   2.463 -0.2053 -0.0149  0.8295
  150MOL0     C20177   4.638   2.441   2.539 -0.8280  0.0048 -0.6446
  150MOL0     C20178   4.679   2.298   2.581  0.0754 -0.4443  0.4174
  150MOL0     C20179   4.729   2.187   2.604 -0.6311  0.1673  0.1164
  150MOL0     C20180   4.636   2.456   2.008  0.0611 -0.5246 -0.6599
  150MOL0     C20181   4.702   2.485   1.889  1.6109  0.1655  0.0365
  150MOL0     C20182   4.749   2.366   1.807 -0.5006  0.1776 -0.5785
  150MOL0     H20183   5.029   2.695   1.639  2.0886 -0.8966 -1.8455
  150MOL0     H20184   5.161   2.706   1.447 -1.2477 -0.5057  0.8371
  150MOL0     H20185   5.218   3.008   1.324  1.7619  0.5882  0.8395
  150MOL0     H20186   5.280   2.837   1.318  0.6773  1.1715 -1.0254
  150MOL0     H20187   5.227   3.021   1.082 -3.8560 -1.0365  0.9128
  150MOL0     H20188   5.280   2.852   1.073 -1.4109  3.0841 -3.4595
  150MOL0     H20189   5.416   3.099   1.185  1.6119  2.4916 -3.0932
  150MOL0     H20190   5.427   3.043   1.024  1.1821 -0.9254  1.1211
  150MOL0     H20191   5.519   2.860   1.248 -0.5727  3.1015  1.8910
  150MOL0     H20192   5.532   2.832   1.074  1.0343  0.3863  0.1356
  150MOL0     H20193   5.682   3.032   1.056  0.1919  2.8773  0.9795
  150MOL0     H20194   5.623   3.073   1.227  1.0142  1.2998 -0.8202
  150MOL0     H20195   5.860   3.004   1.237  0.3041 -0.8260  3.2867
  150MOL0     H20196   5.746   2.901   1.321 -2.4428 -0.5317 -1.6574
  150MOL0     H20197   5.805   2.854   1.029 -1.0656  1.9795  0.6304
  150MOL0     H20198   5.783   2.727   1.156 -1.5378 -0.2847 -2.4148
  150MOL0     H20199   6.012   2.740   1.058  0.7907  1.6671 -1.0003
  150MOL0     H20200   6.032   2.899   1.139 -2.0430  1.2137  3.0528
  150MOL0     H20201   5.910   2.761   1.439  0.6981  0.3189  1.2811
  150MOL0     H20202   5.984   2.612   1.638  0.1862 -2.8895  0.3415
  150MOL0     H20203   6.116   2.515   1.595  3.5983  1.4917 -1.2165
  150MOL0     H20204   6.251   2.646   1.715  0.4929 -0.0882 -2.6916
  150MOL0     H20205   6.219   2.789   1.616 -2.0155  1.1144 -0.4342
  150MOL0     H20206   6.176   2.806   1.872  1.1976 -1.8585 -0.1821
  150MOL0     H20207   6.026   2.707   1.842  1.6530 -1.1620 -0.2272
  150MOL0     H20208   6.097   2.963   1.700  0.7728 -1.8366 -0.7042
  150MOL0     H20209   5.992   2.957   1.846  2.5017 -0.0980  1.6215
  150MOL0     H20210   5.672   2.814   1.597 -2.4088  0.8075  1.4847
  150MOL0     H20211   5.513   2.970   1.485 -0.6086  0.4717 -0.4933
  150MOL0     H20212   5.191   3.224   1.359  1.0741 -1.0599  1.2470
  150MOL0     H20213   5.025   3.397   1.313  0.7258  0.6140 -1.1137
  150MOL0     H20214   5.089   3.748   1.544 -0.2040  1.7824  0.8150
  150MOL0     H20215   5.123   3.845   1.406 -1.2847 -0.3005 -1.5699
  150MOL0     H20216   4.847   3.765   1.501 -0.8737  0.9036 -0.0689
  150MOL0     H20217   4.918   3.926   1.498 -0.1309  1.5886 -1.3253
  150MOL0     H20218   4.920   3.930   1.257  0.5473  0.1956 -0.7596
  150MOL0     H20219   4.797   3.805   1.268  3.1000 -0.2817 -0.6137
  150MOL0     H20220   4.807   4.074   1.405 -1.1052  2.3095 -0.4584
  150MOL0     H20221   4.675   3.960   1.432  0.5622 -3.5024 -2.1896
  150MOL0     H20222   4.572   4.133   1.284  0.4637  3.4583 -3.7519
  150MOL0     H20223   4.610   3.980   1.190  0.1480 -1.7858  2.4722
  150MOL0     H20224   4.823   4.089   1.127  0.1088 -1.0718  2.5590
  150MOL0     H20225   4.676   4.165   1.049 -3.1206 -1.2624  2.1500
  150MOL0     H20226   4.862   4.329   1.134  0.5048  0.6350  0.4163
  150MOL0     H20227   4.812   4.276   1.295 -2.5487 -0.1906  0.7307
  150MOL0     H20228   4.639   4.434   1.088  1.7753  0.4815 -0.2846
  150MOL0     H20229   4.571   4.371   1.237 -0.2331 -0.6231 -1.1449
  150MOL0     H20230   5.301   3.685   1.483  1.5268 -0.1902 -0.8948
  150MOL0     H20231   5.460   3.488   1.538 -0.1714 -2.2899  2.1315
  150MOL0     H20232   5.796   3.292   1.585  2.7220 -0.3854  3.6319
  150MOL0     H20233   5.943   3.128   1.685 -0.2248 -1.4165  1.5329
  150MOL0     H20234   4.846   2.954   1.274 -0.8354 -0.9088  0.7649
  150MOL0     H20235   4.728   2.953   1.484  0.3984  1.0207 -0.9198
  150MOL0     H20236   4.644   2.818   1.879 -2.0608  0.5646  0.1624
  150MOL0     H20237   4.559   2.778   2.096 -0.1470 -0.8182  0.4199
  150MOL0     H20238   4.328   2.543   2.265 -0.8525  0.8199 -0.4025
  150MOL0     H20239   4.415   2.693   2.236 -1.8886  1.3820  4.5518
  150MOL0     H20240   4.387   2.625   2.471 -0.0404  1.6904 -1.0659
  150MOL0     H20241   4.559   2.649   2.411 -0.3617  0.0867  0.4469
  150MOL0     H20242   4.540   2.381   2.375 -0.4751  3.3068 -1.6209
  150MOL0     H20243   4.429   2.402   2.525 -0.1776  0.3598  1.0908
  150MOL0     H20244   4.720   2.476   2.476  0.9953 -0.9767  1.0454
  150MOL0     H20245   4.624   2.511   2.622 -0.3472  0.3332 -0.8340
  150MOL0     H20246   4.795   2.108   2.631 -0.0077  0.1890 -1.2685
  150MOL0     H20247   4.620   2.357   2.049 -0.4648 -0.1685  0.0102
  150MOL0     H20248   4.696   2.363   1.711  1.4705 -0.9002 -1.7202
  150MOL0     H20249   4.855   2.389   1.793 -0.1249 -0.0584  1.6094
  150MOL0     H20250   4.737   2.275   1.865  1.8116  0.3164  0.2099
  151MOL0     O20251   4.699   6.277   1.181 -0.6800  1.0420  0.1189
  151MOL0     C20252   4.815   6.276   1.223  0.0275 -0.0948  0.0558
  151MOL0     O20253   4.871   6.189   1.312 -0.2390 -0.0604 -0.6619
  151MOL0     C20254   4.810   6.068   1.310  0.0768 -0.2381 -0.3733
  151MOL0     C20255   4.862   5.960   1.234  0.1347 -0.7291  0.2657
  151MOL0     C20256   4.804   5.834   1.244  0.1609  0.4667  0.5440
  151MOL0     C20257   4.691   5.806   1.317 -1.1345  0.0566 -0.3790
  151MOL0     O20258   4.642   5.678   1.323  0.3990 -0.6670  0.3695
  151MOL0     C20259   4.563   5.639   1.435  0.3584 -0.1639 -0.4632
  151MOL0     C20260   4.603   5.503   1.485  0.5961 -0.8414  0.4051
  151MOL0     C20261   4.616   5.410   1.370 -0.0264  0.4045 -0.5719
  151MOL0     C20262   4.610   5.262   1.422 -0.2308 -0.7245 -0.3043
  151MOL0     C20263   4.635   5.155   1.310  0.4029  0.0435  0.4100
  151MOL0     C20264   4.647   5.019   1.365  0.2832  0.4183 -0.0320
  151MOL0     C20265   4.706   4.923   1.268  0.5702  1.4125  1.0865
  151MOL0     C20266   4.853   4.943   1.231  1.2866  0.6633 -0.3287
  151MOL0     N20267   4.949   4.922   1.339 -0.1376 -0.2541  1.0099
  151MOL0     C20268   4.991   4.791   1.382  0.4836 -0.0218 -0.4594
  151MOL0     C20269   5.072   4.808   1.478 -0.4118 -0.4128  0.3425
  151MOL0     C20270   5.142   4.709   1.569  0.4552 -0.4110 -0.2727
  151MOL0     C20271   5.056   4.696   1.694 -0.6075  0.0364  0.0134
  151MOL0     C20272   4.929   4.604   1.692 -0.1697  0.7179 -1.2973
  151MOL0     C20273   4.870   4.592   1.840 -0.6412  0.3416  0.3134
  151MOL0     O20274   4.784   4.474   1.863 -0.2219  0.3749 -0.4256
  151MOL0     C20275   4.672   4.447   1.783 -1.0903  0.9561 -0.4277
  151MOL0     C20276   4.556   4.520   1.780  0.4384 -0.9841 -0.8430
  151MOL0     C20277   4.436   4.472   1.700 -0.3810  0.4301  0.8359
  151MOL0     C20278   4.457   4.362   1.611 -0.4433  0.0893  0.1011
  151MOL0     C20279   4.346   4.302   1.533 -0.0645  0.1212 -0.0759
  151MOL0     O20280   4.217   4.336   1.569 -0.4836  0.4049 -0.2430
  151MOL0     C20281   4.103   4.295   1.508  0.4242  0.5742 -0.6747
  151MOL0     C20282   4.083   4.172   1.442 -0.4257 -0.5209 -0.2599
  151MOL0     C20283   3.956   4.119   1.420 -0.3990  0.2363 -0.9437
  151MOL0     C20284   3.843   4.202   1.437  0.5488  0.5606  0.2343
  151MOL0     O20285   3.706   4.162   1.403 -0.6614  0.0062  0.4246
  151MOL0     C20286   3.694   4.082   1.282 -0.3171 -0.8979  0.5540
  151MOL0     C20287   3.731   4.164   1.144  1.4493  0.6286  0.5558
  151MOL0     C20288   3.619   4.253   1.084  0.2187 -0.6611  0.1884
  151MOL0     C20289   3.508   4.165   1.025  0.4715  0.4331 -0.1391
  151MOL0     C20290   3.371   4.230   1.025  0.5360 -0.8563  0.8433
  151MOL0     C20291   3.258   4.149   0.962 -1.0344  0.1895 -0.4659
  151MOL0     C20292   3.281   4.122   0.814  1.2256  1.1770  0.1940
  151MOL0     C20293   3.171   4.020   0.765  0.7539  0.5285  0.4481
  151MOL0    Cl20294   3.017   4.094   0.731 -0.0483 -0.3060  0.2170
  151MOL0     C20295   3.863   4.330   1.480 -0.9490 -0.5780 -0.4442
  151MOL0     C20296   3.989   4.378   1.525 -1.0271  1.0196  0.6360
  151MOL0     O20297   4.373   4.217   1.454  0.4311  0.3632 -0.3221
  151MOL0     C20298   4.592   4.304   1.603  0.6447 -0.8240  0.8118
  151MOL0     C20299   4.693   4.334   1.701 -0.1874 -0.8916  0.1589
  151MOL0     N20300   5.082   4.948   1.504  0.4275 -0.0288  1.1311
  151MOL0     N20301   5.009   5.017   1.422 -0.4395 -0.3225 -0.2561
  151MOL0     C20302   4.638   5.916   1.391  0.4109  0.8156 -0.3417
  151MOL0     C20303   4.696   6.042   1.397 -0.5754  0.3730 -0.1347
  151MOL0     C20304   4.904   6.388   1.166  0.2568 -0.4231  0.8772
  151MOL0     C20305   5.032   6.415   1.226 -0.4265 -0.4335  0.1969
  151MOL0     C20306   5.117   6.511   1.175  0.3660  1.6699 -0.2715
  151MOL0     C20307   5.072   6.600   1.081  0.0134 -0.4290 -0.6185
  151MOL0     O20308   5.162   6.693   1.028 -0.1148  0.4230 -0.0787
  151MOL0     C20309   5.134   6.761   0.905  0.1470 -0.2675  1.2098
  151MOL0     C20310   5.233   6.868   0.885  0.4308 -1.6176  0.0069
  151MOL0     C20311   5.380   6.822   0.843 -0.3736 -0.0975 -0.1051
  151MOL0     C20312   5.485   6.929   0.869  0.0598 -0.4932  0.6584
  151MOL0     C20313   5.456   7.061   0.815  0.0486 -0.3332  0.7668
  151MOL0     C20314   5.414   7.165   0.772  0.7012 -0.3444 -0.2631
  151MOL0     C20315   4.944   6.579   1.024 -0.9781  0.2214  0.1165
  151MOL0     C20316   4.862   6.478   1.061  0.2405  0.6147 -0.6629
  151MOL0     C20317   4.736   6.474   0.983  0.3117 -0.6562  0.2695
  151MOL0     H20318   4.955   5.969   1.178 -2.0947  0.3114 -3.6639
  151MOL0     H20319   4.842   5.748   1.188 -5.7850 -2.0472 -0.4041
  151MOL0     H20320   4.556   5.708   1.519 -3.8871  0.2240 -0.9130
  151MOL0     H20321   4.460   5.621   1.402  0.0331 -3.5719  1.9249
  151MOL0     H20322   4.528   5.472   1.558  0.8002 -0.7699  0.6493
  151MOL0     H20323   4.701   5.506   1.534  1.1687 -2.4759 -0.5490
  151MOL0     H20324   4.718   5.430   1.336 -0.0266 -0.2445 -0.9832
  151MOL0     H20325   4.549   5.427   1.285 -1.2029  2.4957  0.6971
  151MOL0     H20326   4.680   5.254   1.506 -4.2362  0.9306  3.6014
  151MOL0     H20327   4.511   5.246   1.465  0.4373 -2.6211  0.6413
  151MOL0     H20328   4.549   5.144   1.243  2.0646 -2.8207 -1.4428
  151MOL0     H20329   4.720   5.178   1.246  1.2031 -3.1161  0.1725
  151MOL0     H20330   4.715   5.018   1.451  0.6736 -2.0245 -0.2992
  151MOL0     H20331   4.550   4.987   1.404 -0.7807  0.6895 -2.2945
  151MOL0     H20332   4.641   4.930   1.180 -2.5579  1.8798  3.2732
  151MOL0     H20333   4.706   4.825   1.315  0.5493  1.5485  1.3750
  151MOL0     H20334   4.866   4.878   1.145  0.3803 -0.0143  0.0277
  151MOL0     H20335   4.865   5.049   1.207  3.5147  0.2189 -1.3393
  151MOL0     H20336   4.949   4.694   1.357  0.9286 -0.5396  0.7175
  151MOL0     H20337   5.159   4.620   1.508  1.1726 -0.0146 -0.6646
  151MOL0     H20338   5.238   4.755   1.593 -0.5608  1.0379  1.2571
  151MOL0     H20339   5.121   4.654   1.772 -1.9321  2.0876  2.3751
  151MOL0     H20340   5.023   4.797   1.721  0.5957 -0.3422  3.3494
  151MOL0     H20341   4.951   4.503   1.657 -0.3453  0.4156 -0.5727
  151MOL0     H20342   4.851   4.647   1.629  1.0095  2.1161 -1.8347
  151MOL0     H20343   4.811   4.680   1.869  0.4004  0.9346  0.6622
  151MOL0     H20344   4.947   4.594   1.918 -0.7248  0.0158  0.4054
  151MOL0     H20345   4.544   4.616   1.828  0.5273 -0.2663 -2.2136
  151MOL0     H20346   4.339   4.521   1.703 -0.4206  0.4894 -0.7076
  151MOL0     H20347   4.165   4.102   1.429  0.1680  0.5691 -3.2538
  151MOL0     H20348   3.950   4.018   1.379  0.4680  0.0754 -0.6897
  151MOL0     H20349   3.753   3.990   1.278  0.3279 -0.5614  1.9660
  151MOL0     H20350   3.589   4.049   1.280  0.1128 -2.4619  1.5297
  151MOL0     H20351   3.820   4.228   1.147  2.4430 -0.5092 -1.8858
  151MOL0     H20352   3.752   4.093   1.063 -1.5548  0.2004  0.0379
  151MOL0     H20353   3.580   4.317   1.163  3.1328 -0.8030  1.8720
  151MOL0     H20354   3.660   4.315   1.003 -2.8428  0.3074 -0.7525
  151MOL0     H20355   3.496   4.078   1.091  0.2292  0.5377 -0.0437
  151MOL0     H20356   3.545   4.140   0.925  0.8855  0.9620 -0.1207
  151MOL0     H20357   3.369   4.331   0.983 -2.1323 -1.8982 -1.9052
  151MOL0     H20358   3.340   4.241   1.129  0.3945 -1.1441  0.8339
  151MOL0     H20359   3.234   4.053   1.010 -4.1217  0.9719 -0.2178
  151MOL0     H20360   3.165   4.206   0.960 -1.2020 -0.0926 -1.7744
  151MOL0     H20361   3.381   4.087   0.787  0.3064  0.3514 -2.4094
  151MOL0     H20362   3.270   4.214   0.755  1.1515 -0.0003 -1.6914
  151MOL0     H20363   3.206   3.976   0.671  0.2687  1.2734 -0.0950
  151MOL0     H20364   3.156   3.930   0.824 -0.3669 -0.6144 -1.4520
  151MOL0     H20365   3.771   4.386   1.495 -1.0342 -0.0427 -2.6332
  151MOL0     H20366   3.984   4.474   1.575 -3.2436 -0.0140  2.6105
  151MOL0     H20367   4.614   4.229   1.528 -1.5877  1.9729 -2.9981
  151MOL0     H20368   4.792   4.293   1.687  0.2625  0.6783 -1.7464
  151MOL0     H20369   4.558   5.899   1.462 -0.6439 -3.4150 -2.1889
  151MOL0     H20370   4.642   6.129   1.435 -0.2075  2.3921 -3.7432
  151MOL0     H20371   5.065   6.347   1.303  1.8705  2.0947  1.6257
  151MOL0     H20372   5.224   6.522   1.195  0.6682  2.4082 -2.1262
  151MOL0     H20373   5.034   6.804   0.906 -0.3474 -1.3546  0.7325
  151MOL0     H20374   5.144   6.690   0.822  2.0360 -0.2258  1.3545
  151MOL0     H20375   5.225   6.934   0.972 -0.9366  0.5323 -1.6406
  151MOL0     H20376   5.193   6.926   0.801  2.8450  0.0422 -0.0871
  151MOL0     H20377   5.376   6.795   0.737  0.8605  1.2324 -0.5250
  151MOL0     H20378   5.410   6.740   0.908  0.5512 -0.7951 -1.3580
  151MOL0     H20379   5.496   6.946   0.976 -1.5464  4.4630  0.2729
  151MOL0     H20380   5.583   6.896   0.830  0.9444  2.8592 -0.2389
  151MOL0     H20381   5.383   7.260   0.732 -2.3955 -1.6288 -1.1957
  151MOL0     H20382   4.912   6.642   0.941 -0.6465  1.0295  0.5874
  151MOL0     H20383   4.688   6.378   0.959  0.3203 -0.7934  0.7870
  151MOL0     H20384   4.652   6.519   1.036  1.5131  1.9261  0.1061
  151MOL0     H20385   4.752   6.526   0.888 -2.4301 -0.0532  0.0463
  152MOL0     O20386   1.191   2.731   7.717 -0.4943  0.5444  0.1262
  152MOL0     C20387   1.277   2.814   7.715  0.6872 -0.3431  0.2382
  152MOL0     O20388   1.280   2.921   7.630 -0.4734  0.5289 -0.6907
  152MOL0     C20389   1.180   2.913   7.534 -0.6831 -0.6162 -1.4927
  152MOL0     C20390   1.213   2.842   7.417  1.0404 -0.3404  0.7384
  152MOL0     C20391   1.120   2.835   7.317  0.7601 -0.2328  0.6834
  152MOL0     C20392   0.996   2.907   7.328 -0.0978  0.3177  0.0916
  152MOL0     O20393   0.908   2.904   7.230  0.1200 -0.5173  0.1375
  152MOL0     C20394   0.770   2.878   7.262  0.5771  0.6518  0.6199
  152MOL0     C20395   0.720   2.762   7.176  0.2168  0.2324  0.0842
  152MOL0     C20396   0.577   2.734   7.209 -0.0026  0.8570  0.0909
  152MOL0     C20397   0.534   2.603   7.130 -0.8860 -1.4293  0.4164
  152MOL0     C20398   0.571   2.473   7.197  0.3236  0.2765 -0.0583
  152MOL0     C20399   0.503   2.337   7.147 -0.4402  1.3100  0.5224
  152MOL0     C20400   0.590   2.228   7.196  0.1885  0.4450  0.1661
  152MOL0     C20401   0.542   2.086   7.148 -0.3734 -1.6397 -0.0271
  152MOL0     N20402   0.411   2.053   7.221 -0.4906 -0.4609 -0.4150
  152MOL0     C20403   0.319   1.988   7.150  1.4955 -0.0147 -0.6751
  152MOL0     C20404   0.216   1.975   7.240  0.2426 -0.2830  0.4244
  152MOL0     C20405   0.075   1.932   7.223 -0.3109 -1.2497 -0.3046
  152MOL0     C20406   0.070   1.830   7.113 -0.3705  0.8806 -0.3068
  152MOL0     C20407  -0.065   1.802   7.054  0.9154 -0.2190 -0.2489
  152MOL0     C20408  -0.071   1.668   6.982  0.1584 -0.9814 -0.3857
  152MOL0     O20409  -0.069   1.564   7.079  0.3833  0.1809 -0.7296
  152MOL0     C20410  -0.092   1.445   7.033 -0.5801 -0.1221  0.3718
  152MOL0     C20411  -0.097   1.405   6.897  0.3828 -1.0936  0.4205
  152MOL0     C20412  -0.133   1.273   6.863 -0.4115  0.3121  0.0315
  152MOL0     C20413  -0.155   1.173   6.961 -0.3710  0.3398 -0.4395
  152MOL0     C20414  -0.186   1.046   6.911  0.3411  1.1621  0.6153
  152MOL0     O20415  -0.260   0.963   6.988  0.0886  0.3125  0.1679
  152MOL0     C20416  -0.300   0.851   6.926  0.1497  0.7438  0.0687
  152MOL0     C20417  -0.244   0.733   6.976  0.5077 -0.3172  0.4709
  152MOL0     C20418  -0.282   0.608   6.926 -0.6579 -0.4446 -0.2718
  152MOL0     C20419  -0.374   0.598   6.829  0.3084 -0.1474  0.0672
  152MOL0     O20420  -0.401   0.475   6.781  0.4625  0.3572 -0.2474
  152MOL0     C20421  -0.539   0.449   6.784  1.1425  0.6042 -0.4366
  152MOL0     C20422  -0.573   0.312   6.713  0.8147 -0.1615 -0.4599
  152MOL0     C20423  -0.714   0.249   6.731  0.3131  0.7675  0.4081
  152MOL0     C20424  -0.717   0.151   6.845  0.0239 -0.1945 -0.4525
  152MOL0     C20425  -0.859   0.101   6.871 -0.5055  0.2859 -0.2712
  152MOL0     C20426  -0.906   0.118   7.015 -0.7410 -0.2995 -0.3867
  152MOL0     C20427  -0.840   0.008   7.107  0.8184 -0.9932  0.9158
  152MOL0     C20428  -0.743   0.081   7.201 -0.0158 -0.0607  0.1860
  152MOL0    Cl20429  -0.617  -0.030   7.283 -0.3432 -0.1831  0.2726
  152MOL0     C20430  -0.426   0.724   6.777 -0.4672  0.3200 -0.2979
  152MOL0     C20431  -0.400   0.852   6.828  0.8233  1.1398 -0.0285
  152MOL0     O20432  -0.157   1.021   6.792  0.0670 -0.3889 -0.4577
  152MOL0     C20433  -0.139   1.213   7.094 -1.3120 -0.2389 -0.7962
  152MOL0     C20434  -0.101   1.345   7.124 -0.6294  0.4178 -0.0636
  152MOL0     N20435   0.249   2.017   7.355 -0.0353  0.4298 -0.2275
  152MOL0     N20436   0.369   2.050   7.345 -0.6974  0.1136 -0.0892
  152MOL0     C20437   0.972   2.983   7.447 -0.1220  0.7988  0.8325
  152MOL0     C20438   1.064   2.978   7.552  1.2074  0.6408  0.2401
  152MOL0     C20439   1.375   2.798   7.824  0.1325 -0.5468 -0.6021
  152MOL0     C20440   1.334   2.728   7.938  0.8068  1.0672 -0.7402
  152MOL0     C20441   1.420   2.692   8.034  0.0179 -0.5845 -1.0919
  152MOL0     C20442   1.555   2.718   8.026 -0.6163  0.1978  0.1975
  152MOL0     O20443   1.645   2.664   8.117 -0.7403  0.2469 -0.7556
  152MOL0     C20444   1.713   2.762   8.199  0.1209  0.5170  1.0389
  152MOL0     C20445   1.694   2.718   8.347  0.8175  0.4419 -0.4757
  152MOL0     C20446   1.687   2.842   8.444 -0.5953 -0.6958 -0.0898
  152MOL0     C20447   1.821   2.917   8.460  0.8712 -0.5272  0.3014
  152MOL0     C20448   1.921   2.829   8.519  0.8137 -0.3538 -1.0597
  152MOL0     C20449   2.008   2.757   8.564  0.2970 -0.2537 -0.4232
  152MOL0     C20450   1.593   2.808   7.919 -0.2678 -0.4209  0.2179
  152MOL0     C20451   1.513   2.833   7.812  0.3716  0.1770  0.1019
  152MOL0     C20452   1.578   2.884   7.684  0.7751  1.2811 -0.7333
  152MOL0     H20453   1.307   2.793   7.396  1.4560  0.9627 -0.6495
  152MOL0     H20454   1.148   2.779   7.228  1.0679 -0.4289  0.9017
  152MOL0     H20455   0.762   2.845   7.366 -0.0036 -3.9403 -0.6680
  152MOL0     H20456   0.719   2.973   7.246  1.7190  1.3003  0.7800
  152MOL0     H20457   0.786   2.682   7.210  0.2070 -0.1218 -0.7143
  152MOL0     H20458   0.745   2.780   7.071  2.8525  0.9814  0.7649
  152MOL0     H20459   0.522   2.823   7.177 -3.4123 -0.7364  1.0798
  152MOL0     H20460   0.547   2.727   7.314 -3.7707  6.4377 -0.1582
  152MOL0     H20461   0.425   2.602   7.136 -1.1818  4.5465  3.4466
  152MOL0     H20462   0.580   2.612   7.031 -1.1078  2.0320  0.5062
  152MOL0     H20463   0.679   2.460   7.181  0.5590 -0.6120  1.9142
  152MOL0     H20464   0.563   2.480   7.306  1.6863  3.0147 -0.0557
  152MOL0     H20465   0.396   2.330   7.168 -0.5805 -0.9745 -0.6978
  152MOL0     H20466   0.506   2.322   7.039 -0.1421 -0.8687  0.7909
  152MOL0     H20467   0.589   2.241   7.305 -2.7421 -0.4656  0.3367
  152MOL0     H20468   0.695   2.235   7.167  0.8604  0.5281  2.4040
  152MOL0     H20469   0.525   2.072   7.041  0.7537 -1.4422 -0.2359
  152MOL0     H20470   0.628   2.027   7.180  1.6193  1.0230 -0.1449
  152MOL0     H20471   0.316   1.962   7.045 -4.2093 -1.0407 -0.5849
  152MOL0     H20472   0.024   1.899   7.314 -1.0187  2.0456  0.6409
  152MOL0     H20473   0.010   2.016   7.198 -1.8729 -1.7097  1.9492
  152MOL0     H20474   0.126   1.863   7.025 -1.4023  1.8966 -0.6049
  152MOL0     H20475   0.105   1.735   7.154  0.3246  1.4010  0.3304
  152MOL0     H20476  -0.106   1.890   7.004 -0.8481  0.8840  2.8703
  152MOL0     H20477  -0.129   1.808   7.142  0.5647  0.1324 -0.5242
  152MOL0     H20478   0.018   1.664   6.919 -0.8577 -0.9614 -1.9024
  152MOL0     H20479  -0.168   1.661   6.930  0.4954 -2.2663 -0.8753
  152MOL0     H20480  -0.066   1.478   6.822  1.2394 -1.3640  0.5022
  152MOL0     H20481  -0.143   1.247   6.758  0.1891  0.3907 -0.0458
  152MOL0     H20482  -0.170   0.743   7.055  0.8763 -0.1625  0.1128
  152MOL0     H20483  -0.228   0.530   6.978 -0.2793 -0.5361 -0.7938
  152MOL0     H20484  -0.573   0.447   6.888 -1.2574 -2.1422 -1.1217
  152MOL0     H20485  -0.596   0.520   6.724  3.2992  0.5679 -2.7012
  152MOL0     H20486  -0.573   0.331   6.606  1.6402 -0.5089 -0.5325
  152MOL0     H20487  -0.497   0.242   6.750  1.4181  0.7819  0.1495
  152MOL0     H20488  -0.790   0.327   6.738  1.7964  2.1115  4.6113
  152MOL0     H20489  -0.722   0.189   6.640  0.4409  4.5001 -2.2850
  152MOL0     H20490  -0.679   0.209   6.930 -3.1510 -0.3726  1.2534
  152MOL0     H20491  -0.648   0.066   6.841 -3.9863 -3.7473 -2.0133
  152MOL0     H20492  -0.863   0.001   6.828  5.2818  0.3734 -1.8061
  152MOL0     H20493  -0.936   0.160   6.820 -2.5846 -0.2506  2.0234
  152MOL0     H20494  -0.898   0.223   7.046 -2.2238 -0.5773  1.0439
  152MOL0     H20495  -1.015   0.109   7.011 -0.7737  0.1251 -0.5094
  152MOL0     H20496  -0.795  -0.072   7.046 -0.3683 -1.6914  0.9260
  152MOL0     H20497  -0.911  -0.044   7.172  3.5692 -3.7319  1.9970
  152MOL0     H20498  -0.695   0.159   7.141 -2.9868  1.5200 -0.3222
  152MOL0     H20499  -0.800   0.126   7.283 -0.7316 -1.0277  0.2367
  152MOL0     H20500  -0.501   0.727   6.699 -2.4400 -1.7104  1.3785
  152MOL0     H20501  -0.458   0.938   6.797 -1.5857 -0.6420 -0.8104
  152MOL0     H20502  -0.162   1.137   7.169 -0.8064 -0.9126 -1.3137
  152MOL0     H20503  -0.082   1.375   7.226 -0.9316  4.1951 -0.9623
  152MOL0     H20504   0.883   3.045   7.456 -2.1894 -1.7985 -0.3413
  152MOL0     H20505   1.035   3.030   7.642  0.7002 -0.6348  0.8360
  152MOL0     H20506   1.234   2.687   7.948  1.4435  0.0093  2.8579
  152MOL0     H20507   1.387   2.639   8.123  2.4846 -1.2478 -0.4809
  152MOL0     H20508   1.691   2.867   8.177 -0.3863  0.4568  1.2486
  152MOL0     H20509   1.821   2.755   8.182 -0.2021 -0.8620 -0.7690
  152MOL0     H20510   1.782   2.662   8.381 -0.8130 -3.4004 -2.0509
  152MOL0     H20511   1.604   2.656   8.359  1.4852 -1.2097 -3.1743
  152MOL0     H20512   1.651   2.803   8.540  2.0601 -3.0789  0.0754
  152MOL0     H20513   1.609   2.910   8.409  0.9827  1.1656 -0.1852
  152MOL0     H20514   1.851   2.976   8.373 -2.5309  1.1776  0.1539
  152MOL0     H20515   1.806   2.996   8.534 -0.4549  1.6868 -2.1594
  152MOL0     H20516   2.081   2.687   8.597  1.2120  1.3617  1.1363
  152MOL0     H20517   1.699   2.831   7.920  0.1492 -2.1041  2.4478
  152MOL0     H20518   1.509   2.919   7.606  0.7098 -3.1227 -2.9549
  152MOL0     H20519   1.628   2.977   7.711 -1.5787  1.5906  3.3973
  152MOL0     H20520   1.645   2.809   7.642 -1.9643 -1.1124 -1.1833
  153MOL0     O20521   2.892   2.223   1.639 -0.7515  0.0122  0.1356
  153MOL0     C20522   2.976   2.141   1.674 -0.0753  0.6641  0.4745
  153MOL0     O20523   3.028   2.044   1.585  0.6299 -0.2822 -0.3686
  153MOL0     C20524   2.972   2.032   1.461  0.6556  0.3967  0.2913
  153MOL0     C20525   2.997   2.122   1.359  0.1094  0.1128  0.4220
  153MOL0     C20526   2.945   2.114   1.231 -0.6334  0.6880  0.2185
  153MOL0     C20527   2.853   2.016   1.207 -0.3186  0.4233 -0.2960
  153MOL0     O20528   2.817   1.997   1.074 -0.1191  0.1956 -0.1392
  153MOL0     C20529   2.683   1.953   1.044 -0.9878  0.0651 -0.7560
  153MOL0     C20530   2.634   1.961   0.891 -0.3292 -0.2697 -0.0315
  153MOL0     C20531   2.496   1.896   0.883 -0.0289 -0.2898 -0.5861
  153MOL0     C20532   2.392   1.998   0.925 -1.0991 -0.5117  0.5408
  153MOL0     C20533   2.259   1.954   0.868  0.1928  0.3623  0.2045
  153MOL0     C20534   2.200   1.819   0.938  0.0028 -0.1059  0.8139
  153MOL0     C20535   2.068   1.775   0.863  0.5979 -0.3828  0.9156
  153MOL0     C20536   2.001   1.662   0.941 -0.0839 -0.3608 -0.7617
  153MOL0     N20537   1.905   1.576   0.876  0.1233  0.0422  0.2885
  153MOL0     C20538   1.773   1.606   0.850 -1.3681 -0.3447  0.8536
  153MOL0     C20539   1.717   1.490   0.796  0.9757  0.2344 -0.1076
  153MOL0     C20540   1.561   1.471   0.763  0.9457  0.1361  0.2162
  153MOL0     C20541   1.527   1.427   0.620  0.8712  1.2916 -0.0352
  153MOL0     C20542   1.577   1.280   0.594  0.1622  0.7839  0.2354
  153MOL0     C20543   1.547   1.237   0.448 -0.5476  0.7108 -0.1143
  153MOL0     O20544   1.410   1.230   0.427  0.1157 -0.4865 -0.4360
  153MOL0     C20545   1.357   1.232   0.298 -0.2963  0.2002 -0.3638
  153MOL0     C20546   1.403   1.314   0.192 -0.0821  0.3786  0.4218
  153MOL0     C20547   1.336   1.306   0.074  0.9875 -0.2916  0.0103
  153MOL0     C20548   1.228   1.223   0.051 -0.0799  1.0807  0.7418
  153MOL0     C20549   1.175   1.211  -0.090 -0.6331  0.3619 -0.5578
  153MOL0     O20550   1.203   1.307  -0.180 -0.3658 -0.3729  0.2879
  153MOL0     C20551   1.147   1.303  -0.308  0.3155 -0.5922  0.3329
  153MOL0     C20552   1.015   1.360  -0.316  0.0760 -0.0454  0.1740
  153MOL0     C20553   0.963   1.393  -0.439 -0.2491 -0.6929  0.7712
  153MOL0     C20554   1.037   1.368  -0.554 -0.5236  0.0308  0.5648
  153MOL0     O20555   1.003   1.386  -0.690  0.2425 -0.5939 -0.2130
  153MOL0     C20556   0.866   1.437  -0.711 -0.1125  0.0929  0.5745
  153MOL0     C20557   0.859   1.510  -0.851 -0.8236  0.5267  0.9893
  153MOL0     C20558   0.953   1.636  -0.869  0.7062 -0.1379 -0.3301
  153MOL0     C20559   0.910   1.718  -0.986 -0.4080  0.1641  0.1808
  153MOL0     C20560   1.031   1.815  -1.017  0.1926  0.9254 -0.4993
  153MOL0     C20561   1.141   1.746  -1.092 -0.1756 -0.8661 -0.4724
  153MOL0     C20562   1.229   1.850  -1.163 -0.5631  0.0528  0.0568
  153MOL0     C20563   1.343   1.791  -1.249  0.5946  0.2596 -0.2348
  153MOL0    Cl20564   1.296   1.654  -1.345  0.1384 -0.7204  1.0194
  153MOL0     C20565   1.166   1.303  -0.545  0.1005 -0.5400 -0.0059
  153MOL0     C20566   1.226   1.281  -0.418  0.5201  0.5377 -0.0558
  153MOL0     O20567   1.103   1.115  -0.104 -0.1954  0.9964  0.1556
  153MOL0     C20568   1.183   1.145   0.158  0.1253  0.9675 -0.0566
  153MOL0     C20569   1.249   1.146   0.287  0.6694  0.7930  0.5770
  153MOL0     N20570   1.820   1.399   0.774 -0.6987  0.2334 -0.5720
  153MOL0     N20571   1.928   1.447   0.843  0.5467  0.2583  0.1542
  153MOL0     C20572   2.806   1.936   1.310  0.5811  0.0020  0.4039
  153MOL0     C20573   2.868   1.943   1.432  0.1077  0.0995 -0.2833
  153MOL0     C20574   3.027   2.134   1.821  0.0694  0.4856 -0.9945
  153MOL0     C20575   3.104   2.016   1.853 -0.5321 -0.7799 -0.2147
  153MOL0     C20576   3.150   1.999   1.983  0.1032 -0.5846 -0.2909
  153MOL0     C20577   3.136   2.104   2.084 -0.2592 -0.1328  0.6622
  153MOL0     O20578   3.195   2.096   2.209 -0.5055 -0.1340 -0.0001
  153MOL0     C20579   3.269   1.985   2.247 -0.1314 -0.5244  0.3897
  153MOL0     C20580   3.324   2.009   2.390  0.0014  0.4344 -0.8140
  153MOL0     C20581   3.426   1.890   2.431  0.0791 -0.0524 -0.1739
  153MOL0     C20582   3.475   1.891   2.578 -0.0761  0.1625  0.3156
  153MOL0     C20583   3.471   1.759   2.644 -0.6667 -1.5675 -0.2266
  153MOL0     C20584   3.478   1.647   2.691  0.2984  1.4833 -0.5093
  153MOL0     C20585   3.053   2.211   2.057  0.0414  0.2378 -0.5174
  153MOL0     C20586   2.998   2.227   1.929 -0.1048  0.2961  0.0107
  153MOL0     C20587   2.910   2.343   1.910  0.5673 -0.4459  0.1144
  153MOL0     H20588   3.070   2.198   1.383 -0.8068  1.1191  0.0952
  153MOL0     H20589   2.981   2.182   1.154  0.8750 -1.3567 -1.0122
  153MOL0     H20590   2.668   1.852   1.081  0.1905  0.8072  2.0169
  153MOL0     H20591   2.608   2.011   1.099  0.2507 -0.9762  2.2306
  153MOL0     H20592   2.696   1.890   0.835 -0.8840 -0.8014  0.0165
  153MOL0     H20593   2.650   2.056   0.839  1.7235 -1.3378 -1.5145
  153MOL0     H20594   2.487   1.810   0.949  0.6518 -0.1296 -0.2811
  153MOL0     H20595   2.473   1.872   0.779 -0.9272  1.5594 -0.8685
  153MOL0     H20596   2.386   2.009   1.034 -1.5546  3.7089  0.2666
  153MOL0     H20597   2.419   2.096   0.884 -1.8236 -1.3012 -1.9988
  153MOL0     H20598   2.183   2.031   0.882 -0.6922 -0.9093  3.2503
  153MOL0     H20599   2.264   1.949   0.759  2.5010  1.7482  0.1799
  153MOL0     H20600   2.273   1.738   0.930  0.6945  0.6116 -0.3014
  153MOL0     H20601   2.171   1.836   1.042 -0.6652  2.3580  0.2854
  153MOL0     H20602   2.100   1.757   0.760  1.4275 -0.8694  1.2558
  153MOL0     H20603   1.989   1.851   0.859 -0.2361 -1.2844 -0.7539
  153MOL0     H20604   2.075   1.597   0.987  0.8534  0.1766 -1.4763
  153MOL0     H20605   1.944   1.701   1.026  0.9466  0.9973 -0.6823
  153MOL0     H20606   1.721   1.702   0.853 -1.4896 -0.3181 -0.9770
  153MOL0     H20607   1.525   1.395   0.833  1.7271  1.1372  1.7425
  153MOL0     H20608   1.520   1.567   0.795  1.4835  0.0398  1.2114
  153MOL0     H20609   1.420   1.420   0.599  0.9773 -0.6660 -0.0531
  153MOL0     H20610   1.581   1.497   0.556  2.6760 -0.6143 -0.7133
  153MOL0     H20611   1.525   1.202   0.649  2.3891 -0.2146  1.0689
  153MOL0     H20612   1.682   1.271   0.623  0.4799  1.4458 -0.6512
  153MOL0     H20613   1.593   1.139   0.433  0.1733  1.0598 -0.2473
  153MOL0     H20614   1.603   1.307   0.385  0.8846  1.8946  2.3289
  153MOL0     H20615   1.487   1.383   0.197  0.9354 -0.7438 -0.5721
  153MOL0     H20616   1.369   1.361  -0.013 -0.2707 -0.1377 -0.4015
  153MOL0     H20617   0.954   1.384  -0.229  0.2885 -0.2750  0.3870
  153MOL0     H20618   0.865   1.438  -0.447  0.4957  0.8487 -0.0896
  153MOL0     H20619   0.791   1.358  -0.714 -2.6600  2.3331  1.7242
  153MOL0     H20620   0.859   1.518  -0.639 -0.5400 -0.6394  1.3679
  153MOL0     H20621   0.895   1.439  -0.925  1.3257  0.2853  2.1968
  153MOL0     H20622   0.752   1.528  -0.869 -1.0632 -2.0643 -0.6838
  153MOL0     H20623   0.937   1.686  -0.773 -0.5306 -0.4413 -0.3578
  153MOL0     H20624   1.051   1.589  -0.879  0.3514 -0.7798 -0.9043
  153MOL0     H20625   0.811   1.760  -0.974  0.3715  2.2644 -0.3718
  153MOL0     H20626   0.894   1.660  -1.078 -0.3307  3.4561 -2.0657
  153MOL0     H20627   1.071   1.868  -0.931 -1.0704  0.5451  0.3572
  153MOL0     H20628   0.979   1.888  -1.081 -0.4370  1.8909  1.0587
  153MOL0     H20629   1.213   1.693  -1.029 -0.5356 -0.2117  0.5163
  153MOL0     H20630   1.099   1.683  -1.170  4.2094  1.0951 -4.9571
  153MOL0     H20631   1.271   1.915  -1.086 -2.5308 -0.9169  2.0648
  153MOL0     H20632   1.166   1.907  -1.230 -0.0171  0.7375  0.1174
  153MOL0     H20633   1.387   1.860  -1.321  1.1850 -1.4270 -1.5605
  153MOL0     H20634   1.424   1.765  -1.180  1.2797 -2.0884 -1.7868
  153MOL0     H20635   1.216   1.277  -0.638 -0.3327  3.1088 -1.4328
  153MOL0     H20636   1.327   1.245  -0.407  1.0829  1.6525 -1.3256
  153MOL0     H20637   1.097   1.079   0.153  1.2492 -0.5831  0.0376
  153MOL0     H20638   1.197   1.095   0.368 -0.9527 -2.9628 -2.5258
  153MOL0     H20639   2.737   1.853   1.296  0.8465 -0.3075  0.9141
  153MOL0     H20640   2.826   1.873   1.505  0.1159  0.1205 -0.2583
  153MOL0     H20641   3.139   1.936   1.789  2.2290 -1.7121  2.2083
  153MOL0     H20642   3.209   1.910   1.999  0.1956 -0.7127 -1.3200
  153MOL0     H20643   3.360   1.965   2.191  0.0111 -2.7608  1.3072
  153MOL0     H20644   3.202   1.899   2.237 -1.5487  0.6630 -0.8762
  153MOL0     H20645   3.234   1.994   2.451  0.6181  0.4637  0.1309
  153MOL0     H20646   3.378   2.103   2.406  2.9706 -1.6229  2.7291
  153MOL0     H20647   3.505   1.889   2.355 -0.1190 -3.9694 -0.5080
  153MOL0     H20648   3.368   1.800   2.408 -0.0296 -0.7265  2.4593
  153MOL0     H20649   3.574   1.937   2.575 -0.3776  0.8127 -1.1398
  153MOL0     H20650   3.408   1.963   2.627 -1.1622 -0.3399 -0.3879
  153MOL0     H20651   3.498   1.546   2.721 -0.6448  1.2047 -0.7780
  153MOL0     H20652   3.043   2.287   2.134 -0.7259 -1.3468  1.0269
  153MOL0     H20653   2.950   2.415   1.838 -2.1849  0.4566 -0.6258
  153MOL0     H20654   2.807   2.310   1.894  1.0611 -3.7212  2.5994
  153MOL0     H20655   2.908   2.400   2.004 -1.2230 -0.4552  0.1132
  154MOL0     O20656   7.315   4.519   8.327 -0.0686 -0.5114 -0.3178
  154MOL0     C20657   7.352   4.416   8.268  0.3285 -0.4428 -0.0004
  154MOL0     O20658   7.278   4.327   8.205 -0.1784 -0.4736  0.0031
  154MOL0     C20659   7.147   4.344   8.177  0.1130  1.8040 -0.9777
  154MOL0     C20660   7.051   4.414   8.245  0.0149 -0.6737 -0.2646
  154MOL0     C20661   6.917   4.426   8.200  0.3843 -1.4526 -0.2256
  154MOL0     C20662   6.875   4.351   8.089  0.5730 -0.2657  0.9716
  154MOL0     O20663   6.742   4.335   8.059  0.0797  0.5620 -0.3213
  154MOL0     C20664   6.642   4.364   8.153 -0.1742  0.3132  0.2271
  154MOL0     C20665   6.503   4.308   8.101 -0.6453 -1.3181 -0.3288
  154MOL0     C20666   6.484   4.158   8.109 -0.6846  1.0831 -0.1897
  154MOL0     C20667   6.409   4.111   8.244 -0.6247 -0.6384  0.0075
  154MOL0     C20668   6.405   3.959   8.250  0.1085  0.4791  0.4040
  154MOL0     C20669   6.338   3.890   8.371 -0.3526  0.0733 -0.7984
  154MOL0     C20670   6.194   3.880   8.383  0.8176 -0.7085  1.3846
  154MOL0     C20671   6.130   3.789   8.275  0.7299 -0.4496  0.2270
  154MOL0     N20672   5.981   3.791   8.286  1.4129  0.4481  0.4523
  154MOL0     C20673   5.897   3.711   8.366 -0.2311  0.5731 -0.3637
  154MOL0     C20674   5.773   3.745   8.336 -0.5316  0.5226 -0.6211
  154MOL0     C20675   5.658   3.664   8.375  0.4078  0.6260 -0.5485
  154MOL0     C20676   5.554   3.743   8.447  0.2251 -0.1475  0.2539
  154MOL0     C20677   5.591   3.782   8.589 -0.1455 -0.0265 -0.2041
  154MOL0     C20678   5.506   3.896   8.634  0.1301 -0.1028  0.0875
  154MOL0     O20679   5.562   4.016   8.575 -0.8392 -0.2643  0.5780
  154MOL0     C20680   5.480   4.111   8.520  0.4214  0.0839  0.3389
  154MOL0     C20681   5.530   4.189   8.419 -0.0941  0.5433 -0.6971
  154MOL0     C20682   5.454   4.294   8.375 -0.9500 -0.3203  0.3633
  154MOL0     C20683   5.325   4.315   8.411 -0.1789 -0.0399 -0.0176
  154MOL0     C20684   5.251   4.424   8.357  0.7244 -0.3131  0.3416
  154MOL0     O20685   5.291   4.464   8.230 -0.4482  0.1245  0.2764
  154MOL0     C20686   5.240   4.571   8.166  0.6467  0.8811 -0.4811
  154MOL0     C20687   5.105   4.581   8.129  0.0966  0.3651  0.5298
  154MOL0     C20688   5.053   4.675   8.034 -0.9483 -0.3776 -0.8100
  154MOL0     C20689   5.137   4.779   7.991 -0.6792  0.2839 -1.1818
  154MOL0     O20690   5.103   4.897   7.918 -0.2997 -0.2335  0.1395
  154MOL0     C20691   4.969   4.929   7.889 -0.4702 -0.3857  0.8948
  154MOL0     C20692   4.956   5.076   7.854 -0.1811  0.7748 -0.6777
  154MOL0     C20693   5.012   5.179   7.965  1.1068  0.4222  0.6244
  154MOL0     C20694   4.955   5.307   7.930  0.1650  0.6570 -0.5605
  154MOL0     C20695   5.020   5.422   8.001 -0.4098 -0.1075 -0.4190
  154MOL0     C20696   5.011   5.428   8.158  0.2855 -0.7097 -0.5740
  154MOL0     C20697   4.870   5.459   8.208 -0.3118 -0.5436 -0.1034
  154MOL0     C20698   4.843   5.503   8.348  0.0285  0.4852 -0.4557
  154MOL0    Cl20699   4.887   5.681   8.360  0.0589  0.9055 -0.3832
  154MOL0     C20700   5.269   4.771   8.040  0.4213 -0.2129  0.4208
  154MOL0     C20701   5.324   4.668   8.118 -0.4783 -0.0254  0.7515
  154MOL0     O20702   5.147   4.465   8.412 -0.3237  0.0072 -0.4197
  154MOL0     C20703   5.271   4.226   8.505  0.2719 -0.5856 -0.2144
  154MOL0     C20704   5.348   4.132   8.571 -0.7965  1.5762  0.5051
  154MOL0     N20705   5.781   3.866   8.261 -0.1961 -0.4157 -0.6791
  154MOL0     N20706   5.904   3.881   8.226 -0.0131  1.2516  0.6199
  154MOL0     C20707   6.971   4.281   8.015 -0.0828 -0.9945 -0.3868
  154MOL0     C20708   7.103   4.272   8.054 -0.4645 -0.3191 -0.1579
  154MOL0     C20709   7.502   4.399   8.256 -0.7861 -0.9145 -0.2707
  154MOL0     C20710   7.549   4.366   8.134 -0.2961  0.3938 -0.2171
  154MOL0     C20711   7.689   4.346   8.117 -0.0337  0.3724 -0.8555
  154MOL0     C20712   7.773   4.365   8.231 -0.3523  1.0021 -0.0779
  154MOL0     O20713   7.910   4.358   8.237  0.1058  0.6864  0.5743
  154MOL0     C20714   7.966   4.250   8.155  0.1089 -1.1951 -1.0988
  154MOL0     C20715   8.120   4.242   8.165  0.0736 -0.4306  0.8172
  154MOL0     C20716   8.196   4.340   8.061  0.4686  0.6658 -0.1058
  154MOL0     C20717   8.315   4.416   8.128  0.2980  0.7048 -0.4520
  154MOL0     C20718   8.278   4.488   8.252  0.7079 -0.9115  0.5641
  154MOL0     C20719   8.249   4.550   8.347  0.2552 -0.0612 -0.3088
  154MOL0     C20720   7.719   4.387   8.354  0.4091 -0.6488 -0.4307
  154MOL0     C20721   7.581   4.414   8.373 -0.7299 -0.5659  0.2397
  154MOL0     C20722   7.531   4.446   8.513  0.0612 -0.8399  0.4733
  154MOL0     H20723   7.094   4.436   8.342  2.4987 -2.4630 -0.8294
  154MOL0     H20724   6.859   4.473   8.278  0.3807 -0.7037 -0.6740
  154MOL0     H20725   6.660   4.338   8.258 -2.1436 -1.8714  0.0813
  154MOL0     H20726   6.633   4.473   8.144 -1.3291  0.3060  1.1273
  154MOL0     H20727   6.498   4.337   7.995 -2.8275  5.0072  1.0472
  154MOL0     H20728   6.427   4.365   8.155 -0.7444 -0.3407 -1.4360
  154MOL0     H20729   6.589   4.127   8.114 -0.9230  0.3798  0.7129
  154MOL0     H20730   6.431   4.115   8.023 -1.3648 -1.1066  1.2192
  154MOL0     H20731   6.477   4.138   8.326  0.4372  1.0163 -1.3371
  154MOL0     H20732   6.309   4.155   8.250 -0.5173  0.0246 -2.2595
  154MOL0     H20733   6.370   3.917   8.155  5.4670 -0.8187 -1.3565
  154MOL0     H20734   6.512   3.936   8.250  0.0872  0.3394  1.3902
  154MOL0     H20735   6.388   3.793   8.384  1.5016  0.9305 -1.2059
  154MOL0     H20736   6.371   3.945   8.460  0.3702 -0.4214 -0.7487
  154MOL0     H20737   6.152   3.981   8.383 -1.7581 -1.6512 -1.2119
  154MOL0     H20738   6.164   3.833   8.477  0.5796 -1.5482  0.9076
  154MOL0     H20739   6.151   3.823   8.173 -1.2019 -1.0721 -0.4053
  154MOL0     H20740   6.162   3.685   8.276 -2.0024 -1.3953 -0.9907
  154MOL0     H20741   5.930   3.619   8.414 -2.2571 -1.1206 -2.0286
  154MOL0     H20742   5.610   3.626   8.284 -1.2213  2.2053 -0.4108
  154MOL0     H20743   5.703   3.585   8.435 -2.3294  2.0559  3.9084
  154MOL0     H20744   5.544   3.831   8.381 -3.3855 -0.8723 -0.3704
  154MOL0     H20745   5.458   3.691   8.447  0.7673 -1.3055 -1.9990
  154MOL0     H20746   5.696   3.813   8.586  0.6591 -2.5824 -1.4125
  154MOL0     H20747   5.596   3.702   8.663  1.3635 -2.0159 -2.3301
  154MOL0     H20748   5.499   3.909   8.742 -3.7952 -0.5486  0.0304
  154MOL0     H20749   5.407   3.876   8.592  1.0276 -0.8730 -1.7820
  154MOL0     H20750   5.627   4.175   8.373  0.1337 -1.0300  0.1763
  154MOL0     H20751   5.504   4.349   8.296 -1.0973  0.4095  0.7762
  154MOL0     H20752   5.028   4.507   8.151 -2.1676  2.0580 -1.2352
  154MOL0     H20753   4.946   4.678   8.016 -0.9520 -0.3269 -0.7796
  154MOL0     H20754   4.947   4.874   7.798 -1.9600 -1.4198  1.8404
  154MOL0     H20755   4.898   4.890   7.962 -0.0011 -1.9118  0.5723
  154MOL0     H20756   5.007   5.103   7.761  2.5344  1.0667  0.7958
  154MOL0     H20757   4.847   5.087   7.852 -0.1588  1.6631  1.0335
  154MOL0     H20758   4.981   5.139   8.062 -3.0698  0.1053 -0.6548
  154MOL0     H20759   5.121   5.184   7.961  1.2817 -2.4576 -1.8189
  154MOL0     H20760   4.847   5.298   7.946 -0.0441  1.1017 -1.5936
  154MOL0     H20761   4.975   5.335   7.826  1.4720  1.1085 -0.2002
  154MOL0     H20762   4.984   5.514   7.954 -0.2165  0.8489  1.2141
  154MOL0     H20763   5.128   5.417   7.983 -0.0912 -1.8976  1.5626
  154MOL0     H20764   5.038   5.327   8.191 -1.8934 -2.1056 -2.7028
  154MOL0     H20765   5.094   5.492   8.189  0.1983 -1.4309  1.3049
  154MOL0     H20766   4.820   5.364   8.186  0.5822 -1.1072  0.2501
  154MOL0     H20767   4.814   5.534   8.151 -2.8906  0.4124  3.3304
  154MOL0     H20768   4.738   5.505   8.377  0.5169  3.3133  1.4726
  154MOL0     H20769   4.901   5.440   8.416 -1.7500  0.4965  1.1585
  154MOL0     H20770   5.343   4.834   7.990  1.1698 -2.0928 -0.9770
  154MOL0     H20771   5.428   4.651   8.142 -0.8376 -1.2593  1.5122
  154MOL0     H20772   5.169   4.244   8.538  1.0459 -0.0210  2.0682
  154MOL0     H20773   5.301   4.079   8.653  2.1079 -2.0088  0.0988
  154MOL0     H20774   6.934   4.235   7.923 -0.2470 -1.2732 -0.1820
  154MOL0     H20775   7.165   4.205   7.994 -3.1233 -3.4416  0.2547
  154MOL0     H20776   7.483   4.355   8.049 -2.1254  1.7666  0.9175
  154MOL0     H20777   7.709   4.300   8.021 -2.0888  0.2719 -1.2836
  154MOL0     H20778   7.935   4.262   8.051 -0.3535  1.9936 -0.7034
  154MOL0     H20779   7.924   4.156   8.193 -2.0539  0.7468  1.8125
  154MOL0     H20780   8.160   4.144   8.137  1.3465  0.7215 -1.8016
  154MOL0     H20781   8.146   4.261   8.269  0.6282  1.3686  0.3866
  154MOL0     H20782   8.132   4.421   8.027  0.0426  0.6258  0.5793
  154MOL0     H20783   8.231   4.283   7.974  3.2131  0.3065  1.1148
  154MOL0     H20784   8.408   4.361   8.140 -1.6164 -2.2953  2.2001
  154MOL0     H20785   8.336   4.500   8.061  3.1121 -0.2027 -0.8133
  154MOL0     H20786   8.224   4.610   8.432 -2.1758 -0.9144 -0.3664
  154MOL0     H20787   7.774   4.392   8.448 -0.4924  0.1093  0.0728
  154MOL0     H20788   7.615   4.451   8.583  0.6097 -1.5646 -0.1076
  154MOL0     H20789   7.484   4.544   8.500 -0.6102 -1.3715 -1.4780
  154MOL0     H20790   7.455   4.386   8.563  0.1895 -0.9565  0.5304
  155MOL0     O20791   7.436   5.480   7.954  0.6905  0.6292  0.1747
  155MOL0     C20792   7.515   5.381   7.931 -0.0827 -0.6459 -0.3470
  155MOL0     O20793   7.519   5.259   7.995  0.1991 -0.3770  0.0212
  155MOL0     C20794   7.422   5.243   8.099  0.7394  0.8625  0.5229
  155MOL0     C20795   7.283   5.218   8.063 -0.7295  0.7865 -0.4829
  155MOL0     C20796   7.191   5.182   8.168 -0.0579 -0.9314  0.3804
  155MOL0     C20797   7.228   5.198   8.303 -0.2183 -0.4157  0.6076
  155MOL0     O20798   7.144   5.171   8.404  0.8841 -1.4906 -0.4016
  155MOL0     C20799   7.032   5.268   8.388 -0.0660  0.4015  0.2421
  155MOL0     C20800   6.987   5.327   8.520 -1.1595 -0.3116  1.1659
  155MOL0     C20801   7.095   5.415   8.593 -0.5303 -0.7272 -0.6808
  155MOL0     C20802   7.049   5.426   8.737 -0.4689 -0.4169 -0.2457
  155MOL0     C20803   7.052   5.567   8.797  0.1147 -0.6778  0.0397
  155MOL0     C20804   7.039   5.575   8.954  0.2533  0.0929  0.1202
  155MOL0     C20805   6.887   5.609   8.999  0.2303 -0.1795  0.7204
  155MOL0     C20806   6.893   5.702   9.122  0.4914  0.0740 -1.1729
  155MOL0     N20807   6.760   5.688   9.185  0.4240  0.0426  0.1981
  155MOL0     C20808   6.642   5.732   9.132 -0.6374 -0.5424  0.2514
  155MOL0     C20809   6.551   5.674   9.215 -0.1582  0.8598  0.5975
  155MOL0     C20810   6.400   5.680   9.213  0.9267  0.1380  0.5206
  155MOL0     C20811   6.345   5.756   9.332 -0.4597 -0.5880 -0.5872
  155MOL0     C20812   6.346   5.660   9.468 -1.0435  0.4507  1.3001
  155MOL0     C20813   6.267   5.730   9.580  0.2827 -0.7972 -0.4326
  155MOL0     O20814   6.131   5.696   9.563 -0.0297 -0.3961 -0.6984
  155MOL0     C20815   6.033   5.785   9.525  0.7188 -1.1617 -0.8987
  155MOL0     C20816   5.919   5.717   9.495  0.5683  0.2734  1.0660
  155MOL0     C20817   5.798   5.785   9.457  0.1451 -0.2860  0.3994
  155MOL0     C20818   5.810   5.924   9.449 -0.2363 -0.4484  0.5301
  155MOL0     C20819   5.699   5.996   9.403 -0.3370 -0.3887  0.0996
  155MOL0     O20820   5.721   6.125   9.370  0.0574  0.1469  0.1987
  155MOL0     C20821   5.620   6.197   9.309  0.7301 -0.9388  0.6849
  155MOL0     C20822   5.670   6.254   9.188 -0.0974  0.5025  0.1296
  155MOL0     C20823   5.597   6.347   9.125  0.7756 -0.9246  0.0532
  155MOL0     C20824   5.460   6.367   9.160 -0.2601 -0.3293 -0.1910
  155MOL0     O20825   5.379   6.460   9.097 -1.8358 -0.0041 -0.1508
  155MOL0     C20826   5.437   6.521   8.972 -0.7498 -0.0086 -0.1950
  155MOL0     C20827   5.329   6.590   8.891 -0.3223 -0.1467  0.6299
  155MOL0     C20828   5.247   6.700   8.951  0.1024 -0.7229 -0.1338
  155MOL0     C20829   5.341   6.827   8.988 -1.5108  0.1232  0.1260
  155MOL0     C20830   5.273   6.957   8.982  0.0520 -0.8022 -0.0684
  155MOL0     C20831   5.162   6.992   9.087 -0.6088 -0.4760 -0.0650
  155MOL0     C20832   5.121   7.148   9.082  0.2731  0.8129 -0.1603
  155MOL0     C20833   5.081   7.195   9.217 -0.1212  0.3588 -0.6265
  155MOL0    Cl20834   5.079   7.365   9.214  0.3108  0.1898  0.1874
  155MOL0     C20835   5.409   6.299   9.274  0.6491 -0.7634 -0.1809
  155MOL0     C20836   5.489   6.216   9.349  0.8487 -0.3847 -0.0096
  155MOL0     O20837   5.583   5.947   9.394 -0.7510  0.4296 -0.2883
  155MOL0     C20838   5.927   5.992   9.487  0.2562 -0.7225  0.3439
  155MOL0     C20839   6.039   5.923   9.529 -0.2165  0.2589  0.1826
  155MOL0     N20840   6.627   5.610   9.318  1.5371 -0.0391  0.2390
  155MOL0     N20841   6.752   5.611   9.283  0.0216  0.6329 -0.5448
  155MOL0     C20842   7.361   5.226   8.330 -0.2684  0.4568  0.5158
  155MOL0     C20843   7.459   5.246   8.233  0.0648  0.4742  0.3590
  155MOL0     C20844   7.627   5.406   7.837  0.6004 -0.2026  0.2657
  155MOL0     C20845   7.749   5.462   7.884 -0.6755  0.0552 -1.1691
  155MOL0     C20846   7.845   5.501   7.785  0.2240 -0.3706  0.1506
  155MOL0     C20847   7.830   5.475   7.650  0.0007  0.3545  0.7824
  155MOL0     O20848   7.933   5.511   7.560  0.2013 -0.0247  0.0826
  155MOL0     C20849   7.966   5.443   7.442 -0.2674 -0.1564 -0.4292
  155MOL0     C20850   8.036   5.552   7.351 -0.0608  0.3756  0.6662
  155MOL0     C20851   8.067   5.493   7.207 -0.9525  0.5984  0.4861
  155MOL0     C20852   8.113   5.612   7.106  0.3583  0.9879 -0.4532
  155MOL0     C20853   8.120   5.551   6.968 -0.8688 -0.2511 -0.7352
  155MOL0     C20854   8.132   5.514   6.855 -1.0420  0.1957 -0.2817
  155MOL0     C20855   7.719   5.415   7.605 -0.0752 -0.7989  0.5620
  155MOL0     C20856   7.612   5.381   7.696  0.3992 -0.3738 -0.2614
  155MOL0     C20857   7.492   5.311   7.630 -0.4284 -0.9701  0.6268
  155MOL0     H20858   7.270   5.200   7.957  0.7179 -1.3768 -0.3681
  155MOL0     H20859   7.090   5.161   8.136  0.3188  1.5945 -3.0925
  155MOL0     H20860   7.048   5.349   8.317  1.0920 -0.2531 -0.2645
  155MOL0     H20861   6.950   5.205   8.351 -1.5897  2.9550 -0.9842
  155MOL0     H20862   6.964   5.242   8.584 -0.7713 -0.7035  0.7922
  155MOL0     H20863   6.895   5.384   8.504 -1.3625 -0.4786  1.7180
  155MOL0     H20864   7.110   5.512   8.545 -3.1473  1.3969  2.3828
  155MOL0     H20865   7.193   5.367   8.585  0.1019  0.7795 -2.7792
  155MOL0     H20866   6.946   5.395   8.757  0.7173 -2.1350  4.4085
  155MOL0     H20867   7.099   5.362   8.810 -1.5013  0.6225  1.4391
  155MOL0     H20868   7.142   5.622   8.767 -0.7243  0.5772 -0.2557
  155MOL0     H20869   6.972   5.619   8.744 -2.2342 -0.5852  3.3139
  155MOL0     H20870   7.078   5.487   9.005 -3.6031 -0.0269  3.3091
  155MOL0     H20871   7.105   5.661   8.972  0.0269  1.0810 -3.1004
  155MOL0     H20872   6.841   5.514   9.025  1.1155 -0.3870  1.6378
  155MOL0     H20873   6.832   5.653   8.916  2.5601 -0.3484 -0.9916
  155MOL0     H20874   6.979   5.674   9.183 -0.9314 -2.1998 -0.0588
  155MOL0     H20875   6.907   5.804   9.086 -2.0328  0.6397 -0.7876
  155MOL0     H20876   6.616   5.792   9.045 -0.0788  2.2737  1.8944
  155MOL0     H20877   6.368   5.732   9.121 -1.8372 -2.7554 -0.3360
  155MOL0     H20878   6.338   5.591   9.200 -0.5933  1.2887 -0.6434
  155MOL0     H20879   6.406   5.846   9.346 -1.5378  0.0681  0.0244
  155MOL0     H20880   6.250   5.804   9.308  0.0139 -0.8675 -3.3484
  155MOL0     H20881   6.448   5.651   9.507  0.2906  2.1221 -1.4541
  155MOL0     H20882   6.294   5.566   9.448  1.4034 -0.2883 -2.7185
  155MOL0     H20883   6.294   5.836   9.573 -1.5084 -0.3873 -1.7779
  155MOL0     H20884   6.290   5.696   9.681  2.8348  2.7966  0.3879
  155MOL0     H20885   5.914   5.610   9.507  0.1144  0.0526 -0.8310
  155MOL0     H20886   5.704   5.739   9.430 -1.9256  1.6405  3.6300
  155MOL0     H20887   5.775   6.234   9.169  0.0952 -1.5658  2.8123
  155MOL0     H20888   5.653   6.395   9.045  1.3228 -0.6756  0.5777
  155MOL0     H20889   5.518   6.582   9.012  1.2030 -3.1173  0.9381
  155MOL0     H20890   5.488   6.454   8.902  0.6015  2.5605 -1.8370
  155MOL0     H20891   5.371   6.644   8.806 -0.9559  0.0338  0.4307
  155MOL0     H20892   5.263   6.510   8.858 -1.7391  1.2570 -0.0418
  155MOL0     H20893   5.165   6.732   8.887 -0.7407 -1.1977  0.6922
  155MOL0     H20894   5.222   6.670   9.053  2.4226 -0.1571  0.6759
  155MOL0     H20895   5.425   6.832   8.918  0.1860 -0.9414  1.9610
  155MOL0     H20896   5.386   6.822   9.088 -1.3005 -0.3074  0.0125
  155MOL0     H20897   5.228   6.959   8.882  2.1782 -1.0747 -1.0884
  155MOL0     H20898   5.351   7.034   8.986 -0.1709 -0.4083 -2.2570
  155MOL0     H20899   5.079   6.925   9.063  2.4575 -3.7377 -2.7941
  155MOL0     H20900   5.199   6.985   9.190 -0.7849  2.2963  0.2681
  155MOL0     H20901   5.041   7.170   9.011  1.0973  1.2998 -0.9681
  155MOL0     H20902   5.203   7.205   9.037  1.3936  0.3698  1.2281
  155MOL0     H20903   4.982   7.156   9.242  1.0028 -2.0332  0.5130
  155MOL0     H20904   5.157   7.158   9.287  2.8770 -2.6474 -4.8998
  155MOL0     H20905   5.304   6.301   9.302  0.6387 -0.0399 -0.2364
  155MOL0     H20906   5.458   6.163   9.439  3.3042  1.5790  2.1484
  155MOL0     H20907   5.925   6.101   9.483  2.8668 -0.5983  0.8737
  155MOL0     H20908   6.132   5.973   9.553 -1.9956  4.6735 -1.2527
  155MOL0     H20909   7.394   5.210   8.432 -1.4300 -0.3760  0.7807
  155MOL0     H20910   7.552   5.267   8.285  0.8683  0.3792 -1.0034
  155MOL0     H20911   7.777   5.476   7.988  1.8503 -0.8878 -1.6448
  155MOL0     H20912   7.939   5.551   7.803 -0.2000  0.4120  0.2120
  155MOL0     H20913   7.880   5.401   7.390 -0.6599  0.3259 -0.1755
  155MOL0     H20914   8.042   5.364   7.453 -1.2663 -0.9129  1.4453
  155MOL0     H20915   8.129   5.571   7.404  0.8886 -1.7309 -0.1235
  155MOL0     H20916   7.978   5.644   7.346  3.4141  2.6789 -0.7393
  155MOL0     H20917   7.977   5.441   7.172  0.9513 -2.7034  0.0527
  155MOL0     H20918   8.135   5.408   7.195 -0.6960  1.0873 -2.2074
  155MOL0     H20919   8.041   5.695   7.102 -1.1684 -0.2622 -0.0102
  155MOL0     H20920   8.210   5.645   7.142  0.9345 -1.1911  0.1423
  155MOL0     H20921   8.154   5.499   6.751  0.8864  0.9124 -0.0061
  155MOL0     H20922   7.693   5.396   7.502 -3.1319  0.4526  0.9617
  155MOL0     H20923   7.476   5.324   7.523  1.4319 -0.1139  0.4032
  155MOL0     H20924   7.520   5.206   7.644 -1.3504 -1.0363  2.1822
  155MOL0     H20925   7.396   5.328   7.680  0.1522  2.7680  0.8194
  156MOL0     O20926   0.569   1.299   2.659  0.0925 -0.7100  0.9629
  156MOL0     C20927   0.459   1.322   2.613 -0.5739  0.5303 -0.2000
  156MOL0     O20928   0.345   1.313   2.685  0.8910 -0.4451  0.7168
  156MOL0     C20929   0.359   1.291   2.820  0.4717  1.2127 -0.5534
  156MOL0     C20930   0.408   1.380   2.913  0.3541 -0.3331 -0.0600
  156MOL0     C20931   0.397   1.345   3.055  0.6163 -0.1328 -0.0146
  156MOL0     C20932   0.350   1.219   3.093  0.0399 -0.4606  0.0176
  156MOL0     O20933   0.342   1.205   3.232 -1.0630 -0.0807 -0.0383
  156MOL0     C20934   0.323   1.073   3.286  0.5544 -0.3452  1.4107
  156MOL0     C20935   0.322   1.075   3.443  0.5195  0.3823  0.6077
  156MOL0     C20936   0.469   1.084   3.499  0.1625  0.3669  0.1764
  156MOL0     C20937   0.466   1.085   3.643  0.1280  0.8528 -0.8718
  156MOL0     C20938   0.610   1.108   3.695 -0.1228 -0.0025  0.1904
  156MOL0     C20939   0.609   1.144   3.843  0.8115  0.7247 -0.2430
  156MOL0     C20940   0.584   1.027   3.951 -0.7248 -0.9398 -0.4875
  156MOL0     C20941   0.615   1.073   4.093 -0.1818 -0.4794 -0.3690
  156MOL0     N20942   0.595   0.947   4.183 -0.7286 -0.0928  0.0950
  156MOL0     C20943   0.680   0.869   4.261 -0.8491 -0.4120  0.1544
  156MOL0     C20944   0.601   0.764   4.311 -0.1270  0.7445  0.4349
  156MOL0     C20945   0.645   0.655   4.405  0.3687 -0.7633 -0.4541
  156MOL0     C20946   0.797   0.655   4.427 -0.7856 -0.4223 -0.1663
  156MOL0     C20947   0.869   0.592   4.305 -0.7812  0.0395 -0.2790
  156MOL0     C20948   0.928   0.458   4.328  0.4389 -0.2427  0.4227
  156MOL0     O20949   0.993   0.466   4.457 -0.0283  0.0192  0.1285
  156MOL0     C20950   0.963   0.388   4.571 -0.3093 -0.5638  0.2074
  156MOL0     C20951   0.884   0.270   4.584 -0.8824  0.3823 -1.3175
  156MOL0     C20952   0.864   0.201   4.711  0.2328 -0.4100 -0.3242
  156MOL0     C20953   0.922   0.252   4.828  0.0163  0.2669 -1.0411
  156MOL0     C20954   0.903   0.181   4.958 -0.0595 -1.2307  0.4469
  156MOL0     O20955   0.803   0.090   4.951  0.1742 -0.4405 -0.3095
  156MOL0     C20956   0.761   0.056   5.072  0.0957 -0.0042 -0.2156
  156MOL0     C20957   0.638   0.102   5.122 -0.0159  0.5779 -0.3955
  156MOL0     C20958   0.595   0.075   5.248 -0.0005  0.4176 -0.9994
  156MOL0     C20959   0.675  -0.001   5.337 -0.9835 -0.0042  0.6427
  156MOL0     O20960   0.617  -0.008   5.458 -0.2336  0.9109  0.2048
  156MOL0     C20961   0.680  -0.052   5.580 -0.2331  0.2872  0.5831
  156MOL0     C20962   0.576  -0.118   5.665 -0.2883 -0.3391 -0.5177
  156MOL0     C20963   0.460  -0.036   5.720  0.0547  0.5511  0.1009
  156MOL0     C20964   0.333  -0.115   5.746 -0.4242 -0.1150  0.4210
  156MOL0     C20965   0.230  -0.046   5.835 -0.3046  0.3334  1.0155
  156MOL0     C20966   0.116  -0.147   5.877  0.9236 -0.4216 -0.4133
  156MOL0     C20967   0.072  -0.109   6.020 -0.0521  0.3820  0.2759
  156MOL0     C20968  -0.034  -0.206   6.066 -1.1608 -0.2755 -0.7719
  156MOL0    Cl20969  -0.171  -0.192   5.959  0.1312 -0.2163  0.3484
  156MOL0     C20970   0.795  -0.053   5.279 -1.2419 -0.6675  0.0997
  156MOL0     C20971   0.838  -0.025   5.154  0.6233  0.6569  0.6491
  156MOL0     O20972   0.957   0.217   5.057 -0.1893 -0.6209 -0.1256
  156MOL0     C20973   1.003   0.367   4.811 -0.5948  0.1066  0.2936
  156MOL0     C20974   1.030   0.429   4.694  0.1586 -0.1358  0.7062
  156MOL0     N20975   0.481   0.774   4.257 -0.9753 -0.3360  0.1063
  156MOL0     N20976   0.471   0.882   4.191 -0.1084  0.5693 -0.6757
  156MOL0     C20977   0.309   1.125   2.993  0.4457 -0.1565  0.6833
  156MOL0     C20978   0.305   1.170   2.859 -0.1939 -0.3178  0.4443
  156MOL0     C20979   0.437   1.331   2.466 -0.1163  0.6733  0.5004
  156MOL0     C20980   0.310   1.356   2.416 -1.0512 -0.1234 -0.1484
  156MOL0     C20981   0.284   1.385   2.281  0.7050  0.1884 -0.2566
  156MOL0     C20982   0.377   1.410   2.190 -0.5176 -0.1536 -0.0862
  156MOL0     O20983   0.330   1.447   2.070 -0.7125 -0.1556  0.4586
  156MOL0     C20984   0.426   1.459   1.962 -0.0245  0.6614  0.3900
  156MOL0     C20985   0.349   1.448   1.827  0.1115 -0.3953 -0.3831
  156MOL0     C20986   0.449   1.507   1.722  0.6848 -0.3204 -0.2241
  156MOL0     C20987   0.448   1.429   1.588  0.6612  0.0736  0.1837
  156MOL0     C20988   0.549   1.485   1.504 -0.0071 -0.5186 -0.7686
  156MOL0     C20989   0.641   1.529   1.445  0.1510  0.0998 -0.3784
  156MOL0     C20990   0.510   1.394   2.235  0.4272 -0.7021  0.8918
  156MOL0     C20991   0.543   1.342   2.363 -0.0788 -0.1242 -1.1233
  156MOL0     C20992   0.690   1.335   2.399 -0.0960  0.1165 -0.6256
  156MOL0     H20993   0.442   1.481   2.893 -1.6595  0.9660  2.4402
  156MOL0     H20994   0.417   1.425   3.126  1.6161 -1.5644  1.3952
  156MOL0     H20995   0.225   1.034   3.257  1.0781  0.7539 -2.3933
  156MOL0     H20996   0.389   0.994   3.251  0.6677  0.7420 -1.0459
  156MOL0     H20997   0.279   0.981   3.480  1.1032  0.8739  2.6974
  156MOL0     H20998   0.262   1.163   3.466 -0.4370 -0.2542  0.6040
  156MOL0     H20999   0.529   1.167   3.462 -0.1536 -0.6560 -2.9509
  156MOL0     H21000   0.525   0.997   3.464  1.8429  0.3868  2.5843
  156MOL0     H21001   0.396   1.162   3.678 -1.6373 -0.2595 -1.8339
  156MOL0     H21002   0.426   0.989   3.675  0.6909  0.5168 -1.1476
  156MOL0     H21003   0.677   1.023   3.678  0.9429 -0.2884  4.4306
  156MOL0     H21004   0.658   1.191   3.642 -2.0462  0.6667 -0.5878
  156MOL0     H21005   0.711   1.182   3.853  0.1304  2.6577 -0.2935
  156MOL0     H21006   0.535   1.222   3.862 -1.8364 -1.5729 -0.5421
  156MOL0     H21007   0.639   0.940   3.914  0.3678 -1.0859  1.3790
  156MOL0     H21008   0.477   1.004   3.955 -0.4053 -3.1464 -2.3184
  156MOL0     H21009   0.713   1.122   4.100 -2.0113  3.4803  0.8028
  156MOL0     H21010   0.543   1.153   4.112  0.0383 -0.3314 -0.1508
  156MOL0     H21011   0.784   0.888   4.284 -0.5024  0.1411 -1.6904
  156MOL0     H21012   0.593   0.658   4.501  1.4796 -1.8433  0.2152
  156MOL0     H21013   0.609   0.558   4.370 -1.7237 -0.3591  0.4686
  156MOL0     H21014   0.834   0.756   4.445  2.2983 -1.3926 -0.5462
  156MOL0     H21015   0.809   0.595   4.518 -0.7683 -2.8127 -1.6675
  156MOL0     H21016   0.948   0.664   4.282  2.0340 -2.6168  0.5395
  156MOL0     H21017   0.807   0.597   4.215 -0.0914 -3.0246 -1.0324
  156MOL0     H21018   1.006   0.428   4.258  2.2978  0.4702  2.1034
  156MOL0     H21019   0.848   0.385   4.310  0.1869  0.1775 -0.2233
  156MOL0     H21020   0.824   0.238   4.499 -3.5074 -1.2870  1.0125
  156MOL0     H21021   0.809   0.108   4.705 -3.2444  1.5522 -1.5506
  156MOL0     H21022   0.574   0.167   5.063 -1.2722 -0.3465 -0.0963
  156MOL0     H21023   0.509   0.127   5.290 -0.1864 -0.7680  0.1492
  156MOL0     H21024   0.758  -0.124   5.555 -0.1606  0.0448  1.4880
  156MOL0     H21025   0.731   0.021   5.643 -0.2820 -2.7264  4.4785
  156MOL0     H21026   0.535  -0.201   5.607  4.8263 -0.5972 -4.5254
  156MOL0     H21027   0.628  -0.158   5.752 -0.3689  1.4818  0.4111
  156MOL0     H21028   0.494  -0.001   5.818  0.9564 -3.3301  1.3596
  156MOL0     H21029   0.433   0.039   5.646  4.1148  3.5068  1.2743
  156MOL0     H21030   0.357  -0.215   5.786  2.1221 -0.0023 -0.6589
  156MOL0     H21031   0.288  -0.125   5.647 -1.6802  4.5607  0.2931
  156MOL0     H21032   0.194   0.052   5.800 -1.7898 -0.8886 -1.1549
  156MOL0     H21033   0.296  -0.018   5.917  0.4727  3.1808 -0.4323
  156MOL0     H21034   0.035  -0.147   5.803 -0.4963  1.9903  1.0306
  156MOL0     H21035   0.166  -0.243   5.894  0.7115 -0.4004  0.3430
  156MOL0     H21036   0.030  -0.008   6.022  0.7950  0.7371  1.8337
  156MOL0     H21037   0.150  -0.128   6.094 -0.4742  1.4039  0.9964
  156MOL0     H21038   0.000  -0.310   6.066 -0.7543 -0.1505 -1.6788
  156MOL0     H21039  -0.056  -0.177   6.169  1.2338  3.8203 -1.1731
  156MOL0     H21040   0.846  -0.110   5.356 -1.0033 -0.2134  0.2837
  156MOL0     H21041   0.939  -0.059   5.135  0.3488  0.4921 -0.5966
  156MOL0     H21042   1.044   0.410   4.902 -1.0566 -0.4669  0.7804
  156MOL0     H21043   1.100   0.512   4.702  1.2146 -0.9256 -0.0651
  156MOL0     H21044   0.265   1.029   3.018 -1.1474  0.2371 -0.4349
  156MOL0     H21045   0.277   1.103   2.778  1.6562 -0.9476  0.2746
  156MOL0     H21046   0.236   1.357   2.495 -1.4262 -1.3760 -0.4617
  156MOL0     H21047   0.181   1.410   2.256  0.9006 -0.2973 -1.6404
  156MOL0     H21048   0.510   1.389   1.953 -0.3940  0.2594 -0.0347
  156MOL0     H21049   0.466   1.560   1.972 -1.1623  0.8700  5.8609
  156MOL0     H21050   0.252   1.498   1.824  0.9903  1.3896 -0.2575
  156MOL0     H21051   0.334   1.340   1.812  0.1771 -1.0734  3.3382
  156MOL0     H21052   0.554   1.508   1.755  0.3270  1.2167  1.0035
  156MOL0     H21053   0.414   1.611   1.726  2.5537  0.3398  2.3357
  156MOL0     H21054   0.463   1.321   1.599 -3.9054 -0.8783 -0.8411
  156MOL0     H21055   0.349   1.428   1.541  1.7617 -1.4783 -2.3374
  156MOL0     H21056   0.720   1.563   1.380 -2.3653 -0.2332 -3.8719
  156MOL0     H21057   0.586   1.424   2.165 -0.8438  2.0562  0.5558
  156MOL0     H21058   0.719   1.234   2.432 -2.6289 -0.2764  0.6319
  156MOL0     H21059   0.745   1.385   2.319  0.5715  2.1608  1.0377
  156MOL0     H21060   0.705   1.398   2.487 -1.3931  2.9047 -2.2892
  157MOL0     O21061   7.562   7.774   8.089 -0.6001 -0.0672 -0.3370
  157MOL0     C21062   7.520   7.791   8.205  0.1732 -0.5703  0.0647
  157MOL0     O21063   7.384   7.798   8.247 -0.7964  0.2806 -0.2578
  157MOL0     C21064   7.288   7.794   8.151 -0.1824 -0.3414  0.3907
  157MOL0     C21065   7.238   7.907   8.084 -0.6825  0.4105  0.5465
  157MOL0     C21066   7.144   7.886   7.975  0.1582  0.2424  0.0642
  157MOL0     C21067   7.096   7.762   7.941 -0.4703 -0.7689  0.1072
  157MOL0     O21068   7.036   7.746   7.818  0.1837 -0.3176  0.2031
  157MOL0     C21069   7.001   7.616   7.782 -1.2045  0.1967 -0.4821
  157MOL0     C21070   6.949   7.616   7.640 -1.3241 -0.5631 -0.1902
  157MOL0     C21071   6.808   7.664   7.626 -0.4591 -0.8075 -0.2298
  157MOL0     C21072   6.769   7.634   7.477  0.5183 -0.0300  0.0661
  157MOL0     C21073   6.623   7.680   7.455  0.5232 -0.6530  0.1009
  157MOL0     C21074   6.604   7.830   7.490  0.9585  0.7844  0.1287
  157MOL0     C21075   6.486   7.895   7.437  0.3650 -0.4884  0.4303
  157MOL0     C21076   6.459   8.033   7.509  0.0051 -1.0977  0.2404
  157MOL0     N21077   6.356   8.117   7.453 -0.1690  0.6702  0.0751
  157MOL0     C21078   6.220   8.092   7.437 -0.5968  0.0384  1.0724
  157MOL0     C21079   6.162   8.214   7.403 -0.1081  0.3912  0.0856
  157MOL0     C21080   6.021   8.239   7.358 -0.1429  0.7437 -0.2307
  157MOL0     C21081   6.008   8.259   7.204 -0.4412 -0.6624  0.1831
  157MOL0     C21082   5.870   8.310   7.172 -0.4385  0.7720  0.2816
  157MOL0     C21083   5.863   8.463   7.176 -0.9197  0.3108 -0.2770
  157MOL0     O21084   5.972   8.551   7.145 -0.2025 -0.3596 -0.5090
  157MOL0     C21085   5.981   8.624   7.034 -0.6340 -0.0490 -0.1519
  157MOL0     C21086   6.017   8.565   6.912 -0.9487  0.1338  1.2933
  157MOL0     C21087   6.022   8.634   6.787  0.7536 -0.6723 -1.4252
  157MOL0     C21088   6.001   8.778   6.782 -0.0781  0.7458 -0.4288
  157MOL0     C21089   5.982   8.860   6.662 -0.6214  1.3368  0.1691
  157MOL0     O21090   6.027   8.780   6.557 -0.1362 -0.0955 -0.0523
  157MOL0     C21091   6.053   8.828   6.430 -0.1332  0.2561 -0.3314
  157MOL0     C21092   6.106   8.953   6.407  0.8555 -0.7492  0.9738
  157MOL0     C21093   6.120   9.009   6.275  0.4493  0.5103 -0.0624
  157MOL0     C21094   6.100   8.928   6.162 -0.4687 -0.0036  0.3009
  157MOL0     O21095   6.120   8.996   6.038 -0.3754  0.3353 -0.3070
  157MOL0     C21096   6.133   8.909   5.924  0.3413 -0.0446 -0.2101
  157MOL0     C21097   6.067   8.973   5.803  0.3099 -0.1086  0.4359
  157MOL0     C21098   6.149   9.083   5.725  0.1565 -0.3183  0.5871
  157MOL0     C21099   6.067   9.158   5.622  0.7712  0.9272  0.1314
  157MOL0     C21100   6.161   9.253   5.544  0.3587 -0.1795  0.2871
  157MOL0     C21101   6.113   9.286   5.409  0.0429 -0.9431  0.1910
  157MOL0     C21102   6.142   9.177   5.308  0.1867 -0.3512  0.8342
  157MOL0     C21103   6.037   9.186   5.197  0.1327 -0.5092  0.5004
  157MOL0    Cl21104   5.867   9.163   5.252 -0.2651 -0.1646  0.0404
  157MOL0     C21105   6.068   8.793   6.180 -0.6801 -0.0598 -0.1565
  157MOL0     C21106   6.035   8.751   6.311  0.0554 -0.0654 -0.0694
  157MOL0     O21107   5.942   8.973   6.658  0.0853  0.3687 -0.6484
  157MOL0     C21108   5.954   8.833   6.904 -0.9122  0.1507 -0.1941
  157MOL0     C21109   5.957   8.761   7.027 -0.1049 -0.0806 -0.8665
  157MOL0     N21110   6.268   8.299   7.387 -0.2210 -0.0833 -0.0789
  157MOL0     N21111   6.382   8.249   7.412 -0.0745 -0.5281  0.5071
  157MOL0     C21112   7.136   7.648   8.023  0.2153 -0.0088 -0.4712
  157MOL0     C21113   7.221   7.671   8.130 -0.2096  0.6306  0.2877
  157MOL0     C21114   7.604   7.855   8.309  0.1819  1.0150 -0.2087
  157MOL0     C21115   7.547   7.948   8.404  0.1472 -0.3894  0.8094
  157MOL0     C21116   7.625   8.004   8.505 -0.2221 -0.3583  1.2974
  157MOL0     C21117   7.764   7.979   8.504 -0.6000 -0.9718 -0.9548
  157MOL0     O21118   7.851   8.045   8.592  0.6882 -0.2837  0.2403
  157MOL0     C21119   7.887   8.187   8.559 -0.3079 -0.2411 -0.5467
  157MOL0     C21120   7.956   8.263   8.662  0.1482 -0.7398  0.1258
  157MOL0     C21121   8.049   8.173   8.746  0.7375  0.5283  0.7418
  157MOL0     C21122   8.107   8.247   8.871 -0.2406  1.0355 -0.5555
  157MOL0     C21123   8.199   8.159   8.939  1.1115 -0.3394 -0.4443
  157MOL0     C21124   8.271   8.080   8.995  0.8447  0.4589  0.1258
  157MOL0     C21125   7.820   7.881   8.420 -0.1719 -0.4923  0.0956
  157MOL0     C21126   7.744   7.821   8.328  0.7912  0.0157 -0.0482
  157MOL0     C21127   7.795   7.695   8.273 -0.1005  0.8917  0.2698
  157MOL0     H21128   7.292   8.000   8.098 -0.6480  0.5090 -0.1919
  157MOL0     H21129   7.113   7.964   7.906 -0.4482  2.4254  2.6363
  157MOL0     H21130   7.096   7.561   7.784 -0.5274  1.3052 -1.1862
  157MOL0     H21131   6.923   7.567   7.840  0.0295 -1.3945 -0.0755
  157MOL0     H21132   6.963   7.512   7.607 -0.6560 -0.5420  0.0050
  157MOL0     H21133   7.009   7.682   7.578 -3.0693  0.5310 -0.7903
  157MOL0     H21134   6.794   7.766   7.664 -0.9607 -0.8845 -0.2051
  157MOL0     H21135   6.745   7.606   7.694 -0.2414 -0.1481  0.5520
  157MOL0     H21136   6.837   7.696   7.418 -1.9664  2.6967 -0.1634
  157MOL0     H21137   6.787   7.530   7.447 -2.2798 -1.4769  2.8818
  157MOL0     H21138   6.593   7.670   7.350  0.9553  0.2392 -0.1189
  157MOL0     H21139   6.569   7.610   7.519  2.0649 -1.0944  0.9702
  157MOL0     H21140   6.597   7.836   7.599 -1.2599  0.2539  0.0655
  157MOL0     H21141   6.685   7.893   7.453 -0.7213  1.3480 -2.9164
  157MOL0     H21142   6.395   7.837   7.450  0.5545 -1.4237 -1.9215
  157MOL0     H21143   6.503   7.910   7.330 -0.5021 -0.6228  0.2659
  157MOL0     H21144   6.427   8.027   7.614  2.9131 -0.7702  1.2529
  157MOL0     H21145   6.549   8.092   7.491  0.4091 -1.6615  0.3649
  157MOL0     H21146   6.184   7.989   7.436 -1.1898  0.1332 -2.8250
  157MOL0     H21147   5.962   8.150   7.383 -0.9825  0.6713 -2.2766
  157MOL0     H21148   5.990   8.331   7.407 -1.1701 -0.7778  2.1420
  157MOL0     H21149   6.092   8.320   7.167 -0.6722 -0.8213 -0.6341
  157MOL0     H21150   6.011   8.167   7.145  2.9063  0.1621 -1.1587
  157MOL0     H21151   5.802   8.255   7.237  2.0577 -0.0240  2.3884
  157MOL0     H21152   5.866   8.269   7.071  0.8441 -0.1637  0.5772
  157MOL0     H21153   5.835   8.497   7.277 -0.0048  1.4004 -0.3716
  157MOL0     H21154   5.771   8.477   7.119 -2.1000  1.1344  1.7218
  157MOL0     H21155   6.050   8.462   6.914 -2.3169 -0.4364 -1.3133
  157MOL0     H21156   6.035   8.570   6.701 -1.9154 -0.8041 -1.8157
  157MOL0     H21157   6.108   9.020   6.493 -1.1866 -1.3954  1.6010
  157MOL0     H21158   6.164   9.107   6.261  0.5301  0.6146  0.8372
  157MOL0     H21159   6.240   8.911   5.902  0.6750 -1.1719  1.1733
  157MOL0     H21160   6.076   8.816   5.930 -0.6846  0.5269 -0.9324
  157MOL0     H21161   6.046   8.898   5.726  2.4250  2.7658 -3.3039
  157MOL0     H21162   5.970   9.013   5.834 -0.3505  0.3960 -2.0615
  157MOL0     H21163   6.191   9.151   5.799  1.4452 -0.7498  0.2880
  157MOL0     H21164   6.231   9.029   5.675 -2.0250 -2.8792 -0.4699
  157MOL0     H21165   5.989   9.212   5.675 -2.3551 -3.8432  1.0304
  157MOL0     H21166   6.029   9.081   5.554  2.0339  1.1518 -0.8689
  157MOL0     H21167   6.259   9.210   5.521  0.1421 -0.4542 -0.1220
  157MOL0     H21168   6.192   9.339   5.604  4.1739 -0.7836 -0.5721
  157MOL0     H21169   6.008   9.313   5.424  0.8281  0.7998  3.8246
  157MOL0     H21170   6.160   9.379   5.375 -0.3508 -0.7520  0.1729
  157MOL0     H21171   6.140   9.087   5.370 -0.2388  0.2348  1.6841
  157MOL0     H21172   6.244   9.196   5.274 -0.5778  1.8850 -0.3876
  157MOL0     H21173   6.040   9.285   5.150  0.6188 -1.1163 -0.7684
  157MOL0     H21174   6.058   9.104   5.128 -0.7577 -2.0974  2.0213
  157MOL0     H21175   6.079   8.723   6.098  2.1508  1.6921 -1.4117
  157MOL0     H21176   6.000   8.649   6.323 -0.1322  0.2303  2.3232
  157MOL0     H21177   5.904   8.929   6.913 -0.4434  0.2144  2.8826
  157MOL0     H21178   5.935   8.828   7.109 -2.1468 -0.4125 -1.0851
  157MOL0     H21179   7.101   7.547   8.008 -0.8928 -0.3325  3.1264
  157MOL0     H21180   7.251   7.582   8.184 -0.9162 -0.9299 -1.7822
  157MOL0     H21181   7.443   7.978   8.397  0.4403  1.5015  2.9411
  157MOL0     H21182   7.588   8.080   8.573 -0.5361 -0.4153  1.1933
  157MOL0     H21183   7.791   8.237   8.545 -0.6171 -0.4937  0.5576
  157MOL0     H21184   7.941   8.175   8.464 -1.7596 -0.4593 -1.3744
  157MOL0     H21185   7.886   8.313   8.730  1.8914 -0.7313  2.0096
  157MOL0     H21186   8.021   8.330   8.604 -1.0915  0.1778 -0.2479
  157MOL0     H21187   8.128   8.133   8.683 -0.3937  0.4193 -0.6667
  157MOL0     H21188   7.991   8.090   8.788  0.1880  0.4870 -0.0835
  157MOL0     H21189   8.165   8.330   8.830  0.5996  0.3100 -0.8711
  157MOL0     H21190   8.040   8.278   8.952 -3.3034 -1.9526 -1.6807
  157MOL0     H21191   8.341   8.009   9.033 -0.7288 -1.1883  0.0422
  157MOL0     H21192   7.928   7.864   8.419  0.1205  1.1938 -1.3006
  157MOL0     H21193   7.707   7.645   8.231  0.4724  2.3804 -3.0634
  157MOL0     H21194   7.871   7.708   8.195  2.0151 -0.5874  1.9708
  157MOL0     H21195   7.842   7.649   8.359 -0.4920  0.5253  0.2906
  158MOL0     O21196   9.113  10.501   7.560 -0.5845  0.1345  0.8436
  158MOL0     C21197   9.041  10.580   7.627  0.8852  0.3342  0.2154
  158MOL0     O21198   9.091  10.664   7.724  0.0022  0.1745  0.6646
  158MOL0     C21199   9.224  10.668   7.761  0.2084  0.2328 -0.0059
  158MOL0     C21200   9.334  10.605   7.691  0.9971  0.0928 -0.1746
  158MOL0     C21201   9.448  10.583   7.759  0.5658  0.7290 -0.5684
  158MOL0     C21202   9.468  10.621   7.886  0.3781  0.7271  0.2467
  158MOL0     O21203   9.583  10.615   7.958  0.5934  0.6874  0.0516
  158MOL0     C21204   9.582  10.515   8.056 -1.0561 -0.3792 -0.3266
  158MOL0     C21205   9.732  10.509   8.107  1.2837 -0.7119  0.3935
  158MOL0     C21206   9.810  10.400   8.020  0.7102  0.0609 -0.6055
  158MOL0     C21207   9.960  10.415   8.055  0.4915 -0.4356  0.4652
  158MOL0     C21208  10.041  10.306   7.992 -0.8911  0.0219  0.0474
  158MOL0     C21209  10.046  10.297   7.837  0.1799  1.0141 -0.2265
  158MOL0     C21210  10.125  10.409   7.771  0.0281 -0.4758 -0.3144
  158MOL0     C21211  10.164  10.371   7.629 -0.1339 -0.0102  0.8668
  158MOL0     N21212  10.045  10.372   7.540 -0.7286  0.5122  0.3633
  158MOL0     C21213   9.974  10.480   7.500  0.3537  0.1390  0.4396
  158MOL0     C21214   9.846  10.430   7.458  0.1395  0.4310 -0.0492
  158MOL0     C21215   9.716  10.500   7.444  0.2144  0.1442  0.0281
  158MOL0     C21216   9.725  10.642   7.396 -0.1156 -0.1345  0.6572
  158MOL0     C21217   9.789  10.654   7.253  0.3190  0.3967 -0.8634
  158MOL0     C21218   9.856  10.787   7.226  0.1304  0.4644 -0.4135
  158MOL0     O21219   9.959  10.824   7.312 -0.4754 -0.1378 -0.0671
  158MOL0     C21220  10.082  10.747   7.314  0.2653  0.2799  0.5184
  158MOL0     C21221  10.164  10.758   7.426  0.3665  0.6319 -0.0893
  158MOL0     C21222  10.284  10.676   7.435 -0.5480 -0.2074 -0.1934
  158MOL0     C21223  10.317  10.585   7.334  0.2580 -0.5803  0.7712
  158MOL0     C21224  10.434  10.498   7.349 -0.1780  0.2651  0.6242
  158MOL0     O21225  10.464  10.395   7.267  0.5402  0.3416 -0.3945
  158MOL0     C21226  10.584  10.332   7.283  0.7393 -0.0540  0.3159
  158MOL0     C21227  10.699  10.353   7.206 -0.3573  0.1444 -0.1716
  158MOL0     C21228  10.817  10.284   7.235 -0.2587 -0.5072  0.0584
  158MOL0     C21229  10.814  10.176   7.322  0.0122  0.6692  0.3080
  158MOL0     O21230  10.916  10.086   7.332 -0.4425 -0.8390 -0.5347
  158MOL0     C21231  10.947  10.021   7.209  1.7125 -0.1877  1.4856
  158MOL0     C21232  11.046   9.909   7.243  1.3805  0.7561  0.0622
  158MOL0     C21233  11.081   9.830   7.112 -1.0940 -0.8503  0.0652
  158MOL0     C21234  11.228   9.794   7.120 -0.2674  0.7705 -0.0330
  158MOL0     C21235  11.279   9.717   6.993  0.1989  0.1484 -0.6761
  158MOL0     C21236  11.417   9.647   7.020 -0.4480 -0.0655 -0.6296
  158MOL0     C21237  11.437   9.516   6.933  0.8043  0.3149  1.2222
  158MOL0     C21238  11.368   9.394   6.990  0.6451 -0.1266  0.8219
  158MOL0    Cl21239  11.453   9.345   7.134 -0.1552  0.1256  0.5803
  158MOL0     C21240  10.702  10.145   7.395 -0.4919  0.3534 -0.1870
  158MOL0     C21241  10.587  10.227   7.375  1.0374 -0.3343  0.9621
  158MOL0     O21242  10.500  10.525   7.453  0.2415 -0.5590 -0.2400
  158MOL0     C21243  10.218  10.566   7.227  0.2978  0.5657  0.3484
  158MOL0     C21244  10.102  10.651   7.211  0.2045  1.0781 -0.3524
  158MOL0     N21245   9.863  10.284   7.457  0.0185 -0.4079  0.6336
  158MOL0     N21246   9.983  10.261   7.507  0.2999  1.3790 -0.7561
  158MOL0     C21247   9.359  10.682   7.949 -0.2229  0.8244  0.3740
  158MOL0     C21248   9.243  10.711   7.887 -0.9804 -0.4136 -1.0023
  158MOL0     C21249   8.893  10.579   7.577 -1.1860 -0.6558 -1.1567
  158MOL0     C21250   8.861  10.509   7.459  0.0578  0.0655 -1.0907
  158MOL0     C21251   8.734  10.499   7.408 -0.0104  0.5100 -0.3992
  158MOL0     C21252   8.623  10.555   7.480 -0.0497  0.4933  0.6635
  158MOL0     O21253   8.489  10.536   7.460 -0.3834 -1.2315 -0.7969
  158MOL0     C21254   8.454  10.449   7.353  0.0077  0.5158 -0.6982
  158MOL0     C21255   8.303  10.456   7.316  0.3562 -0.3816  0.0447
  158MOL0     C21256   8.238  10.598   7.313 -0.2525 -0.5800  0.0253
  158MOL0     C21257   8.275  10.658   7.178  1.0022  0.3820  0.7565
  158MOL0     C21258   8.239  10.800   7.179  0.3700  0.0397 -0.7804
  158MOL0     C21259   8.202  10.919   7.182 -1.0131 -0.3004 -0.6362
  158MOL0     C21260   8.650  10.638   7.591  0.2100 -0.5993  0.4104
  158MOL0     C21261   8.777  10.647   7.645  0.7302 -0.3474  0.7232
  158MOL0     C21262   8.798  10.746   7.767  0.2821  0.3618  0.0683
  158MOL0     H21263   9.344  10.578   7.586  0.4621  1.8624 -0.7109
  158MOL0     H21264   9.519  10.518   7.711 -1.0716 -0.4663 -1.4547
  158MOL0     H21265   9.522  10.548   8.141 -1.7636  3.6864 -2.1578
  158MOL0     H21266   9.552  10.413   8.034 -1.2016 -0.9367  2.1139
  158MOL0     H21267   9.725  10.485   8.213 -0.1952  1.8552  0.9521
  158MOL0     H21268   9.776  10.609   8.101  3.6148 -1.7327 -0.9573
  158MOL0     H21269   9.786  10.422   7.916 -1.9403  2.7728  0.4323
  158MOL0     H21270   9.779  10.299   8.046 -0.9197  0.7396  0.2168
  158MOL0     H21271  10.007  10.506   8.017  1.1978 -1.1833 -0.4558
  158MOL0     H21272   9.973  10.414   8.164 -3.3523  3.1910  1.2412
  158MOL0     H21273  10.149  10.308   8.011 -0.2837  0.9574 -2.9584
  158MOL0     H21274  10.015  10.208   8.033  1.6472 -0.6870  0.1754
  158MOL0     H21275  10.096  10.200   7.827  2.0515  1.9877 -0.8579
  158MOL0     H21276   9.942  10.297   7.806 -0.3905  2.5387  1.4822
  158MOL0     H21277  10.220  10.426   7.823  2.0554 -2.8019 -2.9472
  158MOL0     H21278  10.067  10.501   7.763  0.0500 -0.4259  0.1005
  158MOL0     H21279  10.238  10.442   7.590 -0.2386 -0.7710 -0.8102
  158MOL0     H21280  10.212  10.273   7.620  0.9324  0.5552  0.0733
  158MOL0     H21281   9.998  10.582   7.526  0.5713 -0.3018  2.0615
  158MOL0     H21282   9.650  10.443   7.379 -0.2260 -0.6407  1.1337
  158MOL0     H21283   9.663  10.520   7.538  0.7805  1.1726  0.1457
  158MOL0     H21284   9.629  10.696   7.394  0.1517  0.4694  2.1655
  158MOL0     H21285   9.790  10.700   7.463  0.9430 -0.5867  0.0398
  158MOL0     H21286   9.711  10.647   7.177  2.1105 -1.3404 -2.6853
  158MOL0     H21287   9.860  10.575   7.226  2.5297  1.6329  0.9416
  158MOL0     H21288   9.779  10.865   7.237  0.3027  0.4181  1.6623
  158MOL0     H21289   9.902  10.792   7.127  2.8412  0.9171  0.7608
  158MOL0     H21290  10.145  10.834   7.502  0.9279 -0.6953  1.4497
  158MOL0     H21291  10.347  10.701   7.520 -0.8729  2.2021 -0.5930
  158MOL0     H21292  10.716  10.426   7.127  2.0666 -1.1170 -0.9284
  158MOL0     H21293  10.913  10.313   7.194  0.3925 -1.5733  0.7899
  158MOL0     H21294  10.858   9.975   7.165  1.4679  0.3099  1.4543
  158MOL0     H21295  10.994  10.095   7.144  2.5552  0.2392  2.5521
  158MOL0     H21296  11.131   9.945   7.302  1.7302 -0.3178  0.2440
  158MOL0     H21297  10.998   9.839   7.311 -4.8787  3.0060 -1.3960
  158MOL0     H21298  11.019   9.742   7.095 -1.9987 -0.4785  1.2660
  158MOL0     H21299  11.069   9.889   7.020 -2.4525 -1.8910 -0.4542
  158MOL0     H21300  11.245   9.738   7.213 -3.0367  0.6283  0.4692
  158MOL0     H21301  11.277   9.890   7.136  4.1921 -1.1820 -0.5356
  158MOL0     H21302  11.295   9.800   6.923  0.6063 -1.5035 -2.6438
  158MOL0     H21303  11.198   9.657   6.953  0.1703  0.2951 -0.8426
  158MOL0     H21304  11.504   9.711   7.005  0.1603 -1.1289 -1.8921
  158MOL0     H21305  11.418   9.629   7.128 -1.7255  2.1519 -0.1837
  158MOL0     H21306  11.544   9.500   6.918  0.5750  2.0049 -3.9800
  158MOL0     H21307  11.405   9.536   6.830 -0.9565 -1.8676  1.2801
  158MOL0     H21308  11.262   9.414   7.011  1.2286  2.8110  1.3658
  158MOL0     H21309  11.376   9.302   6.933  2.1918  0.2787  0.3394
  158MOL0     H21310  10.681  10.062   7.462  0.6031  0.2134  0.0011
  158MOL0     H21311  10.504  10.199   7.439  1.2171 -1.8671  0.5612
  158MOL0     H21312  10.233  10.487   7.153 -3.2947  2.1503 -2.4123
  158MOL0     H21313  10.036  10.625   7.129 -0.7435 -4.1221  1.6312
  158MOL0     H21314   9.378  10.723   8.048  0.5383  2.2665 -0.3473
  158MOL0     H21315   9.172  10.772   7.942 -0.0615  1.1443 -1.4823
  158MOL0     H21316   8.940  10.454   7.408  1.2688  0.1965  0.5323
  158MOL0     H21317   8.714  10.457   7.310  1.2240  0.5062 -0.6634
  158MOL0     H21318   8.484  10.346   7.369 -1.2530  0.3327  0.6652
  158MOL0     H21319   8.509  10.475   7.262 -3.0195 -4.2892 -4.3809
  158MOL0     H21320   8.246  10.410   7.397 -0.9299  1.3705  0.1958
  158MOL0     H21321   8.279  10.404   7.222  0.6027 -1.3313  0.4922
  158MOL0     H21322   8.273  10.654   7.400  0.6006  1.1899 -1.3861
  158MOL0     H21323   8.129  10.585   7.310 -0.8059  3.0152  0.5369
  158MOL0     H21324   8.380  10.650   7.152  1.0201 -4.3422  1.5345
  158MOL0     H21325   8.229  10.596   7.101  0.8488  1.1363  0.2240
  158MOL0     H21326   8.179  11.022   7.167  2.3634  0.8548  1.1600
  158MOL0     H21327   8.559  10.683   7.631 -0.2166 -2.9180  2.2080
  158MOL0     H21328   8.784  10.688   7.858 -1.7366  1.4602  0.5218
  158MOL0     H21329   8.892  10.801   7.777  0.6795 -0.5454  1.4567
  158MOL0     H21330   8.729  10.831   7.762 -1.0357 -0.7436 -1.6460
  159MOL0     O21331   4.910  10.887   8.461  0.7446  1.0614  0.5915
  159MOL0     C21332   5.015  10.880   8.402 -0.5672  0.0266 -0.0479
  159MOL0     O21333   5.034  10.862   8.270  0.3263 -0.0796 -1.0064
  159MOL0     C21334   4.933  10.816   8.194  0.7165  0.1816  0.7600
  159MOL0     C21335   4.851  10.696   8.211 -0.0967  0.5094 -0.2100
  159MOL0     C21336   4.747  10.660   8.126 -0.6435 -0.1675 -0.0951
  159MOL0     C21337   4.715  10.743   8.023  0.1223  1.2806 -0.3461
  159MOL0     O21338   4.609  10.702   7.944 -0.1455 -0.3247 -0.4484
  159MOL0     C21339   4.536  10.798   7.864  1.1165  0.0937 -0.5908
  159MOL0     C21340   4.452  10.892   7.958  0.1614  0.5577  0.5049
  159MOL0     C21341   4.347  10.806   8.039  0.2278 -0.2839 -1.0342
  159MOL0     C21342   4.224  10.761   7.948 -0.9595 -0.9552  0.6447
  159MOL0     C21343   4.106  10.698   8.018 -0.3676 -0.6875 -0.0288
  159MOL0     C21344   3.990  10.679   7.924  0.5864  0.6741 -0.5791
  159MOL0     C21345   3.873  10.598   7.989 -0.3158  0.4353  0.2702
  159MOL0     C21346   3.936  10.458   8.042  0.4409 -0.3251 -0.4120
  159MOL0     N21347   3.828  10.361   8.058  0.3501  0.3519  0.0668
  159MOL0     C21348   3.856  10.229   8.064 -0.4483 -0.8069 -0.5554
  159MOL0     C21349   3.743  10.180   8.113  0.7169 -0.3084  0.5305
  159MOL0     C21350   3.710  10.038   8.145  0.1708  0.5122 -0.0759
  159MOL0     C21351   3.752   9.978   8.279 -0.2536  0.3415 -0.3111
  159MOL0     C21352   3.907   9.974   8.309  0.8617 -0.5359  0.4469
  159MOL0     C21353   3.970   9.857   8.255 -0.1520  0.2605 -0.6275
  159MOL0     O21354   4.026   9.877   8.124  0.3893  0.3841  0.1771
  159MOL0     C21355   4.167   9.888   8.120  0.1185 -1.0737  0.0983
  159MOL0     C21356   4.237   9.837   8.015 -0.3439 -1.3268  0.4367
  159MOL0     C21357   4.371   9.862   7.998  0.0724  0.1305  0.5019
  159MOL0     C21358   4.445   9.951   8.079  0.8499 -0.4743  0.4909
  159MOL0     C21359   4.573   9.993   8.053 -0.3736 -0.6709  0.6278
  159MOL0     O21360   4.622   9.987   7.925  0.0526 -0.7161  0.1607
  159MOL0     C21361   4.749  10.008   7.903 -0.5557  0.5121 -0.8608
  159MOL0     C21362   4.858   9.961   7.987  0.5834  0.1436 -1.1249
  159MOL0     C21363   4.992   9.991   7.968  0.2097 -0.7476  0.3286
  159MOL0     C21364   5.030  10.076   7.862  0.1086  0.0172  0.3723
  159MOL0     O21365   5.166  10.082   7.844  1.0634 -1.0272  0.1774
  159MOL0     C21366   5.216  10.180   7.751  0.1409  0.1399  0.3092
  159MOL0     C21367   5.257  10.294   7.829 -0.5130  0.3902  0.7560
  159MOL0     C21368   5.403  10.276   7.876 -0.0480  0.6488 -0.7819
  159MOL0     C21369   5.512  10.324   7.785  0.4962  0.6568 -0.5520
  159MOL0     C21370   5.654  10.311   7.846  0.1180 -0.3850 -0.1948
  159MOL0     C21371   5.757  10.382   7.764  0.8985 -0.0832 -0.2312
  159MOL0     C21372   5.896  10.384   7.820  0.2570 -0.0241 -0.3099
  159MOL0     C21373   5.905  10.440   7.971 -0.3803  0.1084 -0.4614
  159MOL0    Cl21374   5.917  10.616   7.991  0.6477  0.0029 -0.2636
  159MOL0     C21375   4.929  10.116   7.773 -0.9473 -0.2075 -0.3780
  159MOL0     C21376   4.796  10.085   7.799  0.0304 -0.1247  0.3384
  159MOL0     O21377   4.644  10.029   8.147 -0.6613 -0.0981 -0.2088
  159MOL0     C21378   4.376  10.004   8.186  0.1552  0.0824  0.5382
  159MOL0     C21379   4.236   9.979   8.200  0.0635 -0.4979  0.1513
  159MOL0     N21380   3.654  10.275   8.127 -0.2613  0.1066  0.1896
  159MOL0     N21381   3.703  10.388   8.097  0.6855 -0.3587 -0.2765
  159MOL0     C21382   4.784  10.860   8.007  1.1102  0.0070 -0.0850
  159MOL0     C21383   4.897  10.894   8.086 -0.1787 -0.3593  0.0851
  159MOL0     C21384   5.137  10.857   8.485 -1.2611  0.2451 -0.2975
  159MOL0     C21385   5.266  10.883   8.433  0.2849  0.2665  0.4728
  159MOL0     C21386   5.376  10.846   8.496  0.1034 -0.0655 -0.6468
  159MOL0     C21387   5.373  10.764   8.609 -0.0221  0.7149 -0.8225
  159MOL0     O21388   5.489  10.715   8.666  0.2758  0.0094 -0.1317
  159MOL0     C21389   5.626  10.755   8.639  0.6228 -0.5465 -0.9973
  159MOL0     C21390   5.687  10.686   8.529 -0.6942 -0.1209 -0.6606
  159MOL0     C21391   5.770  10.777   8.436 -0.3874 -0.5840  0.4907
  159MOL0     C21392   5.913  10.798   8.484 -0.0901  0.0689  0.3619
  159MOL0     C21393   5.945  10.792   8.631  1.3723  0.0081  0.2528
  159MOL0     C21394   5.973  10.779   8.746  0.5993  0.3331 -0.2738
  159MOL0     C21395   5.250  10.730   8.657  0.1448  0.5597  0.3431
  159MOL0     C21396   5.131  10.778   8.603  0.8515  0.0356 -0.7230
  159MOL0     C21397   5.006  10.739   8.666 -0.6838  0.9829  0.6521
  159MOL0     H21398   4.870  10.622   8.288 -3.0157 -1.1505 -0.9076
  159MOL0     H21399   4.694  10.565   8.131  0.4493 -0.8733 -1.3352
  159MOL0     H21400   4.606  10.859   7.806 -0.7893  2.6059 -0.3768
  159MOL0     H21401   4.468  10.742   7.799  1.7386 -1.5611  0.1074
  159MOL0     H21402   4.402  10.974   7.906  0.5909  0.1649 -0.5690
  159MOL0     H21403   4.527  10.930   8.028  0.1166  4.2567 -1.2218
  159MOL0     H21404   4.302  10.883   8.102  0.3615  2.0779 -3.6240
  159MOL0     H21405   4.382  10.725   8.104  0.5041  0.5604 -0.1013
  159MOL0     H21406   4.185  10.841   7.883 -1.1146  0.1704  2.0783
  159MOL0     H21407   4.260  10.680   7.883 -1.8094 -2.1073  1.5769
  159MOL0     H21408   4.151  10.609   8.063  1.8630 -1.1000 -2.7692
  159MOL0     H21409   4.074  10.759   8.102 -2.1739 -2.3161  0.5623
  159MOL0     H21410   3.958  10.783   7.917  1.7658  0.9764 -1.8215
  159MOL0     H21411   4.012  10.639   7.825 -0.1819  0.4125 -0.6494
  159MOL0     H21412   3.793  10.581   7.916  0.9886  1.8320 -1.5774
  159MOL0     H21413   3.843  10.652   8.079 -0.6286  2.8558 -1.1793
  159MOL0     H21414   4.010  10.421   7.969  1.0588  0.1727 -0.0438
  159MOL0     H21415   3.983  10.461   8.140 -1.8904 -0.0065  0.7547
  159MOL0     H21416   3.944  10.170   8.041  2.8244  3.0269  0.8166
  159MOL0     H21417   3.603  10.017   8.136  1.0677 -4.7569 -4.1095
  159MOL0     H21418   3.755   9.968   8.074 -1.2297 -0.3984 -0.1242
  159MOL0     H21419   3.716  10.040   8.362  1.2524 -1.0930  1.5106
  159MOL0     H21420   3.695   9.886   8.292 -1.3196  0.3404 -3.8934
  159MOL0     H21421   3.914   9.980   8.418 -3.7657 -0.9629  0.9725
  159MOL0     H21422   3.953  10.069   8.280 -2.9520  2.3421  2.8663
  159MOL0     H21423   3.907   9.768   8.245 -2.0495  1.2204  1.8212
  159MOL0     H21424   4.051   9.837   8.325 -0.7650 -0.1182 -0.0038
  159MOL0     H21425   4.197   9.771   7.940  0.8456 -0.5049 -0.9855
  159MOL0     H21426   4.419   9.817   7.911  0.0440  1.9235 -0.4920
  159MOL0     H21427   4.836   9.900   8.074  0.4757  0.7599 -0.7174
  159MOL0     H21428   5.056   9.943   8.042 -1.8738 -1.8104  1.5407
  159MOL0     H21429   5.303  10.137   7.701  0.2154 -4.0825  3.5827
  159MOL0     H21430   5.142  10.219   7.680  0.7165 -0.3190 -0.5563
  159MOL0     H21431   5.251  10.384   7.766 -1.9607  1.0659  1.7926
  159MOL0     H21432   5.190  10.303   7.916 -2.0010  0.9659 -0.4000
  159MOL0     H21433   5.417  10.329   7.971  0.7866  0.9296 -1.0493
  159MOL0     H21434   5.418  10.169   7.894 -0.1542  0.2760 -2.7548
  159MOL0     H21435   5.487  10.422   7.745 -0.5318  0.6739  0.1025
  159MOL0     H21436   5.514  10.250   7.704  3.0784 -0.0435  0.0578
  159MOL0     H21437   5.695  10.211   7.864  0.4487 -0.4335 -1.1813
  159MOL0     H21438   5.653  10.369   7.940 -1.6909 -0.0614 -0.3709
  159MOL0     H21439   5.754  10.315   7.677  0.2113  0.0538 -0.3235
  159MOL0     H21440   5.729  10.485   7.740  0.5162  0.5057  2.4364
  159MOL0     H21441   5.964  10.447   7.762 -1.1409  3.1780  1.2693
  159MOL0     H21442   5.935  10.282   7.815  0.5253 -0.2172  3.0664
  159MOL0     H21443   5.831  10.400   8.040  0.3086  0.1479  0.3246
  159MOL0     H21444   6.003  10.398   7.998 -0.6247  0.0960  0.4377
  159MOL0     H21445   4.956  10.170   7.683  0.9251  0.4831  0.5567
  159MOL0     H21446   4.718  10.104   7.726 -0.1528 -0.7248  0.3754
  159MOL0     H21447   4.429  10.079   8.243 -0.8746  0.4436  1.0484
  159MOL0     H21448   4.187  10.042   8.273 -0.9665  2.9733 -3.1698
  159MOL0     H21449   4.755  10.927   7.926 -0.0200 -0.5853 -0.1978
  159MOL0     H21450   4.954  10.987   8.082  0.3212 -0.5319  2.1763
  159MOL0     H21451   5.278  10.934   8.337  2.2313  0.9688  1.0260
  159MOL0     H21452   5.470  10.864   8.445  2.5122  0.4333  3.5227
  159MOL0     H21453   5.684  10.754   8.732  0.5618  0.5671 -0.9320
  159MOL0     H21454   5.621  10.864   8.630 -2.5922 -0.3852  0.9543
  159MOL0     H21455   5.610  10.636   8.469  1.3632 -3.4816 -0.7791
  159MOL0     H21456   5.746  10.604   8.572  0.9824  1.6662  0.5753
  159MOL0     H21457   5.717  10.872   8.427  1.6031  0.4796 -0.8536
  159MOL0     H21458   5.782  10.731   8.338  0.4729 -1.1669  0.8508
  159MOL0     H21459   5.972  10.722   8.432  0.4933 -0.2890  1.4949
  159MOL0     H21460   5.941  10.899   8.453 -1.3323  0.5144  0.6073
  159MOL0     H21461   6.002  10.739   8.841 -2.1100  1.4548  1.1456
  159MOL0     H21462   5.254  10.668   8.746 -1.2650 -0.1722 -0.0783
  159MOL0     H21463   5.019  10.671   8.750  3.1367  0.3369 -0.2982
  159MOL0     H21464   4.946  10.828   8.690  1.2381  2.1375  1.3734
  159MOL0     H21465   4.947  10.671   8.605  0.0485 -0.7220  1.7870
  160MOL0     O21466   6.924  11.395   7.600 -0.4753 -0.9930 -0.0713
  160MOL0     C21467   6.957  11.318   7.695 -0.2728 -0.0840  0.0069
  160MOL0     O21468   7.062  11.229   7.695  0.4402  0.3626  0.5796
  160MOL0     C21469   7.140  11.203   7.586  0.4292  0.4234 -0.5361
  160MOL0     C21470   7.128  11.086   7.512  0.5236 -0.0168 -0.8263
  160MOL0     C21471   7.213  11.064   7.399  0.1532 -0.4253  0.1682
  160MOL0     C21472   7.310  11.162   7.362  0.5196  0.3738 -0.0383
  160MOL0     O21473   7.394  11.115   7.259 -0.6092 -0.0394 -0.5549
  160MOL0     C21474   7.539  11.132   7.280  0.0012  0.1752  0.1203
  160MOL0     C21475   7.597  10.994   7.336  0.2673  0.4555 -0.4159
  160MOL0     C21476   7.755  10.973   7.348 -0.0769  1.0279  0.1562
  160MOL0     C21477   7.798  11.030   7.486  0.1109  0.2457  0.6670
  160MOL0     C21478   7.951  11.039   7.485  0.4050 -0.0563  0.8632
  160MOL0     C21479   8.008  10.923   7.577  0.1346 -0.3579 -0.6291
  160MOL0     C21480   8.163  10.950   7.597 -0.1906  0.5382  0.1341
  160MOL0     C21481   8.233  10.828   7.666 -0.6310 -0.2148  0.7358
  160MOL0     N21482   8.222  10.837   7.811 -0.3261  0.0876 -0.0918
  160MOL0     C21483   8.116  10.791   7.882 -0.7119 -0.2041 -0.3142
  160MOL0     C21484   8.157  10.791   8.010  0.3045 -0.6232 -0.5540
  160MOL0     C21485   8.085  10.738   8.122 -1.0225  0.7112 -0.0942
  160MOL0     C21486   7.957  10.828   8.151  0.5744 -0.2459 -0.6160
  160MOL0     C21487   7.822  10.771   8.206 -0.0984  0.7849  0.5372
  160MOL0     C21488   7.750  10.661   8.129  0.1428 -0.1921 -0.3427
  160MOL0     O21489   7.657  10.604   8.215 -0.4854  1.4288  0.3066
  160MOL0     C21490   7.526  10.639   8.201 -0.2214  0.2685 -0.1249
  160MOL0     C21491   7.442  10.546   8.268 -0.8134  0.1098 -0.0564
  160MOL0     C21492   7.302  10.550   8.266  0.1442  0.0043  0.4019
  160MOL0     C21493   7.237  10.653   8.191 -0.0963  0.3059 -0.0307
  160MOL0     C21494   7.090  10.662   8.186 -0.2741  0.1968  0.5053
  160MOL0     O21495   7.028  10.746   8.092  0.2349 -0.8493 -0.6377
  160MOL0     C21496   6.895  10.771   8.098 -0.1413  0.3222  0.4146
  160MOL0     C21497   6.842  10.869   8.184 -0.5725  0.1991 -1.5384
  160MOL0     C21498   6.705  10.895   8.183  0.1832  0.3640  0.2200
  160MOL0     C21499   6.620  10.832   8.089 -0.6102  0.0208  0.3213
  160MOL0     O21500   6.486  10.854   8.094 -0.1805  0.2186 -0.9872
  160MOL0     C21501   6.405  10.804   7.986  0.4865 -0.0463 -0.0126
  160MOL0     C21502   6.273  10.881   7.981 -0.1506  0.2483 -0.5570
  160MOL0     C21503   6.279  11.033   7.978 -0.0601 -0.0898 -0.8658
  160MOL0     C21504   6.333  11.086   7.849 -0.1698 -0.1830  0.4337
  160MOL0     C21505   6.350  11.248   7.836 -0.9410  0.6262 -0.5476
  160MOL0     C21506   6.452  11.291   7.726  0.5278 -0.2662 -0.0497
  160MOL0     C21507   6.376  11.332   7.601  1.0069  0.9037 -1.0982
  160MOL0     C21508   6.465  11.369   7.478 -0.1533  0.1413 -0.1049
  160MOL0    Cl21509   6.539  11.525   7.491 -0.4791 -0.2204 -0.1006
  160MOL0     C21510   6.682  10.731   8.003  0.4332 -1.4168  1.1010
  160MOL0     C21511   6.811  10.709   8.009 -0.4679 -0.1819 -0.2045
  160MOL0     O21512   7.031  10.606   8.270 -0.4298  0.5673 -0.6532
  160MOL0     C21513   7.323  10.749   8.132  0.5598  0.0673 -0.0522
  160MOL0     C21514   7.464  10.740   8.128 -0.2913  0.0573  0.6991
  160MOL0     N21515   8.283  10.852   8.024 -0.5621  0.4254 -0.0906
  160MOL0     N21516   8.325  10.868   7.900 -0.1830  1.7726  0.7200
  160MOL0     C21517   7.319  11.286   7.432 -0.5969 -0.1726  0.2559
  160MOL0     C21518   7.237  11.300   7.548 -0.3481 -0.2186  0.3121
  160MOL0     C21519   6.884  11.340   7.820 -0.1740  0.9951 -0.1594
  160MOL0     C21520   6.895  11.464   7.879  0.3095  0.0913  0.1022
  160MOL0     C21521   6.819  11.497   7.989  0.5222 -0.3941 -1.0799
  160MOL0     C21522   6.739  11.404   8.044 -0.0860 -0.2415 -1.1207
  160MOL0     O21523   6.641  11.443   8.134  0.3396 -0.4381 -0.7285
  160MOL0     C21524   6.576  11.343   8.216 -0.5358 -0.8732  0.3929
  160MOL0     C21525   6.505  11.412   8.334 -0.4848  0.6528 -0.2524
  160MOL0     C21526   6.359  11.450   8.291 -0.5267 -0.1769  1.0668
  160MOL0     C21527   6.272  11.329   8.281  0.0680  1.1820 -0.2869
  160MOL0     C21528   6.131  11.363   8.294 -0.3678 -0.9155 -0.4604
  160MOL0     C21529   6.015  11.389   8.326  0.5840 -0.0038  0.6374
  160MOL0     C21530   6.737  11.273   7.986 -0.2128 -0.0807  0.4458
  160MOL0     C21531   6.815  11.240   7.875 -0.1568 -0.4348  0.4382
  160MOL0     C21532   6.798  11.100   7.805 -0.7478 -0.1670 -0.3079
  160MOL0     H21533   7.050  11.014   7.533  2.0483 -1.5724 -0.2792
  160MOL0     H21534   7.188  10.975   7.343  0.0586  0.2059 -0.8172
  160MOL0     H21535   7.586  11.157   7.185  0.7548 -0.1450  0.3962
  160MOL0     H21536   7.553  11.200   7.364  0.8453 -0.5518  0.5926
  160MOL0     H21537   7.561  10.918   7.266 -0.3109  0.6968 -0.3866
  160MOL0     H21538   7.556  10.974   7.435  2.9564 -0.8094  0.5193
  160MOL0     H21539   7.799  11.014   7.257 -1.9484 -1.3696 -1.9785
  160MOL0     H21540   7.766  10.864   7.352  1.2483  1.1149 -0.5538
  160MOL0     H21541   7.757  11.128   7.509  2.3025  0.9929  1.6470
  160MOL0     H21542   7.757  10.962   7.562  0.0227  0.6171  0.9547
  160MOL0     H21543   7.982  11.026   7.381 -3.1650 -4.0004  0.0445
  160MOL0     H21544   7.978  11.139   7.521 -3.5999  1.6241 -0.2278
  160MOL0     H21545   7.962  10.920   7.676  1.7972 -2.3039  0.1650
  160MOL0     H21546   8.000  10.820   7.542 -2.4283  0.5733 -3.1899
  160MOL0     H21547   8.193  11.042   7.648  1.6456 -0.7306  1.4724
  160MOL0     H21548   8.212  10.951   7.499 -1.4410 -3.3641 -0.7319
  160MOL0     H21549   8.210  10.733   7.618  2.2713 -1.0259  0.7665
  160MOL0     H21550   8.338  10.839   7.638 -0.7715  1.9057  0.8633
  160MOL0     H21551   8.022  10.751   7.846  0.5485 -2.8213 -0.9582
  160MOL0     H21552   8.066  10.633   8.098  1.7335  0.2996 -0.7796
  160MOL0     H21553   8.150  10.731   8.210 -2.5216 -0.0722  0.9985
  160MOL0     H21554   7.991  10.905   8.220 -0.0944 -1.3323  0.9676
  160MOL0     H21555   7.923  10.881   8.061 -0.6541 -0.5534 -0.3472
  160MOL0     H21556   7.755  10.855   8.222  0.9900  1.0147  5.7333
  160MOL0     H21557   7.843  10.749   8.311  1.3762  0.7140  0.2535
  160MOL0     H21558   7.820  10.583   8.096  0.9678  1.0135 -1.5340
  160MOL0     H21559   7.703  10.692   8.036 -0.1977 -1.0192 -0.4586
  160MOL0     H21560   7.485  10.467   8.329 -1.9297  1.1020  2.1290
  160MOL0     H21561   7.238  10.493   8.331 -1.5344  2.3717  0.9604
  160MOL0     H21562   6.909  10.930   8.244  0.3992 -1.1484 -1.2259
  160MOL0     H21563   6.671  10.963   8.260  0.7960 -2.4653  3.2154
  160MOL0     H21564   6.445  10.825   7.887 -0.7073 -1.1166 -0.7534
  160MOL0     H21565   6.400  10.696   7.999  1.0745  0.1169  1.9054
  160MOL0     H21566   6.220  10.841   7.893  0.6849 -1.6865 -0.2392
  160MOL0     H21567   6.212  10.859   8.069  2.3068  0.8944  1.3997
  160MOL0     H21568   6.179  11.073   7.996 -0.2565 -0.4423 -1.1536
  160MOL0     H21569   6.346  11.055   8.062 -1.7888 -1.1953  0.8920
  160MOL0     H21570   6.273  11.059   7.762 -2.3881  4.9077  0.0407
  160MOL0     H21571   6.429  11.035   7.835  1.5690  2.4137  2.0041
  160MOL0     H21572   6.392  11.276   7.933 -1.3940  1.9467 -0.7192
  160MOL0     H21573   6.259  11.307   7.840 -0.0783  1.9529  0.2898
  160MOL0     H21574   6.513  11.374   7.761 -1.6405  0.8879  1.1899
  160MOL0     H21575   6.522  11.213   7.695  1.9292  0.5145  1.0106
  160MOL0     H21576   6.311  11.419   7.615 -2.2094 -1.5830  0.9183
  160MOL0     H21577   6.305  11.252   7.578  0.2514 -0.2889  4.1035
  160MOL0     H21578   6.539  11.292   7.452 -0.6020  0.3999 -2.3144
  160MOL0     H21579   6.396  11.373   7.394 -1.9949 -2.1004  1.1945
  160MOL0     H21580   6.608  10.671   7.950 -1.4232 -0.2414  2.2331
  160MOL0     H21581   6.853  10.629   7.948 -1.1171 -0.2700 -0.5509
  160MOL0     H21582   7.276  10.830   8.077  0.0581  1.0047  1.6728
  160MOL0     H21583   7.514  10.817   8.071 -3.6372  1.1312 -0.9990
  160MOL0     H21584   7.389  11.360   7.394 -0.6053 -1.3952 -2.3741
  160MOL0     H21585   7.241  11.398   7.595  0.1671  0.1701 -0.5182
  160MOL0     H21586   6.950  11.539   7.824 -0.2100  0.4260  0.0371
  160MOL0     H21587   6.813  11.593   8.039  1.8568 -1.1170  0.5493
  160MOL0     H21588   6.645  11.268   8.257  1.8681  0.8158 -0.3886
  160MOL0     H21589   6.510  11.288   8.148  0.4420  1.7370 -2.9405
  160MOL0     H21590   6.568  11.496   8.365  0.6036  0.0580 -0.7854
  160MOL0     H21591   6.490  11.342   8.417 -0.7446  0.0585 -0.7926
  160MOL0     H21592   6.361  11.500   8.194  2.9604 -2.0066  0.0497
  160MOL0     H21593   6.319  11.528   8.356  1.9016  2.1699 -0.0808
  160MOL0     H21594   6.297  11.295   8.180  2.4079  1.1490  0.2612
  160MOL0     H21595   6.290  11.247   8.351 -0.2868 -1.2524 -2.8190
  160MOL0     H21596   5.912  11.416   8.338 -1.3183 -5.0317 -1.5691
  160MOL0     H21597   6.665  11.200   8.022 -0.3036 -0.9413 -1.3745
  160MOL0     H21598   6.810  11.037   7.894  1.3875  4.0182  2.7491
  160MOL0     H21599   6.706  11.086   7.747  0.3398  0.8423 -2.3836
  160MOL0     H21600   6.876  11.078   7.731  0.1439  2.2283 -0.1659
  161MOL0     O21601   9.605  10.695   8.923  0.2439  1.2754  0.3472
  161MOL0     C21602   9.547  10.738   8.822 -0.2367  0.2136  0.4887
  161MOL0     O21603   9.433  10.689   8.783 -1.1088  0.0604  0.4678
  161MOL0     C21604   9.339  10.634   8.873 -0.1996 -0.1984 -0.0315
  161MOL0     C21605   9.282  10.707   8.977 -0.5291 -0.0475 -0.5202
  161MOL0     C21606   9.170  10.664   9.043  1.1640  0.0891  0.3826
  161MOL0     C21607   9.120  10.539   9.015 -0.1751 -0.0819 -0.4944
  161MOL0     O21608   9.032  10.497   9.117  0.5312  0.1148 -0.1592
  161MOL0     C21609   8.978  10.358   9.089 -0.2087 -0.4520 -1.4637
  161MOL0     C21610   8.831  10.373   9.129  0.1441  0.0421 -0.4077
  161MOL0     C21611   8.752  10.245   9.106  0.1980 -0.1816 -0.1314
  161MOL0     C21612   8.608  10.270   9.169 -0.4614  0.3561 -0.0604
  161MOL0     C21613   8.524  10.141   9.126  0.3569 -0.1145 -0.9055
  161MOL0     C21614   8.383  10.140   9.184 -0.4048 -0.8947 -0.2111
  161MOL0     C21615   8.301  10.262   9.144  1.2731  0.0365 -0.3013
  161MOL0     C21616   8.148  10.250   9.170  0.8004 -0.3991  0.2162
  161MOL0     N21617   8.109  10.230   9.315 -0.6865 -0.3443  0.0384
  161MOL0     C21618   8.176  10.287   9.419 -0.4271 -0.2801  0.0350
  161MOL0     C21619   8.105  10.253   9.529 -0.6083 -0.6505 -0.6463
  161MOL0     C21620   8.161  10.299   9.655 -0.4103 -0.3193  0.0875
  161MOL0     C21621   8.230  10.189   9.729  0.8546 -0.4156 -0.4867
  161MOL0     C21622   8.291  10.240   9.866  0.6131  0.9077  0.4883
  161MOL0     C21623   8.432  10.284   9.871 -0.3324  1.0739  0.7328
  161MOL0     O21624   8.479  10.389   9.786 -0.4778  0.4719  0.1417
  161MOL0     C21625   8.554  10.483   9.854 -0.3006  0.7354  1.0749
  161MOL0     C21626   8.524  10.618   9.847 -0.0052 -0.2315 -0.4101
  161MOL0     C21627   8.601  10.710   9.920  0.3120 -1.6797 -0.4089
  161MOL0     C21628   8.719  10.675   9.976  0.4964 -0.2110  0.2996
  161MOL0     C21629   8.800  10.782  10.039 -1.3283  0.1253  0.5930
  161MOL0     O21630   8.777  10.912   9.992  0.8787 -0.1595  0.5049
  161MOL0     C21631   8.870  11.012  10.014 -0.1311 -0.7148 -0.3390
  161MOL0     C21632   8.868  11.081  10.136 -0.9686 -0.7539  0.4648
  161MOL0     C21633   8.950  11.187  10.155 -0.4670  0.4446 -0.3902
  161MOL0     C21634   9.033  11.234  10.052 -0.2341 -0.3488  0.3629
  161MOL0     O21635   9.110  11.346  10.046 -0.1780 -0.3242 -0.6574
  161MOL0     C21636   9.067  11.458  10.135 -0.1901 -0.4616 -0.3549
  161MOL0     C21637   9.090  11.597  10.065  0.7402  0.7991 -0.2725
  161MOL0     C21638   9.010  11.611   9.939 -0.0520  1.1488 -0.7154
  161MOL0     C21639   9.037  11.746   9.875 -0.6047 -0.1950  0.0753
  161MOL0     C21640   9.036  11.711   9.720 -0.2109 -0.1192 -0.4219
  161MOL0     C21641   9.066  11.832   9.637 -0.2498  0.1318 -1.1199
  161MOL0     C21642   9.030  11.806   9.494  0.2222 -0.0024 -0.1803
  161MOL0     C21643   9.047  11.927   9.403  0.2412  0.2711  0.6152
  161MOL0    Cl21644   9.219  11.969   9.381 -0.3767 -0.0307 -0.2017
  161MOL0     C21645   9.040  11.155   9.938  0.4371 -0.4102  0.8182
  161MOL0     C21646   8.955  11.050   9.917  0.0055  0.9668  0.3990
  161MOL0     O21647   8.890  10.758  10.119  0.2096 -0.1518 -0.2484
  161MOL0     C21648   8.750  10.538   9.986  0.5403 -0.5304 -0.6897
  161MOL0     C21649   8.671  10.436   9.923  0.4169  0.0238  0.9676
  161MOL0     N21650   7.986  10.187   9.493 -0.2858 -0.8575 -0.5323
  161MOL0     N21651   7.995  10.174   9.360  0.0448  0.1798 -0.5878
  161MOL0     C21652   9.162  10.466   8.899 -1.1200  0.8455  0.3233
  161MOL0     C21653   9.274  10.517   8.828 -0.7262 -0.2145 -0.3206
  161MOL0     C21654   9.599  10.862   8.766 -0.4658 -0.8423  0.1753
  161MOL0     C21655   9.741  10.885   8.778 -0.4097  0.4692  0.3254
  161MOL0     C21656   9.787  11.002   8.721  0.5496 -0.0572 -0.0677
  161MOL0     C21657   9.711  11.101   8.661 -0.2124  0.1013 -0.1622
  161MOL0     O21658   9.784  11.202   8.598 -0.1688  0.2794  0.2450
  161MOL0     C21659   9.712  11.287   8.507 -1.5093  0.3999 -0.1744
  161MOL0     C21660   9.815  11.373   8.430  0.2042 -0.4215  0.6757
  161MOL0     C21661   9.757  11.506   8.384  0.0127 -0.6999  0.5719
  161MOL0     C21662   9.846  11.585   8.277 -0.5143 -0.0447 -0.2261
  161MOL0     C21663   9.804  11.552   8.136  0.2282 -0.5586 -0.5166
  161MOL0     C21664   9.783  11.514   8.020  0.3684  0.5955 -0.6215
  161MOL0     C21665   9.573  11.079   8.643 -0.0238  0.0285  0.0442
  161MOL0     C21666   9.517  10.966   8.708  0.1618  0.3327  0.3409
  161MOL0     C21667   9.368  10.944   8.676 -0.1050 -1.0963 -1.0905
  161MOL0     H21668   9.326  10.803   9.001 -2.8209  1.1059 -0.6797
  161MOL0     H21669   9.134  10.721   9.128  1.1372  2.8064 -1.3165
  161MOL0     H21670   8.995  10.320   8.988 -0.7626 -0.2055 -1.6507
  161MOL0     H21671   9.025  10.294   9.164  0.3887  2.1547  0.5338
  161MOL0     H21672   8.790  10.456   9.070  2.7539  3.2216  1.9228
  161MOL0     H21673   8.825  10.397   9.235  4.1509 -1.8037  0.4100
  161MOL0     H21674   8.803  10.156   9.144  0.6930 -1.3952 -3.3728
  161MOL0     H21675   8.738  10.236   8.998  1.4559 -0.7879 -0.2558
  161MOL0     H21676   8.617  10.293   9.275 -0.6908 -0.4416  0.1363
  161MOL0     H21677   8.560  10.359   9.128 -2.1075 -0.5660 -0.2304
  161MOL0     H21678   8.524  10.139   9.016 -2.5002 -0.2078 -0.9943
  161MOL0     H21679   8.582  10.055   9.160 -0.1510  0.1064  0.5690
  161MOL0     H21680   8.331  10.053   9.141  0.0171 -1.5429  0.5494
  161MOL0     H21681   8.388  10.144   9.294 -0.7168  1.2380 -0.2389
  161MOL0     H21682   8.311  10.297   9.041  0.9334 -1.5374 -0.8816
  161MOL0     H21683   8.340  10.343   9.208 -1.8524 -0.5313  2.6129
  161MOL0     H21684   8.097  10.338   9.131  0.0949 -0.2574  1.3902
  161MOL0     H21685   8.099  10.159   9.135 -5.0842  2.1645  0.5104
  161MOL0     H21686   8.265  10.349   9.422 -1.3519  1.2787  5.4182
  161MOL0     H21687   8.229  10.384   9.648  0.0796 -0.7790 -1.0000
  161MOL0     H21688   8.078  10.337   9.716 -0.8866 -2.2942  0.7522
  161MOL0     H21689   8.161  10.107   9.751 -0.9483  1.3187  0.6528
  161MOL0     H21690   8.311  10.137   9.677  0.3717 -1.4923 -0.1952
  161MOL0     H21691   8.275  10.153   9.929  2.1871  2.7396  3.7037
  161MOL0     H21692   8.227  10.318   9.909 -2.1159 -2.0817  2.2134
  161MOL0     H21693   8.494  10.196   9.848 -1.3078 -0.3991  3.2862
  161MOL0     H21694   8.468  10.288   9.974  1.0050 -2.8117  0.6156
  161MOL0     H21695   8.440  10.662   9.795 -0.6521 -1.6350 -0.6066
  161MOL0     H21696   8.588  10.817   9.903  2.2573 -0.9673  1.9935
  161MOL0     H21697   8.799  11.056  10.216 -2.2821 -1.9528 -0.9658
  161MOL0     H21698   8.944  11.236  10.251 -0.6114  2.8957 -1.5719
  161MOL0     H21699   8.960  11.446  10.155  0.2238 -1.7946  1.3689
  161MOL0     H21700   9.122  11.453  10.230  1.6974 -0.7662 -1.4239
  161MOL0     H21701   9.066  11.680  10.132  1.3616 -1.3283  2.8190
  161MOL0     H21702   9.195  11.592  10.037  1.0176  0.4113  0.8109
  161MOL0     H21703   9.023  11.522   9.876  1.8699 -0.7002  2.0852
  161MOL0     H21704   8.905  11.599   9.969 -0.1786 -0.1651 -1.5926
  161MOL0     H21705   9.132  11.796   9.896 -0.1172 -0.1750 -1.9858
  161MOL0     H21706   8.964  11.822   9.902  1.0676  2.7409 -2.9892
  161MOL0     H21707   8.932  11.690   9.693 -0.0022  0.8293 -2.1162
  161MOL0     H21708   9.102  11.629   9.690 -0.3005  0.2409 -1.6441
  161MOL0     H21709   9.016  11.919   9.681 -1.9460  0.3925 -3.4114
  161MOL0     H21710   9.173  11.851   9.654 -1.0977  3.5163  1.6350
  161MOL0     H21711   8.924  11.782   9.481 -0.6967  3.6521 -0.7266
  161MOL0     H21712   9.080  11.719   9.449  0.7668 -0.1993  0.7830
  161MOL0     H21713   8.985  11.924   9.313  0.6323 -0.0322  0.3476
  161MOL0     H21714   8.997  12.012   9.449  0.1170  1.4062 -1.5205
  161MOL0     H21715   9.106  11.181   9.856  1.4242  1.2671  2.0669
  161MOL0     H21716   8.952  11.005   9.818  0.6263  0.8388  0.4362
  161MOL0     H21717   8.847  10.525  10.033  1.9913  3.2061 -2.2796
  161MOL0     H21718   8.707  10.334   9.916  1.3306  0.1915  2.6714
  161MOL0     H21719   9.142  10.367   8.859 -1.6857  2.1806 -2.9342
  161MOL0     H21720   9.328  10.462   8.751  0.7457  4.6467 -3.2399
  161MOL0     H21721   9.805  10.812   8.827  2.9950  2.6792 -0.4716
  161MOL0     H21722   9.894  11.015   8.727  1.3917 -5.2064  0.3928
  161MOL0     H21723   9.650  11.357   8.563  1.6021  3.0251  0.2853
  161MOL0     H21724   9.665  11.216   8.440  0.7681 -4.4594  2.7996
  161MOL0     H21725   9.860  11.318   8.348 -2.2869 -1.8608  0.1487
  161MOL0     H21726   9.897  11.386   8.501  0.7672 -1.5655  0.2637
  161MOL0     H21727   9.769  11.570   8.472  0.8220 -0.1171  0.0541
  161MOL0     H21728   9.653  11.491   8.352 -0.1577 -0.9203  1.2159
  161MOL0     H21729   9.827  11.693   8.281  0.6401  0.1341  1.6780
  161MOL0     H21730   9.950  11.558   8.297 -0.9073 -0.1931  1.8465
  161MOL0     H21731   9.764  11.475   7.922 -1.3879 -1.8449  0.5992
  161MOL0     H21732   9.518  11.154   8.588  1.5253  1.2010 -0.0081
  161MOL0     H21733   9.354  10.890   8.582  0.3502 -1.7143 -0.8207
  161MOL0     H21734   9.302  10.895   8.748 -0.5669 -0.1227 -0.8434
  161MOL0     H21735   9.321  11.041   8.664 -3.5709 -2.2128  1.6163
  162MOL0     O21736   4.640   8.749   3.023 -0.2457 -0.7653  0.3327
  162MOL0     C21737   4.556   8.667   3.052  1.0661  0.4987  0.1926
  162MOL0     O21738   4.422   8.665   3.017 -0.1778  0.3452  0.2858
  162MOL0     C21739   4.359   8.773   2.966 -0.3312 -0.2015 -0.4848
  162MOL0     C21740   4.414   8.840   2.856  0.0489  0.1930  0.4849
  162MOL0     C21741   4.342   8.936   2.799 -0.0737 -0.0112 -0.4149
  162MOL0     C21742   4.214   8.976   2.846  0.4091 -0.3319 -0.4934
  162MOL0     O21743   4.142   9.076   2.787 -0.1837 -0.5376 -0.6467
  162MOL0     C21744   4.048   9.033   2.682 -0.6820 -0.8113 -0.2049
  162MOL0     C21745   4.082   9.101   2.546 -0.3118  0.2130  0.6974
  162MOL0     C21746   4.000   9.074   2.421 -0.0895 -0.0132 -0.2302
  162MOL0     C21747   4.037   9.165   2.295  0.6770  0.0873 -0.1302
  162MOL0     C21748   3.927   9.153   2.187 -0.4899  0.3934  0.7227
  162MOL0     C21749   3.924   9.011   2.128 -0.4625  0.1276  0.2210
  162MOL0     C21750   4.053   8.986   2.039 -0.9970 -0.1090  0.2735
  162MOL0     C21751   4.024   8.880   1.934  0.5426 -0.6560 -0.6988
  162MOL0     N21752   3.999   8.747   1.995  0.5271  0.0904  0.5197
  162MOL0     C21753   4.067   8.699   2.099  0.1412  0.3290 -0.0075
  162MOL0     C21754   3.976   8.629   2.171 -0.0739  0.1938  0.0549
  162MOL0     C21755   3.988   8.570   2.309  0.4478 -0.1044 -0.0507
  162MOL0     C21756   4.122   8.590   2.368 -0.3494 -0.0825 -0.0475
  162MOL0     C21757   4.128   8.556   2.515 -0.3282  0.1651 -0.1433
  162MOL0     C21758   4.124   8.401   2.550  0.1341 -0.1884 -0.2043
  162MOL0     O21759   4.159   8.367   2.683 -0.2411 -0.2376 -0.0507
  162MOL0     C21760   4.256   8.269   2.704  0.4710 -0.0468  0.6048
  162MOL0     C21761   4.382   8.282   2.636  0.0577 -0.1495  0.2408
  162MOL0     C21762   4.484   8.200   2.666 -0.6541  0.2195 -0.3587
  162MOL0     C21763   4.463   8.095   2.760 -0.1931  0.7715  0.3162
  162MOL0     C21764   4.561   7.990   2.782 -0.0863  0.2410  0.3574
  162MOL0     O21765   4.687   8.013   2.727 -0.0956 -0.6155 -0.0359
  162MOL0     C21766   4.782   7.915   2.702 -0.7626  0.4970 -0.6785
  162MOL0     C21767   4.760   7.774   2.692  1.0174  0.3353 -0.0171
  162MOL0     C21768   4.870   7.683   2.667 -0.0902  0.1448  0.3330
  162MOL0     C21769   4.998   7.726   2.670  0.5392 -0.5938  0.3325
  162MOL0     O21770   5.102   7.646   2.630 -0.7620  0.1955  0.4915
  162MOL0     C21771   5.210   7.625   2.718  0.8366 -0.2215  0.3698
  162MOL0     C21772   5.301   7.538   2.631 -0.6184 -0.3406 -0.8301
  162MOL0     C21773   5.425   7.613   2.582 -0.0114 -0.5462  0.0647
  162MOL0     C21774   5.519   7.511   2.514  0.9353 -0.9087  0.2905
  162MOL0     C21775   5.662   7.565   2.489 -0.6850 -0.6909 -0.1145
  162MOL0     C21776   5.760   7.447   2.485 -0.4453  0.1213  0.1659
  162MOL0     C21777   5.909   7.475   2.441 -0.4597 -0.8622 -0.2494
  162MOL0     C21778   6.020   7.385   2.496  0.2497 -0.4030  0.0682
  162MOL0    Cl21779   6.018   7.406   2.671  0.3939 -0.1458 -0.1294
  162MOL0     C21780   5.013   7.864   2.685 -0.1621 -0.3699  0.2491
  162MOL0     C21781   4.910   7.953   2.710  0.2756 -0.3689 -0.3334
  162MOL0     O21782   4.525   7.887   2.840  0.9966 -0.4093 -0.0195
  162MOL0     C21783   4.345   8.095   2.841  0.8969  1.1440  0.4861
  162MOL0     C21784   4.245   8.187   2.816 -0.6026  0.2183  0.9913
  162MOL0     N21785   3.860   8.625   2.089 -0.5164 -0.7062 -0.1451
  162MOL0     N21786   3.873   8.700   1.987  0.2719  0.5950  0.7489
  162MOL0     C21787   4.159   8.903   2.949  0.5903 -0.2134  0.3857
  162MOL0     C21788   4.229   8.807   3.012 -0.0822 -0.4733  0.0700
  162MOL0     C21789   4.597   8.559   3.137  0.7206  0.3618  0.3407
  162MOL0     C21790   4.665   8.597   3.255 -1.6345 -0.1264 -0.1790
  162MOL0     C21791   4.697   8.505   3.355  0.2354 -0.6345 -0.0366
  162MOL0     C21792   4.675   8.367   3.317 -0.3384  0.3672 -0.5197
  162MOL0     O21793   4.724   8.268   3.399 -0.7640 -0.1339 -0.2442
  162MOL0     C21794   4.850   8.280   3.459  0.5665  0.1274 -0.2413
  162MOL0     C21795   4.883   8.144   3.523 -0.4902  0.9748 -0.5584
  162MOL0     C21796   5.024   8.172   3.598 -0.2158  0.5194 -0.7130
  162MOL0     C21797   5.103   8.042   3.610  0.0951  0.3153  0.2337
  162MOL0     C21798   5.042   7.942   3.698 -1.3515  0.3352 -0.2810
  162MOL0     C21799   5.002   7.839   3.750 -0.1766  0.3929  0.3492
  162MOL0     C21800   4.615   8.329   3.204  0.5545 -0.5942  0.4517
  162MOL0     C21801   4.567   8.423   3.113 -0.8144  0.0951 -0.3109
  162MOL0     C21802   4.480   8.382   3.001  0.1419 -0.4174 -0.3719
  162MOL0     H21803   4.507   8.805   2.812 -0.7260 -2.3584  0.7052
  162MOL0     H21804   4.381   8.986   2.711  1.5263 -2.4397 -1.1823
  162MOL0     H21805   4.070   8.927   2.668  1.3162 -0.4694  0.1234
  162MOL0     H21806   3.943   9.049   2.709 -0.3609 -0.9413  1.1902
  162MOL0     H21807   4.180   9.058   2.524 -1.8382 -1.9394 -2.6911
  162MOL0     H21808   4.088   9.210   2.545 -2.6613  0.4370 -2.5899
  162MOL0     H21809   3.892   9.069   2.442  0.4042 -0.5663  2.6006
  162MOL0     H21810   4.026   8.970   2.400 -2.3381 -0.3736 -1.6156
  162MOL0     H21811   4.044   9.269   2.328  0.8141 -0.0463  0.2611
  162MOL0     H21812   4.138   9.142   2.260  0.8027 -0.4916  0.5755
  162MOL0     H21813   3.830   9.174   2.233  0.0930 -0.2979  2.3128
  162MOL0     H21814   3.933   9.235   2.115 -2.6517 -2.2078 -2.7335
  162MOL0     H21815   3.919   8.934   2.205 -3.1561  0.7133  0.7397
  162MOL0     H21816   3.835   8.994   2.066  1.0295 -2.0359 -1.5130
  162MOL0     H21817   4.138   8.944   2.093  0.3232  1.4887 -0.4673
  162MOL0     H21818   4.086   9.081   1.996 -0.2153  1.5550  4.1845
  162MOL0     H21819   3.949   8.925   1.868 -1.6159 -3.8471 -0.6490
  162MOL0     H21820   4.106   8.869   1.863  0.4692  0.8407 -1.0486
  162MOL0     H21821   4.166   8.719   2.139 -0.1956  1.2616  0.3806
  162MOL0     H21822   3.918   8.624   2.375 -1.1559 -0.1104 -1.6761
  162MOL0     H21823   3.960   8.465   2.308  2.9916 -0.9473  2.7506
  162MOL0     H21824   4.180   8.519   2.309 -1.5437 -1.1616  0.0145
  162MOL0     H21825   4.152   8.694   2.354  1.3586 -0.8978 -3.2988
  162MOL0     H21826   4.061   8.620   2.572  0.6008  0.3997  0.7100
  162MOL0     H21827   4.231   8.587   2.536 -0.7856  1.4336  0.3056
  162MOL0     H21828   4.194   8.351   2.482  4.7149  4.7928  0.1261
  162MOL0     H21829   4.027   8.353   2.534  0.0737 -0.9418  2.0589
  162MOL0     H21830   4.399   8.353   2.556  3.4118 -0.4685  0.5510
  162MOL0     H21831   4.576   8.198   2.610  0.2956  0.3210  1.1351
  162MOL0     H21832   4.663   7.727   2.708  0.9772  0.1662 -0.7125
  162MOL0     H21833   4.849   7.580   2.641  0.6545  0.3248 -1.0810
  162MOL0     H21834   5.246   7.720   2.759 -0.1638  1.1766 -1.8093
  162MOL0     H21835   5.193   7.564   2.807  1.2898 -0.1970  0.4751
  162MOL0     H21836   5.336   7.455   2.694 -0.1118  1.5927  1.5836
  162MOL0     H21837   5.241   7.491   2.553 -2.6915 -0.0327  0.4898
  162MOL0     H21838   5.388   7.690   2.514  4.8037  2.2085  0.0883
  162MOL0     H21839   5.481   7.662   2.661  1.1041  0.8821 -1.5318
  162MOL0     H21840   5.496   7.478   2.412 -0.2116 -2.8434  1.1296
  162MOL0     H21841   5.530   7.419   2.571  1.1325 -0.7606  0.4950
  162MOL0     H21842   5.689   7.616   2.581 -1.5987  2.0023 -1.2191
  162MOL0     H21843   5.669   7.641   2.411  0.0817 -2.1017 -1.4912
  162MOL0     H21844   5.753   7.389   2.577 -0.1946  0.9830  0.7422
  162MOL0     H21845   5.716   7.379   2.411  0.5601 -1.1631  0.7098
  162MOL0     H21846   5.940   7.579   2.444 -1.0454 -0.7108  0.8017
  162MOL0     H21847   5.915   7.458   2.333 -2.3510 -0.4387 -0.4700
  162MOL0     H21848   5.996   7.279   2.480  0.8751 -0.9561  2.3891
  162MOL0     H21849   6.121   7.415   2.463 -0.9373  3.9008 -0.2058
  162MOL0     H21850   5.113   7.905   2.672  0.0750 -0.9151  0.2950
  162MOL0     H21851   4.937   8.056   2.733  0.0766 -0.3591 -0.1416
  162MOL0     H21852   4.329   8.028   2.924  0.4946  2.1238  1.2166
  162MOL0     H21853   4.155   8.197   2.876 -1.1254  0.1835  0.2200
  162MOL0     H21854   4.055   8.912   2.981  1.1456  0.6650  2.0807
  162MOL0     H21855   4.168   8.760   3.088 -2.5163  0.9481 -0.8932
  162MOL0     H21856   4.684   8.701   3.277  0.2364  0.0000 -2.0760
  162MOL0     H21857   4.722   8.551   3.450  0.2842 -1.8171  0.5422
  162MOL0     H21858   4.851   8.363   3.531 -0.9691  0.6911 -0.8168
  162MOL0     H21859   4.927   8.280   3.382  2.6780 -4.4710  1.5025
  162MOL0     H21860   4.889   8.059   3.454  0.9322 -1.5479  2.4408
  162MOL0     H21861   4.808   8.126   3.600 -0.0360  0.5227 -0.2122
  162MOL0     H21862   5.010   8.206   3.701 -2.1292 -2.2082  0.0285
  162MOL0     H21863   5.089   8.237   3.539  1.0379  1.1149  1.2343
  162MOL0     H21864   5.112   8.008   3.507 -2.1670  2.4213 -0.7516
  162MOL0     H21865   5.202   8.063   3.651  0.7328 -0.1076 -1.0424
  162MOL0     H21866   4.947   7.759   3.795 -4.5932  2.7929 -0.3013
  162MOL0     H21867   4.581   8.229   3.177 -4.3091  1.4627 -2.3298
  162MOL0     H21868   4.529   8.429   2.915  2.8844  2.7076  2.5875
  162MOL0     H21869   4.472   8.273   2.990 -2.5305 -0.5733  2.0638
  162MOL0     H21870   4.377   8.418   3.010  0.4681  0.0426  2.2545
  163MOL0     O21871   6.786   6.359   0.602 -0.1058 -0.3539  0.3455
  163MOL0     C21872   6.819   6.364   0.488 -0.4949  0.1455  0.1308
  163MOL0     O21873   6.841   6.256   0.406 -0.1413  0.0764 -0.1976
  163MOL0     C21874   6.827   6.135   0.473 -0.7472  0.7388  0.4743
  163MOL0     C21875   6.725   6.085   0.551 -0.5707 -0.7330  0.3794
  163MOL0     C21876   6.732   5.969   0.619  0.2276  0.2755 -0.2098
  163MOL0     C21877   6.839   5.887   0.629 -1.1749  0.1968 -0.0565
  163MOL0     O21878   6.830   5.778   0.700  1.4968 -0.7859 -0.8963
  163MOL0     C21879   6.928   5.680   0.706 -0.0994  0.1872 -0.3721
  163MOL0     C21880   6.926   5.590   0.829 -0.5063  0.6925 -0.2164
  163MOL0     C21881   6.776   5.553   0.874  0.1913 -0.8617 -0.1189
  163MOL0     C21882   6.780   5.432   0.971 -0.2191 -0.2398 -0.1101
  163MOL0     C21883   6.648   5.415   1.061 -0.2393 -0.5805 -1.4599
  163MOL0     C21884   6.644   5.296   1.158 -0.1101  0.2180  0.2158
  163MOL0     C21885   6.653   5.146   1.113  0.0852  0.0514  1.2383
  163MOL0     C21886   6.550   5.112   1.007  0.2718  0.4956 -0.4410
  163MOL0     N21887   6.407   5.126   1.048  0.3062  0.1078 -0.5652
  163MOL0     C21888   6.318   5.197   0.973 -0.1203 -0.0926  0.1436
  163MOL0     C21889   6.198   5.191   1.034 -0.6805  0.2112 -0.8416
  163MOL0     C21890   6.062   5.258   0.999  0.2259  0.8315  0.6085
  163MOL0     C21891   5.956   5.161   0.945  0.2063 -0.4843  1.1681
  163MOL0     C21892   5.995   5.085   0.817 -0.2412 -0.7549  0.9480
  163MOL0     C21893   6.030   5.178   0.700 -0.1265  0.4594  0.9058
  163MOL0     O21894   5.912   5.255   0.671  0.4942  0.3228 -0.5534
  163MOL0     C21895   5.950   5.376   0.629 -0.6006  0.0606  0.0658
  163MOL0     C21896   5.929   5.494   0.697  0.5117  0.2227  1.1883
  163MOL0     C21897   5.960   5.621   0.634 -0.5800 -0.5629  0.1448
  163MOL0     C21898   6.017   5.624   0.506 -0.4098 -0.4746 -0.6975
  163MOL0     C21899   6.038   5.758   0.435  0.2351  0.7495 -0.2704
  163MOL0     O21900   5.991   5.879   0.484 -0.0595  0.3858  0.7431
  163MOL0     C21901   5.999   5.989   0.407 -0.2146 -0.5289 -0.1600
  163MOL0     C21902   6.042   6.105   0.466  0.6938 -0.3616 -0.1524
  163MOL0     C21903   6.027   6.223   0.402 -0.2359 -0.3122  0.2991
  163MOL0     C21904   5.966   6.235   0.278 -0.1255 -0.1041  1.4091
  163MOL0     O21905   5.947   6.367   0.245 -0.9609  0.4164 -0.7510
  163MOL0     C21906   5.850   6.385   0.142  0.0979  0.8693  0.7804
  163MOL0     C21907   5.798   6.525   0.127  0.1921  0.4742 -0.2340
  163MOL0     C21908   5.739   6.538  -0.020 -0.4243  0.2705  1.0593
  163MOL0     C21909   5.654   6.664  -0.034  0.4165  0.0333 -0.3224
  163MOL0     C21910   5.596   6.679  -0.170 -0.2661 -0.3005 -0.8788
  163MOL0     C21911   5.472   6.776  -0.157 -0.6062  0.2118 -0.2065
  163MOL0     C21912   5.420   6.790  -0.304  0.1429  0.0196 -0.6098
  163MOL0     C21913   5.295   6.874  -0.328  0.2657 -0.2214  1.0996
  163MOL0    Cl21914   5.259   6.874  -0.499 -0.3235  0.2394  0.4484
  163MOL0     C21915   5.938   6.114   0.205 -0.0891 -0.4305 -0.2339
  163MOL0     C21916   5.962   5.989   0.268  0.1520 -0.0285  0.7152
  163MOL0     O21917   6.098   5.750   0.330 -0.6588 -0.0839  0.4610
  163MOL0     C21918   6.039   5.506   0.438 -0.4317  0.0106  0.1426
  163MOL0     C21919   6.003   5.384   0.497  0.2569 -0.6838 -0.7081
  163MOL0     N21920   6.225   5.124   1.157  0.5066  0.0295 -0.0983
  163MOL0     N21921   6.345   5.086   1.160  0.5165 -0.7209  0.5443
  163MOL0     C21922   6.943   5.921   0.541 -1.1366 -0.0885  0.6426
  163MOL0     C21923   6.939   6.050   0.471  0.0245 -0.3450 -0.0979
  163MOL0     C21924   6.801   6.488   0.419 -0.2793  0.2359 -0.1291
  163MOL0     C21925   6.709   6.477   0.314  1.0210  0.5622  1.0967
  163MOL0     C21926   6.695   6.584   0.223  0.0989  0.3073 -0.5548
  163MOL0     C21927   6.744   6.716   0.254  0.6314 -0.3786 -0.6703
  163MOL0     O21928   6.727   6.821   0.169 -0.5979 -0.5954 -0.1785
  163MOL0     C21929   6.608   6.890   0.194  0.2958 -0.6746 -0.1673
  163MOL0     C21930   6.601   6.993   0.082 -0.4652 -0.0219 -0.4353
  163MOL0     C21931   6.493   7.102   0.092  0.2320 -0.3613  0.2349
  163MOL0     C21932   6.353   7.040   0.074 -0.5071 -0.4155 -0.1605
  163MOL0     C21933   6.343   6.951  -0.045  0.7684 -0.3428 -0.2732
  163MOL0     C21934   6.335   6.880  -0.145  0.6104 -0.5534 -0.0589
  163MOL0     C21935   6.829   6.726   0.369 -0.1904 -0.2438  0.6436
  163MOL0     C21936   6.854   6.610   0.447 -0.0780 -1.3146  0.2121
  163MOL0     C21937   6.956   6.630   0.556 -0.7789 -0.2677 -0.2145
  163MOL0     H21938   6.626   6.130   0.548 -0.7125 -1.0651 -1.6238
  163MOL0     H21939   6.643   5.946   0.678  1.6137  2.3949  2.9724
  163MOL0     H21940   6.936   5.611   0.621  0.3215  0.1834 -0.3291
  163MOL0     H21941   7.027   5.725   0.709  0.1399  0.5003 -4.9778
  163MOL0     H21942   6.971   5.641   0.915  0.2551 -3.1024  1.8440
  163MOL0     H21943   6.988   5.502   0.812 -1.2529  0.0249  0.4369
  163MOL0     H21944   6.712   5.530   0.788  0.7015 -0.9823 -0.4731
  163MOL0     H21945   6.725   5.638   0.921  1.2916 -2.3388  4.2083
  163MOL0     H21946   6.793   5.338   0.915 -0.9677  0.8027 -2.1183
  163MOL0     H21947   6.858   5.436   1.047  0.6992 -5.2648 -0.4086
  163MOL0     H21948   6.632   5.504   1.122 -1.5869 -0.5105 -1.8757
  163MOL0     H21949   6.566   5.406   0.988 -1.2762 -1.7586 -0.2080
  163MOL0     H21950   6.729   5.310   1.225 -1.4091  1.2111  1.7082
  163MOL0     H21951   6.560   5.306   1.227  0.9059 -0.7980  1.6414
  163MOL0     H21952   6.651   5.076   1.197 -4.6444 -1.9353 -0.1787
  163MOL0     H21953   6.751   5.143   1.064  0.4016 -3.0600  1.8687
  163MOL0     H21954   6.572   5.169   0.915 -2.1570  2.3849  0.0292
  163MOL0     H21955   6.572   5.006   0.994  4.6087  0.6659  3.0894
  163MOL0     H21956   6.339   5.252   0.882  1.1173 -0.8620 -0.0572
  163MOL0     H21957   6.023   5.290   1.096 -2.0889 -0.9294  0.3681
  163MOL0     H21958   6.060   5.346   0.934 -2.4059 -0.7357 -1.6448
  163MOL0     H21959   5.925   5.091   1.023  0.2662  0.7322  2.3155
  163MOL0     H21960   5.868   5.221   0.921  0.9136  0.3765  0.6673
  163MOL0     H21961   5.904   5.033   0.785 -1.1240  1.3589 -0.2383
  163MOL0     H21962   6.068   5.006   0.835 -1.0709 -0.8996  4.3581
  163MOL0     H21963   6.058   5.106   0.622  0.0886  1.5944 -0.0973
  163MOL0     H21964   6.117   5.240   0.723  0.8935 -0.1595 -1.0334
  163MOL0     H21965   5.885   5.494   0.797  2.1032 -0.2722  1.9127
  163MOL0     H21966   5.918   5.706   0.687  2.5515 -0.9585  3.6755
  163MOL0     H21967   6.077   6.114   0.568  1.0114  3.2950 -0.4698
  163MOL0     H21968   6.039   6.317   0.456  1.6260 -0.3449 -0.0234
  163MOL0     H21969   5.894   6.371   0.042 -2.2617  1.5812 -0.4252
  163MOL0     H21970   5.765   6.316   0.144  1.2440 -0.6247  0.2852
  163MOL0     H21971   5.711   6.528   0.193  3.0679  1.8936  3.9112
  163MOL0     H21972   5.866   6.608   0.150 -0.5001  0.6314  1.3900
  163MOL0     H21973   5.817   6.534  -0.096 -2.3993 -2.2481 -1.0409
  163MOL0     H21974   5.686   6.445  -0.046  1.3643 -0.0485 -1.7482
  163MOL0     H21975   5.694   6.764  -0.012 -1.4302  0.6921  0.2302
  163MOL0     H21976   5.582   6.648   0.046 -0.0057  1.0879 -0.4671
  163MOL0     H21977   5.555   6.591  -0.220  1.0417 -2.3257  1.3955
  163MOL0     H21978   5.662   6.735  -0.235  0.0880  1.5131  0.9404
  163MOL0     H21979   5.403   6.726  -0.089  0.5119 -0.8205  0.2022
  163MOL0     H21980   5.500   6.878  -0.127 -0.7637  0.1694  0.0828
  163MOL0     H21981   5.407   6.688  -0.341  0.8025  0.1396 -1.2078
  163MOL0     H21982   5.497   6.848  -0.357  1.8851  1.9494  3.6002
  163MOL0     H21983   5.214   6.829  -0.269 -1.4966  1.5404  0.1238
  163MOL0     H21984   5.315   6.974  -0.288  2.6030 -1.0531  2.1835
  163MOL0     H21985   5.894   6.116   0.106  5.0729 -3.6320 -3.0109
  163MOL0     H21986   5.935   5.898   0.215  0.0764  0.6107 -0.3614
  163MOL0     H21987   6.068   5.511   0.334 -0.8947  0.4893  0.0339
  163MOL0     H21988   6.006   5.299   0.430  2.2869 -1.8083  0.7119
  163MOL0     H21989   7.026   5.851   0.535 -1.7200 -0.6752 -1.0164
  163MOL0     H21990   7.008   6.074   0.391 -0.8765  1.5704 -0.3629
  163MOL0     H21991   6.645   6.391   0.297 -1.8593  2.9708 -1.3118
  163MOL0     H21992   6.649   6.558   0.129  1.5094  0.3267 -1.2860
  163MOL0     H21993   6.609   6.942   0.290 -0.8864  1.8982 -1.4625
  163MOL0     H21994   6.518   6.829   0.183 -1.0681  1.2704 -0.4197
  163MOL0     H21995   6.598   6.933  -0.009 -0.7632 -0.0541 -0.4027
  163MOL0     H21996   6.693   7.049   0.101 -1.6752  1.4203  1.4679
  163MOL0     H21997   6.508   7.179   0.015  0.0542 -0.1550  0.4055
  163MOL0     H21998   6.507   7.154   0.187 -2.3812 -0.4116  0.7229
  163MOL0     H21999   6.333   6.982   0.165  0.8122 -0.7348 -0.0542
  163MOL0     H22000   6.276   7.117   0.061 -2.2928 -2.2955 -1.4172
  163MOL0     H22001   6.352   6.822  -0.233 -1.8217 -2.2392  0.4923
  163MOL0     H22002   6.864   6.827   0.388 -1.7775  0.8103 -1.5874
  163MOL0     H22003   7.028   6.708   0.528  1.7308 -2.6533 -0.8666
  163MOL0     H22004   6.916   6.658   0.654  1.4797 -0.6241  0.8627
  163MOL0     H22005   7.024   6.546   0.572 -1.0577 -0.6037 -0.7715
  164MOL0     O22006   3.957   5.288  10.226  1.0046  0.2624 -0.1472
  164MOL0     C22007   3.877   5.269  10.319  0.4892 -0.1265  0.1728
  164MOL0     O22008   3.769   5.346  10.342 -0.1988 -0.0889 -0.0188
  164MOL0     C22009   3.719   5.443  10.259 -0.1888 -0.1590 -0.3423
  164MOL0     C22010   3.668   5.555  10.314 -0.4467 -0.1778  0.2762
  164MOL0     C22011   3.617   5.657  10.226 -0.3911  0.5548 -0.1118
  164MOL0     C22012   3.616   5.653  10.083  0.3512 -0.1132 -0.8504
  164MOL0     O22013   3.562   5.749  10.007  0.0675  0.2018  0.8923
  164MOL0     C22014   3.601   5.881  10.044 -0.2307 -0.1512  0.4440
  164MOL0     C22015   3.480   5.948  10.116  0.5829 -0.7297 -0.1190
  164MOL0     C22016   3.392   6.034  10.018  0.0144 -0.5847 -0.8241
  164MOL0     C22017   3.285   6.120  10.080  0.6601 -0.8535  0.1686
  164MOL0     C22018   3.175   6.047  10.149  0.3696 -0.4518  0.1898
  164MOL0     C22019   3.082   6.153  10.219  0.5247 -0.3437  0.0134
  164MOL0     C22020   2.970   6.092  10.312 -0.6104  0.2543  1.1290
  164MOL0     C22021   2.868   6.188  10.376  0.0952  0.0012 -0.0853
  164MOL0     N22022   2.938   6.293  10.459 -0.1504 -0.8296  0.3674
  164MOL0     C22023   3.011   6.397  10.409 -0.6238 -0.4452  0.2480
  164MOL0     C22024   3.029   6.481  10.508  0.2209  0.9629 -0.0228
  164MOL0     C22025   3.094   6.619  10.516 -0.6792 -0.0910 -0.1380
  164MOL0     C22026   2.982   6.721  10.506  0.3974 -0.1390  0.2386
  164MOL0     C22027   3.009   6.873  10.533 -0.3455 -0.7896  0.3532
  164MOL0     C22028   2.869   6.942  10.558 -0.4663 -0.1967 -0.5994
  164MOL0     O22029   2.798   6.931  10.438  0.5292 -0.1668  0.3763
  164MOL0     C22030   2.662   6.892  10.443  0.4874 -1.0172 -0.3491
  164MOL0     C22031   2.596   6.808  10.532 -0.3234  0.3219 -0.0012
  164MOL0     C22032   2.469   6.758  10.504 -0.0876 -0.7828 -0.7106
  164MOL0     C22033   2.395   6.801  10.396  0.5796  0.0990 -0.2077
  164MOL0     C22034   2.264   6.749  10.364  0.8121 -0.9103 -0.3141
  164MOL0     O22035   2.204   6.668  10.451 -1.1104 -0.5788  0.4217
  164MOL0     C22036   2.078   6.621  10.422  0.0391 -0.0953  0.4645
  164MOL0     C22037   2.050   6.486  10.426  0.3876 -0.3041  0.0354
  164MOL0     C22038   1.927   6.439  10.381 -0.0467  0.2694  0.5959
  164MOL0     C22039   1.824   6.531  10.336  0.2761  1.1757 -0.2405
  164MOL0     O22040   1.708   6.474  10.303 -0.1776 -0.4986  0.5643
  164MOL0     C22041   1.611   6.551  10.223  0.8533  0.1018  0.7312
  164MOL0     C22042   1.505   6.466  10.163 -0.2240  0.0036 -0.0385
  164MOL0     C22043   1.372   6.451  10.255 -0.0405 -0.2746  0.7895
  164MOL0     C22044   1.271   6.566  10.241  0.9624 -0.0017 -0.5523
  164MOL0     C22045   1.204   6.580  10.103 -0.2032 -0.0753 -0.7155
  164MOL0     C22046   1.105   6.466  10.081  0.1082 -0.2751 -0.7037
  164MOL0     C22047   1.012   6.507   9.964  0.9265  0.9245 -0.2028
  164MOL0     C22048   0.909   6.395   9.931  0.0445 -0.0342  0.2132
  164MOL0    Cl22049   0.797   6.473   9.800  0.0105  0.0058  0.2850
  164MOL0     C22050   1.851   6.664  10.340 -0.1075 -0.7610  0.1523
  164MOL0     C22051   1.975   6.709  10.388 -0.1348 -0.8079  0.0663
  164MOL0     O22052   2.215   6.792  10.256 -0.1800  0.3929  0.5965
  164MOL0     C22053   2.452   6.898  10.313 -0.6621  0.5505  0.1494
  164MOL0     C22054   2.582   6.939  10.338 -0.2729  0.0229 -0.4956
  164MOL0     N22055   2.976   6.420  10.624  0.7915 -0.2938 -0.1031
  164MOL0     N22056   2.926   6.299  10.591 -0.5258  0.8303 -0.3906
  164MOL0     C22057   3.667   5.538  10.024 -0.1405  0.6118 -0.7023
  164MOL0     C22058   3.728   5.446  10.117  0.3433  0.3443  0.7186
  164MOL0     C22059   3.908   5.158  10.421 -0.0119  0.2574  1.1349
  164MOL0     C22060   3.991   5.057  10.367 -0.5996 -0.5731 -0.5315
  164MOL0     C22061   4.023   4.951  10.448  0.0240  0.2459  0.2064
  164MOL0     C22062   3.959   4.916  10.565 -0.0687  0.6552  0.4494
  164MOL0     O22063   3.995   4.800  10.625 -0.0161  0.1481 -0.4634
  164MOL0     C22064   3.938   4.743  10.747 -0.4055 -0.5821  0.3924
  164MOL0     C22065   4.030   4.787  10.866 -0.2107  0.4927 -0.9862
  164MOL0     C22066   4.173   4.737  10.848  0.8736  0.4476  0.1262
  164MOL0     C22067   4.246   4.798  10.972 -0.6783  0.1922  0.1835
  164MOL0     C22068   4.372   4.720  10.999  0.2804 -0.1632  0.5057
  164MOL0     C22069   4.448   4.636  11.034  0.2421  0.4681 -0.1925
  164MOL0     C22070   3.864   5.010  10.613  1.0590  1.4148 -0.4009
  164MOL0     C22071   3.843   5.131  10.546 -1.2806 -0.5445 -0.0633
  164MOL0     C22072   3.769   5.229  10.615  0.1706  0.7242  0.3309
  164MOL0     H22073   3.674   5.552  10.423  1.9707 -2.3984  0.1545
  164MOL0     H22074   3.572   5.739  10.282  1.9684  0.5905  1.8967
  164MOL0     H22075   3.685   5.880  10.114  0.6047  2.3911 -0.3944
  164MOL0     H22076   3.637   5.932   9.954  0.2450 -2.8864 -1.0167
  164MOL0     H22077   3.517   6.019  10.191  2.1233 -2.3335  0.7074
  164MOL0     H22078   3.421   5.872  10.168 -0.1570 -1.5477 -2.0561
  164MOL0     H22079   3.319   5.970   9.966 -2.3479 -0.1313  1.7228
  164MOL0     H22080   3.454   6.094   9.951  0.0804 -0.6424 -0.8145
  164MOL0     H22081   3.335   6.173  10.161 -1.1422  0.9281  0.1853
  164MOL0     H22082   3.254   6.197  10.008 -0.5423 -0.7212  0.7994
  164MOL0     H22083   3.114   5.993  10.075 -0.9132 -0.5582  1.2802
  164MOL0     H22084   3.217   5.979  10.223 -0.0955  0.0682  0.9485
  164MOL0     H22085   3.148   6.217  10.277 -0.9298  1.3291 -0.0880
  164MOL0     H22086   3.039   6.215  10.139  2.8490 -0.8531 -1.7540
  164MOL0     H22087   3.001   6.021  10.389 -2.2883 -4.2020 -1.8677
  164MOL0     H22088   2.902   6.042  10.242 -1.6637  1.7689  1.0180
  164MOL0     H22089   2.802   6.237  10.304 -0.7976 -0.7375  0.2072
  164MOL0     H22090   2.817   6.121  10.445  0.8521 -1.9799 -1.3512
  164MOL0     H22091   3.030   6.424  10.306 -2.6315 -2.0147 -0.6077
  164MOL0     H22092   3.146   6.646  10.608 -0.9270  4.2123 -1.0483
  164MOL0     H22093   3.172   6.622  10.439  1.4036 -3.6255  1.5807
  164MOL0     H22094   2.940   6.692  10.410 -0.2638  0.1977  0.4208
  164MOL0     H22095   2.906   6.694  10.580 -1.4368  0.7357 -1.2507
  164MOL0     H22096   3.046   6.927  10.446  2.4677  0.6231  2.2582
  164MOL0     H22097   3.078   6.892  10.616 -0.5022 -0.5716  0.4335
  164MOL0     H22098   2.877   7.048  10.583  0.5993 -0.1166 -1.2396
  164MOL0     H22099   2.826   6.904  10.651 -0.3856  1.1339  0.0070
  164MOL0     H22100   2.649   6.777  10.621  2.5759 -2.3250 -2.4258
  164MOL0     H22101   2.422   6.683  10.567  0.4947 -1.2065 -0.7724
  164MOL0     H22102   2.128   6.424  10.470  2.2427  2.1429  0.4423
  164MOL0     H22103   1.922   6.333  10.361  2.7330  0.2170 -0.1971
  164MOL0     H22104   1.566   6.633  10.280 -0.5127 -0.9308  1.1803
  164MOL0     H22105   1.656   6.595  10.134 -0.7355 -0.6115 -0.4545
  164MOL0     H22106   1.472   6.508  10.067 -1.7157 -0.8689  0.0517
  164MOL0     H22107   1.555   6.372  10.138  2.5434  1.8565 -2.0761
  164MOL0     H22108   1.329   6.357  10.217  1.8771  0.1018 -2.6623
  164MOL0     H22109   1.390   6.433  10.361 -4.3970 -1.0918  1.5885
  164MOL0     H22110   1.317   6.662  10.262 -0.0266 -0.0350  2.0943
  164MOL0     H22111   1.191   6.546  10.312  2.6822 -2.0469  0.9488
  164MOL0     H22112   1.290   6.585  10.035  0.9337  2.5410  0.7541
  164MOL0     H22113   1.153   6.677  10.096  0.7902  0.7918  2.4192
  164MOL0     H22114   1.158   6.372  10.059 -0.4261 -0.3970 -1.5582
  164MOL0     H22115   1.050   6.444  10.173  1.2201  0.8766  0.2680
  164MOL0     H22116   1.068   6.528   9.873 -1.9906  0.8613 -2.1169
  164MOL0     H22117   0.952   6.596   9.980  0.6788  0.9983 -1.4840
  164MOL0     H22118   0.952   6.298   9.903  0.4138  0.4128 -0.8404
  164MOL0     H22119   0.850   6.380  10.021  0.9893  2.3792  1.3123
  164MOL0     H22120   1.769   6.723  10.302  0.7678 -0.3159 -1.1077
  164MOL0     H22121   2.004   6.813  10.379  0.6799 -1.1712 -2.5365
  164MOL0     H22122   2.410   6.945  10.225  2.0445  2.2360 -0.3675
  164MOL0     H22123   2.631   7.012  10.274  1.0134  0.6666  1.1609
  164MOL0     H22124   3.672   5.532   9.916 -0.8716 -0.5874 -0.6971
  164MOL0     H22125   3.775   5.360  10.072 -2.0862 -0.7231  0.0175
  164MOL0     H22126   4.046   5.066  10.274  1.2291 -3.0138  0.1974
  164MOL0     H22127   4.094   4.877  10.413 -1.4437 -2.0580  1.7709
  164MOL0     H22128   3.942   4.633  10.747  1.3898 -0.5722  2.2702
  164MOL0     H22129   3.833   4.767  10.764 -1.1526 -1.7711 -2.0093
  164MOL0     H22130   3.988   4.744  10.958  0.8178  0.8806 -0.3111
  164MOL0     H22131   4.025   4.895  10.883 -3.0136  0.3842 -0.5766
  164MOL0     H22132   4.225   4.778  10.760 -0.2377 -2.6411 -2.1517
  164MOL0     H22133   4.170   4.627  10.844 -0.3778  0.4619  0.4786
  164MOL0     H22134   4.260   4.906  10.959 -1.5884  0.8619  3.5926
  164MOL0     H22135   4.183   4.781  11.060  0.6624  0.2266  1.1732
  164MOL0     H22136   4.499   4.552  11.076  0.9686  1.2148  0.4641
  164MOL0     H22137   3.804   4.991  10.701 -0.6771 -1.6572 -2.0405
  164MOL0     H22138   3.683   5.266  10.558 -1.3856 -1.5283  1.0786
  164MOL0     H22139   3.741   5.189  10.713  1.0558 -2.9098 -0.7382
  164MOL0     H22140   3.836   5.311  10.640  0.7188  1.2950 -2.6867
  165MOL0     O22141   9.115   4.222   9.444 -0.5651  0.5324 -0.2147
  165MOL0     C22142   9.131   4.252   9.560  0.2154 -0.6270  0.3457
  165MOL0     O22143   9.031   4.239   9.655 -0.6547 -0.1509  0.5364
  165MOL0     C22144   8.936   4.145   9.632  0.2895  0.4269 -0.3833
  165MOL0     C22145   8.957   4.011   9.653 -0.5833 -0.1537  0.8300
  165MOL0     C22146   8.854   3.922   9.627 -1.3337 -0.0856 -0.6486
  165MOL0     C22147   8.736   3.953   9.564  0.0831  0.5391 -0.4186
  165MOL0     O22148   8.640   3.851   9.535  0.3390  0.3845  0.2092
  165MOL0     C22149   8.541   3.870   9.434  0.6423  0.2136 -0.7471
  165MOL0     C22150   8.598   3.845   9.297 -0.0769  0.3917  0.6676
  165MOL0     C22151   8.669   3.708   9.298 -0.3205 -0.0090  0.2414
  165MOL0     C22152   8.712   3.665   9.161  0.1575  0.5349  0.0626
  165MOL0     C22153   8.807   3.550   9.164 -0.8409  0.6420  0.0001
  165MOL0     C22154   8.869   3.528   9.026  0.0551  0.7554  0.7843
  165MOL0     C22155   8.960   3.405   9.027  0.0336  0.2173 -0.6521
  165MOL0     C22156   8.999   3.363   8.888  0.3679  0.1284  0.8964
  165MOL0     N22157   9.056   3.462   8.792  0.6478 -0.0613  0.1398
  165MOL0     C22158   8.997   3.505   8.666 -1.4612  0.0573 -0.1850
  165MOL0     C22159   9.073   3.603   8.630 -0.4981  0.0670 -0.1616
  165MOL0     C22160   9.064   3.698   8.509  0.5412 -0.0140 -0.1520
  165MOL0     C22161   9.180   3.674   8.403 -0.9433 -0.0945 -0.3144
  165MOL0     C22162   9.167   3.535   8.331  0.1268 -1.0043  0.0421
  165MOL0     C22163   9.278   3.516   8.230  0.3468  0.0734 -0.3061
  165MOL0     O22164   9.240   3.405   8.143 -0.9654 -0.3728  0.7905
  165MOL0     C22165   9.260   3.272   8.189  0.3025 -0.5139  0.9665
  165MOL0     C22166   9.145   3.184   8.194  1.2408 -0.0402  0.2821
  165MOL0     C22167   9.154   3.048   8.223  0.3775  0.5297 -0.3384
  165MOL0     C22168   9.286   2.990   8.251  0.1247  0.6903 -0.6824
  165MOL0     C22169   9.296   2.851   8.300 -0.2347  0.3870 -0.6345
  165MOL0     O22170   9.420   2.789   8.326 -0.0980 -0.6384  0.5461
  165MOL0     C22171   9.430   2.655   8.345  0.7963  1.1299 -0.2158
  165MOL0     C22172   9.437   2.609   8.472 -0.2631  0.2915 -0.5196
  165MOL0     C22173   9.444   2.464   8.487 -1.2856 -0.9314 -0.0563
  165MOL0     C22174   9.445   2.376   8.382  0.4594 -0.9647  0.6306
  165MOL0     O22175   9.470   2.247   8.406 -0.5988 -0.2364 -0.7315
  165MOL0     C22176   9.562   2.169   8.325 -0.0094 -0.3668  0.2641
  165MOL0     C22177   9.520   2.023   8.326  0.5587  0.3898 -0.2795
  165MOL0     C22178   9.380   1.987   8.272  0.2989  0.6680  0.7225
  165MOL0     C22179   9.396   1.837   8.225 -0.0669  0.7275 -0.5054
  165MOL0     C22180   9.438   1.838   8.077  0.0317  0.5753  0.2921
  165MOL0     C22181   9.564   1.749   8.058 -0.5614  0.0842 -0.1747
  165MOL0     C22182   9.532   1.599   8.085 -0.1893  0.9288 -0.2321
  165MOL0     C22183   9.638   1.495   8.045 -0.3335  0.5353  0.6471
  165MOL0    Cl22184   9.825   1.529   8.066 -0.0242 -0.1182  0.0771
  165MOL0     C22185   9.421   2.427   8.255 -0.1266 -0.6097  0.1430
  165MOL0     C22186   9.422   2.563   8.234  0.5848 -0.8774  0.6469
  165MOL0     O22187   9.187   2.797   8.324 -0.2245  0.4608  0.0082
  165MOL0     C22188   9.394   3.077   8.243 -0.1377  0.4369  0.4220
  165MOL0     C22189   9.388   3.212   8.213  0.0729 -0.7954 -0.2974
  165MOL0     N22190   9.165   3.635   8.736  0.8523  0.4896  0.9487
  165MOL0     N22191   9.159   3.546   8.829  0.3056  0.4963  0.2151
  165MOL0     C22192   8.721   4.089   9.538 -1.1491 -0.2358  0.4428
  165MOL0     C22193   8.822   4.179   9.562  0.2156 -0.0266 -0.6543
  165MOL0     C22194   9.262   4.303   9.600 -0.1890  0.0007 -0.0047
  165MOL0     C22195   9.333   4.379   9.506 -0.4838  0.1996 -1.3542
  165MOL0     C22196   9.458   4.428   9.536  0.1180 -0.5050  0.1240
  165MOL0     C22197   9.507   4.410   9.658  0.3349 -0.0383 -0.5055
  165MOL0     O22198   9.637   4.451   9.684  0.1156  0.2327 -1.0762
  165MOL0     C22199   9.729   4.351   9.713 -0.0009  1.0597 -1.1701
  165MOL0     C22200   9.843   4.327   9.605 -0.3197  0.0732 -0.8016
  165MOL0     C22201   9.784   4.307   9.463 -0.4072  0.1182 -0.1838
  165MOL0     C22202   9.886   4.272   9.366 -0.2964  0.1046  0.4094
  165MOL0     C22203   9.840   4.282   9.221  0.4034  1.0747 -0.7076
  165MOL0     C22204   9.804   4.298   9.112 -0.3890  0.6218  0.9309
  165MOL0     C22205   9.437   4.334   9.749 -0.2664  0.3808 -0.4200
  165MOL0     C22206   9.318   4.270   9.722 -0.5295  0.0604 -0.7144
  165MOL0     C22207   9.265   4.175   9.830  0.3386  0.1553 -0.3514
  165MOL0     H22208   9.053   3.961   9.671  2.0331  2.6361 -3.5562
  165MOL0     H22209   8.870   3.818   9.655  0.9595  0.2667 -0.4715
  165MOL0     H22210   8.459   3.802   9.461 -0.3678  1.8228  0.4099
  165MOL0     H22211   8.522   3.977   9.422  5.8887  1.3993 -0.6867
  165MOL0     H22212   8.675   3.917   9.269  0.7033 -2.1464 -5.2695
  165MOL0     H22213   8.522   3.848   9.218  1.2512  1.2070 -0.6443
  165MOL0     H22214   8.621   3.628   9.355 -1.7274  0.6756  0.0421
  165MOL0     H22215   8.760   3.736   9.353  0.8685  0.6510 -1.9451
  165MOL0     H22216   8.627   3.628   9.103  2.3261 -2.6487 -1.4136
  165MOL0     H22217   8.747   3.759   9.117 -0.2474  0.6789  0.0479
  165MOL0     H22218   8.889   3.562   9.235 -1.7939 -0.3799  1.3358
  165MOL0     H22219   8.766   3.449   9.175  0.5582  0.1029  0.4164
  165MOL0     H22220   8.791   3.514   8.951  2.9889  1.6886 -2.7196
  165MOL0     H22221   8.929   3.613   8.994  1.6331 -0.8050 -0.6452
  165MOL0     H22222   8.920   3.313   9.071 -1.0109  0.5563 -0.8642
  165MOL0     H22223   9.057   3.426   9.074  1.1719 -2.4628 -1.5841
  165MOL0     H22224   9.079   3.290   8.904 -0.2319 -0.3855  1.5759
  165MOL0     H22225   8.915   3.319   8.834  1.0424  2.3155 -2.2436
  165MOL0     H22226   8.910   3.471   8.610 -0.1994 -0.7079 -1.7913
  165MOL0     H22227   8.971   3.686   8.451 -0.4463 -1.0261  1.5621
  165MOL0     H22228   9.074   3.802   8.539 -2.6423  0.2301  0.4062
  165MOL0     H22229   9.183   3.757   8.332 -1.7631 -2.6173 -3.5503
  165MOL0     H22230   9.274   3.666   8.459  1.4246 -3.0521 -4.1657
  165MOL0     H22231   9.071   3.534   8.279 -1.0839 -1.8357  2.1832
  165MOL0     H22232   9.163   3.450   8.400 -1.4432  0.3933  1.7604
  165MOL0     H22233   9.376   3.504   8.277 -1.5969 -3.4952  3.4166
  165MOL0     H22234   9.278   3.601   8.161  2.3094 -1.8494 -2.9133
  165MOL0     H22235   9.052   3.227   8.160  1.7437 -1.7187 -3.7561
  165MOL0     H22236   9.053   3.007   8.228  0.0309  0.8111 -3.2800
  165MOL0     H22237   9.417   2.673   8.557 -1.5884 -1.9282  0.9707
  165MOL0     H22238   9.446   2.418   8.586 -1.8514  0.1931  0.4945
  165MOL0     H22239   9.566   2.211   8.224  0.7157 -0.2707  0.3313
  165MOL0     H22240   9.661   2.179   8.370  0.1553  0.3385 -0.2334
  165MOL0     H22241   9.600   1.972   8.271  0.1652 -1.2313  0.6243
  165MOL0     H22242   9.523   1.998   8.432 -2.2062  1.5601  0.1756
  165MOL0     H22243   9.310   2.018   8.350  0.9716  0.6868  1.3234
  165MOL0     H22244   9.355   2.052   8.187  2.6221  0.1683 -0.4049
  165MOL0     H22245   9.304   1.781   8.241  1.4056 -1.7507 -0.0695
  165MOL0     H22246   9.468   1.781   8.285 -0.3760  0.5758 -0.2787
  165MOL0     H22247   9.461   1.937   8.036 -0.8969  0.3653 -0.7961
  165MOL0     H22248   9.349   1.811   8.019 -2.7027  3.8495  2.5349
  165MOL0     H22249   9.595   1.758   7.953 -1.5765 -1.2196 -0.6270
  165MOL0     H22250   9.642   1.788   8.124 -1.3393 -2.2958  2.3484
  165MOL0     H22251   9.443   1.559   8.038  0.4844  0.5128 -1.1839
  165MOL0     H22252   9.516   1.584   8.192 -0.9430  1.0592 -0.3233
  165MOL0     H22253   9.624   1.396   8.088 -2.0992 -0.8686 -2.8063
  165MOL0     H22254   9.618   1.483   7.938  0.4179 -0.7038  0.6319
  165MOL0     H22255   9.409   2.363   8.168 -0.9267 -0.4689  0.1421
  165MOL0     H22256   9.422   2.597   8.131 -2.4425 -2.4572  0.0117
  165MOL0     H22257   9.488   3.028   8.267 -0.9662 -1.6702 -0.4010
  165MOL0     H22258   9.480   3.260   8.181  0.6734 -2.0344 -0.5252
  165MOL0     H22259   8.632   4.127   9.489 -1.1673 -0.3508  0.3856
  165MOL0     H22260   8.799   4.283   9.537 -1.9963 -0.1388  0.6371
  165MOL0     H22261   9.281   4.399   9.412 -0.2088  0.1136 -1.5253
  165MOL0     H22262   9.523   4.477   9.464 -1.0400  0.8068 -0.0813
  165MOL0     H22263   9.677   4.256   9.729  0.8123  0.6654 -0.8158
  165MOL0     H22264   9.779   4.377   9.807  3.1816 -0.9087 -2.1549
  165MOL0     H22265   9.917   4.254   9.639 -0.1566 -1.0832 -3.4106
  165MOL0     H22266   9.894   4.423   9.617 -0.5041 -0.1855  3.6497
  165MOL0     H22267   9.734   4.391   9.414 -2.6978 -2.6127 -3.0183
  165MOL0     H22268   9.715   4.222   9.468 -0.9194  0.5037 -0.4957
  165MOL0     H22269   9.960   4.353   9.372 -1.6219  1.4175 -0.2483
  165MOL0     H22270   9.935   4.177   9.387 -4.0202 -1.4850  2.8459
  165MOL0     H22271   9.765   4.316   9.014  0.1269  0.7882  0.7552
  165MOL0     H22272   9.475   4.318   9.850 -0.0644 -0.7407 -0.6564
  165MOL0     H22273   9.207   4.089   9.794 -1.1229  1.1539 -0.4969
  165MOL0     H22274   9.350   4.133   9.883 -0.4278 -0.0304  0.7583
  165MOL0     H22275   9.198   4.230   9.896  1.1902 -3.1906  3.6649
  166MOL0     O22276  11.211   8.176   3.576  0.1124  0.3836 -0.0909
  166MOL0     C22277  11.172   8.196   3.691 -0.5230  0.5510 -0.1179
  166MOL0     O22278  11.046   8.175   3.739  0.5951 -0.2076 -0.1507
  166MOL0     C22279  10.954   8.129   3.651  0.5035  0.1170  0.6979
  166MOL0     C22280  10.871   8.024   3.693  0.3349 -0.7211 -0.2719
  166MOL0     C22281  10.762   7.978   3.613 -0.0319  0.9292 -0.0192
  166MOL0     C22282  10.741   8.018   3.483 -0.3973 -1.0890 -0.3771
  166MOL0     O22283  10.666   7.956   3.386 -0.4457 -0.3201  0.1749
  166MOL0     C22284  10.640   7.822   3.414  1.2729  1.0679 -0.2562
  166MOL0     C22285  10.549   7.769   3.292 -0.6676 -0.2221  0.4838
  166MOL0     C22286  10.579   7.626   3.253  0.2553  0.3103 -0.1361
  166MOL0     C22287  10.504   7.573   3.123  0.2206 -0.0999 -0.4494
  166MOL0     C22288  10.570   7.618   2.988  0.4916  0.0150 -0.4143
  166MOL0     C22289  10.549   7.527   2.867  0.8884 -0.2224 -0.7488
  166MOL0     C22290  10.596   7.584   2.728  0.0723 -0.1412  0.7154
  166MOL0     C22291  10.552   7.737   2.692 -0.2218  0.4326  0.3634
  166MOL0     N22292  10.591   7.755   2.547  0.2999  0.5821  0.3073
  166MOL0     C22293  10.676   7.855   2.494 -0.5909 -1.0263 -0.3806
  166MOL0     C22294  10.670   7.832   2.359  0.4969 -0.7287  0.2506
  166MOL0     C22295  10.751   7.900   2.256  0.2339 -0.4809 -0.8969
  166MOL0     C22296  10.658   7.916   2.134 -0.1826  0.7214  0.2413
  166MOL0     C22297  10.717   7.999   2.022 -0.1841 -0.1903  0.1505
  166MOL0     C22298  10.636   7.998   1.894  0.5650  0.0092  0.6816
  166MOL0     O22299  10.652   8.118   1.817  0.4314  0.2823  0.9300
  166MOL0     C22300  10.638   8.243   1.881 -0.6279  0.0543  0.4341
  166MOL0     C22301  10.539   8.261   1.984 -0.2754 -1.4248  0.1564
  166MOL0     C22302  10.549   8.384   2.063  0.2395 -0.0074  0.1626
  166MOL0     C22303  10.640   8.485   2.038 -0.1750 -1.1236 -0.3947
  166MOL0     C22304  10.634   8.610   2.119 -0.4999 -0.4732  0.2148
  166MOL0     O22305  10.537   8.628   2.215  0.1881  0.5499 -0.1971
  166MOL0     C22306  10.549   8.735   2.299  0.0650 -0.0020  0.2808
  166MOL0     C22307  10.564   8.720   2.439 -0.6921 -0.1912  0.6834
  166MOL0     C22308  10.559   8.836   2.513 -0.5286 -0.0213 -0.6529
  166MOL0     C22309  10.537   8.964   2.465 -0.1689  0.0475  0.1482
  166MOL0     O22310  10.529   9.084   2.540  0.6725 -1.2274 -0.2052
  166MOL0     C22311  10.431   9.090   2.645  0.6300  0.3788  0.3848
  166MOL0     C22312  10.478   9.050   2.777  0.0149 -0.1051 -0.8606
  166MOL0     C22313  10.378   9.089   2.892  0.7811 -1.0313 -0.2516
  166MOL0     C22314  10.254   9.004   2.890  0.0348  0.6439 -0.5207
  166MOL0     C22315  10.147   9.056   2.985  0.5516  0.4305  0.5945
  166MOL0     C22316  10.207   9.093   3.120  0.5485 -0.4846 -0.0704
  166MOL0     C22317  10.101   9.114   3.242  0.6859 -0.1180  0.4845
  166MOL0     C22318  10.042   8.980   3.275  0.2777  0.4314 -0.0681
  166MOL0    Cl22319  10.167   8.851   3.308  0.3322 -0.1388 -0.6064
  166MOL0     C22320  10.537   8.979   2.328  0.5189  0.2207  0.3309
  166MOL0     C22321  10.538   8.860   2.242  0.3083 -0.0285  0.3710
  166MOL0     O22322  10.732   8.691   2.105  1.0171  0.2520  0.2628
  166MOL0     C22323  10.720   8.467   1.925 -0.0322 -0.1658  0.1155
  166MOL0     C22324  10.713   8.353   1.847  0.4700 -0.5626 -0.6060
  166MOL0     N22325  10.570   7.740   2.336 -0.0080 -0.4228 -0.0551
  166MOL0     N22326  10.526   7.689   2.446  0.6144 -0.2439 -0.1656
  166MOL0     C22327  10.821   8.128   3.442  0.5117  0.4861 -0.0621
  166MOL0     C22328  10.931   8.177   3.520  0.8741  0.4975  0.2040
  166MOL0     C22329  11.270   8.261   3.780 -0.5007  0.0934  0.4804
  166MOL0     C22330  11.255   8.244   3.917  0.6584 -0.8435 -0.9393
  166MOL0     C22331  11.347   8.296   4.005 -0.8211  0.8722 -0.2027
  166MOL0     C22332  11.456   8.377   3.958  0.0360 -0.0264  0.7195
  166MOL0     O22333  11.549   8.443   4.035  0.1410 -0.7798 -0.0693
  166MOL0     C22334  11.531   8.451   4.174  0.0310  0.3629 -0.1808
  166MOL0     C22335  11.616   8.558   4.242  0.1523  0.1952  0.4244
  166MOL0     C22336  11.602   8.695   4.162 -0.0023 -0.6807  1.0408
  166MOL0     C22337  11.466   8.765   4.191  0.5144  0.3555 -0.4304
  166MOL0     C22338  11.464   8.900   4.128  0.0840 -0.2513 -0.7677
  166MOL0     C22339  11.454   9.004   4.075  0.4580 -0.1931 -1.2124
  166MOL0     C22340  11.467   8.389   3.820  0.3451 -0.0773  0.1551
  166MOL0     C22341  11.372   8.340   3.729 -0.4349 -0.7893 -0.3077
  166MOL0     C22342  11.390   8.386   3.588  0.0253 -0.4548 -0.4872
  166MOL0     H22343  10.887   7.978   3.790  1.5001 -0.8230 -0.4981
  166MOL0     H22344  10.706   7.896   3.656 -1.1042  1.2663 -0.7390
  166MOL0     H22345  10.737   7.770   3.412  0.2090 -1.0511 -0.2022
  166MOL0     H22346  10.588   7.795   3.506 -1.3465 -1.8369 -2.3681
  166MOL0     H22347  10.569   7.833   3.206  3.1798 -4.7541 -2.5334
  166MOL0     H22348  10.444   7.786   3.315 -0.7527  1.5586 -1.0215
  166MOL0     H22349  10.553   7.563   3.339 -0.0814 -1.8820 -1.7499
  166MOL0     H22350  10.683   7.603   3.231  0.9579  0.5573  2.5534
  166MOL0     H22351  10.503   7.464   3.132 -2.4024 -0.1041  0.2212
  166MOL0     H22352  10.398   7.602   3.123 -0.4585 -1.9546  3.6660
  166MOL0     H22353  10.522   7.711   2.956  0.0129 -0.4544 -1.1141
  166MOL0     H22354  10.676   7.638   3.001 -0.2448  2.4989  3.2332
  166MOL0     H22355  10.605   7.441   2.904 -0.3822  0.0981  2.1800
  166MOL0     H22356  10.442   7.505   2.874  0.0268  3.1426 -1.5431
  166MOL0     H22357  10.544   7.514   2.661  0.2630 -2.6570  3.0368
  166MOL0     H22358  10.702   7.577   2.704 -0.0419 -0.9937  0.4369
  166MOL0     H22359  10.445   7.749   2.713 -0.7675  0.5938 -2.2109
  166MOL0     H22360  10.614   7.807   2.749  2.5562 -0.1697 -1.7360
  166MOL0     H22361  10.734   7.926   2.552 -2.2900 -0.2882  0.5161
  166MOL0     H22362  10.768   8.002   2.291  0.1947 -1.2391  1.5241
  166MOL0     H22363  10.843   7.850   2.224  0.6243 -0.1556 -0.2851
  166MOL0     H22364  10.634   7.822   2.084  0.5158  0.9509 -0.5354
  166MOL0     H22365  10.568   7.952   2.185 -1.0113 -1.4858  0.4464
  166MOL0     H22366  10.820   7.965   2.008 -0.7344 -2.4812  1.1416
  166MOL0     H22367  10.729   8.098   2.066 -0.3130 -0.0017 -0.2396
  166MOL0     H22368  10.530   7.989   1.917 -0.1949  1.9295 -1.6407
  166MOL0     H22369  10.662   7.913   1.830  2.4391  0.8046  0.3040
  166MOL0     H22370  10.469   8.181   2.004 -0.0222 -1.7208 -0.1004
  166MOL0     H22371  10.483   8.389   2.150  1.4912  3.0076  1.1033
  166MOL0     H22372  10.582   8.624   2.487  0.8507 -0.1101  0.3085
  166MOL0     H22373  10.577   8.826   2.620  3.6016 -0.9095 -1.2537
  166MOL0     H22374  10.387   9.190   2.647 -2.4155 -0.8117 -1.2532
  166MOL0     H22375  10.348   9.020   2.631  1.8726 -1.1238  0.2225
  166MOL0     H22376  10.509   8.945   2.776 -1.7055 -0.6820  0.7649
  166MOL0     H22377  10.565   9.112   2.802  0.2324 -0.7687  0.0455
  166MOL0     H22378  10.428   9.093   2.989 -0.0971  0.7493  0.1724
  166MOL0     H22379  10.336   9.190   2.881 -1.8043 -1.4363  3.6362
  166MOL0     H22380  10.278   8.904   2.929  1.2305  1.3507  0.6420
  166MOL0     H22381  10.206   8.992   2.793 -0.1732  2.3257 -0.6508
  166MOL0     H22382  10.067   8.982   2.988  0.9968 -0.2477  6.0555
  166MOL0     H22383  10.101   9.145   2.941 -2.5950 -0.9739  0.7825
  166MOL0     H22384  10.286   9.021   3.143  0.8287  0.2051  1.2286
  166MOL0     H22385  10.250   9.193   3.109 -0.7085  0.3947  2.2998
  166MOL0     H22386  10.023   9.185   3.214  2.9788  2.5032  0.2832
  166MOL0     H22387  10.147   9.150   3.334  0.8272 -0.0450  0.3859
  166MOL0     H22388   9.983   8.979   3.368 -2.4355  1.1987 -1.6736
  166MOL0     H22389   9.976   8.939   3.198 -0.7012 -1.7463  1.8081
  166MOL0     H22390  10.546   9.080   2.289 -0.3258  0.1991  0.0713
  166MOL0     H22391  10.523   8.857   2.134 -2.1836  0.1041  0.6519
  166MOL0     H22392  10.794   8.535   1.885  1.4123 -1.5822  0.2758
  166MOL0     H22393  10.780   8.329   1.765  0.5059  0.0724 -0.7718
  166MOL0     H22394  10.803   8.167   3.342 -1.6406 -1.0242 -0.3362
  166MOL0     H22395  11.001   8.255   3.490  3.3572 -1.3759  0.7496
  166MOL0     H22396  11.169   8.195   3.962 -0.1988  1.1436 -0.2584
  166MOL0     H22397  11.333   8.280   4.112 -1.6292  1.5818 -0.1879
  166MOL0     H22398  11.556   8.350   4.210  0.3930  0.8072  0.8313
  166MOL0     H22399  11.424   8.471   4.187 -0.4072 -1.3461 -0.8510
  166MOL0     H22400  11.721   8.529   4.241  0.3155  0.7834  0.3519
  166MOL0     H22401  11.589   8.586   4.344 -2.4640  2.2053 -0.6924
  166MOL0     H22402  11.611   8.674   4.055 -1.7420  0.4988  0.6187
  166MOL0     H22403  11.690   8.755   4.188  0.8032 -0.4354 -1.8836
  166MOL0     H22404  11.376   8.716   4.153 -0.2357  2.7011 -1.8574
  166MOL0     H22405  11.462   8.779   4.300  1.0246 -1.7003 -0.1037
  166MOL0     H22406  11.442   9.102   4.033 -2.9679 -0.5269 -1.2748
  166MOL0     H22407  11.552   8.447   3.785  0.6671  0.6590  2.0199
  166MOL0     H22408  11.300   8.423   3.539  0.4995  0.6206 -0.5753
  166MOL0     H22409  11.474   8.456   3.590  0.9743 -1.4031 -3.1799
  166MOL0     H22410  11.412   8.293   3.535  0.2734 -1.5814  1.4966
  167MOL0     O22411   4.667   9.061   0.163 -0.8773  0.1576  0.0960
  167MOL0     C22412   4.631   9.008   0.057 -0.2963  0.4483  0.4142
  167MOL0     O22413   4.720   8.953  -0.041 -0.3462 -1.2224 -1.0753
  167MOL0     C22414   4.855   8.961  -0.014 -0.7527 -0.7561  0.0015
  167MOL0     C22415   4.921   9.009  -0.126  0.9784 -0.3339  0.1952
  167MOL0     C22416   5.067   9.006  -0.124  0.2349 -0.0513  0.8185
  167MOL0     C22417   5.144   8.957  -0.022 -0.0476 -0.2500 -0.1566
  167MOL0     O22418   5.271   8.963  -0.031 -1.1792  0.3436  0.5751
  167MOL0     C22419   5.351   8.912   0.076  0.9205  0.0142 -0.2871
  167MOL0     C22420   5.498   8.927   0.030 -0.5215 -0.0608 -0.2616
  167MOL0     C22421   5.614   8.851   0.119  0.2622 -1.0137  0.3640
  167MOL0     C22422   5.746   8.920   0.071  0.2477  1.1870 -0.1653
  167MOL0     C22423   5.876   8.869   0.134 -0.3627 -0.0727  0.1610
  167MOL0     C22424   5.915   8.735   0.067 -0.4069 -0.4742  0.5046
  167MOL0     C22425   6.059   8.696   0.106  0.4080 -0.3376  0.7962
  167MOL0     C22426   6.056   8.624   0.243  0.1286  0.4114  0.8343
  167MOL0     N22427   6.052   8.475   0.228  0.1266  0.4989  0.2277
  167MOL0     C22428   5.929   8.407   0.234 -0.8881 -0.3286 -0.6115
  167MOL0     C22429   5.959   8.280   0.256 -0.5239  1.0848 -1.0997
  167MOL0     C22430   5.852   8.182   0.272 -0.0486  0.3644  0.2417
  167MOL0     C22431   5.849   8.127   0.417  0.2292 -0.2265 -1.0060
  167MOL0     C22432   5.699   8.112   0.449 -1.2902  0.4167 -0.1106
  167MOL0     C22433   5.681   8.039   0.582  0.1297  0.5436 -0.4617
  167MOL0     O22434   5.670   8.135   0.688 -0.0202  0.3025 -0.7734
  167MOL0     C22435   5.624   8.105   0.811 -1.1919  0.7335 -0.2595
  167MOL0     C22436   5.621   7.980   0.865 -0.2957 -0.0683  0.5951
  167MOL0     C22437   5.582   7.957   0.995  0.8678 -0.3158 -0.3470
  167MOL0     C22438   5.536   8.066   1.073 -1.4760 -0.5449 -0.5228
  167MOL0     C22439   5.495   8.042   1.209  0.2411 -0.3353  0.5148
  167MOL0     O22440   5.431   8.140   1.281  0.4510  0.0270  0.7037
  167MOL0     C22441   5.407   8.118   1.416 -0.3889  0.4360  0.8082
  167MOL0     C22442   5.454   8.204   1.516 -0.0940  0.2866  0.3520
  167MOL0     C22443   5.437   8.178   1.658  0.3959 -0.0038  0.0258
  167MOL0     C22444   5.346   8.075   1.694  0.1857 -1.1302 -1.3136
  167MOL0     O22445   5.311   8.049   1.823 -0.3673 -0.5994 -0.3606
  167MOL0     C22446   5.274   8.171   1.903  0.3460  0.0625  0.3816
  167MOL0     C22447   5.161   8.144   1.994  0.3539 -0.1682 -0.0215
  167MOL0     C22448   5.198   8.052   2.108 -0.2156  0.8620 -0.0738
  167MOL0     C22449   5.064   8.032   2.187 -0.9343  0.3601 -0.7912
  167MOL0     C22450   5.080   7.913   2.285 -0.6948 -0.6324 -0.3085
  167MOL0     C22451   5.035   7.784   2.210 -0.0373 -0.2018 -0.3128
  167MOL0     C22452   5.049   7.645   2.285 -0.1254 -0.4424  0.7264
  167MOL0     C22453   5.011   7.529   2.188 -0.1146  1.6022  0.0341
  167MOL0    Cl22454   4.843   7.528   2.120  0.4010  0.1012  0.5784
  167MOL0     C22455   5.295   7.987   1.597 -0.3757 -0.1951  0.3123
  167MOL0     C22456   5.331   8.007   1.465 -0.0243 -1.0846  0.9619
  167MOL0     O22457   5.526   7.935   1.262  0.1640 -0.4706 -0.3282
  167MOL0     C22458   5.533   8.200   1.023  0.7293  0.0192 -0.1627
  167MOL0     C22459   5.576   8.216   0.889 -0.1643  0.1437  0.7554
  167MOL0     N22460   6.095   8.266   0.251  0.4781  0.6209 -0.4705
  167MOL0     N22461   6.146   8.377   0.226  0.0340  0.1504  0.8689
  167MOL0     C22462   5.077   8.910   0.093  0.4977 -0.3878 -0.1129
  167MOL0     C22463   4.934   8.908   0.090  0.3707 -0.5246  0.6634
  167MOL0     C22464   4.488   8.990   0.035  0.4704 -0.3349 -0.4701
  167MOL0     C22465   4.394   9.073   0.094  0.1573  0.4214  0.1967
  167MOL0     C22466   4.256   9.063   0.086 -0.6409 -0.8643  0.7775
  167MOL0     C22467   4.205   8.955   0.008 -0.6220 -0.5512  0.6076
  167MOL0     O22468   4.069   8.931   0.010 -0.2325 -0.2033  0.6061
  167MOL0     C22469   4.011   8.838  -0.085  0.3807 -0.6290 -0.6729
  167MOL0     C22470   3.859   8.868  -0.093 -0.2627  0.5210 -0.0151
  167MOL0     C22471   3.830   8.988  -0.192  0.2875 -0.2760 -0.5554
  167MOL0     C22472   3.684   8.974  -0.233 -0.4705  0.2388  1.5597
  167MOL0     C22473   3.640   9.091  -0.310 -0.4195  0.2404  0.1601
  167MOL0     C22474   3.583   9.187  -0.357 -0.5168 -0.4167 -0.4905
  167MOL0     C22475   4.296   8.863  -0.045  0.2077  0.4467  0.1260
  167MOL0     C22476   4.435   8.874  -0.027 -0.5104  0.3189 -0.5608
  167MOL0     C22477   4.517   8.757  -0.079 -0.4261 -0.1159 -0.0917
  167MOL0     H22478   4.858   9.031  -0.212 -1.0140 -4.2554  0.4388
  167MOL0     H22479   5.119   9.044  -0.212 -0.4924 -0.7061  0.0846
  167MOL0     H22480   5.340   8.974   0.166  2.6215 -0.4025  0.2388
  167MOL0     H22481   5.329   8.809   0.105 -2.8617  0.2547 -1.6639
  167MOL0     H22482   5.501   9.036   0.041 -1.5161  0.2035 -2.0721
  167MOL0     H22483   5.514   8.916  -0.078  1.3420  2.3504 -0.3215
  167MOL0     H22484   5.621   8.745   0.096 -0.4998 -0.5619 -2.2785
  167MOL0     H22485   5.581   8.855   0.224 -0.0278 -0.7324  0.2647
  167MOL0     H22486   5.756   8.937  -0.037  1.0246 -2.0063 -0.7176
  167MOL0     H22487   5.737   9.016   0.122 -0.3403  0.4128  1.2564
  167MOL0     H22488   5.947   8.952   0.128  0.0726 -0.5072 -1.2305
  167MOL0     H22489   5.858   8.864   0.241  2.3167  0.4826  0.7254
  167MOL0     H22490   5.838   8.661   0.093 -2.8786  1.7551 -0.0149
  167MOL0     H22491   5.909   8.752  -0.041  0.2076  1.9788  0.7994
  167MOL0     H22492   6.128   8.779   0.125  0.3307 -0.2530  0.7067
  167MOL0     H22493   6.109   8.628   0.036  3.4116  0.8046  1.6569
  167MOL0     H22494   6.141   8.650   0.308  0.3830  1.2885  0.1779
  167MOL0     H22495   5.970   8.659   0.300 -0.7427  1.6859 -1.1463
  167MOL0     H22496   5.839   8.465   0.214  0.3771  2.2794  0.7898
  167MOL0     H22497   5.765   8.234   0.231  0.1238 -0.8224 -1.7949
  167MOL0     H22498   5.855   8.097   0.203 -2.7214 -0.0634  0.5492
  167MOL0     H22499   5.902   8.031   0.416 -0.3000 -0.5823  0.9162
  167MOL0     H22500   5.898   8.185   0.496  2.4004 -0.8006 -1.8715
  167MOL0     H22501   5.650   8.048   0.375 -0.4641 -0.1809 -0.1561
  167MOL0     H22502   5.651   8.210   0.448 -2.7574 -0.2228  1.2088
  167MOL0     H22503   5.754   7.960   0.603 -2.8707 -2.1572  0.6280
  167MOL0     H22504   5.583   7.994   0.565 -2.0436  4.3322  1.0115
  167MOL0     H22505   5.654   7.899   0.801  1.2986  2.0287 -1.4011
  167MOL0     H22506   5.580   7.858   1.039  0.7768  1.1892  3.3876
  167MOL0     H22507   5.523   8.285   1.498  2.9809 -2.0578  0.7422
  167MOL0     H22508   5.483   8.245   1.729  4.2148 -0.5836 -1.6746
  167MOL0     H22509   5.360   8.206   1.962  1.5288  2.0915 -2.3187
  167MOL0     H22510   5.243   8.252   1.836  0.2195 -0.5723 -0.3497
  167MOL0     H22511   5.136   8.238   2.043  1.4542  0.3042 -0.3439
  167MOL0     H22512   5.073   8.111   1.939  0.1833 -0.9833  0.7136
  167MOL0     H22513   5.241   7.956   2.079  0.8265  0.7595  1.6151
  167MOL0     H22514   5.272   8.097   2.175 -1.0665  1.5565  0.4110
  167MOL0     H22515   4.982   8.016   2.116 -0.8262 -0.5730 -0.7161
  167MOL0     H22516   5.038   8.126   2.237 -1.3297 -0.3850  0.4540
  167MOL0     H22517   5.020   7.931   2.374 -1.5532  0.0542 -1.0032
  167MOL0     H22518   5.185   7.902   2.315 -0.7440 -1.0990 -0.3081
  167MOL0     H22519   4.931   7.807   2.185  0.5604  2.1289 -0.8752
  167MOL0     H22520   5.084   7.785   2.113  1.3842  2.3737  0.3410
  167MOL0     H22521   4.988   7.640   2.375 -0.2419 -1.8604  0.5892
  167MOL0     H22522   5.155   7.632   2.305  0.4289  1.0249 -0.9678
  167MOL0     H22523   5.084   7.521   2.107 -2.5136  0.4424 -2.1672
  167MOL0     H22524   5.018   7.431   2.235 -1.3458  1.4403 -0.0823
  167MOL0     H22525   5.241   7.897   1.624 -0.7938  0.3129  1.1938
  167MOL0     H22526   5.300   7.934   1.390  3.4555 -0.4190 -1.3415
  167MOL0     H22527   5.502   8.286   1.083  1.8513  0.4886 -0.2354
  167MOL0     H22528   5.573   8.313   0.839 -3.5176 -0.7342 -1.0383
  167MOL0     H22529   5.130   8.857   0.172  1.7938 -0.0129 -0.7013
  167MOL0     H22530   4.880   8.867   0.175 -3.2914  2.5337  0.1060
  167MOL0     H22531   4.432   9.145   0.166  0.3951  0.2548  0.2384
  167MOL0     H22532   4.184   9.134   0.125  2.4433  1.2224  3.0934
  167MOL0     H22533   4.034   8.742  -0.036 -1.8998 -0.4972  0.7746
  167MOL0     H22534   4.056   8.847  -0.184 -1.0404 -3.4272 -1.6763
  167MOL0     H22535   3.820   8.882   0.008  2.1604  2.1957  0.7946
  167MOL0     H22536   3.815   8.777  -0.134  0.9316 -1.2797  2.3777
  167MOL0     H22537   3.901   8.984  -0.275  2.0102  0.4304  0.8154
  167MOL0     H22538   3.841   9.084  -0.141 -0.6503 -0.4599  0.0276
  167MOL0     H22539   3.659   8.887  -0.294  2.0940  0.1968  0.4624
  167MOL0     H22540   3.643   8.962  -0.133 -0.4609 -1.3004  1.3903
  167MOL0     H22541   3.543   9.276  -0.403 -0.7929 -0.1667  0.2211
  167MOL0     H22542   4.262   8.767  -0.081  0.6330  0.4571 -0.3103
  167MOL0     H22543   4.565   8.787  -0.172  0.3791 -0.8654  0.0614
  167MOL0     H22544   4.588   8.724  -0.002  0.0388  0.1906 -0.3870
  167MOL0     H22545   4.458   8.668  -0.103  0.4810 -0.4238 -1.2747
  168MOL0     O22546   0.110   6.893   2.503  0.6637 -0.0439  0.6269
  168MOL0     C22547   0.147   6.841   2.606 -0.1758 -0.9599  0.1019
  168MOL0     O22548   0.186   6.905   2.719 -0.0374 -0.3932  0.3160
  168MOL0     C22549   0.230   7.035   2.731 -0.5134 -1.0522 -0.4690
  168MOL0     C22550   0.145   7.139   2.782 -0.4751 -0.3063  0.0556
  168MOL0     C22551   0.190   7.272   2.782 -0.0986  0.1370  0.1060
  168MOL0     C22552   0.312   7.304   2.726 -0.5754 -0.4086  0.2144
  168MOL0     O22553   0.338   7.437   2.736  0.0248 -0.6231 -0.3486
  168MOL0     C22554   0.443   7.495   2.659 -0.2631  0.6526 -0.3209
  168MOL0     C22555   0.442   7.651   2.658 -0.6059  0.8266 -0.3075
  168MOL0     C22556   0.350   7.693   2.555  0.3760 -0.1488  0.2039
  168MOL0     C22557   0.355   7.846   2.532 -0.4354  1.0455 -0.6884
  168MOL0     C22558   0.263   7.875   2.408 -0.1246  0.4464 -0.2002
  168MOL0     C22559   0.290   8.012   2.364 -0.3365 -0.2103 -0.7603
  168MOL0     C22560   0.190   8.068   2.256  0.8815  1.0961  0.1902
  168MOL0     C22561   0.181   8.223   2.237  0.2782 -0.1269 -0.8753
  168MOL0     N22562   0.314   8.290   2.239  1.5859  0.0904  0.2972
  168MOL0     C22563   0.418   8.264   2.149  0.0088 -1.0211 -0.0539
  168MOL0     C22564   0.510   8.361   2.174 -0.3657 -0.3215  0.2617
  168MOL0     C22565   0.632   8.378   2.089 -0.2982 -0.1764  1.2343
  168MOL0     C22566   0.749   8.327   2.185  0.3814  0.9943  0.8165
  168MOL0     C22567   0.883   8.346   2.117 -0.9841  0.3380 -0.2507
  168MOL0     C22568   0.997   8.306   2.213  0.1598 -0.7654  0.3628
  168MOL0     O22569   0.999   8.164   2.218  0.1245 -1.0219  0.2727
  168MOL0     C22570   1.106   8.094   2.163 -0.4635 -0.4068  0.1748
  168MOL0     C22571   1.116   7.965   2.215  0.6119  0.3843 -0.2517
  168MOL0     C22572   1.208   7.869   2.163  0.9674 -0.0501 -0.5188
  168MOL0     C22573   1.307   7.912   2.084  0.1761  0.4173 -0.4455
  168MOL0     C22574   1.418   7.823   2.041 -0.7807  0.1838 -0.8284
  168MOL0     O22575   1.470   7.842   1.916 -0.6144 -0.9552 -0.0218
  168MOL0     C22576   1.558   7.757   1.863 -0.5855 -0.6562  0.4258
  168MOL0     C22577   1.544   7.622   1.860  0.2373  0.1424  0.2591
  168MOL0     C22578   1.644   7.537   1.815  0.2711  0.0902 -0.5581
  168MOL0     C22579   1.735   7.595   1.730 -0.3161  0.1827  0.5317
  168MOL0     O22580   1.836   7.530   1.653 -0.4842 -0.1632 -0.2134
  168MOL0     C22581   1.864   7.400   1.680 -0.2933 -0.2040  0.5783
  168MOL0     C22582   1.979   7.338   1.588  0.5801  0.4731  1.3280
  168MOL0     C22583   2.123   7.393   1.616  0.2002  0.4172  0.4817
  168MOL0     C22584   2.221   7.345   1.512 -0.7202  0.5644 -1.1546
  168MOL0     C22585   2.361   7.408   1.523  1.3352  2.1320  0.1617
  168MOL0     C22586   2.366   7.556   1.493 -0.8610  0.0638  0.9234
  168MOL0     C22587   2.501   7.579   1.414  0.4647  0.6490 -0.1017
  168MOL0     C22588   2.519   7.730   1.381  0.3113 -0.3361 -0.2401
  168MOL0    Cl22589   2.471   7.835   1.521  0.4244 -0.2255  0.4329
  168MOL0     C22590   1.743   7.738   1.719 -0.9070  0.0126  0.1544
  168MOL0     C22591   1.663   7.824   1.795  0.7545  0.1485  0.3869
  168MOL0     O22592   1.465   7.737   2.124  0.2137  0.1417  0.5029
  168MOL0     C22593   1.302   8.044   2.035  0.1234 -1.0784 -0.5364
  168MOL0     C22594   1.194   8.129   2.065 -0.1685 -0.2354  0.2048
  168MOL0     N22595   0.468   8.435   2.277  0.3294 -0.1828  0.3830
  168MOL0     N22596   0.348   8.397   2.312  0.1908 -0.1723  0.0145
  168MOL0     C22597   0.399   7.202   2.688 -0.8789  0.1987 -0.4435
  168MOL0     C22598   0.356   7.066   2.682  0.8788 -0.7944 -0.7931
  168MOL0     C22599   0.127   6.699   2.622 -1.0573 -0.3180 -0.1783
  168MOL0     C22600   0.152   6.649   2.756  0.6968 -0.6778  0.1676
  168MOL0     C22601   0.153   6.510   2.787 -0.2294 -0.3888 -0.6074
  168MOL0     C22602   0.146   6.419   2.679 -0.3056  0.0246  0.4653
  168MOL0     O22603   0.166   6.286   2.705 -0.2254  0.3444 -0.4262
  168MOL0     C22604   0.082   6.187   2.644 -1.1482  0.2173 -0.1568
  168MOL0     C22605  -0.035   6.157   2.734 -0.4776  0.9847  0.0153
  168MOL0     C22606  -0.011   6.034   2.822  0.5492 -0.1025  0.3267
  168MOL0     C22607   0.078   6.052   2.939 -0.5206 -0.3176  0.4214
  168MOL0     C22608   0.092   5.931   3.016  0.0363 -0.5616 -0.6830
  168MOL0     C22609   0.106   5.828   3.078 -0.2810 -0.3393 -0.6740
  168MOL0     C22610   0.123   6.472   2.551 -0.6447  0.4678  0.3465
  168MOL0     C22611   0.096   6.611   2.522 -0.1250  1.1238 -0.1812
  168MOL0     C22612   0.070   6.650   2.379  0.6410  0.3069  0.2788
  168MOL0     H22613   0.049   7.119   2.829 -0.0758 -0.3077  0.8890
  168MOL0     H22614   0.127   7.351   2.823 -0.9854 -0.1151 -0.7109
  168MOL0     H22615   0.535   7.459   2.705 -0.2130  4.5132  3.1571
  168MOL0     H22616   0.451   7.460   2.555  0.4546 -3.2566  0.8794
  168MOL0     H22617   0.543   7.682   2.628  1.3807 -3.4885  1.1412
  168MOL0     H22618   0.408   7.694   2.753 -1.0591 -1.0510  0.4221
  168MOL0     H22619   0.251   7.675   2.597  0.6317  2.6915  2.3047
  168MOL0     H22620   0.377   7.638   2.464  1.4756  1.8891 -0.7763
  168MOL0     H22621   0.314   7.901   2.618 -4.1608  0.4592 -1.9013
  168MOL0     H22622   0.456   7.878   2.503  0.2728 -1.8211 -1.7107
  168MOL0     H22623   0.290   7.808   2.326  2.0554  0.0491  0.7843
  168MOL0     H22624   0.161   7.846   2.434  0.4024 -2.4837 -1.0878
  168MOL0     H22625   0.258   8.068   2.452 -2.0007 -0.6280 -1.0654
  168MOL0     H22626   0.394   8.025   2.333  0.2308 -1.5042  0.5080
  168MOL0     H22627   0.092   8.037   2.294  2.4975  0.5812  4.5251
  168MOL0     H22628   0.210   8.020   2.159  0.6591  0.4184  0.4751
  168MOL0     H22629   0.131   8.245   2.142 -0.6468 -0.6243 -0.5090
  168MOL0     H22630   0.119   8.263   2.318 -0.5543  0.9355 -2.0048
  168MOL0     H22631   0.426   8.187   2.073 -2.2153  1.4953 -3.1266
  168MOL0     H22632   0.616   8.312   2.003 -4.9595  0.4290  1.3711
  168MOL0     H22633   0.644   8.479   2.048  0.6502 -1.5768 -2.3025
  168MOL0     H22634   0.742   8.369   2.285  1.6687 -1.8689  2.2164
  168MOL0     H22635   0.733   8.221   2.206  1.6985  1.1109  2.6542
  168MOL0     H22636   0.908   8.451   2.104 -0.7756  0.1313 -1.6278
  168MOL0     H22637   0.887   8.281   2.029 -0.1115  0.6430 -0.4376
  168MOL0     H22638   0.977   8.358   2.307 -0.4489  1.9753 -1.1688
  168MOL0     H22639   1.096   8.347   2.190 -0.2689  0.9211  1.3212
  168MOL0     H22640   1.043   7.928   2.287  2.3950 -0.1402  1.3833
  168MOL0     H22641   1.213   7.772   2.210  0.6004  0.2215  0.1012
  168MOL0     H22642   1.466   7.572   1.917  0.3704  1.6322  1.8254
  168MOL0     H22643   1.642   7.434   1.847  0.7752  0.9724  2.7337
  168MOL0     H22644   1.894   7.395   1.785 -5.3046 -2.2134  2.2295
  168MOL0     H22645   1.776   7.335   1.675 -1.1269  1.0124 -2.8641
  168MOL0     H22646   1.983   7.228   1.592 -1.5087  0.3258  0.8238
  168MOL0     H22647   1.939   7.369   1.490 -0.7385 -2.5801  0.7733
  168MOL0     H22648   2.119   7.501   1.603  0.0989  0.2892 -0.6211
  168MOL0     H22649   2.162   7.353   1.710 -1.1525 -2.2870 -0.0183
  168MOL0     H22650   2.176   7.369   1.415 -3.5125 -1.4610 -0.4577
  168MOL0     H22651   2.230   7.240   1.538 -1.4038  1.4271  3.3255
  168MOL0     H22652   2.425   7.350   1.457  0.6106 -1.5256  2.3801
  168MOL0     H22653   2.403   7.388   1.622 -0.0219 -0.1974  0.3357
  168MOL0     H22654   2.287   7.587   1.424 -0.3988 -0.0833  0.3124
  168MOL0     H22655   2.358   7.596   1.594 -2.7873 -3.9639  2.5732
  168MOL0     H22656   2.513   7.538   1.313  4.0938 -1.0224  0.8417
  168MOL0     H22657   2.582   7.539   1.476 -0.8319 -1.5547  0.2751
  168MOL0     H22658   2.623   7.763   1.369  0.2968  0.2240  1.0338
  168MOL0     H22659   2.474   7.764   1.287  1.6682 -0.6448 -1.0304
  168MOL0     H22660   1.818   7.775   1.650 -0.7526 -2.1776 -0.9415
  168MOL0     H22661   1.669   7.931   1.776  1.3135  0.9996  4.3938
  168MOL0     H22662   1.360   8.082   1.951  0.3520  0.9092  0.4634
  168MOL0     H22663   1.189   8.219   2.005  3.7927 -0.1898 -0.3095
  168MOL0     H22664   0.498   7.220   2.650 -0.8128 -3.0842 -2.1454
  168MOL0     H22665   0.416   6.981   2.652  2.7260  0.0850  0.2236
  168MOL0     H22666   0.161   6.711   2.845 -2.8043  2.9357 -1.6305
  168MOL0     H22667   0.179   6.479   2.888 -3.5112 -1.2785  0.0976
  168MOL0     H22668   0.149   6.103   2.626 -0.2303  1.1335 -1.1228
  168MOL0     H22669   0.036   6.218   2.550 -2.4389  2.6541  1.1627
  168MOL0     H22670  -0.123   6.133   2.673 -0.4383 -1.5684  0.8276
  168MOL0     H22671  -0.064   6.235   2.804 -1.0151  0.1095  0.7940
  168MOL0     H22672   0.039   5.955   2.765  1.0521 -2.2363  3.4577
  168MOL0     H22673  -0.110   5.997   2.851  2.6320 -4.0168  3.4396
  168MOL0     H22674   0.179   6.067   2.899 -0.8609  1.9395  0.2684
  168MOL0     H22675   0.051   6.145   2.991  2.2238  1.8647 -1.7365
  168MOL0     H22676   0.117   5.744   3.145  1.1267  1.0091  0.8906
  168MOL0     H22677   0.110   6.406   2.466 -4.2919  0.5394  0.6914
  168MOL0     H22678  -0.024   6.702   2.358 -0.3838 -1.4554  0.3194
  168MOL0     H22679   0.151   6.706   2.332 -1.2506  1.0298 -2.3261
  168MOL0     H22680   0.057   6.571   2.305  2.3241  1.8859 -1.8245
  169MOL0     O22681   6.281   1.800   5.105 -0.9076  0.6540 -0.5065
  169MOL0     C22682   6.368   1.853   5.169 -0.2481 -0.0105 -0.2058
  169MOL0     O22683   6.447   1.791   5.254 -0.0882  0.5255 -0.2832
  169MOL0     C22684   6.422   1.661   5.279 -0.2560  0.3052 -0.1352
  169MOL0     C22685   6.489   1.558   5.221  0.0141 -0.4936 -0.2431
  169MOL0     C22686   6.462   1.422   5.260 -0.4667  0.7897  0.0120
  169MOL0     C22687   6.373   1.382   5.361 -0.1496 -0.1724 -0.9236
  169MOL0     O22688   6.350   1.254   5.409 -0.4691 -0.1472  0.1242
  169MOL0     C22689   6.453   1.168   5.383  0.8630 -0.1389 -0.5547
  169MOL0     C22690   6.428   1.035   5.457 -0.2289  0.1026 -0.2335
  169MOL0     C22691   6.558   0.962   5.469 -0.2763 -0.6407 -0.3628
  169MOL0     C22692   6.546   0.818   5.497  0.5212 -0.5966 -0.4716
  169MOL0     C22693   6.677   0.749   5.525  0.6235  2.4750 -0.3256
  169MOL0     C22694   6.645   0.599   5.555 -0.7838  0.0119  0.0695
  169MOL0     C22695   6.774   0.523   5.579  0.0565  0.2701  0.2108
  169MOL0     C22696   6.733   0.385   5.636 -0.1690  0.3567  0.4904
  169MOL0     N22697   6.832   0.350   5.732 -0.0430 -0.3172 -0.3318
  169MOL0     C22698   6.942   0.270   5.718 -0.9734 -0.0678  0.1805
  169MOL0     C22699   6.994   0.255   5.845 -0.0596 -0.1786  0.1423
  169MOL0     C22700   7.096   0.160   5.903  0.9237  0.1361  0.6178
  169MOL0     C22701   7.035   0.064   6.010  0.2049  0.1709 -0.6350
  169MOL0     C22702   7.034   0.126   6.151 -0.6857  0.6514  0.9042
  169MOL0     C22703   6.969   0.030   6.253  0.3173  0.6149 -0.5777
  169MOL0     O22704   7.026  -0.108   6.261 -0.2751  0.1519 -0.0423
  169MOL0     C22705   7.144  -0.121   6.321 -0.4889  0.5381 -0.0500
  169MOL0     C22706   7.163  -0.100   6.459 -0.8366 -0.8151 -0.0350
  169MOL0     C22707   7.289  -0.099   6.525 -0.6457  1.0237  0.8589
  169MOL0     C22708   7.403  -0.118   6.443  0.3184  0.2552 -0.9136
  169MOL0     C22709   7.543  -0.132   6.518  0.2897  0.1059  0.7177
  169MOL0     O22710   7.562  -0.147   6.650 -0.1191 -0.8355  0.2697
  169MOL0     C22711   7.668  -0.221   6.686 -0.1674  0.6675  0.0972
  169MOL0     C22712   7.651  -0.349   6.740 -0.2406  0.3797  1.0520
  169MOL0     C22713   7.755  -0.423   6.784 -0.2839  0.1297  0.5298
  169MOL0     C22714   7.882  -0.367   6.781 -0.4612  0.5767  0.1453
  169MOL0     O22715   7.984  -0.449   6.826  0.2785  0.0904 -0.2822
  169MOL0     C22716   8.095  -0.467   6.732  0.9209  0.0223 -0.6734
  169MOL0     C22717   8.192  -0.583   6.759  0.4941  0.1865 -0.4886
  169MOL0     C22718   8.221  -0.653   6.632 -0.5306  0.2847 -1.1523
  169MOL0     C22719   8.298  -0.788   6.659  0.1227 -0.3859  0.6454
  169MOL0     C22720   8.343  -0.852   6.518  0.0349 -0.6670  0.1996
  169MOL0     C22721   8.236  -0.847   6.404 -1.3441  0.3432 -0.4554
  169MOL0     C22722   8.293  -0.882   6.272 -0.3459  0.2383  0.6153
  169MOL0     C22723   8.382  -0.773   6.221  0.1542 -0.7494  0.4231
  169MOL0    Cl22724   8.391  -0.798   6.042 -0.3587 -0.5043  0.5057
  169MOL0     C22725   7.902  -0.233   6.752 -0.0839 -0.3081 -0.6937
  169MOL0     C22726   7.799  -0.167   6.703  0.0851  0.0681 -0.3279
  169MOL0     O22727   7.634  -0.141   6.441 -0.4450  0.4836 -0.2851
  169MOL0     C22728   7.395  -0.136   6.300  0.3882 -0.5344 -0.1190
  169MOL0     C22729   7.265  -0.140   6.249  0.3157 -0.0954  0.7414
  169MOL0     N22730   6.919   0.337   5.926  0.3220 -0.4562 -0.0332
  169MOL0     N22731   6.831   0.411   5.860 -0.0230  0.1732  0.7587
  169MOL0     C22732   6.301   1.489   5.419  1.6330  0.7743 -0.1581
  169MOL0     C22733   6.324   1.627   5.382  0.4871 -0.0207 -0.1545
  169MOL0     C22734   6.387   1.997   5.131 -1.2514 -0.6884  0.5767
  169MOL0     C22735   6.323   2.045   5.012 -0.9914 -0.0056 -0.3070
  169MOL0     C22736   6.327   2.178   4.976 -0.7940 -0.7787  0.2341
  169MOL0     C22737   6.404   2.263   5.057 -1.1447 -0.6421  0.2087
  169MOL0     O22738   6.400   2.399   5.017 -0.2432  0.1488  0.2442
  169MOL0     C22739   6.524   2.478   5.010  0.2476 -0.0777 -0.5578
  169MOL0     C22740   6.610   2.425   4.893  0.1570 -0.0635  0.4007
  169MOL0     C22741   6.703   2.517   4.821 -0.6811 -0.7334 -0.1222
  169MOL0     C22742   6.722   2.503   4.669 -0.0382  0.1637 -0.4200
  169MOL0     C22743   6.607   2.555   4.596  0.5823  0.4196  0.2758
  169MOL0     C22744   6.503   2.596   4.545  0.2337 -0.4082  0.7473
  169MOL0     C22745   6.471   2.223   5.169  0.7223 -0.2433  0.4438
  169MOL0     C22746   6.462   2.091   5.209  0.8858  0.2863 -0.1828
  169MOL0     C22747   6.534   2.048   5.331  0.2667  0.2373 -0.0418
  169MOL0     H22748   6.574   1.572   5.155  1.7687  1.4943  2.2263
  169MOL0     H22749   6.509   1.343   5.203 -2.9856 -2.2660  1.7994
  169MOL0     H22750   6.464   1.149   5.276  0.4419 -1.4634 -0.3721
  169MOL0     H22751   6.547   1.218   5.411 -0.1111  0.1734  2.5920
  169MOL0     H22752   6.357   0.983   5.392 -3.5297  2.0018  1.5746
  169MOL0     H22753   6.389   1.053   5.558  1.0784  0.5649  0.2178
  169MOL0     H22754   6.610   0.997   5.558 -1.5711  0.2977  0.0525
  169MOL0     H22755   6.631   0.981   5.389  1.6980  3.1695  2.0412
  169MOL0     H22756   6.486   0.815   5.588 -0.8547  3.6844 -0.9865
  169MOL0     H22757   6.481   0.778   5.418 -1.6613  3.4802 -1.0507
  169MOL0     H22758   6.740   0.744   5.435  0.8479 -4.2089 -0.3177
  169MOL0     H22759   6.731   0.791   5.610  0.1460 -1.9617  2.5021
  169MOL0     H22760   6.570   0.608   5.635 -1.9155  3.1845 -1.1792
  169MOL0     H22761   6.608   0.557   5.461 -1.1180 -3.1032  1.4630
  169MOL0     H22762   6.819   0.577   5.662 -1.4041  1.7358  0.0902
  169MOL0     H22763   6.842   0.516   5.493  0.1250  1.6623  0.1377
  169MOL0     H22764   6.638   0.369   5.687 -0.3651  0.2697  0.1022
  169MOL0     H22765   6.726   0.316   5.551 -3.0961 -0.9313  1.6205
  169MOL0     H22766   6.964   0.207   5.633 -0.2978  0.8250 -0.3297
  169MOL0     H22767   7.127   0.096   5.820 -1.6058  1.4512 -1.4559
  169MOL0     H22768   7.182   0.221   5.931 -1.0064  1.8832  3.2941
  169MOL0     H22769   6.936   0.030   5.979  0.6979 -2.2353  0.2236
  169MOL0     H22770   7.093  -0.028   6.014 -0.2898 -0.1091  1.2293
  169MOL0     H22771   6.978   0.220   6.158 -0.0538  1.0069  1.2277
  169MOL0     H22772   7.136   0.137   6.189 -0.0375 -1.4845 -0.0350
  169MOL0     H22773   6.863   0.029   6.226  0.1494  1.5802 -0.0147
  169MOL0     H22774   6.967   0.082   6.349 -0.3986  0.7828 -0.6797
  169MOL0     H22775   7.080  -0.071   6.523 -0.3200  5.4849 -1.5425
  169MOL0     H22776   7.309  -0.085   6.631  3.7107  1.9315  0.1214
  169MOL0     H22777   7.549  -0.387   6.741  0.2573 -1.0235  2.7440
  169MOL0     H22778   7.736  -0.525   6.817 -1.0538  0.1785  0.2487
  169MOL0     H22779   8.055  -0.482   6.632  0.8778 -1.7922 -0.4130
  169MOL0     H22780   8.146  -0.370   6.739  0.4389  0.1950  0.6494
  169MOL0     H22781   8.273  -0.546   6.823 -0.1287 -2.9696  2.4573
  169MOL0     H22782   8.138  -0.659   6.816  1.0915 -0.6245 -0.9749
  169MOL0     H22783   8.121  -0.665   6.590 -0.1613 -2.3996 -1.4110
  169MOL0     H22784   8.287  -0.596   6.566 -0.9308 -1.3450 -3.0373
  169MOL0     H22785   8.230  -0.852   6.716  1.3144 -2.8999 -0.5875
  169MOL0     H22786   8.389  -0.792   6.719  0.9458 -1.7995 -0.6207
  169MOL0     H22787   8.373  -0.954   6.542  0.1941  0.0242  3.5180
  169MOL0     H22788   8.429  -0.794   6.484  1.1088 -0.7575  2.5118
  169MOL0     H22789   8.177  -0.932   6.440  1.1008 -2.4160 -2.4488
  169MOL0     H22790   8.168  -0.761   6.400 -1.6952  0.4202  3.4023
  169MOL0     H22791   8.210  -0.892   6.202 -1.8323  3.1136  1.7937
  169MOL0     H22792   8.362  -0.967   6.274  1.6499  1.7974  0.8819
  169MOL0     H22793   8.337  -0.675   6.240 -1.3588 -1.7495  2.3600
  169MOL0     H22794   8.483  -0.767   6.262 -0.4922  3.2810  1.9282
  169MOL0     H22795   7.991  -0.174   6.768 -0.3612  0.2321 -1.0763
  169MOL0     H22796   7.823  -0.068   6.665  1.9473 -0.0703  0.3880
  169MOL0     H22797   7.488  -0.136   6.244  0.0201  1.9731 -0.8368
  169MOL0     H22798   7.267  -0.143   6.140  0.2994  2.7621  0.5947
  169MOL0     H22799   6.241   1.465   5.506  3.3836 -0.1052  0.8550
  169MOL0     H22800   6.276   1.703   5.443  0.5157  1.2001 -1.5855
  169MOL0     H22801   6.249   1.985   4.959 -0.1203  0.0097 -1.5760
  169MOL0     H22802   6.267   2.220   4.895  2.2193  0.2243 -1.6517
  169MOL0     H22803   6.580   2.477   5.104 -1.9660 -0.5242  0.8078
  169MOL0     H22804   6.501   2.580   4.977  2.2041 -0.3868 -3.2217
  169MOL0     H22805   6.541   2.393   4.815 -0.6383 -0.3731  1.2160
  169MOL0     H22806   6.664   2.338   4.933 -0.0388  0.9681  3.1827
  169MOL0     H22807   6.795   2.499   4.877 -1.6446 -0.3295  1.6599
  169MOL0     H22808   6.672   2.619   4.847  0.4534 -0.7826  1.6239
  169MOL0     H22809   6.815   2.547   4.632  2.1776 -2.2478  1.7184
  169MOL0     H22810   6.741   2.398   4.645 -1.1805  0.4620 -2.8241
  169MOL0     H22811   6.412   2.615   4.491  0.3939 -0.3594  0.4893
  169MOL0     H22812   6.525   2.286   5.238  1.0240  0.9421 -0.8164
  169MOL0     H22813   6.588   1.952   5.330 -0.8249 -0.4081  0.3950
  169MOL0     H22814   6.610   2.125   5.343  0.5063  0.1212 -0.7659
  169MOL0     H22815   6.470   2.050   5.420  1.2949  1.8058  0.7112
  170MOL0     O22816   7.230   4.843   7.419 -0.7624  0.0611  0.4189
  170MOL0     C22817   7.297   4.830   7.525  0.1126  0.0747  0.1161
  170MOL0     O22818   7.251   4.857   7.644  0.0311 -0.7275 -0.5194
  170MOL0     C22819   7.131   4.930   7.667  0.0708  0.6701 -0.1992
  170MOL0     C22820   7.017   4.924   7.586  0.2426  0.3557 -0.1629
  170MOL0     C22821   6.896   4.988   7.637 -0.1716  0.0607  0.5570
  170MOL0     C22822   6.894   5.057   7.759  1.0711 -0.1320 -0.0324
  170MOL0     O22823   6.773   5.116   7.791  0.2002 -0.1313 -0.2482
  170MOL0     C22824   6.778   5.225   7.882  0.0359 -0.8789 -0.3024
  170MOL0     C22825   6.642   5.287   7.866  0.3985 -1.0342 -1.1533
  170MOL0     C22826   6.617   5.413   7.955  1.0934 -0.6440 -0.6415
  170MOL0     C22827   6.615   5.359   8.098  0.3718  0.2417 -0.6875
  170MOL0     C22828   6.572   5.460   8.204  0.1162  0.4118 -0.8088
  170MOL0     C22829   6.562   5.395   8.341 -0.3990  1.0670 -0.2804
  170MOL0     C22830   6.508   5.487   8.456 -0.1670  0.4860 -0.1394
  170MOL0     C22831   6.542   5.436   8.591  0.7927 -0.2481  0.7376
  170MOL0     N22832   6.501   5.533   8.697  0.2050  0.2571 -0.1649
  170MOL0     C22833   6.371   5.580   8.710 -0.7371 -0.3542  0.5078
  170MOL0     C22834   6.397   5.697   8.777 -0.2100 -0.1987  1.0349
  170MOL0     C22835   6.290   5.795   8.820 -0.0080  0.1919 -0.1849
  170MOL0     C22836   6.305   5.941   8.767 -0.5666 -0.2517 -0.3779
  170MOL0     C22837   6.221   5.970   8.639 -0.6557  0.2366 -0.8213
  170MOL0     C22838   6.271   6.095   8.561 -0.3872  0.2049  0.2584
  170MOL0     O22839   6.407   6.085   8.528  0.0614 -0.4784 -0.2428
  170MOL0     C22840   6.439   6.045   8.397 -0.0419 -0.2668  1.0869
  170MOL0     C22841   6.493   6.134   8.307 -0.2188 -0.4835 -0.2904
  170MOL0     C22842   6.535   6.098   8.180  0.1297  0.3364  0.0743
  170MOL0     C22843   6.514   5.960   8.142  1.2058 -0.1508  0.3539
  170MOL0     C22844   6.550   5.912   8.006 -0.6802 -0.6807  0.0921
  170MOL0     O22845   6.528   5.784   7.979  0.4128  0.5489  0.1938
  170MOL0     C22846   6.530   5.747   7.845  0.0544  0.1401 -1.2032
  170MOL0     C22847   6.645   5.696   7.783  0.8528  0.2018 -0.0168
  170MOL0     C22848   6.636   5.630   7.656  0.7085 -0.7818  0.6912
  170MOL0     C22849   6.523   5.650   7.575  0.3599  0.2819 -0.0710
  170MOL0     O22850   6.516   5.569   7.462  0.3694 -0.2326 -0.7601
  170MOL0     C22851   6.428   5.607   7.350  0.3760  0.4846  0.1217
  170MOL0     C22852   6.519   5.674   7.238 -0.4324 -0.0353 -0.2093
  170MOL0     C22853   6.644   5.591   7.196 -0.0102 -0.5740 -0.4093
  170MOL0     C22854   6.710   5.661   7.072  0.6088  0.3856 -0.8383
  170MOL0     C22855   6.649   5.614   6.941 -0.7276  0.5685 -0.4888
  170MOL0     C22856   6.729   5.653   6.810  0.0743  0.0159 -0.1712
  170MOL0     C22857   6.716   5.804   6.778  0.5619 -0.1244 -0.0706
  170MOL0     C22858   6.736   5.861   6.636 -0.7819 -0.7400 -0.3780
  170MOL0    Cl22859   6.773   6.035   6.628  0.5027 -0.1454  0.0085
  170MOL0     C22860   6.414   5.719   7.640 -0.3150  0.3941  0.1768
  170MOL0     C22861   6.414   5.768   7.767 -0.5688  1.2101 -0.3885
  170MOL0     O22862   6.600   5.987   7.927  0.1880 -0.4974  0.4878
  170MOL0     C22863   6.464   5.865   8.230  0.9171 -0.7121 -0.5537
  170MOL0     C22864   6.437   5.909   8.360  0.9792  0.0779 -0.1821
  170MOL0     N22865   6.532   5.703   8.807 -0.6614 -0.9475  0.0118
  170MOL0     N22866   6.592   5.607   8.752 -0.0812 -0.5704 -0.1765
  170MOL0     C22867   7.008   5.060   7.841  0.3747 -1.1962  0.3314
  170MOL0     C22868   7.110   4.992   7.789  0.0779 -0.7477 -0.6447
  170MOL0     C22869   7.430   4.765   7.513  0.7791 -0.0141  0.7838
  170MOL0     C22870   7.445   4.671   7.406 -0.0416 -0.3070 -0.2310
  170MOL0     C22871   7.563   4.607   7.377  0.5083 -0.3805 -0.4180
  170MOL0     C22872   7.673   4.642   7.461  0.3163  0.2840 -0.0706
  170MOL0     O22873   7.791   4.587   7.428  0.2336 -0.2223  0.5148
  170MOL0     C22874   7.908   4.623   7.500  0.3898 -0.5210  0.5625
  170MOL0     C22875   8.028   4.550   7.449 -0.1256  0.7772  0.1219
  170MOL0     C22876   8.009   4.397   7.465 -0.3403 -0.2022  0.2522
  170MOL0     C22877   8.133   4.317   7.420  1.0104  0.7412 -0.2871
  170MOL0     C22878   8.134   4.325   7.271 -0.8921 -0.4658  0.3691
  170MOL0     C22879   8.143   4.383   7.165 -0.5257  0.7145 -0.3004
  170MOL0     C22880   7.659   4.725   7.580  0.3677 -1.1036 -0.0946
  170MOL0     C22881   7.540   4.792   7.597 -1.0074  0.5150  0.1922
  170MOL0     C22882   7.544   4.894   7.704 -0.1779  0.0763 -1.6606
  170MOL0     H22883   7.015   4.877   7.488 -0.6063 -1.6187  0.7355
  170MOL0     H22884   6.805   4.997   7.579  0.3192 -1.0990 -0.4267
  170MOL0     H22885   6.813   5.206   7.983  4.3161  1.5469 -1.0716
  170MOL0     H22886   6.841   5.310   7.853 -0.2452  1.1520  4.2005
  170MOL0     H22887   6.572   5.207   7.890 -1.0384 -0.0134 -1.8099
  170MOL0     H22888   6.621   5.308   7.760  1.0159  0.3851 -1.0264
  170MOL0     H22889   6.521   5.458   7.930  0.9715 -1.0802 -0.9796
  170MOL0     H22890   6.696   5.486   7.938  0.3615 -0.0587 -1.6445
  170MOL0     H22891   6.540   5.280   8.094  1.8530 -1.2552 -0.0972
  170MOL0     H22892   6.704   5.302   8.126  0.4798  0.9735  0.5451
  170MOL0     H22893   6.657   5.527   8.223 -1.5922  1.6639  3.4950
  170MOL0     H22894   6.488   5.522   8.173  0.4637  1.4109  0.1769
  170MOL0     H22895   6.501   5.305   8.349  0.1991  0.8417  3.3359
  170MOL0     H22896   6.664   5.361   8.363 -1.1726  0.4707  2.9579
  170MOL0     H22897   6.402   5.503   8.439  0.3603  2.3122 -2.1913
  170MOL0     H22898   6.557   5.584   8.442 -1.9408  1.1359 -2.4129
  170MOL0     H22899   6.489   5.346   8.622  0.9947  0.0278  1.9167
  170MOL0     H22900   6.645   5.401   8.592  0.2565 -1.9368  0.7130
  170MOL0     H22901   6.278   5.549   8.664 -2.7674  1.1299  3.3093
  170MOL0     H22902   6.192   5.749   8.804  0.4897 -1.9295  2.1629
  170MOL0     H22903   6.302   5.796   8.929 -4.1200 -1.0957  0.4402
  170MOL0     H22904   6.262   6.012   8.838 -0.2863  1.3896 -1.7638
  170MOL0     H22905   6.410   5.970   8.761 -0.2759 -1.1251  0.4136
  170MOL0     H22906   6.116   5.986   8.663 -2.1075  0.6865 -6.2898
  170MOL0     H22907   6.224   5.879   8.579 -1.6797 -0.6400  0.4089
  170MOL0     H22908   6.254   6.188   8.616 -0.8958  1.1343 -1.4278
  170MOL0     H22909   6.214   6.099   8.468  1.3618 -3.9943 -1.2270
  170MOL0     H22910   6.514   6.233   8.346 -1.0400  0.0840 -1.2593
  170MOL0     H22911   6.589   6.160   8.109 -0.9847  1.6983  0.3900
  170MOL0     H22912   6.733   5.675   7.843  2.6706  0.4153 -2.4346
  170MOL0     H22913   6.718   5.573   7.613 -1.3992 -2.4670 -1.3788
  170MOL0     H22914   6.368   5.525   7.309 -3.2604  3.0235 -0.0893
  170MOL0     H22915   6.355   5.679   7.388 -0.0788 -0.2660  0.6843
  170MOL0     H22916   6.467   5.692   7.143  0.2391  1.6273 -0.2926
  170MOL0     H22917   6.551   5.777   7.255 -0.0976  0.5209 -3.5076
  170MOL0     H22918   6.723   5.594   7.273 -1.1111  1.6585  0.7305
  170MOL0     H22919   6.619   5.486   7.176 -0.8570  0.1374 -3.5047
  170MOL0     H22920   6.814   5.630   7.061  0.1090 -0.9938 -2.0821
  170MOL0     H22921   6.705   5.769   7.090 -0.3650  0.2328 -0.0786
  170MOL0     H22922   6.548   5.651   6.926 -1.0254 -0.0270 -0.0287
  170MOL0     H22923   6.645   5.505   6.954  1.2492  0.7606  3.2640
  170MOL0     H22924   6.833   5.620   6.822  0.1111 -0.2951 -1.1922
  170MOL0     H22925   6.681   5.603   6.725  0.1412  1.7711 -1.2902
  170MOL0     H22926   6.785   5.843   6.853  0.8189 -0.2399 -0.2491
  170MOL0     H22927   6.618   5.841   6.810  0.5876  1.2016 -1.3910
  170MOL0     H22928   6.812   5.806   6.579 -1.3038 -0.8584 -0.9673
  170MOL0     H22929   6.640   5.853   6.584 -0.7932  0.2494 -0.5324
  170MOL0     H22930   6.329   5.727   7.572 -0.2720  3.8175  0.3688
  170MOL0     H22931   6.325   5.806   7.816 -0.1702  1.1895  0.3760
  170MOL0     H22932   6.468   5.758   8.212 -1.6011 -1.2845  1.7095
  170MOL0     H22933   6.409   5.837   8.435 -1.9252 -0.0146 -1.2201
  170MOL0     H22934   7.017   5.123   7.928 -1.0484  1.9898 -1.6552
  170MOL0     H22935   7.202   4.999   7.846 -0.9213  0.5997  0.8687
  170MOL0     H22936   7.363   4.657   7.335  0.3872 -5.2607 -0.0472
  170MOL0     H22937   7.571   4.545   7.288  1.5347  0.3857 -0.8888
  170MOL0     H22938   7.909   4.610   7.609  1.2884  0.8877  0.7397
  170MOL0     H22939   7.938   4.727   7.482  0.9257 -0.9245 -0.9645
  170MOL0     H22940   8.117   4.580   7.504 -0.2046  0.4806  0.4167
  170MOL0     H22941   8.057   4.589   7.351  1.8596  1.5144  0.9427
  170MOL0     H22942   7.919   4.355   7.418 -1.5196  0.1015  2.1152
  170MOL0     H22943   8.001   4.366   7.569  0.0099  0.2373  0.4122
  170MOL0     H22944   8.221   4.350   7.476 -0.5274  0.7626  2.3283
  170MOL0     H22945   8.113   4.214   7.452  1.7302  1.3228  2.2771
  170MOL0     H22946   8.162   4.438   7.075 -0.4027  1.4576  0.1689
  170MOL0     H22947   7.742   4.730   7.649  0.6290  2.0948 -0.4633
  170MOL0     H22948   7.462   4.886   7.776  1.0374 -0.2737 -0.2772
  170MOL0     H22949   7.636   4.905   7.762  0.5648  2.4170 -3.1096
  170MOL0     H22950   7.525   4.991   7.657 -1.8298  0.8299  0.3832
  171MOL0     O22951   7.873   0.074  10.295 -0.8141 -0.0888 -0.3101
  171MOL0     C22952   7.813   0.161  10.362 -0.6341 -0.4575  0.3489
  171MOL0     O22953   7.844   0.296  10.362  0.3431 -0.1441  0.2161
  171MOL0     C22954   7.922   0.343  10.262 -0.3650 -0.7887 -0.5166
  171MOL0     C22955   8.059   0.313  10.234  0.1075  0.2152 -1.1940
  171MOL0     C22956   8.138   0.378  10.136 -0.5423 -0.1785  0.7078
  171MOL0     C22957   8.076   0.469  10.051  0.4650 -0.5228  0.5622
  171MOL0     O22958   8.135   0.523   9.941 -0.4878 -0.8617 -0.6030
  171MOL0     C22959   8.275   0.542   9.942 -0.0824 -0.0668  0.2317
  171MOL0     C22960   8.292   0.689   9.900 -0.0463  0.6693 -0.7826
  171MOL0     C22961   8.442   0.717   9.929  1.0124 -0.9059 -0.0521
  171MOL0     C22962   8.464   0.873   9.902 -0.2800 -0.2667  0.6523
  171MOL0     C22963   8.614   0.913   9.899 -0.2279  0.0785  0.0639
  171MOL0     C22964   8.605   1.058   9.851 -0.1981  0.9303 -0.5017
  171MOL0     C22965   8.738   1.124   9.807  0.8685 -0.1094 -0.4554
  171MOL0     C22966   8.698   1.265   9.771  0.4771  0.1943 -0.5933
  171MOL0     N22967   8.818   1.352   9.750  0.9143  0.0744  0.1977
  171MOL0     C22968   8.931   1.306   9.695 -1.7704 -0.5761 -0.0440
  171MOL0     C22969   9.016   1.411   9.710  0.2423 -0.2464  0.6386
  171MOL0     C22970   9.162   1.416   9.676 -0.2615  0.2265 -0.2028
  171MOL0     C22971   9.259   1.403   9.793  0.0555 -0.2301 -0.5435
  171MOL0     C22972   9.406   1.430   9.757 -0.2915  0.2857  0.8321
  171MOL0     C22973   9.417   1.569   9.690 -1.1228  0.0887  0.2412
  171MOL0     O22974   9.359   1.669   9.775  0.3424 -0.4999  0.3227
  171MOL0     C22975   9.348   1.799   9.717 -0.7234  0.0842  0.1000
  171MOL0     C22976   9.419   1.844   9.607  0.3371 -0.6479  0.2506
  171MOL0     C22977   9.403   1.976   9.571  0.1757  1.3731 -1.3878
  171MOL0     C22978   9.310   2.064   9.638  0.6929 -0.4429  0.3615
  171MOL0     C22979   9.302   2.208   9.613 -0.0851  0.2661  0.4470
  171MOL0     O22980   9.258   2.286   9.717  0.3836  0.0046  0.2304
  171MOL0     C22981   9.273   2.418   9.718 -0.3027 -0.2562 -0.2316
  171MOL0     C22982   9.242   2.508   9.614  0.0538  0.3384  0.1284
  171MOL0     C22983   9.249   2.646   9.642  0.5957 -0.4598  0.6075
  171MOL0     C22984   9.275   2.685   9.771 -0.3203  0.5674  0.4705
  171MOL0     O22985   9.277   2.815   9.810  0.3158  0.5695  0.0379
  171MOL0     C22986   9.219   2.910   9.726  0.3295 -0.9595  1.3378
  171MOL0     C22987   9.217   3.039   9.789  0.0018 -0.2741  0.2400
  171MOL0     C22988   9.141   3.038   9.927 -0.1649  1.1167  0.4411
  171MOL0     C22989   9.136   3.180   9.978 -1.4790 -0.1127 -0.9563
  171MOL0     C22990   9.036   3.285   9.905 -0.1601 -0.2248  0.2185
  171MOL0     C22991   9.062   3.428   9.956 -0.4705 -0.5209 -0.1403
  171MOL0     C22992   9.203   3.489   9.925 -0.5299 -1.1309 -0.6687
  171MOL0     C22993   9.207   3.638   9.983 -0.6101 -0.0278 -0.1913
  171MOL0    Cl22994   9.075   3.727   9.896 -0.5662 -0.4085  0.0282
  171MOL0     C22995   9.291   2.594   9.873  0.7376 -0.1386  0.8248
  171MOL0     C22996   9.301   2.468   9.846  0.3740 -0.0738  0.2687
  171MOL0     O22997   9.348   2.248   9.510 -0.3233  0.5817  0.1775
  171MOL0     C22998   9.227   2.011   9.733 -0.9906  0.7311  0.7805
  171MOL0     C22999   9.252   1.881   9.776  0.4366 -0.8364 -1.0379
  171MOL0     N23000   8.956   1.501   9.801 -1.0261 -0.3767  0.1993
  171MOL0     N23001   8.845   1.461   9.824  0.3676  0.1480 -1.3021
  171MOL0     C23002   7.937   0.504  10.077 -0.4138 -0.0835 -0.1360
  171MOL0     C23003   7.870   0.443  10.184  0.3153  0.0222  0.3396
  171MOL0     C23004   7.694   0.120  10.442  0.3335  0.1591 -0.1571
  171MOL0     C23005   7.671   0.186  10.563 -0.0114  0.6423 -0.4714
  171MOL0     C23006   7.565   0.157  10.648  0.4236  0.1432  1.2202
  171MOL0     C23007   7.463   0.073  10.603 -0.3296  0.1380 -0.5584
  171MOL0     O23008   7.356   0.036  10.681 -0.1112 -0.0260  0.1064
  171MOL0     C23009   7.330   0.087  10.807  0.2752  0.0677  0.5423
  171MOL0     C23010   7.242  -0.004  10.893  0.0103  0.2708 -0.3031
  171MOL0     C23011   7.106  -0.007  10.822  0.0696  0.2293 -0.2118
  171MOL0     C23012   6.996  -0.056  10.922 -0.0161 -0.2271  0.4152
  171MOL0     C23013   6.873  -0.054  10.844 -0.1076  0.8290  0.7635
  171MOL0     C23014   6.778  -0.034  10.777  0.3485  0.0474  0.0288
  171MOL0     C23015   7.478  -0.000  10.487 -0.5657 -0.1212  0.2945
  171MOL0     C23016   7.593   0.039  10.405 -0.0898  0.6640 -0.0933
  171MOL0     C23017   7.610  -0.052  10.285 -0.9201 -0.4858  0.5392
  171MOL0     H23018   8.101   0.238  10.300 -1.5499  1.0180  0.8609
  171MOL0     H23019   8.243   0.351  10.136 -0.9213 -1.8904 -0.9336
  171MOL0     H23020   8.317   0.524  10.041  0.4853 -0.2463 -0.0341
  171MOL0     H23021   8.323   0.469   9.875 -0.8420 -1.1894  0.8936
  171MOL0     H23022   8.224   0.752   9.959 -2.8415 -1.4392 -1.5422
  171MOL0     H23023   8.275   0.702   9.793  1.4937 -0.1519 -1.1598
  171MOL0     H23024   8.516   0.667   9.866  1.7497  2.0621 -1.7545
  171MOL0     H23025   8.461   0.691  10.033  1.3044  1.9729  0.6976
  171MOL0     H23026   8.431   0.896   9.800  0.9120  0.8932  0.5024
  171MOL0     H23027   8.403   0.922   9.978  1.2914  0.6971  1.3450
  171MOL0     H23028   8.661   0.900   9.997 -0.1662  1.2790  0.2026
  171MOL0     H23029   8.653   0.850   9.819 -2.4810 -1.6411  0.1982
  171MOL0     H23030   8.540   1.059   9.763 -0.7907  2.9356 -0.0872
  171MOL0     H23031   8.569   1.120   9.934 -1.3663 -1.2108  0.6879
  171MOL0     H23032   8.780   1.071   9.721  2.3650 -1.8826  1.2827
  171MOL0     H23033   8.811   1.119   9.888 -0.2260 -1.1468  0.5078
  171MOL0     H23034   8.644   1.262   9.675 -0.6303  0.5893 -0.0030
  171MOL0     H23035   8.630   1.318   9.838 -1.6117  0.4556 -2.7601
  171MOL0     H23036   8.963   1.213   9.648  3.4678  0.0505  1.6022
  171MOL0     H23037   9.196   1.343   9.603  0.1404 -0.7408  0.9160
  171MOL0     H23038   9.174   1.515   9.632  2.2993 -0.5296 -1.3508
  171MOL0     H23039   9.213   1.467   9.869 -1.4681 -1.4172 -0.4013
  171MOL0     H23040   9.243   1.299   9.825 -1.7069 -0.4191 -1.8739
  171MOL0     H23041   9.439   1.349   9.691 -0.0585  0.9215  0.1435
  171MOL0     H23042   9.469   1.415   9.845 -0.4064 -0.0477  0.8594
  171MOL0     H23043   9.373   1.575   9.590  3.1769  2.0857 -1.7924
  171MOL0     H23044   9.523   1.589   9.676 -0.8925 -0.6161  0.8953
  171MOL0     H23045   9.485   1.777   9.551 -2.2437 -3.0211 -0.1541
  171MOL0     H23046   9.472   2.017   9.498  2.4508 -0.2754 -0.2650
  171MOL0     H23047   9.225   2.471   9.514 -0.4404 -0.2232  0.4101
  171MOL0     H23048   9.209   2.715   9.569  4.3678 -0.5082 -1.7537
  171MOL0     H23049   9.272   2.923   9.630  1.8125  3.4271  2.5029
  171MOL0     H23050   9.118   2.886   9.691  1.4476 -1.2355 -2.2021
  171MOL0     H23051   9.320   3.073   9.803 -1.2759  2.4864  5.5484
  171MOL0     H23052   9.170   3.109   9.719 -3.2203 -2.6286 -0.2008
  171MOL0     H23053   9.047   2.984   9.923  0.6329 -0.2733 -0.0666
  171MOL0     H23054   9.189   2.974  10.002 -0.6719 -0.1664 -0.3239
  171MOL0     H23055   9.239   3.216   9.983 -1.9211  1.1901 -0.9050
  171MOL0     H23056   9.094   3.177  10.079 -2.3665  1.6906 -1.2400
  171MOL0     H23057   8.932   3.265   9.929  0.3069  0.8708  3.6801
  171MOL0     H23058   9.055   3.278   9.797  2.6837 -0.1718  0.6220
  171MOL0     H23059   9.000   3.507   9.913  3.6272  2.4344 -1.2316
  171MOL0     H23060   9.050   3.430  10.065  0.3285  2.2386 -0.0334
  171MOL0     H23061   9.227   3.493   9.818  3.2504 -2.5116 -0.0561
  171MOL0     H23062   9.292   3.444   9.971  0.0556  0.0092 -0.6483
  171MOL0     H23063   9.179   3.656  10.087  2.3865  1.6597  0.4147
  171MOL0     H23064   9.303   3.687   9.968 -0.2452  2.0836  6.0758
  171MOL0     H23065   9.318   2.628   9.973 -3.7136 -1.0890  2.5764
  171MOL0     H23066   9.319   2.389   9.917 -0.6737 -1.3145 -0.7982
  171MOL0     H23067   9.155   2.065   9.794 -2.5160  0.8846 -1.0811
  171MOL0     H23068   9.190   1.833   9.851  0.5176 -1.5124 -1.3998
  171MOL0     H23069   7.885   0.587  10.030 -3.4591 -0.5303  2.0907
  171MOL0     H23070   7.764   0.465  10.199 -0.5055 -2.0869 -1.7841
  171MOL0     H23071   7.740   0.260  10.604 -3.2704  2.5359  2.2004
  171MOL0     H23072   7.542   0.212  10.740 -1.7869  1.9103 -0.2605
  171MOL0     H23073   7.286   0.188  10.806  0.9783  0.3935 -1.5278
  171MOL0     H23074   7.420   0.092  10.869  0.2981 -1.9968  0.7511
  171MOL0     H23075   7.242   0.041  10.993 -1.4258 -0.7328  0.1745
  171MOL0     H23076   7.289  -0.103  10.900  2.9822  1.2320 -3.6422
  171MOL0     H23077   7.107  -0.077  10.738 -2.4450 -0.0064 -0.1366
  171MOL0     H23078   7.084   0.094  10.784  0.7357 -0.4391 -2.5044
  171MOL0     H23079   7.028  -0.151  10.966  3.6428  0.8456  0.3502
  171MOL0     H23080   7.000   0.011  11.008  3.7549 -0.1452  0.3226
  171MOL0     H23081   6.679  -0.006  10.744 -0.4617  0.8291  2.8564
  171MOL0     H23082   7.398  -0.064  10.453 -1.3427 -0.0054  1.8196
  171MOL0     H23083   7.694  -0.115  10.313 -1.1935 -0.6945  0.8920
  171MOL0     H23084   7.524  -0.114  10.258  0.1544 -4.1582  4.5270
  171MOL0     H23085   7.648   0.021  10.213 -1.7600  2.9422  3.3013
  172MOL0     O23086   9.852   0.533   8.410 -0.3778  0.4118  0.4668
  172MOL0     C23087   9.817   0.482   8.310  0.3444 -0.2389  0.4707
  172MOL0     O23088   9.874   0.507   8.186  0.2722 -0.2410  0.2305
  172MOL0     C23089   9.986   0.574   8.167 -0.2708 -0.7856  0.8759
  172MOL0     C23090  10.050   0.684   8.238 -0.5065  0.5112  0.3790
  172MOL0     C23091  10.174   0.739   8.199 -0.3819  1.5885 -0.1616
  172MOL0     C23092  10.235   0.686   8.086 -0.0607 -0.5080 -0.5503
  172MOL0     O23093  10.354   0.725   8.033  0.0073  0.2385  0.2185
  172MOL0     C23094  10.428   0.831   8.092 -0.1595 -0.2444  0.3251
  172MOL0     C23095  10.571   0.841   8.034  0.5551  0.0615  0.0929
  172MOL0     C23096  10.654   0.719   8.074  0.1483  0.2184  0.3254
  172MOL0     C23097  10.800   0.759   8.116  0.1533 -0.2344 -0.7783
  172MOL0     C23098  10.884   0.636   8.149  0.7928 -0.0299  0.2265
  172MOL0     C23099  10.891   0.587   8.289 -0.2028  0.6164  0.7949
  172MOL0     C23100  10.929   0.682   8.410  0.3319  0.1644  0.1493
  172MOL0     C23101  10.941   0.604   8.539 -0.0980 -0.0041  0.2184
  172MOL0     N23102  11.073   0.539   8.548 -0.0365  0.0876 -0.6989
  172MOL0     C23103  11.191   0.617   8.557 -0.2665 -0.1412  0.2456
  172MOL0     C23104  11.288   0.533   8.518 -0.0024 -0.5031 -0.3263
  172MOL0     C23105  11.431   0.577   8.500  0.0196  0.0097  0.1940
  172MOL0     C23106  11.450   0.719   8.444 -0.0128  0.5026  0.0563
  172MOL0     C23107  11.418   0.746   8.294 -0.4925  0.8037  0.8624
  172MOL0     C23108  11.418   0.896   8.253  0.1529 -0.5760 -1.1358
  172MOL0     O23109  11.548   0.946   8.287  0.1737  0.9685  0.3024
  172MOL0     C23110  11.553   1.081   8.249  0.1626 -0.1834 -0.4006
  172MOL0     C23111  11.539   1.175   8.346 -0.3833 -0.9091 -0.5885
  172MOL0     C23112  11.548   1.306   8.317 -0.5465 -0.0867  0.3431
  172MOL0     C23113  11.572   1.346   8.190  0.0721 -0.8846  0.0781
  172MOL0     C23114  11.577   1.494   8.159 -0.2710 -0.7199  0.2019
  172MOL0     O23115  11.537   1.571   8.261  0.5232 -0.3464  0.2518
  172MOL0     C23116  11.521   1.708   8.239  0.5050 -0.4512  0.4259
  172MOL0     C23117  11.445   1.775   8.141 -0.6975 -0.2507  0.0387
  172MOL0     C23118  11.431   1.916   8.129 -1.0196 -0.0879 -0.4632
  172MOL0     C23119  11.499   2.001   8.227 -0.1666  0.3954  0.5705
  172MOL0     O23120  11.497   2.136   8.206 -0.1002  0.0854  0.7014
  172MOL0     C23121  11.478   2.230   8.314  0.5414  0.9105 -1.2397
  172MOL0     C23122  11.361   2.332   8.295 -0.4477 -0.1949 -0.2902
  172MOL0     C23123  11.222   2.271   8.301  0.1568  0.2569 -0.3694
  172MOL0     C23124  11.111   2.375   8.266 -0.4275 -0.6118  0.2863
  172MOL0     C23125  10.974   2.316   8.267  0.0980 -0.3800  1.2261
  172MOL0     C23126  10.886   2.433   8.231  0.5274 -0.4089  0.0847
  172MOL0     C23127  10.742   2.383   8.211 -0.0980  0.0687  0.3540
  172MOL0     C23128  10.639   2.488   8.192  0.0465 -0.3328  0.5360
  172MOL0    Cl23129  10.701   2.606   8.065  0.0788  0.3155  0.1700
  172MOL0     C23130  11.564   1.928   8.335 -0.6020 -0.9530  0.6231
  172MOL0     C23131  11.570   1.794   8.337 -0.2975  0.1467  0.4582
  172MOL0     O23132  11.603   1.537   8.045  0.2656  0.2998  0.4614
  172MOL0     C23133  11.587   1.252   8.084 -0.7836  0.1278  0.1688
  172MOL0     C23134  11.579   1.118   8.115  0.0159 -0.6876  0.4066
  172MOL0     N23135  11.223   0.422   8.464 -0.0828  0.1759  0.3124
  172MOL0     N23136  11.101   0.422   8.498  0.3523  0.1635 -0.1127
  172MOL0     C23137  10.161   0.597   8.011 -0.0116 -0.2351  0.0975
  172MOL0     C23138  10.040   0.545   8.048 -0.4169 -0.2350  0.7244
  172MOL0     C23139   9.688   0.412   8.326  0.1481  0.2236 -0.0153
  172MOL0     C23140   9.608   0.390   8.212  0.4506 -0.5955 -0.6774
  172MOL0     C23141   9.491   0.318   8.217 -0.5307  0.5119  0.7635
  172MOL0     C23142   9.431   0.275   8.339 -0.0387 -1.0317 -0.0959
  172MOL0     O23143   9.306   0.220   8.332  0.3572 -0.5469  0.0898
  172MOL0     C23144   9.230   0.222   8.452 -0.7776 -0.4438 -0.3627
  172MOL0     C23145   9.082   0.205   8.433 -0.3645  0.4123 -0.1255
  172MOL0     C23146   9.009   0.196   8.564 -0.2660  1.3634 -0.7359
  172MOL0     C23147   8.857   0.242   8.547 -0.3009 -0.8397  0.3221
  172MOL0     C23148   8.787   0.244   8.679  0.7861 -0.4987 -0.1345
  172MOL0     C23149   8.752   0.250   8.796  0.3638 -0.2954  0.0262
  172MOL0     C23150   9.512   0.284   8.454 -0.6337  0.0911  1.0230
  172MOL0     C23151   9.633   0.362   8.454  0.2946 -0.2490  0.2302
  172MOL0     C23152   9.699   0.375   8.592  0.3518 -0.9023 -0.3707
  172MOL0     H23153  10.019   0.732   8.330  1.2068  0.8221  0.8352
  172MOL0     H23154  10.213   0.806   8.275  2.9194  0.4823 -0.6989
  172MOL0     H23155  10.381   0.927   8.067  0.4893  0.0959  0.3810
  172MOL0     H23156  10.447   0.818   8.199  2.7100  1.4085  0.1312
  172MOL0     H23157  10.618   0.930   8.077 -1.9551  1.9824 -0.9036
  172MOL0     H23158  10.554   0.839   7.925 -2.5090 -2.3863  0.4813
  172MOL0     H23159  10.650   0.642   7.997 -0.7915  0.6781 -0.1116
  172MOL0     H23160  10.610   0.675   8.164 -2.0938  0.0014 -0.8024
  172MOL0     H23161  10.842   0.818   8.034  1.0725 -0.0857 -0.2166
  172MOL0     H23162  10.802   0.823   8.205 -0.6422  0.9955 -1.6115
  172MOL0     H23163  10.845   0.552   8.091  4.7384 -3.3406  1.8738
  172MOL0     H23164  10.986   0.654   8.115 -0.3997 -0.8688 -4.5459
  172MOL0     H23165  10.791   0.553   8.316 -0.8994  1.9021 -0.0531
  172MOL0     H23166  10.960   0.502   8.291 -0.1885  0.6340  2.4265
  172MOL0     H23167  10.854   0.760   8.427  2.1747  1.3877  3.7893
  172MOL0     H23168  11.022   0.737   8.394 -0.2806  1.5397  1.0983
  172MOL0     H23169  10.951   0.671   8.625 -0.0326 -1.4439  1.3621
  172MOL0     H23170  10.850   0.548   8.560 -2.0368  2.9668  0.3085
  172MOL0     H23171  11.208   0.719   8.590 -0.2908 -0.3332  0.8571
  172MOL0     H23172  11.481   0.576   8.598 -0.1117  0.5101  0.2664
  172MOL0     H23173  11.480   0.501   8.438  1.4634 -2.4923  3.9480
  172MOL0     H23174  11.399   0.797   8.500  0.5720  0.4647  0.6536
  172MOL0     H23175  11.552   0.752   8.465 -0.3772  0.6722  1.6847
  172MOL0     H23176  11.327   0.692   8.266 -0.4323  0.6518  0.9513
  172MOL0     H23177  11.498   0.697   8.238 -1.4973  0.0003  0.0906
  172MOL0     H23178  11.337   0.940   8.312 -2.6775 -1.7161 -3.9203
  172MOL0     H23179  11.390   0.904   8.147 -2.0948 -0.6796 -0.6041
  172MOL0     H23180  11.540   1.152   8.452 -1.0189 -0.0812 -0.3919
  172MOL0     H23181  11.538   1.374   8.401 -0.5625 -0.4160  0.6105
  172MOL0     H23182  11.392   1.733   8.056 -0.5748 -0.9857  0.3246
  172MOL0     H23183  11.377   1.954   8.043  0.7883 -0.0408 -1.6441
  172MOL0     H23184  11.456   2.184   8.411  0.9356  3.2707  0.0443
  172MOL0     H23185  11.566   2.295   8.322  1.1106  0.5106 -3.4894
  172MOL0     H23186  11.359   2.411   8.371 -0.2973 -1.9953  1.6773
  172MOL0     H23187  11.384   2.378   8.198  1.5292 -0.9921 -0.2399
  172MOL0     H23188  11.224   2.189   8.229  2.1100  0.0615 -0.1336
  172MOL0     H23189  11.195   2.224   8.396  2.5915 -0.0130  0.2386
  172MOL0     H23190  11.124   2.411   8.164 -0.4286 -2.5094 -0.4195
  172MOL0     H23191  11.122   2.465   8.327  4.3177  1.4680 -3.0447
  172MOL0     H23192  10.957   2.272   8.366 -0.2720 -4.0071 -0.3175
  172MOL0     H23193  10.972   2.237   8.192  2.0205  0.6816 -0.0346
  172MOL0     H23194  10.884   2.506   8.313 -0.1350  0.6017 -0.8074
  172MOL0     H23195  10.921   2.481   8.139  0.7114 -1.8775 -0.6322
  172MOL0     H23196  10.704   2.328   8.297  1.3906 -0.8359  0.4775
  172MOL0     H23197  10.731   2.321   8.121  4.0173 -1.2628  0.5333
  172MOL0     H23198  10.549   2.430   8.169  1.4857 -2.4910  0.0097
  172MOL0     H23199  10.617   2.541   8.285 -1.0337 -0.6463  0.4749
  172MOL0     H23200  11.615   1.997   8.402  0.3082 -0.6172 -0.3923
  172MOL0     H23201  11.633   1.767   8.421 -1.5556 -1.2732  0.9723
  172MOL0     H23202  11.601   1.271   7.978 -1.9748 -1.0005 -0.2230
  172MOL0     H23203  11.605   1.052   8.033  0.9649 -1.0889  1.0132
  172MOL0     H23204  10.205   0.576   7.914 -1.8487  0.8782 -1.0243
  172MOL0     H23205  10.005   0.470   7.977  1.0978  0.8630 -1.2576
  172MOL0     H23206   9.649   0.429   8.119 -0.0970 -3.8901 -2.4459
  172MOL0     H23207   9.438   0.312   8.123 -1.8873  1.6993  1.4093
  172MOL0     H23208   9.239   0.319   8.502 -2.7506 -0.0665 -0.6452
  172MOL0     H23209   9.266   0.142   8.517  1.2002  0.0510 -0.7773
  172MOL0     H23210   9.069   0.105   8.389 -1.5904  0.5870 -0.2155
  172MOL0     H23211   9.047   0.277   8.359 -1.8791  1.6035  1.6686
  172MOL0     H23212   9.052   0.247   8.651 -0.4124 -2.3742  1.7653
  172MOL0     H23213   9.017   0.090   8.588 -0.8115  1.5424  0.3149
  172MOL0     H23214   8.853   0.347   8.518 -1.9045 -1.3708 -1.5946
  172MOL0     H23215   8.811   0.176   8.474  0.2686 -1.4314  0.4892
  172MOL0     H23216   8.718   0.260   8.897  0.3836 -1.7381  0.2064
  172MOL0     H23217   9.474   0.257   8.552 -0.2522 -0.5408  0.9999
  172MOL0     H23218   9.650   0.468   8.623  1.9469 -0.4403  0.9132
  172MOL0     H23219   9.659   0.301   8.662 -0.5313  2.9925  3.7082
  172MOL0     H23220   9.807   0.378   8.607  0.3158  0.0455 -0.2633
  173MOL0     O23221   7.964   6.563   8.371  0.2362  0.6869 -0.7055
  173MOL0     C23222   8.054   6.610   8.301 -0.8916  0.0838  0.4068
  173MOL0     O23223   8.157   6.535   8.250 -0.4972  0.1816 -0.2036
  173MOL0     C23224   8.135   6.402   8.237  0.4115  0.6547 -0.4054
  173MOL0     C23225   8.244   6.312   8.278  0.1413  0.0563 -0.1747
  173MOL0     C23226   8.219   6.178   8.256 -1.1074  0.0819 -0.3785
  173MOL0     C23227   8.099   6.129   8.212  0.5189 -0.0756  0.0635
  173MOL0     O23228   8.077   5.991   8.193  0.1004  0.8660  0.4469
  173MOL0     C23229   8.189   5.902   8.169  0.4858 -0.3257  0.4238
  173MOL0     C23230   8.257   5.918   8.036 -1.0953  0.6180 -0.5950
  173MOL0     C23231   8.166   5.924   7.918  0.4524  0.4497  0.8328
  173MOL0     C23232   8.236   5.908   7.782  0.4142 -0.2988  0.0375
  173MOL0     C23233   8.324   5.778   7.767  0.1848  0.4866  0.0709
  173MOL0     C23234   8.397   5.780   7.633  0.5711  0.6447 -0.0684
  173MOL0     C23235   8.324   5.841   7.519 -0.5037 -1.5521  0.5635
  173MOL0     C23236   8.378   5.797   7.385 -0.4046  0.3113 -0.5159
  173MOL0     N23237   8.335   5.889   7.284  0.1143 -0.7563 -0.1457
  173MOL0     C23238   8.203   5.902   7.252 -0.2952 -0.6483  1.0442
  173MOL0     C23239   8.210   5.975   7.138  0.6700  0.1668 -0.2804
  173MOL0     C23240   8.098   6.014   7.034 -0.1213 -0.1401 -0.2675
  173MOL0     C23241   8.049   6.151   7.053  0.5007 -0.4547 -0.5321
  173MOL0     C23242   8.150   6.271   7.033  0.5391 -0.1286  0.6314
  173MOL0     C23243   8.227   6.265   6.903  0.6061  0.9277  0.1544
  173MOL0     O23244   8.132   6.284   6.799 -0.2276 -0.2696  0.7957
  173MOL0     C23245   8.178   6.307   6.674  0.0625  0.4173 -0.2603
  173MOL0     C23246   8.311   6.270   6.634 -0.2268 -0.4518 -0.6153
  173MOL0     C23247   8.358   6.308   6.509 -0.9807 -0.5048  0.2540
  173MOL0     C23248   8.263   6.362   6.420  0.3211  0.1138 -0.6308
  173MOL0     C23249   8.313   6.388   6.279 -0.2180  0.3008  0.0248
  173MOL0     O23250   8.434   6.343   6.235 -0.5663 -0.4661 -0.1944
  173MOL0     C23251   8.470   6.295   6.108 -1.0006  0.9247  0.6619
  173MOL0     C23252   8.594   6.232   6.089 -0.3725  0.0288  0.9133
  173MOL0     C23253   8.634   6.167   5.964  0.3816 -0.0676  0.1496
  173MOL0     C23254   8.538   6.167   5.867  0.3345 -0.3965 -0.9459
  173MOL0     O23255   8.544   6.090   5.757  0.1631  0.2854  0.3474
  173MOL0     C23256   8.668   6.056   5.706 -0.5220  0.5136  0.3397
  173MOL0     C23257   8.652   6.077   5.553  0.0389  0.1322 -0.5725
  173MOL0     C23258   8.609   5.944   5.479  0.5421  0.0693  0.2807
  173MOL0     C23259   8.664   5.919   5.338 -0.3306  0.6457  0.6709
  173MOL0     C23260   8.612   5.790   5.267  0.2099  0.3548 -0.2548
  173MOL0     C23261   8.681   5.763   5.128  0.0085 -0.2536 -0.5809
  173MOL0     C23262   8.664   5.627   5.062 -0.6312 -0.4223  0.3212
  173MOL0     C23263   8.650   5.613   4.919 -0.2537  0.5610  0.3141
  173MOL0    Cl23264   8.479   5.639   4.879  0.4753 -0.2364 -0.1419
  173MOL0     C23265   8.418   6.229   5.888  0.8723 -0.5280 -0.5741
  173MOL0     C23266   8.378   6.289   6.005 -0.4355  0.0604  0.5317
  173MOL0     O23267   8.227   6.446   6.204 -0.5257  0.4270 -0.1515
  173MOL0     C23268   8.124   6.380   6.455 -0.3368  0.7857 -0.2508
  173MOL0     C23269   8.089   6.360   6.584  0.0106  0.2952  0.0364
  173MOL0     N23270   8.336   6.015   7.112  0.2949  0.5732  0.2212
  173MOL0     N23271   8.406   5.960   7.195  0.5855 -0.1525  0.5071
  173MOL0     C23272   7.990   6.216   8.184  0.1711 -0.9346  0.1972
  173MOL0     C23273   8.012   6.357   8.189  0.4582  0.2178 -0.1568
  173MOL0     C23274   8.059   6.764   8.284 -0.7325  0.1587  0.2031
  173MOL0     C23275   8.180   6.816   8.217 -0.1471  0.7015 -0.9491
  173MOL0     C23276   8.186   6.951   8.189  0.1118  0.5868  0.5590
  173MOL0     C23277   8.088   7.044   8.222  0.2985 -0.1198 -0.1495
  173MOL0     O23278   8.095   7.178   8.197  0.1301  0.6753  0.5729
  173MOL0     C23279   8.214   7.226   8.144  0.0992 -0.3077 -0.2044
  173MOL0     C23280   8.228   7.371   8.182  0.2677 -0.0055  0.8966
  173MOL0     C23281   8.292   7.446   8.064 -0.0933 -0.3043  1.4362
  173MOL0     C23282   8.255   7.596   8.070  0.9893 -0.2579  0.2849
  173MOL0     C23283   8.352   7.658   7.985 -0.1187  0.3238  1.2009
  173MOL0     C23284   8.435   7.708   7.914  0.2311 -0.8724  1.0258
  173MOL0     C23285   7.968   6.992   8.283  0.0225 -0.9829  0.6688
  173MOL0     C23286   7.953   6.861   8.314  0.4835  0.2375 -0.1906
  173MOL0     C23287   7.833   6.815   8.393  0.2847  0.4642  0.3676
  173MOL0     H23288   8.331   6.357   8.324 -1.4577  0.3122  2.8548
  173MOL0     H23289   8.298   6.107   8.279 -0.8923  0.8253  1.3253
  173MOL0     H23290   8.267   5.903   8.245  3.6888 -2.8904 -2.5008
  173MOL0     H23291   8.133   5.808   8.172  0.0005 -0.0392  3.9108
  173MOL0     H23292   8.307   5.822   8.023 -0.9705  0.9055 -2.4570
  173MOL0     H23293   8.326   6.003   8.035  2.8352 -2.2852 -0.0842
  173MOL0     H23294   8.122   6.024   7.918 -0.9248 -0.1388  1.0992
  173MOL0     H23295   8.089   5.848   7.934  0.6705  0.0459  0.0568
  173MOL0     H23296   8.140   5.902   7.730 -1.6746  1.0542  3.4355
  173MOL0     H23297   8.294   5.994   7.747  4.7149 -3.1936 -0.7875
  173MOL0     H23298   8.403   5.776   7.842 -0.3028  2.4238  0.7063
  173MOL0     H23299   8.264   5.687   7.775 -0.7123  0.9777 -0.7483
  173MOL0     H23300   8.491   5.832   7.657  1.5865 -1.3783  0.5007
  173MOL0     H23301   8.403   5.675   7.605 -0.3050  0.5557  0.0667
  173MOL0     H23302   8.328   5.949   7.532 -4.6419 -0.6505 -3.1566
  173MOL0     H23303   8.217   5.822   7.533 -1.6998  3.0519 -0.8841
  173MOL0     H23304   8.487   5.787   7.385 -0.1235  2.8159 -1.6653
  173MOL0     H23305   8.334   5.699   7.364  0.2857 -0.8455  2.7890
  173MOL0     H23306   8.111   5.853   7.281 -2.0611 -0.8605 -4.0030
  173MOL0     H23307   8.132   6.006   6.931  0.0371 -0.4853 -0.1899
  173MOL0     H23308   8.013   5.947   7.049 -0.9918  1.1915  1.1587
  173MOL0     H23309   7.967   6.157   6.981  1.0716 -2.3518 -1.4255
  173MOL0     H23310   8.012   6.152   7.156 -0.2712  3.7439 -0.7040
  173MOL0     H23311   8.218   6.258   7.117 -1.3065 -1.1452  2.0594
  173MOL0     H23312   8.098   6.367   7.031 -0.4516 -0.6524 -2.1194
  173MOL0     H23313   8.269   6.165   6.889  2.4470  1.5354  0.9888
  173MOL0     H23314   8.300   6.346   6.890  0.4416  0.7566 -2.4010
  173MOL0     H23315   8.380   6.249   6.715 -0.0558  3.3497  0.4428
  173MOL0     H23316   8.461   6.304   6.477 -1.5249  4.1385 -3.3159
  173MOL0     H23317   8.672   6.241   6.164  2.4365 -3.5980 -1.1954
  173MOL0     H23318   8.729   6.115   5.966 -0.7120 -2.1781  1.5738
  173MOL0     H23319   8.750   6.118   5.742 -1.3084  0.9759  1.3594
  173MOL0     H23320   8.678   5.958   5.754 -4.2077  0.4446  1.2275
  173MOL0     H23321   8.588   6.165   5.550 -2.1610 -1.3359  0.8173
  173MOL0     H23322   8.746   6.109   5.505  0.7382 -2.2027 -0.8945
  173MOL0     H23323   8.637   5.858   5.541 -3.2579 -0.4969  1.5073
  173MOL0     H23324   8.500   5.939   5.478  0.5031 -0.2908 -3.0320
  173MOL0     H23325   8.773   5.913   5.344 -0.2546  2.1354  1.1389
  173MOL0     H23326   8.642   6.006   5.276 -1.6033 -2.5399 -3.9615
  173MOL0     H23327   8.503   5.793   5.276  0.2473  3.3317  0.1850
  173MOL0     H23328   8.641   5.704   5.327  2.3343  0.2900 -1.2871
  173MOL0     H23329   8.659   5.839   5.053 -1.8324 -0.4996 -0.3425
  173MOL0     H23330   8.787   5.775   5.151 -0.5170 -1.0983  2.9646
  173MOL0     H23331   8.577   5.579   5.108 -0.2863  0.3482  1.8281
  173MOL0     H23332   8.756   5.575   5.089  0.0044 -1.3731 -3.1367
  173MOL0     H23333   8.708   5.693   4.873  1.1296 -0.7673 -0.3324
  173MOL0     H23334   8.689   5.519   4.880 -1.5258  0.7555 -1.5912
  173MOL0     H23335   8.339   6.216   5.815 -1.1145  0.9490  1.1615
  173MOL0     H23336   8.271   6.306   6.011 -0.5936  0.9334 -2.7901
  173MOL0     H23337   8.053   6.425   6.387 -1.3172  2.3313  1.6730
  173MOL0     H23338   7.986   6.382   6.611 -0.1549 -1.5324  1.0815
  173MOL0     H23339   7.900   6.162   8.159 -1.7781  2.5410 -0.8228
  173MOL0     H23340   7.932   6.427   8.166  1.2099  1.2107  0.1830
  173MOL0     H23341   8.273   6.768   8.189  1.0638  0.5703  2.7560
  173MOL0     H23342   8.272   6.971   8.127 -1.5911 -0.1975 -2.2557
  173MOL0     H23343   8.210   7.206   8.036 -2.4874  0.4282 -0.3219
  173MOL0     H23344   8.304   7.172   8.174 -1.5052 -4.1754 -1.7252
  173MOL0     H23345   8.265   7.390   8.284  2.6391 -3.0099  0.7459
  173MOL0     H23346   8.130   7.417   8.196 -0.8793 -1.9039 -0.4826
  173MOL0     H23347   8.267   7.405   7.966  3.9120  0.4171 -0.1086
  173MOL0     H23348   8.401   7.436   8.060 -0.1929 -1.1834  0.2773
  173MOL0     H23349   8.156   7.611   8.026  0.0512 -1.0371  2.0062
  173MOL0     H23350   8.251   7.638   8.172  2.8856 -3.4216  1.8107
  173MOL0     H23351   8.510   7.746   7.847  0.0918 -2.3903 -0.0290
  173MOL0     H23352   7.893   7.057   8.327  0.1777  1.6273 -2.4989
  173MOL0     H23353   7.762   6.897   8.405  1.8438  1.8289  0.6632
  173MOL0     H23354   7.774   6.734   8.347  2.1987 -1.0718  0.4746
  173MOL0     H23355   7.869   6.784   8.492 -2.1233 -1.3389  0.7768
  174MOL0     O23356   0.775   7.478   9.191 -0.9008  0.0298  0.1163
  174MOL0     C23357   0.739   7.379   9.248  0.9234  0.6916 -0.0950
  174MOL0     O23358   0.745   7.254   9.196 -0.1615  0.5046  0.5823
  174MOL0     C23359   0.760   7.222   9.064 -0.5903 -0.3905 -0.2217
  174MOL0     C23360   0.752   7.314   8.957 -0.7632 -0.4756 -0.8615
  174MOL0     C23361   0.761   7.270   8.821 -0.4855 -0.7637 -0.7749
  174MOL0     C23362   0.778   7.132   8.789  0.7503 -0.4201 -0.1965
  174MOL0     O23363   0.797   7.103   8.653 -0.0723 -0.7575 -0.7360
  174MOL0     C23364   0.796   6.963   8.624 -0.0475 -0.3913 -0.4593
  174MOL0     C23365   0.782   6.937   8.474  0.1181 -0.4186 -0.2370
  174MOL0     C23366   0.912   6.972   8.404 -0.3567 -0.1773 -0.0483
  174MOL0     C23367   0.879   6.958   8.257 -0.6719 -0.1809 -0.3874
  174MOL0     C23368   0.983   7.021   8.173  0.2131  0.7574  0.4194
  174MOL0     C23369   1.126   6.989   8.202 -0.5775  1.0091 -0.4994
  174MOL0     C23370   1.158   6.841   8.196 -0.6041 -0.2416  0.6775
  174MOL0     C23371   1.165   6.785   8.060 -0.8959  0.6330 -0.2396
  174MOL0     N23372   1.127   6.642   8.060 -0.5457 -0.3232 -0.9346
  174MOL0     C23373   0.995   6.614   8.049  0.3881  0.5489  0.0083
  174MOL0     C23374   1.002   6.479   8.061 -0.1932  0.2577 -0.1902
  174MOL0     C23375   0.870   6.395   8.060 -0.5443  0.7112 -0.0840
  174MOL0     C23376   0.807   6.396   8.201 -0.3335  0.0139  0.4487
  174MOL0     C23377   0.763   6.534   8.238  0.2021  1.3837  0.8567
  174MOL0     C23378   0.677   6.532   8.367  0.0654 -0.5670  0.6407
  174MOL0     O23379   0.753   6.505   8.486  0.5587  0.5612  0.1204
  174MOL0     C23380   0.716   6.561   8.598  0.4600  0.6320  0.1988
  174MOL0     C23381   0.802   6.614   8.684  0.3914 -0.8804  0.2096
  174MOL0     C23382   0.759   6.656   8.812  0.1662  0.5736 -0.3978
  174MOL0     C23383   0.632   6.674   8.853 -0.0261  0.4345  0.2748
  174MOL0     C23384   0.585   6.731   8.977  0.1485 -0.1156  0.0246
  174MOL0     O23385   0.455   6.693   9.019 -0.1069 -0.1018 -0.4174
  174MOL0     C23386   0.384   6.776   9.100  0.2002  0.1397 -0.4605
  174MOL0     C23387   0.286   6.720   9.187  0.3062  0.3293 -0.5390
  174MOL0     C23388   0.235   6.801   9.283  0.1667 -0.1899 -0.6161
  174MOL0     C23389   0.254   6.938   9.278 -0.6853  0.7822  0.0848
  174MOL0     O23390   0.182   7.012   9.366 -0.2851 -0.8223 -0.2275
  174MOL0     C23391   0.196   7.158   9.372  0.5230  0.5169 -1.1610
  174MOL0     C23392   0.123   7.215   9.496 -0.1014  0.2495 -0.9601
  174MOL0     C23393   0.077   7.356   9.483  0.2139  0.0066 -0.0229
  174MOL0     C23394   0.205   7.443   9.501  0.9821  0.0589  0.4802
  174MOL0     C23395   0.179   7.597   9.496  1.1138 -0.5797 -0.1581
  174MOL0     C23396   0.121   7.659   9.626  0.9449  1.1061 -1.3706
  174MOL0     C23397   0.151   7.800   9.645  0.9277 -0.5393 -0.8190
  174MOL0     C23398   0.071   7.848   9.769 -0.4112 -0.1666  0.2559
  174MOL0    Cl23399   0.143   7.783   9.922 -0.2116 -0.1370  0.2810
  174MOL0     C23400   0.330   6.998   9.177  0.2967 -0.2333  1.1762
  174MOL0     C23401   0.402   6.916   9.085  0.2328 -1.1603 -0.7798
  174MOL0     O23402   0.655   6.808   9.045  0.6349  0.1023  0.3994
  174MOL0     C23403   0.541   6.630   8.753  0.0730 -0.8224 -0.0109
  174MOL0     C23404   0.577   6.562   8.642  0.8331  0.7282  0.6171
  174MOL0     N23405   1.134   6.441   8.096 -0.2662  0.6892 -0.0639
  174MOL0     N23406   1.215   6.541   8.090 -0.2727  1.1798 -0.2885
  174MOL0     C23407   0.789   7.043   8.904 -0.0624  0.6697  0.2418
  174MOL0     C23408   0.777   7.082   9.035 -0.6166 -0.1874  0.3106
  174MOL0     C23409   0.675   7.397   9.377 -0.9531  0.5525 -0.0763
  174MOL0     C23410   0.661   7.277   9.450 -0.3548  0.3827 -0.0870
  174MOL0     C23411   0.598   7.267   9.577  0.3143 -0.3654  1.1150
  174MOL0     C23412   0.547   7.393   9.629 -0.5389  0.6001  0.2518
  174MOL0     O23413   0.485   7.409   9.755  0.5220  0.2296  0.9313
  174MOL0     C23414   0.452   7.295   9.838  0.1765  0.1846 -1.2103
  174MOL0     C23415   0.376   7.356   9.962  1.0318  0.7119 -0.1789
  174MOL0     C23416   0.289   7.254  10.037  0.2791 -0.4480 -0.3321
  174MOL0     C23417   0.394   7.180  10.124  0.7763  0.7311  0.8042
  174MOL0     C23418   0.317   7.100  10.222 -0.0429  0.0714 -0.4991
  174MOL0     C23419   0.247   7.035  10.292 -0.3306 -1.1940 -0.4373
  174MOL0     C23420   0.565   7.514   9.565 -0.3596  0.0220  1.4729
  174MOL0     C23421   0.624   7.516   9.438  0.6790  0.2251  0.6762
  174MOL0     C23422   0.628   7.643   9.360 -0.2724 -0.1399  0.1520
  174MOL0     H23423   0.717   7.416   8.965  0.0296 -0.1643 -1.2593
  174MOL0     H23424   0.758   7.345   8.743 -1.2632  1.0589  0.9487
  174MOL0     H23425   0.890   6.921   8.661 -0.0323 -2.1926 -2.3915
  174MOL0     H23426   0.710   6.920   8.675 -2.2652  2.7740 -1.2116
  174MOL0     H23427   0.696   6.988   8.429 -0.6805 -2.5413 -1.2772
  174MOL0     H23428   0.756   6.831   8.471 -2.1487  0.0790 -0.0147
  174MOL0     H23429   0.997   6.910   8.433  0.1457  0.4698 -0.1094
  174MOL0     H23430   0.932   7.074   8.437 -1.6187  0.8937 -2.3320
  174MOL0     H23431   0.872   6.851   8.234  2.4433 -0.6853  0.5950
  174MOL0     H23432   0.791   7.019   8.237 -0.8489 -0.0712  0.6690
  174MOL0     H23433   0.969   6.989   8.070 -1.6438 -2.1728  1.4529
  174MOL0     H23434   0.971   7.130   8.176 -3.7758  0.4785 -0.9612
  174MOL0     H23435   1.190   7.022   8.120  1.6380 -2.3777 -0.3091
  174MOL0     H23436   1.165   7.031   8.295  0.8546 -1.4551  0.0850
  174MOL0     H23437   1.089   6.785   8.260 -2.2635 -0.3991 -1.1513
  174MOL0     H23438   1.259   6.826   8.234 -0.1797 -1.5618 -0.8184
  174MOL0     H23439   1.105   6.843   7.989  0.6701  2.4272 -0.1885
  174MOL0     H23440   1.263   6.804   8.015 -0.9093  0.1151 -0.4991
  174MOL0     H23441   0.908   6.677   8.034  2.4606  4.0467  1.6212
  174MOL0     H23442   0.806   6.446   7.988  2.0724  1.2157 -2.2098
  174MOL0     H23443   0.890   6.292   8.029  6.7437  1.1674  1.3416
  174MOL0     H23444   0.724   6.325   8.205 -1.4530  1.1768 -1.0381
  174MOL0     H23445   0.880   6.366   8.276  2.4234 -1.7871 -2.7025
  174MOL0     H23446   0.698   6.565   8.155  1.6872  2.9879  0.2373
  174MOL0     H23447   0.842   6.607   8.259  0.1794  1.0490  2.1595
  174MOL0     H23448   0.599   6.458   8.354  1.0443 -1.8969  1.9910
  174MOL0     H23449   0.628   6.629   8.379  0.5380 -0.4643  2.0353
  174MOL0     H23450   0.907   6.613   8.655  0.4787  1.8270  0.0984
  174MOL0     H23451   0.840   6.699   8.871  1.9882  0.5333 -2.6898
  174MOL0     H23452   0.272   6.613   9.187  3.4893 -0.2257 -2.2498
  174MOL0     H23453   0.148   6.779   9.344  1.0744  1.2582  1.3045
  174MOL0     H23454   0.299   7.188   9.394 -0.5156  0.6818  5.6451
  174MOL0     H23455   0.165   7.191   9.273 -1.9094 -0.6286 -0.8526
  174MOL0     H23456   0.037   7.149   9.510  1.4543 -1.2522  2.7750
  174MOL0     H23457   0.178   7.201   9.589  0.2817  0.3780 -1.1619
  174MOL0     H23458   0.028   7.373   9.386  1.3876  1.6989 -0.3692
  174MOL0     H23459   0.002   7.387   9.555 -1.6609 -2.1787 -0.9159
  174MOL0     H23460   0.270   7.423   9.416 -0.2251 -3.7446  0.2718
  174MOL0     H23461   0.255   7.430   9.597  1.3629  1.6003  0.5245
  174MOL0     H23462   0.107   7.621   9.418  1.9354 -1.5139 -1.2337
  174MOL0     H23463   0.270   7.648   9.462 -0.2290 -0.2917 -3.7281
  174MOL0     H23464   0.014   7.645   9.644  1.0716  2.3165  0.5379
  174MOL0     H23465   0.170   7.605   9.707 -3.3043 -0.0858  0.7047
  174MOL0     H23466   0.120   7.860   9.559  3.0418  5.1451  1.8326
  174MOL0     H23467   0.257   7.825   9.660  0.3635 -0.1119  4.3700
  174MOL0     H23468   0.073   7.957   9.774 -0.7966 -0.1937  1.1676
  174MOL0     H23469  -0.033   7.814   9.768 -0.0840 -1.2783  1.5069
  174MOL0     H23470   0.360   7.101   9.169  0.8750 -0.2894  2.3052
  174MOL0     H23471   0.474   6.971   9.026  1.4365 -0.7455  0.9961
  174MOL0     H23472   0.436   6.639   8.780  0.3654 -3.4086  2.5702
  174MOL0     H23473   0.497   6.520   8.582  2.6677 -0.0133 -1.4212
  174MOL0     H23474   0.807   6.939   8.880  0.7389  0.8370  0.0860
  174MOL0     H23475   0.787   7.027   9.128 -3.8407 -1.0944  0.2357
  174MOL0     H23476   0.689   7.185   9.399  1.5180  2.4373 -3.0934
  174MOL0     H23477   0.573   7.169   9.617 -3.3503  0.3723  0.9272
  174MOL0     H23478   0.547   7.247   9.866  0.6981  1.5631 -0.5203
  174MOL0     H23479   0.381   7.222   9.797  0.0326 -0.8772  0.7647
  174MOL0     H23480   0.307   7.429   9.919  0.1622 -1.1308 -2.0925
  174MOL0     H23481   0.449   7.403  10.029  1.7251 -0.0138 -0.4121
  174MOL0     H23482   0.233   7.193   9.966  1.4214 -0.1810 -1.4925
  174MOL0     H23483   0.225   7.300  10.113 -0.1605  0.5890 -1.3062
  174MOL0     H23484   0.459   7.114  10.065  1.0342  2.5089 -0.9896
  174MOL0     H23485   0.472   7.242  10.171  3.9808 -0.8643 -1.9628
  174MOL0     H23486   0.187   6.979  10.361 -1.7774 -0.1608 -0.8070
  174MOL0     H23487   0.542   7.609   9.614  0.7111  0.7469  0.5952
  174MOL0     H23488   0.577   7.726   9.409  1.9378  1.4643 -0.0950
  174MOL0     H23489   0.734   7.669   9.347 -0.6351  2.4377  1.8163
  174MOL0     H23490   0.581   7.615   9.265 -1.1515 -3.3846  1.4097
  175MOL0     O23491   3.336   1.116   1.070 -0.8200  0.3078 -0.1497
  175MOL0     C23492   3.377   1.117   1.183 -0.7383 -0.9142 -0.1748
  175MOL0     O23493   3.456   1.029   1.246  0.1813 -0.2604  0.7439
  175MOL0     C23494   3.500   0.917   1.183 -0.4254  0.2398 -0.5318
  175MOL0     C23495   3.610   0.923   1.105  0.1189  0.1654 -0.8545
  175MOL0     C23496   3.661   0.806   1.043  0.5416 -0.6590 -0.5375
  175MOL0     C23497   3.603   0.677   1.071  0.4420 -0.0680  0.2868
  175MOL0     O23498   3.660   0.561   1.041 -0.3692  0.5282 -0.7326
  175MOL0     C23499   3.799   0.544   1.078  0.0126  0.7722  0.4595
  175MOL0     C23500   3.829   0.533   1.229 -0.4913  0.3498 -0.0570
  175MOL0     C23501   3.972   0.501   1.251 -0.3808 -0.1755  0.0754
  175MOL0     C23502   3.988   0.350   1.240 -0.5052  0.2555 -0.7693
  175MOL0     C23503   4.134   0.315   1.229  0.0413  0.1229 -0.1874
  175MOL0     C23504   4.141   0.161   1.211 -0.0799  0.6708  0.4838
  175MOL0     C23505   4.276   0.101   1.191 -1.0054 -0.1132 -0.4890
  175MOL0     C23506   4.336   0.083   1.325  0.6628  0.3859 -0.4444
  175MOL0     N23507   4.448  -0.016   1.310  0.4517 -0.2120  0.4097
  175MOL0     C23508   4.547  -0.024   1.213 -0.3367  0.0215 -0.5298
  175MOL0     C23509   4.649  -0.104   1.267  0.0767  0.1210  0.5650
  175MOL0     C23510   4.779  -0.155   1.200 -0.6481 -0.2425 -0.2171
  175MOL0     C23511   4.748  -0.283   1.124 -0.2092 -0.0262  0.2068
  175MOL0     C23512   4.849  -0.304   1.015  0.3013  0.3956 -0.0214
  175MOL0     C23513   5.002  -0.323   1.059  0.5078 -0.2940  0.3005
  175MOL0     O23514   5.065  -0.402   0.959  0.9406  0.0407 -0.5628
  175MOL0     C23515   5.199  -0.417   0.977 -0.7273  0.3122 -0.7241
  175MOL0     C23516   5.263  -0.492   0.882  0.1612 -0.0594 -0.4687
  175MOL0     C23517   5.395  -0.527   0.886 -0.1686 -0.1273  0.5876
  175MOL0     C23518   5.472  -0.479   1.001 -0.1335  0.2054 -0.5301
  175MOL0     C23519   5.621  -0.494   1.009  0.3865 -0.3015  0.7426
  175MOL0     O23520   5.689  -0.534   0.891  0.2326 -0.0399 -0.0393
  175MOL0     C23521   5.827  -0.551   0.891  0.0523  1.1118  0.2480
  175MOL0     C23522   5.917  -0.444   0.903 -0.1468 -0.4044 -0.8306
  175MOL0     C23523   6.055  -0.468   0.911  0.6019 -0.4319 -0.3223
  175MOL0     C23524   6.103  -0.602   0.898  0.3442 -0.0253 -0.8921
  175MOL0     O23525   6.244  -0.624   0.901 -0.5328 -1.1333  0.2584
  175MOL0     C23526   6.298  -0.738   0.839 -0.0076 -0.4292 -0.4585
  175MOL0     C23527   6.447  -0.750   0.871 -0.6597  0.0661  1.7461
  175MOL0     C23528   6.504  -0.855   0.766 -1.2542  0.2164 -0.4420
  175MOL0     C23529   6.619  -0.943   0.822  0.6566  0.3885  0.4081
  175MOL0     C23530   6.663  -1.059   0.732  0.0410  0.7122  0.2153
  175MOL0     C23531   6.751  -0.996   0.618 -0.2339  0.2521  0.1186
  175MOL0     C23532   6.800  -1.116   0.533  0.2038  0.6597 -0.6288
  175MOL0     C23533   6.774  -1.099   0.382  0.1822 -0.7743  0.0461
  175MOL0    Cl23534   6.882  -1.216   0.300  0.2224  0.4387  0.1873
  175MOL0     C23535   6.005  -0.705   0.906  0.4869  0.1620  0.3853
  175MOL0     C23536   5.875  -0.679   0.894  0.2268  0.2082  1.1460
  175MOL0     O23537   5.676  -0.467   1.117  0.5665  0.3368 -0.0146
  175MOL0     C23538   5.409  -0.416   1.106 -0.7017  1.1192 -0.2788
  175MOL0     C23539   5.278  -0.389   1.094 -0.0980  0.1691  0.1106
  175MOL0     N23540   4.605  -0.134   1.398  0.3707  0.2405  0.1940
  175MOL0     N23541   4.483  -0.097   1.413  0.1688  0.3818 -1.1525
  175MOL0     C23542   3.483   0.677   1.144  0.8164  1.1386 -0.4250
  175MOL0     C23543   3.434   0.803   1.201  0.3673  0.4281  0.4059
  175MOL0     C23544   3.354   1.256   1.254  0.2078 -0.3069 -0.8999
  175MOL0     C23545   3.258   1.275   1.356 -0.0246 -0.6402 -0.2965
  175MOL0     C23546   3.250   1.390   1.428  0.1281  0.2581 -0.6624
  175MOL0     C23547   3.339   1.496   1.405  0.2104  0.0405 -0.4171
  175MOL0     O23548   3.336   1.604   1.485  0.6580  0.7749 -0.9139
  175MOL0     C23549   3.346   1.577   1.627  0.3057  0.0825 -0.1486
  175MOL0     C23550   3.474   1.509   1.659 -0.5269 -0.1626 -0.3255
  175MOL0     C23551   3.583   1.610   1.628  0.1433  0.0545 -0.6569
  175MOL0     C23552   3.733   1.568   1.630 -0.0374 -0.0999 -1.2117
  175MOL0     C23553   3.767   1.469   1.526 -0.2368 -1.0398  0.0565
  175MOL0     C23554   3.808   1.383   1.450 -0.2298 -1.2205  0.0860
  175MOL0     C23555   3.437   1.487   1.309  0.7749 -0.2834 -0.2424
  175MOL0     C23556   3.445   1.371   1.230  0.0465 -0.2561 -0.6721
  175MOL0     C23557   3.554   1.366   1.131  0.6529  0.4226  1.4233
  175MOL0     H23558   3.651   1.019   1.074 -1.5521  0.4782 -2.2434
  175MOL0     H23559   3.744   0.821   0.975  0.0018  3.4569 -0.5359
  175MOL0     H23560   3.832   0.453   1.029  1.1082  1.3157  0.1492
  175MOL0     H23561   3.861   0.620   1.028  3.3468 -0.2649  2.7147
  175MOL0     H23562   3.761   0.462   1.277  0.5904 -0.2379  0.6512
  175MOL0     H23563   3.812   0.632   1.274 -1.0772  0.1566  0.1662
  175MOL0     H23564   3.982   0.535   1.354 -1.3612  1.9019 -0.4566
  175MOL0     H23565   4.039   0.563   1.190  1.2331 -1.2189  0.7361
  175MOL0     H23566   3.956   0.304   1.334 -0.6409  1.2771 -0.3006
  175MOL0     H23567   3.933   0.295   1.164 -1.7547 -1.9247  1.5327
  175MOL0     H23568   4.170   0.362   1.137 -4.8353  2.0388 -1.4037
  175MOL0     H23569   4.187   0.351   1.318  0.7686 -1.4479  0.0654
  175MOL0     H23570   4.092   0.120   1.300 -0.1030 -4.1005 -1.4096
  175MOL0     H23571   4.086   0.137   1.120 -1.1676 -2.6856  1.8754
  175MOL0     H23572   4.343   0.167   1.134 -0.8710 -0.8545 -1.2095
  175MOL0     H23573   4.273   0.005   1.138  0.3690 -0.1695 -0.5037
  175MOL0     H23574   4.371   0.179   1.363  3.5934 -0.6752 -0.2136
  175MOL0     H23575   4.256   0.037   1.384  0.3399  0.0031 -1.1626
  175MOL0     H23576   4.550   0.034   1.121 -1.1458  1.2155  0.1735
  175MOL0     H23577   4.801  -0.070   1.134  0.2857 -1.5733 -1.6634
  175MOL0     H23578   4.857  -0.168   1.276  0.4145 -3.3708 -1.6907
  175MOL0     H23579   4.764  -0.369   1.191  2.6733  0.3373  0.0805
  175MOL0     H23580   4.642  -0.286   1.094 -1.3939 -3.6333  3.8107
  175MOL0     H23581   4.837  -0.212   0.957  0.5701  0.9295  0.7538
  175MOL0     H23582   4.810  -0.385   0.953 -0.5150  1.8921 -1.5160
  175MOL0     H23583   5.011  -0.379   1.153  0.1001  2.0789  1.8439
  175MOL0     H23584   5.052  -0.228   1.079 -0.9120  0.1991  1.7790
  175MOL0     H23585   5.209  -0.513   0.791  0.8786  0.6996 -1.0895
  175MOL0     H23586   5.438  -0.593   0.811 -3.8046 -3.0131  0.7778
  175MOL0     H23587   5.893  -0.339   0.894 -0.2387 -0.4383 -0.9802
  175MOL0     H23588   6.120  -0.381   0.919  1.0340 -0.7622 -0.2511
  175MOL0     H23589   6.244  -0.823   0.883 -0.6504 -0.9513 -2.1863
  175MOL0     H23590   6.286  -0.744   0.731  2.1776 -1.2208 -0.7023
  175MOL0     H23591   6.505  -0.658   0.864 -1.2068  0.2822 -0.4098
  175MOL0     H23592   6.460  -0.797   0.970 -1.6871 -1.5491  1.1594
  175MOL0     H23593   6.423  -0.924   0.743 -0.6055 -1.1722  1.1599
  175MOL0     H23594   6.546  -0.793   0.686 -0.2411  0.7919  0.5024
  175MOL0     H23595   6.586  -0.980   0.920 -1.3524  2.9460  0.8008
  175MOL0     H23596   6.706  -0.878   0.838  0.1239  1.3882 -0.6428
  175MOL0     H23597   6.578  -1.118   0.695  0.0174  0.6756  0.3260
  175MOL0     H23598   6.724  -1.123   0.797 -0.2774  0.3001  0.1156
  175MOL0     H23599   6.691  -0.934   0.552 -0.0818  0.6808  0.3759
  175MOL0     H23600   6.838  -0.939   0.653  2.2651 -2.5496 -1.1144
  175MOL0     H23601   6.762  -1.216   0.557  0.6603  0.9423  1.4874
  175MOL0     H23602   6.908  -1.121   0.547  0.3703 -1.3513 -2.1332
  175MOL0     H23603   6.666  -1.103   0.360  0.2512 -1.0928 -0.2385
  175MOL0     H23604   6.815  -1.004   0.348  2.5356 -1.4856  0.7401
  175MOL0     H23605   6.043  -0.806   0.916  0.2497  0.1457  1.1591
  175MOL0     H23606   5.801  -0.756   0.912 -1.0591  1.2809  0.6301
  175MOL0     H23607   5.464  -0.385   1.195 -0.0820 -4.8104  1.8315
  175MOL0     H23608   5.235  -0.327   1.172 -0.8135 -2.4831  1.9629
  175MOL0     H23609   3.426   0.591   1.178  3.2516 -0.1340  0.6591
  175MOL0     H23610   3.347   0.796   1.266  0.3394  4.3931  1.0580
  175MOL0     H23611   3.197   1.187   1.377 -1.2733  0.6993  2.0354
  175MOL0     H23612   3.173   1.395   1.505  0.8155 -0.4226  0.0927
  175MOL0     H23613   3.262   1.523   1.671  0.8036 -0.3204  0.3377
  175MOL0     H23614   3.343   1.667   1.690 -0.4221 -1.0838  1.5806
  175MOL0     H23615   3.502   1.423   1.597  4.9798 -1.3660  3.0635
  175MOL0     H23616   3.473   1.474   1.763 -2.0460  0.4970 -0.0964
  175MOL0     H23617   3.585   1.690   1.702  2.0447 -0.9560  0.4658
  175MOL0     H23618   3.557   1.652   1.530 -0.2450 -1.7986 -1.4001
  175MOL0     H23619   3.789   1.659   1.610  0.7837 -0.2264  0.3756
  175MOL0     H23620   3.744   1.526   1.730 -0.1415 -3.6545 -2.5312
  175MOL0     H23621   3.848   1.319   1.374 -3.7462 -0.0308 -3.0861
  175MOL0     H23622   3.494   1.578   1.289 -3.3356  2.6948  0.3166
  175MOL0     H23623   3.564   1.454   1.067  0.0542 -2.1659 -2.6359
  175MOL0     H23624   3.653   1.346   1.174  0.4290  0.1353  1.8073
  175MOL0     H23625   3.527   1.280   1.068 -2.6519  2.9366 -0.8847
  176MOL0     O23626   2.230   5.716  10.886  0.5230 -0.1848  0.5428
  176MOL0     C23627   2.120   5.669  10.856 -0.7271  0.0234  0.4431
  176MOL0     O23628   2.046   5.693  10.742  0.4929 -0.7128  0.5404
  176MOL0     C23629   2.082   5.796  10.662  0.1200 -0.3777  0.1027
  176MOL0     C23630   2.190   5.804  10.564  0.8209  0.7667 -0.1414
  176MOL0     C23631   2.199   5.913  10.484 -0.1777 -0.3288  1.2981
  176MOL0     C23632   2.109   6.015  10.482  0.6841 -0.4844  0.2622
  176MOL0     O23633   2.113   6.113  10.386 -0.7914 -0.7337 -0.5205
  176MOL0     C23634   2.045   6.075  10.270  0.3077  1.1593 -0.5656
  176MOL0     C23635   2.081   6.177  10.156 -0.0662 -0.4283  0.0921
  176MOL0     C23636   1.951   6.230  10.082  0.4750 -0.1442 -0.0224
  176MOL0     C23637   1.998   6.321   9.973  0.6268 -0.0956 -0.3320
  176MOL0     C23638   1.880   6.421   9.941 -0.6991 -0.4204  0.2327
  176MOL0     C23639   1.907   6.491   9.804  0.2603 -0.2247 -0.4675
  176MOL0     C23640   1.785   6.567   9.753 -0.0464 -0.2744 -0.1378
  176MOL0     C23641   1.794   6.627   9.616 -0.2590  0.8925 -0.5313
  176MOL0     N23642   1.808   6.518   9.512  0.5577 -0.2641  0.4000
  176MOL0     C23643   1.738   6.396   9.498  0.4563  0.0058 -0.7130
  176MOL0     C23644   1.762   6.345   9.380  0.5727 -0.0461 -0.0197
  176MOL0     C23645   1.689   6.228   9.310 -0.7177 -0.6466 -0.1542
  176MOL0     C23646   1.737   6.190   9.172  0.4189  0.6350 -1.3336
  176MOL0     C23647   1.752   6.043   9.162  0.3312  0.2474  0.0471
  176MOL0     C23648   1.807   5.972   9.038 -0.5734  0.8424  0.6225
  176MOL0     O23649   1.801   5.830   9.050  0.4135 -0.6424 -1.3516
  176MOL0     C23650   1.844   5.755   8.944  0.4115  0.5202  1.2873
  176MOL0     C23651   1.892   5.810   8.818  0.3174 -1.3780 -0.2456
  176MOL0     C23652   1.925   5.724   8.715  0.3569  0.2943 -0.4765
  176MOL0     C23653   1.904   5.583   8.721  0.5636  0.4139 -0.3950
  176MOL0     C23654   1.941   5.498   8.612  0.1826 -0.4726 -0.4072
  176MOL0     O23655   1.923   5.359   8.631  0.6607  0.2279 -0.2611
  176MOL0     C23656   1.920   5.283   8.515 -0.2112  0.5856 -0.4073
  176MOL0     C23657   1.821   5.287   8.428  0.4818  0.3590  0.8231
  176MOL0     C23658   1.821   5.205   8.311 -1.1736  0.1833 -0.2067
  176MOL0     C23659   1.934   5.122   8.275  0.3414 -0.3280 -0.5161
  176MOL0     O23660   1.919   5.056   8.154 -0.3994 -0.2055 -0.3094
  176MOL0     C23661   1.979   4.929   8.154 -0.4181  0.5909  0.5708
  176MOL0     C23662   1.976   4.864   8.008 -0.9939 -0.1049 -0.5684
  176MOL0     C23663   2.083   4.760   7.998  0.0855  0.0667 -0.2498
  176MOL0     C23664   2.223   4.818   7.974 -0.0164  0.3634 -0.2198
  176MOL0     C23665   2.326   4.726   7.902 -0.3567 -0.1522 -0.3871
  176MOL0     C23666   2.323   4.579   7.950 -0.5960 -0.8493 -0.5562
  176MOL0     C23667   2.444   4.507   7.905 -0.0063 -0.0953  0.8528
  176MOL0     C23668   2.441   4.354   7.948  0.3706 -0.1844  0.1736
  176MOL0    Cl23669   2.422   4.338   8.125 -0.2974 -0.4868 -0.1486
  176MOL0     C23670   2.036   5.115   8.372  0.3025 -0.8118  0.1286
  176MOL0     C23671   2.034   5.200   8.492  0.5657  0.6717 -0.0772
  176MOL0     O23672   1.980   5.552   8.502  1.0284  0.3080 -0.4230
  176MOL0     C23673   1.845   5.536   8.849 -1.5514  0.0040 -0.0604
  176MOL0     C23674   1.817   5.620   8.961 -0.2335 -0.1685  0.3191
  176MOL0     N23675   1.859   6.428   9.327  0.5080 -0.5918  0.3467
  176MOL0     N23676   1.888   6.525   9.402  0.6724 -0.4227  0.2633
  176MOL0     C23677   2.022   6.021  10.591  0.0073  1.4175  0.1862
  176MOL0     C23678   2.003   5.915  10.677 -0.2738 -0.3856 -0.1464
  176MOL0     C23679   2.054   5.571  10.952 -0.6384 -0.1082  0.0960
  176MOL0     C23680   1.962   5.479  10.885  0.0090 -0.1828 -0.4735
  176MOL0     C23681   1.925   5.365  10.963 -0.2465 -0.0242 -0.2021
  176MOL0     C23682   1.955   5.349  11.101  0.1053  0.7808  0.0028
  176MOL0     O23683   1.888   5.256  11.181  0.7814  1.2574 -0.1333
  176MOL0     C23684   1.748   5.263  11.186 -0.7289 -0.7240 -1.0444
  176MOL0     C23685   1.685   5.124  11.165 -0.4333 -0.3959 -0.5690
  176MOL0     C23686   1.525   5.140  11.169 -0.2522  0.9905 -0.2545
  176MOL0     C23687   1.447   5.004  11.150 -0.3743 -0.4973  0.5910
  176MOL0     C23688   1.482   4.923  11.034 -0.8255  0.3950  0.6396
  176MOL0     C23689   1.513   4.858  10.936  0.7072 -0.4250 -0.4156
  176MOL0     C23690   2.048   5.434  11.154 -0.5577  1.1133  0.1564
  176MOL0     C23691   2.111   5.533  11.077  0.8729 -0.1786 -1.2737
  176MOL0     C23692   2.215   5.618  11.159  0.5666 -0.6530  0.1539
  176MOL0     H23693   2.260   5.725  10.539 -1.0018 -1.0782  0.3604
  176MOL0     H23694   2.270   5.934  10.405 -1.0514  1.6952  0.9820
  176MOL0     H23695   2.073   5.975  10.235 -2.1903  1.0179 -2.4913
  176MOL0     H23696   1.938   6.074  10.294 -0.2417  0.6315 -2.7881
  176MOL0     H23697   2.155   6.137  10.085  0.6526  3.1858 -1.4380
  176MOL0     H23698   2.138   6.257  10.204 -0.7384 -1.7546  3.3759
  176MOL0     H23699   1.892   6.295  10.147  3.0147 -0.0728  2.4151
  176MOL0     H23700   1.891   6.152  10.036 -1.1560  2.1373 -2.0061
  176MOL0     H23701   2.081   6.388   9.999 -1.4113  2.3877  0.2089
  176MOL0     H23702   2.022   6.261   9.885 -0.8894  2.6551 -2.7863
  176MOL0     H23703   1.787   6.366   9.926 -0.5241 -0.4670 -0.7293
  176MOL0     H23704   1.867   6.490  10.025 -1.0441 -1.4703  1.0632
  176MOL0     H23705   1.998   6.552   9.810 -1.0579  1.6859  2.1379
  176MOL0     H23706   1.929   6.420   9.724  0.2956  1.9991 -2.5373
  176MOL0     H23707   1.784   6.652   9.821  0.4385  0.0147 -0.4868
  176MOL0     H23708   1.697   6.502   9.763 -1.5016  1.6506  0.0783
  176MOL0     H23709   1.712   6.698   9.603  0.9748  2.2877 -0.9460
  176MOL0     H23710   1.881   6.693   9.614 -0.8454  1.6899 -0.3459
  176MOL0     H23711   1.674   6.357   9.576  0.7863 -0.4818 -0.6839
  176MOL0     H23712   1.704   6.139   9.370  3.4781 -0.7631 -1.0788
  176MOL0     H23713   1.581   6.245   9.314 -0.9898 -2.1280 -0.5534
  176MOL0     H23714   1.661   6.228   9.103  0.6232 -0.3548 -2.1230
  176MOL0     H23715   1.837   6.230   9.155  0.1059  2.2774  0.4129
  176MOL0     H23716   1.654   5.995   9.169  1.6705 -3.1781 -2.0639
  176MOL0     H23717   1.807   6.003   9.248 -1.4452  2.4506  2.3616
  176MOL0     H23718   1.913   5.993   9.020 -1.0547  0.4163 -3.9098
  176MOL0     H23719   1.740   6.000   8.956  0.3481 -0.5726 -0.6620
  176MOL0     H23720   1.911   5.916   8.802  3.7346 -1.6523  1.1299
  176MOL0     H23721   1.948   5.757   8.614 -1.3962  0.9602 -0.6930
  176MOL0     H23722   1.747   5.366   8.428 -1.7322 -1.5779 -0.2792
  176MOL0     H23723   1.751   5.213   8.228 -0.5209  2.2422 -0.6294
  176MOL0     H23724   2.084   4.940   8.184  0.9410 -1.0035 -3.0507
  176MOL0     H23725   1.923   4.866   8.224 -2.8058  1.8170 -0.1305
  176MOL0     H23726   1.882   4.808   8.000 -1.3347  0.0701  1.5474
  176MOL0     H23727   1.989   4.935   7.925 -0.1727  1.1165  0.5680
  176MOL0     H23728   2.091   4.698   8.088  1.4963 -1.5285 -1.4243
  176MOL0     H23729   2.054   4.687   7.922 -0.0438 -2.2392  1.8971
  176MOL0     H23730   2.262   4.870   8.062  3.3599 -0.4900 -1.0692
  176MOL0     H23731   2.214   4.895   7.897  1.4764  1.3685  0.5646
  176MOL0     H23732   2.423   4.771   7.926  0.6011 -0.9721 -2.5183
  176MOL0     H23733   2.307   4.727   7.794  0.6354  3.4591 -0.6561
  176MOL0     H23734   2.318   4.566   8.059  3.2117  0.0458 -0.1463
  176MOL0     H23735   2.231   4.537   7.907  0.3635 -2.3377 -1.2141
  176MOL0     H23736   2.531   4.550   7.955  0.7494  0.8033 -1.1202
  176MOL0     H23737   2.455   4.506   7.796  1.3482  0.5476  0.9736
  176MOL0     H23738   2.363   4.292   7.903 -0.2170 -0.2605  1.2628
  176MOL0     H23739   2.543   4.325   7.919  1.4545  2.9170  0.4815
  176MOL0     H23740   2.112   5.041   8.350  0.3963 -0.3145 -1.3534
  176MOL0     H23741   2.113   5.195   8.566  0.3426 -2.8484  0.0981
  176MOL0     H23742   1.839   5.428   8.856 -3.1343  0.1270  0.8188
  176MOL0     H23743   1.774   5.581   9.053 -1.5776  1.1592  0.2891
  176MOL0     H23744   1.977   6.119  10.602 -0.2893  1.1612  1.4120
  176MOL0     H23745   1.923   5.923  10.750  0.1681 -0.7584  0.3830
  176MOL0     H23746   1.935   5.486  10.780 -1.2058 -3.6000 -0.5159
  176MOL0     H23747   1.873   5.291  10.903  1.4642  0.0799 -1.9216
  176MOL0     H23748   1.714   5.333  11.110  2.1497  0.0868 -1.7251
  176MOL0     H23749   1.729   5.296  11.289  2.1811 -3.5188  0.5927
  176MOL0     H23750   1.724   5.063  11.247  5.9528  0.2429 -2.5628
  176MOL0     H23751   1.723   5.070  11.077 -2.4826  1.3121 -2.6114
  176MOL0     H23752   1.505   5.215  11.091 -1.2472  0.6532 -0.3410
  176MOL0     H23753   1.502   5.180  11.268  0.4427  0.1455  0.2631
  176MOL0     H23754   1.467   4.954  11.246 -1.4530  1.1249  1.6993
  176MOL0     H23755   1.343   5.037  11.147  0.9659  4.2801 -0.7395
  176MOL0     H23756   1.535   4.805  10.846 -2.1672  1.7909 -2.6632
  176MOL0     H23757   2.068   5.422  11.260 -4.3381  1.4465  1.0710
  176MOL0     H23758   2.182   5.721  11.148 -1.4079 -1.3056 -0.5395
  176MOL0     H23759   2.209   5.588  11.265  3.4991 -1.4644  0.1881
  176MOL0     H23760   2.314   5.604  11.116 -0.6263  1.9744 -3.9388
  177MOL0     O23761   4.742   1.085   3.573 -0.4735 -0.2394  0.0065
  177MOL0     C23762   4.657   1.049   3.653 -0.0141 -0.8189  0.0192
  177MOL0     O23763   4.612   0.918   3.677  0.0361  0.5869 -0.6393
  177MOL0     C23764   4.632   0.817   3.592 -0.5948 -0.1834  0.2283
  177MOL0     C23765   4.602   0.841   3.458  0.1203  0.4312  0.7280
  177MOL0     C23766   4.595   0.735   3.372 -0.1570  0.6282  0.3154
  177MOL0     C23767   4.627   0.605   3.419  0.4500  0.4994 -0.2815
  177MOL0     O23768   4.616   0.490   3.346  0.8158  0.8469 -0.0421
  177MOL0     C23769   4.532   0.491   3.226 -0.4252  0.5682  0.8767
  177MOL0     C23770   4.626   0.532   3.104 -0.3688  0.3203  0.0706
  177MOL0     C23771   4.732   0.419   3.079  0.5848  0.1816 -0.6406
  177MOL0     C23772   4.817   0.453   2.958  0.5500  0.1575 -1.2613
  177MOL0     C23773   4.898   0.346   2.899  0.5505  1.1428 -0.2145
  177MOL0     C23774   4.999   0.286   2.999  0.7268  0.4103 -0.4871
  177MOL0     C23775   5.094   0.179   2.956  0.4781  0.6550  0.4519
  177MOL0     C23776   5.207   0.236   2.877 -0.6706  0.3834  0.5307
  177MOL0     N23777   5.311   0.143   2.829  0.4363 -0.3837 -0.1509
  177MOL0     C23778   5.386   0.068   2.912  0.0598  1.2039  0.4215
  177MOL0     C23779   5.471   0.008   2.823  0.0615  0.3660 -0.9982
  177MOL0     C23780   5.597  -0.057   2.877 -0.3299  1.0931 -0.5339
  177MOL0     C23781   5.725   0.022   2.856 -0.9058 -0.6254  0.0577
  177MOL0     C23782   5.739   0.142   2.950 -0.4824 -0.4366  0.0742
  177MOL0     C23783   5.880   0.210   2.943 -0.4440  0.0141  0.7570
  177MOL0     O23784   5.914   0.272   2.819 -0.9089  0.0363 -0.4227
  177MOL0     C23785   5.878   0.406   2.805 -0.4242  0.0296 -0.1233
  177MOL0     C23786   5.782   0.433   2.709 -0.1208  0.2987  0.0149
  177MOL0     C23787   5.779   0.561   2.658  0.8492  0.3295  0.1981
  177MOL0     C23788   5.844   0.665   2.716  0.3790 -0.2268 -0.2795
  177MOL0     C23789   5.837   0.795   2.664  0.3862 -1.2621 -0.2621
  177MOL0     O23790   5.932   0.892   2.704  0.1565 -0.0250 -0.3216
  177MOL0     C23791   5.943   1.009   2.646  0.6428  0.4642  0.8723
  177MOL0     C23792   5.828   1.096   2.626 -0.4199  0.4679  0.1873
  177MOL0     C23793   5.848   1.215   2.561 -0.3435  0.1709 -0.1939
  177MOL0     C23794   5.976   1.261   2.513 -0.6003 -0.1101 -0.0060
  177MOL0     O23795   5.993   1.379   2.446  0.0035 -0.2934 -0.6654
  177MOL0     C23796   5.878   1.443   2.391  0.0402 -0.5756 -0.2889
  177MOL0     C23797   5.854   1.401   2.253  0.2847 -0.4441 -0.5481
  177MOL0     C23798   5.772   1.509   2.181 -0.9285  0.3286 -0.9854
  177MOL0     C23799   5.704   1.432   2.064 -0.5641 -0.1921  0.0786
  177MOL0     C23800   5.625   1.525   1.976  1.2464 -0.1617  0.2780
  177MOL0     C23801   5.706   1.622   1.890  0.9537 -0.9171 -0.0248
  177MOL0     C23802   5.620   1.723   1.807  0.0665  0.1895  0.3488
  177MOL0     C23803   5.707   1.813   1.725 -0.0183  0.3272 -0.4982
  177MOL0    Cl23804   5.779   1.702   1.598  0.0636  0.1287  0.0785
  177MOL0     C23805   6.079   1.180   2.544  0.4020 -0.9476  0.9157
  177MOL0     C23806   6.067   1.060   2.611 -0.8373 -0.2675 -0.2733
  177MOL0     O23807   5.746   0.815   2.580 -0.5439 -0.5674 -0.0254
  177MOL0     C23808   5.934   0.635   2.821 -0.1257 -0.1168  0.3283
  177MOL0     C23809   5.948   0.507   2.872  0.6033  0.1438 -0.5157
  177MOL0     N23810   5.451   0.048   2.696 -0.8959  0.1464  0.2312
  177MOL0     N23811   5.348   0.129   2.700 -0.0936 -0.2639 -0.0864
  177MOL0     C23812   4.670   0.584   3.551  0.7714 -0.0677 -0.0024
  177MOL0     C23813   4.673   0.690   3.641 -0.5507  0.5984 -0.3096
  177MOL0     C23814   4.583   1.151   3.744 -0.8588 -0.3008  0.3622
  177MOL0     C23815   4.453   1.118   3.779  0.7489 -0.9344 -0.5669
  177MOL0     C23816   4.375   1.207   3.852 -0.2125  0.2715 -0.2892
  177MOL0     C23817   4.432   1.327   3.901  0.7014  0.2264 -0.1713
  177MOL0     O23818   4.343   1.404   3.964  0.5613 -0.0837 -0.5724
  177MOL0     C23819   4.375   1.535   4.004  0.1680 -0.1900  0.0717
  177MOL0     C23820   4.258   1.598   4.085 -0.5847  0.4660  0.6943
  177MOL0     C23821   4.305   1.715   4.173 -0.4641 -0.2149 -0.1290
  177MOL0     C23822   4.410   1.681   4.278  0.0483 -1.0817  0.7867
  177MOL0     C23823   4.422   1.792   4.379  1.0386  0.0606 -0.3688
  177MOL0     C23824   4.435   1.882   4.462  0.7949  0.1142 -0.7447
  177MOL0     C23825   4.561   1.363   3.866 -0.3010  0.1807 -0.7851
  177MOL0     C23826   4.638   1.279   3.789  0.5280  0.4437  0.1641
  177MOL0     C23827   4.788   1.307   3.762 -0.0967 -0.0412  0.0532
  177MOL0     H23828   4.587   0.941   3.418  4.0554  0.4484 -1.1223
  177MOL0     H23829   4.567   0.757   3.270 -0.2671  1.1693  0.4578
  177MOL0     H23830   4.495   0.389   3.214 -2.4289  1.1200  1.7842
  177MOL0     H23831   4.446   0.559   3.230  0.1299  1.7313 -2.7911
  177MOL0     H23832   4.668   0.632   3.116  0.8167 -0.1853  0.3372
  177MOL0     H23833   4.559   0.529   3.017 -1.8360  0.3587  1.1672
  177MOL0     H23834   4.681   0.326   3.051  2.8560 -0.2929 -3.7280
  177MOL0     H23835   4.790   0.401   3.170 -0.9368 -0.1346  0.2958
  177MOL0     H23836   4.737   0.476   2.887 -0.3409 -0.7657 -0.5932
  177MOL0     H23837   4.869   0.548   2.971  1.6002  0.2525 -5.0564
  177MOL0     H23838   4.854   0.254   2.861  2.9231 -0.4274  0.5773
  177MOL0     H23839   4.946   0.404   2.820 -0.1282  0.8180 -0.8660
  177MOL0     H23840   5.062   0.370   3.032 -1.9988  2.1776  0.5740
  177MOL0     H23841   4.948   0.253   3.090 -0.6185  1.2264 -0.9170
  177MOL0     H23842   5.032   0.105   2.904 -4.5962  1.8282  4.0870
  177MOL0     H23843   5.135   0.127   3.044  3.4751 -1.7399 -2.0981
  177MOL0     H23844   5.173   0.293   2.790  1.4795  0.4107 -0.3378
  177MOL0     H23845   5.260   0.311   2.936  0.0277  1.3807 -1.2824
  177MOL0     H23846   5.377   0.054   3.020 -1.4879 -2.4046 -0.0244
  177MOL0     H23847   5.586  -0.079   2.984  1.7267  0.5497 -0.4043
  177MOL0     H23848   5.600  -0.154   2.826 -0.7724  0.8512 -0.1185
  177MOL0     H23849   5.823  -0.025   2.857  0.6406  2.1811 -2.6066
  177MOL0     H23850   5.724   0.052   2.751  2.2528  0.0062  0.1346
  177MOL0     H23851   5.723   0.106   3.052 -0.7331  0.1412  0.2438
  177MOL0     H23852   5.657   0.212   2.929  0.6329  1.1934  0.9199
  177MOL0     H23853   5.950   0.128   2.962  0.2287  0.1254 -1.0405
  177MOL0     H23854   5.904   0.275   3.028  1.8753  0.1483  0.0800
  177MOL0     H23855   5.718   0.354   2.670 -1.7158  1.1243  0.8201
  177MOL0     H23856   5.704   0.581   2.582  0.2839 -0.5398  0.5073
  177MOL0     H23857   5.728   1.073   2.660 -0.4607  2.0156  1.1838
  177MOL0     H23858   5.756   1.268   2.538  0.6545  3.0888  1.8433
  177MOL0     H23859   5.783   1.441   2.446 -0.8952 -0.7081 -1.8275
  177MOL0     H23860   5.909   1.547   2.381 -0.4881 -0.5765 -2.4287
  177MOL0     H23861   5.950   1.387   2.202 -0.5873 -1.0489 -2.0951
  177MOL0     H23862   5.790   1.313   2.243 -3.1281  2.0064 -2.4810
  177MOL0     H23863   5.697   1.538   2.256  0.7904 -0.6539  1.2477
  177MOL0     H23864   5.840   1.586   2.144  0.4266  0.4136  1.4404
  177MOL0     H23865   5.641   1.353   2.104  1.6074 -1.7234  0.7003
  177MOL0     H23866   5.788   1.383   2.013  0.1946 -0.6861  1.7218
  177MOL0     H23867   5.551   1.592   2.020  1.2773  0.8893 -1.1658
  177MOL0     H23868   5.552   1.475   1.911 -1.0064  3.1974 -0.0568
  177MOL0     H23869   5.760   1.692   1.955  3.3301 -1.4728 -1.2932
  177MOL0     H23870   5.776   1.556   1.837  1.1752 -0.8493  0.1799
  177MOL0     H23871   5.560   1.784   1.876  2.0380  0.3036  2.0598
  177MOL0     H23872   5.542   1.672   1.751 -1.1081  0.2406  1.8576
  177MOL0     H23873   5.648   1.879   1.660 -1.9962 -0.9897 -0.1250
  177MOL0     H23874   5.780   1.862   1.789  0.1633 -0.0187 -0.4375
  177MOL0     H23875   6.172   1.211   2.497  0.3174  2.9836  2.8761
  177MOL0     H23876   6.151   0.994   2.625 -0.6715 -0.7575 -2.9879
  177MOL0     H23877   5.996   0.715   2.860 -0.6190 -0.2018  1.3232
  177MOL0     H23878   6.017   0.495   2.954  1.5476  0.5923 -1.2205
  177MOL0     H23879   4.697   0.486   3.590  1.3682 -0.1748 -0.6760
  177MOL0     H23880   4.705   0.671   3.743 -0.5563 -1.6607 -0.6804
  177MOL0     H23881   4.400   1.025   3.762 -0.7386 -0.0643 -0.8223
  177MOL0     H23882   4.274   1.171   3.867 -0.4777  0.7767 -0.8097
  177MOL0     H23883   4.392   1.600   3.917  2.0547 -0.6921  0.0362
  177MOL0     H23884   4.468   1.543   4.061 -1.1960 -0.8890  2.5170
  177MOL0     H23885   4.223   1.519   4.152  2.0669 -1.1553  0.3288
  177MOL0     H23886   4.183   1.630   4.013  1.7756  1.9137 -1.2654
  177MOL0     H23887   4.220   1.756   4.228 -0.9151  0.9062 -1.6020
  177MOL0     H23888   4.347   1.800   4.118  2.1353  0.6549  2.9176
  177MOL0     H23889   4.389   1.592   4.338  1.2026  0.9596  4.5761
  177MOL0     H23890   4.508   1.661   4.233  0.3506 -0.6292  1.2297
  177MOL0     H23891   4.447   1.961   4.534  1.1123 -1.4985  1.0485
  177MOL0     H23892   4.595   1.464   3.886 -1.0398  0.3950 -0.5640
  177MOL0     H23893   4.841   1.215   3.790  0.9238 -0.3066 -2.4962
  177MOL0     H23894   4.803   1.333   3.657 -2.7585 -1.7658 -0.8445
  177MOL0     H23895   4.834   1.385   3.823  0.9306  0.5843 -1.4773
  178MOL0     O23896   6.434   7.649  10.149 -0.1561  0.3844 -0.4606
  178MOL0     C23897   6.359   7.581  10.214  0.8320 -0.1177  0.2625
  178MOL0     O23898   6.220   7.608  10.219  0.5026 -0.1111  0.6275
  178MOL0     C23899   6.171   7.714  10.142  0.7330  0.2341  0.2190
  178MOL0     C23900   6.077   7.678  10.046 -1.1168  0.4044  0.9585
  178MOL0     C23901   6.053   7.790   9.959 -0.8256 -0.6053  0.8024
  178MOL0     C23902   6.100   7.921   9.973 -0.1514 -0.7899 -0.4905
  178MOL0     O23903   6.055   8.022   9.896 -0.0635  0.0280 -0.2054
  178MOL0     C23904   6.018   8.004   9.763  0.9425  0.0639  0.8565
  178MOL0     C23905   5.975   8.136   9.722  0.4194 -0.1554 -0.3310
  178MOL0     C23906   6.096   8.221   9.685  0.1603 -0.1077 -0.0753
  178MOL0     C23907   6.053   8.357   9.614 -0.1495  0.2746  0.5022
  178MOL0     C23908   6.169   8.458   9.585  1.3916 -0.2675  0.9109
  178MOL0     C23909   6.093   8.576   9.511  0.1555  0.0767 -0.2265
  178MOL0     C23910   6.173   8.711   9.504  0.5452 -0.3525  0.4054
  178MOL0     C23911   6.269   8.715   9.374  0.3100  0.3437 -0.4356
  178MOL0     N23912   6.337   8.846   9.376 -0.2637  0.7982  0.1460
  178MOL0     C23913   6.334   8.954   9.284  0.4741 -0.5770 -0.1693
  178MOL0     C23914   6.443   9.024   9.316  0.3188  0.4979 -0.8311
  178MOL0     C23915   6.482   9.156   9.263  0.5283  0.0344  0.3433
  178MOL0     C23916   6.459   9.170   9.109 -0.2109 -0.7930 -0.0202
  178MOL0     C23917   6.505   9.305   9.068 -0.9444 -0.7486  0.0672
  178MOL0     C23918   6.513   9.336   8.920 -0.3019 -0.5018 -0.1522
  178MOL0     O23919   6.596   9.460   8.908  0.6486  0.3926  0.6610
  178MOL0     C23920   6.625   9.519   8.783 -0.6080  0.3643  0.7531
  178MOL0     C23921   6.686   9.637   8.771  0.2314 -0.0091 -0.1876
  178MOL0     C23922   6.711   9.701   8.646 -0.4177  0.6920 -0.4815
  178MOL0     C23923   6.663   9.642   8.528 -0.4031 -0.7948 -0.3733
  178MOL0     C23924   6.670   9.701   8.395 -0.3526 -0.5671 -0.3947
  178MOL0     O23925   6.675   9.610   8.291 -0.1083 -0.3184  0.9767
  178MOL0     C23926   6.679   9.652   8.158 -0.4037 -0.2388  0.4746
  178MOL0     C23927   6.720   9.561   8.060 -0.2989  0.8666  0.0689
  178MOL0     C23928   6.726   9.603   7.929  0.3740  0.6609  0.0418
  178MOL0     C23929   6.705   9.729   7.882 -0.2403  0.0352  1.1679
  178MOL0     O23930   6.733   9.764   7.748 -0.1943 -0.5182 -0.5737
  178MOL0     C23931   6.757   9.890   7.705 -0.3751  0.3227 -0.7451
  178MOL0     C23932   6.788   9.897   7.554  0.1652 -0.1276 -0.4084
  178MOL0     C23933   6.824  10.045   7.498 -0.5024 -0.2460 -0.1280
  178MOL0     C23934   6.699  10.136   7.463  0.5320  0.6056  0.3038
  178MOL0     C23935   6.622  10.091   7.337  0.0595  0.6013  0.4399
  178MOL0     C23936   6.523  10.197   7.298 -0.7732 -0.3799 -0.6544
  178MOL0     C23937   6.436  10.158   7.176  0.2105  0.1341  0.6638
  178MOL0     C23938   6.524  10.113   7.058 -0.7662 -1.4366 -0.5778
  178MOL0    Cl23939   6.413  10.077   6.920  0.4838  0.2698 -0.2513
  178MOL0     C23940   6.663   9.825   7.977 -0.6327  0.2867  0.3596
  178MOL0     C23941   6.650   9.784   8.110  0.3150  0.7627  0.7172
  178MOL0     O23942   6.662   9.822   8.392 -0.5284  0.2408  0.5892
  178MOL0     C23943   6.604   9.521   8.543  0.4394  0.1951 -1.4625
  178MOL0     C23944   6.586   9.456   8.668 -0.3736 -0.5285 -0.7218
  178MOL0     N23945   6.516   8.956   9.416 -0.0348  0.6868  0.8319
  178MOL0     N23946   6.455   8.860   9.451  1.1206 -0.3900  0.2531
  178MOL0     C23947   6.193   7.945  10.074  0.5771  0.2725 -0.1241
  178MOL0     C23948   6.228   7.840  10.159  0.3934  0.0678 -0.0599
  178MOL0     C23949   6.416   7.469  10.304  0.1105 -0.4646  0.1222
  178MOL0     C23950   6.341   7.430  10.421 -0.6941 -0.6177 -0.8066
  178MOL0     C23951   6.390   7.328  10.513 -0.0795 -0.1440  0.4796
  178MOL0     C23952   6.509   7.261  10.486 -0.1169  0.3316 -0.1057
  178MOL0     O23953   6.537   7.148  10.567 -0.5668 -0.2803  0.1966
  178MOL0     C23954   6.665   7.156  10.636 -0.0892 -0.7646  0.0364
  178MOL0     C23955   6.768   7.080  10.551 -0.1089 -0.4776 -0.3473
  178MOL0     C23956   6.913   7.134  10.542 -1.2973 -0.4780 -0.0553
  178MOL0     C23957   7.021   7.037  10.524 -0.2031 -0.4593 -0.1770
  178MOL0     C23958   7.155   7.094  10.543 -0.0375 -0.2481 -0.1850
  178MOL0     C23959   7.261   7.150  10.553 -0.2700  0.0175 -0.2419
  178MOL0     C23960   6.593   7.307  10.379 -0.1141 -0.2604  0.8627
  178MOL0     C23961   6.537   7.397  10.283 -0.7999  0.7633  0.6440
  178MOL0     C23962   6.616   7.420  10.165  0.1322 -0.1970 -0.4015
  178MOL0     H23963   6.054   7.572  10.035  1.3997 -0.3139  1.8157
  178MOL0     H23964   6.005   7.764   9.865 -0.2325  2.6557 -0.5022
  178MOL0     H23965   6.100   7.971   9.698  0.1905  0.1661 -0.1686
  178MOL0     H23966   5.935   7.934   9.748 -0.6770  2.1152 -0.2625
  178MOL0     H23967   5.906   8.176   9.796 -0.0224 -1.5592  0.0553
  178MOL0     H23968   5.909   8.122   9.636  0.2068 -0.3396 -0.1393
  178MOL0     H23969   6.159   8.163   9.618  0.4984 -2.1497  1.9146
  178MOL0     H23970   6.146   8.234   9.781 -1.3077  0.0736  0.6993
  178MOL0     H23971   6.005   8.324   9.521  2.1850 -3.4983  0.4037
  178MOL0     H23972   5.981   8.403   9.682  0.0690  1.7177 -0.2000
  178MOL0     H23973   6.207   8.485   9.684 -2.0493  0.5654  2.1432
  178MOL0     H23974   6.233   8.411   9.510 -0.8574 -1.0818 -0.5970
  178MOL0     H23975   6.071   8.546   9.408 -2.0115 -1.1070  0.5048
  178MOL0     H23976   5.996   8.595   9.559  0.3356 -0.0082  0.1760
  178MOL0     H23977   6.239   8.735   9.588  0.1651 -0.6984  0.8090
  178MOL0     H23978   6.100   8.792   9.504  2.8152  1.8243  0.1885
  178MOL0     H23979   6.340   8.631   9.380  2.4107  2.0861  0.7921
  178MOL0     H23980   6.208   8.709   9.284  0.0900  2.3236 -0.4527
  178MOL0     H23981   6.248   8.976   9.222  0.1487 -1.5693 -0.1018
  178MOL0     H23982   6.422   9.226   9.321  0.1436  0.4619 -0.5550
  178MOL0     H23983   6.587   9.180   9.284  0.3757  0.9269  0.1337
  178MOL0     H23984   6.509   9.095   9.047  2.9862 -0.0131  1.4062
  178MOL0     H23985   6.352   9.153   9.093  0.1712 -4.2946  0.2442
  178MOL0     H23986   6.604   9.320   9.112 -0.4919 -3.5878  0.1894
  178MOL0     H23987   6.433   9.375   9.113 -2.1249  0.1311 -2.9268
  178MOL0     H23988   6.415   9.346   8.873 -0.2623  0.5274 -0.0248
  178MOL0     H23989   6.570   9.255   8.873 -1.0018  0.2118 -2.3545
  178MOL0     H23990   6.721   9.691   8.859  0.2255  1.4522 -1.0476
  178MOL0     H23991   6.772   9.791   8.638 -0.3866  0.9989  2.2765
  178MOL0     H23992   6.741   9.457   8.086 -2.0892  1.2031  3.3135
  178MOL0     H23993   6.749   9.541   7.842 -2.5795  0.5733 -0.8024
  178MOL0     H23994   6.681   9.964   7.732 -4.7326 -3.6991 -0.7184
  178MOL0     H23995   6.846   9.925   7.758 -1.8717  1.2018  1.3309
  178MOL0     H23996   6.875   9.834   7.536 -0.3199 -1.7444  2.3431
  178MOL0     H23997   6.700   9.856   7.503  0.0404 -0.7235  0.2728
  178MOL0     H23998   6.879  10.101   7.574  0.5836  0.7735 -1.6120
  178MOL0     H23999   6.883  10.021   7.408 -0.4695 -0.6766  0.0050
  178MOL0     H24000   6.731  10.232   7.424 -1.4004  1.3393  0.4208
  178MOL0     H24001   6.636  10.148   7.552  0.3191 -2.6989  0.7485
  178MOL0     H24002   6.568   9.998   7.355 -2.1366  1.7785  0.3290
  178MOL0     H24003   6.702  10.083   7.263  0.7912 -2.2239  1.4188
  178MOL0     H24004   6.460  10.230   7.381 -0.3171  2.9988 -1.5148
  178MOL0     H24005   6.588  10.280   7.267 -1.2286  0.3488  0.2734
  178MOL0     H24006   6.374  10.243   7.145 -0.8487 -0.6914  0.4947
  178MOL0     H24007   6.370  10.074   7.201  0.9159 -0.9556 -1.0085
  178MOL0     H24008   6.602  10.181   7.025 -0.1494 -1.9195 -0.1365
  178MOL0     H24009   6.564  10.015   7.087  0.0934 -0.8445  0.2707
  178MOL0     H24010   6.646   9.931   7.960  0.7750  0.6600  1.0984
  178MOL0     H24011   6.623   9.868   8.173 -0.7629 -0.9704  2.7266
  178MOL0     H24012   6.559   9.468   8.459 -1.2875 -0.3978 -0.2053
  178MOL0     H24013   6.534   9.361   8.672  1.2508 -1.4005  1.0732
  178MOL0     H24014   6.236   8.043  10.095  1.8008 -0.7745  2.8121
  178MOL0     H24015   6.313   7.851  10.227 -0.4037 -2.2378  1.4581
  178MOL0     H24016   6.253   7.488  10.448  0.0630 -0.1566  0.7751
  178MOL0     H24017   6.320   7.300  10.591  0.8760  4.3261  3.3546
  178MOL0     H24018   6.657   7.106  10.734  3.1206 -1.4245  0.0561
  178MOL0     H24019   6.701   7.258  10.649 -2.3613  0.2949 -1.4183
  178MOL0     H24020   6.727   7.060  10.451 -1.2801 -1.4504  0.2930
  178MOL0     H24021   6.772   6.980  10.595 -1.6052 -0.6829 -0.5895
  178MOL0     H24022   6.932   7.175  10.642  4.0189  0.3375 -1.0693
  178MOL0     H24023   6.934   7.216  10.473 -4.5528  1.7079  1.3344
  178MOL0     H24024   7.009   6.961  10.602 -0.9833 -1.4960 -1.2769
  178MOL0     H24025   7.018   6.989  10.426 -0.2024  0.6954 -0.7659
  178MOL0     H24026   7.345   7.209  10.585 -1.7149 -0.1372  4.5344
  178MOL0     H24027   6.690   7.265  10.354 -1.6661 -2.4242 -2.1610
  178MOL0     H24028   6.667   7.516  10.182  1.5482 -1.4474  3.2207
  178MOL0     H24029   6.680   7.334  10.145 -0.5284 -0.2031 -2.8555
  178MOL0     H24030   6.550   7.435  10.079 -0.7477  0.9452  0.4413
  179MOL0     O24031   4.021   7.743  11.336  0.4880 -0.7383 -0.8806
  179MOL0     C24032   4.079   7.784  11.240  0.1434  0.1341 -0.6500
  179MOL0     O24033   4.025   7.849  11.130 -0.5149  0.8026  0.6140
  179MOL0     C24034   3.896   7.889  11.140 -0.0689  1.0167 -0.5385
  179MOL0     C24035   3.791   7.797  11.136  0.5662  0.1095 -0.7094
  179MOL0     C24036   3.664   7.840  11.130  0.2624  0.5681  0.1377
  179MOL0     C24037   3.631   7.973  11.124  0.0131 -1.6969 -0.0642
  179MOL0     O24038   3.500   8.018  11.121  0.8427  1.0598  0.9172
  179MOL0     C24039   3.463   8.156  11.144 -0.4898 -0.3502 -0.0245
  179MOL0     C24040   3.320   8.184  11.183 -0.5460  0.2837  0.1934
  179MOL0     C24041   3.314   8.331  11.237  0.2209 -0.2775  0.7442
  179MOL0     C24042   3.169   8.363  11.241  0.9464  0.1074  0.1296
  179MOL0     C24043   3.141   8.492  11.319  0.7320 -0.1106 -0.5606
  179MOL0     C24044   3.002   8.534  11.340 -0.2702 -0.6797 -0.2210
  179MOL0     C24045   2.983   8.687  11.326 -0.7627 -0.3189  0.0019
  179MOL0     C24046   2.854   8.739  11.375 -0.0872 -0.0077  0.1709
  179MOL0     N24047   2.735   8.669  11.320  0.1045 -0.7805 -0.0947
  179MOL0     C24048   2.652   8.582  11.384  0.0407 -0.2235 -0.2526
  179MOL0     C24049   2.553   8.557  11.296 -0.0256 -0.5098 -0.9331
  179MOL0     C24050   2.433   8.471  11.318  0.0838 -0.6735 -0.0306
  179MOL0     C24051   2.323   8.509  11.228  0.3328 -0.1728 -0.2854
  179MOL0     C24052   2.185   8.444  11.274 -0.1301  0.7954 -0.4734
  179MOL0     C24053   2.055   8.479  11.196 -0.5279  0.3285  0.4380
  179MOL0     O24054   2.043   8.618  11.175 -0.8323  0.7031 -0.1087
  179MOL0     C24055   2.019   8.705  11.286 -0.0962 -0.3541  0.7981
  179MOL0     C24056   2.015   8.846  11.265  0.1174 -0.0702  0.6064
  179MOL0     C24057   1.976   8.934  11.366  0.1319 -0.4624 -0.4997
  179MOL0     C24058   1.934   8.882  11.492  0.1788 -0.1932  0.0832
  179MOL0     C24059   1.907   8.978  11.602 -0.0142 -0.2121 -0.8499
  179MOL0     O24060   1.861   8.931  11.720  0.0049  0.6988 -0.4662
  179MOL0     C24061   1.830   9.016  11.820 -0.3665 -0.5104 -0.2836
  179MOL0     C24062   1.921   9.105  11.878  0.0546 -0.1835  0.6073
  179MOL0     C24063   1.876   9.179  11.990  0.1850 -0.5844  0.4269
  179MOL0     C24064   1.759   9.149  12.050  0.8005  0.5896 -0.5373
  179MOL0     O24065   1.734   9.204  12.167  0.5207  0.3281  0.1841
  179MOL0     C24066   1.615   9.208  12.242  0.2902 -0.4565 -0.5672
  179MOL0     C24067   1.595   9.106  12.354 -0.1825  0.0455  1.0098
  179MOL0     C24068   1.712   9.105  12.455 -0.8374  0.1846  0.8780
  179MOL0     C24069   1.826   9.010  12.392  0.1498  0.5622 -0.4724
  179MOL0     C24070   1.938   8.972  12.494  0.1088  0.4371  0.5686
  179MOL0     C24071   2.017   9.091  12.541  0.6729 -0.2464 -0.2017
  179MOL0     C24072   2.100   9.152  12.423 -0.0794 -0.6557  0.5216
  179MOL0     C24073   2.047   9.274  12.342 -0.2690 -0.0063 -0.0556
  179MOL0    Cl24074   1.932   9.370  12.439  0.1402  0.1146 -0.0187
  179MOL0     C24075   1.667   9.059  11.993  0.0166  0.8522  0.1584
  179MOL0     C24076   1.704   8.996  11.875 -0.2618 -0.3565 -0.1469
  179MOL0     O24077   1.924   9.096  11.583  0.0193 -0.6873  0.5560
  179MOL0     C24078   1.927   8.746  11.516 -0.1502 -0.3225  0.1075
  179MOL0     C24079   1.975   8.657  11.418  0.5383 -0.2306 -0.2750
  179MOL0     N24080   2.567   8.639  11.183 -0.0668 -0.9054 -0.7082
  179MOL0     N24081   2.672   8.715  11.202  0.4711  0.8823  0.4262
  179MOL0     C24082   3.739   8.068  11.122  0.1259 -0.4918 -0.5819
  179MOL0     C24083   3.873   8.027  11.123  0.2786 -0.0291  0.8334
  179MOL0     C24084   4.227   7.751  11.227  0.7800  0.2236 -0.1704
  179MOL0     C24085   4.312   7.821  11.142 -1.1388  0.1328 -0.4150
  179MOL0     C24086   4.447   7.773  11.107 -0.4396 -0.1638 -0.1774
  179MOL0     C24087   4.494   7.656  11.170  0.1024 -0.1553 -0.2605
  179MOL0     O24088   4.620   7.621  11.134 -1.0314 -0.3718  0.2564
  179MOL0     C24089   4.670   7.486  11.112 -0.3726  0.5230  0.4913
  179MOL0     C24090   4.571   7.395  11.025 -0.0507 -0.3993 -0.4144
  179MOL0     C24091   4.617   7.250  10.995  0.6543  0.0355  0.0214
  179MOL0     C24092   4.610   7.175  11.133 -0.3773 -0.8038 -0.4512
  179MOL0     C24093   4.475   7.162  11.189  0.7705  0.1097  1.1300
  179MOL0     C24094   4.362   7.141  11.226 -0.7813 -0.6931 -0.1289
  179MOL0     C24095   4.426   7.596  11.266  0.6262 -0.1861  0.0797
  179MOL0     C24096   4.280   7.626  11.281 -0.2486  0.0388 -0.7899
  179MOL0     C24097   4.195   7.532  11.360  0.7281  0.2049  0.3206
  179MOL0     H24098   3.821   7.693  11.137 -2.7169 -0.9598 -0.9179
  179MOL0     H24099   3.583   7.769  11.139  0.7629  0.1264  1.4814
  179MOL0     H24100   3.525   8.185  11.230 -0.2155 -0.7491 -0.0892
  179MOL0     H24101   3.470   8.206  11.047 -2.0704 -3.8868 -2.1622
  179MOL0     H24102   3.290   8.125  11.270  3.7835  1.7367  3.0134
  179MOL0     H24103   3.252   8.172  11.098  0.3182  2.5695 -0.9112
  179MOL0     H24104   3.361   8.404  11.170 -1.8221 -0.8941 -1.5306
  179MOL0     H24105   3.368   8.321  11.332 -1.4478 -0.1772  1.7384
  179MOL0     H24106   3.132   8.369  11.138  1.0763 -0.4434  0.0472
  179MOL0     H24107   3.113   8.281  11.287  0.4306  1.0709  1.3046
  179MOL0     H24108   3.189   8.470  11.414  0.0988  2.1971  0.3749
  179MOL0     H24109   3.203   8.569  11.272  1.0584  1.0040  1.5688
  179MOL0     H24110   2.925   8.489  11.276 -1.3560  1.1999 -0.3014
  179MOL0     H24111   2.961   8.503  11.436 -0.1397 -2.0084 -0.5778
  179MOL0     H24112   3.016   8.718  11.226  1.9340  0.5791  1.0979
  179MOL0     H24113   3.058   8.733  11.390 -1.9658  2.2578 -0.3245
  179MOL0     H24114   2.854   8.723  11.483 -5.7409  1.0089  0.5865
  179MOL0     H24115   2.841   8.845  11.349 -0.7234  0.0232  0.5995
  179MOL0     H24116   2.666   8.532  11.480 -1.9349 -0.1087  0.1279
  179MOL0     H24117   2.460   8.367  11.299 -3.6803 -1.8691  0.3181
  179MOL0     H24118   2.400   8.495  11.419 -0.8013  3.5900 -1.1260
  179MOL0     H24119   2.319   8.618  11.233 -1.3936 -0.2553  1.3978
  179MOL0     H24120   2.341   8.467  11.129 -0.1998 -0.2019 -0.3682
  179MOL0     H24121   2.174   8.475  11.378  2.5969 -0.2715  0.2318
  179MOL0     H24122   2.195   8.336  11.265 -2.9041  0.4564 -0.2314
  179MOL0     H24123   1.970   8.431  11.244  0.6549 -1.6317  0.6664
  179MOL0     H24124   2.057   8.438  11.094  0.3688  2.1367 -0.3285
  179MOL0     H24125   2.041   8.871  11.163  0.5450 -2.2324  0.1283
  179MOL0     H24126   1.984   9.041  11.357 -1.6486 -0.0989  1.3720
  179MOL0     H24127   2.023   9.115  11.842  0.5639 -0.5101  1.9208
  179MOL0     H24128   1.952   9.252  12.014  0.0799  0.1166 -1.2592
  179MOL0     H24129   1.611   9.298  12.304  1.3233 -0.0198 -1.1262
  179MOL0     H24130   1.531   9.208  12.172 -0.9271  1.4911  0.7739
  179MOL0     H24131   1.500   9.127  12.403 -0.2616  0.9144  0.5171
  179MOL0     H24132   1.583   9.007  12.309  0.6454 -0.0694  1.0271
  179MOL0     H24133   1.745   9.209  12.465 -1.1846  0.6296 -1.8705
  179MOL0     H24134   1.676   9.057  12.547 -1.8889  1.4500  1.1652
  179MOL0     H24135   1.876   9.051  12.303  4.7633  1.5161  2.2315
  179MOL0     H24136   1.771   8.925  12.351 -0.4713  0.5094  0.4537
  179MOL0     H24137   2.007   8.906  12.441  0.8115  3.1050 -2.1207
  179MOL0     H24138   1.891   8.924  12.580  1.5347 -0.7598  0.7099
  179MOL0     H24139   1.963   9.174  12.588 -0.3573 -0.8143 -0.3690
  179MOL0     H24140   2.087   9.057  12.619 -1.2441  1.4927  2.4705
  179MOL0     H24141   2.143   9.072  12.362 -3.3285 -2.3300  0.1998
  179MOL0     H24142   2.174   9.203  12.485 -0.6653 -1.1555  1.6652
  179MOL0     H24143   2.124   9.343  12.305 -0.9593 -0.0124 -1.5516
  179MOL0     H24144   1.984   9.238  12.260 -0.3629 -1.7346  0.7323
  179MOL0     H24145   1.580   9.028  12.049  0.8799 -2.5519 -0.1315
  179MOL0     H24146   1.643   8.921  11.827  1.9470 -0.2905 -3.3803
  179MOL0     H24147   1.898   8.717  11.616  0.8294  1.8803  1.0777
  179MOL0     H24148   1.961   8.553  11.445  1.0275  0.0017  0.9829
  179MOL0     H24149   3.720   8.175  11.125 -2.0644 -0.8505  1.1431
  179MOL0     H24150   3.961   8.091  11.120  0.3963 -0.1707  1.3107
  179MOL0     H24151   4.279   7.913  11.095  1.4837  1.2442 -0.2421
  179MOL0     H24152   4.511   7.822  11.035  0.1231 -2.0044 -0.9877
  179MOL0     H24153   4.683   7.447  11.214 -1.5640 -0.5784  0.2400
  179MOL0     H24154   4.766   7.493  11.060  0.1448 -2.2174  0.9282
  179MOL0     H24155   4.561   7.452  10.932  0.6080 -0.1364 -0.3333
  179MOL0     H24156   4.475   7.394  11.077  0.1786 -0.4444  0.0118
  179MOL0     H24157   4.716   7.251  10.947 -0.5920  2.3894 -2.8054
  179MOL0     H24158   4.542   7.208  10.928  0.2622  2.1417 -0.9234
  179MOL0     H24159   4.640   7.074  11.105  1.1729 -0.5774  0.2800
  179MOL0     H24160   4.683   7.204  11.209 -0.6569 -4.8281  1.5866
  179MOL0     H24161   4.262   7.124  11.258 -1.0260 -3.5116 -2.0204
  179MOL0     H24162   4.473   7.523  11.330 -0.6179 -1.9764 -0.9582
  179MOL0     H24163   4.166   7.572  11.457  1.8299  0.1502  0.6947
  179MOL0     H24164   4.105   7.504  11.304  2.2572 -0.0572 -2.1937
  179MOL0     H24165   4.248   7.436  11.364 -1.0498 -0.7915  3.6676
  180MOL0     O24166   2.854   8.923   6.634 -0.8328  0.3039 -0.7319
  180MOL0     C24167   2.771   8.899   6.544 -0.7546  0.1334  0.4504
  180MOL0     O24168   2.640   8.867   6.551  0.9025  0.4195  0.7997
  180MOL0     C24169   2.584   8.875   6.671  0.3287  0.2611  0.1159
  180MOL0     C24170   2.579   9.003   6.741 -0.0214  0.4216 -0.6424
  180MOL0     C24171   2.525   9.002   6.873 -0.4407  0.1917  0.0232
  180MOL0     C24172   2.464   8.892   6.927 -0.2814 -0.1972 -0.1042
  180MOL0     O24173   2.386   8.895   7.050 -0.0804 -0.0074  0.1736
  180MOL0     C24174   2.371   9.017   7.127  0.7445  0.1861  1.4235
  180MOL0     C24175   2.269   8.988   7.243  0.0947  0.9116  1.0373
  180MOL0     C24176   2.316   8.860   7.318  0.8370 -0.7691  0.1418
  180MOL0     C24177   2.264   8.850   7.462 -0.2292  0.0023  0.0265
  180MOL0     C24178   2.349   8.756   7.545 -0.0635  0.1680  0.6026
  180MOL0     C24179   2.328   8.606   7.516 -0.5936  0.1437  1.0010
  180MOL0     C24180   2.217   8.544   7.593 -0.4480 -0.2862 -0.5453
  180MOL0     C24181   2.214   8.392   7.597 -0.3632 -0.2069 -1.1516
  180MOL0     N24182   2.206   8.324   7.471 -0.1557 -0.7731  0.2081
  180MOL0     C24183   2.137   8.364   7.358 -0.1342  1.0380 -0.2321
  180MOL0     C24184   2.145   8.255   7.275 -0.2821  0.2838 -0.9236
  180MOL0     C24185   2.100   8.225   7.138  0.4425 -0.0263 -0.1033
  180MOL0     C24186   1.978   8.126   7.149  0.1573 -0.1649  0.4570
  180MOL0     C24187   1.956   8.053   7.026 -0.0367  0.4436 -0.8047
  180MOL0     C24188   1.824   7.979   7.042  0.2280  0.0963  0.6656
  180MOL0     O24189   1.809   7.898   6.918  0.4278 -0.2442  0.9451
  180MOL0     C24190   1.724   7.801   6.909 -0.1199  0.5042 -0.1747
  180MOL0     C24191   1.753   7.686   6.979  0.5238 -0.0825 -0.5258
  180MOL0     C24192   1.661   7.576   6.970 -0.1752  0.1213 -0.6252
  180MOL0     C24193   1.543   7.584   6.892 -0.1760  0.1345 -0.1012
  180MOL0     C24194   1.462   7.461   6.875 -0.3405  0.3089  0.2836
  180MOL0     O24195   1.336   7.471   6.821  0.3434 -0.1368 -0.6052
  180MOL0     C24196   1.277   7.349   6.797  0.4211 -0.8462 -0.5943
  180MOL0     C24197   1.142   7.332   6.842 -0.7804 -0.5290  0.1243
  180MOL0     C24198   1.078   7.209   6.815  0.0304  0.2221 -0.6893
  180MOL0     C24199   1.142   7.104   6.744  1.2094  0.3227  0.4586
  180MOL0     O24200   1.072   6.982   6.715  0.1030 -0.8097  0.7781
  180MOL0     C24201   0.977   6.941   6.807  0.7435 -0.2660  0.1316
  180MOL0     C24202   0.918   6.803   6.767 -0.5897 -0.4078  0.0211
  180MOL0     C24203   0.863   6.793   6.630  0.0401 -0.1543 -0.3105
  180MOL0     C24204   0.712   6.781   6.625 -0.0599 -0.5610 -0.0873
  180MOL0     C24205   0.678   6.764   6.474 -0.1458 -0.6834 -0.1226
  180MOL0     C24206   0.532   6.723   6.466 -0.5996  0.3532  0.0628
  180MOL0     C24207   0.525   6.569   6.485 -0.4494  0.0953 -0.5052
  180MOL0     C24208   0.447   6.506   6.367 -1.0299 -0.1664  0.2406
  180MOL0    Cl24209   0.277   6.566   6.380 -0.1719 -0.6848  0.2753
  180MOL0     C24210   1.260   7.137   6.684 -0.4515  0.4260 -0.6989
  180MOL0     C24211   1.323   7.255   6.712 -0.3363 -0.1359 -0.3357
  180MOL0     O24212   1.525   7.355   6.911  0.6556  0.1332 -0.0708
  180MOL0     C24213   1.523   7.700   6.831  0.4866 -1.4669  0.1786
  180MOL0     C24214   1.609   7.805   6.836  0.6545  0.5014  0.1030
  180MOL0     N24215   2.212   8.155   7.343  0.0962  0.6080  0.0058
  180MOL0     N24216   2.259   8.202   7.450 -0.2880  0.0662 -0.3776
  180MOL0     C24217   2.468   8.772   6.849  0.1031 -0.1043  0.1819
  180MOL0     C24218   2.529   8.759   6.728 -0.1872  0.2279  0.5352
  180MOL0     C24219   2.834   8.920   6.402 -0.1138  0.4309 -0.4830
  180MOL0     C24220   2.756   8.941   6.289 -0.8789 -0.2724  0.9895
  180MOL0     C24221   2.810   8.936   6.158  0.2725 -0.0835 -0.2774
  180MOL0     C24222   2.952   8.922   6.142  0.4394 -0.1348 -0.3978
  180MOL0     O24223   3.007   8.925   6.024 -1.1060  0.2987  0.0066
  180MOL0     C24224   2.955   9.027   5.942 -0.1551  0.9480  0.1339
  180MOL0     C24225   3.029   9.032   5.805  0.4822 -0.1093 -0.5106
  180MOL0     C24226   3.184   9.037   5.811  0.3152  0.5754  0.3599
  180MOL0     C24227   3.231   9.164   5.865  0.9755 -0.0029 -0.1427
  180MOL0     C24228   3.228   9.176   6.012  0.2199  0.1722 -0.0260
  180MOL0     C24229   3.222   9.197   6.133 -0.0409 -1.0771  1.0568
  180MOL0     C24230   3.035   8.916   6.253  0.0321 -0.0684 -0.2400
  180MOL0     C24231   2.979   8.926   6.384  0.4946 -0.8313 -0.4078
  180MOL0     C24232   3.094   8.912   6.487 -0.3217 -0.3150 -0.7748
  180MOL0     H24233   2.627   9.093   6.706 -0.7123  2.3473  2.9043
  180MOL0     H24234   2.534   9.087   6.940 -1.4155 -0.5016  1.0837
  180MOL0     H24235   2.472   9.034   7.164  2.7784 -2.5801 -2.1180
  180MOL0     H24236   2.327   9.102   7.074  3.5348  3.1726  3.5006
  180MOL0     H24237   2.166   8.968   7.210  0.0980 -2.8091  2.7861
  180MOL0     H24238   2.252   9.064   7.320 -1.2978 -1.4708  3.2245
  180MOL0     H24239   2.425   8.868   7.331  1.1762  0.5166 -2.7186
  180MOL0     H24240   2.301   8.771   7.255 -0.4848 -0.7093  0.3459
  180MOL0     H24241   2.271   8.954   7.495  0.6553 -0.3838  1.1307
  180MOL0     H24242   2.162   8.812   7.465 -0.7917  1.5383  1.3853
  180MOL0     H24243   2.453   8.770   7.514 -1.1794  2.3212 -2.7060
  180MOL0     H24244   2.344   8.789   7.649  0.3259  2.9195 -0.1750
  180MOL0     H24245   2.331   8.580   7.410  2.2318  0.5941  0.8933
  180MOL0     H24246   2.416   8.559   7.562  0.2740  2.0642  1.4127
  180MOL0     H24247   2.120   8.570   7.549 -3.0013 -1.5214  3.7659
  180MOL0     H24248   2.230   8.577   7.697  2.0916 -1.9625 -0.2512
  180MOL0     H24249   2.308   8.365   7.645 -0.7213 -0.3309 -0.5146
  180MOL0     H24250   2.126   8.356   7.650 -2.1051  2.7350 -1.8370
  180MOL0     H24251   2.083   8.455   7.334  1.6396  1.4509 -3.0486
  180MOL0     H24252   2.077   8.318   7.085  1.1115  1.7332  2.4718
  180MOL0     H24253   2.188   8.184   7.088  0.0805  0.9098 -1.5660
  180MOL0     H24254   1.990   8.054   7.230 -0.6097 -0.3475  0.4196
  180MOL0     H24255   1.888   8.180   7.182 -0.6152 -0.6000 -0.8854
  180MOL0     H24256   2.023   7.968   7.009 -0.9712 -0.2930 -0.8909
  180MOL0     H24257   1.955   8.113   6.934  1.8881  0.1982 -1.0206
  180MOL0     H24258   1.754   8.062   7.049  0.9616  0.6125  2.5558
  180MOL0     H24259   1.832   7.908   7.125 -1.5729 -0.9090  0.0475
  180MOL0     H24260   1.847   7.673   7.032 -0.1824  1.5098  1.2696
  180MOL0     H24261   1.718   7.490   7.003  4.6350  2.0162 -2.8892
  180MOL0     H24262   1.094   7.410   6.901 -1.4975 -0.9214  0.0788
  180MOL0     H24263   0.983   7.196   6.866 -0.3688 -1.6518 -1.8519
  180MOL0     H24264   1.028   6.912   6.899  1.4394  0.5476  0.0152
  180MOL0     H24265   0.902   7.017   6.831  1.8861 -0.1253  3.8652
  180MOL0     H24266   0.997   6.727   6.767  1.9357  1.9906  1.7111
  180MOL0     H24267   0.841   6.765   6.835 -0.3132  0.0668  0.6064
  180MOL0     H24268   0.895   6.876   6.565  2.2429 -0.3650  0.4237
  180MOL0     H24269   0.902   6.700   6.586 -1.5917 -1.7141  1.4031
  180MOL0     H24270   0.658   6.865   6.671  3.6817  3.1153 -1.8203
  180MOL0     H24271   0.690   6.689   6.681  0.2303  0.4301  1.7368
  180MOL0     H24272   0.745   6.686   6.437  1.5066  0.3348  0.6270
  180MOL0     H24273   0.692   6.853   6.412  4.1305  0.8635  2.6288
  180MOL0     H24274   0.474   6.781   6.539  0.6852  1.0290  0.5829
  180MOL0     H24275   0.494   6.756   6.369 -0.8360  0.0953  0.0677
  180MOL0     H24276   0.460   6.566   6.573 -1.8456  1.1052 -1.4482
  180MOL0     H24277   0.623   6.529   6.512 -0.3046  0.8736  0.1712
  180MOL0     H24278   0.479   6.528   6.265 -3.7398 -1.2928 -0.9552
  180MOL0     H24279   0.461   6.397   6.373  1.5879 -0.0478 -1.9434
  180MOL0     H24280   1.315   7.075   6.615  2.8184  2.1050  0.1775
  180MOL0     H24281   1.423   7.259   6.671 -0.4736  1.2056 -0.5920
  180MOL0     H24282   1.431   7.694   6.774  1.2196 -0.2180 -1.1766
  180MOL0     H24283   1.576   7.902   6.799 -2.0885  0.0509  1.0845
  180MOL0     H24284   2.425   8.685   6.897  0.3914  0.7675  2.1469
  180MOL0     H24285   2.545   8.660   6.687  0.5375  1.5711 -2.7402
  180MOL0     H24286   2.648   8.930   6.287 -0.7855 -2.3626 -2.9262
  180MOL0     H24287   2.743   8.940   6.072  1.4187 -2.5009 -1.3698
  180MOL0     H24288   2.971   9.128   5.981  1.5752  0.3822  1.0138
  180MOL0     H24289   2.853   9.016   5.904  0.3942 -0.4805 -1.0186
  180MOL0     H24290   2.996   9.127   5.763 -1.7703 -1.2847 -1.5817
  180MOL0     H24291   2.999   8.950   5.739 -2.2615 -0.7647  1.3611
  180MOL0     H24292   3.222   9.012   5.711  0.1871 -0.5164  0.5682
  180MOL0     H24293   3.221   8.962   5.882  0.1362  2.1250  2.1704
  180MOL0     H24294   3.336   9.172   5.838  0.8099 -1.9187 -1.5809
  180MOL0     H24295   3.178   9.242   5.810  0.0133 -1.3437 -1.1628
  180MOL0     H24296   3.211   9.223   6.236 -1.9431  0.6999  0.4726
  180MOL0     H24297   3.142   8.913   6.239  0.0199  1.3057 -0.7950
  180MOL0     H24298   3.069   8.827   6.551  2.2389 -1.5445 -1.2527
  180MOL0     H24299   3.198   8.905   6.451  0.2459 -4.0607  1.1083
  180MOL0     H24300   3.090   8.997   6.555  2.5502 -0.2902 -0.5230
  181MOL0     O24301   0.167   5.211   1.380 -0.2731  0.0214 -0.6164
  181MOL0     C24302   0.265   5.158   1.328  0.3487 -0.5935 -0.8914
  181MOL0     O24303   0.393   5.168   1.370  0.1375  0.4015  0.0122
  181MOL0     C24304   0.405   5.244   1.486 -0.1073 -0.4172 -0.0576
  181MOL0     C24305   0.376   5.380   1.487 -1.3323  0.7523 -0.5713
  181MOL0     C24306   0.392   5.460   1.600  0.6847  0.2489 -0.2297
  181MOL0     C24307   0.432   5.396   1.720 -0.3278 -0.3735  0.3601
  181MOL0     O24308   0.470   5.480   1.830 -0.3761  1.0135 -0.4620
  181MOL0     C24309   0.566   5.429   1.924 -0.9450  1.2475  0.0140
  181MOL0     C24310   0.603   5.565   1.986  0.3495  0.4579  0.6404
  181MOL0     C24311   0.695   5.571   2.116  1.1027 -0.7582  0.1349
  181MOL0     C24312   0.651   5.461   2.223 -0.2736  0.5645 -0.1783
  181MOL0     C24313   0.735   5.462   2.358  0.2841 -0.5892  0.0593
  181MOL0     C24314   0.675   5.379   2.477 -0.3370  0.2902 -0.0470
  181MOL0     C24315   0.749   5.434   2.604 -0.0039  0.4872 -0.3247
  181MOL0     C24316   0.756   5.335   2.722 -0.3547 -0.3128 -0.5919
  181MOL0     N24317   0.760   5.191   2.684  0.1008  0.4237 -0.2297
  181MOL0     C24318   0.642   5.119   2.662  0.2932  0.8897 -0.8821
  181MOL0     C24319   0.685   4.991   2.672  0.0683 -0.1462 -1.2039
  181MOL0     C24320   0.604   4.872   2.680 -0.4229  0.2315 -1.2971
  181MOL0     C24321   0.667   4.732   2.640 -0.1661  0.0385  0.4396
  181MOL0     C24322   0.782   4.655   2.711 -0.6719 -0.3413  0.5111
  181MOL0     C24323   0.750   4.628   2.862  0.1993 -0.7905  1.1965
  181MOL0     O24324   0.650   4.527   2.852  0.7047  0.5157  0.5018
  181MOL0     C24325   0.601   4.488   2.972 -0.0151 -0.1853  0.7489
  181MOL0     C24326   0.505   4.390   2.956  0.2014 -0.1464  0.4937
  181MOL0     C24327   0.418   4.359   3.064  0.3674 -1.0809 -0.3277
  181MOL0     C24328   0.438   4.410   3.196 -0.1508  0.7548 -0.6204
  181MOL0     C24329   0.334   4.385   3.304  0.1136 -0.1469  0.1650
  181MOL0     O24330   0.218   4.318   3.263 -0.5495 -0.7023 -0.0313
  181MOL0     C24331   0.111   4.299   3.336  0.8424 -0.0380  0.6399
  181MOL0     C24332  -0.014   4.266   3.273  0.4479 -0.2942  0.7540
  181MOL0     C24333  -0.124   4.243   3.357 -0.1229 -0.1461 -0.3824
  181MOL0     C24334  -0.120   4.233   3.501 -0.7281 -0.1759 -0.7223
  181MOL0     O24335  -0.221   4.194   3.584 -0.5239  0.4312 -0.1839
  181MOL0     C24336  -0.350   4.236   3.536  0.5067  0.5227  0.4386
  181MOL0     C24337  -0.436   4.105   3.524 -0.6551 -0.1854 -0.0820
  181MOL0     C24338  -0.465   4.013   3.645 -0.4247  0.5464 -0.2794
  181MOL0     C24339  -0.338   3.942   3.708 -0.1501  0.2315 -0.2152
  181MOL0     C24340  -0.379   3.821   3.795 -0.0199  0.4394  0.1651
  181MOL0     C24341  -0.286   3.788   3.901  0.6476  0.1862 -0.0554
  181MOL0     C24342  -0.347   3.660   3.964  0.3727 -0.5993 -0.4216
  181MOL0     C24343  -0.286   3.637   4.102  0.7720 -0.6123  0.3717
  181MOL0    Cl24344  -0.133   3.553   4.094 -0.3041 -0.3601  0.0384
  181MOL0     C24345   0.007   4.239   3.555  0.4093 -0.0511  0.8380
  181MOL0     C24346   0.115   4.277   3.473  0.3353  0.4251 -0.1839
  181MOL0     O24347   0.344   4.455   3.405 -0.2647 -0.0835 -0.3887
  181MOL0     C24348   0.553   4.495   3.212  0.4216 -0.3765 -0.2762
  181MOL0     C24349   0.627   4.536   3.098  0.2940  0.3216 -0.8149
  181MOL0     N24350   0.825   4.992   2.679  0.6454 -0.9116 -0.0686
  181MOL0     N24351   0.876   5.112   2.692  0.7087 -0.2382 -0.1352
  181MOL0     C24352   0.445   5.262   1.722  0.0421 -0.4412  0.3413
  181MOL0     C24353   0.437   5.185   1.600 -0.0485 -0.9200 -1.1643
  181MOL0     C24354   0.238   5.080   1.209 -0.6709  0.1838 -0.5797
  181MOL0     C24355   0.151   5.128   1.121 -0.1060  1.1425  0.3361
  181MOL0     C24356   0.141   5.068   0.993  0.3825 -0.2946  0.2321
  181MOL0     C24357   0.220   4.959   0.958  0.1239 -0.7135  0.1763
  181MOL0     O24358   0.211   4.890   0.844  0.1974 -0.4506  0.4091
  181MOL0     C24359   0.232   4.961   0.715 -0.4187  0.1098 -0.0625
  181MOL0     C24360   0.326   4.873   0.634 -0.0165 -0.1978 -1.1003
  181MOL0     C24361   0.375   4.940   0.501  0.3411 -0.4021 -1.1609
  181MOL0     C24362   0.253   4.970   0.412  0.4228 -0.3469 -0.3717
  181MOL0     C24363   0.194   5.108   0.433  0.0326  0.8189 -0.2645
  181MOL0     C24364   0.166   5.215   0.474  0.9492 -0.3106  0.5317
  181MOL0     C24365   0.299   4.901   1.051  0.6605 -0.3369 -1.3571
  181MOL0     C24366   0.309   4.962   1.172  0.3800  0.5307 -0.2089
  181MOL0     C24367   0.396   4.893   1.279  0.2583  0.6681 -0.5451
  181MOL0     H24368   0.342   5.428   1.396 -0.4803  0.5622 -0.9987
  181MOL0     H24369   0.392   5.569   1.601  0.4041  0.2636 -1.0557
  181MOL0     H24370   0.514   5.359   1.990 -0.8775 -0.2969 -1.4847
  181MOL0     H24371   0.656   5.383   1.883 -0.9768 -0.1554  1.4224
  181MOL0     H24372   0.514   5.619   2.018 -1.4075 -1.4572 -0.7847
  181MOL0     H24373   0.660   5.620   1.910  0.5481  1.0137  1.1861
  181MOL0     H24374   0.677   5.667   2.166  1.7225 -2.5508  4.2679
  181MOL0     H24375   0.793   5.555   2.071  1.4688 -0.4322  0.7854
  181MOL0     H24376   0.544   5.477   2.242 -0.4116  0.2322 -0.6501
  181MOL0     H24377   0.664   5.360   2.182  0.5178 -0.1084  1.6191
  181MOL0     H24378   0.838   5.433   2.337  0.6510 -0.4459  1.5540
  181MOL0     H24379   0.729   5.570   2.376 -0.3802 -0.2377 -1.9127
  181MOL0     H24380   0.566   5.378   2.479 -0.3649  1.4238  1.5864
  181MOL0     H24381   0.711   5.278   2.459  1.8355  0.5659  2.2571
  181MOL0     H24382   0.704   5.525   2.645  0.2528  0.1772  0.6756
  181MOL0     H24383   0.852   5.464   2.581  0.9594  1.5106  4.2814
  181MOL0     H24384   0.836   5.367   2.789  2.2158 -1.6109 -2.8034
  181MOL0     H24385   0.662   5.352   2.775 -0.0476  1.3047 -0.5113
  181MOL0     H24386   0.536   5.142   2.667  0.2742  0.7046 -0.3618
  181MOL0     H24387   0.561   4.874   2.781 -0.5662  0.6347 -1.3636
  181MOL0     H24388   0.514   4.888   2.620 -3.5087 -2.3435  2.2051
  181MOL0     H24389   0.581   4.665   2.633 -1.2798  1.2188  1.9432
  181MOL0     H24390   0.698   4.761   2.540  0.5024  0.0671  0.6512
  181MOL0     H24391   0.871   4.703   2.670 -1.9734  0.4349 -1.5670
  181MOL0     H24392   0.801   4.563   2.656  2.3135  1.1093 -1.1556
  181MOL0     H24393   0.710   4.717   2.912 -1.0448 -0.2937 -0.6157
  181MOL0     H24394   0.835   4.589   2.918  0.7698 -2.1015 -0.4970
  181MOL0     H24395   0.483   4.344   2.860  3.2538 -2.6879  0.8551
  181MOL0     H24396   0.336   4.298   3.028 -0.6702 -0.5536  1.0480
  181MOL0     H24397  -0.010   4.277   3.165 -1.6549  3.4655  0.9204
  181MOL0     H24398  -0.212   4.220   3.297  2.2982  2.6393 -5.7280
  181MOL0     H24399  -0.389   4.302   3.614 -2.3832  0.4502 -0.8265
  181MOL0     H24400  -0.351   4.307   3.452  0.3477 -0.0242 -0.0260
  181MOL0     H24401  -0.525   4.131   3.466  0.5430 -1.4295 -2.6676
  181MOL0     H24402  -0.378   4.042   3.455  0.0075 -2.8648  2.6757
  181MOL0     H24403  -0.518   4.073   3.719  0.2004 -0.4888  1.0494
  181MOL0     H24404  -0.537   3.937   3.614  0.4865  0.2068 -1.6578
  181MOL0     H24405  -0.291   4.012   3.777  0.7137 -1.7731  1.3128
  181MOL0     H24406  -0.277   3.915   3.621  1.2061  2.1693  0.0804
  181MOL0     H24407  -0.402   3.741   3.724 -1.8687  0.2197  0.9455
  181MOL0     H24408  -0.477   3.837   3.842 -0.7455  0.9773 -1.4534
  181MOL0     H24409  -0.190   3.769   3.852  1.6878 -1.4350  2.4424
  181MOL0     H24410  -0.272   3.874   3.967  0.1110  0.2445 -0.0093
  181MOL0     H24411  -0.326   3.579   3.895  1.4736  0.2034 -1.0540
  181MOL0     H24412  -0.456   3.664   3.960  0.4359  0.3104 -2.5106
  181MOL0     H24413  -0.296   3.720   4.172  1.2849 -1.3932  1.3876
  181MOL0     H24414  -0.359   3.568   4.145 -1.0557  2.7276  3.1550
  181MOL0     H24415   0.021   4.229   3.662  3.6278 -0.7838  0.4357
  181MOL0     H24416   0.207   4.286   3.531 -1.0254  2.0359  1.8819
  181MOL0     H24417   0.584   4.528   3.311 -1.1330  0.3763  0.0030
  181MOL0     H24418   0.711   4.604   3.102 -0.0561  0.7058  1.5816
  181MOL0     H24419   0.466   5.220   1.820  0.2154 -0.3692  0.3359
  181MOL0     H24420   0.455   5.078   1.603  0.0737 -0.8825  0.3142
  181MOL0     H24421   0.090   5.215   1.140  2.6414  3.1424  0.6690
  181MOL0     H24422   0.070   5.106   0.920 -1.8491 -3.4746  0.5734
  181MOL0     H24423   0.289   5.054   0.728  2.1613 -1.5716  1.5181
  181MOL0     H24424   0.135   4.969   0.666 -1.5503 -1.5757  1.7595
  181MOL0     H24425   0.279   4.780   0.601  0.6512 -1.5655  1.5209
  181MOL0     H24426   0.406   4.856   0.707 -0.7045  2.4726  0.3985
  181MOL0     H24427   0.444   4.865   0.459  0.8177 -1.5946  1.5056
  181MOL0     H24428   0.435   5.030   0.518 -0.6678 -0.1264  1.2875
  181MOL0     H24429   0.284   4.959   0.308  3.8862  1.3782  0.3396
  181MOL0     H24430   0.178   4.894   0.438 -0.2580 -0.0889 -1.5037
  181MOL0     H24431   0.128   5.312   0.503 -2.3604 -0.4048 -2.7124
  181MOL0     H24432   0.346   4.805   1.029  2.6631  0.3908 -0.4345
  181MOL0     H24433   0.418   4.790   1.251 -0.6495 -0.6519  3.0930
  181MOL0     H24434   0.493   4.943   1.287  0.8224 -0.2280 -1.5164
  181MOL0     H24435   0.339   4.883   1.372  0.2718 -1.9711 -0.7517
  182MOL0     O24436   4.413   8.709   5.494  0.8950  0.7168  0.4857
  182MOL0     C24437   4.527   8.684   5.506 -0.0841  0.2733  0.1855
  182MOL0     O24438   4.591   8.574   5.450 -0.0200 -0.5531  0.8779
  182MOL0     C24439   4.510   8.483   5.385 -0.4094  0.9903  0.1784
  182MOL0     C24440   4.504   8.489   5.249  2.0308 -0.3067  0.0154
  182MOL0     C24441   4.407   8.416   5.181 -0.2984  0.7631 -0.3885
  182MOL0     C24442   4.323   8.333   5.250  0.1793 -0.6441 -0.5159
  182MOL0     O24443   4.235   8.249   5.186 -0.1477 -1.0959  0.3205
  182MOL0     C24444   4.102   8.231   5.225 -0.3501  0.4309 -0.5474
  182MOL0     C24445   4.046   8.123   5.132 -0.8575  0.6884  0.8242
  182MOL0     C24446   4.030   8.170   4.986 -0.9253  0.6179  0.0131
  182MOL0     C24447   4.115   8.080   4.885  0.5843 -0.0773  0.0496
  182MOL0     C24448   4.034   7.959   4.842  0.4748  0.0689 -0.9041
  182MOL0     C24449   4.117   7.894   4.723 -0.3440 -0.9734 -0.9241
  182MOL0     C24450   4.034   7.777   4.672  0.3368  0.2253  0.6097
  182MOL0     C24451   4.121   7.673   4.598 -0.1557 -0.2411  1.1000
  182MOL0     N24452   4.174   7.723   4.469 -0.2322  0.1122 -0.5553
  182MOL0     C24453   4.306   7.745   4.449 -0.9858 -0.2442  0.1120
  182MOL0     C24454   4.319   7.817   4.333  0.7726  0.8130 -0.2846
  182MOL0     C24455   4.449   7.868   4.271 -0.2953  0.2914  0.5271
  182MOL0     C24456   4.525   7.938   4.376  0.0762  0.3932  0.1902
  182MOL0     C24457   4.462   8.052   4.436  0.5003 -0.3015 -0.2871
  182MOL0     C24458   4.512   8.068   4.583 -0.5636 -0.5077 -0.0608
  182MOL0     O24459   4.454   7.978   4.683  0.0322 -0.5983 -0.1586
  182MOL0     C24460   4.489   7.979   4.814  1.1607 -0.7335 -0.4367
  182MOL0     C24461   4.523   8.099   4.886  0.3273 -1.0390  0.3639
  182MOL0     C24462   4.534   8.097   5.025  0.5824 -0.5724 -0.0730
  182MOL0     C24463   4.520   7.987   5.107  0.1782  0.8663 -0.6192
  182MOL0     C24464   4.553   7.984   5.248 -0.6313 -0.5851 -1.0400
  182MOL0     O24465   4.651   8.060   5.302 -0.0858 -0.3755 -0.4110
  182MOL0     C24466   4.690   8.039   5.439 -0.5113 -0.0419  0.2109
  182MOL0     C24467   4.789   7.940   5.472 -0.4809  0.2537  0.2407
  182MOL0     C24468   4.835   7.921   5.604 -0.9259 -0.5692  0.2122
  182MOL0     C24469   4.769   7.981   5.705 -0.3028  0.5834 -0.0898
  182MOL0     O24470   4.794   7.977   5.836 -0.4331 -1.0403  1.1498
  182MOL0     C24471   4.880   7.874   5.889 -0.1649 -0.0535  1.3521
  182MOL0     C24472   4.866   7.861   6.045 -0.0657 -0.2532  0.1039
  182MOL0     C24473   4.717   7.834   6.071  0.4977  0.3212 -0.8029
  182MOL0     C24474   4.682   7.681   6.091  0.4427  0.4657  0.1297
  182MOL0     C24475   4.538   7.674   6.168 -0.4739  0.8648  0.1105
  182MOL0     C24476   4.561   7.668   6.318  1.0571 -1.1252 -0.5041
  182MOL0     C24477   4.616   7.533   6.374  0.1013  0.4441  0.4322
  182MOL0     C24478   4.511   7.453   6.442 -0.3134 -0.7927  0.4809
  182MOL0    Cl24479   4.459   7.532   6.587 -0.0269  0.0981 -0.8024
  182MOL0     C24480   4.663   8.070   5.677  0.8410  0.2654  0.3526
  182MOL0     C24481   4.631   8.105   5.544 -0.3592  0.6704  0.0489
  182MOL0     O24482   4.483   7.905   5.313 -0.2161 -0.8557  0.0150
  182MOL0     C24483   4.467   7.869   5.039 -0.2102 -1.1201 -1.1328
  182MOL0     C24484   4.469   7.865   4.890  0.1363  1.2095 -0.8367
  182MOL0     N24485   4.186   7.837   4.290  0.1450 -0.2618  0.1526
  182MOL0     N24486   4.100   7.785   4.372  0.3741  0.6525  0.8020
  182MOL0     C24487   4.348   8.312   5.384 -0.7206  0.0450 -0.5807
  182MOL0     C24488   4.440   8.390   5.456  0.9285 -0.2550  0.1777
  182MOL0     C24489   4.619   8.784   5.571  0.7160  1.2003  0.2297
  182MOL0     C24490   4.758   8.766   5.554  0.3615 -0.3607 -0.4478
  182MOL0     C24491   4.842   8.867   5.579 -0.3387 -0.0511  0.3282
  182MOL0     C24492   4.795   8.985   5.636 -0.6796 -0.1143  0.1797
  182MOL0     O24493   4.857   9.104   5.662 -0.3635 -0.2682  0.4737
  182MOL0     C24494   4.999   9.095   5.673  0.1418 -0.4531  0.1339
  182MOL0     C24495   5.056   9.163   5.551 -0.4839  0.7028 -0.2983
  182MOL0     C24496   5.209   9.164   5.550  0.3683 -0.2722  0.4196
  182MOL0     C24497   5.258   9.291   5.486 -0.0407  0.8789  1.2070
  182MOL0     C24498   5.189   9.305   5.351  0.2548  0.3090 -0.6971
  182MOL0     C24499   5.124   9.309   5.250 -0.8989  0.7650  0.5441
  182MOL0     C24500   4.660   8.995   5.670  0.0938 -1.1535 -0.1488
  182MOL0     C24501   4.568   8.893   5.640  0.0610 -0.1681  0.7558
  182MOL0     C24502   4.420   8.919   5.674 -0.8834 -0.1960 -0.1877
  182MOL0     H24503   4.553   8.572   5.199  0.4115  1.6645  1.5846
  182MOL0     H24504   4.389   8.438   5.076  4.2628  0.6770 -1.3736
  182MOL0     H24505   4.096   8.185   5.324  1.5927 -0.7778 -0.9256
  182MOL0     H24506   4.035   8.317   5.227  2.3018  2.6678 -0.5632
  182MOL0     H24507   3.945   8.095   5.165 -2.6688  1.0716 -3.5878
  182MOL0     H24508   4.114   8.038   5.130 -1.9954 -0.3660 -3.1090
  182MOL0     H24509   4.081   8.266   4.980  0.0584  0.0294 -2.7764
  182MOL0     H24510   3.927   8.186   4.953 -1.5007 -0.4182  1.2074
  182MOL0     H24511   4.132   8.149   4.802 -1.8808  0.8158  0.1916
  182MOL0     H24512   4.212   8.056   4.930  0.8080  1.3618  0.3927
  182MOL0     H24513   4.035   7.884   4.922  1.8226  1.9122  0.9294
  182MOL0     H24514   3.931   7.983   4.813  0.5444 -0.5280 -1.6754
  182MOL0     H24515   4.165   7.961   4.651  1.4183 -0.3923  0.6982
  182MOL0     H24516   4.210   7.863   4.772 -1.0204 -1.9630 -0.2298
  182MOL0     H24517   3.949   7.817   4.616 -0.4108 -0.1089  1.4762
  182MOL0     H24518   3.981   7.725   4.752  0.7077  1.2581  1.5555
  182MOL0     H24519   4.200   7.652   4.671  0.3245  1.3868  1.0833
  182MOL0     H24520   4.058   7.585   4.582 -0.0414  0.1206 -1.7310
  182MOL0     H24521   4.401   7.719   4.494  1.9476  5.3961 -1.8224
  182MOL0     H24522   4.502   7.776   4.246 -3.0523 -2.4170  3.6241
  182MOL0     H24523   4.429   7.939   4.190 -1.2427  2.2403  2.3632
  182MOL0     H24524   4.548   7.864   4.454 -1.1002 -1.6295 -1.2650
  182MOL0     H24525   4.628   7.964   4.347  1.8568 -0.4077  4.8650
  182MOL0     H24526   4.353   8.048   4.428  0.2075  1.9451  1.4863
  182MOL0     H24527   4.497   8.137   4.377 -0.0222 -0.2782 -0.5649
  182MOL0     H24528   4.484   8.170   4.612 -2.0167 -0.4679 -1.4819
  182MOL0     H24529   4.621   8.063   4.589 -0.6073 -2.0511 -0.3870
  182MOL0     H24530   4.529   8.190   4.826 -1.3768  1.8014  4.0703
  182MOL0     H24531   4.566   8.191   5.068 -0.1985 -0.4289  0.2106
  182MOL0     H24532   4.827   7.889   5.383 -1.2413 -1.2042  0.7178
  182MOL0     H24533   4.920   7.860   5.632  0.1946  1.4056  1.3019
  182MOL0     H24534   4.845   7.782   5.843  2.0931  2.0873 -6.1088
  182MOL0     H24535   4.985   7.888   5.861 -0.4043 -0.8025  0.0416
  182MOL0     H24536   4.933   7.784   6.084  1.0309  0.8840  0.5325
  182MOL0     H24537   4.900   7.952   6.095 -1.8764  0.7978 -0.4791
  182MOL0     H24538   4.687   7.871   6.169 -0.6064 -2.2741 -0.0972
  182MOL0     H24539   4.647   7.869   5.994 -0.9544 -1.1642 -0.2189
  182MOL0     H24540   4.763   7.624   6.138  0.5986 -0.6698 -1.4637
  182MOL0     H24541   4.671   7.639   5.991 -4.5162 -1.7650  1.2789
  182MOL0     H24542   4.496   7.578   6.140 -1.0432  0.9670  0.5792
  182MOL0     H24543   4.483   7.765   6.140  0.0998  2.1565  2.7862
  182MOL0     H24544   4.634   7.740   6.357 -1.4410  1.4221 -0.2103
  182MOL0     H24545   4.468   7.692   6.370  2.0228 -0.3655  0.9440
  182MOL0     H24546   4.686   7.549   6.457 -0.6666 -3.7502  2.1713
  182MOL0     H24547   4.667   7.477   6.295 -0.5493  0.0636  0.2712
  182MOL0     H24548   4.420   7.439   6.383 -1.3334  0.3208  1.7102
  182MOL0     H24549   4.557   7.358   6.472 -2.5276 -1.6664  1.3717
  182MOL0     H24550   4.608   8.115   5.759  1.6331 -1.4505  1.8815
  182MOL0     H24551   4.547   8.173   5.536 -1.8732 -1.3151 -2.3146
  182MOL0     H24552   4.446   7.776   5.090  2.6397 -1.7625 -0.9922
  182MOL0     H24553   4.448   7.776   4.833 -1.3572  0.9245  0.1096
  182MOL0     H24554   4.292   8.230   5.428 -0.1433 -0.1163 -0.1293
  182MOL0     H24555   4.436   8.393   5.564  0.1235 -2.2974  0.2568
  182MOL0     H24556   4.794   8.682   5.496 -0.7760 -1.5012  0.4453
  182MOL0     H24557   4.943   8.843   5.549 -1.2986 -1.1921 -2.2054
  182MOL0     H24558   5.046   8.997   5.661 -0.5248 -0.7505 -0.0556
  182MOL0     H24559   5.042   9.134   5.766  1.9871 -1.7703 -0.1157
  182MOL0     H24560   5.023   9.267   5.554 -1.1989  0.4655  0.1898
  182MOL0     H24561   5.024   9.105   5.464  0.5739 -1.8737  0.9120
  182MOL0     H24562   5.248   9.082   5.490  0.4647  1.3997 -1.9292
  182MOL0     H24563   5.253   9.158   5.650  0.2153 -2.5566  0.3824
  182MOL0     H24564   5.229   9.370   5.556 -1.2339  1.3032  0.2810
  182MOL0     H24565   5.366   9.289   5.468 -0.3696  4.2658 -2.7953
  182MOL0     H24566   5.058   9.330   5.168  1.6798 -1.4193 -2.3465
  182MOL0     H24567   4.628   9.085   5.721  0.6717  0.2827 -2.2049
  182MOL0     H24568   4.394   8.850   5.755  1.0202  1.3004  1.8000
  182MOL0     H24569   4.408   9.021   5.710  0.0317  0.1397 -0.8149
  182MOL0     H24570   4.343   8.917   5.596 -1.8446  0.1028  0.7218
  183MOL0     O24571   7.255   5.230   3.293 -0.1235  0.9117  0.2772
  183MOL0     C24572   7.194   5.152   3.365  1.4449  0.2642  0.1153
  183MOL0     O24573   7.098   5.187   3.463 -0.3036  0.6496 -0.0685
  183MOL0     C24574   7.104   5.323   3.506 -0.4895 -0.1331  0.2797
  183MOL0     C24575   7.219   5.381   3.557  0.4288  0.3441  0.9573
  183MOL0     C24576   7.220   5.521   3.605  0.5496 -0.6021  0.0140
  183MOL0     C24577   7.097   5.598   3.590 -0.4160 -0.1582 -0.5937
  183MOL0     O24578   7.082   5.723   3.639 -0.1710 -0.4711  1.0371
  183MOL0     C24579   7.185   5.820   3.609  0.4291 -0.4763 -0.5421
  183MOL0     C24580   7.172   5.925   3.721 -0.7047  0.2141  0.2831
  183MOL0     C24581   7.255   6.052   3.677  0.0858 -0.1966  0.5014
  183MOL0     C24582   7.223   6.152   3.785  0.2312 -0.2155 -0.0183
  183MOL0     C24583   7.307   6.284   3.761 -0.4948 -0.4327  0.5766
  183MOL0     C24584   7.460   6.272   3.777 -0.0207  0.2728 -0.1854
  183MOL0     C24585   7.527   6.394   3.834  0.1995  0.6758  0.1229
  183MOL0     C24586   7.509   6.512   3.748 -0.6030  1.5428  0.0441
  183MOL0     N24587   7.565   6.642   3.793  0.3955 -0.5484 -0.4631
  183MOL0     C24588   7.614   6.661   3.917  0.0400  0.6478 -0.9269
  183MOL0     C24589   7.699   6.770   3.904  0.6192  1.1261  0.7175
  183MOL0     C24590   7.784   6.848   3.999  0.4203  0.1261  0.0070
  183MOL0     C24591   7.907   6.763   4.028  0.1647  0.6155  0.5932
  183MOL0     C24592   8.003   6.845   4.127 -1.4015  1.0050 -0.5743
  183MOL0     C24593   8.159   6.818   4.123  0.2065 -0.3391  0.8295
  183MOL0     O24594   8.241   6.909   4.200 -0.1081 -0.2622 -0.2048
  183MOL0     C24595   8.209   6.921   4.342 -0.1469  0.4691 -0.1264
  183MOL0     C24596   8.265   7.028   4.415 -0.6094 -0.2265 -0.2548
  183MOL0     C24597   8.241   7.035   4.558  0.0910  0.0154 -0.4573
  183MOL0     C24598   8.172   6.938   4.626  0.4344 -1.1593  0.3980
  183MOL0     C24599   8.150   6.954   4.771  0.6461  0.4841 -0.2067
  183MOL0     O24600   8.107   6.844   4.838 -0.3029 -0.4182  0.1951
  183MOL0     C24601   8.068   6.857   4.962  0.2142 -0.3406 -0.1284
  183MOL0     C24602   7.956   6.925   5.007 -0.3180 -0.2761  0.0185
  183MOL0     C24603   7.916   6.915   5.147 -0.1340 -0.2491 -0.4574
  183MOL0     C24604   7.999   6.847   5.237 -0.0878  0.2458  0.6180
  183MOL0     O24605   7.982   6.831   5.367  0.3527  0.0187 -0.3653
  183MOL0     C24606   7.895   6.917   5.439  0.0506  0.3485  0.2337
  183MOL0     C24607   7.914   6.883   5.593  1.0785  0.8194  0.9506
  183MOL0     C24608   7.882   7.004   5.681  0.7210  0.1508  0.0189
  183MOL0     C24609   7.762   6.997   5.782  0.1416  0.1209 -0.9501
  183MOL0     C24610   7.752   7.109   5.876 -0.5225  1.0381 -0.8976
  183MOL0     C24611   7.745   7.247   5.812  0.6089 -0.0124  0.4756
  183MOL0     C24612   7.755   7.353   5.928 -1.0322 -1.4533  0.8540
  183MOL0     C24613   7.631   7.360   6.012 -0.3248 -0.2682  0.1329
  183MOL0    Cl24614   7.628   7.479   6.143 -0.0143  0.4906  0.6251
  183MOL0     C24615   8.110   6.787   5.184  0.4949  0.8315 -0.3839
  183MOL0     C24616   8.137   6.791   5.048  0.1090 -0.0278  0.1715
  183MOL0     O24617   8.160   7.065   4.823 -0.0720 -0.4790  0.0611
  183MOL0     C24618   8.130   6.826   4.559 -0.4266 -0.3610  0.0254
  183MOL0     C24619   8.152   6.818   4.420 -0.2024 -0.2095  0.4858
  183MOL0     N24620   7.711   6.807   3.770  0.7730  0.3236  0.3904
  183MOL0     N24621   7.638   6.716   3.706 -0.6412  0.3529  0.4293
  183MOL0     C24622   6.984   5.528   3.543 -0.2672 -0.5434  0.2003
  183MOL0     C24623   6.999   5.405   3.494 -0.1462 -0.5215 -0.1458
  183MOL0     C24624   7.212   5.003   3.351  0.2247  0.1502 -0.0409
  183MOL0     C24625   7.122   4.918   3.414  0.8665  0.3956 -0.4776
  183MOL0     C24626   7.122   4.782   3.408 -0.7077  0.0937  0.3483
  183MOL0     C24627   7.230   4.722   3.345  0.3882  0.4725  0.7400
  183MOL0     O24628   7.245   4.591   3.360  0.2836 -0.2268 -0.6206
  183MOL0     C24629   7.188   4.506   3.263  0.0389 -0.8289  0.8912
  183MOL0     C24630   7.087   4.416   3.313  0.3212 -0.1407  0.1748
  183MOL0     C24631   7.118   4.275   3.262 -0.1815 -0.1755  0.2476
  183MOL0     C24632   6.993   4.207   3.208 -0.7082 -0.4167 -0.2052
  183MOL0     C24633   6.945   4.269   3.083  0.2096 -0.6341  0.1945
  183MOL0     C24634   6.912   4.323   2.970  0.1344  0.9591 -0.0957
  183MOL0     C24635   7.332   4.792   3.288  0.4427 -1.2686 -0.0120
  183MOL0     C24636   7.318   4.935   3.281  0.5191  0.5325  0.2548
  183MOL0     C24637   7.439   5.014   3.221 -0.1823 -0.2227  0.0398
  183MOL0     H24638   7.312   5.325   3.556 -0.6056 -1.6073 -2.5264
  183MOL0     H24639   7.312   5.575   3.628  0.7830 -0.6582 -0.7774
  183MOL0     H24640   7.288   5.788   3.626  0.0404 -1.6812 -0.3494
  183MOL0     H24641   7.165   5.865   3.512 -1.8972 -1.3828 -0.5471
  183MOL0     H24642   7.222   5.887   3.810 -0.4358 -1.6225 -0.6183
  183MOL0     H24643   7.067   5.955   3.732 -1.1834 -1.4387  0.4325
  183MOL0     H24644   7.201   6.087   3.588 -1.6086 -1.7059  0.8588
  183MOL0     H24645   7.359   6.027   3.654  1.2704  2.0302  2.9720
  183MOL0     H24646   7.120   6.185   3.801  1.0554  0.9684  4.1569
  183MOL0     H24647   7.261   6.112   3.880  0.2861  1.2665  0.6141
  183MOL0     H24648   7.278   6.311   3.659 -1.6214  0.5562  1.1312
  183MOL0     H24649   7.262   6.369   3.814 -1.9487  0.2992 -1.6730
  183MOL0     H24650   7.469   6.197   3.856  2.4257  0.5906 -0.0869
  183MOL0     H24651   7.517   6.240   3.689  3.3951  3.8624  0.4393
  183MOL0     H24652   7.636   6.383   3.833  0.0212 -3.0784  1.7556
  183MOL0     H24653   7.483   6.417   3.932 -2.4471 -1.8435 -0.3271
  183MOL0     H24654   7.543   6.493   3.646 -1.1921 -0.2688  0.1580
  183MOL0     H24655   7.407   6.539   3.721 -0.7661  1.9755  1.0240
  183MOL0     H24656   7.598   6.595   4.001 -0.9758  0.8417 -0.9472
  183MOL0     H24657   7.822   6.941   3.956 -0.8216  0.3586 -0.6095
  183MOL0     H24658   7.722   6.873   4.086 -1.8257 -1.3753 -1.0759
  183MOL0     H24659   7.893   6.666   4.076 -1.2417  0.9861  0.9784
  183MOL0     H24660   7.964   6.747   3.936 -0.3105  0.3235  0.3452
  183MOL0     H24661   7.969   6.829   4.231  1.5247 -1.7531  0.1109
  183MOL0     H24662   8.000   6.953   4.110  2.8666  1.5248  0.8075
  183MOL0     H24663   8.174   6.834   4.016 -1.3409  2.1886  0.8894
  183MOL0     H24664   8.174   6.715   4.154  2.8449 -0.0728  0.6667
  183MOL0     H24665   8.327   7.096   4.359  1.9210 -2.2514 -0.1036
  183MOL0     H24666   8.294   7.104   4.623 -0.5231  0.6325 -0.6049
  183MOL0     H24667   7.910   6.975   4.923  1.1307  2.4245  0.7401
  183MOL0     H24668   7.827   6.967   5.181  1.7079  0.8385  3.1730
  183MOL0     H24669   7.934   7.018   5.426  2.2704 -0.5220 -0.3337
  183MOL0     H24670   7.789   6.915   5.413 -0.3384  3.2118  1.1642
  183MOL0     H24671   7.861   6.792   5.621  3.2076 -0.6356  0.4815
  183MOL0     H24672   8.021   6.863   5.601  1.8913  1.6884 -4.2598
  183MOL0     H24673   7.974   7.025   5.737  1.0608 -3.6916  1.1921
  183MOL0     H24674   7.864   7.097   5.627 -1.1282  0.9885  1.9354
  183MOL0     H24675   7.778   6.907   5.841 -3.2500  0.0957  0.1428
  183MOL0     H24676   7.665   6.996   5.732 -0.7609 -0.8572  0.7450
  183MOL0     H24677   7.840   7.098   5.940 -0.4257 -4.3245 -1.4754
  183MOL0     H24678   7.658   7.109   5.932 -0.1658  0.0558 -0.2623
  183MOL0     H24679   7.826   7.270   5.742 -2.0760  1.3680 -2.3868
  183MOL0     H24680   7.649   7.257   5.762  1.3125 -1.0220 -1.1276
  183MOL0     H24681   7.779   7.446   5.875  0.0680 -1.6497  0.9892
  183MOL0     H24682   7.836   7.339   6.000 -2.2280  1.9204  3.1194
  183MOL0     H24683   7.545   7.378   5.946 -3.6481  2.9459  4.6881
  183MOL0     H24684   7.613   7.260   6.052  2.4144 -1.5348 -1.4887
  183MOL0     H24685   8.167   6.730   5.257  0.9857 -0.0392 -1.4241
  183MOL0     H24686   8.225   6.736   5.016 -0.0643  0.8808 -1.9981
  183MOL0     H24687   8.067   6.749   4.604  1.0389 -1.3785  0.3898
  183MOL0     H24688   8.115   6.723   4.383  0.3952 -0.6421  0.9790
  183MOL0     H24689   6.887   5.576   3.532  0.1470  0.4646  0.8016
  183MOL0     H24690   6.917   5.363   3.436 -0.1030 -0.2058 -0.4342
  183MOL0     H24691   7.047   4.966   3.477 -0.5816 -1.4395 -0.7302
  183MOL0     H24692   7.054   4.711   3.455 -0.0977 -0.7655 -0.0269
  183MOL0     H24693   7.269   4.445   3.221 -2.0055 -3.4440  0.5139
  183MOL0     H24694   7.141   4.553   3.176 -0.3789 -1.9790  0.4776
  183MOL0     H24695   6.989   4.457   3.285  1.4232  0.9826 -2.2932
  183MOL0     H24696   7.093   4.423   3.422  1.4429  2.7564  0.0225
  183MOL0     H24697   7.167   4.230   3.349 -1.6849 -0.8518  0.7700
  183MOL0     H24698   7.196   4.262   3.187  0.4342  1.8154  0.4816
  183MOL0     H24699   7.012   4.100   3.194 -1.1257 -0.9503  2.6037
  183MOL0     H24700   6.908   4.220   3.275 -2.4454  4.3081 -2.8677
  183MOL0     H24701   6.862   4.367   2.887  0.4668  1.9595  0.2131
  183MOL0     H24702   7.413   4.730   3.252 -0.7899 -3.9094  1.4512
  183MOL0     H24703   7.418   5.088   3.144 -1.2395 -2.3016 -1.7893
  183MOL0     H24704   7.479   5.060   3.312 -0.7786 -1.4851  0.9922
  183MOL0     H24705   7.508   4.940   3.180 -2.1120 -1.3600 -1.3381
  184MOL0     O24706   9.587   9.533   8.073  0.0879  0.6724 -0.2031
  184MOL0     C24707   9.634   9.645   8.045  0.1324  0.0405 -0.4292
  184MOL0     O24708   9.554   9.748   7.991 -1.0158 -0.0827 -0.1295
  184MOL0     C24709   9.420   9.741   7.978  0.7867  0.5214  0.8399
  184MOL0     C24710   9.337   9.680   8.075 -0.2001  0.4512  0.5217
  184MOL0     C24711   9.199   9.655   8.050  0.1590 -1.0820 -0.0487
  184MOL0     C24712   9.140   9.704   7.936 -0.5808  0.0897  0.0639
  184MOL0     O24713   9.011   9.704   7.909 -0.2001  0.3723 -0.1788
  184MOL0     C24714   8.922   9.583   7.934 -0.1944  1.5726 -0.7222
  184MOL0     C24715   8.771   9.615   7.916  0.5220  0.6949  0.6444
  184MOL0     C24716   8.676   9.500   7.952 -0.3686 -0.1663  0.8007
  184MOL0     C24717   8.533   9.527   7.897 -0.2966 -0.0252 -0.2829
  184MOL0     C24718   8.451   9.402   7.906 -0.8618 -0.1474  0.4916
  184MOL0     C24719   8.436   9.326   8.042  0.3158  0.8176  0.4248
  184MOL0     C24720   8.342   9.205   8.037  1.0657 -0.2281  0.4497
  184MOL0     C24721   8.314   9.155   8.185 -0.0391 -1.0222 -0.3829
  184MOL0     N24722   8.222   9.250   8.257  0.6338 -0.1679 -0.3868
  184MOL0     C24723   8.259   9.366   8.317 -0.0494  0.6129 -0.0398
  184MOL0     C24724   8.151   9.420   8.373  0.3300  0.2278 -0.2336
  184MOL0     C24725   8.146   9.550   8.455  0.9257 -0.1238 -0.0422
  184MOL0     C24726   8.280   9.599   8.497  0.4829  0.3567  0.5222
  184MOL0     C24727   8.346   9.501   8.600 -0.6441 -0.3598  0.0996
  184MOL0     C24728   8.494   9.545   8.617 -0.0424 -0.1740 -1.0539
  184MOL0     O24729   8.568   9.521   8.496  0.5558  0.2764  1.1496
  184MOL0     C24730   8.698   9.561   8.487 -0.8303 -0.2309  0.2452
  184MOL0     C24731   8.779   9.481   8.402 -0.5610 -1.1293  0.0080
  184MOL0     C24732   8.913   9.510   8.382 -0.5816  0.0084  0.2028
  184MOL0     C24733   8.972   9.619   8.452 -1.0337  0.3574  0.1008
  184MOL0     C24734   9.115   9.643   8.448  0.2079 -0.1450  0.0196
  184MOL0     O24735   9.157   9.752   8.522 -0.1764 -0.2132 -0.5231
  184MOL0     C24736   9.290   9.749   8.543 -0.0319 -0.7675  0.0106
  184MOL0     C24737   9.333   9.741   8.669 -0.9183 -0.3896 -1.0521
  184MOL0     C24738   9.461   9.754   8.716 -0.3187  0.2243  0.1341
  184MOL0     C24739   9.561   9.775   8.615 -0.0596  0.4571 -0.9996
  184MOL0     O24740   9.693   9.802   8.642 -0.1863  0.5793 -0.6235
  184MOL0     C24741   9.729   9.856   8.767 -0.6859  0.0108  0.2131
  184MOL0     C24742   9.881   9.889   8.771  1.5578 -0.8987  0.4173
  184MOL0     C24743   9.935   9.868   8.915 -0.4338  0.5755 -0.5445
  184MOL0     C24744  10.089   9.874   8.915  0.0458 -0.3136  0.8630
  184MOL0     C24745  10.155   9.806   9.041 -1.4035  0.1897 -0.4105
  184MOL0     C24746  10.119   9.883   9.161 -0.1325 -0.0162 -0.6599
  184MOL0     C24747  10.166   9.813   9.295  0.7215 -0.0620  0.4521
  184MOL0     C24748  10.046   9.786   9.389 -0.6639  0.5090  0.0507
  184MOL0    Cl24749   9.936   9.927   9.412 -0.2489  0.3810 -0.5215
  184MOL0     C24750   9.531   9.781   8.489 -0.5736 -0.2558  0.2726
  184MOL0     C24751   9.390   9.775   8.451 -1.6009  0.5873  0.1944
  184MOL0     O24752   9.187   9.564   8.397  0.2148  0.4368 -0.2904
  184MOL0     C24753   8.885   9.707   8.519 -0.1943  0.3139 -0.5653
  184MOL0     C24754   8.750   9.679   8.540 -0.3728 -0.5655  0.2506
  184MOL0     N24755   8.049   9.340   8.343  0.1092  0.7687 -0.1829
  184MOL0     N24756   8.092   9.239   8.269 -0.3989  0.0002 -0.0293
  184MOL0     C24757   9.224   9.772   7.841  0.0149 -0.0501 -0.5969
  184MOL0     C24758   9.358   9.798   7.866 -0.6779  0.7518  0.1523
  184MOL0     C24759   9.772   9.685   8.059 -0.3328 -0.4777  0.5916
  184MOL0     C24760   9.815   9.820   8.017  0.5664  0.2397 -0.7290
  184MOL0     C24761   9.948   9.867   8.026  0.0566 -0.8484  0.2051
  184MOL0     C24762  10.045   9.775   8.073 -0.0456 -0.4523  0.0252
  184MOL0     O24763  10.174   9.815   8.108 -0.2242  0.3306  0.9797
  184MOL0     C24764  10.198   9.948   8.140  0.0829 -0.8255  0.6844
  184MOL0     C24765  10.328   9.959   8.220 -0.0204  0.8191  0.3783
  184MOL0     C24766  10.444   9.930   8.121  0.0788 -0.3330 -0.1870
  184MOL0     C24767  10.576   9.925   8.188  1.2955 -1.0118  0.0125
  184MOL0     C24768  10.618  10.067   8.226 -0.4616  0.8981 -0.3605
  184MOL0     C24769  10.656  10.171   8.269  0.3068  0.6307 -0.2303
  184MOL0     C24770  10.001   9.649   8.118  0.2173 -0.2432  0.1575
  184MOL0     C24771   9.868   9.606   8.121  0.1158 -0.5541  0.7997
  184MOL0     C24772   9.830   9.469   8.175 -0.8027 -0.8489  0.5251
  184MOL0     H24773   9.374   9.646   8.172 -0.3078  2.1363  1.1817
  184MOL0     H24774   9.134   9.600   8.117 -0.1199 -1.5698 -0.7105
  184MOL0     H24775   8.948   9.507   7.860 -1.6252  0.7223 -0.3879
  184MOL0     H24776   8.939   9.538   8.032 -2.1047 -0.2794 -1.1766
  184MOL0     H24777   8.743   9.648   7.815  0.2247 -0.9365  0.1728
  184MOL0     H24778   8.732   9.693   7.983 -1.4331  1.6391 -1.4409
  184MOL0     H24779   8.671   9.503   8.061  2.5873  0.9553  0.9925
  184MOL0     H24780   8.711   9.406   7.907 -0.7152  1.4202 -3.1475
  184MOL0     H24781   8.491   9.618   7.941  0.0108 -0.4672  0.9603
  184MOL0     H24782   8.538   9.556   7.791  0.4995 -0.9708 -0.5215
  184MOL0     H24783   8.354   9.434   7.866 -1.1895 -2.0190 -0.2885
  184MOL0     H24784   8.490   9.322   7.843  0.5568  0.2509  0.8162
  184MOL0     H24785   8.535   9.314   8.086  0.0370  3.0204  1.8175
  184MOL0     H24786   8.394   9.403   8.106  1.3966  0.9509  0.9966
  184MOL0     H24787   8.395   9.132   7.976 -0.9356 -0.9322 -0.5100
  184MOL0     H24788   8.251   9.218   7.978  2.3397  1.4625 -1.2934
  184MOL0     H24789   8.274   9.053   8.176 -1.6689 -0.3467 -1.2146
  184MOL0     H24790   8.403   9.139   8.247 -0.1225 -0.5728 -0.1464
  184MOL0     H24791   8.359   9.404   8.334 -1.0074  4.0442 -1.1364
  184MOL0     H24792   8.095   9.619   8.388 -3.1268 -2.3712  0.4107
  184MOL0     H24793   8.074   9.543   8.537 -0.8894 -2.2789 -1.7292
  184MOL0     H24794   8.337   9.610   8.404 -2.6827 -0.1902 -1.6562
  184MOL0     H24795   8.262   9.698   8.539  0.5179  0.2793  0.7225
  184MOL0     H24796   8.335   9.403   8.553 -0.7320 -1.2930  1.9718
  184MOL0     H24797   8.289   9.500   8.693 -1.1262 -0.9133 -0.2002
  184MOL0     H24798   8.534   9.503   8.709 -1.9684 -1.5972 -0.8011
  184MOL0     H24799   8.493   9.653   8.636 -1.3269 -0.1121 -1.3797
  184MOL0     H24800   8.736   9.421   8.323  2.1586 -0.0230 -2.4767
  184MOL0     H24801   8.964   9.451   8.307  0.9020  1.5827 -0.0917
  184MOL0     H24802   9.252   9.739   8.741  0.9868 -3.0295  1.2141
  184MOL0     H24803   9.495   9.728   8.815  1.2086  2.5969  0.3312
  184MOL0     H24804   9.665   9.943   8.786 -0.8497 -0.1869  0.5513
  184MOL0     H24805   9.710   9.774   8.836 -1.0333 -2.0891 -2.2405
  184MOL0     H24806   9.922   9.812   8.705  0.0071  0.3227 -2.0879
  184MOL0     H24807   9.904   9.990   8.739  1.7289 -1.6032 -1.8237
  184MOL0     H24808   9.907   9.948   8.983 -2.2161 -2.0989  2.1358
  184MOL0     H24809   9.890   9.777   8.957 -1.8868  1.2589 -0.5722
  184MOL0     H24810  10.122   9.977   8.900  0.2498 -0.6206 -1.0182
  184MOL0     H24811  10.127   9.823   8.826  0.8441  2.6762 -0.6284
  184MOL0     H24812  10.263   9.795   9.032 -1.6441 -2.8540 -0.5879
  184MOL0     H24813  10.118   9.703   9.040  1.1735 -0.8250 -1.8824
  184MOL0     H24814  10.160   9.985   9.160 -1.2368  0.4435 -0.2291
  184MOL0     H24815  10.011   9.887   9.174 -0.3442 -1.3635 -1.7549
  184MOL0     H24816  10.235   9.881   9.346  1.7498  0.9438 -2.0956
  184MOL0     H24817  10.212   9.715   9.282 -1.0229 -0.6507 -2.0174
  184MOL0     H24818   9.985   9.706   9.347  0.9647 -0.0170 -1.4578
  184MOL0     H24819  10.087   9.762   9.487  2.7562 -0.9263 -1.5332
  184MOL0     H24820   9.602   9.803   8.410 -0.0770 -2.1369  0.1346
  184MOL0     H24821   9.375   9.792   8.345  2.4239  1.9948 -0.3333
  184MOL0     H24822   8.932   9.792   8.569  0.9963  0.1356 -1.3347
  184MOL0     H24823   8.683   9.736   8.604  0.2874 -0.4541  0.8676
  184MOL0     H24824   9.192   9.810   7.745  3.8054  1.9232 -1.2373
  184MOL0     H24825   9.422   9.840   7.788 -0.3402 -0.5245 -0.2872
  184MOL0     H24826   9.754   9.887   7.957  2.4990  2.6396 -0.1439
  184MOL0     H24827   9.981   9.961   7.982  2.2732 -0.4947  2.4515
  184MOL0     H24828  10.127   9.990   8.212  2.9422  1.4622  2.4093
  184MOL0     H24829  10.200  10.012   8.051  2.4650 -0.1786  1.1288
  184MOL0     H24830  10.316   9.883   8.298 -2.0285  0.2503 -0.4131
  184MOL0     H24831  10.346  10.052   8.273 -1.0320  0.7935  0.7893
  184MOL0     H24832  10.459   9.998   8.036  0.0431  0.5561  0.5108
  184MOL0     H24833  10.425   9.827   8.089  0.8870 -0.2517 -0.9811
  184MOL0     H24834  10.570   9.869   8.282 -2.0084 -2.1905 -0.7446
  184MOL0     H24835  10.647   9.874   8.122 -1.8790 -3.2200 -1.9840
  184MOL0     H24836  10.690  10.263   8.312  0.8845 -0.3534  1.4857
  184MOL0     H24837  10.073   9.588   8.172 -1.0324 -1.3111  0.6703
  184MOL0     H24838   9.758   9.487   8.256 -1.7485  3.2594 -1.0258
  184MOL0     H24839   9.792   9.404   8.095 -2.7657  1.5498 -0.6458
  184MOL0     H24840   9.924   9.437   8.221  0.8062  2.0802 -0.5059
  185MOL0     O24841   2.931   7.638   1.438 -0.3913  0.4824  0.8170
  185MOL0     C24842   3.044   7.587   1.433  0.4691  0.2379 -0.9622
  185MOL0     O24843   3.080   7.466   1.477  0.6796 -0.4395 -0.1941
  185MOL0     C24844   2.986   7.373   1.521 -0.0011 -0.4851 -1.0848
  185MOL0     C24845   3.030   7.262   1.593 -0.4682 -0.6437 -0.1151
  185MOL0     C24846   2.941   7.183   1.662  0.7854  1.3351  0.1057
  185MOL0     C24847   2.813   7.178   1.623  0.5390 -0.9342  0.4652
  185MOL0     O24848   2.732   7.072   1.652  0.2950  0.1435  0.7547
  185MOL0     C24849   2.675   6.991   1.549 -0.0101  0.0597 -1.5172
  185MOL0     C24850   2.567   6.909   1.605  0.6884  0.5103 -0.7615
  185MOL0     C24851   2.459   6.994   1.665 -0.1716 -0.0977  0.0479
  185MOL0     C24852   2.349   6.904   1.730  0.4321  0.4724  0.6549
  185MOL0     C24853   2.241   6.990   1.793  0.0894 -0.6500  0.4172
  185MOL0     C24854   2.151   6.913   1.894 -0.2802  0.2427 -0.9272
  185MOL0     C24855   2.039   6.994   1.967  0.0571 -0.1818  0.0445
  185MOL0     C24856   1.917   7.017   1.878  0.0604  1.1920  0.1162
  185MOL0     N24857   1.835   7.104   1.948  0.8811 -0.2201  0.3542
  185MOL0     C24858   1.853   7.226   2.003  0.0960 -0.2932  0.6061
  185MOL0     C24859   1.773   7.248   2.104  1.1753 -0.6348  0.6665
  185MOL0     C24860   1.751   7.357   2.204  0.0923 -0.1712 -0.0794
  185MOL0     C24861   1.774   7.499   2.163 -0.1323 -0.1114  0.2520
  185MOL0     C24862   1.742   7.591   2.283  0.1869  0.4202 -0.0989
  185MOL0     C24863   1.798   7.735   2.253 -0.4843 -0.1026 -0.2138
  185MOL0     O24864   1.865   7.779   2.378  0.7239 -0.3919  0.0300
  185MOL0     C24865   2.002   7.763   2.383 -1.0984 -0.3844  0.0565
  185MOL0     C24866   2.064   7.832   2.487  0.4269 -1.0576 -0.6785
  185MOL0     C24867   2.198   7.797   2.524 -0.6007 -0.2616  0.2899
  185MOL0     C24868   2.270   7.718   2.442 -0.5561  1.0901 -0.5884
  185MOL0     C24869   2.405   7.685   2.477  0.1212 -0.1311 -0.1103
  185MOL0     O24870   2.444   7.726   2.601  0.8272 -0.7060 -0.3324
  185MOL0     C24871   2.578   7.765   2.626  0.3125  0.2577  0.2664
  185MOL0     C24872   2.638   7.724   2.745  0.0531  0.0921 -0.3118
  185MOL0     C24873   2.747   7.793   2.782 -0.8027 -0.2474 -0.2951
  185MOL0     C24874   2.817   7.900   2.714 -0.8472  0.8827 -0.6318
  185MOL0     O24875   2.935   7.964   2.756  0.8779 -0.1549  0.4767
  185MOL0     C24876   2.953   7.992   2.901 -0.6214 -0.3891  0.7296
  185MOL0     C24877   3.056   8.107   2.920 -0.5127 -0.2009 -0.8527
  185MOL0     C24878   3.048   8.140   3.063  0.1931 -0.6696 -0.0515
  185MOL0     C24879   3.183   8.191   3.112  0.5750 -0.2849 -0.3012
  185MOL0     C24880   3.227   8.332   3.058  1.3055  0.1815  0.7447
  185MOL0     C24881   3.361   8.353   3.127  0.5577 -0.1375 -0.7724
  185MOL0     C24882   3.417   8.493   3.118 -0.4080 -0.8038 -0.3049
  185MOL0     C24883   3.517   8.499   3.010 -0.3076  0.2711 -0.2674
  185MOL0    Cl24884   3.446   8.488   2.847  0.2247  0.1540 -0.2835
  185MOL0     C24885   2.755   7.926   2.591 -1.2629 -0.0379 -0.1092
  185MOL0     C24886   2.641   7.866   2.549  0.0723  0.1882  1.0554
  185MOL0     O24887   2.478   7.631   2.386 -0.2556  0.1967 -0.2655
  185MOL0     C24888   2.208   7.656   2.337 -0.1876  0.0750 -0.9366
  185MOL0     C24889   2.079   7.682   2.303 -0.0027 -0.2860  0.0427
  185MOL0     N24890   1.690   7.137   2.111  0.0881 -0.7964  0.3456
  185MOL0     N24891   1.729   7.059   2.015  0.1090  1.3752  0.0636
  185MOL0     C24892   2.767   7.273   1.528 -0.2716 -0.0934 -0.5265
  185MOL0     C24893   2.851   7.374   1.485  0.4905 -0.5698  0.3785
  185MOL0     C24894   3.161   7.656   1.399 -0.0416 -0.3317  0.3248
  185MOL0     C24895   3.268   7.595   1.328  0.2225  0.4411 -0.4707
  185MOL0     C24896   3.383   7.654   1.284 -0.0470  0.1591 -0.0054
  185MOL0     C24897   3.392   7.794   1.292  0.4222  0.5513  0.4107
  185MOL0     O24898   3.490   7.855   1.223 -0.5085  0.1056  0.6088
  185MOL0     C24899   3.438   7.883   1.093 -0.0791  0.0907 -0.1508
  185MOL0     C24900   3.552   7.914   0.992 -0.7127  0.8097  0.2563
  185MOL0     C24901   3.649   7.794   0.968 -0.3387  1.2231 -0.2257
  185MOL0     C24902   3.805   7.837   0.991  0.5111 -0.6493  0.2903
  185MOL0     C24903   3.899   7.755   0.911 -0.2231 -0.1551  0.0432
  185MOL0     C24904   3.958   7.685   0.833  0.2482  0.5215  0.3841
  185MOL0     C24905   3.297   7.859   1.365  0.0284 -0.7028 -0.0210
  185MOL0     C24906   3.189   7.790   1.427 -0.7646 -0.9100  0.5079
  185MOL0     C24907   3.084   7.869   1.505  0.1994  0.3504 -0.2898
  185MOL0     H24908   3.132   7.239   1.623 -1.5676 -3.1437  2.1546
  185MOL0     H24909   2.974   7.103   1.727 -1.2065 -0.7185 -1.2510
  185MOL0     H24910   2.633   7.052   1.469  4.4873  1.4453 -3.0707
  185MOL0     H24911   2.755   6.925   1.514  0.3930 -0.2240 -0.1354
  185MOL0     H24912   2.608   6.849   1.686  0.1842  2.4040  0.9752
  185MOL0     H24913   2.529   6.842   1.528  0.8620  1.3288 -1.5825
  185MOL0     H24914   2.409   7.040   1.579 -1.0690 -2.6892 -0.9025
  185MOL0     H24915   2.492   7.068   1.739 -0.3792 -0.2642  0.3091
  185MOL0     H24916   2.301   6.848   1.650 -3.0679  0.1286  2.7604
  185MOL0     H24917   2.392   6.838   1.805  0.3331 -1.6720 -1.0992
  185MOL0     H24918   2.289   7.073   1.844 -0.9298 -0.6154  1.3664
  185MOL0     H24919   2.193   7.032   1.704  3.7345 -0.6241 -1.7010
  185MOL0     H24920   2.105   6.824   1.851 -5.5574  2.2236 -0.1894
  185MOL0     H24921   2.221   6.893   1.976  0.4259 -2.3922 -2.0677
  185MOL0     H24922   2.082   7.090   1.996 -3.9858  1.4703  1.3034
  185MOL0     H24923   2.001   6.952   2.061  0.1372  1.4220  0.8319
  185MOL0     H24924   1.954   7.069   1.790 -0.5499 -0.3449 -1.0940
  185MOL0     H24925   1.866   6.923   1.857  0.8929  0.6509  0.4920
  185MOL0     H24926   1.933   7.295   1.979 -2.2827  2.7256  0.7738
  185MOL0     H24927   1.646   7.364   2.233  0.1542  3.5265 -0.2794
  185MOL0     H24928   1.815   7.324   2.286 -0.4091 -1.4070 -0.1680
  185MOL0     H24929   1.879   7.494   2.132 -0.0901 -0.7213  0.4804
  185MOL0     H24930   1.719   7.522   2.071  1.6681 -1.7496 -1.3188
  185MOL0     H24931   1.797   7.547   2.366  1.3584 -0.9946 -1.5790
  185MOL0     H24932   1.634   7.599   2.298 -0.5241 -3.2112 -2.0779
  185MOL0     H24933   1.717   7.804   2.227 -0.2501 -0.0645 -0.8785
  185MOL0     H24934   1.861   7.754   2.165 -0.3229 -0.9672 -0.2882
  185MOL0     H24935   2.012   7.899   2.555 -0.3045 -1.4092 -0.8824
  185MOL0     H24936   2.244   7.853   2.605 -3.5499  1.9365  0.6091
  185MOL0     H24937   2.590   7.663   2.822 -0.3275  1.3757  0.4970
  185MOL0     H24938   2.782   7.760   2.879 -4.2407 -1.8564  0.5722
  185MOL0     H24939   2.860   8.011   2.956 -0.1798 -0.5681  1.5583
  185MOL0     H24940   2.995   7.907   2.954  0.3794 -0.7342 -0.5666
  185MOL0     H24941   3.154   8.069   2.888 -0.0897 -0.0196  0.1940
  185MOL0     H24942   3.018   8.191   2.862 -1.0817  0.8225  0.9391
  185MOL0     H24943   2.967   8.209   3.087 -0.6114 -0.9295 -1.8607
  185MOL0     H24944   3.017   8.058   3.128 -1.3370  0.7917  1.1752
  185MOL0     H24945   3.258   8.115   3.088 -0.2285 -0.3656 -2.8823
  185MOL0     H24946   3.182   8.182   3.221 -0.2481 -1.0808 -0.3623
  185MOL0     H24947   3.158   8.415   3.080  2.0885  1.1855 -0.4495
  185MOL0     H24948   3.254   8.350   2.954  2.2747  0.8703  1.0932
  185MOL0     H24949   3.354   8.335   3.235  2.1167 -1.1838 -0.8178
  185MOL0     H24950   3.431   8.286   3.077  4.6739  3.0667  0.2318
  185MOL0     H24951   3.473   8.518   3.209  0.1691 -0.9760 -0.6065
  185MOL0     H24952   3.346   8.573   3.094  1.1303  1.3401  1.8125
  185MOL0     H24953   3.567   8.596   3.022  2.0703 -0.6061 -2.1943
  185MOL0     H24954   3.602   8.432   3.026  0.3623  1.2025  0.2100
  185MOL0     H24955   2.798   8.007   2.533  2.4521 -1.6624  0.1095
  185MOL0     H24956   2.597   7.901   2.456  1.8551 -1.3103 -0.4438
  185MOL0     H24957   2.265   7.582   2.281  2.7790 -0.7786  2.7789
  185MOL0     H24958   2.036   7.627   2.220  0.6370 -1.2360  0.3303
  185MOL0     H24959   2.662   7.279   1.502 -0.3802  0.5228  0.0309
  185MOL0     H24960   2.804   7.446   1.419  0.9527  0.3788  1.0492
  185MOL0     H24961   3.258   7.489   1.307  1.9397  0.3694 -1.0757
  185MOL0     H24962   3.450   7.586   1.232  0.6081  0.8650 -0.0964
  185MOL0     H24963   3.366   7.965   1.091  0.1171  0.2807  0.3268
  185MOL0     H24964   3.385   7.795   1.057  0.7643 -0.3227 -0.4224
  185MOL0     H24965   3.596   8.003   1.038  2.5518 -1.0446  1.0483
  185MOL0     H24966   3.500   7.931   0.897 -0.8158  0.8419  0.3179
  185MOL0     H24967   3.638   7.754   0.866  1.4347 -1.9047  0.6793
  185MOL0     H24968   3.616   7.714   1.035  1.7775  0.3456 -0.1523
  185MOL0     H24969   3.831   7.943   0.980  0.7138 -0.8148 -0.9316
  185MOL0     H24970   3.813   7.817   1.098  1.9525  0.7510  0.4828
  185MOL0     H24971   4.003   7.611   0.770  0.0573  0.5011  0.2708
  185MOL0     H24972   3.306   7.962   1.400  1.0690 -1.5698  2.4796
  185MOL0     H24973   3.033   7.798   1.571 -0.7966 -1.5153 -2.8937
  185MOL0     H24974   3.128   7.942   1.574 -0.8713  0.5324  0.2325
  185MOL0     H24975   3.012   7.920   1.440 -0.6572 -0.4859 -0.0101
  186MOL0     O24976   0.540   1.734   0.826 -0.1492  0.7207 -0.7147
  186MOL0     C24977   0.462   1.686   0.913 -1.0584 -0.5310  0.2608
  186MOL0     O24978   0.497   1.590   0.998 -0.5466  0.0248  0.1114
  186MOL0     C24979   0.625   1.575   1.033  0.0333  0.4293 -0.1503
  186MOL0     C24980   0.703   1.680   1.080  0.3890  0.0200 -1.3426
  186MOL0     C24981   0.836   1.652   1.117 -0.4764  0.3212 -0.6713
  186MOL0     C24982   0.883   1.520   1.115 -0.1020  0.2567 -0.2412
  186MOL0     O24983   1.013   1.495   1.148  0.1992  0.1116 -0.3349
  186MOL0     C24984   1.098   1.585   1.075  0.6943 -0.3821 -0.2205
  186MOL0     C24985   1.226   1.523   1.033 -0.6192 -0.1398 -0.3101
  186MOL0     C24986   1.194   1.388   0.961 -0.8595 -0.2554  0.4280
  186MOL0     C24987   1.139   1.412   0.822 -0.4333  0.2072 -0.5305
  186MOL0     C24988   1.086   1.282   0.754 -0.3318 -0.8409  0.5698
  186MOL0     C24989   1.199   1.175   0.744 -0.9222 -0.2915 -0.6857
  186MOL0     C24990   1.142   1.055   0.658  0.6373 -0.3974  0.0867
  186MOL0     C24991   1.239   0.936   0.644 -0.3684  0.4243  0.1154
  186MOL0     N24992   1.167   0.831   0.575  0.2054 -0.0112  0.2171
  186MOL0     C24993   1.080   0.738   0.632 -0.0422  0.0215  1.0387
  186MOL0     C24994   1.030   0.670   0.527  0.5560  0.3675 -0.6293
  186MOL0     C24995   0.926   0.564   0.544  0.2154  0.2665 -0.3163
  186MOL0     C24996   0.983   0.431   0.510  0.4016 -0.6979  0.3683
  186MOL0     C24997   0.886   0.324   0.571  0.7563  0.5129  0.5590
  186MOL0     C24998   0.749   0.343   0.517 -0.5412  0.5804  0.4459
  186MOL0     O24999   0.671   0.221   0.523 -0.3464 -0.7172 -0.2332
  186MOL0     C25000   0.687   0.127   0.421  0.2620 -0.1318 -0.4712
  186MOL0     C25001   0.609   0.011   0.421  1.8022 -0.2718 -0.0399
  186MOL0     C25002   0.634  -0.096   0.339 -0.7215  0.1674 -0.1542
  186MOL0     C25003   0.739  -0.080   0.236  0.6056  0.8174 -0.1912
  186MOL0     C25004   0.771  -0.183   0.146 -0.7002  0.0513  0.2224
  186MOL0     O25005   0.903  -0.189   0.113  0.4985 -0.2741 -0.4558
  186MOL0     C25006   0.964  -0.291   0.049  0.1718 -0.1372  0.1119
  186MOL0     C25007   1.068  -0.270  -0.047  0.8438 -0.5089 -0.2052
  186MOL0     C25008   1.131  -0.374  -0.111 -0.4632 -0.4904 -0.1053
  186MOL0     C25009   1.098  -0.509  -0.078  0.4362 -0.7614 -0.7846
  186MOL0     O25010   1.151  -0.607  -0.144 -0.0754  0.2083  0.1103
  186MOL0     C25011   1.156  -0.609  -0.288 -0.7136 -0.6083  0.3601
  186MOL0     C25012   1.094  -0.741  -0.325  1.3785 -0.3060  0.4607
  186MOL0     C25013   1.112  -0.777  -0.471 -0.0056 -0.9111  0.6031
  186MOL0     C25014   1.053  -0.920  -0.491 -0.5818 -0.4329  0.2256
  186MOL0     C25015   1.071  -0.969  -0.640  0.8461 -0.5440 -0.3336
  186MOL0     C25016   1.070  -1.121  -0.646  0.5150  0.3398 -0.1729
  186MOL0     C25017   1.090  -1.198  -0.780 -0.0120 -0.6947  0.2392
  186MOL0     C25018   0.978  -1.182  -0.870 -0.3447  0.1069  0.2840
  186MOL0    Cl25019   0.840  -1.267  -0.777  0.0136 -0.1920  0.4353
  186MOL0     C25020   1.018  -0.531   0.031 -0.1721 -0.3289  0.0993
  186MOL0     C25021   0.944  -0.421   0.087 -0.5251 -0.0198 -0.1941
  186MOL0     O25022   0.692  -0.263   0.102 -0.0706 -0.2562  0.4184
  186MOL0     C25023   0.808   0.039   0.227 -0.4740  0.4178  0.0707
  186MOL0     C25024   0.791   0.139   0.321  0.1069 -0.2665 -0.3223
  186MOL0     N25025   1.070   0.733   0.416 -0.1811  0.0433 -0.1703
  186MOL0     N25026   1.165   0.829   0.435  0.1849 -0.3626 -0.3062
  186MOL0     C25027   0.808   1.415   1.077 -0.0400 -0.0930  0.6714
  186MOL0     C25028   0.677   1.448   1.047 -0.2035 -0.6472 -0.9244
  186MOL0     C25029   0.324   1.736   0.908  0.4822 -0.5827  0.2962
  186MOL0     C25030   0.242   1.683   1.004 -0.3135 -0.5528 -0.0302
  186MOL0     C25031   0.116   1.725   1.036 -0.3771  0.0491 -0.7768
  186MOL0     C25032   0.057   1.823   0.953  0.1273  0.3831 -0.1476
  186MOL0     O25033  -0.072   1.867   0.980  0.0483 -0.5606 -0.9833
  186MOL0     C25034  -0.179   1.775   0.996  0.1086  0.4715 -0.2150
  186MOL0     C25035  -0.300   1.853   1.014  0.7077  0.6403 -0.4618
  186MOL0     C25036  -0.340   1.921   0.882 -0.8432  0.5650  0.0777
  186MOL0     C25037  -0.459   2.016   0.892  0.4745 -1.4943 -0.0312
  186MOL0     C25038  -0.440   2.144   0.967 -0.2472 -0.4146  0.7622
  186MOL0     C25039  -0.405   2.257   0.998  1.2048 -0.6457 -0.5282
  186MOL0     C25040   0.132   1.878   0.848  0.0901 -0.2143  0.4161
  186MOL0     C25041   0.266   1.839   0.825 -0.1805 -0.1073 -0.1631
  186MOL0     C25042   0.345   1.910   0.722 -0.1729  0.2931 -0.2083
  186MOL0     H25043   0.673   1.784   1.089 -3.1772 -1.0912  3.1780
  186MOL0     H25044   0.895   1.741   1.137 -1.3734  1.1364 -1.5839
  186MOL0     H25045   1.045   1.616   0.985 -2.7407 -0.0210  1.7362
  186MOL0     H25046   1.122   1.684   1.115 -2.8445  1.1102 -1.4064
  186MOL0     H25047   1.292   1.503   1.118  1.8885  0.1881 -2.0540
  186MOL0     H25048   1.283   1.587   0.964  0.2109  2.7257  2.7844
  186MOL0     H25049   1.137   1.325   1.031 -0.4237 -1.0914  0.0481
  186MOL0     H25050   1.289   1.335   0.948 -0.7620  0.4772 -2.8474
  186MOL0     H25051   1.049   1.474   0.813  0.5175  1.5769 -0.8298
  186MOL0     H25052   1.219   1.455   0.762 -0.3983 -0.2399 -0.8073
  186MOL0     H25053   1.004   1.247   0.818  0.7631 -0.9198  1.9977
  186MOL0     H25054   1.047   1.306   0.655  0.4296 -1.3743  0.1281
  186MOL0     H25055   1.285   1.219   0.693 -0.4910 -1.0865 -0.6734
  186MOL0     H25056   1.216   1.133   0.844 -1.1394  1.0732 -0.0537
  186MOL0     H25057   1.123   1.093   0.557 -1.0318 -0.8772  0.1950
  186MOL0     H25058   1.053   1.008   0.698  1.8419 -2.2446  0.7304
  186MOL0     H25059   1.326   0.952   0.580  0.0534  2.3311  1.1191
  186MOL0     H25060   1.276   0.904   0.742  0.8160  1.5749  0.0764
  186MOL0     H25061   1.043   0.727   0.734  0.3334 -1.6526  1.0167
  186MOL0     H25062   0.896   0.567   0.649  1.6404  1.4056  0.0952
  186MOL0     H25063   0.836   0.577   0.482  0.2957  1.3331 -0.2273
  186MOL0     H25064   0.983   0.419   0.401 -2.7396 -2.7832  0.4501
  186MOL0     H25065   1.080   0.417   0.558 -0.4464 -0.2391  2.3068
  186MOL0     H25066   0.889   0.343   0.679  1.7606  1.9076  0.3141
  186MOL0     H25067   0.925   0.225   0.547  0.1918  0.7932 -1.7610
  186MOL0     H25068   0.741   0.388   0.418  2.3660  0.8697  0.2656
  186MOL0     H25069   0.710   0.422   0.583  1.0914 -1.7801  4.6515
  186MOL0     H25070   0.542  -0.010   0.504  1.1570  1.3910 -0.1048
  186MOL0     H25071   0.579  -0.190   0.334 -2.3144  0.9307  1.8451
  186MOL0     H25072   1.085  -0.167  -0.075  0.7799 -0.1097  1.1374
  186MOL0     H25073   1.199  -0.363  -0.195  0.0186 -3.3088 -0.1826
  186MOL0     H25074   1.099  -0.528  -0.334 -0.5761 -0.6642  0.0881
  186MOL0     H25075   1.260  -0.615  -0.323 -0.1978  0.7093  1.5894
  186MOL0     H25076   1.150  -0.815  -0.269 -0.0839 -2.6868 -1.0539
  186MOL0     H25077   0.987  -0.751  -0.304  1.3098 -0.8538 -0.1302
  186MOL0     H25078   1.055  -0.708  -0.534  3.7437  0.2632 -1.8053
  186MOL0     H25079   1.213  -0.766  -0.511  0.6158 -2.2863  1.7257
  186MOL0     H25080   0.945  -0.921  -0.476 -0.7023  4.3120  1.0339
  186MOL0     H25081   1.115  -0.993  -0.437  1.5232  0.4482 -0.8904
  186MOL0     H25082   1.161  -0.922  -0.682  0.5935  1.7034  1.4297
  186MOL0     H25083   0.991  -0.929  -0.702  1.5654  2.5962  0.5247
  186MOL0     H25084   1.161  -1.156  -0.596  0.6516 -0.9964 -1.2972
  186MOL0     H25085   0.972  -1.141  -0.601  0.8015  0.8384  0.6916
  186MOL0     H25086   1.092  -1.306  -0.764 -1.9521 -1.0739 -1.5911
  186MOL0     H25087   1.180  -1.177  -0.839  0.0219 -2.8397 -0.5463
  186MOL0     H25088   0.966  -1.075  -0.892  3.0547  1.0712  2.2974
  186MOL0     H25089   0.978  -1.228  -0.969 -3.4496 -1.5237  0.8976
  186MOL0     H25090   1.002  -0.636   0.052 -3.5337 -0.2879 -1.5921
  186MOL0     H25091   0.868  -0.438   0.162  0.3735 -1.1021  0.5104
  186MOL0     H25092   0.873   0.046   0.141 -0.3757 -1.9253 -0.1266
  186MOL0     H25093   0.854   0.226   0.300  2.3638 -1.3785  1.4315
  186MOL0     H25094   0.853   1.316   1.080 -0.3732 -0.2620  3.6976
  186MOL0     H25095   0.608   1.365   1.035  2.0246 -2.7577 -0.2439
  186MOL0     H25096   0.279   1.603   1.068  0.3814 -0.0111  0.2482
  186MOL0     H25097   0.060   1.682   1.119  0.7071  0.3604  0.1429
  186MOL0     H25098  -0.166   1.715   1.086  0.6432 -1.3628 -1.4516
  186MOL0     H25099  -0.180   1.707   0.911 -1.3049 -0.0361  0.1794
  186MOL0     H25100  -0.293   1.946   1.071 -3.3449  1.3732 -0.8292
  186MOL0     H25101  -0.381   1.798   1.064  1.2980  1.6306  1.6894
  186MOL0     H25102  -0.365   1.855   0.799  2.3044 -0.8238  0.1085
  186MOL0     H25103  -0.261   1.982   0.838 -1.0768  1.1904  0.5118
  186MOL0     H25104  -0.488   2.053   0.794 -1.0268 -0.7492  0.6656
  186MOL0     H25105  -0.544   1.962   0.933 -1.3056  2.0645  1.4346
  186MOL0     H25106  -0.374   2.354   1.030 -0.7503  0.0698 -0.6476
  186MOL0     H25107   0.084   1.957   0.791 -1.0389 -0.2326  1.3016
  186MOL0     H25108   0.294   1.984   0.660  2.1555  2.0814 -0.1250
  186MOL0     H25109   0.426   1.965   0.771  1.9717 -0.2658 -2.8193
  186MOL0     H25110   0.401   1.839   0.659  3.4628  1.3397  1.5601
  187MOL0     O25111   8.733   1.937   7.749 -0.1412  0.7236  0.0454
  187MOL0     C25112   8.657   1.847   7.718 -0.2045  0.0564  0.3784
  187MOL0     O25113   8.573   1.793   7.804  0.4145  0.0461 -0.0729
  187MOL0     C25114   8.570   1.826   7.937 -0.4155 -0.0221  0.6417
  187MOL0     C25115   8.660   1.773   8.033 -0.0582  0.9700 -0.7350
  187MOL0     C25116   8.621   1.772   8.165  0.3814 -0.7244  0.0841
  187MOL0     C25117   8.512   1.855   8.212 -0.6296  0.5171 -0.5344
  187MOL0     O25118   8.467   1.852   8.347 -0.2003  0.4931  0.3309
  187MOL0     C25119   8.546   1.788   8.445 -0.1386  0.0493  0.1750
  187MOL0     C25120   8.495   1.798   8.589  0.2970  0.5140 -0.8562
  187MOL0     C25121   8.466   1.945   8.637  0.7069 -0.6641 -0.2236
  187MOL0     C25122   8.444   1.984   8.788 -0.0312 -0.8095  1.1536
  187MOL0     C25123   8.416   2.142   8.780 -1.0053  0.4364 -0.0519
  187MOL0     C25124   8.274   2.182   8.726 -0.0778 -0.9931  0.2693
  187MOL0     C25125   8.253   2.331   8.732  0.8830 -0.1894 -1.0940
  187MOL0     C25126   8.215   2.379   8.869  0.0505  0.8178  0.6882
  187MOL0     N25127   8.284   2.498   8.905  0.2609  0.4051 -0.2236
  187MOL0     C25128   8.276   2.616   8.840 -0.4687 -0.1051 -0.1192
  187MOL0     C25129   8.373   2.686   8.904 -0.2864  0.3805  0.2485
  187MOL0     C25130   8.427   2.816   8.858  0.0124  0.5030 -0.5293
  187MOL0     C25131   8.326   2.923   8.867 -0.1910  0.0634  0.0793
  187MOL0     C25132   8.379   3.059   8.810 -0.2408  0.5661 -0.1313
  187MOL0     C25133   8.276   3.170   8.825 -0.2203  0.2839  0.8748
  187MOL0     O25134   8.226   3.162   8.965  0.1767  0.2313  0.4607
  187MOL0     C25135   8.124   3.243   9.013  0.5974 -0.1736  0.0027
  187MOL0     C25136   8.050   3.335   8.933 -0.0609 -0.7001 -0.7208
  187MOL0     C25137   7.944   3.406   8.994 -0.5797 -0.5450 -0.8295
  187MOL0     C25138   7.926   3.394   9.134 -0.2000  0.6396 -0.3307
  187MOL0     C25139   7.832   3.496   9.181  0.2289 -0.1979 -0.6373
  187MOL0     O25140   7.829   3.514   9.320 -0.5053  0.0315  0.3633
  187MOL0     C25141   7.719   3.579   9.374  0.3479  0.3223  0.6951
  187MOL0     C25142   7.577   3.549   9.364 -0.3491  0.5704  0.1702
  187MOL0     C25143   7.484   3.630   9.424 -0.7467  0.6591 -0.0396
  187MOL0     C25144   7.523   3.754   9.485  0.4123 -0.1843 -0.5402
  187MOL0     O25145   7.433   3.834   9.559  0.5310 -0.3293  0.1189
  187MOL0     C25146   7.403   3.773   9.683 -0.4737 -0.3238  0.0376
  187MOL0     C25147   7.335   3.884   9.775  0.3320  0.4478  0.9124
  187MOL0     C25148   7.311   3.837   9.922 -0.3675  0.0788  0.5982
  187MOL0     C25149   7.249   3.933  10.026  0.4305  0.6192  1.0870
  187MOL0     C25150   7.097   3.960   9.997  0.2669 -0.0750 -0.8994
  187MOL0     C25151   7.034   4.061  10.085  0.6656 -0.0838 -0.3721
  187MOL0     C25152   6.908   4.102  10.029 -0.0528 -0.3393  0.7036
  187MOL0     C25153   6.859   4.235  10.102 -0.6782  0.2916  0.3988
  187MOL0    Cl25154   6.684   4.271  10.061 -0.1092  0.2135  0.0286
  187MOL0     C25155   7.663   3.777   9.494 -0.4400 -0.3533  0.4783
  187MOL0     C25156   7.756   3.695   9.437 -0.4401 -0.2373 -0.1222
  187MOL0     O25157   7.757   3.551   9.106 -0.6007  0.1841  0.4221
  187MOL0     C25158   7.990   3.298   9.215  0.2734 -0.1094  0.3266
  187MOL0     C25159   8.097   3.232   9.152 -0.7052  0.1220  0.4821
  187MOL0     N25160   8.433   2.616   9.004 -0.5837 -0.6155  0.5090
  187MOL0     N25161   8.379   2.503   9.004 -0.5766 -1.0339 -0.3763
  187MOL0     C25162   8.427   1.912   8.118  0.1936 -0.2302 -0.6502
  187MOL0     C25163   8.463   1.901   7.984 -0.0246 -0.2203 -0.1417
  187MOL0     C25164   8.657   1.796   7.584  0.4837  0.5466  0.5721
  187MOL0     C25165   8.588   1.669   7.571 -0.7281  0.4604  1.1083
  187MOL0     C25166   8.590   1.603   7.457  1.1704 -0.5645  0.4632
  187MOL0     C25167   8.654   1.653   7.343 -0.6407 -0.9698  0.3839
  187MOL0     O25168   8.662   1.580   7.224 -0.1743 -0.0079 -0.2056
  187MOL0     C25169   8.567   1.476   7.191 -0.4095 -0.2671 -0.3204
  187MOL0     C25170   8.617   1.398   7.078 -0.5276  0.5832  0.5154
  187MOL0     C25171   8.753   1.323   7.115  0.7566 -0.1096 -0.0463
  187MOL0     C25172   8.798   1.204   7.039 -0.1605  0.5710 -0.0414
  187MOL0     C25173   8.763   1.214   6.900 -0.1175 -0.6271 -0.3876
  187MOL0     C25174   8.749   1.212   6.780 -0.3300  0.3180  0.2584
  187MOL0     C25175   8.694   1.788   7.345  0.8947  0.2814  0.7257
  187MOL0     C25176   8.688   1.865   7.459  0.3515  0.0644  1.0494
  187MOL0     C25177   8.722   2.004   7.451  0.6370 -0.1995 -0.2849
  187MOL0     H25178   8.748   1.718   8.002  2.2750  1.8879  3.4930
  187MOL0     H25179   8.690   1.732   8.239  1.3015 -0.2749 -0.5206
  187MOL0     H25180   8.546   1.683   8.415 -0.5940 -0.9889  3.3843
  187MOL0     H25181   8.649   1.827   8.448 -0.2394  0.5164 -1.4314
  187MOL0     H25182   8.565   1.736   8.647 -0.3970 -1.1812 -1.7394
  187MOL0     H25183   8.398   1.747   8.583 -0.1554  1.2155  0.1563
  187MOL0     H25184   8.381   1.988   8.583  1.2464  1.3674  0.4452
  187MOL0     H25185   8.552   1.998   8.597  3.1566 -4.7965 -0.9422
  187MOL0     H25186   8.359   1.931   8.832 -1.1058 -0.5952 -0.5471
  187MOL0     H25187   8.536   1.959   8.842  0.2742 -1.1342  0.4993
  187MOL0     H25188   8.410   2.185   8.881 -2.7463  1.3999 -0.5210
  187MOL0     H25189   8.505   2.196   8.746 -0.4014  0.1013  0.9478
  187MOL0     H25190   8.262   2.164   8.619 -0.5647  2.3669 -0.3807
  187MOL0     H25191   8.195   2.130   8.781  0.8913 -2.6616  0.1525
  187MOL0     H25192   8.175   2.360   8.661  0.8182 -0.1235 -0.9966
  187MOL0     H25193   8.347   2.376   8.700  0.8185  1.9158  1.3607
  187MOL0     H25194   8.108   2.398   8.873 -0.5193 -1.6766 -0.9732
  187MOL0     H25195   8.238   2.302   8.944 -3.0184 -0.4824  0.4377
  187MOL0     H25196   8.213   2.632   8.753 -0.7635 -0.1988  0.0732
  187MOL0     H25197   8.502   2.846   8.932 -0.5052 -0.1243  0.2581
  187MOL0     H25198   8.474   2.795   8.762  0.1935 -1.6501 -0.0160
  187MOL0     H25199   8.240   2.905   8.802  0.0920  0.3091 -0.3697
  187MOL0     H25200   8.297   2.937   8.971  0.2203 -0.2662  0.2398
  187MOL0     H25201   8.407   3.042   8.705 -0.8463 -0.4399 -0.1433
  187MOL0     H25202   8.471   3.082   8.865 -1.1712  4.6786 -0.0091
  187MOL0     H25203   8.202   3.151   8.747  0.6844 -1.5794  0.4165
  187MOL0     H25204   8.318   3.269   8.805 -1.0182  0.3795 -0.4816
  187MOL0     H25205   8.089   3.349   8.833  3.3718 -2.3093  0.2648
  187MOL0     H25206   7.890   3.471   8.925 -0.3097 -0.0731 -0.6049
  187MOL0     H25207   7.545   3.462   9.308  2.0672 -1.2788  1.4342
  187MOL0     H25208   7.376   3.623   9.419 -0.8507 -1.7081  2.7024
  187MOL0     H25209   7.341   3.687   9.657  1.6862 -2.7145  2.2164
  187MOL0     H25210   7.490   3.733   9.736 -0.0668  2.3091  1.5394
  187MOL0     H25211   7.413   3.960   9.788  0.7253  0.2512 -0.2033
  187MOL0     H25212   7.239   3.914   9.732 -0.8257 -0.5522  2.6552
  187MOL0     H25213   7.253   3.744   9.915 -1.6484  0.7619  1.5651
  187MOL0     H25214   7.415   3.816   9.948  0.1851  4.2042  2.4843
  187MOL0     H25215   7.297   4.032  10.023 -0.5356  1.1509  2.2959
  187MOL0     H25216   7.267   3.889  10.124  0.6515 -1.7537  0.0489
  187MOL0     H25217   7.046   3.864   9.991 -0.8411  0.5397 -1.8322
  187MOL0     H25218   7.099   3.995   9.893  0.2760  0.5232 -0.7030
  187MOL0     H25219   7.011   4.024  10.186 -2.5225 -0.3012 -1.0972
  187MOL0     H25220   7.102   4.146  10.094 -1.7589  1.9452 -0.2837
  187MOL0     H25221   6.840   4.016  10.030  0.8275 -1.0551  2.3476
  187MOL0     H25222   6.922   4.125   9.923 -1.1136  0.8956  0.8046
  187MOL0     H25223   6.868   4.218  10.209 -0.9544 -4.9471 -0.1270
  187MOL0     H25224   6.923   4.318  10.071 -1.1442  0.3418 -0.4889
  187MOL0     H25225   7.674   3.875   9.537  0.0859 -1.9723  4.4499
  187MOL0     H25226   7.863   3.708   9.452 -0.8209 -0.3460  4.0764
  187MOL0     H25227   7.988   3.305   9.324 -0.1584 -1.0339  0.3844
  187MOL0     H25228   8.162   3.164   9.206  1.4586  1.8589  0.2185
  187MOL0     H25229   8.337   1.961   8.153 -0.9876 -1.4316 -1.9296
  187MOL0     H25230   8.394   1.942   7.911 -0.2683 -0.3818 -0.0021
  187MOL0     H25231   8.541   1.626   7.659 -0.7471  3.5598  2.7787
  187MOL0     H25232   8.547   1.504   7.463 -2.2724  0.8717  5.1605
  187MOL0     H25233   8.476   1.529   7.161  1.1449  3.3818  0.8876
  187MOL0     H25234   8.544   1.400   7.267 -2.4986 -1.5696 -2.1337
  187MOL0     H25235   8.621   1.450   6.981 -0.1223 -0.5743 -0.1053
  187MOL0     H25236   8.539   1.322   7.066  0.4554 -0.2377 -1.0210
  187MOL0     H25237   8.738   1.294   7.220 -1.2640 -0.2368 -0.3368
  187MOL0     H25238   8.827   1.403   7.123  0.3377  0.2332  0.4820
  187MOL0     H25239   8.907   1.201   7.049 -0.0770 -1.0017 -1.1382
  187MOL0     H25240   8.757   1.112   7.082 -0.2871  0.5180 -0.2738
  187MOL0     H25241   8.750   1.194   6.674  2.2118 -3.1297  0.6908
  187MOL0     H25242   8.721   1.821   7.245 -0.8853  3.3052  1.1211
  187MOL0     H25243   8.628   2.058   7.467  3.2585  4.9464  0.1271
  187MOL0     H25244   8.790   2.030   7.533 -0.1329 -0.8779  0.5882
  187MOL0     H25245   8.776   2.023   7.358  0.9435 -0.6680 -0.2049
  188MOL0     O25246   5.869   2.111   7.246  0.2022 -0.3955 -0.5303
  188MOL0     C25247   5.862   2.043   7.147 -0.8294 -0.0670  0.3939
  188MOL0     O25248   5.760   2.035   7.069  0.3912 -0.4740  0.9367
  188MOL0     C25249   5.639   2.095   7.099 -0.6605 -0.0065 -0.3453
  188MOL0     C25250   5.630   2.225   7.151  0.2402  0.2781 -0.0390
  188MOL0     C25251   5.501   2.274   7.190 -0.0261 -0.1346 -0.1475
  188MOL0     C25252   5.387   2.206   7.174  0.9867  0.5001 -0.1934
  188MOL0     O25253   5.264   2.258   7.198 -0.1685 -1.0859 -0.1525
  188MOL0     C25254   5.265   2.350   7.308  1.0084  0.1232 -1.0430
  188MOL0     C25255   5.122   2.394   7.344 -0.4815 -0.3533  0.7072
  188MOL0     C25256   5.126   2.497   7.465  0.8102 -0.4839  0.0587
  188MOL0     C25257   4.990   2.564   7.495 -0.4076 -0.2598 -0.0059
  188MOL0     C25258   4.998   2.663   7.610  0.6727 -0.8557  0.8366
  188MOL0     C25259   5.028   2.600   7.746 -0.1020  0.4025  0.8246
  188MOL0     C25260   5.012   2.686   7.861  0.3711  0.8976  0.1394
  188MOL0     C25261   5.050   2.616   7.991  0.5074 -0.1998  0.8722
  188MOL0     N25262   5.081   2.719   8.084  0.7032 -0.5430  0.1642
  188MOL0     C25263   5.201   2.789   8.103  0.1073 -0.7802  0.6575
  188MOL0     C25264   5.169   2.881   8.197  0.2173  0.5248 -0.1597
  188MOL0     C25265   5.273   2.957   8.269  0.8324  0.3198 -1.1143
  188MOL0     C25266   5.317   2.897   8.399  0.3364 -0.8148 -0.1195
  188MOL0     C25267   5.393   2.767   8.395  0.7437  0.0050  0.5240
  188MOL0     C25268   5.420   2.720   8.536 -0.6675 -0.3541  0.2488
  188MOL0     O25269   5.517   2.615   8.535  0.5536 -0.6398 -0.0515
  188MOL0     C25270   5.587   2.576   8.647  0.3452 -1.6772 -0.5256
  188MOL0     C25271   5.679   2.475   8.634  0.7951 -0.2966 -0.3187
  188MOL0     C25272   5.756   2.434   8.740  0.6533  0.4227  0.2658
  188MOL0     C25273   5.743   2.501   8.864 -0.4552 -0.9538  0.3940
  188MOL0     C25274   5.820   2.460   8.982  1.1174 -1.1155  0.5106
  188MOL0     O25275   5.857   2.333   8.975  0.1859  0.0343  0.4050
  188MOL0     C25276   5.919   2.276   9.090  0.3580  0.2467 -0.2276
  188MOL0     C25277   6.041   2.318   9.111  0.1107  0.0198 -0.0849
  188MOL0     C25278   6.112   2.276   9.231  0.7087  0.4055  0.1905
  188MOL0     C25279   6.063   2.175   9.319 -0.0845 -0.9806  0.8995
  188MOL0     O25280   6.146   2.147   9.421  0.3045 -0.0721  0.0873
  188MOL0     C25281   6.132   2.014   9.469  0.1778  0.5218  0.4452
  188MOL0     C25282   6.042   2.004   9.596 -1.0885  0.4024  0.3016
  188MOL0     C25283   6.114   2.075   9.718 -1.0451 -0.2999  0.9376
  188MOL0     C25284   6.035   2.080   9.850  0.4306  0.7870  0.4392
  188MOL0     C25285   6.124   2.117   9.971 -0.7465 -0.3240  0.0930
  188MOL0     C25286   6.097   2.053  10.109 -0.7733 -0.0002  0.4015
  188MOL0     C25287   5.951   2.066  10.160  0.0033 -0.3599  0.5797
  188MOL0     C25288   5.915   2.218  10.197 -0.2525  0.4309  0.0197
  188MOL0    Cl25289   5.759   2.244  10.267  0.2266  0.0476  0.1214
  188MOL0     C25290   5.926   2.137   9.291 -0.9188 -0.3137 -0.6321
  188MOL0     C25291   5.863   2.180   9.184 -0.0286  0.2127  0.0618
  188MOL0     O25292   5.857   2.547   9.067  0.0017 -0.5734 -0.1358
  188MOL0     C25293   5.652   2.604   8.873  0.4047  0.9841  0.5245
  188MOL0     C25294   5.575   2.651   8.767 -0.3098 -0.0107  1.0927
  188MOL0     N25295   5.039   2.888   8.223  0.4450  0.1436  0.6129
  188MOL0     N25296   4.986   2.797   8.142  0.4074 -0.6201  0.6495
  188MOL0     C25297   5.395   2.075   7.111  0.2567  0.5860 -0.7159
  188MOL0     C25298   5.526   2.023   7.090 -0.3030 -0.3795 -0.4775
  188MOL0     C25299   5.985   1.992   7.098 -0.1272  0.4059  0.6380
  188MOL0     C25300   6.106   2.054   7.124 -0.6123 -0.4785  0.0254
  188MOL0     C25301   6.230   2.000   7.094  0.7199  0.9795  0.3450
  188MOL0     C25302   6.235   1.889   7.012  0.2835 -1.9225  0.4840
  188MOL0     O25303   6.352   1.832   6.978  0.2767 -0.0639  0.3380
  188MOL0     C25304   6.474   1.879   7.037  0.7619  0.3127 -0.4767
  188MOL0     C25305   6.588   1.832   6.945 -0.7323  0.1119  0.0671
  188MOL0     C25306   6.599   1.923   6.830 -0.9293  0.1562 -0.6547
  188MOL0     C25307   6.715   1.885   6.734 -1.2825 -0.0165  0.9932
  188MOL0     C25308   6.674   1.765   6.657 -0.4217  0.3142 -0.0057
  188MOL0     C25309   6.636   1.656   6.603 -0.2162  0.5027 -0.3510
  188MOL0     C25310   6.115   1.827   6.982 -0.7978  0.3982  0.1132
  188MOL0     C25311   5.989   1.875   7.017 -0.2704 -0.1890  0.5677
  188MOL0     C25312   5.869   1.785   6.975 -0.2428  0.0171  1.5537
  188MOL0     H25313   5.712   2.290   7.180  1.4851 -1.4198  0.4074
  188MOL0     H25314   5.505   2.378   7.221  2.3566 -0.2067  0.0184
  188MOL0     H25315   5.309   2.301   7.396  1.9138  4.9742  1.5451
  188MOL0     H25316   5.317   2.445   7.293  0.7777  1.2071  3.5477
  188MOL0     H25317   5.057   2.310   7.372 -0.6385  0.4811  3.1419
  188MOL0     H25318   5.081   2.432   7.251  0.1380  0.1001  0.6121
  188MOL0     H25319   5.204   2.572   7.450 -0.2327  0.1574 -2.8442
  188MOL0     H25320   5.147   2.439   7.555 -2.0121 -3.1592 -0.7856
  188MOL0     H25321   4.947   2.615   7.409  1.0396  0.3599 -0.3924
  188MOL0     H25322   4.911   2.494   7.526 -1.6568  1.8348  1.8680
  188MOL0     H25323   5.077   2.736   7.589  0.5978 -1.0924 -0.3442
  188MOL0     H25324   4.905   2.721   7.603  0.4529 -1.3591 -0.9051
  188MOL0     H25325   4.958   2.517   7.758  0.4028 -0.1662 -0.0538
  188MOL0     H25326   5.131   2.567   7.736  1.1343  3.7118  1.3815
  188MOL0     H25327   4.905   2.710   7.864  0.3698  1.3575 -1.9548
  188MOL0     H25328   5.066   2.780   7.853 -0.3904  1.4115  0.8972
  188MOL0     H25329   4.971   2.548   8.024 -1.6503 -0.1591 -3.4907
  188MOL0     H25330   5.138   2.555   7.970  0.0095 -0.3271 -1.0822
  188MOL0     H25331   5.295   2.745   8.072 -0.4338 -0.6142 -1.3635
  188MOL0     H25332   5.356   2.964   8.197 -0.0141  0.4344 -2.1131
  188MOL0     H25333   5.224   3.053   8.285 -5.7397 -2.4743 -1.3218
  188MOL0     H25334   5.383   2.965   8.454  1.9876 -0.9946 -1.7635
  188MOL0     H25335   5.219   2.902   8.446 -1.8227  1.7401 -4.3027
  188MOL0     H25336   5.484   2.785   8.337 -1.7960 -0.8359 -4.2832
  188MOL0     H25337   5.339   2.689   8.341 -0.5159  2.0818 -1.3996
  188MOL0     H25338   5.331   2.677   8.582 -0.6088 -1.0391 -0.2607
  188MOL0     H25339   5.454   2.811   8.586  3.0985 -1.2414 -0.3695
  188MOL0     H25340   5.686   2.431   8.535 -0.7109  1.5334 -1.2980
  188MOL0     H25341   5.825   2.352   8.724  0.9986  1.4217 -5.4527
  188MOL0     H25342   6.078   2.394   9.042  0.6252  0.4701  0.6696
  188MOL0     H25343   6.210   2.313   9.258  1.4644 -1.7043  0.4650
  188MOL0     H25344   6.077   1.955   9.395  1.7571  0.2517 -0.5518
  188MOL0     H25345   6.229   1.973   9.499 -0.1385  0.4731  1.4391
  188MOL0     H25346   5.941   2.044   9.588 -1.3604  0.4738  3.1192
  188MOL0     H25347   6.030   1.897   9.617 -0.2708  0.3102  0.3240
  188MOL0     H25348   6.209   2.023   9.734 -0.7619  0.2430  1.0301
  188MOL0     H25349   6.132   2.178   9.685 -1.1362 -1.0334 -1.5573
  188MOL0     H25350   6.001   1.978   9.864 -2.6872  1.2400 -2.4532
  188MOL0     H25351   5.949   2.148   9.848 -0.2322 -0.0572 -0.6189
  188MOL0     H25352   6.101   2.222   9.990  0.5481  0.3117 -1.6792
  188MOL0     H25353   6.230   2.109   9.945 -0.7141  2.0316 -0.7692
  188MOL0     H25354   6.113   1.945  10.109  0.8281  0.2128  0.2538
  188MOL0     H25355   6.176   2.087  10.176  2.5192 -1.6287 -2.3440
  188MOL0     H25356   5.945   2.001  10.248  2.2939  3.3203  3.7770
  188MOL0     H25357   5.886   2.032  10.079  0.3534  2.4302 -0.9979
  188MOL0     H25358   5.990   2.249  10.271 -1.5678 -0.9746  2.0440
  188MOL0     H25359   5.929   2.296  10.122 -0.0102  0.5707  0.2076
  188MOL0     H25360   5.865   2.067   9.347  0.2853 -0.7113  0.2108
  188MOL0     H25361   5.760   2.148   9.176 -0.3232  0.8516  1.0187
  188MOL0     H25362   5.637   2.649   8.971 -0.2597 -1.4999  1.6416
  188MOL0     H25363   5.505   2.734   8.775 -1.7139 -0.8351 -1.4204
  188MOL0     H25364   5.308   2.012   7.094  0.5951  0.1724 -0.9615
  188MOL0     H25365   5.531   1.921   7.052  2.3239 -1.4338  2.2644
  188MOL0     H25366   6.111   2.150   7.174  3.6009 -1.0271  1.0452
  188MOL0     H25367   6.316   2.049   7.138  2.4172 -0.7418 -0.8840
  188MOL0     H25368   6.478   1.838   7.138  2.2586 -1.4281 -1.1713
  188MOL0     H25369   6.484   1.988   7.041  0.9246  0.2847 -0.1027
  188MOL0     H25370   6.576   1.728   6.912 -1.0631  0.6563 -1.6512
  188MOL0     H25371   6.678   1.839   7.006 -0.3524 -1.3755 -0.2854
  188MOL0     H25372   6.629   2.025   6.855 -2.4538  0.2449  1.0232
  188MOL0     H25373   6.508   1.931   6.771 -2.6901  0.4248  1.9461
  188MOL0     H25374   6.738   1.975   6.676 -2.5554 -1.1910 -1.4748
  188MOL0     H25375   6.796   1.843   6.794 -1.3213  2.4388  2.9419
  188MOL0     H25376   6.592   1.566   6.566 -1.3946  0.1795  1.6991
  188MOL0     H25377   6.138   1.738   6.925  2.2626  2.3322 -1.9658
  188MOL0     H25378   5.902   1.695   6.923 -2.1240 -0.6548  1.4584
  188MOL0     H25379   5.807   1.760   7.062 -0.8050 -2.5315  0.5052
  188MOL0     H25380   5.805   1.831   6.900  0.5790 -2.2270 -0.6530
  189MOL0     O25381   4.573   2.740  11.360 -0.9487 -0.3573  0.4849
  189MOL0     C25382   4.634   2.725  11.463 -0.5980  0.3917 -0.2274
  189MOL0     O25383   4.741   2.639  11.489 -0.1855  0.5635  0.0289
  189MOL0     C25384   4.765   2.545  11.398  0.6032 -0.6375  0.1642
  189MOL0     C25385   4.750   2.408  11.437  0.8448 -0.0684  0.5360
  189MOL0     C25386   4.782   2.309  11.339 -0.2364  0.2709 -1.2373
  189MOL0     C25387   4.825   2.337  11.207  0.0653 -0.0798 -0.8767
  189MOL0     O25388   4.855   2.251  11.106  0.9742  0.6212 -0.5537
  189MOL0     C25389   4.875   2.112  11.131  0.0599 -0.9814 -0.4668
  189MOL0     C25390   4.883   2.033  10.995  0.3773 -0.8989  0.2827
  189MOL0     C25391   4.738   2.042  10.932  0.6639  0.0956 -0.4393
  189MOL0     C25392   4.710   1.923  10.832  1.2134 -1.3433 -0.3289
  189MOL0     C25393   4.580   1.944  10.761  0.0407  0.6609  0.1808
  189MOL0     C25394   4.561   1.812  10.674 -0.3467 -0.0445  0.2994
  189MOL0     C25395   4.426   1.822  10.605 -0.0078 -0.0071  0.1688
  189MOL0     C25396   4.413   1.704  10.504 -0.3043 -0.2279 -0.3608
  189MOL0     N25397   4.278   1.701  10.464 -0.1018  0.3240  0.0105
  189MOL0     C25398   4.240   1.696  10.337 -0.6363  0.2473  0.0884
  189MOL0     C25399   4.108   1.679  10.338  0.4745  0.0270  0.2187
  189MOL0     C25400   4.012   1.682  10.214  0.9183 -0.8451 -0.3116
  189MOL0     C25401   3.996   1.826  10.186  0.0228  0.5340 -0.7189
  189MOL0     C25402   3.929   1.908  10.305  0.6339 -0.4776 -1.3228
  189MOL0     C25403   4.023   2.001  10.370 -0.2207 -0.0642  1.1373
  189MOL0     O25404   4.061   2.109  10.274  0.0361 -0.0855  0.5533
  189MOL0     C25405   4.196   2.139  10.263  0.1046  0.7450  0.7157
  189MOL0     C25406   4.289   2.136  10.366  0.6406  0.6193 -0.7153
  189MOL0     C25407   4.417   2.179  10.342  0.0830 -0.8937 -0.2704
  189MOL0     C25408   4.467   2.203  10.207 -0.2852  0.6872  0.2260
  189MOL0     C25409   4.606   2.221  10.165 -0.5334  0.1949  0.3555
  189MOL0     O25410   4.681   2.308  10.235  0.7751  0.5975 -0.2840
  189MOL0     C25411   4.815   2.323  10.207 -0.0066  0.3899 -0.0141
  189MOL0     C25412   4.914   2.220  10.169  0.9846  0.7542 -0.8208
  189MOL0     C25413   5.054   2.238  10.180  0.3104 -0.1327 -0.1305
  189MOL0     C25414   5.095   2.366  10.216 -0.0990  0.5398 -0.0127
  189MOL0     O25415   5.225   2.396  10.230  0.4367 -0.5293  0.0309
  189MOL0     C25416   5.289   2.490  10.140 -0.3015 -0.1967 -0.3057
  189MOL0     C25417   5.356   2.413  10.025  0.3121 -0.0520  0.0660
  189MOL0     C25418   5.490   2.343  10.065  0.1810 -0.4253 -0.5065
  189MOL0     C25419   5.536   2.264   9.935 -0.2274 -0.0352  1.0066
  189MOL0     C25420   5.477   2.121   9.928 -0.2844  0.2398 -0.2217
  189MOL0     C25421   5.546   2.028   9.826  0.3803  0.2967 -0.1123
  189MOL0     C25422   5.508   2.061   9.679  0.4514 -0.8390 -0.3799
  189MOL0     C25423   5.622   2.108   9.597  0.9673  0.3757  0.2976
  189MOL0    Cl25424   5.566   2.133   9.422 -0.3470 -0.1590  0.1375
  189MOL0     C25425   4.999   2.467  10.234 -0.2877 -0.2650 -0.7756
  189MOL0     C25426   4.862   2.449  10.227 -0.0139  1.2326 -0.8733
  189MOL0     O25427   4.646   2.153  10.072  0.3552  0.3242  0.2118
  189MOL0     C25428   4.373   2.211  10.101 -0.0736 -0.2808  0.4338
  189MOL0     C25429   4.233   2.183  10.135 -0.8897  0.3257 -0.2903
  189MOL0     N25430   4.059   1.688  10.465 -1.1361  0.7763  0.4650
  189MOL0     N25431   4.162   1.693  10.547 -0.2187 -1.3137  0.6510
  189MOL0     C25432   4.841   2.476  11.180 -0.0164 -0.2241 -0.7438
  189MOL0     C25433   4.813   2.578  11.271  0.1231 -0.0930  0.0926
  189MOL0     C25434   4.594   2.820  11.563  0.1887  0.6043  0.9642
  189MOL0     C25435   4.483   2.787  11.640 -0.1739 -0.0395  0.5695
  189MOL0     C25436   4.456   2.864  11.748  0.1732  0.9974 -0.2970
  189MOL0     C25437   4.524   2.985  11.780 -0.1532  0.4350 -0.2054
  189MOL0     O25438   4.496   3.043  11.899 -0.2657 -0.9323  0.1416
  189MOL0     C25439   4.550   3.168  11.925 -1.4022 -0.0960 -0.0642
  189MOL0     C25440   4.499   3.285  11.834 -0.7593 -0.3622 -0.4139
  189MOL0     C25441   4.351   3.304  11.865  0.4781  0.5125 -0.2162
  189MOL0     C25442   4.324   3.415  11.969  0.4291 -0.6177 -0.8647
  189MOL0     C25443   4.398   3.540  11.952 -1.6022 -0.0491  0.3945
  189MOL0     C25444   4.477   3.630  11.949  0.8206 -0.5393 -0.7776
  189MOL0     C25445   4.625   3.020  11.693 -0.2994  0.6189 -0.2253
  189MOL0     C25446   4.665   2.937  11.578  0.1112  0.4079 -0.4043
  189MOL0     C25447   4.783   2.974  11.489  1.0292 -0.3769 -0.4007
  189MOL0     H25448   4.707   2.386  11.534 -2.8499 -0.9706 -1.1346
  189MOL0     H25449   4.757   2.210  11.374  0.5092  0.8646  1.1875
  189MOL0     H25450   4.961   2.098  11.196  0.4074  3.2092  0.2871
  189MOL0     H25451   4.791   2.079  11.193 -0.1790  0.5306  0.0611
  189MOL0     H25452   4.917   1.931  11.013  1.8161 -0.4357  0.3220
  189MOL0     H25453   4.955   2.073  10.923 -2.7326 -0.0476 -2.6144
  189MOL0     H25454   4.719   2.144  10.897 -1.1882  1.0153  2.8467
  189MOL0     H25455   4.665   2.027  11.012  0.6713 -2.7711 -0.8560
  189MOL0     H25456   4.792   1.925  10.759  0.9450  3.3600 -0.7988
  189MOL0     H25457   4.699   1.840  10.903 -1.0332  0.2797  1.3631
  189MOL0     H25458   4.491   1.953  10.823  1.2867 -1.9893  2.5930
  189MOL0     H25459   4.597   2.030  10.696  0.4362 -1.2471 -2.3567
  189MOL0     H25460   4.639   1.805  10.597  0.1736 -5.4442  0.9000
  189MOL0     H25461   4.576   1.720  10.730 -0.4535 -0.7791 -0.8421
  189MOL0     H25462   4.412   1.918  10.556  0.7887  2.0199  3.5536
  189MOL0     H25463   4.352   1.816  10.685  0.9067  0.5862  1.0805
  189MOL0     H25464   4.472   1.737  10.418 -2.0861  1.1547 -1.1439
  189MOL0     H25465   4.455   1.608  10.533 -1.4498 -1.1164 -1.5180
  189MOL0     H25466   4.303   1.706  10.250 -1.7489 -0.1126 -0.7884
  189MOL0     H25467   4.056   1.618  10.137  1.4647 -0.3305 -0.4345
  189MOL0     H25468   3.914   1.635  10.231  0.8716 -0.0685  1.8897
  189MOL0     H25469   4.097   1.862  10.165  0.4909 -1.2279 -1.6688
  189MOL0     H25470   3.937   1.837  10.095  4.1205  2.8916 -3.3791
  189MOL0     H25471   3.887   1.840  10.379  0.5078 -0.7387 -1.6348
  189MOL0     H25472   3.841   1.957  10.262 -0.1632  0.7097  1.4092
  189MOL0     H25473   4.113   1.941  10.387  0.6815  0.0096 -2.5928
  189MOL0     H25474   3.982   2.033  10.466  0.8921 -0.0700  1.6300
  189MOL0     H25475   4.271   2.102  10.467  2.4753 -0.3571 -0.6746
  189MOL0     H25476   4.480   2.194  10.429  0.8020 -0.5070 -0.8487
  189MOL0     H25477   4.870   2.122  10.152 -0.1506  0.6892  1.9977
  189MOL0     H25478   5.132   2.163  10.174  0.3826 -0.0707  0.0149
  189MOL0     H25479   5.211   2.555  10.101  0.0207  2.1040  2.5022
  189MOL0     H25480   5.364   2.550  10.193  0.9826 -1.8989 -0.1200
  189MOL0     H25481   5.278   2.348   9.984 -1.6159  1.7066  0.7330
  189MOL0     H25482   5.363   2.489   9.946 -1.4025 -1.0559 -1.1186
  189MOL0     H25483   5.558   2.427  10.082 -0.9982  0.6317 -0.8003
  189MOL0     H25484   5.486   2.273  10.149 -0.2653 -2.0976 -1.8659
  189MOL0     H25485   5.642   2.242   9.943  0.0300  0.9564  0.5705
  189MOL0     H25486   5.509   2.309   9.839 -0.2394  1.8039  1.8089
  189MOL0     H25487   5.370   2.126   9.905 -1.2414 -2.5488  2.8687
  189MOL0     H25488   5.496   2.077  10.026 -2.5872 -1.3049 -0.3774
  189MOL0     H25489   5.655   2.031   9.831  0.4090 -1.5954  1.2804
  189MOL0     H25490   5.508   1.926   9.838  0.1849 -0.1354 -3.4845
  189MOL0     H25491   5.429   2.135   9.668 -0.0683 -1.6010 -2.1312
  189MOL0     H25492   5.472   1.969   9.631 -1.7690 -0.4603  0.4117
  189MOL0     H25493   5.668   2.199   9.637  2.5140 -0.3397  0.2365
  189MOL0     H25494   5.711   2.044   9.598  1.2997  0.6481 -2.6273
  189MOL0     H25495   5.041   2.561  10.268 -2.4665  0.7726 -0.8359
  189MOL0     H25496   4.813   2.536  10.270 -1.9177 -0.0909 -0.2626
  189MOL0     H25497   4.397   2.237   9.999 -2.2276  1.2646  0.2577
  189MOL0     H25498   4.159   2.176  10.056 -2.1741  1.5095  0.7560
  189MOL0     H25499   4.883   2.488  11.081  2.1628 -2.4685 -0.1858
  189MOL0     H25500   4.832   2.683  11.252 -0.2667 -0.1008 -0.3590
  189MOL0     H25501   4.432   2.695  11.614 -1.0526  1.0526 -1.8888
  189MOL0     H25502   4.378   2.828  11.814 -1.3170 -0.4588 -2.7437
  189MOL0     H25503   4.659   3.158  11.920 -1.3209 -2.7082  3.0573
  189MOL0     H25504   4.517   3.192  12.027 -2.0778 -0.3337 -0.2182
  189MOL0     H25505   4.512   3.291  11.725  1.8486 -0.2961 -0.1769
  189MOL0     H25506   4.556   3.372  11.868 -0.8562  0.6366 -2.6201
  189MOL0     H25507   4.309   3.206  11.888  0.4042 -0.0597 -2.4923
  189MOL0     H25508   4.301   3.333  11.772 -0.2783  0.6657  0.2406
  189MOL0     H25509   4.215   3.426  11.965  0.5094  1.4536  0.9195
  189MOL0     H25510   4.347   3.361  12.061  1.3112  0.7531 -0.2533
  189MOL0     H25511   4.551   3.707  11.950 -0.3848  0.6825 -1.6846
  189MOL0     H25512   4.679   3.113  11.711 -0.7703  1.5641 -3.1845
  189MOL0     H25513   4.853   2.897  11.458  0.6487 -0.4592 -1.0653
  189MOL0     H25514   4.737   3.022  11.402  2.8495 -0.0877 -1.2392
  189MOL0     H25515   4.836   3.047  11.551  2.0119 -0.3320 -1.2646
  190MOL0     O25516   7.928  11.076   0.775  0.0586  0.4443  0.5276
  190MOL0     C25517   7.846  11.170   0.773 -0.1210  0.5961  1.0742
  190MOL0     O25518   7.876  11.301   0.772 -0.6614 -0.0487 -0.0627
  190MOL0     C25519   8.001  11.334   0.819 -0.0390  1.2072 -0.4806
  190MOL0     C25520   8.110  11.341   0.728  0.7441 -0.6223 -0.7438
  190MOL0     C25521   8.237  11.380   0.774 -0.7806 -0.1691 -0.2029
  190MOL0     C25522   8.267  11.384   0.915 -0.2925  0.2386  1.0079
  190MOL0     O25523   8.393  11.407   0.966 -0.3133 -0.6671 -0.3014
  190MOL0     C25524   8.509  11.381   0.887  0.3941  1.0525 -0.2004
  190MOL0     C25525   8.630  11.385   0.971  0.7550 -0.0612 -0.3214
  190MOL0     C25526   8.646  11.514   1.059 -0.4373 -0.0237  0.3016
  190MOL0     C25527   8.561  11.499   1.187  1.0110  0.1850 -0.9853
  190MOL0     C25528   8.641  11.512   1.317  0.8680  0.4723  0.2435
  190MOL0     C25529   8.697  11.658   1.344  0.1064  0.8228 -1.2958
  190MOL0     C25530   8.784  11.644   1.468  0.0334  0.8094 -0.0170
  190MOL0     C25531   8.885  11.756   1.477  0.3407  0.1888 -0.1305
  190MOL0     N25532   8.813  11.876   1.510  0.5387  0.3166 -0.8512
  190MOL0     C25533   8.773  11.926   1.643  0.4362 -0.2045 -0.2746
  190MOL0     C25534   8.679  12.017   1.621 -0.0690 -0.4976 -0.2314
  190MOL0     C25535   8.619  12.109   1.729  0.9827 -0.0051  0.1184
  190MOL0     C25536   8.561  12.031   1.855 -0.3851 -0.1656  0.0961
  190MOL0     C25537   8.440  11.936   1.821  0.2930  1.0672  0.0063
  190MOL0     C25538   8.310  11.982   1.743  0.7148  0.2012  0.2398
  190MOL0     O25539   8.203  11.904   1.793  0.5858  0.2634 -0.9865
  190MOL0     C25540   8.075  11.889   1.741 -0.7412  0.1568 -0.4279
  190MOL0     C25541   7.992  11.786   1.791 -0.0471 -0.1894  0.6635
  190MOL0     C25542   7.865  11.767   1.745 -0.1326  0.1068 -0.3031
  190MOL0     C25543   7.820  11.849   1.640  0.2412 -0.7913 -0.9477
  190MOL0     C25544   7.687  11.835   1.579  0.3206  0.6125 -0.8491
  190MOL0     O25545   7.594  11.761   1.664 -0.3939 -0.7218 -0.4141
  190MOL0     C25546   7.460  11.752   1.623 -0.3198 -0.3272 -0.7890
  190MOL0     C25547   7.427  11.729   1.485  0.4341 -0.2822  0.0544
  190MOL0     C25548   7.288  11.722   1.454 -0.4857  0.2251 -0.2133
  190MOL0     C25549   7.181  11.743   1.546 -0.0445 -0.5500 -0.3488
  190MOL0     O25550   7.043  11.736   1.522  0.6821 -0.9724  0.1398
  190MOL0     C25551   7.019  11.647   1.415  0.4754 -0.7481 -0.0029
  190MOL0     C25552   6.865  11.623   1.404 -0.2416 -0.0073 -0.5015
  190MOL0     C25553   6.791  11.538   1.511 -1.0094 -0.3729 -0.2502
  190MOL0     C25554   6.676  11.468   1.469 -0.2074 -0.1181 -0.2824
  190MOL0     C25555   6.617  11.387   1.585 -0.0262  0.1583 -1.0716
  190MOL0     C25556   6.481  11.315   1.556 -0.1401  0.1720  0.9912
  190MOL0     C25557   6.382  11.288   1.668 -0.3987  1.6390 -0.3812
  190MOL0     C25558   6.254  11.365   1.654  0.5918  0.5214 -0.5729
  190MOL0    Cl25559   6.141  11.266   1.560  0.0665 -0.2113  0.7590
  190MOL0     C25560   7.224  11.781   1.671 -0.2326 -0.1178  0.7307
  190MOL0     C25561   7.352  11.780   1.715 -0.4788 -0.1377 -0.5481
  190MOL0     O25562   7.669  11.885   1.472 -0.6436  0.8252  0.3261
  190MOL0     C25563   7.901  11.950   1.595  0.5832  0.8622 -0.1330
  190MOL0     C25564   8.027  11.977   1.648  0.2358 -0.0555 -0.4367
  190MOL0     N25565   8.667  12.030   1.481 -0.7031 -0.3373 -0.8490
  190MOL0     N25566   8.748  11.955   1.424 -0.6848 -0.0515  0.3414
  190MOL0     C25567   8.160  11.363   1.003 -1.0029 -1.1080 -0.9554
  190MOL0     C25568   8.028  11.339   0.957 -0.4373  0.5658 -0.3036
  190MOL0     C25569   7.701  11.124   0.765  0.8147 -0.3834 -1.0339
  190MOL0     C25570   7.670  11.001   0.821 -0.5553  0.8170 -0.3787
  190MOL0     C25571   7.541  10.955   0.835  0.2993  1.2683  0.2998
  190MOL0     C25572   7.436  11.030   0.793  0.8739  0.1739  0.3875
  190MOL0     O25573   7.300  10.997   0.804  0.0420 -0.1598  0.2659
  190MOL0     C25574   7.262  10.878   0.878  0.2292 -0.0964  0.0400
  190MOL0     C25575   7.123  10.834   0.827 -0.0594 -0.7876 -0.0122
  190MOL0     C25576   7.030  10.954   0.838  0.3382 -1.5044 -0.3500
  190MOL0     C25577   6.882  10.923   0.809  0.1221  0.4011 -1.0476
  190MOL0     C25578   6.812  10.882   0.939  0.0551  0.2702 -0.5971
  190MOL0     C25579   6.762  10.825   1.042 -1.7297  0.5821  0.0291
  190MOL0     C25580   7.462  11.164   0.753 -0.0526  0.0567  0.2507
  190MOL0     C25581   7.591  11.207   0.725  0.2790  1.2266 -0.8866
  190MOL0     C25582   7.597  11.344   0.666 -0.6297  0.9276 -0.5898
  190MOL0     H25583   8.090  11.325   0.622  5.1427  1.9956 -2.2550
  190MOL0     H25584   8.316  11.402   0.703 -0.3644 -0.1822  0.2524
  190MOL0     H25585   8.511  11.284   0.836 -1.2475  0.9363 -0.0981
  190MOL0     H25586   8.517  11.458   0.810 -2.9342 -0.7129 -2.5548
  190MOL0     H25587   8.716  11.394   0.903  1.2990  0.5702  0.4454
  190MOL0     H25588   8.651  11.294   1.028 -2.5227 -0.9826 -0.3830
  190MOL0     H25589   8.628  11.605   1.001  2.2109 -0.0563 -0.7263
  190MOL0     H25590   8.749  11.523   1.096 -1.0088  2.4922  1.4839
  190MOL0     H25591   8.482  11.575   1.196 -0.0976 -1.0523  0.2422
  190MOL0     H25592   8.526  11.396   1.185 -0.3946  0.6338 -0.9743
  190MOL0     H25593   8.584  11.469   1.400 -0.0828  0.0167 -0.6164
  190MOL0     H25594   8.718  11.438   1.294 -1.5229 -1.4718 -2.2095
  190MOL0     H25595   8.760  11.694   1.262  0.0856  0.3598 -1.5210
  190MOL0     H25596   8.606  11.717   1.358  0.0997  0.1017  3.0288
  190MOL0     H25597   8.849  11.557   1.464  0.1211  0.9136 -1.1665
  190MOL0     H25598   8.719  11.642   1.557  1.4847 -2.7705  1.1350
  190MOL0     H25599   8.962  11.746   1.554  2.7951  0.4194 -2.4216
  190MOL0     H25600   8.930  11.769   1.379 -4.5284  1.1388 -2.5811
  190MOL0     H25601   8.804  11.893   1.742  2.1509  0.8735 -0.3976
  190MOL0     H25602   8.697  12.177   1.763  0.1436  0.6513  0.7487
  190MOL0     H25603   8.547  12.178   1.684 -0.0999  0.3455  2.2778
  190MOL0     H25604   8.642  11.977   1.905  1.0349  1.3675 -0.4615
  190MOL0     H25605   8.531  12.109   1.926 -1.6928 -0.2260 -0.3577
  190MOL0     H25606   8.406  11.898   1.918  2.5055  1.2433  0.9110
  190MOL0     H25607   8.480  11.847   1.771 -2.2246 -0.5180  0.6469
  190MOL0     H25608   8.311  11.959   1.637 -0.4460  1.0721  0.0224
  190MOL0     H25609   8.294  12.090   1.754  0.5887  0.1050  1.1209
  190MOL0     H25610   8.040  11.728   1.870  0.1974 -3.3667 -1.6064
  190MOL0     H25611   7.806  11.690   1.794  0.8517  0.1870  1.0743
  190MOL0     H25612   7.484  11.703   1.396 -0.6024 -3.3853  0.1688
  190MOL0     H25613   7.268  11.697   1.350  2.0973  1.3852 -1.0905
  190MOL0     H25614   7.047  11.703   1.325 -0.4904 -1.8984 -1.0567
  190MOL0     H25615   7.069  11.551   1.431  1.2409 -0.2936  0.4063
  190MOL0     H25616   6.811  11.716   1.386 -0.4547 -0.0296  0.0087
  190MOL0     H25617   6.858  11.566   1.311  1.4789  0.6582 -1.0775
  190MOL0     H25618   6.863  11.462   1.543 -2.4362 -1.9433 -0.6135
  190MOL0     H25619   6.754  11.607   1.588 -0.8139  1.6182 -1.8625
  190MOL0     H25620   6.694  11.398   1.387 -0.3832  0.1493 -0.5512
  190MOL0     H25621   6.591  11.522   1.426 -1.5683 -2.7324 -1.0981
  190MOL0     H25622   6.597  11.446   1.674  2.4034  0.6777 -0.7873
  190MOL0     H25623   6.695  11.319   1.621 -1.7509 -1.7859 -0.8001
  190MOL0     H25624   6.430  11.364   1.473 -1.3066  0.1272  1.6609
  190MOL0     H25625   6.519  11.223   1.512 -1.2648  0.5298 -0.8122
  190MOL0     H25626   6.423  11.298   1.769  0.0348 -1.0923 -0.2082
  190MOL0     H25627   6.363  11.181   1.656  0.7508  1.4101 -0.2252
  190MOL0     H25628   6.206  11.390   1.749 -1.9620  0.6840 -1.8222
  190MOL0     H25629   6.282  11.460   1.609  2.3073  1.1998  1.7391
  190MOL0     H25630   7.159  11.806   1.754 -1.0708  0.5080 -0.0921
  190MOL0     H25631   7.366  11.825   1.813 -1.0967 -0.1348 -0.4560
  190MOL0     H25632   7.859  12.008   1.513  0.4209  0.1378 -0.5676
  190MOL0     H25633   8.094  12.046   1.599 -0.1092 -0.1409 -1.0379
  190MOL0     H25634   8.183  11.361   1.109 -2.1778 -1.2131 -0.6842
  190MOL0     H25635   7.956  11.327   1.036  0.3472 -0.4132  0.2929
  190MOL0     H25636   7.743  10.936   0.868 -0.2139  1.3689 -0.1448
  190MOL0     H25637   7.520  10.857   0.876  1.5451  1.0821  0.5370
  190MOL0     H25638   7.256  10.882   0.987 -0.9973 -0.5492  0.0057
  190MOL0     H25639   7.333  10.803   0.843  2.4804  0.9985  2.0374
  190MOL0     H25640   7.084  10.747   0.881  0.4830 -1.2344 -0.3362
  190MOL0     H25641   7.122  10.808   0.721 -2.5112  1.7486 -0.7503
  190MOL0     H25642   7.062  11.035   0.771 -3.2318 -0.2046 -0.7271
  190MOL0     H25643   7.039  11.000   0.937  1.0210  3.3403 -2.3735
  190MOL0     H25644   6.832  11.012   0.772 -0.4512  2.5456  4.0196
  190MOL0     H25645   6.879  10.840   0.738  1.5564 -0.2875 -0.3512
  190MOL0     H25646   6.727  10.777   1.131 -0.7132 -1.3224 -0.5566
  190MOL0     H25647   7.380  11.226   0.718 -2.7076 -2.4815  1.5522
  190MOL0     H25648   7.645  11.418   0.731  1.6574 -2.1804  1.5385
  190MOL0     H25649   7.658  11.347   0.576  1.3476  2.8569  0.7057
  190MOL0     H25650   7.496  11.368   0.632 -1.9041 -0.2594  2.0061
  191MOL0     O25651   2.102   4.049   5.507  0.6332 -0.4469  0.1538
  191MOL0     C25652   2.122   4.145   5.581 -0.4993 -0.4561 -0.8254
  191MOL0     O25653   2.059   4.173   5.706 -0.3508 -0.5897 -0.0938
  191MOL0     C25654   2.002   4.060   5.762 -1.1586  0.3896 -0.2350
  191MOL0     C25655   1.867   4.041   5.760  0.0938 -0.0330 -0.3542
  191MOL0     C25656   1.809   3.944   5.844  0.0208  0.5439 -0.1809
  191MOL0     C25657   1.895   3.847   5.902  0.5385 -0.1780 -0.0011
  191MOL0     O25658   1.859   3.754   5.992 -0.6329  0.8785  0.8317
  191MOL0     C25659   1.769   3.809   6.091 -0.2247 -0.2299  0.3193
  191MOL0     C25660   1.739   3.709   6.208 -0.1223  0.4746 -0.1570
  191MOL0     C25661   1.691   3.566   6.154  0.2807 -0.3311  0.4948
  191MOL0     C25662   1.614   3.492   6.261 -0.4478 -0.0390  0.3933
  191MOL0     C25663   1.571   3.359   6.197  0.0379 -0.4002  0.8084
  191MOL0     C25664   1.484   3.292   6.304 -0.1682  0.3607  0.2955
  191MOL0     C25665   1.558   3.228   6.426  0.1012  0.9716 -0.7166
  191MOL0     C25666   1.452   3.126   6.490 -1.0805 -0.3785  0.3246
  191MOL0     N25667   1.523   3.048   6.598 -0.3319 -0.6548  0.9098
  191MOL0     C25668   1.597   2.931   6.573 -0.1611 -0.6540 -0.6258
  191MOL0     C25669   1.656   2.903   6.698 -0.2948 -0.3340  0.4306
  191MOL0     C25670   1.767   2.795   6.713  0.0159  0.2937 -0.0148
  191MOL0     C25671   1.887   2.864   6.778 -0.2997  0.6922 -0.0900
  191MOL0     C25672   2.005   2.765   6.808  1.0641 -0.8738 -0.1736
  191MOL0     C25673   2.115   2.820   6.895  0.0160 -0.3364  0.7708
  191MOL0     O25674   2.197   2.702   6.926 -0.0435  0.7733 -0.3390
  191MOL0     C25675   2.162   2.638   7.041  0.6543  0.2739  0.0933
  191MOL0     C25676   2.042   2.660   7.109  0.3857  0.6803  0.9991
  191MOL0     C25677   2.015   2.593   7.229  0.3556  0.5593  0.6148
  191MOL0     C25678   2.107   2.489   7.279 -0.5148  0.0218 -0.4753
  191MOL0     C25679   2.074   2.412   7.408 -1.0627  0.1146 -0.2136
  191MOL0     O25680   1.955   2.438   7.468 -0.6335 -0.6783  0.6113
  191MOL0     C25681   1.943   2.391   7.596 -0.3509  0.7778 -0.6616
  191MOL0     C25682   1.860   2.280   7.618  0.3370  1.2243  0.8936
  191MOL0     C25683   1.859   2.216   7.742 -0.7501  0.2438 -0.4184
  191MOL0     C25684   1.955   2.254   7.843  0.0981 -0.0647  0.4199
  191MOL0     O25685   1.966   2.209   7.972  0.5222 -0.1271 -0.1464
  191MOL0     C25686   1.869   2.116   8.016 -0.7242 -1.2571  1.3256
  191MOL0     C25687   1.891   2.060   8.157 -0.0190 -0.7434  0.3494
  191MOL0     C25688   2.038   2.007   8.190  0.2746  0.6378 -0.1502
  191MOL0     C25689   2.127   1.962   8.067  0.2465  0.1925 -1.0683
  191MOL0     C25690   2.272   1.931   8.110 -0.2417 -0.5676 -0.5714
  191MOL0     C25691   2.345   2.070   8.140  0.4808  0.3886  0.2470
  191MOL0     C25692   2.501   2.055   8.146 -0.7787 -0.6592  0.8506
  191MOL0     C25693   2.552   1.984   8.273  0.4435  0.1669 -0.4889
  191MOL0    Cl25694   2.490   2.051   8.423 -0.6657 -0.0956  0.0544
  191MOL0     C25695   2.027   2.371   7.819  0.1551 -0.1398 -0.4011
  191MOL0     C25696   2.018   2.447   7.706  0.0973  0.2197  0.3859
  191MOL0     O25697   2.154   2.320   7.444  0.1595 -0.6451 -0.8852
  191MOL0     C25698   2.229   2.479   7.216 -0.5784 -0.5845 -0.5260
  191MOL0     C25699   2.259   2.556   7.101 -0.8100 -0.4411 -0.0768
  191MOL0     N25700   1.614   2.995   6.793 -0.5276 -0.1360  0.3310
  191MOL0     N25701   1.525   3.072   6.735 -0.0714 -0.6609  0.1155
  191MOL0     C25702   2.030   3.845   5.877  0.1444 -0.3735 -0.2926
  191MOL0     C25703   2.083   3.954   5.815 -0.8512 -0.4217  0.1884
  191MOL0     C25704   2.213   4.256   5.534  0.1436 -0.7418 -0.4088
  191MOL0     C25705   2.329   4.222   5.467  0.4100 -0.0894 -0.3595
  191MOL0     C25706   2.426   4.320   5.431  0.4419  0.1276  0.1101
  191MOL0     C25707   2.399   4.450   5.466  0.4266  0.7470 -0.4341
  191MOL0     O25708   2.499   4.534   5.424 -0.2973 -0.0222 -0.2124
  191MOL0     C25709   2.536   4.639   5.516  0.4859 -0.1328  0.9771
  191MOL0     C25710   2.581   4.595   5.658  0.3855 -0.0995  0.6673
  191MOL0     C25711   2.695   4.484   5.650 -1.0554 -0.1206 -0.1374
  191MOL0     C25712   2.683   4.375   5.757  0.0032 -1.3646  0.3371
  191MOL0     C25713   2.605   4.267   5.702  0.8540  0.1568  0.4366
  191MOL0     C25714   2.555   4.163   5.671  0.1030  0.0470  0.4564
  191MOL0     C25715   2.273   4.486   5.510 -0.1924  0.3971 -0.6318
  191MOL0     C25716   2.180   4.392   5.555 -0.0997 -1.0124  0.4762
  191MOL0     C25717   2.045   4.438   5.617 -0.2987 -0.1918 -0.0757
  191MOL0     H25718   1.807   4.117   5.712 -4.9607 -2.1588  1.9097
  191MOL0     H25719   1.703   3.940   5.867  0.0612 -3.7567  0.0595
  191MOL0     H25720   1.816   3.903   6.121  1.2434 -0.7775 -0.1760
  191MOL0     H25721   1.672   3.819   6.043 -0.0669 -1.8097 -0.3993
  191MOL0     H25722   1.662   3.753   6.271  1.5207 -0.2773  2.5669
  191MOL0     H25723   1.826   3.692   6.273 -0.2614  3.2405  0.8642
  191MOL0     H25724   1.783   3.515   6.124 -0.9374 -2.5377  0.2989
  191MOL0     H25725   1.624   3.577   6.068 -0.2485  2.4336  1.1490
  191MOL0     H25726   1.675   3.459   6.346  0.9198 -0.1908 -0.6256
  191MOL0     H25727   1.519   3.542   6.283 -2.2618 -1.2270 -3.7086
  191MOL0     H25728   1.504   3.379   6.113 -1.2093 -0.5181  1.7546
  191MOL0     H25729   1.650   3.288   6.170 -1.3234 -1.1470 -1.4902
  191MOL0     H25730   1.398   3.344   6.347 -1.7923 -2.0465  0.1638
  191MOL0     H25731   1.442   3.207   6.249  1.2103 -1.2991  1.6711
  191MOL0     H25732   1.584   3.291   6.511 -2.4544  0.6373  0.3859
  191MOL0     H25733   1.654   3.182   6.401  0.2681  0.3049  1.0331
  191MOL0     H25734   1.366   3.177   6.536  0.6129  3.0103  0.0428
  191MOL0     H25735   1.410   3.057   6.417 -1.1636  1.1263 -1.1213
  191MOL0     H25736   1.628   2.888   6.479  2.7953  0.2410 -0.1580
  191MOL0     H25737   1.733   2.726   6.791  3.4393  1.1506  2.4739
  191MOL0     H25738   1.790   2.738   6.622  1.0724 -3.6733  2.4890
  191MOL0     H25739   1.914   2.936   6.699 -3.1485  1.5885 -0.3708
  191MOL0     H25740   1.863   2.925   6.865  0.3080 -0.1806  0.7083
  191MOL0     H25741   2.052   2.736   6.714 -1.1270  1.9451 -2.3094
  191MOL0     H25742   1.963   2.678   6.861  2.4024 -1.2382  0.3340
  191MOL0     H25743   2.068   2.879   6.975 -1.2797 -2.4060  1.5978
  191MOL0     H25744   2.173   2.897   6.842 -0.1473 -0.0598  0.9866
  191MOL0     H25745   1.970   2.737   7.084 -2.5013 -1.4609  2.2178
  191MOL0     H25746   1.919   2.602   7.277 -1.1802 -1.2021 -1.8927
  191MOL0     H25747   1.790   2.247   7.541  1.0215 -0.9466  1.1352
  191MOL0     H25748   1.795   2.131   7.761 -0.6690  0.3379  0.3124
  191MOL0     H25749   1.774   2.169   8.006  1.3130  2.9878  1.8572
  191MOL0     H25750   1.873   2.031   7.947  0.3902 -1.0365  1.0895
  191MOL0     H25751   1.868   2.151   8.214 -0.3755  1.5788 -3.1650
  191MOL0     H25752   1.819   1.980   8.174 -0.2762 -0.3854  0.9501
  191MOL0     H25753   2.078   2.090   8.249  1.5354 -0.5251  0.6783
  191MOL0     H25754   2.017   1.920   8.252  1.1130 -2.3086 -3.6394
  191MOL0     H25755   2.131   2.026   7.978  3.1654 -0.2908 -1.3727
  191MOL0     H25756   2.099   1.861   8.036 -0.0284 -0.4670  1.1755
  191MOL0     H25757   2.320   1.873   8.031  1.8536  0.3775 -0.0693
  191MOL0     H25758   2.278   1.869   8.200  3.1749  0.1527 -0.1453
  191MOL0     H25759   2.307   2.142   8.067 -2.9017 -0.8323  0.6278
  191MOL0     H25760   2.322   2.104   8.242  2.8497 -0.6069  1.1780
  191MOL0     H25761   2.557   2.149   8.137 -0.8344 -0.7215 -0.2833
  191MOL0     H25762   2.537   1.994   8.062 -0.2097  0.3597  0.3332
  191MOL0     H25763   2.526   1.877   8.266 -1.1147  0.1958  3.0157
  191MOL0     H25764   2.661   1.987   8.271  0.4672  0.6246  0.7211
  191MOL0     H25765   2.100   2.401   7.894 -0.1972 -2.8017  1.1351
  191MOL0     H25766   2.064   2.544   7.693 -2.3692  1.5656  1.0026
  191MOL0     H25767   2.314   2.424   7.257 -0.6723  2.4251  4.4720
  191MOL0     H25768   2.352   2.541   7.046  0.0676 -0.0495  1.2650
  191MOL0     H25769   2.086   3.766   5.927  0.2071  0.0393  0.2986
  191MOL0     H25770   2.189   3.965   5.800 -0.6018 -2.0805  0.5343
  191MOL0     H25771   2.326   4.118   5.436 -1.8426 -0.0368 -0.5539
  191MOL0     H25772   2.523   4.299   5.389 -0.0048 -0.3655 -0.7116
  191MOL0     H25773   2.447   4.702   5.518 -0.7373 -1.6451 -1.4805
  191MOL0     H25774   2.608   4.706   5.468 -0.7919  0.0738 -0.7202
  191MOL0     H25775   2.487   4.556   5.700 -2.3044  0.7652 -3.8879
  191MOL0     H25776   2.603   4.684   5.717 -0.9633 -0.4958  1.8235
  191MOL0     H25777   2.791   4.535   5.665 -1.7712  1.0663  0.6350
  191MOL0     H25778   2.700   4.438   5.551 -1.7712  3.2335 -1.9188
  191MOL0     H25779   2.785   4.336   5.769  1.8948  1.6007 -3.5634
  191MOL0     H25780   2.639   4.410   5.850  0.9465  1.7820 -0.2846
  191MOL0     H25781   2.506   4.068   5.658  1.0807 -0.3790 -0.2108
  191MOL0     H25782   2.259   4.590   5.537 -2.1614  0.2690 -1.0086
  191MOL0     H25783   1.996   4.516   5.558 -3.3972 -0.5167  1.8550
  191MOL0     H25784   1.977   4.353   5.618 -0.3701 -0.1500  1.5491
  191MOL0     H25785   2.053   4.476   5.720 -0.6219 -2.1186  0.7076
  192MOL0     O25786   4.899  10.856   7.442 -0.5286  0.6443 -0.1159
  192MOL0     C25787   4.803  10.884   7.513 -0.5538 -0.1214 -1.1778
  192MOL0     O25788   4.736  10.787   7.581  0.0202 -0.3025  0.7311
  192MOL0     C25789   4.746  10.655   7.551  0.2108 -0.1444 -0.8114
  192MOL0     C25790   4.730  10.619   7.419  0.2524 -0.2824 -0.0733
  192MOL0     C25791   4.728  10.482   7.390 -0.2999  0.0997 -0.1118
  192MOL0     C25792   4.752  10.382   7.485  0.6190 -0.7235 -1.1659
  192MOL0     O25793   4.754  10.254   7.453  0.2409  0.2747  0.1791
  192MOL0     C25794   4.864  10.200   7.385  0.8677  0.3781  0.2093
  192MOL0     C25795   4.828  10.061   7.358  0.6292  0.1340  0.0232
  192MOL0     C25796   4.955   9.984   7.317 -0.8146  0.9020 -0.5665
  192MOL0     C25797   5.032   9.892   7.418  0.1816 -0.5759 -0.3427
  192MOL0     C25798   4.977   9.829   7.541 -0.2268 -0.4472 -0.4322
  192MOL0     C25799   5.086   9.728   7.603 -0.5480 -0.0804 -0.5223
  192MOL0     C25800   5.031   9.625   7.692  0.1349 -0.3830  0.0277
  192MOL0     C25801   5.025   9.673   7.838  0.2425  0.1881  0.2557
  192MOL0     N25802   5.160   9.674   7.906  0.3283 -0.4755  0.5970
  192MOL0     C25803   5.252   9.769   7.945  0.5138  0.2760  0.2192
  192MOL0     C25804   5.326   9.711   8.038  0.2089 -1.0220  0.1013
  192MOL0     C25805   5.445   9.780   8.090  0.8873 -0.2738  0.1557
  192MOL0     C25806   5.558   9.679   8.100 -0.4186  0.7333  0.0077
  192MOL0     C25807   5.690   9.733   8.163 -0.2668  0.1659 -0.0710
  192MOL0     C25808   5.678   9.772   8.313 -0.5972 -0.0110  0.0618
  192MOL0     O25809   5.800   9.835   8.358 -0.0650  0.3169 -0.3072
  192MOL0     C25810   5.799   9.890   8.480  0.5544 -0.7221  0.5186
  192MOL0     C25811   5.689   9.912   8.563  0.5313 -0.4460  0.8318
  192MOL0     C25812   5.701   9.956   8.696  0.3461  0.6598 -0.2034
  192MOL0     C25813   5.824   9.979   8.750  0.9273  0.9252  0.8641
  192MOL0     C25814   5.836  10.026   8.890 -0.9490  0.6711 -0.4269
  192MOL0     O25815   5.732  10.021   8.971 -0.5693  0.0448 -0.1924
  192MOL0     C25816   5.760  10.037   9.110  0.0525 -0.4739 -0.3050
  192MOL0     C25817   5.837   9.941   9.179  0.6705 -0.0827  0.2823
  192MOL0     C25818   5.825   9.935   9.316 -0.3587  0.1102 -0.0203
  192MOL0     C25819   5.739  10.007   9.394  0.0079  0.2821  0.0589
  192MOL0     O25820   5.739   9.983   9.528  0.5813 -0.4602 -0.5842
  192MOL0     C25821   5.729  10.100   9.614  0.4721 -0.0767 -0.1625
  192MOL0     C25822   5.692  10.052   9.756 -0.7613  0.7909  0.2824
  192MOL0     C25823   5.807   9.968   9.820  0.6667  0.5436 -0.8044
  192MOL0     C25824   5.763   9.920   9.959  0.2313  0.4769  0.0525
  192MOL0     C25825   5.870   9.823  10.012 -0.2512 -0.3573 -0.2146
  192MOL0     C25826   5.836   9.777  10.154 -0.0837  0.2682  0.1111
  192MOL0     C25827   5.929   9.674  10.209 -0.4464 -0.3819  0.1521
  192MOL0     C25828   6.064   9.730  10.250 -0.3245  0.0454  0.3231
  192MOL0    Cl25829   6.187   9.725  10.114  0.1332  0.0265 -0.0991
  192MOL0     C25830   5.669  10.103   9.334 -0.3246 -0.0703  0.3151
  192MOL0     C25831   5.681  10.118   9.191 -0.7106  2.0471 -0.3544
  192MOL0     O25832   5.944  10.060   8.923  0.0319  0.1562 -0.5118
  192MOL0     C25833   5.934   9.953   8.668  0.8613 -0.0659 -0.4753
  192MOL0     C25834   5.922   9.920   8.536 -0.3527  0.1062 -0.0933
  192MOL0     N25835   5.295   9.580   8.050  1.8853  0.1986 -0.1802
  192MOL0     N25836   5.188   9.562   7.978 -1.1209 -0.9058  0.4686
  192MOL0     C25837   4.760  10.423   7.615  0.3666 -0.3216 -0.1685
  192MOL0     C25838   4.762  10.562   7.646  0.2168 -0.1711 -0.7896
  192MOL0     C25839   4.764  11.013   7.531  0.8337 -0.4166  0.7133
  192MOL0     C25840   4.762  11.067   7.657 -0.6548  0.4979  0.2909
  192MOL0     C25841   4.737  11.205   7.684  0.3344 -0.4728 -0.3649
  192MOL0     C25842   4.703  11.291   7.573 -0.2125  0.1403 -0.9817
  192MOL0     O25843   4.663  11.428   7.576  0.0522  0.2610  0.0490
  192MOL0     C25844   4.600  11.494   7.689  0.0022  0.3089 -0.2564
  192MOL0     C25845   4.457  11.448   7.719 -0.1906 -0.1548 -0.0291
  192MOL0     C25846   4.406  11.541   7.830  0.8176 -0.0496 -0.0010
  192MOL0     C25847   4.339  11.477   7.942  0.2753 -0.6528 -0.4553
  192MOL0     C25848   4.411  11.375   8.009  0.3986  0.7613 -1.0634
  192MOL0     C25849   4.473  11.281   8.062 -0.2651  0.1177 -1.1245
  192MOL0     C25850   4.729  11.237   7.441 -0.4074 -0.3117 -0.6101
  192MOL0     C25851   4.746  11.102   7.421  0.2627  0.0633 -0.9768
  192MOL0     C25852   4.740  11.058   7.276  0.0610  0.1737 -0.0033
  192MOL0     H25853   4.719  10.700   7.348 -3.0670 -1.5859 -1.2641
  192MOL0     H25854   4.727  10.452   7.286 -1.8199  0.4652 -0.2250
  192MOL0     H25855   4.887  10.249   7.290  2.2385 -1.9705 -0.7582
  192MOL0     H25856   4.944  10.205   7.460 -0.8721 -1.1102  2.2986
  192MOL0     H25857   4.765  10.057   7.269 -1.0032 -0.0384  1.1582
  192MOL0     H25858   4.782  10.010   7.443  2.5161  1.8628  2.1982
  192MOL0     H25859   5.015  10.060   7.268 -0.0921  0.7681  0.0825
  192MOL0     H25860   4.917   9.913   7.243 -1.1245 -0.7436  1.0979
  192MOL0     H25861   5.082   9.811   7.363  0.5682 -1.8107  1.7439
  192MOL0     H25862   5.114   9.957   7.450 -0.0923  1.4984 -3.4248
  192MOL0     H25863   4.929   9.895   7.613 -2.8162 -3.4717  0.8582
  192MOL0     H25864   4.901   9.774   7.486 -1.5721  2.1543 -1.3208
  192MOL0     H25865   5.128   9.674   7.518  0.2257  2.6493 -1.9847
  192MOL0     H25866   5.180   9.778   7.631  0.0545 -1.6557  0.3894
  192MOL0     H25867   5.093   9.536   7.679  3.1455  1.8124 -1.8308
  192MOL0     H25868   4.937   9.595   7.646  0.4646  2.2621 -2.6380
  192MOL0     H25869   4.984   9.772   7.859 -2.6907 -1.7838  5.9052
  192MOL0     H25870   4.961   9.597   7.884 -3.8212  2.0643 -1.7643
  192MOL0     H25871   5.259   9.867   7.898 -0.9805  1.0194  1.4487
  192MOL0     H25872   5.475   9.866   8.030  0.1822  0.2047  0.4762
  192MOL0     H25873   5.434   9.815   8.193  2.8201  1.5810 -0.2071
  192MOL0     H25874   5.540   9.582   8.147 -0.6812  1.3015  1.0905
  192MOL0     H25875   5.573   9.647   7.996 -3.7227  0.4267 -0.4591
  192MOL0     H25876   5.730   9.812   8.098 -2.7373  1.2648 -0.3439
  192MOL0     H25877   5.763   9.651   8.165 -1.5201 -0.9656  1.0482
  192MOL0     H25878   5.658   9.679   8.367  1.1940 -0.5994 -0.2068
  192MOL0     H25879   5.595   9.841   8.330 -0.9712 -0.6477  0.9260
  192MOL0     H25880   5.595   9.893   8.512  0.1783 -1.3171  1.7733
  192MOL0     H25881   5.608   9.964   8.750  1.2481 -1.5648  1.8429
  192MOL0     H25882   5.894   9.867   9.124 -1.5015 -0.2828 -1.8416
  192MOL0     H25883   5.869   9.857   9.377 -1.5196 -0.6438 -0.1238
  192MOL0     H25884   5.829  10.145   9.618 -0.6518  2.9781 -2.2521
  192MOL0     H25885   5.661  10.179   9.580  0.9333  0.6157  0.4762
  192MOL0     H25886   5.673  10.144   9.813  4.4630  3.1256 -1.1701
  192MOL0     H25887   5.595  10.001   9.757 -1.9498  2.8814  2.2446
  192MOL0     H25888   5.831   9.885   9.754 -0.6037 -1.5062  1.1759
  192MOL0     H25889   5.900  10.024   9.834  0.7344  0.7082 -1.7862
  192MOL0     H25890   5.666   9.872   9.947  0.6770 -0.3033 -0.5463
  192MOL0     H25891   5.758  10.010  10.021 -0.8326  2.3538 -2.5514
  192MOL0     H25892   5.968   9.870  10.013 -2.0497  3.8566 -1.0961
  192MOL0     H25893   5.864   9.742   9.939 -3.2824 -1.3099  0.9037
  192MOL0     H25894   5.838   9.865  10.219  2.0469 -1.0710  2.0267
  192MOL0     H25895   5.732   9.743  10.152 -1.0037  2.8912 -1.3035
  192MOL0     H25896   5.934   9.586  10.144 -0.1535 -1.6930  1.8826
  192MOL0     H25897   5.893   9.637  10.305  1.5933 -1.0766  0.7017
  192MOL0     H25898   6.053   9.837  10.268 -0.6165  0.8991 -3.9025
  192MOL0     H25899   6.103   9.674  10.335 -0.8867 -3.8542 -1.7477
  192MOL0     H25900   5.591  10.162   9.382  1.3519  0.5722  2.3846
  192MOL0     H25901   5.624  10.195   9.140  2.6419  2.3135 -4.1630
  192MOL0     H25902   6.033   9.960   8.711  0.5382  0.7296  0.1520
  192MOL0     H25903   6.010   9.907   8.474  1.4060  2.1861  1.7758
  192MOL0     H25904   4.777  10.353   7.697  1.6672 -1.3740 -1.2817
  192MOL0     H25905   4.762  10.584   7.753 -1.7589 -0.3364 -0.7089
  192MOL0     H25906   4.795  11.014   7.745 -2.3975  0.6404  1.0823
  192MOL0     H25907   4.745  11.250   7.782 -2.7953 -0.2331 -0.1464
  192MOL0     H25908   4.592  11.601   7.670 -1.1172  0.3371  0.2569
  192MOL0     H25909   4.664  11.485   7.778 -1.5663  1.1720  1.0157
  192MOL0     H25910   4.473  11.353   7.769 -1.6885  0.1956  1.1960
  192MOL0     H25911   4.399  11.447   7.626  2.7535  2.1042 -2.1311
  192MOL0     H25912   4.331  11.604   7.780 -1.0439 -0.7031  1.8183
  192MOL0     H25913   4.495  11.593   7.867  0.5109  0.6813 -0.2687
  192MOL0     H25914   4.323  11.555   8.018  0.1048 -1.5179  0.4151
  192MOL0     H25915   4.237  11.456   7.911 -0.5966  0.9877  1.0756
  192MOL0     H25916   4.498  11.199   8.127 -1.3606  0.9848  0.4654
  192MOL0     H25917   4.712  11.317   7.370  0.4119 -0.6027 -1.1597
  192MOL0     H25918   4.681  10.967   7.265  0.4260  0.0223 -0.8261
  192MOL0     H25919   4.689  11.130   7.211 -3.4456 -1.4034  0.7584
  192MOL0     H25920   4.841  11.037   7.239 -0.6121 -0.8635 -1.3619
  193MOL0     O25921  10.616   4.651  10.997 -0.4463  0.5031  0.0796
  193MOL0     C25922  10.728   4.636  10.954 -0.6425  0.0771  0.3595
  193MOL0     O25923  10.821   4.742  10.956 -0.0039  0.8184  0.4784
  193MOL0     C25924  10.809   4.856  11.028 -1.0955 -0.2982  0.8885
  193MOL0     C25925  10.914   4.951  11.000  0.9206  0.0294 -0.1331
  193MOL0     C25926  10.934   5.066  11.077  0.0636  1.1857  0.1715
  193MOL0     C25927  10.841   5.092  11.185 -0.0995  0.0775 -0.6935
  193MOL0     O25928  10.863   5.216  11.251  0.3310 -0.0664  0.9079
  193MOL0     C25929  10.768   5.259  11.350  0.1800 -0.1337 -0.8398
  193MOL0     C25930  10.830   5.381  11.421 -0.0964 -0.0997 -0.1727
  193MOL0     C25931  10.903   5.496  11.342  0.3642 -0.5221  0.2772
  193MOL0     C25932  10.966   5.600  11.434 -0.5331  0.5872  0.3043
  193MOL0     C25933  11.001   5.726  11.359 -0.5046 -1.1020 -0.0937
  193MOL0     C25934  11.049   5.832  11.459 -0.2499  0.3935 -0.8241
  193MOL0     C25935  11.189   5.780  11.514  0.4429 -0.2426  0.2807
  193MOL0     C25936  11.269   5.894  11.586 -0.4447 -1.3795  1.1502
  193MOL0     N25937  11.402   5.859  11.639  0.0326  0.3514  0.4271
  193MOL0     C25938  11.420   5.776  11.735  0.0694  0.6790 -0.3023
  193MOL0     C25939  11.551   5.776  11.751  0.6667  0.1965 -0.5054
  193MOL0     C25940  11.629   5.714  11.860 -0.9265  0.0099  0.0493
  193MOL0     C25941  11.577   5.740  12.001  0.1481 -0.8942  0.2113
  193MOL0     C25942  11.640   5.865  12.049  0.1248  0.4038 -0.2954
  193MOL0     C25943  11.606   5.900  12.199 -0.2327  0.5892  0.1961
  193MOL0     O25944  11.691   5.830  12.295 -0.0290  0.1430  0.5456
  193MOL0     C25945  11.685   5.874  12.424 -0.3491  0.3104  0.0949
  193MOL0     C25946  11.801   5.858  12.485 -0.1287 -0.3814 -0.9853
  193MOL0     C25947  11.821   5.892  12.620  0.1462 -1.3623 -0.2368
  193MOL0     C25948  11.704   5.946  12.686 -0.3972 -0.5817 -0.0796
  193MOL0     C25949  11.715   5.977  12.830  0.2957 -0.0567 -0.2933
  193MOL0     O25950  11.839   5.961  12.895  0.3546 -0.9918  0.1930
  193MOL0     C25951  11.845   5.937  13.033  0.4934 -0.0095  0.8959
  193MOL0     C25952  11.787   5.822  13.104  0.5147 -0.0669 -0.2984
  193MOL0     C25953  11.776   5.819  13.240 -0.5120  0.5441 -0.5994
  193MOL0     C25954  11.839   5.922  13.310 -0.5285 -0.8423 -0.1949
  193MOL0     O25955  11.850   5.946  13.446  0.1479  1.1251  0.3943
  193MOL0     C25956  11.797   5.843  13.529 -0.7198 -0.8721  0.0970
  193MOL0     C25957  11.837   5.880  13.668 -0.2743 -0.6373 -0.2841
  193MOL0     C25958  11.807   5.760  13.764 -1.0073 -0.1361  0.7126
  193MOL0     C25959  11.843   5.801  13.905  0.5421 -0.5052  0.1856
  193MOL0     C25960  11.781   5.696  13.998 -0.0189  0.0154  0.4039
  193MOL0     C25961  11.790   5.753  14.144  0.3973  0.4114 -0.2695
  193MOL0     C25962  11.710   5.674  14.245 -0.5225  0.4050  0.3591
  193MOL0     C25963  11.728   5.533  14.234  0.0012  0.7991 -0.5681
  193MOL0    Cl25964  11.881   5.450  14.274  0.0515 -0.2968 -0.2327
  193MOL0     C25965  11.904   6.026  13.242  0.4680 -0.3439 -0.3662
  193MOL0     C25966  11.913   6.030  13.102 -0.0792 -0.6444  0.1887
  193MOL0     O25967  11.604   6.007  12.881 -0.2067  0.6872  0.4134
  193MOL0     C25968  11.585   5.974  12.616 -0.0412 -0.5532  0.7612
  193MOL0     C25969  11.569   5.924  12.487  0.3908 -0.3475  0.0626
  193MOL0     N25970  11.611   5.877  11.668  0.7612 -0.3702  0.0166
  193MOL0     N25971  11.516   5.919  11.596 -0.4423 -0.0877 -0.2315
  193MOL0     C25972  10.725   5.004  11.206 -0.6165 -0.5958 -0.1502
  193MOL0     C25973  10.715   4.879  11.135 -0.3437  0.2279  0.5198
  193MOL0     C25974  10.767   4.501  10.875 -1.0354 -0.2559 -0.1591
  193MOL0     C25975  10.897   4.492  10.829  0.0671  0.0936 -0.6092
  193MOL0     C25976  10.943   4.392  10.739 -0.1584  0.1254 -0.2081
  193MOL0     C25977  10.856   4.277  10.714  0.8672 -0.5509 -0.6960
  193MOL0     O25978  10.915   4.177  10.649  0.8767 -0.1584 -0.5944
  193MOL0     C25979  10.839   4.108  10.546 -0.0602 -0.0660  0.1591
  193MOL0     C25980  10.873   4.157  10.406 -0.0146 -0.2762 -0.2798
  193MOL0     C25981  11.020   4.125  10.356 -0.3920  0.0178  1.0145
  193MOL0     C25982  11.059   4.181  10.214 -0.3186  0.4329 -0.4255
  193MOL0     C25983  10.953   4.270  10.155  0.3943  0.2687 -0.6264
  193MOL0     C25984  10.863   4.348  10.126 -0.1456  0.2994  0.0082
  193MOL0     C25985  10.727   4.279  10.778  0.7271 -0.8744  0.0591
  193MOL0     C25986  10.686   4.389  10.855 -0.9481 -0.3706 -0.3488
  193MOL0     C25987  10.546   4.374  10.914  0.0576 -0.0775 -0.9638
  193MOL0     H25988  10.980   4.940  10.915 -0.4658 -1.0644 -1.1234
  193MOL0     H25989  11.018   5.135  11.070 -0.1114  1.2141 -2.9665
  193MOL0     H25990  10.670   5.287  11.312 -0.9764 -1.6031  0.8974
  193MOL0     H25991  10.749   5.174  11.416  2.6347  0.2975  0.5623
  193MOL0     H25992  10.897   5.347  11.501  2.7607  1.0698 -1.9207
  193MOL0     H25993  10.748   5.418  11.483 -2.9887 -3.4157 -1.7076
  193MOL0     H25994  10.831   5.549  11.278  0.4369 -0.9409 -0.1548
  193MOL0     H25995  10.982   5.456  11.278 -1.5707 -1.2011 -1.8148
  193MOL0     H25996  10.901   5.627  11.517 -0.6669 -2.1431  1.1894
  193MOL0     H25997  11.048   5.544  11.479 -0.8055 -2.3446 -2.4698
  193MOL0     H25998  11.059   5.704  11.270 -0.8394  1.6194 -1.0761
  193MOL0     H25999  10.904   5.757  11.319 -0.8075 -2.2694 -0.3046
  193MOL0     H26000  11.060   5.931  11.414 -2.4228 -0.1032 -2.6426
  193MOL0     H26001  10.976   5.849  11.538  0.6397 -1.5644  0.5206
  193MOL0     H26002  11.256   5.735  11.439 -1.5554  0.8140 -2.3023
  193MOL0     H26003  11.189   5.691  11.578 -2.2490 -0.4415  0.0954
  193MOL0     H26004  11.287   5.983  11.524  1.2745 -2.8242 -0.5356
  193MOL0     H26005  11.213   5.931  11.673  2.4922  0.9025  2.2912
  193MOL0     H26006  11.349   5.716  11.791  0.1554  1.7064  0.9809
  193MOL0     H26007  11.619   5.609  11.833  0.9700  0.1102 -1.2441
  193MOL0     H26008  11.736   5.732  11.848 -1.1347  1.3013 -0.0732
  193MOL0     H26009  11.468   5.749  11.999  0.0574 -1.8338 -2.1696
  193MOL0     H26010  11.603   5.666  12.077 -0.8875  0.6531  2.1636
  193MOL0     H26011  11.597   5.939  11.980 -2.0653 -2.1728 -1.9150
  193MOL0     H26012  11.749   5.870  12.052  0.1269  0.3143 -0.2231
  193MOL0     H26013  11.502   5.872  12.218 -0.2841 -0.2175 -1.1106
  193MOL0     H26014  11.616   6.008  12.211 -0.1421  0.2766  4.1893
  193MOL0     H26015  11.888   5.813  12.439  0.4485 -1.9882  1.4809
  193MOL0     H26016  11.910   5.874  12.679 -0.6372 -0.1494  1.4124
  193MOL0     H26017  11.723   5.754  13.048  0.5922  0.1349 -0.6361
  193MOL0     H26018  11.733   5.735  13.294 -1.3698  0.9413 -0.6365
  193MOL0     H26019  11.687   5.840  13.531 -0.8142  0.5249  2.9507
  193MOL0     H26020  11.852   5.751  13.509  2.3430  1.2201 -2.1071
  193MOL0     H26021  11.941   5.913  13.660 -0.0490 -1.5938 -1.5471
  193MOL0     H26022  11.777   5.968  13.692 -1.1395 -1.0667 -0.8230
  193MOL0     H26023  11.700   5.739  13.756 -0.3428 -3.4454 -1.4584
  193MOL0     H26024  11.861   5.668  13.744 -0.9416 -1.0466  4.4072
  193MOL0     H26025  11.799   5.898  13.930 -2.7934 -1.4664 -1.3302
  193MOL0     H26026  11.952   5.808  13.914  0.7539 -0.0352 -2.1416
  193MOL0     H26027  11.838   5.603  13.983 -1.9000 -1.0132 -0.8520
  193MOL0     H26028  11.678   5.683  13.965  0.9652 -1.7051 -2.4311
  193MOL0     H26029  11.894   5.763  14.177  0.6207  2.0127 -1.3218
  193MOL0     H26030  11.753   5.855  14.155 -0.7516 -0.1721  1.7211
  193MOL0     H26031  11.603   5.693  14.242 -0.8774 -0.9365  2.4493
  193MOL0     H26032  11.742   5.690  14.348  0.1551 -1.9400  0.5724
  193MOL0     H26033  11.655   5.485  14.300  1.2762 -1.8465 -0.9347
  193MOL0     H26034  11.705   5.487  14.138 -1.7994 -0.7579  0.5350
  193MOL0     H26035  11.939   6.113  13.297  0.0449 -0.2981 -0.1663
  193MOL0     H26036  11.958   6.118  13.058  0.5799  0.3546  2.6699
  193MOL0     H26037  11.500   6.027  12.659 -1.5495 -2.6456  0.5225
  193MOL0     H26038  11.475   5.927  12.434 -0.0366 -2.2128  0.6421
  193MOL0     H26039  10.651   5.034  11.279  0.9256  1.5575  0.6380
  193MOL0     H26040  10.631   4.813  11.156 -0.8685  0.4632 -0.7303
  193MOL0     H26041  10.965   4.575  10.843 -0.7374  0.5680  0.6303
  193MOL0     H26042  11.044   4.396  10.700 -0.3355  0.0578 -0.6734
  193MOL0     H26043  10.734   4.136  10.560  0.2794  0.4493  1.8488
  193MOL0     H26044  10.838   4.001  10.564 -0.6983 -0.7148 -3.0420
  193MOL0     H26045  10.867   4.266  10.413 -0.0756 -0.3117  0.2912
  193MOL0     H26046  10.807   4.113  10.331  2.8548 -1.8703 -2.0566
  193MOL0     H26047  11.034   4.017  10.349  1.5212  0.2953  0.0709
  193MOL0     H26048  11.100   4.158  10.423  1.5345  1.7127 -1.9124
  193MOL0     H26049  11.152   4.234  10.239  0.5511 -1.0113 -0.5227
  193MOL0     H26050  11.076   4.100  10.143  2.2531 -0.6743  1.3008
  193MOL0     H26051  10.766   4.392  10.119 -0.7481 -0.9501  0.2629
  193MOL0     H26052  10.668   4.189  10.766  1.8169 -1.7024  0.6686
  193MOL0     H26053  10.555   4.354  11.022  2.0205  1.5974 -0.7442
  193MOL0     H26054  10.483   4.462  10.902 -0.4771 -0.5938 -2.0671
  193MOL0     H26055  10.485   4.305  10.855 -0.9351  0.1204 -0.1838
  194MOL0     O26056   8.235  10.879   5.062  0.0192 -0.0499  0.3022
  194MOL0     C26057   8.262  10.822   5.166 -1.0491  0.2667 -0.8124
  194MOL0     O26058   8.338  10.710   5.171  0.4237 -0.0429  0.0420
  194MOL0     C26059   8.379  10.659   5.054  0.7977  0.6148  0.2694
  194MOL0     C26060   8.307  10.561   4.984 -0.4310 -0.7814 -0.4896
  194MOL0     C26061   8.363  10.499   4.865  0.3558  0.2494  1.0147
  194MOL0     C26062   8.483  10.556   4.809  0.3749 -0.8415 -0.6474
  194MOL0     O26063   8.522  10.504   4.693  0.0656  0.2733  0.6926
  194MOL0     C26064   8.606  10.586   4.610 -0.4101  0.1058  0.0524
  194MOL0     C26065   8.613  10.520   4.474 -0.9250  0.0418  0.5373
  194MOL0     C26066   8.705  10.584   4.374 -0.3842  1.1582  0.8641
  194MOL0     C26067   8.671  10.737   4.345 -0.4879  0.3372 -0.8732
  194MOL0     C26068   8.538  10.777   4.273  0.8006  0.3365  0.1751
  194MOL0     C26069   8.541  10.917   4.223 -0.0802 -0.0770  0.3257
  194MOL0     C26070   8.414  10.954   4.147 -0.1432 -0.0714 -0.6280
  194MOL0     C26071   8.380  11.107   4.123 -0.0792  0.5633 -0.6202
  194MOL0     N26072   8.245  11.128   4.077  0.3639  0.2361  0.2378
  194MOL0     C26073   8.131  11.115   4.156 -0.4735 -1.4048  0.0724
  194MOL0     C26074   8.026  11.104   4.071 -0.9584  0.6270 -0.6863
  194MOL0     C26075   7.887  11.106   4.124 -0.4075  0.3060  0.4786
  194MOL0     C26076   7.841  10.959   4.151  0.4455 -0.0278  0.4313
  194MOL0     C26077   7.859  10.872   4.022  1.0811  0.1666  0.5441
  194MOL0     C26078   7.782  10.740   4.035 -0.2759  0.1860 -0.5647
  194MOL0     O26079   7.803  10.669   3.915  0.0461  0.0538 -0.4728
  194MOL0     C26080   7.750  10.706   3.797 -0.5289 -0.4036  0.2536
  194MOL0     C26081   7.616  10.738   3.778 -0.7417 -0.1642 -0.3602
  194MOL0     C26082   7.575  10.787   3.657 -0.6740 -0.1009  0.0235
  194MOL0     C26083   7.671  10.805   3.549  0.3596  0.4506 -0.3317
  194MOL0     C26084   7.622  10.857   3.418  0.1408 -0.5005 -0.0757
  194MOL0     O26085   7.703  10.834   3.318 -0.2994 -0.6218  0.8818
  194MOL0     C26086   7.645  10.823   3.196 -0.3112  0.6195 -0.4358
  194MOL0     C26087   7.688  10.910   3.095  0.2538  0.7325  0.3044
  194MOL0     C26088   7.634  10.893   2.969  0.1110 -0.0130 -0.1035
  194MOL0     C26089   7.539  10.796   2.931  0.3897  0.0818 -0.0263
  194MOL0     O26090   7.492  10.770   2.804  0.2207 -0.5553 -0.2588
  194MOL0     C26091   7.464  10.879   2.715 -0.8062 -0.0253  0.0303
  194MOL0     C26092   7.353  10.846   2.615  0.0953 -0.3190 -0.5394
  194MOL0     C26093   7.301  10.968   2.533 -0.3804 -1.2790  0.5790
  194MOL0     C26094   7.170  10.938   2.469 -0.4798 -0.2940  0.2295
  194MOL0     C26095   7.145  11.024   2.357 -0.6647 -0.3161  1.6072
  194MOL0     C26096   7.019  10.989   2.272 -0.8317  0.1130 -0.3326
  194MOL0     C26097   6.899  11.024   2.357  0.4031  0.3436 -0.6649
  194MOL0     C26098   6.768  11.018   2.280  0.5220 -0.3572 -0.7242
  194MOL0    Cl26099   6.625  10.972   2.388  0.0269  0.8064  0.0156
  194MOL0     C26100   7.485  10.720   3.042  0.4824 -0.2114 -0.3185
  194MOL0     C26101   7.536  10.743   3.172  0.3009 -0.2882  0.3383
  194MOL0     O26102   7.516  10.915   3.417  0.9396 -0.2645 -0.2388
  194MOL0     C26103   7.802  10.755   3.561  0.9051 -0.4591 -0.7622
  194MOL0     C26104   7.842  10.708   3.684 -0.2039  0.3481 -0.0387
  194MOL0     N26105   8.067  11.108   3.943 -0.4281  0.4509  0.0579
  194MOL0     N26106   8.200  11.123   3.947  0.0530  0.1936  0.3525
  194MOL0     C26107   8.554  10.651   4.884  0.0365 -0.4444 -0.5758
  194MOL0     C26108   8.500  10.704   5.002  0.1609  0.2321 -0.5529
  194MOL0     C26109   8.224  10.899   5.295  0.5130  0.2939  0.8878
  194MOL0     C26110   8.121  10.997   5.300 -0.9316 -0.0198  0.3057
  194MOL0     C26111   8.080  11.051   5.425  0.6159 -0.0506 -0.3207
  194MOL0     C26112   8.131  11.017   5.548 -0.2580 -0.8842  0.6453
  194MOL0     O26113   8.081  11.091   5.658 -0.6732  0.1559 -0.3290
  194MOL0     C26114   8.133  11.055   5.788  0.7261  0.0804 -0.2272
  194MOL0     C26115   8.141  11.157   5.902  0.4008 -0.5114 -0.8570
  194MOL0     C26116   8.007  11.243   5.903 -0.8665  0.6165  0.0433
  194MOL0     C26117   7.971  11.302   6.041 -0.0327  0.3158  0.3426
  194MOL0     C26118   7.912  11.201   6.135  1.1732 -0.2866  0.5120
  194MOL0     C26119   7.856  11.144   6.229  0.1827  0.4592 -0.1938
  194MOL0     C26120   8.239  10.916   5.545  0.4638 -0.7758  0.9186
  194MOL0     C26121   8.278  10.853   5.427 -0.7974 -0.5374  0.0424
  194MOL0     C26122   8.387  10.753   5.444  0.7939  0.4496  0.1919
  194MOL0     H26123   8.209  10.526   5.013  0.2708 -1.9093  0.6350
  194MOL0     H26124   8.304  10.414   4.831  1.5298  0.0521 -0.6282
  194MOL0     H26125   8.565  10.686   4.596  1.8962  0.9992 -0.8270
  194MOL0     H26126   8.710  10.593   4.643 -0.6119  4.1400  0.3024
  194MOL0     H26127   8.513  10.523   4.429 -0.7556 -1.2886  0.0095
  194MOL0     H26128   8.639  10.415   4.493 -1.4435  0.0840  1.5320
  194MOL0     H26129   8.700  10.524   4.283  0.2212  0.5952  1.1968
  194MOL0     H26130   8.809  10.569   4.402 -0.0561 -1.7445 -1.4975
  194MOL0     H26131   8.694  10.793   4.436 -2.2144 -0.9300  0.4196
  194MOL0     H26132   8.745  10.770   4.272 -0.9783 -2.0077 -2.5598
  194MOL0     H26133   8.519  10.717   4.184  0.1970  0.3430  0.2975
  194MOL0     H26134   8.459  10.766   4.348  1.7654  3.7754  1.8843
  194MOL0     H26135   8.556  10.990   4.304 -0.8799 -0.2622  0.6502
  194MOL0     H26136   8.621  10.934   4.150  1.0474  5.4425  2.3244
  194MOL0     H26137   8.332  10.916   4.210  1.6715  0.7337  2.4209
  194MOL0     H26138   8.429  10.901   4.053 -0.8993  2.4918 -2.2891
  194MOL0     H26139   8.381  11.166   4.215  0.4334 -1.5869  0.8081
  194MOL0     H26140   8.457  11.145   4.055 -1.4787  3.0836 -0.9062
  194MOL0     H26141   8.121  11.112   4.264  0.2292 -0.5574  0.1682
  194MOL0     H26142   7.884  11.176   4.208 -1.7616  0.5926  0.2165
  194MOL0     H26143   7.825  11.149   4.045 -0.4002  0.0322  0.3206
  194MOL0     H26144   7.889  10.917   4.240 -1.6593  1.3366  2.3262
  194MOL0     H26145   7.736  10.958   4.183  0.3527  0.4557  0.1495
  194MOL0     H26146   7.967  10.862   4.003  1.4047  3.8964 -0.5023
  194MOL0     H26147   7.817  10.918   3.931 -0.7024 -1.2519  0.6004
  194MOL0     H26148   7.674  10.748   4.051 -0.3095  0.8937 -1.1110
  194MOL0     H26149   7.825  10.681   4.117  0.0487  0.1808 -0.7353
  194MOL0     H26150   7.551  10.737   3.865 -1.0806 -1.4988 -0.5986
  194MOL0     H26151   7.470  10.814   3.652 -0.9587 -0.4575  2.5539
  194MOL0     H26152   7.762  10.988   3.116  0.2446  0.1782  2.6986
  194MOL0     H26153   7.665  10.962   2.891  2.6283 -0.6387  0.2776
  194MOL0     H26154   7.444  10.974   2.765 -0.7756  0.2019 -0.3830
  194MOL0     H26155   7.554  10.896   2.656  0.6676 -1.7949  1.6532
  194MOL0     H26156   7.388  10.765   2.550 -0.3885  0.5506 -1.9458
  194MOL0     H26157   7.265  10.805   2.666 -0.1208  0.2424 -0.4546
  194MOL0     H26158   7.295  11.054   2.601 -3.4087 -0.2056 -0.8455
  194MOL0     H26159   7.372  10.993   2.453  1.8589  1.9281  3.2559
  194MOL0     H26160   7.088  10.950   2.540 -3.3327  1.6455 -3.0434
  194MOL0     H26161   7.153  10.840   2.424  2.1399 -0.2600 -1.0377
  194MOL0     H26162   7.233  11.007   2.294 -1.3488  0.8297  0.2915
  194MOL0     H26163   7.142  11.130   2.381 -3.6200  1.2238 -3.8114
  194MOL0     H26164   7.015  11.041   2.176 -5.1510  2.6651  0.9520
  194MOL0     H26165   7.027  10.884   2.243 -1.2448  0.7949 -3.1530
  194MOL0     H26166   6.913  11.125   2.397 -3.6690  0.3981  1.1234
  194MOL0     H26167   6.894  10.950   2.437 -0.5074  1.6771  0.5863
  194MOL0     H26168   6.744  11.115   2.234 -1.8735 -0.9181 -0.7557
  194MOL0     H26169   6.786  10.941   2.205 -0.4333 -0.7679 -0.5420
  194MOL0     H26170   7.421  10.634   3.025  1.8259 -1.0819 -1.1899
  194MOL0     H26171   7.482  10.704   3.258 -1.9733  0.5858 -0.6335
  194MOL0     H26172   7.869  10.761   3.476 -2.2375 -2.9153 -3.6968
  194MOL0     H26173   7.943  10.672   3.697 -0.0618  0.7945  0.1072
  194MOL0     H26174   8.650  10.683   4.844  0.5114 -1.6560 -0.4748
  194MOL0     H26175   8.553  10.780   5.058 -0.9066  2.6203 -2.5637
  194MOL0     H26176   8.067  11.010   5.207 -1.9798 -2.1409  0.5558
  194MOL0     H26177   7.990  11.111   5.433 -0.5624 -0.9359 -4.4670
  194MOL0     H26178   8.236  11.020   5.774  0.7829  0.9304 -2.2827
  194MOL0     H26179   8.087  10.960   5.814  0.5063 -0.2207 -1.6162
  194MOL0     H26180   8.222  11.231   5.897  0.1958 -0.3499 -2.5461
  194MOL0     H26181   8.149  11.106   5.998 -3.9362  3.3302  2.0238
  194MOL0     H26182   7.931  11.178   5.859  0.8882  0.8297 -3.6810
  194MOL0     H26183   8.011  11.334   5.843  0.5669  1.2744  1.0622
  194MOL0     H26184   8.044  11.370   6.086 -1.3496  2.5778 -0.7538
  194MOL0     H26185   7.884  11.367   6.027  1.7301  2.5908 -0.5366
  194MOL0     H26186   7.804  11.100   6.312  1.7492 -0.1629  0.4976
  194MOL0     H26187   8.271  10.881   5.643 -0.2736 -1.9991  0.7491
  194MOL0     H26188   8.480  10.784   5.396  0.1504  1.4912 -0.3976
  194MOL0     H26189   8.402  10.733   5.551 -1.8732 -1.1180  0.3607
  194MOL0     H26190   8.373  10.652   5.403  5.2679 -0.2507 -0.1232
  195MOL0     O26191   3.845   9.426  11.053  0.0740  0.0223  0.2486
  195MOL0     C26192   3.901   9.319  11.073  0.0846  0.6998 -0.0539
  195MOL0     O26193   3.971   9.282  11.188 -0.1152 -0.4187  0.1550
  195MOL0     C26194   3.998   9.368  11.292  0.2137 -0.1534 -0.2881
  195MOL0     C26195   3.964   9.504  11.305  0.0579 -0.3224 -0.4590
  195MOL0     C26196   3.978   9.576  11.424 -0.3505  0.2781 -0.0520
  195MOL0     C26197   4.044   9.522  11.537  0.5605 -0.3935  0.0642
  195MOL0     O26198   4.043   9.601  11.649 -0.1978 -0.3257 -0.0550
  195MOL0     C26199   4.095   9.552  11.771  0.1327  0.7929 -0.3975
  195MOL0     C26200   4.243   9.553  11.771  0.1714 -0.6494  0.8753
  195MOL0     C26201   4.293   9.486  11.900 -0.9826  0.4386 -0.4189
  195MOL0     C26202   4.433   9.425  11.874 -0.4440  0.0572 -0.6776
  195MOL0     C26203   4.477   9.325  11.987 -0.7020  0.1678  0.8921
  195MOL0     C26204   4.612   9.256  11.929  0.5963 -0.1102 -0.3480
  195MOL0     C26205   4.698   9.180  12.034 -0.4203  0.3088  0.5970
  195MOL0     C26206   4.649   9.031  12.042 -0.1722 -0.1318 -0.4258
  195MOL0     N26207   4.507   9.014  12.076  0.2747  0.3429  0.4839
  195MOL0     C26208   4.414   8.980  11.989  0.8343 -0.3727 -0.3307
  195MOL0     C26209   4.304   8.939  12.054  0.2644 -0.2432 -0.0228
  195MOL0     C26210   4.165   8.896  11.988  0.1584 -0.7655  0.6348
  195MOL0     C26211   4.095   9.030  11.944 -0.1531 -0.8571  0.3740
  195MOL0     C26212   3.953   9.006  11.890 -0.1939 -0.5739  1.1053
  195MOL0     C26213   3.898   9.135  11.833 -0.4935 -0.1794 -0.1036
  195MOL0     O26214   3.774   9.096  11.778  0.3655 -0.1999 -0.1401
  195MOL0     C26215   3.703   9.182  11.697  0.8400 -0.8510  0.1216
  195MOL0     C26216   3.724   9.322  11.692  0.1364 -0.3122  0.3621
  195MOL0     C26217   3.631   9.394  11.616 -0.2828  0.1681 -0.3300
  195MOL0     C26218   3.519   9.334  11.550  0.0545  0.0037 -0.8321
  195MOL0     C26219   3.422   9.414  11.467 -0.2321 -0.1715  0.7017
  195MOL0     O26220   3.317   9.356  11.408 -0.2571  0.1332 -0.6668
  195MOL0     C26221   3.243   9.430  11.322 -0.3374 -0.2159  0.4861
  195MOL0     C26222   3.166   9.540  11.370  0.0170  0.0172  0.3935
  195MOL0     C26223   3.085   9.597  11.280  0.4016 -1.0345  0.1219
  195MOL0     C26224   3.073   9.550  11.147 -0.2827  0.4636 -0.1453
  195MOL0     O26225   2.979   9.604  11.061 -0.2694  0.3839 -0.7803
  195MOL0     C26226   2.865   9.514  11.037 -0.1252 -0.3729  0.8643
  195MOL0     C26227   2.865   9.500  10.879 -0.5620  0.2802 -0.8657
  195MOL0     C26228   2.796   9.376  10.828  1.1299  0.5137  0.7660
  195MOL0     C26229   2.655   9.374  10.874  0.1712  0.6016  0.1309
  195MOL0     C26230   2.591   9.234  10.834  0.5185  0.4065 -0.0632
  195MOL0     C26231   2.469   9.199  10.912 -0.3501 -0.6616  0.3258
  195MOL0     C26232   2.508   9.167  11.058  0.4971  0.4370  0.8388
  195MOL0     C26233   2.470   9.032  11.120 -0.1511  0.2914  0.7641
  195MOL0    Cl26234   2.527   9.019  11.285 -0.5088 -0.2052 -0.4654
  195MOL0     C26235   3.162   9.456  11.093  0.2462 -0.7921  0.1307
  195MOL0     C26236   3.242   9.396  11.185  1.1122 -0.4020 -0.4066
  195MOL0     O26237   3.450   9.531  11.452  0.2119 -0.2933  0.5687
  195MOL0     C26238   3.503   9.195  11.562  0.4069 -0.9847  0.1044
  195MOL0     C26239   3.589   9.127  11.640  0.5658  1.2401  0.5601
  195MOL0     N26240   4.337   8.939  12.189 -0.7817 -1.1340 -0.0291
  195MOL0     N26241   4.453   8.997  12.202 -0.8674 -0.2761  0.0120
  195MOL0     C26242   4.094   9.397  11.521 -0.5887 -0.7018  0.1820
  195MOL0     C26243   4.078   9.325  11.401  0.2597 -0.2895  1.1160
  195MOL0     C26244   3.903   9.230  10.960  0.8789 -0.6397 -0.6333
  195MOL0     C26245   4.017   9.137  10.952 -0.5016 -0.6149  0.6447
  195MOL0     C26246   4.013   9.047  10.849 -0.5792  0.3406  0.3958
  195MOL0     C26247   3.909   9.036  10.757  1.1944 -0.3967  0.0776
  195MOL0     O26248   3.924   8.941  10.657  0.2725  0.2714  1.4589
  195MOL0     C26249   3.821   8.845  10.655 -0.2041 -0.0245 -0.3426
  195MOL0     C26250   3.795   8.827  10.507  0.3076  0.1359 -0.4208
  195MOL0     C26251   3.667   8.758  10.471 -0.2213 -0.8197  0.3364
  195MOL0     C26252   3.669   8.692  10.331 -0.1920  0.1665  0.0737
  195MOL0     C26253   3.552   8.611  10.312 -0.0502 -0.3837  0.1209
  195MOL0     C26254   3.449   8.547  10.298  0.8630 -0.1512  0.0560
  195MOL0     C26255   3.802   9.128  10.769  0.7234  0.0588  0.1207
  195MOL0     C26256   3.795   9.229  10.863  0.2550 -0.1020  0.1749
  195MOL0     C26257   3.675   9.328  10.839 -0.2730  0.3763  0.0475
  195MOL0     H26258   3.901   9.559  11.235 -0.0693 -1.2546 -1.0973
  195MOL0     H26259   3.940   9.677  11.440 -2.6169 -0.7563  1.6392
  195MOL0     H26260   4.051   9.621  11.844  0.6220  0.1570  0.5078
  195MOL0     H26261   4.057   9.453  11.797 -2.1240  1.2744 -1.5380
  195MOL0     H26262   4.279   9.655  11.754 -2.1355  0.4174  1.9743
  195MOL0     H26263   4.285   9.496  11.688 -0.8737  0.4578 -0.4548
  195MOL0     H26264   4.241   9.394  11.927  1.4672 -0.7710  0.5254
  195MOL0     H26265   4.298   9.557  11.982  1.3163  1.8786 -1.6864
  195MOL0     H26266   4.419   9.357  11.790  2.0330 -0.3698 -0.8363
  195MOL0     H26267   4.506   9.506  11.861  0.4437 -0.3807  1.2826
  195MOL0     H26268   4.492   9.393  12.071 -0.8114  2.5830 -0.9275
  195MOL0     H26269   4.407   9.248  12.021  1.8199 -2.1054  1.3413
  195MOL0     H26270   4.590   9.201  11.837  1.0053 -2.5526  0.9481
  195MOL0     H26271   4.670   9.345  11.900  2.2196 -0.4794  1.5219
  195MOL0     H26272   4.700   9.236  12.128  0.2046 -1.2057  1.5215
  195MOL0     H26273   4.792   9.180  11.978 -0.7093 -0.8326  0.0696
  195MOL0     H26274   4.662   8.985  11.944 -0.2710 -1.6674  0.2511
  195MOL0     H26275   4.710   8.973  12.111 -0.3864 -1.0924 -1.0207
  195MOL0     H26276   4.435   9.004  11.885  1.1255  2.0592  0.2095
  195MOL0     H26277   4.195   8.833  11.904  3.0896 -1.0394  1.7607
  195MOL0     H26278   4.111   8.842  12.066 -2.2117 -0.0811 -0.4653
  195MOL0     H26279   4.098   9.100  12.028 -0.5814  0.0300 -0.3298
  195MOL0     H26280   4.151   9.071  11.860  1.6185 -0.4305  1.7008
  195MOL0     H26281   3.884   8.977  11.971  2.3650 -0.3086  3.5295
  195MOL0     H26282   3.952   8.927  11.815 -1.3268  0.7333 -0.3274
  195MOL0     H26283   3.973   9.171  11.761  2.1749 -1.2665  1.9313
  195MOL0     H26284   3.886   9.211  11.910 -0.2789  0.2969 -0.5312
  195MOL0     H26285   3.806   9.371  11.743 -0.7652  1.9140 -0.1603
  195MOL0     H26286   3.633   9.502  11.622 -3.2440  0.2556  0.0878
  195MOL0     H26287   3.179   9.547  11.477  2.0005  2.3108  0.1065
  195MOL0     H26288   3.018   9.669  11.327  1.4941 -1.7296  2.9843
  195MOL0     H26289   2.878   9.412  11.075  2.6327 -0.1900  0.6405
  195MOL0     H26290   2.779   9.572  11.070 -0.8036 -0.7633 -0.1616
  195MOL0     H26291   2.839   9.593  10.828  0.2488  0.8559 -0.2789
  195MOL0     H26292   2.969   9.490  10.845  0.0473  1.1288  0.6106
  195MOL0     H26293   2.791   9.386  10.719 -2.6663  0.6501  0.8043
  195MOL0     H26294   2.854   9.287  10.857 -0.8829 -1.7115 -1.5110
  195MOL0     H26295   2.603   9.458  10.827 -2.7836 -0.0225  2.0330
  195MOL0     H26296   2.662   9.381  10.983 -0.1278 -1.3151  0.3046
  195MOL0     H26297   2.667   9.156  10.835 -1.6980 -1.9386 -1.3049
  195MOL0     H26298   2.558   9.245  10.730  0.0359 -2.0141 -0.2339
  195MOL0     H26299   2.396   9.281  10.905  3.2280  2.6764 -2.4835
  195MOL0     H26300   2.422   9.113  10.864 -0.5827 -0.6524  0.5334
  195MOL0     H26301   2.474   9.245  11.127  1.2949  2.1318 -0.6330
  195MOL0     H26302   2.616   9.162  11.067  0.3293 -2.0264  2.9065
  195MOL0     H26303   2.364   9.008  11.106  0.7234 -2.4388 -2.6177
  195MOL0     H26304   2.520   8.962  11.053  1.4489  2.8861 -0.8993
  195MOL0     H26305   3.156   9.440  10.985 -0.4386  3.6501 -0.6747
  195MOL0     H26306   3.311   9.316  11.161 -1.5400 -1.9843 -3.4089
  195MOL0     H26307   3.418   9.140  11.523 -0.0823  0.1594 -0.4876
  195MOL0     H26308   3.570   9.024  11.667 -0.0156  0.9162 -0.9410
  195MOL0     H26309   4.141   9.343  11.602  1.1509 -0.1706 -0.4440
  195MOL0     H26310   4.119   9.225  11.397  1.1281  0.1017 -1.6320
  195MOL0     H26311   4.091   9.116  11.029 -1.0601 -2.1725  0.8100
  195MOL0     H26312   4.091   8.973  10.836  2.9901  3.9140 -0.6621
  195MOL0     H26313   3.730   8.880  10.704 -0.5205 -1.9499  0.5207
  195MOL0     H26314   3.854   8.750  10.697 -0.7421  0.7251  1.9256
  195MOL0     H26315   3.888   8.774  10.483  1.2490  1.5793 -0.0731
  195MOL0     H26316   3.782   8.928  10.468  1.9365  0.6694  0.3323
  195MOL0     H26317   3.581   8.826  10.479  1.6927  1.5632  2.1233
  195MOL0     H26318   3.639   8.681  10.543  2.1746 -2.2328 -0.1368
  195MOL0     H26319   3.692   8.758  10.247  2.7854  0.5908  1.1253
  195MOL0     H26320   3.750   8.618  10.332 -1.0786 -0.9301 -1.9183
  195MOL0     H26321   3.369   8.484  10.263 -0.4700  2.0337 -1.1186
  195MOL0     H26322   3.725   9.115  10.694 -1.0686 -1.3142  2.0854
  195MOL0     H26323   3.641   9.317  10.736  1.5083 -1.0427 -0.4305
  195MOL0     H26324   3.592   9.292  10.901  1.3811  2.0710  3.5194
  195MOL0     H26325   3.691   9.434  10.863 -3.6656  0.6614  1.7476
  196MOL0     O26326   8.483  10.437  10.172 -0.0868 -0.5402 -0.0868
  196MOL0     C26327   8.498  10.430  10.296  0.0843 -0.0719  0.6035
  196MOL0     O26328   8.521  10.321  10.360 -0.1389 -0.0337 -0.9654
  196MOL0     C26329   8.488  10.211  10.292  0.4986  0.6251  0.3398
  196MOL0     C26330   8.579  10.174  10.187 -0.2926  0.5440  0.6699
  196MOL0     C26331   8.554  10.063  10.108  0.8714  0.0018 -1.0056
  196MOL0     C26332   8.419   9.994  10.122 -0.2556 -0.4504  0.6447
  196MOL0     O26333   8.364   9.894  10.044 -0.3820 -0.2010 -0.7428
  196MOL0     C26334   8.466   9.813   9.977  0.1253  0.0642 -0.1315
  196MOL0     C26335   8.402   9.688   9.919  0.5112 -0.3771 -0.0852
  196MOL0     C26336   8.338   9.591  10.022  0.4846 -0.1158 -0.4616
  196MOL0     C26337   8.238   9.484   9.957  0.1125  0.5859 -0.1142
  196MOL0     C26338   8.129   9.422  10.058 -0.6330 -0.8697  0.9352
  196MOL0     C26339   8.170   9.298  10.133  0.0883 -0.9843  0.3722
  196MOL0     C26340   8.105   9.266  10.265 -0.2368 -0.8181 -0.4666
  196MOL0     C26341   8.158   9.361  10.380  0.3175 -0.7399 -0.1333
  196MOL0     N26342   8.128   9.508  10.375 -0.3372  0.6345  0.2662
  196MOL0     C26343   8.004   9.565  10.356 -0.7607  0.0447  0.0486
  196MOL0     C26344   8.019   9.684  10.328  0.3151  0.6664 -0.4626
  196MOL0     C26345   7.907   9.779  10.289  0.3140  1.3518 -0.2854
  196MOL0     C26346   7.883   9.784  10.136 -0.6354  0.8013 -0.1130
  196MOL0     C26347   8.012   9.828  10.057 -0.2009 -0.1949 -0.1745
  196MOL0     C26348   7.970   9.862   9.917 -0.1872  0.5432 -0.2187
  196MOL0     O26349   7.933   9.740   9.857  0.2464 -0.2296  0.6079
  196MOL0     C26350   7.865   9.747   9.729 -0.3097  0.7823  0.1884
  196MOL0     C26351   7.851   9.859   9.657  0.5855 -1.3234  0.8200
  196MOL0     C26352   7.788   9.864   9.532  0.0708 -0.4517 -0.8902
  196MOL0     C26353   7.732   9.755   9.475  0.2339  0.9192  0.2331
  196MOL0     C26354   7.648   9.762   9.348 -0.1016 -0.0887 -0.1791
  196MOL0     O26355   7.572   9.654   9.329  0.3089 -0.0922 -0.4062
  196MOL0     C26356   7.488   9.640   9.218 -0.5644 -0.0498  0.1631
  196MOL0     C26357   7.410   9.740   9.164  1.4502 -0.7148  0.5649
  196MOL0     C26358   7.318   9.721   9.056 -0.9721  0.2290  0.6218
  196MOL0     C26359   7.317   9.592   8.992  0.5376 -0.2862 -0.2980
  196MOL0     O26360   7.233   9.581   8.882 -0.5815  0.4968 -0.4111
  196MOL0     C26361   7.212   9.452   8.820 -0.4707  0.2705  1.3167
  196MOL0     C26362   7.296   9.438   8.697  0.4617 -0.4810 -0.3739
  196MOL0     C26363   7.428   9.371   8.715  0.4914 -0.1552 -0.1300
  196MOL0     C26364   7.528   9.378   8.600 -0.5744 -0.5135 -0.6991
  196MOL0     C26365   7.471   9.365   8.464  0.1124 -0.0903 -0.0208
  196MOL0     C26366   7.572   9.324   8.348  0.6180  0.1997 -0.7150
  196MOL0     C26367   7.677   9.431   8.337  0.0165 -0.2293 -0.5131
  196MOL0     C26368   7.764   9.417   8.215  0.6864 -0.7487  0.0601
  196MOL0    Cl26369   7.676   9.406   8.049  0.1165  0.0424  0.2788
  196MOL0     C26370   7.394   9.488   9.057  0.0565 -0.8391  0.3911
  196MOL0     C26371   7.481   9.521   9.160 -0.3721 -0.3702 -0.0606
  196MOL0     O26372   7.659   9.859   9.277 -0.9990 -0.2253  0.9137
  196MOL0     C26373   7.765   9.629   9.543  0.0635  0.1705  1.0801
  196MOL0     C26374   7.820   9.630   9.665 -1.2449  0.5769 -0.4809
  196MOL0     N26375   8.152   9.721  10.341 -0.4498 -0.3026  0.2516
  196MOL0     N26376   8.218   9.610  10.376 -0.3864  0.6166 -0.4615
  196MOL0     C26377   8.336  10.027  10.232  0.9626 -0.0125 -0.2406
  196MOL0     C26378   8.369  10.142  10.307  0.7071  0.0426 -0.0432
  196MOL0     C26379   8.505  10.560  10.375  0.0446  0.3417 -0.1586
  196MOL0     C26380   8.531  10.677  10.302 -0.4972 -0.5894 -0.1168
  196MOL0     C26381   8.566  10.800  10.370 -0.5227  0.6934  0.2354
  196MOL0     C26382   8.548  10.814  10.508  0.5616  0.3738  0.4453
  196MOL0     O26383   8.525  10.930  10.578 -0.1364 -0.3450  0.5014
  196MOL0     C26384   8.499  11.048  10.500  0.9587  0.5494  0.3478
  196MOL0     C26385   8.452  11.153  10.592  0.6077 -0.5417  0.7628
  196MOL0     C26386   8.554  11.219  10.679  0.5984 -0.6288  0.3041
  196MOL0     C26387   8.675  11.294  10.600 -0.3865  0.0799  0.2734
  196MOL0     C26388   8.624  11.401  10.512 -0.6142 -0.3619  0.0764
  196MOL0     C26389   8.619  11.494  10.432 -0.3511 -0.2102 -0.0564
  196MOL0     C26390   8.528  10.691  10.584  0.7465  0.0874  0.4960
  196MOL0     C26391   8.508  10.567  10.517 -0.2322 -0.3566 -0.2310
  196MOL0     C26392   8.484  10.458  10.614 -1.1080  0.5520 -0.2594
  196MOL0     H26393   8.662  10.240  10.165 -1.1251  1.2634 -0.4933
  196MOL0     H26394   8.628  10.033  10.034  1.5826  1.0774 -0.7455
  196MOL0     H26395   8.514   9.865   9.894  1.4076 -0.7797  0.0523
  196MOL0     H26396   8.548   9.783  10.044  1.0583 -1.5084 -1.8926
  196MOL0     H26397   8.474   9.636   9.856 -1.6318  1.2319 -4.2836
  196MOL0     H26398   8.322   9.717   9.849 -2.6616  0.5717  3.6063
  196MOL0     H26399   8.272   9.652  10.085 -1.1034  0.5119 -2.5928
  196MOL0     H26400   8.410   9.539  10.085  0.5921  0.7402  0.1473
  196MOL0     H26401   8.190   9.529   9.870  0.6740 -0.5641 -1.0504
  196MOL0     H26402   8.299   9.408   9.907  1.5366  1.5960  0.0343
  196MOL0     H26403   8.087   9.501  10.121  0.1557  0.0214  0.3702
  196MOL0     H26404   8.045   9.391   9.995 -1.2241 -1.5776  2.0470
  196MOL0     H26405   8.183   9.213  10.065  0.7813  0.8069 -1.8752
  196MOL0     H26406   8.275   9.310  10.160  0.2326 -0.1765 -0.5150
  196MOL0     H26407   8.126   9.162  10.292 -1.9213 -1.5019 -1.5624
  196MOL0     H26408   7.996   9.279  10.263 -0.0445  0.8654 -0.9206
  196MOL0     H26409   8.125   9.318  10.475 -3.5290 -0.9440 -1.3649
  196MOL0     H26410   8.266   9.344  10.384  0.3559 -0.2308  2.1898
  196MOL0     H26411   7.907   9.517  10.363 -2.1057  2.4337 -1.2436
  196MOL0     H26412   7.816   9.744  10.338  2.1239  1.0156  3.1349
  196MOL0     H26413   7.931   9.878  10.329  1.6961  0.3355  1.5792
  196MOL0     H26414   7.840   9.686  10.109  0.4751  0.4393 -0.6243
  196MOL0     H26415   7.802   9.854  10.113 -1.8717  0.8026  3.6544
  196MOL0     H26416   8.098   9.762  10.064  1.2017  1.6265  0.6386
  196MOL0     H26417   8.044   9.926  10.095  2.4687 -0.8412 -0.5774
  196MOL0     H26418   8.043   9.906   9.848 -2.0263  3.6828 -0.3895
  196MOL0     H26419   7.891   9.938   9.921  0.3743  1.1540 -0.4303
  196MOL0     H26420   7.900   9.950   9.690 -1.4688  1.2886 -2.7025
  196MOL0     H26421   7.771   9.958   9.479 -2.1782  1.5206  2.9338
  196MOL0     H26422   7.415   9.837   9.213  0.1344 -0.4236  0.1619
  196MOL0     H26423   7.250   9.800   9.026 -0.7345  0.3700  0.4546
  196MOL0     H26424   7.222   9.365   8.886 -1.0291 -0.7480  0.0859
  196MOL0     H26425   7.111   9.468   8.782  0.5090  1.2269 -1.1060
  196MOL0     H26426   7.237   9.378   8.627  1.0035  1.1234 -2.2917
  196MOL0     H26427   7.304   9.538   8.653  1.9670 -0.2206  0.4282
  196MOL0     H26428   7.475   9.432   8.793 -2.2757  2.3557 -0.2261
  196MOL0     H26429   7.417   9.270   8.755  0.1397  0.2498  0.8261
  196MOL0     H26430   7.593   9.292   8.618  1.7773  1.4298  0.7947
  196MOL0     H26431   7.602   9.458   8.595 -1.6134  0.4105 -2.9445
  196MOL0     H26432   7.436   9.465   8.439  3.7539  1.5412  0.7860
  196MOL0     H26433   7.391   9.290   8.471  0.9960 -1.3754 -2.4991
  196MOL0     H26434   7.615   9.228   8.378  0.3024  0.1848 -0.3040
  196MOL0     H26435   7.510   9.316   8.258  1.7690 -1.4129 -1.4164
  196MOL0     H26436   7.741   9.422   8.425 -1.2826 -0.6511  0.4058
  196MOL0     H26437   7.625   9.527   8.335 -0.4681 -0.4958 -0.8489
  196MOL0     H26438   7.834   9.500   8.205  0.4493 -0.6093 -0.4788
  196MOL0     H26439   7.821   9.323   8.220 -1.3935 -2.1165 -0.5890
  196MOL0     H26440   7.374   9.388   9.019 -2.5606 -1.0378  2.0393
  196MOL0     H26441   7.542   9.440   9.200  1.0927  0.8960  0.3691
  196MOL0     H26442   7.725   9.539   9.499 -0.3376  1.1030 -0.5471
  196MOL0     H26443   7.851   9.545   9.726 -1.1682  1.2624  0.4620
  196MOL0     H26444   8.240   9.978  10.247 -0.2948  2.3419 -0.1811
  196MOL0     H26445   8.293  10.175  10.378  0.5752  1.4365 -0.8007
  196MOL0     H26446   8.560  10.671  10.198 -0.4579 -0.5351 -0.1100
  196MOL0     H26447   8.577  10.886  10.305 -2.5753  2.6637  2.2982
  196MOL0     H26448   8.416  11.031  10.430  2.7411 -0.1976 -1.6748
  196MOL0     H26449   8.591  11.067  10.445  0.9683 -0.1700  0.1077
  196MOL0     H26450   8.378  11.103  10.654 -2.0629  0.4631 -1.4319
  196MOL0     H26451   8.396  11.226  10.534 -0.3830 -2.3317 -0.6321
  196MOL0     H26452   8.591  11.142  10.747 -1.5864 -1.6690  0.4034
  196MOL0     H26453   8.507  11.291  10.747 -1.7606 -0.0374 -1.8108
  196MOL0     H26454   8.738  11.346  10.674 -1.2654  1.4759  0.0756
  196MOL0     H26455   8.736  11.223  10.543  1.2457 -0.5655  2.6410
  196MOL0     H26456   8.616  11.574  10.360 -0.0902 -0.3340 -0.2042
  196MOL0     H26457   8.522  10.707  10.691  1.6800  1.4372  0.3684
  196MOL0     H26458   8.526  10.493  10.708  1.4611  1.0044 -1.4898
  196MOL0     H26459   8.381  10.424  10.621 -1.3576  1.2558 -0.4472
  196MOL0     H26460   8.550  10.375  10.584  2.1511  1.8654  2.6234
  197MOL0     O26461   4.678   3.597   6.338  0.2881  0.3736 -0.0137
  197MOL0     C26462   4.756   3.537   6.411 -0.2546 -0.1225 -0.6608
  197MOL0     O26463   4.814   3.421   6.382 -0.0302  0.0479  0.1269
  197MOL0     C26464   4.797   3.394   6.242 -0.8513 -0.7260  0.1351
  197MOL0     C26465   4.866   3.469   6.136  0.2469  0.5024 -0.6132
  197MOL0     C26466   4.886   3.414   6.012  0.5875  0.5325  0.3989
  197MOL0     C26467   4.825   3.285   5.979 -0.2378  0.2994 -1.0571
  197MOL0     O26468   4.822   3.220   5.860 -0.7805 -0.1907  0.5073
  197MOL0     C26469   4.894   3.257   5.739  1.1026  0.3939  0.1213
  197MOL0     C26470   4.913   3.139   5.642  0.5840 -1.6453 -0.6422
  197MOL0     C26471   4.971   3.029   5.717  0.1735  0.2650 -1.0684
  197MOL0     C26472   5.076   2.952   5.633 -0.5058 -0.8768  0.4072
  197MOL0     C26473   5.158   2.857   5.726  0.8916 -0.2960 -0.3219
  197MOL0     C26474   5.268   2.783   5.652 -0.1589  1.1482  0.3139
  197MOL0     C26475   5.218   2.686   5.545  0.1188 -1.2424  0.8072
  197MOL0     C26476   5.171   2.543   5.593 -0.0309  0.4954  0.1841
  197MOL0     N26477   5.078   2.479   5.488 -0.0796 -0.4651 -0.4185
  197MOL0     C26478   4.976   2.549   5.436  0.4338  0.2452  0.3789
  197MOL0     C26479   4.930   2.455   5.343  0.3683 -0.6466 -0.9206
  197MOL0     C26480   4.805   2.466   5.265 -0.5945  0.9857  0.0777
  197MOL0     C26481   4.833   2.498   5.121  0.3092 -0.0133 -0.5231
  197MOL0     C26482   4.718   2.500   5.015 -0.1429  0.1104 -0.7178
  197MOL0     C26483   4.755   2.577   4.887 -0.4325 -0.4514 -0.3799
  197MOL0     O26484   4.634   2.637   4.834  0.1074  0.1745 -0.1793
  197MOL0     C26485   4.521   2.564   4.797  0.2515  0.3518 -0.3180
  197MOL0     C26486   4.525   2.429   4.763 -0.3167  0.0877  0.3358
  197MOL0     C26487   4.423   2.363   4.691 -0.7667 -0.1818 -0.1465
  197MOL0     C26488   4.299   2.429   4.688  0.0253  0.1029  0.0428
  197MOL0     C26489   4.182   2.369   4.624 -0.9054  1.0809 -0.1140
  197MOL0     O26490   4.069   2.441   4.645  0.3834 -0.1807  0.0660
  197MOL0     C26491   3.944   2.399   4.602 -0.7624 -0.3513 -0.0447
  197MOL0     C26492   3.892   2.264   4.592  0.4560  0.0316 -0.3618
  197MOL0     C26493   3.755   2.252   4.571 -0.6642 -0.3402 -0.6391
  197MOL0     C26494   3.671   2.363   4.541  0.6443 -1.0941 -0.8884
  197MOL0     O26495   3.541   2.350   4.505  0.5654  1.0088 -0.3347
  197MOL0     C26496   3.444   2.452   4.490 -0.1235 -0.4806 -0.4204
  197MOL0     C26497   3.391   2.521   4.611  0.7533  0.1823 -0.0583
  197MOL0     C26498   3.337   2.439   4.725 -0.2202 -0.8814 -0.3185
  197MOL0     C26499   3.247   2.522   4.823  0.2337  0.3177  0.0540
  197MOL0     C26500   3.243   2.467   4.966  0.1291 -0.2422  0.8956
  197MOL0     C26501   3.196   2.579   5.059  1.2369  0.2995 -0.0297
  197MOL0     C26502   3.176   2.523   5.201  1.1617  0.2396 -0.4905
  197MOL0     C26503   3.108   2.624   5.300  0.9127 -0.5918 -0.2461
  197MOL0    Cl26504   3.066   2.539   5.447 -0.2745  0.4987  0.1898
  197MOL0     C26505   3.734   2.492   4.553 -0.8464  0.5916  0.3360
  197MOL0     C26506   3.859   2.513   4.593 -0.5437 -0.3351 -0.4330
  197MOL0     O26507   4.193   2.253   4.590  0.4724  0.6937  0.0502
  197MOL0     C26508   4.287   2.566   4.745 -0.5109  0.7166  0.5212
  197MOL0     C26509   4.400   2.627   4.798  0.5364  0.5613  1.0707
  197MOL0     N26510   5.021   2.351   5.329 -0.3333 -1.3579  0.3701
  197MOL0     N26511   5.108   2.368   5.420  0.7658 -0.3283 -0.1020
  197MOL0     C26512   4.764   3.219   6.082 -0.8327 -0.0607 -0.7858
  197MOL0     C26513   4.751   3.271   6.209  0.0614  1.0211  0.0206
  197MOL0     C26514   4.744   3.586   6.551  0.1653 -0.0888  0.7684
  197MOL0     C26515   4.718   3.494   6.649 -0.7313 -0.0687 -0.1031
  197MOL0     C26516   4.695   3.526   6.787  0.2207 -0.0592  0.1555
  197MOL0     C26517   4.702   3.660   6.828 -0.6989 -0.2981 -0.3912
  197MOL0     O26518   4.679   3.711   6.951  0.0414 -0.5092  0.4019
  197MOL0     C26519   4.543   3.710   6.987 -0.0226 -1.1779  0.0777
  197MOL0     C26520   4.506   3.808   7.100 -0.2162 -0.1185  0.5189
  197MOL0     C26521   4.559   3.944   7.073 -0.3866  0.1720 -0.4057
  197MOL0     C26522   4.548   4.044   7.183 -1.0630 -0.8092  0.1646
  197MOL0     C26523   4.642   4.144   7.160 -1.0488  0.3195 -0.0714
  197MOL0     C26524   4.711   4.237   7.144 -0.0974 -0.5715  0.3486
  197MOL0     C26525   4.726   3.753   6.732 -0.7965 -0.0990 -0.6992
  197MOL0     C26526   4.746   3.721   6.595 -0.1062  0.5338  0.0798
  197MOL0     C26527   4.775   3.835   6.501  0.3513  0.0866 -0.9910
  197MOL0     H26528   4.924   3.554   6.171  2.1865 -2.6609  5.2105
  197MOL0     H26529   4.942   3.470   5.938  0.0290  1.2900  0.5389
  197MOL0     H26530   4.851   3.347   5.693 -2.4820 -2.1812 -2.0921
  197MOL0     H26531   4.997   3.282   5.764  1.8513 -2.0103 -0.3098
  197MOL0     H26532   4.986   3.166   5.566  3.2644  1.2450  2.6164
  197MOL0     H26533   4.826   3.110   5.583 -0.3028  0.8340 -0.6587
  197MOL0     H26534   4.887   2.968   5.753  2.4610 -1.7524  1.2866
  197MOL0     H26535   5.022   3.072   5.804 -3.9057  3.0601  0.2290
  197MOL0     H26536   5.022   2.890   5.561  0.1096  0.7077 -1.5291
  197MOL0     H26537   5.147   3.026   5.595  1.5954 -0.6543  4.2787
  197MOL0     H26538   5.218   2.918   5.794 -1.2176  3.9305 -1.9099
  197MOL0     H26539   5.085   2.801   5.785 -0.5608  1.8875  0.0712
  197MOL0     H26540   5.339   2.836   5.587 -1.0412 -3.0497 -4.7966
  197MOL0     H26541   5.321   2.725   5.728 -1.4676 -0.7265 -0.1269
  197MOL0     H26542   5.297   2.678   5.469  0.3610  3.7546  0.1931
  197MOL0     H26543   5.137   2.741   5.496 -0.7358  0.9409  4.3249
  197MOL0     H26544   5.254   2.483   5.632  0.7232  0.3000 -1.5950
  197MOL0     H26545   5.104   2.564   5.677  1.8053 -0.0135  1.8583
  197MOL0     H26546   4.936   2.640   5.477 -1.2523 -0.8547  1.2989
  197MOL0     H26547   4.754   2.370   5.276  2.2168 -0.7286 -0.5159
  197MOL0     H26548   4.744   2.537   5.320  0.2325  0.4832  1.6977
  197MOL0     H26549   4.875   2.599   5.114  1.5582 -0.2051  2.7773
  197MOL0     H26550   4.905   2.423   5.086 -0.2790 -0.8442  0.0242
  197MOL0     H26551   4.626   2.537   5.061  1.2420 -0.5808  2.9309
  197MOL0     H26552   4.687   2.400   4.982  0.6383  0.7684 -3.7565
  197MOL0     H26553   4.792   2.515   4.806 -3.3787 -0.2240 -2.0402
  197MOL0     H26554   4.835   2.650   4.904  1.3544 -2.1255 -1.2287
  197MOL0     H26555   4.621   2.382   4.776 -1.1164 -1.8448 -0.3189
  197MOL0     H26556   4.436   2.265   4.646  1.2873 -0.3177  0.6362
  197MOL0     H26557   3.959   2.180   4.608  1.3428  1.0491  1.5589
  197MOL0     H26558   3.707   2.155   4.577  0.0164 -0.5933  2.1448
  197MOL0     H26559   3.482   2.532   4.426  0.6944 -0.7596 -0.2965
  197MOL0     H26560   3.355   2.417   4.436 -1.2585  2.9198 -1.0056
  197MOL0     H26561   3.470   2.584   4.652  1.0509  1.5570 -2.5273
  197MOL0     H26562   3.315   2.595   4.583  0.9907  1.0748  1.5928
  197MOL0     H26563   3.293   2.343   4.697  1.3502 -2.4698  2.2025
  197MOL0     H26564   3.425   2.426   4.789  0.6250  4.9184  0.2317
  197MOL0     H26565   3.147   2.511   4.780  1.6372 -0.5745 -3.3323
  197MOL0     H26566   3.277   2.627   4.823  4.3412 -0.6843  0.8406
  197MOL0     H26567   3.345   2.430   4.982  0.6381 -0.5574 -2.4088
  197MOL0     H26568   3.170   2.386   4.960  2.0046 -1.9090 -2.1981
  197MOL0     H26569   3.261   2.666   5.055  1.2826  0.3543  1.3471
  197MOL0     H26570   3.096   2.618   5.037  1.7280  2.7839  1.8089
  197MOL0     H26571   3.282   2.506   5.225  0.7057 -0.5916  1.1045
  197MOL0     H26572   3.120   2.430   5.212 -2.9256  2.6583  1.3357
  197MOL0     H26573   3.166   2.713   5.324  0.1095 -0.0247 -0.3797
  197MOL0     H26574   3.023   2.673   5.252  0.9172  1.5698  1.7989
  197MOL0     H26575   3.681   2.587   4.545  0.1848  1.1067 -0.6262
  197MOL0     H26576   3.901   2.607   4.628 -1.2330  0.4287 -1.5837
  197MOL0     H26577   4.198   2.629   4.748  1.0898  3.1250  2.9581
  197MOL0     H26578   4.394   2.727   4.841 -0.1095  1.1223 -0.2670
  197MOL0     H26579   4.721   3.121   6.061 -0.7559  0.0156 -1.3246
  197MOL0     H26580   4.708   3.201   6.279  2.5463 -1.0777 -0.4057
  197MOL0     H26581   4.709   3.390   6.616  2.7412 -0.0341 -1.5793
  197MOL0     H26582   4.675   3.454   6.866 -3.0887  2.3023  1.7059
  197MOL0     H26583   4.518   3.608   7.017  0.7006 -0.7042  2.5011
  197MOL0     H26584   4.495   3.733   6.891 -3.4921  1.2744  2.1380
  197MOL0     H26585   4.546   3.763   7.191 -0.7517 -0.2559  0.6959
  197MOL0     H26586   4.397   3.823   7.106 -0.2125 -0.5904  2.1494
  197MOL0     H26587   4.519   3.973   6.976  1.3700 -2.7699 -2.1813
  197MOL0     H26588   4.666   3.932   7.055 -0.0045  1.3615  0.9635
  197MOL0     H26589   4.452   4.096   7.181 -1.2358 -0.9830  2.0277
  197MOL0     H26590   4.551   3.999   7.283 -1.7128  1.1502  1.1282
  197MOL0     H26591   4.774   4.322   7.162  0.3981  0.3815 -4.5519
  197MOL0     H26592   4.725   3.855   6.770  1.1306 -0.9038  1.7308
  197MOL0     H26593   4.837   3.909   6.551 -0.4393  0.6142 -0.7792
  197MOL0     H26594   4.826   3.793   6.414  1.4269 -2.1915  0.6268
  197MOL0     H26595   4.686   3.887   6.463 -0.4493 -1.1493 -0.8691
  198MOL0     O26596  10.866   1.605  11.301 -0.3613  1.3280 -0.2911
  198MOL0     C26597  10.941   1.557  11.388  0.5899  0.9698  1.0388
  198MOL0     O26598  10.937   1.609  11.517  0.4425 -0.4374 -0.3351
  198MOL0     C26599  10.852   1.713  11.531  0.6671  0.1046 -0.3547
  198MOL0     C26600  10.711   1.697  11.563 -0.5630  0.2287  0.2837
  198MOL0     C26601  10.626   1.807  11.566  0.2152 -0.0634  0.0866
  198MOL0     C26602  10.682   1.940  11.561  0.7023  0.3152  0.9551
  198MOL0     O26603  10.606   2.052  11.584 -0.2706  0.4413  0.1112
  198MOL0     C26604  10.460   2.036  11.594  0.2393  0.4073  0.0027
  198MOL0     C26605  10.389   2.071  11.461  0.1105  0.1065 -0.3550
  198MOL0     C26606  10.253   2.137  11.480  0.2918 -0.0883  0.1814
  198MOL0     C26607  10.198   2.191  11.343 -0.6800 -0.6373 -0.0018
  198MOL0     C26608  10.066   2.262  11.347 -0.8432  0.6129  0.3040
  198MOL0     C26609  10.054   2.375  11.452  0.6381 -0.0904  0.1808
  198MOL0     C26610   9.960   2.485  11.402 -0.6005 -0.8266 -0.5530
  198MOL0     C26611   9.811   2.435  11.380  0.3328 -1.6188  0.5742
  198MOL0     N26612   9.706   2.533  11.435 -0.2234  0.0951 -0.3483
  198MOL0     C26613   9.705   2.669  11.394 -0.0091  0.6538 -0.6516
  198MOL0     C26614   9.624   2.728  11.484 -0.0912  0.6341  0.7409
  198MOL0     C26615   9.586   2.874  11.493  0.5916 -0.5217 -1.1347
  198MOL0     C26616   9.612   2.922  11.641  0.0862  0.7588 -0.1711
  198MOL0     C26617   9.548   3.063  11.665  0.7829 -0.8103  0.3106
  198MOL0     C26618   9.514   3.099  11.811 -0.1260 -0.5245  0.4342
  198MOL0     O26619   9.629   3.086  11.891 -0.3465 -0.0200 -0.1684
  198MOL0     C26620   9.621   3.110  12.023  0.6167 -0.9056  0.1478
  198MOL0     C26621   9.735   3.089  12.093 -0.2737  0.5104 -0.5718
  198MOL0     C26622   9.738   3.097  12.237  0.9813 -0.3328  0.8242
  198MOL0     C26623   9.630   3.151  12.314  0.4177 -0.5428 -0.3515
  198MOL0     C26624   9.639   3.173  12.461  0.4989 -0.0296  0.2446
  198MOL0     O26625   9.754   3.122  12.525 -0.0849 -0.3084  0.0813
  198MOL0     C26626   9.764   3.116  12.660 -0.6622  0.3488  0.4257
  198MOL0     C26627   9.742   3.001  12.732 -0.0504  0.7652  0.4993
  198MOL0     C26628   9.734   3.016  12.871 -0.7959  0.8066 -1.3273
  198MOL0     C26629   9.758   3.132  12.947 -0.0839  0.0193  1.3512
  198MOL0     O26630   9.752   3.149  13.088  0.3928  0.3347 -0.0768
  198MOL0     C26631   9.840   3.049  13.153 -0.0708  0.8268  0.7702
  198MOL0     C26632   9.855   3.091  13.298 -0.3724  0.3254 -0.3856
  198MOL0     C26633   9.974   3.182  13.311  0.3680 -0.0591 -0.2681
  198MOL0     C26634   9.970   3.258  13.445 -0.2392  0.6961 -0.3685
  198MOL0     C26635  10.050   3.192  13.557  0.7517 -0.5495 -0.1099
  198MOL0     C26636  10.207   3.200  13.541 -0.1068  0.1650 -0.5256
  198MOL0     C26637  10.269   3.349  13.561 -0.2189  0.4400 -0.5525
  198MOL0     C26638  10.283   3.414  13.433 -0.5125  0.1905  0.2873
  198MOL0    Cl26639  10.390   3.311  13.322  0.1339  0.0459  0.1448
  198MOL0     C26640   9.781   3.245  12.865 -0.6899 -0.1809 -0.3452
  198MOL0     C26641   9.783   3.238  12.724 -0.2697 -1.1050 -0.0332
  198MOL0     O26642   9.559   3.246  12.519  0.7076 -0.0145  0.6506
  198MOL0     C26643   9.514   3.178  12.238  0.4196 -0.8162 -1.6175
  198MOL0     C26644   9.507   3.154  12.098  0.3196 -0.3288 -0.1711
  198MOL0     N26645   9.583   2.640  11.584  0.6861 -0.3315 -0.2028
  198MOL0     N26646   9.640   2.523  11.554  0.3446 -0.3221  0.7557
  198MOL0     C26647  10.823   1.961  11.535  0.2877  0.4276 -0.3145
  198MOL0     C26648  10.899   1.846  11.521 -0.0241 -0.0335 -0.2654
  198MOL0     C26649  11.021   1.443  11.367  0.3259 -0.0107 -0.2002
  198MOL0     C26650  11.069   1.369  11.481  0.6900 -0.6603  0.5720
  198MOL0     C26651  11.154   1.271  11.456 -0.1847  0.7128  0.1203
  198MOL0     C26652  11.202   1.237  11.330 -0.0428 -0.8495  1.1550
  198MOL0     O26653  11.280   1.126  11.306 -0.7081 -0.1438  0.1781
  198MOL0     C26654  11.355   1.063  11.414  0.1448 -0.6801  0.1586
  198MOL0     C26655  11.478   0.997  11.358 -0.8038  0.2569  0.5225
  198MOL0     C26656  11.562   1.089  11.263  0.4405 -0.3260 -0.4886
  198MOL0     C26657  11.704   1.031  11.234  0.6243 -0.3926  0.2656
  198MOL0     C26658  11.787   1.052  11.348  0.5002  0.3896  0.3208
  198MOL0     C26659  11.874   1.054  11.435 -0.2287 -0.0146  1.1071
  198MOL0     C26660  11.161   1.311  11.218 -0.0837 -0.7906  0.5671
  198MOL0     C26661  11.068   1.412  11.240 -1.1655  0.8622 -0.0753
  198MOL0     C26662  11.035   1.491  11.121 -0.2230 -0.5683 -0.5053
  198MOL0     H26663  10.688   1.592  11.579  0.9062 -1.0946 -4.5865
  198MOL0     H26664  10.521   1.788  11.581  0.1964 -0.7556 -0.8473
  198MOL0     H26665  10.425   1.950  11.651  0.4619  1.1918  1.3718
  198MOL0     H26666  10.428   2.124  11.650 -0.1050  0.6996 -0.6338
  198MOL0     H26667  10.376   1.984  11.396 -1.3514 -0.6961  0.9391
  198MOL0     H26668  10.455   2.141  11.407 -0.5282  0.1636 -1.0840
  198MOL0     H26669  10.261   2.217  11.553 -5.8318  0.9344  0.2427
  198MOL0     H26670  10.180   2.073  11.530  1.9056 -0.9477  1.5393
  198MOL0     H26671  10.276   2.257  11.303 -3.2920  0.9980 -2.7164
  198MOL0     H26672  10.174   2.111  11.272 -2.9763  1.0332 -1.2458
  198MOL0     H26673  10.041   2.292  11.245 -0.6849 -0.0266  0.0702
  198MOL0     H26674   9.994   2.184  11.375 -2.1964  1.3384 -0.9896
  198MOL0     H26675  10.019   2.335  11.547  1.7374 -2.7859 -0.4628
  198MOL0     H26676  10.155   2.415  11.467 -0.1738  1.4232  1.9572
  198MOL0     H26677   9.988   2.521  11.303 -0.2039  1.5711  0.3815
  198MOL0     H26678   9.970   2.573  11.465 -0.7363 -1.5683  0.5405
  198MOL0     H26679   9.790   2.426  11.273  3.4034  0.1317 -0.2998
  198MOL0     H26680   9.775   2.342  11.425 -2.9393 -0.6938  0.1267
  198MOL0     H26681   9.773   2.718  11.325 -1.1374  0.9435 -1.5950
  198MOL0     H26682   9.642   2.939  11.425  3.7945 -1.2901  0.5841
  198MOL0     H26683   9.479   2.870  11.470  0.4229 -1.1838 -0.2726
  198MOL0     H26684   9.561   2.858  11.713  0.0590  0.8159 -0.1391
  198MOL0     H26685   9.720   2.926  11.661 -0.3906  0.2036  2.9370
  198MOL0     H26686   9.458   3.062  11.603  1.5768  1.3470 -1.0320
  198MOL0     H26687   9.609   3.142  11.620 -0.7260 -0.4588 -1.2455
  198MOL0     H26688   9.430   3.036  11.844 -0.6955  0.8085  1.6657
  198MOL0     H26689   9.486   3.204  11.817  1.2422  0.1240 -2.7977
  198MOL0     H26690   9.819   3.079  12.025  0.1269 -1.4383  0.1556
  198MOL0     H26691   9.826   3.070  12.295  1.4581  0.4245  0.4799
  198MOL0     H26692   9.748   2.899  12.697 -0.6800 -0.2165  3.0254
  198MOL0     H26693   9.710   2.931  12.934  1.2559  1.6250  0.7266
  198MOL0     H26694   9.810   2.944  13.152 -2.8108  1.5508 -0.7225
  198MOL0     H26695   9.933   3.051  13.095 -0.9680  1.0701 -0.6969
  198MOL0     H26696   9.765   3.144  13.329 -0.2075  2.3963 -3.1349
  198MOL0     H26697   9.863   3.001  13.360  3.0565  0.3033 -0.6402
  198MOL0     H26698  10.061   3.115  13.307  2.7873  2.7092  1.5850
  198MOL0     H26699   9.989   3.247  13.225 -3.2942  4.4434  2.0616
  198MOL0     H26700   9.865   3.275  13.470 -0.8477 -2.4797 -0.4686
  198MOL0     H26701  10.019   3.353  13.420  1.5653  0.0114  0.4040
  198MOL0     H26702  10.030   3.085  13.569 -0.1847 -0.8931 -3.5561
  198MOL0     H26703  10.016   3.246  13.646 -3.3779  0.1224 -1.8874
  198MOL0     H26704  10.255   3.137  13.616 -3.3065 -0.8843  0.8311
  198MOL0     H26705  10.227   3.160  13.441  0.8010  2.0146 -1.1261
  198MOL0     H26706  10.371   3.331  13.597  0.4154  0.9715 -2.0149
  198MOL0     H26707  10.210   3.400  13.638  1.0035 -0.0438  0.7537
  198MOL0     H26708  10.184   3.425  13.390 -1.7020  2.0538  3.1969
  198MOL0     H26709  10.331   3.512  13.442  1.9012 -0.8288 -0.5215
  198MOL0     H26710   9.800   3.342  12.910 -0.6686  0.3795 -1.5291
  198MOL0     H26711   9.804   3.327  12.667 -1.3006  1.2018  2.9201
  198MOL0     H26712   9.424   3.223  12.278  0.3408 -3.1068  1.0873
  198MOL0     H26713   9.410   3.171  12.052  2.1168  1.9840 -3.5348
  198MOL0     H26714  10.868   2.060  11.533  1.0202  0.1307  0.7381
  198MOL0     H26715  11.004   1.854  11.493  0.2106  0.7758  0.7720
  198MOL0     H26716  11.033   1.386  11.582 -3.8109  1.5077 -1.1357
  198MOL0     H26717  11.190   1.217  11.543 -1.1124 -2.6989 -1.4272
  198MOL0     H26718  11.300   0.995  11.480  1.3230  0.5081  2.4891
  198MOL0     H26719  11.389   1.139  11.484 -0.9558 -1.2047  1.2929
  198MOL0     H26720  11.439   0.911  11.302 -1.6994  0.4832  0.7823
  198MOL0     H26721  11.543   0.960  11.437  1.4402 -1.8113 -2.0851
  198MOL0     H26722  11.555   1.191  11.301 -0.1204  0.1352 -1.7858
  198MOL0     H26723  11.497   1.100  11.176  0.0597  0.0016 -0.1691
  198MOL0     H26724  11.711   0.927  11.201  2.1296  0.3737 -2.0995
  198MOL0     H26725  11.739   1.080  11.143 -0.9133 -2.4870 -1.5465
  198MOL0     H26726  11.957   1.040  11.501  2.5577 -0.9030 -2.2421
  198MOL0     H26727  11.199   1.285  11.119  0.7859 -0.6015  0.8435
  198MOL0     H26728  11.062   1.596  11.131  1.0186 -0.9480  0.4184
  198MOL0     H26729  11.074   1.452  11.026 -0.0632 -0.7478 -0.3689
  198MOL0     H26730  10.927   1.493  11.107 -0.1862  2.1792 -0.8767
  199MOL0     O26731   0.815   7.725   0.296  0.3918  0.3171  0.3022
  199MOL0     C26732   0.727   7.658   0.355  0.3756 -0.7554 -0.5292
  199MOL0     O26733   0.643   7.569   0.298  0.3334 -0.7537  0.0649
  199MOL0     C26734   0.669   7.529   0.172  0.3612  0.3799  1.4451
  199MOL0     C26735   0.587   7.563   0.065 -0.5512 -0.4503 -0.1118
  199MOL0     C26736   0.627   7.536  -0.069  1.7568  0.1147 -0.5448
  199MOL0     C26737   0.756   7.488  -0.094 -0.1048  0.2962  0.2764
  199MOL0     O26738   0.822   7.491  -0.217  0.7030  0.0260 -0.0981
  199MOL0     C26739   0.951   7.532  -0.241  0.8296 -0.6056 -0.1989
  199MOL0     C26740   0.963   7.515  -0.397 -0.7245  0.5285 -1.7024
  199MOL0     C26741   0.928   7.376  -0.440 -0.3106 -0.8081 -0.2580
  199MOL0     C26742   0.990   7.335  -0.573 -0.0136  0.0556  0.3856
  199MOL0     C26743   0.953   7.433  -0.694 -0.4673  0.7465 -1.2660
  199MOL0     C26744   1.070   7.520  -0.752  0.5028 -0.9322 -1.1224
  199MOL0     C26745   1.184   7.449  -0.818  0.4577  1.0229 -0.3987
  199MOL0     C26746   1.286   7.522  -0.904  0.7208 -0.0007 -0.3603
  199MOL0     N26747   1.221   7.622  -0.994 -0.6519  0.7663 -0.2438
  199MOL0     C26748   1.122   7.577  -1.081 -0.3842  0.9706  0.3162
  199MOL0     C26749   1.057   7.693  -1.113  1.1571  0.7948  1.0415
  199MOL0     C26750   0.940   7.700  -1.190  0.9678 -0.1287 -0.1281
  199MOL0     C26751   0.822   7.664  -1.102 -0.0481  0.2205 -0.3641
  199MOL0     C26752   0.789   7.778  -1.007  0.5272  0.1529 -0.4500
  199MOL0     C26753   0.777   7.923  -1.061 -0.1551 -0.5995  0.2801
  199MOL0     O26754   0.656   7.946  -1.127  0.7719 -0.0952 -0.5313
  199MOL0     C26755   0.638   8.068  -1.174 -0.1849  0.4711  0.6787
  199MOL0     C26756   0.712   8.181  -1.172  0.5336 -0.2283 -0.3652
  199MOL0     C26757   0.690   8.296  -1.245 -0.0053  0.1770 -0.9162
  199MOL0     C26758   0.579   8.311  -1.324 -0.6378  1.1046  0.2053
  199MOL0     C26759   0.543   8.442  -1.389  0.1864 -0.0420  0.9773
  199MOL0     O26760   0.628   8.536  -1.367  0.5457 -0.9709 -0.3441
  199MOL0     C26761   0.602   8.666  -1.403  0.5592  0.6062  0.8356
  199MOL0     C26762   0.481   8.731  -1.426  1.3820  0.1764 -0.5004
  199MOL0     C26763   0.486   8.862  -1.465  0.2495 -1.0473  0.7717
  199MOL0     C26764   0.601   8.934  -1.481 -0.0399  0.2598 -1.5616
  199MOL0     O26765   0.608   9.072  -1.501  1.4923 -0.3634  0.1469
  199MOL0     C26766   0.520   9.125  -1.605  0.1207  0.6482  0.3409
  199MOL0     C26767   0.593   9.242  -1.670 -0.8939  0.2496  0.2590
  199MOL0     C26768   0.520   9.371  -1.714 -0.6640  0.4421 -0.4097
  199MOL0     C26769   0.621   9.469  -1.794 -0.2538  0.2426 -0.0261
  199MOL0     C26770   0.567   9.613  -1.786 -0.1715 -0.2325  0.1749
  199MOL0     C26771   0.429   9.621  -1.852  0.0024 -0.4462  0.8532
  199MOL0     C26772   0.347   9.735  -1.804 -0.3179 -0.0904  0.0760
  199MOL0     C26773   0.407   9.869  -1.835 -1.0506  1.2585  0.1058
  199MOL0    Cl26774   0.553   9.918  -1.745  0.0665  0.3471  0.1894
  199MOL0     C26775   0.724   8.872  -1.455  0.6609 -0.1578  0.0108
  199MOL0     C26776   0.719   8.740  -1.416  0.3307  0.0394  0.1293
  199MOL0     O26777   0.443   8.451  -1.469  0.2497 -0.2143  0.3277
  199MOL0     C26778   0.491   8.193  -1.333 -1.2913  0.2276  0.5148
  199MOL0     C26779   0.527   8.085  -1.248 -0.1286  0.1063  0.4152
  199MOL0     N26780   1.109   7.794  -1.046 -0.3548 -0.9654  0.5996
  199MOL0     N26781   1.213   7.757  -0.984  0.7652 -0.5755 -0.0191
  199MOL0     C26782   0.826   7.426   0.022  0.3109 -0.9298  0.6464
  199MOL0     C26783   0.780   7.443   0.153  0.6769 -0.0032  0.8463
  199MOL0     C26784   0.732   7.669   0.504 -0.0797 -0.2138  0.6423
  199MOL0     C26785   0.731   7.801   0.561  0.0851  1.0809  0.6193
  199MOL0     C26786   0.697   7.834   0.693  0.1036  0.7717 -0.5949
  199MOL0     C26787   0.674   7.725   0.781  0.4916  0.1426 -0.4690
  199MOL0     O26788   0.650   7.766   0.906 -0.2743 -1.3611  0.1571
  199MOL0     C26789   0.669   7.685   1.024 -1.0647  0.4992 -0.0587
  199MOL0     C26790   0.827   7.666   1.048  0.2251  0.1354 -0.3364
  199MOL0     C26791   0.904   7.796   1.093  0.7258  1.1167  0.4259
  199MOL0     C26792   0.848   7.872   1.211  0.2016  1.1537  0.7840
  199MOL0     C26793   0.853   7.799   1.338  0.3685  0.3366 -0.3567
  199MOL0     C26794   0.861   7.745   1.450 -0.2696  0.8187  0.2046
  199MOL0     C26795   0.671   7.596   0.726  0.2081  0.6708  0.5944
  199MOL0     C26796   0.706   7.568   0.595 -0.7711 -0.0562  0.0170
  199MOL0     C26797   0.705   7.423   0.550 -0.3349  0.5175  0.2344
  199MOL0     H26798   0.500   7.616   0.101  0.3141  1.5902 -0.9048
  199MOL0     H26799   0.559   7.566  -0.148 -0.9619  1.0647  2.0132
  199MOL0     H26800   0.969   7.637  -0.220  0.1141 -0.8794  2.0736
  199MOL0     H26801   1.027   7.471  -0.192  2.3721  1.6482  0.3130
  199MOL0     H26802   1.063   7.543  -0.433  0.1906  0.5804  0.6682
  199MOL0     H26803   0.900   7.596  -0.436  1.1479  2.8066 -0.2919
  199MOL0     H26804   0.819   7.370  -0.445 -0.5552  2.2462 -0.8135
  199MOL0     H26805   0.964   7.302  -0.369  0.1734 -2.5126 -2.1880
  199MOL0     H26806   1.096   7.338  -0.546 -0.0351 -2.4665  0.9693
  199MOL0     H26807   0.960   7.233  -0.596 -0.3171  0.1457  0.3765
  199MOL0     H26808   0.913   7.370  -0.775 -0.0624  2.2025 -2.6332
  199MOL0     H26809   0.878   7.502  -0.655  0.4761  0.8721  0.4239
  199MOL0     H26810   1.020   7.589  -0.820  3.4336 -0.1765 -2.6854
  199MOL0     H26811   1.107   7.581  -0.670 -3.9179 -1.9690  2.0053
  199MOL0     H26812   1.140   7.378  -0.889  0.7871  3.6428 -3.4426
  199MOL0     H26813   1.240   7.391  -0.744 -0.6326 -2.0604 -1.7991
  199MOL0     H26814   1.360   7.569  -0.839  1.7208 -2.4910  0.4414
  199MOL0     H26815   1.340   7.451  -0.967  0.2808 -0.2624 -0.4491
  199MOL0     H26816   1.095   7.476  -1.110  1.0517  0.0688  1.9476
  199MOL0     H26817   0.927   7.798  -1.237 -2.0035 -0.7247 -0.7952
  199MOL0     H26818   0.936   7.619  -1.264 -2.0567  0.1667 -0.4357
  199MOL0     H26819   0.732   7.628  -1.152 -0.9310  2.0263 -0.1569
  199MOL0     H26820   0.855   7.579  -1.041 -2.6429  0.1946  1.1969
  199MOL0     H26821   0.856   7.779  -0.920 -0.2013 -0.8547  0.1473
  199MOL0     H26822   0.695   7.749  -0.959  1.7099 -0.3242  1.7300
  199MOL0     H26823   0.867   7.950  -1.116 -0.2910 -2.1503 -0.7557
  199MOL0     H26824   0.772   7.979  -0.967 -0.2548  0.1779 -0.1776
  199MOL0     H26825   0.803   8.185  -1.112 -0.0593  2.3408  0.4913
  199MOL0     H26826   0.771   8.369  -1.241 -1.1570  1.4763 -0.3175
  199MOL0     H26827   0.390   8.676  -1.405  3.1849 -3.0996 -0.6702
  199MOL0     H26828   0.389   8.901  -1.495 -0.0647 -3.7503 -2.1720
  199MOL0     H26829   0.507   9.051  -1.684  0.6805  0.9330 -0.0275
  199MOL0     H26830   0.424   9.159  -1.565 -1.1023 -1.6078 -0.4759
  199MOL0     H26831   0.672   9.279  -1.604 -0.2234  2.2871 -1.5531
  199MOL0     H26832   0.650   9.195  -1.751 -0.2187 -0.0399  0.8953
  199MOL0     H26833   0.432   9.341  -1.773  0.0781  1.5379 -2.1705
  199MOL0     H26834   0.485   9.431  -1.629  0.7504  1.1773 -0.3280
  199MOL0     H26835   0.648   9.433  -1.893  4.2602  0.6252  0.8830
  199MOL0     H26836   0.715   9.463  -1.739 -0.6917 -0.8352  0.6515
  199MOL0     H26837   0.637   9.682  -1.833 -0.3063 -1.3627 -1.8390
  199MOL0     H26838   0.571   9.645  -1.682  0.0681 -0.2493  0.1724
  199MOL0     H26839   0.463   9.643  -1.953 -0.1970  0.6056  1.0094
  199MOL0     H26840   0.355   9.540  -1.848 -2.7350  1.8719  0.1574
  199MOL0     H26841   0.328   9.717  -1.697  1.3050 -1.8684  0.1126
  199MOL0     H26842   0.249   9.725  -1.852 -0.2278 -1.7792  0.1973
  199MOL0     H26843   0.439   9.869  -1.939  2.0255 -2.4003  0.8249
  199MOL0     H26844   0.347   9.957  -1.810 -0.6110  2.4870 -2.7824
  199MOL0     H26845   0.817   8.924  -1.473  0.1769  0.8734  0.3801
  199MOL0     H26846   0.817   8.692  -1.420 -0.8662 -2.5025 -0.8676
  199MOL0     H26847   0.401   8.194  -1.395 -0.4694  1.3894 -0.7237
  199MOL0     H26848   0.451   8.008  -1.261  0.1670 -0.5981  2.4388
  199MOL0     H26849   0.922   7.375   0.016  0.1930 -0.9950 -1.4946
  199MOL0     H26850   0.837   7.396   0.232  0.5206 -1.1035  0.3303
  199MOL0     H26851   0.765   7.884   0.499  1.1481  1.7579  2.0687
  199MOL0     H26852   0.715   7.929   0.743 -0.8864  0.9029 -0.4855
  199MOL0     H26853   0.615   7.590   1.012  1.0097 -0.9159  1.1350
  199MOL0     H26854   0.617   7.729   1.110  1.8381  3.3066  0.4126
  199MOL0     H26855   0.869   7.623   0.957 -1.5840 -1.5087 -0.4803
  199MOL0     H26856   0.846   7.596   1.130  3.6935  0.1278 -0.9787
  199MOL0     H26857   0.895   7.870   1.013 -1.3690  1.2391  0.7349
  199MOL0     H26858   1.008   7.767   1.110  0.0597 -1.3507  0.7193
  199MOL0     H26859   0.921   7.952   1.227  3.3826 -0.4980 -3.5724
  199MOL0     H26860   0.748   7.909   1.189 -0.9812 -2.5297 -0.8105
  199MOL0     H26861   0.861   7.712   1.551  0.5224  0.8680  0.2272
  199MOL0     H26862   0.648   7.511   0.790  0.8807 -1.4580 -1.8192
  199MOL0     H26863   0.802   7.389   0.511 -1.0900 -1.0649 -0.3656
  199MOL0     H26864   0.687   7.361   0.638 -3.2288  1.3394  0.3309
  199MOL0     H26865   0.629   7.397   0.476  0.2394 -0.3842 -0.0572
  200MOL0     O26866   8.005  10.512   3.085  0.0983  0.0538  0.2092
  200MOL0     C26867   8.094  10.588   3.040  1.5100  0.0356 -0.5945
  200MOL0     O26868   8.198  10.637   3.111  0.1887 -0.3616  0.6986
  200MOL0     C26869   8.231  10.602   3.242 -0.3844 -0.2799 -0.4313
  200MOL0     C26870   8.372  10.608   3.273 -0.1336 -0.2664 -0.1849
  200MOL0     C26871   8.423  10.587   3.399  0.2545  1.2683  0.4327
  200MOL0     C26872   8.328  10.551   3.498  0.2912  0.2762 -0.6752
  200MOL0     O26873   8.364  10.507   3.625 -0.3071 -0.2245  0.5388
  200MOL0     C26874   8.270  10.503   3.740  0.3269 -0.2129  1.1211
  200MOL0     C26875   8.346  10.479   3.855 -0.6482  0.0070 -0.8859
  200MOL0     C26876   8.262  10.491   3.986  0.7979 -0.5826  0.1911
  200MOL0     C26877   8.217  10.625   4.023  0.5777 -0.7043  0.5216
  200MOL0     C26878   8.134  10.623   4.152 -0.2358  0.4460  0.2550
  200MOL0     C26879   8.186  10.537   4.264  1.4560 -0.0375  0.2659
  200MOL0     C26880   8.113  10.571   4.395 -0.8778  0.0060 -0.9144
  200MOL0     C26881   8.119  10.439   4.474 -0.0172 -0.9139  0.0891
  200MOL0     N26882   7.989  10.372   4.482 -0.5262  0.7071  0.0466
  200MOL0     C26883   7.944  10.288   4.379  0.1919  0.3575 -0.1409
  200MOL0     C26884   7.835  10.236   4.432  1.1078 -0.1112  0.4457
  200MOL0     C26885   7.738  10.149   4.354  0.4505  0.6038 -0.1816
  200MOL0     C26886   7.703  10.214   4.220 -0.9225 -0.2956 -0.9958
  200MOL0     C26887   7.658  10.101   4.131  0.5435 -0.6413 -0.4634
  200MOL0     C26888   7.647  10.153   3.976 -0.3687  0.1327 -0.0824
  200MOL0     O26889   7.540  10.254   3.965 -0.0318  0.2372 -0.0381
  200MOL0     C26890   7.516  10.318   3.850  0.1837  0.1406  0.0872
  200MOL0     C26891   7.376  10.338   3.835 -1.3150 -1.0920 -0.8677
  200MOL0     C26892   7.325  10.387   3.724 -1.0303 -0.5136 -0.4042
  200MOL0     C26893   7.414  10.434   3.619 -0.9104  0.1603  0.0316
  200MOL0     C26894   7.367  10.501   3.497 -0.1051 -0.0624 -0.5340
  200MOL0     O26895   7.241  10.539   3.507  0.0997 -0.4754 -0.1050
  200MOL0     C26896   7.187  10.584   3.388 -0.4927 -0.4588 -0.2902
  200MOL0     C26897   7.090  10.511   3.328 -0.0590 -0.4954  0.7447
  200MOL0     C26898   7.022  10.560   3.209 -0.1157  0.2770  0.0456
  200MOL0     C26899   7.062  10.686   3.157  0.1373 -0.6998  0.3872
  200MOL0     O26900   7.004  10.749   3.051 -0.0020  0.1777  0.3239
  200MOL0     C26901   6.920  10.667   2.967  0.4596 -0.3057  0.1544
  200MOL0     C26902   6.889  10.753   2.843  0.5345 -0.3739 -0.0504
  200MOL0     C26903   6.834  10.673   2.715  0.8603 -1.0310  0.0013
  200MOL0     C26904   6.690  10.632   2.736 -0.2499 -1.1823 -0.9698
  200MOL0     C26905   6.629  10.591   2.600 -0.8284  0.0903  0.3299
  200MOL0     C26906   6.492  10.525   2.595  0.3677  0.0620  0.3964
  200MOL0     C26907   6.459  10.502   2.444  1.0149 -0.5303  0.1839
  200MOL0     C26908   6.382  10.375   2.419 -0.0124 -0.2750  0.4812
  200MOL0    Cl26909   6.510  10.251   2.390 -0.3559 -0.4570 -0.0033
  200MOL0     C26910   7.167  10.760   3.218 -0.4028  0.6640  0.2605
  200MOL0     C26911   7.220  10.711   3.340 -0.0291 -0.2546  0.2527
  200MOL0     O26912   7.443  10.516   3.403 -1.1739  0.2363 -0.1997
  200MOL0     C26913   7.554  10.416   3.644 -0.1268  0.7277  0.4456
  200MOL0     C26914   7.609  10.355   3.759  0.8399 -0.1682 -0.7306
  200MOL0     N26915   7.821  10.284   4.559  0.3918  0.4524  0.0289
  200MOL0     N26916   7.909  10.367   4.593  0.0156 -0.2380  0.3429
  200MOL0     C26917   8.192  10.564   3.478  0.3460  0.2120  0.2186
  200MOL0     C26918   8.141  10.583   3.351 -0.1131 -1.1164 -0.2804
  200MOL0     C26919   8.083  10.619   2.900 -1.2083 -0.0162 -0.4406
  200MOL0     C26920   7.953  10.639   2.844 -0.0532 -0.0322 -0.1875
  200MOL0     C26921   7.941  10.661   2.708 -0.0404  0.8002 -0.0797
  200MOL0     C26922   8.050  10.658   2.613  0.4936  1.3853  0.4508
  200MOL0     O26923   8.010  10.681   2.487  0.5403 -0.4199  0.2958
  200MOL0     C26924   8.091  10.626   2.380 -0.6134 -0.2561  0.0985
  200MOL0     C26925   7.999  10.589   2.267  0.2710  0.0623  0.2036
  200MOL0     C26926   7.953  10.715   2.186 -0.8611  0.1512 -1.9828
  200MOL0     C26927   7.868  10.675   2.081 -0.4731 -0.7391  0.7623
  200MOL0     C26928   7.807  10.782   2.008  0.2659  0.5547  0.0304
  200MOL0     C26929   7.762  10.865   1.935  0.0125  0.1538  0.4833
  200MOL0     C26930   8.180  10.643   2.674 -0.4606 -0.3707 -0.6297
  200MOL0     C26931   8.199  10.624   2.818  0.1114 -0.1418  0.0490
  200MOL0     C26932   8.340  10.594   2.862 -0.6820 -0.6851  0.3810
  200MOL0     H26933   8.433  10.643   3.191  3.4823 -2.4332  1.3673
  200MOL0     H26934   8.524  10.587   3.438  0.3143  6.2545  0.9477
  200MOL0     H26935   8.222  10.600   3.758  1.2857  0.4790  0.1014
  200MOL0     H26936   8.202  10.426   3.703  2.1379 -0.4672 -2.0653
  200MOL0     H26937   8.432  10.547   3.861 -1.2860  0.8369 -0.9416
  200MOL0     H26938   8.374  10.374   3.844  2.7997  0.4357  2.0145
  200MOL0     H26939   8.332  10.451   4.060  2.6328  0.8281 -0.6889
  200MOL0     H26940   8.178  10.421   3.984 -0.5851  0.3332  6.4624
  200MOL0     H26941   8.302  10.691   4.040 -2.2315  3.6141 -0.5119
  200MOL0     H26942   8.158  10.683   3.951  2.2378 -0.2528 -0.5247
  200MOL0     H26943   8.148  10.725   4.189  2.6916  0.4489 -0.5937
  200MOL0     H26944   8.028  10.610   4.129 -0.2378 -2.3675  1.4831
  200MOL0     H26945   8.172  10.433   4.232  1.1232  0.4863 -1.4178
  200MOL0     H26946   8.294  10.550   4.274  1.9277 -1.4403 -2.2362
  200MOL0     H26947   8.010  10.603   4.375 -1.7177 -2.5222 -0.9926
  200MOL0     H26948   8.166  10.646   4.454 -1.6578 -2.1428  2.8247
  200MOL0     H26949   8.197  10.377   4.429 -1.4435 -4.2609  1.8845
  200MOL0     H26950   8.165  10.461   4.570  2.2223 -1.0569 -0.8988
  200MOL0     H26951   7.991  10.263   4.284  1.4213  3.8729 -0.6135
  200MOL0     H26952   7.781  10.049   4.342  2.1308  1.4472 -1.6873
  200MOL0     H26953   7.652  10.136   4.420  0.7096 -1.5985 -0.2146
  200MOL0     H26954   7.630  10.293   4.241  1.0512  1.9027 -1.9570
  200MOL0     H26955   7.785  10.275   4.180 -2.1473  2.1209 -0.0354
  200MOL0     H26956   7.565  10.051   4.160  0.7738  0.5524  2.6719
  200MOL0     H26957   7.739  10.027   4.138  2.0198  0.9864  0.5092
  200MOL0     H26958   7.630  10.067   3.911  3.2377 -0.0108 -1.0429
  200MOL0     H26959   7.748  10.188   3.954  0.4396 -2.3460 -0.5755
  200MOL0     H26960   7.314  10.312   3.920  0.4730 -0.4317  0.7042
  200MOL0     H26961   7.217  10.397   3.726 -1.5370 -3.3751  4.5250
  200MOL0     H26962   7.054  10.431   3.391 -1.9884  1.5344  2.3883
  200MOL0     H26963   6.942  10.500   3.167  0.1879 -0.0811 -0.0321
  200MOL0     H26964   6.959  10.571   2.930 -2.0691 -0.2879 -3.0673
  200MOL0     H26965   6.833  10.650   3.031 -0.8779  0.1473 -1.4751
  200MOL0     H26966   6.824  10.827   2.891  2.6096 -0.3423  2.9805
  200MOL0     H26967   6.981  10.802   2.811 -1.2064  2.3033 -1.3150
  200MOL0     H26968   6.846  10.743   2.632  3.7909 -1.3638  0.0359
  200MOL0     H26969   6.903  10.591   2.693  3.3924  0.7319  0.9330
  200MOL0     H26970   6.635  10.713   2.784 -2.0085 -1.8274 -1.7827
  200MOL0     H26971   6.682  10.549   2.806 -0.0956  1.5068  2.5065
  200MOL0     H26972   6.701  10.519   2.558 -0.1177  1.7635 -1.5020
  200MOL0     H26973   6.612  10.684   2.545  1.0409 -0.0970 -0.6619
  200MOL0     H26974   6.491  10.432   2.652  0.9609  0.9450  1.9324
  200MOL0     H26975   6.419  10.592   2.641  0.5687 -1.2700  2.8081
  200MOL0     H26976   6.552  10.491   2.388 -0.4506  0.4133 -2.6460
  200MOL0     H26977   6.403  10.589   2.408  0.5762 -0.4489  1.0520
  200MOL0     H26978   6.308  10.351   2.496  0.1952  0.8233  1.0369
  200MOL0     H26979   6.324  10.388   2.327 -1.0282 -3.2868  0.5988
  200MOL0     H26980   7.200  10.846   3.161  0.0500 -0.3336 -1.0429
  200MOL0     H26981   7.290  10.772   3.396  0.5484 -0.9127  0.2688
  200MOL0     H26982   7.640  10.452   3.587  2.8201 -2.0995  2.6900
  200MOL0     H26983   7.715  10.344   3.777  0.4898 -0.9117  1.2867
  200MOL0     H26984   8.115  10.565   3.554 -2.3143  2.4869 -2.2587
  200MOL0     H26985   8.036  10.592   3.324  0.2546  0.3628 -1.4011
  200MOL0     H26986   7.865  10.642   2.908 -0.4072  3.7469 -0.6446
  200MOL0     H26987   7.842  10.674   2.665 -0.1654 -0.0853 -0.0850
  200MOL0     H26988   8.146  10.536   2.410 -1.9690 -0.7955  1.0417
  200MOL0     H26989   8.168  10.692   2.339  0.8128 -2.0500 -0.3049
  200MOL0     H26990   7.926  10.522   2.314  2.9707 -0.9496  3.3295
  200MOL0     H26991   8.050  10.525   2.194  2.3408  2.6508 -0.8075
  200MOL0     H26992   8.045  10.763   2.152  1.7059 -1.3949  2.0385
  200MOL0     H26993   7.889  10.776   2.252 -3.0756 -2.1929 -1.7936
  200MOL0     H26994   7.931  10.624   2.007  0.2660  1.8824 -0.5593
  200MOL0     H26995   7.782  10.620   2.119 -0.1410  0.0559  2.7730
  200MOL0     H26996   7.721  10.942   1.874 -4.3022 -1.9713  0.2545
  200MOL0     H26997   8.272  10.647   2.617 -0.0892 -2.0083 -0.1769
  200MOL0     H26998   8.366  10.492   2.834 -1.0583 -0.7042  0.1031
  200MOL0     H26999   8.417  10.654   2.814  0.1416 -1.1471  1.0854
  200MOL0     H27000   8.368  10.608   2.967  1.0673  2.2927 -0.3730
  201MOL0     O27001  10.401   0.199   3.431  0.4971  0.2505  0.1883
  201MOL0     C27002  10.281   0.191   3.396 -0.5819  0.0075  0.3158
  201MOL0     O27003  10.172   0.161   3.469  0.6859  0.7401 -0.4295
  201MOL0     C27004  10.189   0.160   3.605 -1.0284 -0.2635  0.1098
  201MOL0     C27005  10.118   0.252   3.680  0.4721  0.9232 -0.8504
  201MOL0     C27006  10.100   0.225   3.814 -0.6521 -0.2956 -0.3181
  201MOL0     C27007  10.161   0.123   3.890  0.2727  0.3061 -0.6198
  201MOL0     O27008  10.140   0.088   4.025  0.3431  0.3462 -0.2126
  201MOL0     C27009  10.102   0.203   4.107 -0.2717 -0.1346  0.7172
  201MOL0     C27010  10.165   0.146   4.235 -0.5477  0.6429 -0.6439
  201MOL0     C27011  10.176   0.235   4.359 -0.0757 -0.1552  0.4233
  201MOL0     C27012  10.255   0.357   4.328 -0.0834  0.1614  0.3162
  201MOL0     C27013  10.301   0.427   4.464  0.0442 -0.5502  0.5497
  201MOL0     C27014  10.447   0.383   4.494 -0.0184 -0.5679  0.0060
  201MOL0     C27015  10.511   0.430   4.626 -1.1440  1.0217 -1.4157
  201MOL0     C27016  10.541   0.581   4.627 -0.3068 -0.6785  0.2030
  201MOL0     N27017  10.603   0.640   4.750 -0.8124  0.3144  0.1785
  201MOL0     C27018  10.581   0.604   4.880  0.3147 -0.1921  0.2792
  201MOL0     C27019  10.666   0.671   4.956 -0.3138  0.2001 -0.1151
  201MOL0     C27020  10.685   0.650   5.100 -0.5315  0.6051  0.8285
  201MOL0     C27021  10.811   0.732   5.132  0.3457  1.0360  0.4896
  201MOL0     C27022  10.864   0.664   5.269 -0.4395 -0.2004  0.8799
  201MOL0     C27023  10.998   0.730   5.301  0.3074 -0.6910  0.1884
  201MOL0     O27024  11.078   0.655   5.399  0.8856  0.1135  0.0216
  201MOL0     C27025  11.057   0.675   5.539 -0.8433 -0.3227 -0.0597
  201MOL0     C27026  11.050   0.808   5.591  0.2217  1.1007  0.0485
  201MOL0     C27027  11.023   0.829   5.724 -0.6576  0.8041 -0.2813
  201MOL0     C27028  11.014   0.719   5.807  0.7094 -1.0067 -0.6146
  201MOL0     C27029  10.997   0.745   5.945 -0.4624 -0.5126  0.5959
  201MOL0     O27030  10.981   0.872   5.979 -0.3815  0.0480  0.1105
  201MOL0     C27031  11.007   0.908   6.112  0.1106 -0.5227 -0.0686
  201MOL0     C27032  11.107   0.853   6.204 -0.6102 -1.2075  0.0271
  201MOL0     C27033  11.088   0.895   6.334 -0.2313  0.0872 -0.1545
  201MOL0     C27034  10.995   0.986   6.378 -0.1492 -0.8007 -0.8394
  201MOL0     O27035  10.971   1.012   6.517  1.0787  0.2243  0.1876
  201MOL0     C27036  10.968   1.145   6.545  0.1918 -0.5416 -0.1742
  201MOL0     C27037  11.015   1.175   6.682  0.5658  0.3563 -0.8179
  201MOL0     C27038  10.902   1.158   6.787  0.7423  0.7057  0.3256
  201MOL0     C27039  10.946   1.176   6.940  0.2056 -1.0462  0.2001
  201MOL0     C27040  10.837   1.214   7.047  0.1877  0.1465  0.1394
  201MOL0     C27041  10.754   1.088   7.078 -0.0628 -0.9133  0.4176
  201MOL0     C27042  10.622   1.110   7.167 -0.0316 -0.1076  0.0395
  201MOL0     C27043  10.655   1.127   7.311 -0.6065 -0.1547 -0.1665
  201MOL0    Cl27044  10.514   1.105   7.411 -0.2799  0.3686 -0.4136
  201MOL0     C27045  10.913   1.047   6.286  0.2211 -0.3325 -0.4104
  201MOL0     C27046  10.919   1.010   6.153 -0.3018 -0.1785  0.3913
  201MOL0     O27047  11.018   0.652   6.025  0.7568  0.1442  0.3075
  201MOL0     C27048  11.045   0.590   5.760  0.5015 -0.5162 -0.3012
  201MOL0     C27049  11.064   0.570   5.624  0.0544  0.7389 -1.4426
  201MOL0     N27050  10.730   0.757   4.878  0.8686  0.5677  1.1067
  201MOL0     N27051  10.703   0.726   4.751  0.3314 -0.2360 -0.1835
  201MOL0     C27052  10.244   0.040   3.811  0.3273 -0.7195  0.6424
  201MOL0     C27053  10.248   0.060   3.673 -0.2051  1.1832  0.1355
  201MOL0     C27054  10.260   0.196   3.251 -0.3991  0.5657 -0.9007
  201MOL0     C27055  10.164   0.107   3.198 -0.4748 -0.2184  0.1836
  201MOL0     C27056  10.127   0.117   3.069 -0.0326 -0.0942  0.6817
  201MOL0     C27057  10.179   0.216   2.982 -0.3128 -0.2886 -0.8301
  201MOL0     O27058  10.172   0.219   2.842 -0.0777  0.3213 -0.0679
  201MOL0     C27059  10.066   0.157   2.788 -0.3086  0.5281  0.3218
  201MOL0     C27060  10.032   0.223   2.652  0.3929 -0.0541  0.0743
  201MOL0     C27061   9.961   0.115   2.564 -0.1661 -0.3813  1.2690
  201MOL0     C27062   9.970   0.169   2.414 -0.8795  0.5357  0.2369
  201MOL0     C27063   9.871   0.100   2.336  0.3818  0.4699  0.4534
  201MOL0     C27064   9.791   0.039   2.264  0.4726 -0.0848 -1.0320
  201MOL0     C27065  10.263   0.309   3.032 -0.1823  0.6896 -0.6596
  201MOL0     C27066  10.305   0.298   3.169 -0.6997 -1.0198  0.4258
  201MOL0     C27067  10.398   0.411   3.214  0.2002 -0.3921  1.3850
  201MOL0     H27068  10.072   0.345   3.647  1.3439  1.8508  0.4321
  201MOL0     H27069  10.034   0.284   3.877  1.9764  1.5187  0.9347
  201MOL0     H27070  10.158   0.295   4.090  2.6177 -1.7921  0.5347
  201MOL0     H27071   9.996   0.217   4.130 -0.4469 -0.3727  0.0637
  201MOL0     H27072  10.262   0.098   4.215  1.6550  3.2197  2.7727
  201MOL0     H27073  10.103   0.068   4.279  0.3941  0.7717  0.9912
  201MOL0     H27074  10.232   0.187   4.439  3.8113 -0.9663 -2.4759
  201MOL0     H27075  10.077   0.266   4.395 -0.6910  0.6599 -1.7551
  201MOL0     H27076  10.335   0.345   4.254 -0.8353 -0.0672 -0.4744
  201MOL0     H27077  10.167   0.412   4.292 -2.7809 -3.4064  0.8802
  201MOL0     H27078  10.304   0.536   4.452 -0.5105 -0.5699  0.2164
  201MOL0     H27079  10.224   0.417   4.540 -0.0072  2.3037  1.0065
  201MOL0     H27080  10.467   0.276   4.482  2.7535 -0.4001  2.1822
  201MOL0     H27081  10.508   0.423   4.412 -2.6343  1.8106 -0.9450
  201MOL0     H27082  10.602   0.373   4.648 -2.1441  0.5566  2.0414
  201MOL0     H27083  10.444   0.402   4.707  0.8440 -0.9817 -0.3591
  201MOL0     H27084  10.602   0.594   4.537 -2.6368 -2.1999 -1.7223
  201MOL0     H27085  10.446   0.635   4.614 -0.6118 -1.0397  0.8613
  201MOL0     H27086  10.497   0.547   4.920  2.2465 -2.4349  1.3725
  201MOL0     H27087  10.593   0.686   5.147 -0.1090  3.8920 -0.6322
  201MOL0     H27088  10.693   0.542   5.116 -1.8637 -0.2250 -3.0744
  201MOL0     H27089  10.882   0.738   5.049 -2.3663 -0.2908 -2.0878
  201MOL0     H27090  10.781   0.835   5.156  0.8769  1.1418  0.7265
  201MOL0     H27091  10.875   0.555   5.268 -0.2973 -0.1893 -0.6689
  201MOL0     H27092  10.795   0.695   5.348 -2.1601  1.4514 -1.1516
  201MOL0     H27093  10.970   0.827   5.345 -0.2781 -0.5533 -0.4768
  201MOL0     H27094  11.062   0.742   5.213  1.6894 -0.9706  1.1157
  201MOL0     H27095  11.075   0.891   5.524 -0.4638 -0.7232 -2.6306
  201MOL0     H27096  11.021   0.932   5.758  2.7748  0.2845  1.9667
  201MOL0     H27097  11.186   0.782   6.180  1.6638  0.7923  1.2261
  201MOL0     H27098  11.150   0.834   6.400  0.4353 -0.5813 -1.3711
  201MOL0     H27099  11.033   1.211   6.486  1.3008  1.4958  3.0628
  201MOL0     H27100  10.865   1.176   6.521 -0.3666 -2.3002 -0.1444
  201MOL0     H27101  11.112   1.133   6.708 -0.0344 -0.8212 -0.4275
  201MOL0     H27102  11.035   1.283   6.680  2.0650  0.1259  0.3210
  201MOL0     H27103  10.822   1.232   6.777 -1.8275 -1.5605  2.5992
  201MOL0     H27104  10.855   1.061   6.767  2.4198  0.5608 -4.0710
  201MOL0     H27105  11.017   1.259   6.945 -0.7622 -0.2606  2.8001
  201MOL0     H27106  11.007   1.092   6.975 -0.3021 -0.7221  1.9464
  201MOL0     H27107  10.769   1.292   7.012  0.2699 -0.5522 -1.6749
  201MOL0     H27108  10.880   1.249   7.141  0.4511  2.1232 -0.6735
  201MOL0     H27109  10.715   1.047   6.984  0.6389 -0.6159 -0.0143
  201MOL0     H27110  10.814   1.008   7.122 -0.3332 -2.7134 -2.2290
  201MOL0     H27111  10.556   1.024   7.154  0.9717 -0.9710  0.5431
  201MOL0     H27112  10.573   1.204   7.141  0.6520  0.1437 -0.3632
  201MOL0     H27113  10.724   1.053   7.354 -0.6222 -0.0433  0.0559
  201MOL0     H27114  10.696   1.228   7.320 -2.0347  0.5291 -1.0342
  201MOL0     H27115  10.836   1.118   6.315 -0.2979 -0.6100 -1.1027
  201MOL0     H27116  10.855   1.049   6.076  1.2774  0.0921 -0.8446
  201MOL0     H27117  11.046   0.506   5.828  1.8923 -0.1441  0.1812
  201MOL0     H27118  11.079   0.472   5.579 -4.7740 -2.4852  2.7728
  201MOL0     H27119  10.293  -0.047   3.853  2.5454 -0.2913 -0.9115
  201MOL0     H27120  10.284  -0.023   3.614 -5.3545 -1.8791  0.6375
  201MOL0     H27121  10.117   0.032   3.260  0.9563 -1.1353  0.2010
  201MOL0     H27122  10.067   0.040   3.021  0.3022  1.1312 -1.8843
  201MOL0     H27123   9.982   0.144   2.856  0.4235 -1.7104  0.8800
  201MOL0     H27124  10.102   0.055   2.777 -3.0939 -0.4092 -1.1101
  201MOL0     H27125  10.127   0.251   2.604  1.0006 -0.6420  0.9046
  201MOL0     H27126   9.964   0.308   2.653  0.2431 -0.1743  0.2060
  201MOL0     H27127   9.856   0.104   2.593  0.0381  1.6784  3.0694
  201MOL0     H27128  10.014   0.020   2.573  2.3667  0.6838 -0.7689
  201MOL0     H27129   9.932   0.272   2.408 -1.0764  0.3849 -2.4993
  201MOL0     H27130  10.067   0.153   2.366 -1.5904  0.2210 -1.1674
  201MOL0     H27131   9.716  -0.015   2.210  0.1666 -0.5052 -0.1990
  201MOL0     H27132  10.310   0.387   2.974  2.4575  0.2732  0.7803
  201MOL0     H27133  10.401   0.495   3.143 -0.6840 -1.5969 -0.1471
  201MOL0     H27134  10.382   0.452   3.314 -2.8063  2.0688  0.0580
  201MOL0     H27135  10.497   0.364   3.212 -0.3464 -1.5483  0.5648
  202MOL0     O27136   8.814   7.470   2.672 -0.4563 -0.0134 -0.2247
  202MOL0     C27137   8.862   7.414   2.763 -0.5616  0.0096  0.7549
  202MOL0     O27138   8.995   7.372   2.771  0.4147  0.6832 -0.1078
  202MOL0     C27139   9.067   7.374   2.653 -0.8833  0.1473  0.2284
  202MOL0     C27140   9.032   7.311   2.529  0.7490 -0.7903 -0.0936
  202MOL0     C27141   9.106   7.316   2.414  0.0920 -0.4774  0.3793
  202MOL0     C27142   9.226   7.397   2.424 -0.8281  0.8000 -0.4563
  202MOL0     O27143   9.296   7.441   2.310  0.6211 -0.3310 -0.4405
  202MOL0     C27144   9.261   7.381   2.175 -0.0489 -0.5907  0.2301
  202MOL0     C27145   9.373   7.416   2.079  0.0061  0.8464  0.0133
  202MOL0     C27146   9.483   7.312   2.083  0.4175  0.0629 -0.2008
  202MOL0     C27147   9.597   7.363   2.002  0.4794 -0.4025 -1.2794
  202MOL0     C27148   9.568   7.369   1.856  0.5772  0.1919  0.1844
  202MOL0     C27149   9.702   7.370   1.762 -0.1747  0.8774 -0.9036
  202MOL0     C27150   9.773   7.512   1.774  0.3366  0.6312  1.1308
  202MOL0     C27151   9.901   7.506   1.868  0.2528 -0.0928 -0.8709
  202MOL0     N27152   9.987   7.626   1.843 -0.5587  0.4506  0.4050
  202MOL0     C27153   9.981   7.748   1.894 -0.0044 -0.0802 -0.2017
  202MOL0     C27154  10.107   7.805   1.867  0.2861  0.3558 -0.4644
  202MOL0     C27155  10.144   7.940   1.920 -1.3959 -0.2452 -0.5409
  202MOL0     C27156  10.189   8.046   1.823  0.2833 -0.1660  0.3219
  202MOL0     C27157  10.270   8.004   1.703  0.7260 -0.5078 -0.2088
  202MOL0     C27158  10.288   8.118   1.600 -0.2000  1.5154 -0.4846
  202MOL0     O27159  10.369   8.211   1.668 -0.7958 -0.1702  0.1575
  202MOL0     C27160  10.395   8.322   1.594  0.0768 -0.4316 -0.1436
  202MOL0     C27161  10.381   8.340   1.453  0.6139 -0.0477  0.7332
  202MOL0     C27162  10.398   8.467   1.390  0.7006 -0.5351  0.0314
  202MOL0     C27163  10.418   8.584   1.469  0.4293 -0.1286 -0.7737
  202MOL0     C27164  10.446   8.725   1.408  0.9589 -0.1980 -0.5305
  202MOL0     O27165  10.441   8.752   1.273  1.5215  0.7476 -0.1823
  202MOL0     C27166  10.467   8.883   1.252 -0.1569  0.0198  0.0981
  202MOL0     C27167  10.594   8.935   1.243  0.5134 -0.0228 -0.9375
  202MOL0     C27168  10.611   9.080   1.229  0.2498  0.0577 -0.1602
  202MOL0     C27169  10.503   9.166   1.208  0.4360  0.2177 -0.0087
  202MOL0     O27170  10.520   9.294   1.196  0.3217 -0.2094  0.1629
  202MOL0     C27171  10.531   9.346   1.061 -0.5498  0.4332 -0.2433
  202MOL0     C27172  10.550   9.499   1.055 -0.8532  0.2390 -0.3346
  202MOL0     C27173  10.539   9.564   0.907  0.7250 -0.6065  0.4970
  202MOL0     C27174  10.615   9.699   0.913  0.4173  0.6264 -0.1001
  202MOL0     C27175  10.766   9.684   0.938  1.1188  0.1666 -0.2100
  202MOL0     C27176  10.846   9.801   0.907 -0.5494 -0.6084 -0.2127
  202MOL0     C27177  10.857   9.822   0.758 -0.4860 -0.1119  0.4011
  202MOL0     C27178  10.977   9.897   0.700 -0.1228  0.1033  0.2843
  202MOL0    Cl27179  10.973  10.076   0.725 -0.5789 -0.5048 -0.4724
  202MOL0     C27180  10.373   9.101   1.213 -0.9042 -0.5089  0.3377
  202MOL0     C27181  10.357   8.959   1.231  0.4076 -0.3820 -0.4347
  202MOL0     O27182  10.490   8.801   1.488 -0.3342 -0.3653 -0.5984
  202MOL0     C27183  10.415   8.564   1.614 -0.5523 -0.3856 -0.0530
  202MOL0     C27184  10.407   8.433   1.668 -1.0044 -0.5342  0.1016
  202MOL0     N27185  10.175   7.715   1.787 -0.1998  0.3323 -0.0219
  202MOL0     N27186  10.100   7.617   1.759  0.5021 -0.1559 -1.1342
  202MOL0     C27187   9.267   7.457   2.546  0.1208 -0.1766  0.0351
  202MOL0     C27188   9.188   7.442   2.655  0.0833  0.2004 -0.0510
  202MOL0     C27189   8.784   7.389   2.889 -0.4067  0.0444  0.1127
  202MOL0     C27190   8.741   7.493   2.974 -0.0976  0.7960  0.6585
  202MOL0     C27191   8.660   7.475   3.077  0.2959  0.6414  0.0794
  202MOL0     C27192   8.640   7.346   3.121  0.5966  0.8530 -0.1933
  202MOL0     O27193   8.568   7.318   3.231 -0.2321 -0.2142 -0.0245
  202MOL0     C27194   8.653   7.315   3.340 -1.0915 -0.1231 -0.0341
  202MOL0     C27195   8.578   7.323   3.472  0.1267  0.6804 -0.3515
  202MOL0     C27196   8.530   7.458   3.516 -0.3729 -0.2023  1.0561
  202MOL0     C27197   8.469   7.468   3.653  0.1191 -0.1333  1.3771
  202MOL0     C27198   8.433   7.602   3.678  0.3744 -0.7532  0.1166
  202MOL0     C27199   8.427   7.725   3.687  0.4308 -1.0374  0.6669
  202MOL0     C27200   8.687   7.238   3.043  0.3347 -0.2907 -0.2232
  202MOL0     C27201   8.761   7.258   2.922 -0.4131  0.8001 -0.1632
  202MOL0     C27202   8.785   7.139   2.833 -0.0828  0.6539 -0.0890
  202MOL0     H27203   8.950   7.240   2.520  2.1134 -2.2763 -1.5629
  202MOL0     H27204   9.071   7.284   2.316 -0.9092  0.0706  0.5456
  202MOL0     H27205   9.247   7.272   2.182  3.6076 -1.0741  3.8997
  202MOL0     H27206   9.164   7.424   2.147  0.6075  1.3489  0.8377
  202MOL0     H27207   9.420   7.510   2.111  0.1421  0.4035  1.1381
  202MOL0     H27208   9.338   7.429   1.976  1.3460  2.9088 -0.2419
  202MOL0     H27209   9.447   7.211   2.062 -0.3712  0.4294 -0.6838
  202MOL0     H27210   9.501   7.310   2.191 -1.2414 -1.5508  0.1042
  202MOL0     H27211   9.637   7.452   2.052 -2.2063 -1.4641  3.3224
  202MOL0     H27212   9.673   7.286   2.020  0.3069 -0.1966  0.4732
  202MOL0     H27213   9.512   7.277   1.838 -0.2582  1.0061 -1.6146
  202MOL0     H27214   9.502   7.453   1.831 -2.6897 -1.9726  0.8491
  202MOL0     H27215   9.765   7.290   1.803 -1.0922  0.1234 -0.9522
  202MOL0     H27216   9.667   7.347   1.662 -0.1219  0.0467 -0.7334
  202MOL0     H27217   9.701   7.591   1.798 -0.0022  0.4271  0.8058
  202MOL0     H27218   9.808   7.549   1.677  1.5116 -1.4994  0.7034
  202MOL0     H27219   9.881   7.504   1.975  4.0930  5.6241  0.4439
  202MOL0     H27220   9.956   7.416   1.842 -1.0438 -0.5213 -2.2564
  202MOL0     H27221   9.900   7.797   1.948 -1.0339 -2.8388  0.9602
  202MOL0     H27222  10.059   7.991   1.967 -1.3532 -2.2268  1.9426
  202MOL0     H27223  10.218   7.920   1.998 -3.6268 -2.8236  1.1088
  202MOL0     H27224  10.098   8.092   1.783  1.4278  1.2875 -0.7603
  202MOL0     H27225  10.231   8.136   1.870  0.9589  0.3043 -1.1238
  202MOL0     H27226  10.217   7.922   1.653  2.0682 -0.9170 -1.0120
  202MOL0     H27227  10.368   7.971   1.738  1.3805 -1.1316 -2.4423
  202MOL0     H27228  10.186   8.156   1.588 -1.4326  0.1619  4.0148
  202MOL0     H27229  10.339   8.075   1.514 -2.5034 -1.3812 -0.5652
  202MOL0     H27230  10.356   8.259   1.385 -1.0083 -0.0077  1.2484
  202MOL0     H27231  10.379   8.485   1.285  1.8208  3.6846  0.3817
  202MOL0     H27232  10.687   8.883   1.267  1.3545  1.5322 -0.7033
  202MOL0     H27233  10.706   9.133   1.230  1.3280 -1.7968  1.9470
  202MOL0     H27234  10.618   9.308   1.007 -1.6513  0.5314 -2.1636
  202MOL0     H27235  10.447   9.313   0.999 -1.1287  0.3972  0.5340
  202MOL0     H27236  10.470   9.552   1.108 -1.4833 -0.3251 -0.7008
  202MOL0     H27237  10.643   9.518   1.110 -1.3948  1.8038  0.0975
  202MOL0     H27238  10.571   9.494   0.829  0.0992 -0.2438 -0.1045
  202MOL0     H27239  10.438   9.604   0.909  1.6290  1.8999  3.1660
  202MOL0     H27240  10.581   9.754   1.002  3.7703  0.1910  1.6084
  202MOL0     H27241  10.599   9.753   0.819 -2.9276 -1.1270 -0.6807
  202MOL0     H27242  10.798   9.596   0.882 -1.1154  0.0637 -1.4315
  202MOL0     H27243  10.774   9.656   1.044  1.1442  1.2938  0.0960
  202MOL0     H27244  10.814   9.890   0.964  1.5913 -0.1755  0.4293
  202MOL0     H27245  10.947   9.786   0.947  0.6647  0.8111 -2.5088
  202MOL0     H27246  10.768   9.868   0.714  0.0475  2.7202  2.0170
  202MOL0     H27247  10.860   9.721   0.716 -0.0389  0.3295 -0.6545
  202MOL0     H27248  11.074   9.865   0.740  0.8676  0.6086 -1.5877
  202MOL0     H27249  10.976   9.878   0.592 -1.3824 -0.9343  0.4520
  202MOL0     H27250  10.281   9.156   1.197 -0.2360  0.3771 -0.6212
  202MOL0     H27251  10.261   8.910   1.240  0.9235 -1.4877 -0.8727
  202MOL0     H27252  10.423   8.638   1.693  0.7631 -1.4489  0.8543
  202MOL0     H27253  10.389   8.426   1.775 -4.3259  2.3788 -0.0787
  202MOL0     H27254   9.360   7.508   2.569  0.2777 -1.3637  2.3269
  202MOL0     H27255   9.212   7.493   2.748 -2.5154  0.3035  0.6314
  202MOL0     H27256   8.767   7.590   2.933  0.5055 -0.6971 -2.8102
  202MOL0     H27257   8.615   7.557   3.132 -2.6230  0.1199 -1.3469
  202MOL0     H27258   8.729   7.393   3.328 -2.8336  1.6583  0.1238
  202MOL0     H27259   8.697   7.215   3.342 -0.5070  0.1237 -0.2611
  202MOL0     H27260   8.641   7.290   3.555  2.0733  0.4282 -1.8580
  202MOL0     H27261   8.495   7.252   3.468  1.5131 -0.9774 -0.4880
  202MOL0     H27262   8.467   7.493   3.433 -0.3977 -1.3408  0.5766
  202MOL0     H27263   8.621   7.518   3.509  0.5025 -1.6497 -3.9830
  202MOL0     H27264   8.376   7.410   3.652 -0.8913  1.3567  2.9777
  202MOL0     H27265   8.540   7.432   3.728 -0.9408 -2.6980  1.2482
  202MOL0     H27266   8.401   7.829   3.680  2.3495 -0.5788 -0.7609
  202MOL0     H27267   8.649   7.140   3.068  2.1751 -1.0443 -0.2828
  202MOL0     H27268   8.882   7.094   2.856 -1.5776 -2.9056 -0.0437
  202MOL0     H27269   8.713   7.060   2.857 -0.9669 -0.0827 -4.3688
  202MOL0     H27270   8.768   7.163   2.728  0.3969 -0.3442 -0.4066
  203MOL0     O27271   4.860   2.583   4.569 -0.4485 -0.6056  0.4353
  203MOL0     C27272   4.759   2.627   4.519 -0.5384 -0.1422 -0.9104
  203MOL0     O27273   4.679   2.572   4.436 -0.1231 -0.2589  0.6286
  203MOL0     C27274   4.723   2.446   4.398  1.1967 -0.2181  0.3645
  203MOL0     C27275   4.634   2.334   4.400 -0.0235  0.0776  0.1076
  203MOL0     C27276   4.682   2.202   4.379  0.0863  0.4447 -0.0356
  203MOL0     C27277   4.811   2.173   4.342  0.0191 -0.2536  0.8944
  203MOL0     O27278   4.834   2.044   4.314  0.2097 -0.1957  0.1222
  203MOL0     C27279   4.969   1.994   4.312  0.5129  0.5359  0.1512
  203MOL0     C27280   4.971   1.845   4.286  0.7303  0.1571  1.2668
  203MOL0     C27281   4.953   1.756   4.403  0.3387 -0.4343 -1.1245
  203MOL0     C27282   4.812   1.748   4.468  0.0527  0.6638 -0.0477
  203MOL0     C27283   4.803   1.672   4.587  0.3063  0.1139  0.3380
  203MOL0     C27284   4.667   1.661   4.637  0.9006 -0.6631 -0.2469
  203MOL0     C27285   4.672   1.600   4.773 -0.3851 -0.0579  0.0421
  203MOL0     C27286   4.537   1.579   4.842  0.3313 -0.6011  0.5774
  203MOL0     N27287   4.428   1.515   4.764  0.1092 -0.3399 -0.2758
  203MOL0     C27288   4.345   1.582   4.686  0.6294  0.5325 -0.0599
  203MOL0     C27289   4.242   1.496   4.648 -0.8632 -0.5262  0.4065
  203MOL0     C27290   4.131   1.517   4.544 -0.1181  0.6203  0.4625
  203MOL0     C27291   4.016   1.409   4.560 -0.0466 -0.7569 -0.0740
  203MOL0     C27292   3.900   1.422   4.461  0.4984  0.2185  0.3763
  203MOL0     C27293   3.919   1.307   4.354  0.2800 -0.1523  0.0902
  203MOL0     O27294   3.802   1.307   4.274 -0.6441 -0.4763 -0.2276
  203MOL0     C27295   3.787   1.206   4.192  0.4349 -0.3137  0.4627
  203MOL0     C27296   3.693   1.223   4.095  0.7216 -0.4825  0.3838
  203MOL0     C27297   3.668   1.127   3.996 -0.0390 -0.2669 -0.3236
  203MOL0     C27298   3.735   1.004   3.993  0.3737  0.7800 -0.0207
  203MOL0     C27299   3.686   0.901   3.888  0.7861  0.1499 -0.0137
  203MOL0     O27300   3.583   0.935   3.795  0.6208  0.0788 -0.6341
  203MOL0     C27301   3.523   0.847   3.709  0.6610 -0.8404  0.9905
  203MOL0     C27302   3.447   0.906   3.600 -0.8380 -0.4195  0.2867
  203MOL0     C27303   3.388   0.824   3.506  0.5879 -1.0621  0.2938
  203MOL0     C27304   3.409   0.681   3.512  1.1129  0.0040  0.6530
  203MOL0     O27305   3.360   0.602   3.409  0.1764 -0.5940  0.5763
  203MOL0     C27306   3.256   0.645   3.319 -0.2784 -0.2220 -0.1802
  203MOL0     C27307   3.171   0.532   3.280  0.7552  0.1356 -0.0006
  203MOL0     C27308   3.119   0.452   3.405 -0.3641 -0.2540  0.3783
  203MOL0     C27309   2.992   0.534   3.468 -0.9480  0.3167 -0.4597
  203MOL0     C27310   2.935   0.451   3.589  0.6749 -0.2364  1.3783
  203MOL0     C27311   2.813   0.514   3.664  0.0870  0.4241 -0.8967
  203MOL0     C27312   2.737   0.416   3.760 -0.5201  0.2998 -0.6204
  203MOL0     C27313   2.774   0.436   3.907 -0.7496  0.6321 -0.0942
  203MOL0    Cl27314   2.948   0.445   3.949 -0.0506 -0.0059  0.2909
  203MOL0     C27315   3.472   0.620   3.625  0.1913 -0.0166  0.1888
  203MOL0     C27316   3.521   0.709   3.724 -0.5378  0.3489  0.4042
  203MOL0     O27317   3.733   0.798   3.909  0.5000  0.2857 -0.5594
  203MOL0     C27318   3.827   0.972   4.099  0.4146 -0.2694 -0.2280
  203MOL0     C27319   3.853   1.078   4.193 -0.0356 -0.7174 -0.3998
  203MOL0     N27320   4.281   1.380   4.711 -0.5699 -0.6112 -0.3566
  203MOL0     N27321   4.391   1.387   4.781  0.4246 -0.7615 -0.2079
  203MOL0     C27322   4.891   2.285   4.315 -0.2665 -0.5057 -0.5427
  203MOL0     C27323   4.853   2.416   4.348  0.8525  0.3056  0.8399
  203MOL0     C27324   4.719   2.766   4.567  0.1950 -0.3120 -0.3627
  203MOL0     C27325   4.584   2.803   4.540  0.0972 -0.1725 -0.7470
  203MOL0     C27326   4.537   2.927   4.608 -0.2540  0.8238  0.3396
  203MOL0     C27327   4.626   3.030   4.651 -0.0485  0.0506  0.0236
  203MOL0     O27328   4.587   3.146   4.704  0.0914  0.3227  0.1980
  203MOL0     C27329   4.451   3.185   4.704  0.3859  0.4488 -0.2829
  203MOL0     C27330   4.447   3.335   4.722 -0.0206  0.3105  0.1725
  203MOL0     C27331   4.316   3.418   4.680  0.3213  0.9945  0.0968
  203MOL0     C27332   4.186   3.333   4.690  0.1970 -0.3214  0.4671
  203MOL0     C27333   4.081   3.425   4.644  0.8397 -0.1087  0.0551
  203MOL0     C27334   3.983   3.502   4.621 -0.4718  0.9339  0.9333
  203MOL0     C27335   4.762   2.993   4.664  0.0773 -0.4279 -0.4005
  203MOL0     C27336   4.809   2.852   4.639 -0.0581 -0.0834 -0.4566
  203MOL0     C27337   4.958   2.827   4.677 -0.1774 -1.1762 -0.1170
  203MOL0     H27338   4.527   2.342   4.419  0.0267  1.4028 -0.0694
  203MOL0     H27339   4.625   2.109   4.379  2.2282 -0.9315  0.8923
  203MOL0     H27340   5.015   2.053   4.232 -1.8491  1.4645 -0.6363
  203MOL0     H27341   5.007   2.026   4.409 -1.5945  2.6686  0.3797
  203MOL0     H27342   5.063   1.814   4.235 -1.7013 -3.6089 -1.4272
  203MOL0     H27343   4.892   1.821   4.213  1.2106 -0.1901  0.8516
  203MOL0     H27344   5.024   1.795   4.477 -1.1540  0.2146  0.0050
  203MOL0     H27345   4.990   1.664   4.356  0.7691  0.0931 -1.8305
  203MOL0     H27346   4.779   1.848   4.496 -0.6215  0.0606  1.4045
  203MOL0     H27347   4.741   1.717   4.391  0.5047  1.5788 -0.8454
  203MOL0     H27348   4.846   1.576   4.557 -2.7521 -0.8356 -1.4439
  203MOL0     H27349   4.869   1.719   4.660 -0.6973 -0.9498  1.9836
  203MOL0     H27350   4.625   1.760   4.654  2.6726 -0.2091  1.9210
  203MOL0     H27351   4.621   1.590   4.567  3.8218 -5.3856  2.0939
  203MOL0     H27352   4.729   1.670   4.835 -1.5517  1.0437 -0.0758
  203MOL0     H27353   4.719   1.502   4.760 -4.7522 -2.1960 -1.4890
  203MOL0     H27354   4.556   1.514   4.927 -0.2209 -0.6842  0.6405
  203MOL0     H27355   4.496   1.670   4.887  1.9322  0.0361  0.8117
  203MOL0     H27356   4.356   1.681   4.644 -2.0919  2.1428  2.6929
  203MOL0     H27357   4.092   1.611   4.583 -0.2577 -0.0112  1.9137
  203MOL0     H27358   4.165   1.520   4.441  0.5884  2.3428  0.7186
  203MOL0     H27359   4.065   1.313   4.546 -0.9736 -1.4329  1.1414
  203MOL0     H27360   3.977   1.411   4.662  2.0435  3.7732  0.8990
  203MOL0     H27361   3.888   1.521   4.416  1.8205 -1.2571 -3.7756
  203MOL0     H27362   3.804   1.392   4.505 -0.4421  0.2618 -1.4988
  203MOL0     H27363   3.925   1.208   4.400  2.2772 -0.7650 -1.3841
  203MOL0     H27364   4.010   1.318   4.295  1.0642  2.0652  1.6150
  203MOL0     H27365   3.639   1.317   4.101  0.7585 -0.4881  0.8668
  203MOL0     H27366   3.584   1.146   3.930 -2.0277 -0.4031  2.0601
  203MOL0     H27367   3.434   1.011   3.575 -1.8750 -0.1221  1.9079
  203MOL0     H27368   3.341   0.857   3.414  2.3737  3.2189  0.6659
  203MOL0     H27369   3.198   0.725   3.368 -0.4797 -1.3912  1.5803
  203MOL0     H27370   3.285   0.686   3.222 -4.8453  0.0597 -1.7099
  203MOL0     H27371   3.083   0.549   3.217  0.4034 -2.4790 -0.3441
  203MOL0     H27372   3.236   0.465   3.224  0.1624  1.6450 -2.6599
  203MOL0     H27373   3.098   0.349   3.373  1.7743 -0.1456 -1.6297
  203MOL0     H27374   3.198   0.435   3.478  1.2030 -1.9544 -1.5823
  203MOL0     H27375   2.912   0.550   3.395 -1.8168 -1.3028  0.1041
  203MOL0     H27376   3.023   0.634   3.498 -2.1079  0.2099  1.2020
  203MOL0     H27377   3.018   0.428   3.657  1.4680 -1.2817  0.1001
  203MOL0     H27378   2.905   0.358   3.541  1.5203  0.7654 -1.2894
  203MOL0     H27379   2.838   0.609   3.711  1.2879  0.5068 -1.6661
  203MOL0     H27380   2.741   0.535   3.584 -2.2673 -2.1509  0.3719
  203MOL0     H27381   2.765   0.316   3.726  2.8631 -0.0146  2.4361
  203MOL0     H27382   2.629   0.430   3.755 -0.2170  2.5957 -2.9478
  203MOL0     H27383   2.727   0.521   3.958  1.3207 -0.2339  3.5897
  203MOL0     H27384   2.744   0.343   3.956  4.9244 -1.1348  0.7683
  203MOL0     H27385   3.489   0.512   3.629  1.7737 -0.1251 -3.8669
  203MOL0     H27386   3.568   0.670   3.814  0.2652 -1.2090 -0.6505
  203MOL0     H27387   3.868   0.875   4.126  1.0772 -0.3930 -1.5669
  203MOL0     H27388   3.919   1.043   4.271 -1.6559 -2.3187  0.3334
  203MOL0     H27389   4.997   2.275   4.294 -0.5063 -1.4325 -1.4161
  203MOL0     H27390   4.926   2.493   4.326 -0.1981  1.6429  1.8458
  203MOL0     H27391   4.508   2.735   4.504 -1.3948  0.6163  0.7357
  203MOL0     H27392   4.431   2.939   4.589 -0.1201 -1.1623 -2.3495
  203MOL0     H27393   4.392   3.123   4.772  0.7821 -1.0562 -1.2652
  203MOL0     H27394   4.414   3.159   4.604  0.7682 -5.4382  0.7782
  203MOL0     H27395   4.528   3.379   4.662  1.6499 -2.1382  0.4735
  203MOL0     H27396   4.476   3.359   4.825 -0.4908 -1.1071  0.6709
  203MOL0     H27397   4.326   3.459   4.579 -0.0997 -1.4238 -0.9967
  203MOL0     H27398   4.307   3.500   4.752 -1.9573  1.3200 -0.4982
  203MOL0     H27399   4.182   3.237   4.637 -1.7160  0.0372 -0.0919
  203MOL0     H27400   4.173   3.317   4.797 -2.7854  0.9935  0.3979
  203MOL0     H27401   3.910   3.563   4.572 -0.8466 -0.6924 -0.6473
  203MOL0     H27402   4.840   3.063   4.696 -0.6937  1.0779 -1.6908
  203MOL0     H27403   5.021   2.810   4.589  2.1683  0.7787  1.0616
  203MOL0     H27404   4.993   2.916   4.729 -1.1762 -1.8556  1.8050
  203MOL0     H27405   4.972   2.746   4.749  0.4917  0.3265  1.4950
  204MOL0     O27406   8.705   2.778   1.158 -0.2182  0.4327 -0.4278
  204MOL0     C27407   8.748   2.724   1.056 -0.4727  0.2697 -0.0051
  204MOL0     O27408   8.879   2.698   1.030 -0.2594 -0.5380  0.0039
  204MOL0     C27409   8.979   2.764   1.103 -1.1675  0.0848  0.1866
  204MOL0     C27410   9.100   2.700   1.123  0.7489 -0.4209 -0.7433
  204MOL0     C27411   9.201   2.769   1.193  0.4342 -0.0051  0.1543
  204MOL0     C27412   9.190   2.896   1.255  0.3541 -0.4608  0.4182
  204MOL0     O27413   9.294   2.962   1.320  0.6070  0.3776 -0.5138
  204MOL0     C27414   9.298   3.106   1.329 -0.5289 -0.2347 -0.9721
  204MOL0     C27415   9.351   3.131   1.475  0.3328  0.3191 -0.7848
  204MOL0     C27416   9.394   3.276   1.486  0.9311  0.3919 -0.0474
  204MOL0     C27417   9.419   3.322   1.633  0.0040 -0.9472 -0.1043
  204MOL0     C27418   9.512   3.440   1.632 -0.9400 -0.2520 -0.6230
  204MOL0     C27419   9.537   3.499   1.778 -0.1294  0.1602  0.7260
  204MOL0     C27420   9.644   3.609   1.794  0.5555  0.5344  0.0147
  204MOL0     C27421   9.773   3.548   1.839 -0.5916  1.0378 -0.1280
  204MOL0     N27422   9.882   3.655   1.829  0.4599  0.5253  0.0751
  204MOL0     C27423   9.964   3.677   1.717  0.6309 -0.5753  0.2100
  204MOL0     C27424  10.066   3.763   1.762  0.3160 -0.7782 -0.0837
  204MOL0     C27425  10.170   3.819   1.676  0.1974  0.6814 -0.0773
  204MOL0     C27426  10.146   3.963   1.640 -0.0171  0.1448  0.2409
  204MOL0     C27427  10.225   4.028   1.530 -0.9710 -0.0962  0.0867
  204MOL0     C27428  10.351   4.092   1.590 -0.0246  1.1391  0.4289
  204MOL0     O27429  10.425   4.166   1.484 -0.2045  0.4416  0.7299
  204MOL0     C27430  10.538   4.099   1.443  0.0916 -0.4657 -0.3043
  204MOL0     C27431  10.529   4.039   1.322 -0.2573 -0.1420  0.2663
  204MOL0     C27432  10.653   3.978   1.273  0.0553  1.2293 -1.2385
  204MOL0     C27433  10.767   3.980   1.352  0.7253 -0.6844 -0.5353
  204MOL0     C27434  10.887   3.924   1.299 -0.5096  0.6975 -0.3944
  204MOL0     O27435  10.997   3.942   1.387  0.4549  0.2522 -0.0106
  204MOL0     C27436  11.118   3.928   1.321  0.1550  0.3066  0.0386
  204MOL0     C27437  11.183   3.800   1.344 -1.2024  0.2257 -0.1841
  204MOL0     C27438  11.306   3.778   1.269  0.1154 -0.5607  0.1120
  204MOL0     C27439  11.362   3.879   1.193 -0.3976 -0.4512  1.6103
  204MOL0     O27440  11.477   3.845   1.122 -0.2873  0.2347  0.3843
  204MOL0     C27441  11.562   3.944   1.077  0.7953  0.0933  0.7708
  204MOL0     C27442  11.668   3.881   0.983  0.4459 -0.3145 -0.3150
  204MOL0     C27443  11.606   3.824   0.853  0.1288  0.3444  0.5129
  204MOL0     C27444  11.723   3.826   0.756 -0.4150 -0.3548  0.7824
  204MOL0     C27445  11.656   3.786   0.609 -0.6520  0.0229 -1.6026
  204MOL0     C27446  11.754   3.773   0.505 -0.2779  0.4673 -0.2127
  204MOL0     C27447  11.855   3.654   0.510 -0.3238 -0.0145  0.1055
  204MOL0     C27448  11.947   3.642   0.392 -0.3952  0.2271  1.2432
  204MOL0    Cl27449  11.863   3.604   0.234 -0.0982 -0.2218  0.0675
  204MOL0     C27450  11.294   4.003   1.180 -0.8424 -0.3925 -0.0878
  204MOL0     C27451  11.172   4.025   1.240 -0.3484  0.4876  0.1492
  204MOL0     O27452  10.896   3.888   1.181  0.4819  0.4303 -0.4273
  204MOL0     C27453  10.767   4.039   1.480 -0.0280 -0.7061 -0.5700
  204MOL0     C27454  10.648   4.107   1.522 -0.4778 -0.1073  0.3751
  204MOL0     N27455  10.031   3.799   1.894  0.8659  0.2675  0.4637
  204MOL0     N27456   9.912   3.749   1.923 -0.5997  0.1890  0.4182
  204MOL0     C27457   9.063   2.954   1.240 -0.6782  0.6612  0.6591
  204MOL0     C27458   8.964   2.887   1.164  0.5414 -0.3122  0.9569
  204MOL0     C27459   8.651   2.653   0.964  0.5341  0.7416 -0.2705
  204MOL0     C27460   8.709   2.549   0.882  0.0558  0.3774 -0.3522
  204MOL0     C27461   8.626   2.462   0.809  0.6499 -0.1572 -0.5028
  204MOL0     C27462   8.488   2.482   0.804 -0.6699  0.3526 -0.7816
  204MOL0     O27463   8.398   2.406   0.729  0.0967 -0.1177 -0.7463
  204MOL0     C27464   8.452   2.315   0.636  0.4712 -0.2407 -0.4764
  204MOL0     C27465   8.510   2.394   0.523  0.8504  0.0365  0.3537
  204MOL0     C27466   8.540   2.300   0.404 -0.3053  0.2203 -0.1545
  204MOL0     C27467   8.676   2.226   0.414  0.4848 -0.2184 -0.3058
  204MOL0     C27468   8.781   2.320   0.420 -0.1924 -1.7237 -0.6744
  204MOL0     C27469   8.881   2.383   0.424 -0.0291  0.4968 -0.9492
  204MOL0     C27470   8.428   2.577   0.887  0.1957  0.2810  0.1211
  204MOL0     C27471   8.506   2.670   0.962  0.5262  0.2166 -0.5622
  204MOL0     C27472   8.436   2.779   1.038 -0.4247 -0.3083  0.4671
  204MOL0     H27473   9.108   2.598   1.086  1.8964  0.4267 -2.9957
  204MOL0     H27474   9.298   2.720   1.200  0.1583 -0.4420  1.1076
  204MOL0     H27475   9.375   3.141   1.259  0.3231 -0.4455 -0.1650
  204MOL0     H27476   9.205   3.160   1.313 -0.5923  0.7465  2.1123
  204MOL0     H27477   9.432   3.061   1.495 -1.9121 -1.6276  2.5435
  204MOL0     H27478   9.283   3.099   1.555  2.6517 -4.3285 -0.3559
  204MOL0     H27479   9.326   3.342   1.432 -1.0743 -0.1572  1.6528
  204MOL0     H27480   9.480   3.273   1.418 -1.8181  1.4446 -3.9563
  204MOL0     H27481   9.332   3.352   1.691 -1.5034 -0.4800 -2.4694
  204MOL0     H27482   9.461   3.234   1.682 -0.1082 -0.7029  0.4308
  204MOL0     H27483   9.611   3.408   1.597  0.1914  2.5832 -0.2895
  204MOL0     H27484   9.483   3.516   1.559  0.5788  0.7070 -0.2900
  204MOL0     H27485   9.437   3.539   1.796  0.1703 -0.2802  4.0284
  204MOL0     H27486   9.553   3.417   1.848 -3.9563  1.0744  2.9876
  204MOL0     H27487   9.613   3.681   1.871 -0.5279 -2.1760  2.2835
  204MOL0     H27488   9.665   3.670   1.706  0.9030  1.0282  0.4305
  204MOL0     H27489   9.772   3.506   1.939  0.7000  1.0584 -0.0890
  204MOL0     H27490   9.803   3.460   1.782 -1.9572  0.0517  0.6085
  204MOL0     H27491   9.953   3.649   1.613  2.3769  1.7833 -0.7048
  204MOL0     H27492  10.273   3.811   1.711  1.5375  0.9973 -3.5703
  204MOL0     H27493  10.164   3.757   1.586  0.2370  0.5717 -0.0038
  204MOL0     H27494  10.039   3.973   1.621  0.2778  2.6169 -0.4605
  204MOL0     H27495  10.163   4.025   1.729 -2.5263  1.6985 -0.2607
  204MOL0     H27496  10.176   4.101   1.465 -0.0090 -0.5348 -1.1819
  204MOL0     H27497  10.256   3.950   1.460 -2.4099 -0.5198 -0.1104
  204MOL0     H27498  10.412   4.028   1.655 -0.8466 -0.6666 -0.5118
  204MOL0     H27499  10.309   4.160   1.665 -1.9221 -0.1073  0.5609
  204MOL0     H27500  10.439   4.048   1.263  1.1624 -1.8295 -2.3703
  204MOL0     H27501  10.661   3.929   1.177  0.7792 -1.9636  0.3107
  204MOL0     H27502  11.135   3.724   1.405 -2.6349  0.0602 -1.4710
  204MOL0     H27503  11.351   3.684   1.297 -0.4084 -0.7336  0.3932
  204MOL0     H27504  11.496   4.006   1.014 -3.3565 -3.6478  0.8992
  204MOL0     H27505  11.613   3.995   1.158  2.9143 -0.6246 -0.0508
  204MOL0     H27506  11.744   3.960   0.971  0.2626  0.0114  0.6086
  204MOL0     H27507  11.707   3.795   1.037 -2.3224 -1.1103  0.5553
  204MOL0     H27508  11.583   3.718   0.871 -0.6731  0.7609  2.1360
  204MOL0     H27509  11.517   3.879   0.824 -2.4317 -3.0820  1.2008
  204MOL0     H27510  11.796   3.754   0.795 -0.8107 -1.3246 -0.1934
  204MOL0     H27511  11.778   3.918   0.738 -2.4268  0.9035  0.7798
  204MOL0     H27512  11.586   3.865   0.582 -2.1392 -1.0513 -0.9723
  204MOL0     H27513  11.602   3.691   0.612  0.7465 -0.7772  0.6228
  204MOL0     H27514  11.718   3.776   0.402  1.5523 -1.4075 -0.9907
  204MOL0     H27515  11.833   3.848   0.513  3.2347 -3.0206  1.3105
  204MOL0     H27516  11.807   3.560   0.539  0.8238 -0.3874  0.8558
  204MOL0     H27517  11.913   3.673   0.601 -2.0917 -1.8095  1.7043
  204MOL0     H27518  12.003   3.735   0.382 -0.6651  0.3509  0.8448
  204MOL0     H27519  12.019   3.561   0.410 -0.0082 -0.8219 -3.6021
  204MOL0     H27520  11.302   4.073   1.098 -3.2418  0.3297  0.2075
  204MOL0     H27521  11.122   4.119   1.222  3.9205  2.9484 -0.1811
  204MOL0     H27522  10.845   4.056   1.553 -3.2342  1.0308  2.7667
  204MOL0     H27523  10.640   4.155   1.619 -0.0165  2.1751 -0.6581
  204MOL0     H27524   9.037   3.051   1.280 -3.1812  0.0042  0.8023
  204MOL0     H27525   8.874   2.946   1.147  1.6223  1.1499  0.0828
  204MOL0     H27526   8.814   2.523   0.891 -0.4241 -2.0580 -0.9564
  204MOL0     H27527   8.669   2.377   0.758  1.2448 -2.0111  2.8165
  204MOL0     H27528   8.377   2.245   0.597  1.1499 -1.5530  0.4684
  204MOL0     H27529   8.528   2.250   0.681 -0.8604 -0.1930  2.0343
  204MOL0     H27530   8.599   2.450   0.553  1.9103 -2.6545  2.7134
  204MOL0     H27531   8.443   2.477   0.498  0.9250 -0.0590 -0.1569
  204MOL0     H27532   8.533   2.353   0.309 -1.5454  2.3922  1.0704
  204MOL0     H27533   8.457   2.229   0.401  0.9227 -1.6123  3.2279
  204MOL0     H27534   8.677   2.173   0.510  1.2571 -0.5941 -0.5129
  204MOL0     H27535   8.706   2.154   0.337  2.2271 -1.6332  1.5583
  204MOL0     H27536   8.974   2.434   0.436 -0.1480  0.0484  3.1673
  204MOL0     H27537   8.320   2.579   0.891  0.1885 -0.0525  0.1224
  204MOL0     H27538   8.486   2.873   1.014 -0.0857 -0.6926 -0.3965
  204MOL0     H27539   8.331   2.784   1.008  0.1024  0.4601 -1.3966
  204MOL0     H27540   8.436   2.759   1.146  0.0985  0.5928  0.6403
  205MOL0     O27541   1.446   2.952   1.495  0.5020  0.2130  0.3736
  205MOL0     C27542   1.339   2.981   1.430 -0.6743  0.1310 -1.0642
  205MOL0     O27543   1.304   3.098   1.380  0.2548 -0.0332 -0.7719
  205MOL0     C27544   1.398   3.191   1.364  0.2504 -0.9135 -0.1534
  205MOL0     C27545   1.492   3.165   1.261  0.5604 -0.2312 -0.0409
  205MOL0     C27546   1.582   3.261   1.222 -0.1052 -0.4229  0.1427
  205MOL0     C27547   1.571   3.393   1.272  0.2334 -0.2630  0.2241
  205MOL0     O27548   1.661   3.496   1.244  0.2210  0.1516 -0.0681
  205MOL0     C27549   1.610   3.581   1.135  0.5298 -0.1586  0.0433
  205MOL0     C27550   1.727   3.670   1.112 -0.4300 -1.4285  0.3053
  205MOL0     C27551   1.788   3.747   1.235  0.0728 -0.2714  0.4446
  205MOL0     C27552   1.899   3.840   1.191 -0.9562  0.3704  0.3661
  205MOL0     C27553   1.977   3.886   1.317  0.2347 -0.2836 -1.1188
  205MOL0     C27554   2.103   3.959   1.295 -0.2318  0.8905  0.3828
  205MOL0     C27555   2.163   3.982   1.439  0.6332  0.4382  0.2393
  205MOL0     C27556   2.312   4.002   1.433 -0.5255 -1.0313  0.0510
  205MOL0     N27557   2.364   4.111   1.340  0.4741  1.3433 -0.6750
  205MOL0     C27558   2.332   4.242   1.358 -0.0570  0.3537 -0.0964
  205MOL0     C27559   2.408   4.310   1.267 -0.7942  0.0406 -0.1829
  205MOL0     C27560   2.431   4.457   1.258 -0.0519  0.7879  0.0360
  205MOL0     C27561   2.304   4.522   1.211  0.4461 -0.7486 -0.0329
  205MOL0     C27562   2.238   4.459   1.079  0.0794 -0.6226 -0.9086
  205MOL0     C27563   2.149   4.559   1.016  0.1509 -0.7868 -0.8149
  205MOL0     O27564   2.019   4.566   1.092 -0.1520 -0.2327  0.6676
  205MOL0     C27565   1.939   4.465   1.087 -0.0502 -0.4472  0.4477
  205MOL0     C27566   1.908   4.414   1.215  0.1602 -0.0796  0.9418
  205MOL0     C27567   1.817   4.309   1.232 -0.2373  0.5339  0.1299
  205MOL0     C27568   1.767   4.244   1.112  1.1104  0.2891  0.5254
  205MOL0     C27569   1.670   4.125   1.118  0.0563 -0.3956 -0.0739
  205MOL0     O27570   1.606   4.085   1.003 -0.3360 -0.0188 -0.6232
  205MOL0     C27571   1.505   4.009   1.008  0.8301  0.3828  0.1670
  205MOL0     C27572   1.492   3.904   0.922 -0.7138 -0.0474 -0.2550
  205MOL0     C27573   1.382   3.820   0.922  0.1049 -0.2636  0.3247
  205MOL0     C27574   1.299   3.817   1.024  0.2790  0.0810 -0.5658
  205MOL0     O27575   1.191   3.723   1.020  0.1307 -0.2907 -0.2507
  205MOL0     C27576   1.109   3.702   1.132  1.0326 -0.0521  0.5967
  205MOL0     C27577   1.019   3.571   1.109  0.3417  0.5124 -0.5252
  205MOL0     C27578   1.110   3.457   1.146  1.1232 -0.6055 -0.0658
  205MOL0     C27579   1.081   3.330   1.062 -0.4026 -0.0376  0.0828
  205MOL0     C27580   1.200   3.247   1.068 -0.0139  0.3316  0.5400
  205MOL0     C27581   1.177   3.124   0.978 -0.0277  0.6557  0.1169
  205MOL0     C27582   1.076   3.019   1.035 -0.2442 -0.4257  0.1837
  205MOL0     C27583   1.119   2.880   1.011  0.8777  0.5993 -0.0292
  205MOL0    Cl27584   1.159   2.840   0.850 -0.0031 -0.0575  0.1604
  205MOL0     C27585   1.307   3.925   1.113 -0.1884 -0.2275 -0.8244
  205MOL0     C27586   1.404   4.019   1.112  0.8792 -0.5756  0.0943
  205MOL0     O27587   1.657   4.067   1.219 -0.4091  0.3066 -0.5481
  205MOL0     C27588   1.804   4.300   0.985  0.7230 -1.0633  0.7960
  205MOL0     C27589   1.890   4.412   0.971  0.1934  0.4178 -0.2997
  205MOL0     N27590   2.469   4.218   1.191 -0.6181 -0.3786  0.4357
  205MOL0     N27591   2.443   4.104   1.228  0.1520 -0.5851 -0.3957
  205MOL0     C27592   1.476   3.418   1.374 -0.0847  0.7481 -0.5427
  205MOL0     C27593   1.387   3.320   1.414  0.1362 -0.7421 -0.5954
  205MOL0     C27594   1.234   2.878   1.422  0.4020  0.6888  0.9030
  205MOL0     C27595   1.098   2.919   1.440 -0.0763 -0.7626  0.5371
  205MOL0     C27596   1.001   2.823   1.419 -0.6408  0.3176  0.4225
  205MOL0     C27597   1.025   2.696   1.374 -0.0649 -0.4940 -0.3126
  205MOL0     O27598   0.921   2.600   1.369 -0.4292 -0.4767  0.3448
  205MOL0     C27599   0.925   2.548   1.231 -0.4515 -0.2084 -0.2522
  205MOL0     C27600   0.775   2.558   1.178  0.9902  0.1653 -0.4020
  205MOL0     C27601   0.755   2.698   1.128  0.4228  0.5232  0.1211
  205MOL0     C27602   0.615   2.729   1.079  0.0843 -0.7298 -0.7475
  205MOL0     C27603   0.598   2.874   1.068 -0.6471  0.0592  0.5043
  205MOL0     C27604   0.590   2.995   1.067  0.8186 -0.3290  0.2068
  205MOL0     C27605   1.159   2.661   1.371 -0.1351  0.4671  0.8103
  205MOL0     C27606   1.266   2.747   1.385 -0.5020  0.7607 -0.3126
  205MOL0     C27607   1.403   2.676   1.388  0.1377 -0.4735 -0.3602
  205MOL0     H27608   1.486   3.064   1.223 -2.6926 -0.1958  0.0873
  205MOL0     H27609   1.658   3.240   1.148  1.1588  2.0069  0.6639
  205MOL0     H27610   1.590   3.521   1.046  0.6371 -0.6311  0.3359
  205MOL0     H27611   1.516   3.627   1.168  1.6294 -0.1580  3.6009
  205MOL0     H27612   1.692   3.750   1.046  2.6874  1.4404  1.7940
  205MOL0     H27613   1.800   3.604   1.065 -1.4899 -4.5538  2.6979
  205MOL0     H27614   1.824   3.662   1.294 -1.2065 -2.5956 -1.9182
  205MOL0     H27615   1.713   3.809   1.285 -0.3445  0.0922 -0.6191
  205MOL0     H27616   1.966   3.792   1.120 -1.1320  0.7244 -0.0433
  205MOL0     H27617   1.850   3.929   1.149 -0.3109  1.5398  1.9841
  205MOL0     H27618   1.911   3.959   1.367  2.6518  2.8989 -2.2112
  205MOL0     H27619   2.003   3.799   1.377  0.2060  2.2209  2.9115
  205MOL0     H27620   2.162   3.887   1.238 -3.4672 -1.2917 -0.4610
  205MOL0     H27621   2.086   4.051   1.238  1.3061 -0.0007 -1.6304
  205MOL0     H27622   2.147   3.887   1.491  0.8542 -1.6155 -3.1248
  205MOL0     H27623   2.112   4.063   1.492 -2.3695  0.0719 -1.8321
  205MOL0     H27624   2.343   4.024   1.536  4.2683 -2.5032 -0.8279
  205MOL0     H27625   2.365   3.912   1.400 -2.5783 -2.8756  1.5127
  205MOL0     H27626   2.268   4.276   1.438 -0.6961  0.3266 -0.5878
  205MOL0     H27627   2.461   4.510   1.349 -0.1504  0.6707  0.1375
  205MOL0     H27628   2.496   4.475   1.172 -2.4644 -0.8328 -2.2920
  205MOL0     H27629   2.230   4.543   1.288 -2.2299  2.2904 -3.1144
  205MOL0     H27630   2.325   4.627   1.190  0.7909 -0.8233 -0.0722
  205MOL0     H27631   2.192   4.367   1.115 -0.5583 -0.0648 -0.2702
  205MOL0     H27632   2.320   4.443   1.008 -0.4931 -3.3463 -1.0521
  205MOL0     H27633   2.130   4.529   0.913  1.2422 -0.6859 -1.0583
  205MOL0     H27634   2.197   4.657   1.009  2.8345 -2.0709 -1.6665
  205MOL0     H27635   1.949   4.459   1.304 -3.7463  2.3161  1.7737
  205MOL0     H27636   1.786   4.279   1.331 -0.6972 -2.4643 -0.8063
  205MOL0     H27637   1.582   3.902   0.860  0.1724 -0.1852  1.0081
  205MOL0     H27638   1.366   3.749   0.842  2.5339 -1.2306  0.6054
  205MOL0     H27639   1.170   3.693   1.222  1.8432  1.9269  0.2901
  205MOL0     H27640   1.040   3.788   1.131  0.7444 -0.2716 -0.8938
  205MOL0     H27641   0.930   3.562   1.171  0.1545  1.3363 -0.6628
  205MOL0     H27642   1.004   3.564   1.001 -1.6554  2.4414 -0.4451
  205MOL0     H27643   1.214   3.491   1.141  0.1198  2.7599 -0.8583
  205MOL0     H27644   1.088   3.431   1.250 -2.4763 -4.0628 -1.4187
  205MOL0     H27645   1.047   3.352   0.960 -3.6147 -0.9916  0.8332
  205MOL0     H27646   0.988   3.292   1.106 -0.5675  2.1701  1.7878
  205MOL0     H27647   1.207   3.228   1.175 -1.2409 -2.9393  0.1591
  205MOL0     H27648   1.289   3.301   1.034 -1.4371  2.5982  0.1555
  205MOL0     H27649   1.151   3.159   0.877  0.0665  1.7075  0.4451
  205MOL0     H27650   1.277   3.083   0.963 -0.6728 -0.6748 -0.8467
  205MOL0     H27651   0.982   3.051   0.990  0.0854  4.6194  2.4108
  205MOL0     H27652   1.051   3.023   1.142 -1.1426  1.1452 -0.0603
  205MOL0     H27653   1.209   2.857   1.069 -0.2133  0.8511  1.8072
  205MOL0     H27654   1.051   2.809   1.058  3.5116 -1.5027  0.8536
  205MOL0     H27655   1.228   3.927   1.187 -1.9750 -0.2001 -2.6170
  205MOL0     H27656   1.396   4.093   1.190  2.6082 -0.2243 -0.0198
  205MOL0     H27657   1.766   4.258   0.892  0.3759  1.2941 -0.1820
  205MOL0     H27658   1.904   4.450   0.870  0.4888  1.7794  0.2273
  205MOL0     H27659   1.468   3.521   1.408  1.7723  1.0378 -0.8760
  205MOL0     H27660   1.307   3.340   1.485 -0.0834 -1.1863 -0.7163
  205MOL0     H27661   1.068   3.022   1.454 -0.1735 -0.6679 -0.3094
  205MOL0     H27662   0.898   2.846   1.447 -0.6015 -1.2512  2.0354
  205MOL0     H27663   0.947   2.440   1.233  1.5278  0.1571 -0.3311
  205MOL0     H27664   0.993   2.595   1.160 -0.4184  1.6629  0.9554
  205MOL0     H27665   0.702   2.531   1.256  0.3448  1.4968 -0.5192
  205MOL0     H27666   0.757   2.493   1.092 -2.8383  1.5470 -0.8538
  205MOL0     H27667   0.835   2.734   1.064 -0.3046  2.0419  0.0220
  205MOL0     H27668   0.773   2.764   1.214  1.1709  1.3292 -0.6333
  205MOL0     H27669   0.589   2.674   0.988  1.2654 -2.1359 -0.2825
  205MOL0     H27670   0.550   2.699   1.162  0.4864  1.0978  0.2618
  205MOL0     H27671   0.578   3.101   1.062 -1.0941 -0.5856 -1.6063
  205MOL0     H27672   1.188   2.556   1.375  0.1810  0.5380  4.9095
  205MOL0     H27673   1.469   2.716   1.310  1.2935 -0.6612  0.4807
  205MOL0     H27674   1.442   2.714   1.483 -0.6596  2.1174 -1.0036
  205MOL0     H27675   1.402   2.567   1.392 -1.2697 -0.4426  1.0722
  206MOL0     O27676   3.529   2.243   2.817 -0.0046 -0.5592 -0.0485
  206MOL0     C27677   3.449   2.257   2.906 -0.5146 -0.0444 -0.6031
  206MOL0     O27678   3.347   2.340   2.897  0.1987 -0.4083  0.5116
  206MOL0     C27679   3.316   2.390   2.772 -1.1655 -0.3767  0.0909
  206MOL0     C27680   3.281   2.319   2.664 -0.2435  0.2463 -0.3535
  206MOL0     C27681   3.232   2.372   2.546  0.1250  0.7952 -1.1425
  206MOL0     C27682   3.218   2.505   2.534 -0.0490 -0.7502  0.6440
  206MOL0     O27683   3.173   2.542   2.412  0.4795 -0.1529  0.1964
  206MOL0     C27684   3.195   2.673   2.361 -0.5847 -0.4103 -0.4597
  206MOL0     C27685   3.161   2.676   2.212  0.4188 -0.9943  0.0960
  206MOL0     C27686   3.215   2.558   2.137  0.7890  0.1692 -0.2956
  206MOL0     C27687   3.183   2.561   1.992 -1.5437  0.1832  0.1136
  206MOL0     C27688   3.251   2.674   1.913  0.1683  0.5908 -0.1660
  206MOL0     C27689   3.228   2.659   1.762 -0.7517 -0.8881  0.3321
  206MOL0     C27690   3.287   2.770   1.670 -0.8135  0.5523  0.2700
  206MOL0     C27691   3.284   2.729   1.526  0.7110 -0.1557  0.2950
  206MOL0     N27692   3.373   2.815   1.456 -0.6814 -0.1697  0.0752
  206MOL0     C27693   3.351   2.949   1.445 -0.4684 -1.5992  0.1596
  206MOL0     C27694   3.467   2.992   1.388  0.2567 -0.4276 -0.5548
  206MOL0     C27695   3.516   3.126   1.351  0.8424 -1.3331 -0.3875
  206MOL0     C27696   3.408   3.223   1.322  1.1949 -0.6486  0.9341
  206MOL0     C27697   3.459   3.357   1.256 -0.3780 -0.4569  0.6903
  206MOL0     C27698   3.347   3.456   1.228  0.7082  0.0676 -0.0757
  206MOL0     O27699   3.338   3.543   1.342 -0.0971 -0.1285 -0.8086
  206MOL0     C27700   3.254   3.507   1.444  0.3337 -0.7045  0.9121
  206MOL0     C27701   3.113   3.498   1.421  0.5484  0.4908 -0.0837
  206MOL0     C27702   3.022   3.489   1.527 -0.1898  1.1003  0.0731
  206MOL0     C27703   3.077   3.478   1.659 -1.1177 -0.2461 -0.0731
  206MOL0     C27704   2.987   3.452   1.776  0.1425  0.4444 -0.0326
  206MOL0     O27705   2.851   3.453   1.750 -0.4679  0.4891 -0.0647
  206MOL0     C27706   2.772   3.458   1.860 -0.5939  0.2044  0.1602
  206MOL0     C27707   2.684   3.567   1.889 -0.2624 -0.0094  0.1097
  206MOL0     C27708   2.599   3.583   2.000 -0.2970  2.2552  0.1786
  206MOL0     C27709   2.579   3.466   2.082 -0.2604 -0.1431 -0.8274
  206MOL0     O27710   2.484   3.464   2.181 -0.4479 -0.1499 -0.4881
  206MOL0     C27711   2.444   3.347   2.250 -0.6823  0.2768  0.4841
  206MOL0     C27712   2.527   3.322   2.378  0.1293  0.0566 -0.4036
  206MOL0     C27713   2.532   3.434   2.474 -0.0532 -0.3537 -0.4183
  206MOL0     C27714   2.497   3.404   2.619 -0.2959 -0.0869 -0.1503
  206MOL0     C27715   2.603   3.323   2.695  0.9790 -0.3182 -0.4112
  206MOL0     C27716   2.730   3.401   2.708 -0.6153 -0.5613 -0.5166
  206MOL0     C27717   2.716   3.514   2.820 -1.3096  1.2566 -0.4422
  206MOL0     C27718   2.852   3.578   2.831 -0.2032  0.4794 -0.0719
  206MOL0    Cl27719   2.848   3.692   2.976 -0.0256 -0.1630  0.2338
  206MOL0     C27720   2.670   3.360   2.062  0.2525 -0.1510  0.9426
  206MOL0     C27721   2.765   3.357   1.957 -0.4241 -0.4217 -0.3677
  206MOL0     O27722   3.043   3.431   1.886  0.2051  0.5022  0.6651
  206MOL0     C27723   3.217   3.479   1.681  0.0887 -0.7347 -0.1405
  206MOL0     C27724   3.304   3.497   1.573  0.4400 -0.5593  0.6079
  206MOL0     N27725   3.540   2.882   1.360 -0.5721 -0.6346  0.5216
  206MOL0     N27726   3.493   2.777   1.403  0.4710 -0.1652 -0.4033
  206MOL0     C27727   3.261   2.584   2.644  0.8643  0.0931  0.2219
  206MOL0     C27728   3.292   2.527   2.768  0.4098  0.1089 -0.1395
  206MOL0     C27729   3.469   2.177   3.033  0.1149 -0.0157  0.7691
  206MOL0     C27730   3.581   2.093   3.035  0.0484  0.5191 -0.4656
  206MOL0     C27731   3.601   1.995   3.140 -0.3562  0.2063  0.8838
  206MOL0     C27732   3.504   1.983   3.237  0.6010 -0.2101  0.1934
  206MOL0     O27733   3.518   1.898   3.340 -0.1724  0.6689  0.6607
  206MOL0     C27734   3.492   1.762   3.306  0.2808  0.4629 -0.3235
  206MOL0     C27735   3.593   1.672   3.380  0.0790  0.2683  0.1487
  206MOL0     C27736   3.734   1.700   3.341  0.0830  0.4554 -0.8672
  206MOL0     C27737   3.833   1.600   3.406  1.2797  0.4699  0.2621
  206MOL0     C27738   3.976   1.635   3.390  0.4702 -0.9219  0.5727
  206MOL0     C27739   4.092   1.666   3.376  0.3354  0.3394  0.1527
  206MOL0     C27740   3.403   2.079   3.238 -0.1986  0.4859  0.3718
  206MOL0     C27741   3.384   2.181   3.145 -0.7661 -1.0743  0.6355
  206MOL0     C27742   3.254   2.256   3.154 -0.4019 -0.2523  0.7033
  206MOL0     H27743   3.308   2.214   2.662  0.8558  0.4868  0.7582
  206MOL0     H27744   3.206   2.306   2.463 -0.5212  0.4671 -0.6865
  206MOL0     H27745   3.132   2.746   2.414 -1.8655 -2.2030  0.6300
  206MOL0     H27746   3.300   2.694   2.381 -0.9909 -0.4927  2.1528
  206MOL0     H27747   3.198   2.758   2.149 -0.2997 -2.8717 -3.0288
  206MOL0     H27748   3.052   2.670   2.210  0.3847 -1.5831  1.9114
  206MOL0     H27749   3.180   2.461   2.173 -0.6482 -0.0419 -2.1147
  206MOL0     H27750   3.324   2.563   2.139  1.0338 -0.4185 -4.3430
  206MOL0     H27751   3.216   2.466   1.947 -1.5940  0.9875 -1.7172
  206MOL0     H27752   3.073   2.563   1.985 -1.7536  2.3724  2.4985
  206MOL0     H27753   3.208   2.770   1.943 -0.0564  1.2145 -2.3289
  206MOL0     H27754   3.357   2.672   1.943  0.0069  0.3711  0.4133
  206MOL0     H27755   3.289   2.571   1.740  1.9974  0.3022  2.5001
  206MOL0     H27756   3.121   2.662   1.742 -0.6083  0.7831 -0.3593
  206MOL0     H27757   3.391   2.788   1.698 -0.0257  2.2614 -3.1396
  206MOL0     H27758   3.235   2.866   1.669 -2.1524 -0.1327 -0.9125
  206MOL0     H27759   3.307   2.623   1.511 -0.9429 -0.5717  0.5743
  206MOL0     H27760   3.183   2.748   1.489 -0.0230  0.3964  2.4651
  206MOL0     H27761   3.260   2.998   1.478  0.0375 -1.5294  1.5160
  206MOL0     H27762   3.589   3.165   1.423  1.6608 -1.7967 -0.9435
  206MOL0     H27763   3.576   3.110   1.261 -1.2553  0.0044 -2.1004
  206MOL0     H27764   3.336   3.173   1.256  2.3802 -0.2989 -0.7079
  206MOL0     H27765   3.367   3.245   1.421  2.5106  1.9590  0.9889
  206MOL0     H27766   3.509   3.326   1.163  0.3070 -0.3996  1.0313
  206MOL0     H27767   3.525   3.416   1.320 -2.9932  2.9516  0.4742
  206MOL0     H27768   3.252   3.411   1.199  0.0575  3.3852 -4.0681
  206MOL0     H27769   3.361   3.519   1.139 -0.6843 -0.1034 -0.4280
  206MOL0     H27770   3.070   3.512   1.322 -0.9835  0.8933  0.6160
  206MOL0     H27771   2.916   3.471   1.518 -0.2675  0.2580  2.0960
  206MOL0     H27772   2.699   3.641   1.810 -1.7438  0.0969 -0.1027
  206MOL0     H27773   2.541   3.672   2.021 -4.2398 -0.5358  2.2167
  206MOL0     H27774   2.338   3.360   2.277 -0.6631  1.5740  0.0144
  206MOL0     H27775   2.455   3.264   2.180 -2.7233 -0.4720  0.9860
  206MOL0     H27776   2.487   3.237   2.436  0.3379 -1.9583 -3.0055
  206MOL0     H27777   2.630   3.297   2.351  1.4005  2.7591  1.5174
  206MOL0     H27778   2.633   3.475   2.468  0.1271 -0.9707 -4.0566
  206MOL0     H27779   2.451   3.500   2.442 -1.2072 -2.8902 -3.2408
  206MOL0     H27780   2.400   3.355   2.616 -0.1270 -0.4188 -0.1944
  206MOL0     H27781   2.480   3.502   2.665 -0.4421 -1.9171  4.0745
  206MOL0     H27782   2.624   3.223   2.655  0.6117 -0.7633  0.4708
  206MOL0     H27783   2.563   3.312   2.797  0.9056 -0.1908 -0.4266
  206MOL0     H27784   2.808   3.331   2.740 -0.8546 -0.1014  1.1336
  206MOL0     H27785   2.772   3.452   2.620  3.0749 -0.4267  1.1476
  206MOL0     H27786   2.699   3.469   2.918 -0.4628  1.6090 -0.1169
  206MOL0     H27787   2.638   3.585   2.791 -1.7199 -0.0272 -2.6535
  206MOL0     H27788   2.927   3.502   2.857  1.2972  1.5059 -1.1658
  206MOL0     H27789   2.879   3.643   2.747 -0.9740  1.4304  0.4083
  206MOL0     H27790   2.673   3.270   2.123 -1.2931  0.2865  1.7071
  206MOL0     H27791   2.823   3.266   1.951  1.1795  0.4806  0.7242
  206MOL0     H27792   3.252   3.468   1.783 -0.1714 -0.3291 -0.0068
  206MOL0     H27793   3.412   3.498   1.588  0.4300 -0.1547  0.6603
  206MOL0     H27794   3.262   2.692   2.637 -1.4659  0.1658  0.2839
  206MOL0     H27795   3.305   2.597   2.850 -0.9982  2.2422 -1.6192
  206MOL0     H27796   3.656   2.104   2.956  0.4691  1.6014  0.0666
  206MOL0     H27797   3.687   1.931   3.125 -1.0909 -0.6855  0.3197
  206MOL0     H27798   3.505   1.739   3.199  2.9376  1.2889 -0.2385
  206MOL0     H27799   3.389   1.742   3.339  1.4640  0.5286  3.9802
  206MOL0     H27800   3.567   1.568   3.358  2.4398 -0.6977  1.5577
  206MOL0     H27801   3.576   1.688   3.487 -3.9662 -0.7536 -0.1700
  206MOL0     H27802   3.764   1.804   3.358  1.6829  0.4100 -2.9938
  206MOL0     H27803   3.738   1.682   3.233  0.5699  2.6833 -1.2831
  206MOL0     H27804   3.811   1.587   3.513  0.5361  0.6302  0.1353
  206MOL0     H27805   3.842   1.497   3.371  1.5811  0.5527  0.1016
  206MOL0     H27806   4.198   1.678   3.371  1.2116 -4.7576  0.8731
  206MOL0     H27807   3.342   2.063   3.327  1.5804 -1.0372  1.3795
  206MOL0     H27808   3.180   2.217   3.224  0.5673  2.1793  3.2743
  206MOL0     H27809   3.263   2.365   3.168 -1.1336 -0.1064  0.1182
  206MOL0     H27810   3.209   2.243   3.055 -3.7414 -2.8291  2.3858
  207MOL0     O27811   2.418   2.624   0.474  0.1538 -0.3602  0.2340
  207MOL0     C27812   2.381   2.513   0.501 -0.6354  0.1425  0.1372
  207MOL0     O27813   2.302   2.481   0.612 -0.4652  0.2999  1.2668
  207MOL0     C27814   2.297   2.577   0.714 -0.0522 -0.2212  0.1636
  207MOL0     C27815   2.192   2.669   0.695 -0.6744  0.4056 -0.0071
  207MOL0     C27816   2.188   2.783   0.779 -0.4927 -1.2373  0.2937
  207MOL0     C27817   2.275   2.786   0.892  0.7561  0.6209  0.3477
  207MOL0     O27818   2.237   2.874   0.989 -0.3609  0.0034  0.4475
  207MOL0     C27819   2.337   2.926   1.083  0.6539 -0.5070 -0.0511
  207MOL0     C27820   2.307   2.861   1.218 -0.4849 -0.2143 -0.0141
  207MOL0     C27821   2.247   2.968   1.309 -0.9296 -0.0996  0.1498
  207MOL0     C27822   2.178   2.920   1.429 -0.8948  0.0627 -0.9558
  207MOL0     C27823   2.030   2.900   1.398  0.1663 -0.3659 -0.3845
  207MOL0     C27824   1.995   2.751   1.374  0.4347 -0.2062 -1.1665
  207MOL0     C27825   1.852   2.729   1.344  0.4423  0.3665 -0.5739
  207MOL0     C27826   1.817   2.588   1.344  0.4115  0.5385  0.1886
  207MOL0     N27827   1.781   2.549   1.203  0.7985  0.6143 -0.5764
  207MOL0     C27828   1.858   2.545   1.090  0.5708  0.0252 -1.4587
  207MOL0     C27829   1.772   2.497   0.995 -0.6197  0.6795  0.0031
  207MOL0     C27830   1.813   2.471   0.853  0.0151  0.0174 -0.9921
  207MOL0     C27831   1.944   2.398   0.829 -0.4415  1.0612 -0.2054
  207MOL0     C27832   1.942   2.352   0.687 -0.4510  0.1569  0.3406
  207MOL0     C27833   2.052   2.251   0.647  0.9216 -0.2067 -0.7204
  207MOL0     O27834   2.013   2.115   0.701 -0.2410 -0.6355  0.2229
  207MOL0     C27835   1.957   2.032   0.610 -0.6762  0.8383 -1.2187
  207MOL0     C27836   2.036   1.973   0.508  0.6274 -0.0713 -0.7497
  207MOL0     C27837   1.982   1.874   0.430  0.0510  0.0357  0.2165
  207MOL0     C27838   1.848   1.823   0.445 -0.8334 -0.5871  0.1941
  207MOL0     C27839   1.803   1.721   0.345 -0.0439 -0.1709 -0.7431
  207MOL0     O27840   1.882   1.688   0.235 -0.3195 -0.0922  0.6698
  207MOL0     C27841   1.833   1.590   0.152 -0.2474 -0.6652  0.1708
  207MOL0     C27842   1.770   1.628   0.038 -0.1467 -0.0789  0.3149
  207MOL0     C27843   1.719   1.529  -0.047 -0.0147  0.5721  0.0468
  207MOL0     C27844   1.725   1.395  -0.015  0.0180  0.4915 -0.0039
  207MOL0     O27845   1.664   1.297  -0.090  0.0449  0.1412  0.2497
  207MOL0     C27846   1.718   1.274  -0.221 -0.2604 -0.0204  0.5055
  207MOL0     C27847   1.646   1.152  -0.292  0.0272 -0.0976 -0.2291
  207MOL0     C27848   1.668   1.140  -0.440 -0.0029  0.4457 -0.1578
  207MOL0     C27849   1.577   1.026  -0.498  0.0323 -0.6028 -0.1934
  207MOL0     C27850   1.597   1.004  -0.651 -0.1017  0.2396  0.2568
  207MOL0     C27851   1.480   0.926  -0.708 -0.2434  0.2981  0.3533
  207MOL0     C27852   1.468   0.774  -0.674 -0.2911  0.4588  0.0223
  207MOL0     C27853   1.327   0.742  -0.725  0.2822  0.4918 -0.8841
  207MOL0    Cl27854   1.287   0.568  -0.688  0.0724  0.5381  0.4377
  207MOL0     C27855   1.803   1.358   0.101  0.9527  0.5369  0.3528
  207MOL0     C27856   1.853   1.455   0.180  0.3938  0.9710 -0.0165
  207MOL0     O27857   1.701   1.664   0.376 -0.1343 -0.1538 -0.3332
  207MOL0     C27858   1.772   1.874   0.559 -0.1898 -0.3278  1.2924
  207MOL0     C27859   1.828   1.977   0.635 -0.5402  1.0118  0.1773
  207MOL0     N27860   1.648   2.475   1.055 -0.2556 -0.6103 -0.7589
  207MOL0     N27861   1.658   2.495   1.178 -0.2942 -0.4091  0.7418
  207MOL0     C27862   2.372   2.689   0.911  0.3273 -0.6218  0.7086
  207MOL0     C27863   2.390   2.589   0.818  0.3201 -0.5906 -0.8875
  207MOL0     C27864   2.408   2.396   0.412 -0.8679 -0.3059  0.8382
  207MOL0     C27865   2.375   2.409   0.273 -0.7944  0.2841 -0.2148
  207MOL0     C27866   2.371   2.294   0.197  0.0255 -0.0728 -0.5687
  207MOL0     C27867   2.390   2.164   0.251  0.0134 -0.4392  0.3302
  207MOL0     O27868   2.369   2.039   0.189  0.6039 -0.5160  0.1250
  207MOL0     C27869   2.303   2.044   0.059  0.1319  0.5125 -0.6617
  207MOL0     C27870   2.412   2.029  -0.047  0.8003  0.3852 -0.6395
  207MOL0     C27871   2.352   2.003  -0.195 -0.1545 -0.5067 -0.3962
  207MOL0     C27872   2.337   1.857  -0.224 -0.8502  0.4223 -0.2422
  207MOL0     C27873   2.280   1.832  -0.352  0.0856  0.0490  1.0240
  207MOL0     C27874   2.245   1.842  -0.466  0.1535 -0.8816  0.2376
  207MOL0     C27875   2.413   2.160   0.384 -0.6676  0.0854 -0.5167
  207MOL0     C27876   2.433   2.268   0.468 -0.3610 -0.3753 -0.2729
  207MOL0     C27877   2.480   2.237   0.603 -0.1613 -0.4855 -0.0638
  207MOL0     H27878   2.133   2.659   0.605 -0.5723  1.0560 -0.1477
  207MOL0     H27879   2.133   2.872   0.751  2.1713  1.3983  2.7244
  207MOL0     H27880   2.438   2.912   1.044 -0.4809 -0.2055 -3.4474
  207MOL0     H27881   2.322   3.035   1.089 -0.2545 -0.3767 -3.0090
  207MOL0     H27882   2.399   2.819   1.260 -0.9550 -0.7226  0.5297
  207MOL0     H27883   2.234   2.780   1.203 -1.2098  0.2462  0.8964
  207MOL0     H27884   2.184   3.035   1.250 -0.0698 -0.7033 -1.5338
  207MOL0     H27885   2.330   3.027   1.348 -1.1128  0.4704 -0.2860
  207MOL0     H27886   2.214   2.819   1.453 -2.5716 -0.1493  1.0117
  207MOL0     H27887   2.187   2.993   1.510 -1.4408  1.0589 -1.7762
  207MOL0     H27888   1.975   2.928   1.488 -2.0707 -1.7603 -1.2332
  207MOL0     H27889   1.991   2.971   1.324  0.1504  2.1031  1.8115
  207MOL0     H27890   2.047   2.710   1.287 -0.7663 -5.1531  0.1127
  207MOL0     H27891   2.030   2.699   1.464 -2.8571 -0.4419  0.1388
  207MOL0     H27892   1.830   2.779   1.249  1.9730 -0.0276 -1.1669
  207MOL0     H27893   1.792   2.779   1.420 -0.1825 -0.8692 -0.2416
  207MOL0     H27894   1.899   2.529   1.385 -0.8553 -0.6158  1.1065
  207MOL0     H27895   1.739   2.565   1.417  0.6291 -2.0305 -0.3093
  207MOL0     H27896   1.961   2.580   1.083  1.9688 -2.1760  3.8295
  207MOL0     H27897   1.735   2.405   0.813  0.3206 -1.3565  0.5675
  207MOL0     H27898   1.800   2.562   0.794 -0.9156 -0.9166 -2.2677
  207MOL0     H27899   2.033   2.459   0.844 -0.7335  1.4580 -0.0625
  207MOL0     H27900   1.951   2.312   0.897  2.4703  1.3163 -0.0795
  207MOL0     H27901   1.962   2.439   0.624  0.8818  0.1810  0.7505
  207MOL0     H27902   1.850   2.316   0.639 -0.9591 -0.1779  1.5378
  207MOL0     H27903   2.147   2.284   0.691  0.3901 -0.5875  0.7876
  207MOL0     H27904   2.065   2.263   0.539 -0.7908  1.2008 -0.8113
  207MOL0     H27905   2.136   2.014   0.503  1.8237 -2.7423 -0.0038
  207MOL0     H27906   2.057   1.855   0.354  3.3867 -1.4751  3.5975
  207MOL0     H27907   1.739   1.731   0.020  0.4206  0.1512  0.6163
  207MOL0     H27908   1.647   1.541  -0.127  0.6014  1.2303 -0.4136
  207MOL0     H27909   1.715   1.368  -0.277  0.4406 -0.8565 -0.9955
  207MOL0     H27910   1.822   1.241  -0.212 -1.0114 -2.4021  0.9575
  207MOL0     H27911   1.673   1.062  -0.235 -0.4017 -0.3998 -0.4982
  207MOL0     H27912   1.540   1.156  -0.268  0.3057  0.0750  1.0752
  207MOL0     H27913   1.642   1.234  -0.489  0.3208 -0.0099 -1.2405
  207MOL0     H27914   1.774   1.115  -0.451  1.0884  3.5697  1.9508
  207MOL0     H27915   1.474   1.059  -0.485  0.8075  3.2093 -2.2687
  207MOL0     H27916   1.575   0.935  -0.436 -3.3794  0.2649  1.2166
  207MOL0     H27917   1.685   0.942  -0.674 -0.8465 -1.7481  2.3379
  207MOL0     H27918   1.608   1.107  -0.686 -2.5143  0.7799  0.9197
  207MOL0     H27919   1.388   0.968  -0.667 -0.1199 -1.1297  2.2365
  207MOL0     H27920   1.478   0.952  -0.814 -1.7174 -0.8815  0.0637
  207MOL0     H27921   1.480   0.768  -0.566  0.3426 -0.3019 -0.0784
  207MOL0     H27922   1.541   0.711  -0.727  0.4451  1.8703 -0.7026
  207MOL0     H27923   1.257   0.806  -0.670  0.6450  0.8912 -0.8878
  207MOL0     H27924   1.307   0.756  -0.831  1.8352  1.1977 -1.1029
  207MOL0     H27925   1.820   1.251   0.113 -1.4354 -0.6254 -4.1901
  207MOL0     H27926   1.920   1.419   0.258  0.3208 -0.0565 -0.4136
  207MOL0     H27927   1.672   1.841   0.586 -1.4963  3.0376  1.0623
  207MOL0     H27928   1.782   2.014   0.726  1.7816  0.2280  1.7716
  207MOL0     H27929   2.435   2.683   0.999  0.9691 -0.6605  0.2515
  207MOL0     H27930   2.483   2.533   0.827  0.5991  0.0743  0.6262
  207MOL0     H27931   2.350   2.507   0.233 -0.8845  0.1534 -0.4800
  207MOL0     H27932   2.336   2.293   0.094  0.5476 -4.4517 -0.9116
  207MOL0     H27933   2.242   2.130   0.033  0.5089  1.2475  0.7859
  207MOL0     H27934   2.239   1.956   0.045  1.1140  0.0977 -3.0383
  207MOL0     H27935   2.486   1.953  -0.018  0.3238 -0.3339 -1.2824
  207MOL0     H27936   2.458   2.128  -0.054  1.5693  0.3191  1.9985
  207MOL0     H27937   2.407   2.057  -0.272 -0.4510 -1.4165 -1.2658
  207MOL0     H27938   2.254   2.049  -0.184  0.5250  0.4548  6.1261
  207MOL0     H27939   2.430   1.803  -0.205 -2.0729 -2.4067 -1.7574
  207MOL0     H27940   2.265   1.816  -0.152  0.0603 -1.0647 -0.1468
  207MOL0     H27941   2.225   1.852  -0.571  0.8396  0.7365  0.2135
  207MOL0     H27942   2.407   2.065   0.436 -0.5285  0.0970 -0.4782
  207MOL0     H27943   2.405   2.184   0.663 -1.3617 -0.3382 -1.3949
  207MOL0     H27944   2.569   2.174   0.599 -0.9058 -1.5285 -0.5251
  207MOL0     H27945   2.511   2.325   0.661  2.5981 -0.6785 -1.1277
  208MOL0     O27946   8.553   4.236   0.039 -0.5595 -0.2016  0.1374
  208MOL0     C27947   8.482   4.317   0.093  1.2952 -0.4702 -0.3633
  208MOL0     O27948   8.522   4.395   0.203 -0.2271  0.1473  0.0956
  208MOL0     C27949   8.648   4.386   0.245  0.2807  0.7696 -0.3939
  208MOL0     C27950   8.711   4.505   0.265  0.2490 -0.4832  0.3903
  208MOL0     C27951   8.847   4.504   0.308 -0.2231 -0.4967  0.0241
  208MOL0     C27952   8.913   4.388   0.349  1.1369 -1.1947  0.2805
  208MOL0     O27953   9.044   4.400   0.398 -0.8641 -0.6311  0.4764
  208MOL0     C27954   9.063   4.452   0.526 -0.2191 -0.0887  0.9435
  208MOL0     C27955   8.991   4.376   0.639 -0.1590 -0.8896  0.9987
  208MOL0     C27956   9.039   4.423   0.775  0.1867 -0.7967 -0.4496
  208MOL0     C27957   8.963   4.354   0.893  0.1822  0.5334  0.1989
  208MOL0     C27958   9.013   4.416   1.030 -0.2740  0.5219 -0.5014
  208MOL0     C27959   8.978   4.566   1.029 -0.5632  0.4586  0.1100
  208MOL0     C27960   9.012   4.632   1.163 -0.5341 -0.0791 -0.0018
  208MOL0     C27961   8.888   4.631   1.259  0.7083 -0.3719  0.2523
  208MOL0     N27962   8.810   4.753   1.251  0.7142  0.2381 -0.5616
  208MOL0     C27963   8.862   4.873   1.286  0.9509  0.3362  0.0036
  208MOL0     C27964   8.774   4.959   1.228 -1.2615  0.1100 -0.3952
  208MOL0     C27965   8.781   5.110   1.228  0.3204 -0.0521  0.0868
  208MOL0     C27966   8.709   5.172   1.350  0.2150  0.4732  0.0353
  208MOL0     C27967   8.700   5.321   1.331  1.3853 -0.6376 -0.0215
  208MOL0     C27968   8.625   5.367   1.456  0.2142  0.4281  0.3274
  208MOL0     O27969   8.643   5.504   1.469 -0.3219 -0.6610 -0.1853
  208MOL0     C27970   8.577   5.596   1.390  0.9507  0.7858 -0.1471
  208MOL0     C27971   8.466   5.570   1.306  0.3802 -0.1760 -0.3983
  208MOL0     C27972   8.423   5.657   1.206  0.0852 -0.6747 -0.0529
  208MOL0     C27973   8.488   5.785   1.189 -0.0546 -0.6586  0.5719
  208MOL0     C27974   8.437   5.875   1.077 -0.5837 -0.7356  0.0338
  208MOL0     O27975   8.297   5.874   1.050  0.2408  0.2467  0.2333
  208MOL0     C27976   8.251   5.956   0.946 -0.6458 -0.1786 -0.8568
  208MOL0     C27977   8.187   6.075   0.985 -0.3297 -0.1134 -0.2177
  208MOL0     C27978   8.133   6.171   0.898  0.0966 -0.4312 -0.9845
  208MOL0     C27979   8.158   6.155   0.759 -0.0176 -0.1132 -0.7356
  208MOL0     O27980   8.118   6.235   0.655 -0.4687 -0.1942  0.1343
  208MOL0     C27981   8.008   6.322   0.669  0.1786 -0.7513  0.6933
  208MOL0     C27982   7.877   6.246   0.696 -0.6739 -0.5799 -0.4478
  208MOL0     C27983   7.748   6.335   0.731 -0.5805  0.2057 -0.4711
  208MOL0     C27984   7.738   6.463   0.653 -0.5220 -0.0376 -0.1648
  208MOL0     C27985   7.596   6.522   0.661  0.6256 -0.4358  0.5587
  208MOL0     C27986   7.574   6.644   0.567 -0.4083 -0.0546  0.3296
  208MOL0     C27987   7.690   6.752   0.581  0.2197  0.4487  0.9876
  208MOL0     C27988   7.690   6.860   0.480 -0.3376  0.5880  0.5862
  208MOL0    Cl27989   7.671   6.800   0.307  0.1022 -0.0181 -0.8789
  208MOL0     C27990   8.238   6.046   0.719  0.1424 -0.0105 -0.2759
  208MOL0     C27991   8.285   5.950   0.813 -0.4477 -0.0356  0.5961
  208MOL0     O27992   8.524   5.943   1.020  0.5069  0.1964  0.4315
  208MOL0     C27993   8.602   5.814   1.266 -0.1022 -0.1551  0.1950
  208MOL0     C27994   8.643   5.717   1.365  0.0844 -1.1836 -0.4174
  208MOL0     N27995   8.673   4.890   1.173  0.7023 -0.5521  0.2322
  208MOL0     N27996   8.685   4.766   1.188 -0.0171 -0.4517  0.2578
  208MOL0     C27997   8.846   4.272   0.325 -0.4952  0.3935  0.5245
  208MOL0     C27998   8.722   4.269   0.265 -0.9192 -1.0539  0.1978
  208MOL0     C27999   8.333   4.316   0.053 -0.5998 -0.3211  0.0636
  208MOL0     C28000   8.254   4.397   0.129  0.3690  0.1148 -0.5968
  208MOL0     C28001   8.119   4.380   0.130 -1.5666  0.1339 -0.2613
  208MOL0     C28002   8.050   4.308   0.035  0.3123  0.1346  0.0410
  208MOL0     O28003   7.913   4.328   0.036 -0.1833 -0.8409  0.7435
  208MOL0     C28004   7.832   4.212   0.071  1.2796  0.2222  0.1959
  208MOL0     C28005   7.697   4.269   0.118  0.3581 -0.2424  0.6209
  208MOL0     C28006   7.606   4.154   0.174 -0.5514  0.0183  0.1108
  208MOL0     C28007   7.495   4.212   0.274  0.2820  0.5673 -0.2970
  208MOL0     C28008   7.416   4.304   0.192  0.1936  0.1314  0.2200
  208MOL0     C28009   7.348   4.363   0.111  0.4581  0.5249 -0.0439
  208MOL0     C28010   8.124   4.231  -0.053  0.8178 -0.6492 -0.1111
  208MOL0     C28011   8.269   4.232  -0.045 -0.0093  0.5804 -0.1492
  208MOL0     C28012   8.350   4.135  -0.135  0.9759  0.1730  0.0943
  208MOL0     H28013   8.666   4.599   0.236  0.7831 -0.7280 -1.3498
  208MOL0     H28014   8.898   4.599   0.312  3.1876 -2.0056 -2.6875
  208MOL0     H28015   9.170   4.444   0.547  0.4934  0.5791 -1.9232
  208MOL0     H28016   9.039   4.558   0.515  0.2913 -0.2288 -3.1483
  208MOL0     H28017   8.990   4.268   0.624  3.7084 -0.9585  0.2383
  208MOL0     H28018   8.887   4.406   0.629  0.2275  0.0016 -0.9078
  208MOL0     H28019   9.037   4.532   0.781  0.9003 -0.8450  0.7450
  208MOL0     H28020   9.144   4.395   0.779  0.4233 -0.0015 -0.9217
  208MOL0     H28021   8.855   4.364   0.885 -0.0431  0.8637  2.7747
  208MOL0     H28022   8.991   4.248   0.894  2.4731  1.0877  0.7374
  208MOL0     H28023   8.986   4.360   1.120  0.8803  2.1168  0.9232
  208MOL0     H28024   9.122   4.405   1.025 -0.3100  0.2612 -0.7065
  208MOL0     H28025   9.056   4.612   0.968  2.2520 -2.2204  1.4307
  208MOL0     H28026   8.878   4.595   0.996 -2.1199 -1.2601  2.8825
  208MOL0     H28027   9.054   4.731   1.143  3.9630 -1.8837 -0.7993
  208MOL0     H28028   9.094   4.578   1.211 -0.6480 -0.0894  0.1820
  208MOL0     H28029   8.835   4.537   1.240  1.0155 -0.5510  0.2660
  208MOL0     H28030   8.908   4.629   1.367 -2.1509  1.8070  0.9271
  208MOL0     H28031   8.938   4.905   1.356 -0.8974  1.7452  1.4949
  208MOL0     H28032   8.884   5.147   1.215  0.3582  0.9362  2.7354
  208MOL0     H28033   8.728   5.142   1.137  0.0723  2.8886  1.1480
  208MOL0     H28034   8.613   5.121   1.359  1.3142 -1.3793  2.3063
  208MOL0     H28035   8.766   5.130   1.434 -2.8762 -1.6569  1.2429
  208MOL0     H28036   8.663   5.361   1.237  0.5644  0.7018  0.8396
  208MOL0     H28037   8.805   5.352   1.335  1.2207 -0.1738  1.1112
  208MOL0     H28038   8.669   5.323   1.546 -1.6688  2.3830  2.3207
  208MOL0     H28039   8.522   5.329   1.458  0.2137  0.3866 -0.2920
  208MOL0     H28040   8.405   5.482   1.318  0.7867 -0.8864 -3.0042
  208MOL0     H28041   8.352   5.623   1.131 -0.4803  0.4064 -0.0309
  208MOL0     H28042   8.180   6.082   1.093 -1.2052 -0.8241 -0.2250
  208MOL0     H28043   8.084   6.256   0.943  2.4893 -0.5983  2.3285
  208MOL0     H28044   8.031   6.390   0.752 -3.0475  0.2680  0.9052
  208MOL0     H28045   7.990   6.387   0.583 -0.7902 -2.4747 -0.4420
  208MOL0     H28046   7.849   6.185   0.611  0.9587 -0.0208 -1.4434
  208MOL0     H28047   7.889   6.180   0.782  1.8920 -2.0709 -1.8204
  208MOL0     H28048   7.656   6.275   0.725 -1.5226  1.7341 -2.4379
  208MOL0     H28049   7.758   6.361   0.837 -1.5001  3.2381 -1.0362
  208MOL0     H28050   7.757   6.450   0.546  1.5427  0.8951  0.0383
  208MOL0     H28051   7.809   6.534   0.695 -0.5517 -0.2052  0.1739
  208MOL0     H28052   7.572   6.546   0.764 -5.8159 -1.0456 -0.4200
  208MOL0     H28053   7.520   6.449   0.630  0.3868 -0.1083  0.3671
  208MOL0     H28054   7.559   6.608   0.465  4.4923 -0.7350 -0.3857
  208MOL0     H28055   7.478   6.687   0.598 -0.6127 -0.0449 -0.3125
  208MOL0     H28056   7.784   6.697   0.574 -0.1788 -0.2552  1.0510
  208MOL0     H28057   7.700   6.798   0.680  4.0948  2.7676 -0.2745
  208MOL0     H28058   7.601   6.918   0.507  0.4468  2.3655 -0.4475
  208MOL0     H28059   7.777   6.921   0.504  0.5484 -0.8319  1.1222
  208MOL0     H28060   8.259   6.031   0.614 -0.3679 -4.3318  0.0718
  208MOL0     H28061   8.340   5.869   0.766 -1.7904 -0.1770 -0.8186
  208MOL0     H28062   8.646   5.913   1.257  1.8547 -1.1350 -2.0780
  208MOL0     H28063   8.730   5.748   1.422  0.4936 -0.2138 -1.5290
  208MOL0     H28064   8.894   4.177   0.349  0.1344  0.7256  0.5912
  208MOL0     H28065   8.677   4.174   0.240 -1.9596 -0.7531  0.8641
  208MOL0     H28066   8.295   4.461   0.207 -0.8394  0.0499  0.1112
  208MOL0     H28067   8.060   4.431   0.206 -1.2789  0.1525 -0.0496
  208MOL0     H28068   7.883   4.153   0.147  2.0561  0.3058 -0.2569
  208MOL0     H28069   7.813   4.144  -0.013  1.7742  1.8784 -1.3156
  208MOL0     H28070   7.641   4.313   0.034 -0.7169 -4.3688 -1.0450
  208MOL0     H28071   7.711   4.343   0.198 -0.5750  0.0449  0.5388
  208MOL0     H28072   7.666   4.082   0.231 -2.0068 -1.1608  0.2071
  208MOL0     H28073   7.566   4.100   0.087  2.4493 -2.2279 -0.0623
  208MOL0     H28074   7.445   4.135   0.331  2.4360  0.2354  1.2813
  208MOL0     H28075   7.539   4.277   0.350 -2.5362  0.5106  1.5076
  208MOL0     H28076   7.288   4.410   0.036  0.6483  0.7393 -0.0631
  208MOL0     H28077   8.071   4.180  -0.133  1.0899 -2.6996  0.9527
  208MOL0     H28078   8.284   4.103  -0.217 -0.6434  0.5413  1.1993
  208MOL0     H28079   8.427   4.184  -0.196  1.3372 -0.0612  0.3593
  208MOL0     H28080   8.383   4.055  -0.067 -1.1711 -1.2917 -0.4891
  209MOL0     O28081   4.345   6.337   4.854 -0.0991  0.8651  0.0537
  209MOL0     C28082   4.407   6.414   4.787 -0.6394 -1.1322 -0.1602
  209MOL0     O28083   4.491   6.497   4.845 -0.3732 -0.4297 -0.4054
  209MOL0     C28084   4.532   6.478   4.974 -0.2720  0.3675  0.1572
  209MOL0     C28085   4.482   6.561   5.075  0.2311  0.2681 -0.2727
  209MOL0     C28086   4.542   6.549   5.206  0.6821 -0.2792 -0.3976
  209MOL0     C28087   4.644   6.460   5.233  0.7776  0.6168  0.4983
  209MOL0     O28088   4.692   6.462   5.359  0.8749  0.5055 -0.5779
  209MOL0     C28089   4.803   6.375   5.396  0.3337 -0.2987 -0.2061
  209MOL0     C28090   4.831   6.384   5.548 -0.1779 -1.1717 -0.4265
  209MOL0     C28091   4.964   6.449   5.576  0.0261  1.1687 -0.2238
  209MOL0     C28092   4.984   6.594   5.545 -0.1006  0.2318 -0.4519
  209MOL0     C28093   5.100   6.655   5.622  0.3963  0.0557  0.1578
  209MOL0     C28094   5.156   6.756   5.519 -0.2368 -0.0908  0.4034
  209MOL0     C28095   5.248   6.852   5.602  0.1795 -0.3248  0.1002
  209MOL0     C28096   5.266   6.987   5.533  0.5771 -0.1415  0.7196
  209MOL0     N28097   5.313   7.090   5.618 -0.2680  0.6440 -0.3204
  209MOL0     C28098   5.451   7.102   5.647 -0.2316  0.0557  0.8358
  209MOL0     C28099   5.472   7.221   5.728  0.4803  0.7726 -0.0142
  209MOL0     C28100   5.604   7.273   5.775 -0.0070 -0.0923 -0.9404
  209MOL0     C28101   5.682   7.331   5.663 -0.4867  0.0071  0.2448
  209MOL0     C28102   5.819   7.394   5.704 -0.0264  0.1159 -0.5825
  209MOL0     C28103   5.916   7.406   5.584 -0.2605 -0.4894 -0.1320
  209MOL0     O28104   6.037   7.472   5.633 -0.4311 -0.2375  0.1603
  209MOL0     C28105   6.153   7.414   5.599 -0.6059  0.6322 -0.2356
  209MOL0     C28106   6.236   7.409   5.704  0.0458 -0.4112 -0.0860
  209MOL0     C28107   6.373   7.373   5.690  0.4451 -0.6041 -0.5488
  209MOL0     C28108   6.425   7.342   5.567 -0.6628  0.0441  0.8987
  209MOL0     C28109   6.567   7.311   5.559  0.6600 -0.9347  0.6292
  209MOL0     O28110   6.612   7.270   5.441  0.3294  0.5881  0.4031
  209MOL0     C28111   6.728   7.198   5.419  0.5760 -0.0814 -0.1003
  209MOL0     C28112   6.772   7.105   5.517 -0.2580  0.5977 -0.0575
  209MOL0     C28113   6.886   7.025   5.494 -0.0740  0.5799  0.3625
  209MOL0     C28114   6.964   7.034   5.375  0.0510  0.7829 -1.0112
  209MOL0     O28115   7.081   6.955   5.353 -0.4388  0.9610 -0.6381
  209MOL0     C28116   7.117   6.859   5.455  0.0686 -0.5813 -0.5934
  209MOL0     C28117   7.219   6.758   5.399 -0.7320 -0.2515 -0.2785
  209MOL0     C28118   7.168   6.647   5.311  0.6122 -0.1076 -0.0139
  209MOL0     C28119   7.273   6.541   5.290  0.3375  0.2932  0.2575
  209MOL0     C28120   7.251   6.419   5.188  0.1125  0.2488  0.2907
  209MOL0     C28121   7.349   6.299   5.211 -1.7473 -0.3850 -0.4242
  209MOL0     C28122   7.493   6.357   5.221  0.4261  0.1540 -0.1389
  209MOL0     C28123   7.588   6.229   5.229 -0.1320 -0.0727  0.9211
  209MOL0    Cl28124   7.573   6.149   5.385 -0.0230  0.1683 -0.8268
  209MOL0     C28125   6.923   7.123   5.281  0.7216  0.3013  0.6117
  209MOL0     C28126   6.806   7.205   5.301  0.5711 -0.0839 -0.2333
  209MOL0     O28127   6.640   7.324   5.656  1.1326  0.3181  0.3482
  209MOL0     C28128   6.332   7.336   5.460 -0.2458 -0.8405  0.1825
  209MOL0     C28129   6.202   7.369   5.477  0.5749 -0.0778 -0.4876
  209MOL0     N28130   5.349   7.283   5.722  0.0060 -0.4396 -0.0194
  209MOL0     N28131   5.257   7.214   5.660  0.6206  0.4276  0.0798
  209MOL0     C28132   4.694   6.385   5.127 -0.0630  0.0511 -0.3104
  209MOL0     C28133   4.641   6.390   4.996  0.7352  0.3821 -0.3115
  209MOL0     C28134   4.395   6.414   4.639 -0.7995  0.4340 -0.6574
  209MOL0     C28135   4.278   6.360   4.588 -0.5178 -0.3430 -0.6707
  209MOL0     C28136   4.262   6.354   4.451 -0.4251 -0.0932 -0.1853
  209MOL0     C28137   4.359   6.405   4.361 -0.2951  0.1057  0.4326
  209MOL0     O28138   4.314   6.406   4.232  0.9024 -0.2890 -0.1775
  209MOL0     C28139   4.407   6.411   4.130 -0.2136 -1.2847  0.1150
  209MOL0     C28140   4.442   6.564   4.113 -0.1261 -0.1169 -0.3645
  209MOL0     C28141   4.578   6.586   4.037  0.3797  0.2681 -1.2440
  209MOL0     C28142   4.602   6.737   4.013  0.4959  0.2393  0.5532
  209MOL0     C28143   4.650   6.820   4.122 -0.0986 -0.1695 -0.6425
  209MOL0     C28144   4.680   6.871   4.229  0.4373 -0.4178  0.4695
  209MOL0     C28145   4.484   6.443   4.416 -0.5562 -0.1675 -0.1295
  209MOL0     C28146   4.502   6.459   4.554  0.8171  0.0584  0.0011
  209MOL0     C28147   4.638   6.525   4.599  0.3939  1.1497  0.3708
  209MOL0     H28148   4.401   6.630   5.055  1.3681  1.5369 -0.6742
  209MOL0     H28149   4.488   6.598   5.287 -1.4699 -0.7067 -1.4839
  209MOL0     H28150   4.790   6.269   5.371 -0.0073 -0.8377  2.0431
  209MOL0     H28151   4.890   6.418   5.344  0.7210 -0.5653  0.2149
  209MOL0     H28152   4.835   6.279   5.581  2.3853 -2.1655 -3.3630
  209MOL0     H28153   4.761   6.438   5.612  3.1629 -0.5486  3.0753
  209MOL0     H28154   5.042   6.398   5.519 -0.7216 -2.0137  1.3439
  209MOL0     H28155   4.980   6.439   5.684 -1.5015  0.6739 -0.0193
  209MOL0     H28156   4.984   6.606   5.437  0.1118 -0.6033 -0.5528
  209MOL0     H28157   4.895   6.643   5.588 -1.6372 -3.6113  1.2245
  209MOL0     H28158   5.073   6.713   5.710  1.2448  0.9788 -0.1722
  209MOL0     H28159   5.178   6.580   5.644 -0.6315 -1.2590 -0.5330
  209MOL0     H28160   5.198   6.720   5.424 -2.9044  0.4989 -1.0918
  209MOL0     H28161   5.072   6.821   5.491 -1.9261 -1.7708  1.3490
  209MOL0     H28162   5.339   6.792   5.613  2.1974  2.3742 -0.7650
  209MOL0     H28163   5.209   6.873   5.702  1.2099 -0.4699  0.5385
  209MOL0     H28164   5.319   6.973   5.438 -2.1223  2.6312 -1.3981
  209MOL0     H28165   5.165   7.011   5.499  1.2541  2.0279  0.0771
  209MOL0     H28166   5.526   7.028   5.622 -2.6643 -2.6792  1.1402
  209MOL0     H28167   5.583   7.345   5.854  0.4166 -1.9472  0.9630
  209MOL0     H28168   5.661   7.191   5.820  4.7957  4.1197  1.6519
  209MOL0     H28169   5.699   7.250   5.593  1.0477  1.3319 -0.9977
  209MOL0     H28170   5.626   7.410   5.613  1.0552  0.8509 -0.2195
  209MOL0     H28171   5.871   7.323   5.769 -2.8291 -3.6236 -1.9987
  209MOL0     H28172   5.807   7.496   5.740 -1.8964  0.7424 -2.7514
  209MOL0     H28173   5.877   7.466   5.501 -0.5358 -0.7791 -0.2103
  209MOL0     H28174   5.943   7.308   5.546  2.1103  0.0637 -0.0508
  209MOL0     H28175   6.201   7.455   5.796 -0.0433  4.4923 -2.2685
  209MOL0     H28176   6.429   7.378   5.783 -3.2090 -2.4926  2.0104
  209MOL0     H28177   6.735   7.094   5.619 -0.8295 -2.6881 -0.5265
  209MOL0     H28178   6.917   6.951   5.567 -0.7317  1.0841  1.1699
  209MOL0     H28179   7.154   6.907   5.547 -1.9154 -0.8964  0.4249
  209MOL0     H28180   7.029   6.803   5.490 -1.2503  0.5572 -1.9630
  209MOL0     H28181   7.299   6.809   5.344 -0.4936  1.2578  1.3977
  209MOL0     H28182   7.273   6.719   5.485 -2.1649  0.8357  1.1744
  209MOL0     H28183   7.088   6.589   5.358 -0.3454  2.2998  1.5283
  209MOL0     H28184   7.138   6.687   5.214  4.2026  0.8132 -0.9220
  209MOL0     H28185   7.301   6.487   5.381  3.0281 -3.1082 -2.2769
  209MOL0     H28186   7.360   6.594   5.250 -0.0655  1.9603  1.5044
  209MOL0     H28187   7.229   6.452   5.086  0.4330 -0.3839  0.0084
  209MOL0     H28188   7.155   6.383   5.227  1.1360  0.2919  3.0739
  209MOL0     H28189   7.318   6.245   5.301 -1.9156  0.0705 -0.2035
  209MOL0     H28190   7.345   6.227   5.129  3.9349 -0.8107 -0.7609
  209MOL0     H28191   7.522   6.410   5.313 -1.0439  1.4940 -0.4277
  209MOL0     H28192   7.522   6.413   5.132  1.2810  2.6278  1.5982
  209MOL0     H28193   7.570   6.163   5.144  2.1538 -3.4299  2.8183
  209MOL0     H28194   7.692   6.260   5.213 -0.5685  0.5206 -1.0916
  209MOL0     H28195   6.984   7.125   5.191  0.0830  0.3207  0.1751
  209MOL0     H28196   6.775   7.260   5.213 -0.5832 -2.3998 -1.3486
  209MOL0     H28197   6.366   7.309   5.360 -0.2169 -2.3413  0.5675
  209MOL0     H28198   6.133   7.365   5.393  0.1860  1.8384 -0.3031
  209MOL0     H28199   4.767   6.308   5.148 -0.9332 -0.3124  1.5192
  209MOL0     H28200   4.679   6.322   4.920 -5.0296 -0.7120 -2.7409
  209MOL0     H28201   4.193   6.344   4.654 -0.9825 -1.4200 -1.5117
  209MOL0     H28202   4.168   6.320   4.411  1.0220 -2.3499 -1.9616
  209MOL0     H28203   4.370   6.374   4.034 -1.4263  3.4706 -1.5178
  209MOL0     H28204   4.500   6.357   4.151  0.4827  0.5860  2.2070
  209MOL0     H28205   4.450   6.619   4.207 -0.3263 -1.0622  0.2179
  209MOL0     H28206   4.364   6.613   4.054  1.4244  1.0858 -1.5171
  209MOL0     H28207   4.576   6.530   3.943  1.8481 -2.8306  0.4329
  209MOL0     H28208   4.658   6.536   4.092  0.9501 -0.8838 -3.0341
  209MOL0     H28209   4.685   6.747   3.942  1.3745 -1.7788  1.2389
  209MOL0     H28210   4.512   6.785   3.974 -1.2982 -1.3108  2.5381
  209MOL0     H28211   4.705   6.921   4.320  0.0819 -2.9053  2.0342
  209MOL0     H28212   4.560   6.467   4.343 -0.1138 -0.3294  0.2795
  209MOL0     H28213   4.623   6.616   4.657  0.0123  2.4233 -1.5999
  209MOL0     H28214   4.701   6.452   4.651  0.0242  0.4680 -0.1205
  209MOL0     H28215   4.692   6.548   4.506  0.9772  1.2673  0.7357
  210MOL0     O28216  10.064   0.937  10.369 -0.4094  0.8406 -0.1460
  210MOL0     C28217  10.049   1.059  10.345  0.3363 -0.2290 -0.0134
  210MOL0     O28218   9.956   1.099  10.260 -0.4305 -0.6192 -0.0431
  210MOL0     C28219   9.877   1.006  10.205  0.1823  0.2254 -0.0950
  210MOL0     C28220   9.903   0.963  10.066 -0.4971 -0.0880  0.1058
  210MOL0     C28221   9.818   0.876   9.995  0.1545 -0.7092  0.1479
  210MOL0     C28222   9.706   0.819  10.053 -0.4859 -0.4770  0.1457
  210MOL0     O28223   9.632   0.722   9.986 -0.4838  0.8077  0.1606
  210MOL0     C28224   9.523   0.668  10.048 -0.0680  0.1801 -0.6411
  210MOL0     C28225   9.437   0.603   9.940  1.0949 -0.0657  0.9192
  210MOL0     C28226   9.504   0.477   9.874 -0.4029  0.4101  0.0019
  210MOL0     C28227   9.397   0.401   9.781 -0.5204 -0.6987 -0.2070
  210MOL0     C28228   9.445   0.256   9.734 -0.3986  0.2999 -0.4574
  210MOL0     C28229   9.412   0.150   9.837  0.2749  0.5289  0.5371
  210MOL0     C28230   9.448   0.013   9.786 -0.6484  0.1185 -0.4811
  210MOL0     C28231   9.356  -0.102   9.839  0.5627  0.5248 -0.3682
  210MOL0     N28232   9.396  -0.224   9.768  1.2487 -0.4708 -1.1750
  210MOL0     C28233   9.449  -0.337   9.830 -1.2265 -0.4598  0.0445
  210MOL0     C28234   9.441  -0.439   9.742  0.0554 -0.0507  0.2962
  210MOL0     C28235   9.503  -0.573   9.776  0.3073  0.3741 -0.5334
  210MOL0     C28236   9.406  -0.688   9.820 -0.0920  1.0590  0.4128
  210MOL0     C28237   9.340  -0.662   9.957 -0.3179 -0.1885  0.0419
  210MOL0     C28238   9.228  -0.762   9.971 -0.2476  0.0824  0.4345
  210MOL0     O28239   9.273  -0.888  10.021 -0.2496  0.5244 -0.3786
  210MOL0     C28240   9.197  -1.001  10.007  0.2431 -0.0936  0.0684
  210MOL0     C28241   9.217  -1.121  10.080  0.1797 -0.3120  0.0316
  210MOL0     C28242   9.137  -1.236  10.069 -0.3957 -0.1369 -0.2208
  210MOL0     C28243   9.042  -1.242   9.963  0.4813 -0.9744  0.0865
  210MOL0     C28244   8.959  -1.356   9.931  0.3259  0.0674  0.4219
  210MOL0     O28245   8.974  -1.454  10.030  0.0792 -0.2615  0.2065
  210MOL0     C28246   8.937  -1.586  10.006  0.6089 -0.2781 -0.4821
  210MOL0     C28247   8.924  -1.652   9.885  0.2600  0.0447 -0.3660
  210MOL0     C28248   8.872  -1.781   9.879 -0.4711 -0.7024 -0.0775
  210MOL0     C28249   8.844  -1.849   9.999  0.0289  0.1551  0.7538
  210MOL0     O28250   8.795  -1.980   9.988 -0.4083 -0.4024  0.5570
  210MOL0     C28251   8.839  -2.079  10.089  0.7063  0.4386 -0.2424
  210MOL0     C28252   8.820  -2.225  10.030 -0.0404 -0.2536 -0.3485
  210MOL0     C28253   8.675  -2.254   9.998  0.0093 -0.1184  0.2145
  210MOL0     C28254   8.668  -2.404   9.961  0.6331 -0.7567  0.1264
  210MOL0     C28255   8.520  -2.449   9.969  0.1818 -0.0088  0.2398
  210MOL0     C28256   8.502  -2.588   9.916 -0.6617  0.4029  0.3507
  210MOL0     C28257   8.363  -2.650   9.948  0.5610 -0.0915  0.0325
  210MOL0     C28258   8.340  -2.788   9.893 -0.3289 -1.0176  1.0877
  210MOL0    Cl28259   8.168  -2.829   9.905 -0.2473 -0.0259  0.0964
  210MOL0     C28260   8.869  -1.788  10.122 -0.2514  0.3647 -0.3120
  210MOL0     C28261   8.912  -1.655  10.122  0.3510  0.2139  0.1470
  210MOL0     O28262   8.876  -1.349   9.842 -0.1186 -0.4700  0.0517
  210MOL0     C28263   9.027  -1.124   9.888 -0.5049  1.6358  0.2298
  210MOL0     C28264   9.097  -1.010   9.906  0.0904  0.0524  0.5027
  210MOL0     N28265   9.362  -0.388   9.630  0.4954  0.6300  0.2011
  210MOL0     N28266   9.344  -0.263   9.651 -0.0823 -0.1027  0.5916
  210MOL0     C28267   9.676   0.864  10.192  0.0452 -0.1032 -0.0641
  210MOL0     C28268   9.761   0.953  10.256  0.2335 -0.3691 -0.1223
  210MOL0     C28269  10.115   1.147  10.443 -0.2392  0.7039 -1.1382
  210MOL0     C28270  10.055   1.268  10.480 -0.4213  0.1377  0.3707
  210MOL0     C28271  10.118   1.359  10.560 -0.5120  0.8667 -0.8094
  210MOL0     C28272  10.232   1.338  10.630 -0.1146  0.3216 -0.0582
  210MOL0     O28273  10.274   1.442  10.708  0.4941 -0.4290 -0.1470
  210MOL0     C28274  10.413   1.466  10.700  1.2622  0.4462 -0.4571
  210MOL0     C28275  10.476   1.491  10.562  0.1553 -0.2797  0.2510
  210MOL0     C28276  10.384   1.580  10.476  0.0465  0.2683  0.7370
  210MOL0     C28277  10.345   1.717  10.530  0.8029 -0.1990 -0.2925
  210MOL0     C28278  10.454   1.806  10.576  0.1873  0.6279  0.4270
  210MOL0     C28279  10.542   1.888  10.605 -0.5503  0.1768 -0.1967
  210MOL0     C28280  10.303   1.217  10.599  0.6320 -0.0820  0.5273
  210MOL0     C28281  10.239   1.121  10.511  0.4058 -0.9365  1.2207
  210MOL0     C28282  10.303   0.987  10.496  0.2468  0.3880 -1.0473
  210MOL0     H28283   9.993   1.002  10.019 -1.4966  0.9801 -0.9872
  210MOL0     H28284   9.841   0.835   9.897  0.6056 -0.4777  0.1516
  210MOL0     H28285   9.546   0.593  10.124  0.9898  3.0054  2.0508
  210MOL0     H28286   9.459   0.745  10.092 -0.5673  2.1644 -4.3957
  210MOL0     H28287   9.404   0.675   9.864 -1.0244 -1.6604  0.2278
  210MOL0     H28288   9.344   0.569   9.987  0.9772 -0.2068  0.5894
  210MOL0     H28289   9.550   0.408   9.946 -1.5065 -1.9874 -1.4628
  210MOL0     H28290   9.587   0.513   9.813 -0.6965  2.2394  0.6144
  210MOL0     H28291   9.298   0.394   9.828  0.4033  1.0746  2.1764
  210MOL0     H28292   9.393   0.470   9.695  0.5449  1.2805  1.2636
  210MOL0     H28293   9.392   0.237   9.640  0.3310  2.0604 -1.2728
  210MOL0     H28294   9.552   0.251   9.708 -0.6380 -1.3528 -1.2039
  210MOL0     H28295   9.468   0.169   9.929  1.0305  1.9138 -0.1842
  210MOL0     H28296   9.305   0.157   9.859  0.5026 -0.1127  1.9554
  210MOL0     H28297   9.550  -0.014   9.814 -1.2235 -3.1221 -1.0437
  210MOL0     H28298   9.429   0.008   9.678 -2.8482 -0.6150 -0.0986
  210MOL0     H28299   9.375  -0.110   9.946  0.2221  0.0886 -0.3349
  210MOL0     H28300   9.250  -0.082   9.817 -0.5032 -0.0126  3.5830
  210MOL0     H28301   9.506  -0.336   9.922  0.5255  1.8941 -0.9579
  210MOL0     H28302   9.564  -0.597   9.689 -0.5480 -1.3776 -0.6990
  210MOL0     H28303   9.575  -0.557   9.857  0.0921  0.1850 -0.3038
  210MOL0     H28304   9.329  -0.693   9.742 -2.0377 -2.1111  2.3143
  210MOL0     H28305   9.458  -0.785   9.815 -3.0726 -0.6158 -1.0742
  210MOL0     H28306   9.297  -0.561   9.961 -3.8430 -1.5439 -0.3010
  210MOL0     H28307   9.414  -0.668  10.037  0.1266 -2.7578 -0.4774
  210MOL0     H28308   9.187  -0.767   9.870  0.1992 -0.5629  0.2768
  210MOL0     H28309   9.151  -0.716  10.035  0.3078  1.3798  0.2021
  210MOL0     H28310   9.292  -1.122  10.159  2.5944 -1.5854 -2.1350
  210MOL0     H28311   9.147  -1.328  10.126  0.9177  0.4844  0.6221
  210MOL0     H28312   8.961  -1.592   9.803 -0.3175  0.0222 -0.6476
  210MOL0     H28313   8.856  -1.831   9.784 -1.9067  0.4542 -0.4875
  210MOL0     H28314   8.947  -2.074  10.103  0.5158  1.3309  1.1954
  210MOL0     H28315   8.797  -2.061  10.189 -1.0325  2.4647 -1.2528
  210MOL0     H28316   8.885  -2.226   9.941  2.8682  1.5012  1.5830
  210MOL0     H28317   8.858  -2.304  10.096 -1.5702  0.0673  0.9555
  210MOL0     H28318   8.630  -2.232  10.096  0.9144 -1.2902  0.9122
  210MOL0     H28319   8.634  -2.195   9.915 -0.2551 -1.0020 -0.2902
  210MOL0     H28320   8.733  -2.474  10.015  1.3309 -1.8584 -2.0379
  210MOL0     H28321   8.694  -2.408   9.855  0.3418 -0.1047  0.0284
  210MOL0     H28322   8.448  -2.379   9.926 -0.9760  1.0400  3.5661
  210MOL0     H28323   8.503  -2.444  10.077  1.1253  3.9365  0.3520
  210MOL0     H28324   8.526  -2.580   9.810  1.9077  2.5460  0.9865
  210MOL0     H28325   8.572  -2.657   9.964 -0.1204  0.8083  0.1432
  210MOL0     H28326   8.288  -2.585   9.902  0.0237  0.6160  1.8194
  210MOL0     H28327   8.328  -2.639  10.051  1.5914 -0.9708  0.4954
  210MOL0     H28328   8.374  -2.790   9.789 -3.0264 -1.4492  0.1294
  210MOL0     H28329   8.387  -2.863   9.957 -1.9572  1.0078  4.9944
  210MOL0     H28330   8.852  -1.842  10.215  0.8590 -3.5315 -2.1396
  210MOL0     H28331   8.925  -1.624  10.225 -3.8355 -0.3079  1.0150
  210MOL0     H28332   8.961  -1.137   9.803  0.1273 -0.3826 -0.0318
  210MOL0     H28333   9.069  -0.937   9.831 -0.2961 -0.3234  0.2716
  210MOL0     H28334   9.583   0.836  10.242 -0.4851  1.5177 -0.0694
  210MOL0     H28335   9.727   0.988  10.353  0.0814 -5.6647  2.0577
  210MOL0     H28336   9.952   1.280  10.449 -0.8776 -0.4983  1.5992
  210MOL0     H28337  10.074   1.458  10.567 -1.0628  0.5006  2.4187
  210MOL0     H28338  10.474   1.386  10.741 -0.9734  0.8027  4.1424
  210MOL0     H28339  10.427   1.564  10.748 -0.6631  0.7959 -0.5440
  210MOL0     H28340  10.495   1.391  10.520 -4.4574 -0.4759 -2.0524
  210MOL0     H28341  10.569   1.548  10.573 -0.0858  1.3400 -4.0117
  210MOL0     H28342  10.300   1.529  10.428  0.5365  1.0226 -0.9862
  210MOL0     H28343  10.433   1.596  10.380 -4.6904  0.6413 -1.9181
  210MOL0     H28344  10.289   1.776  10.458 -1.8750 -0.4904  1.4181
  210MOL0     H28345  10.272   1.708  10.611  0.8976 -1.4415 -0.3214
  210MOL0     H28346  10.612   1.969  10.616 -1.8537  1.5551 -1.5596
  210MOL0     H28347  10.394   1.194  10.654 -0.1762 -0.3332  1.7683
  210MOL0     H28348  10.397   1.005  10.548 -0.4471  2.0075 -0.2905
  210MOL0     H28349  10.237   0.909  10.536  0.6178  1.5317  2.0544
  210MOL0     H28350  10.316   0.963  10.390 -0.5513 -1.2083 -0.8128
  211MOL0     O28351   1.668  11.113  10.622  0.2132 -0.6591  0.4380
  211MOL0     C28352   1.649  11.209  10.694  0.3729  0.6303  0.3395
  211MOL0     O28353   1.668  11.207  10.828 -0.1196 -0.2436  0.1385
  211MOL0     C28354   1.678  11.085  10.904 -0.4505 -0.7075  0.2493
  211MOL0     C28355   1.600  10.970  10.881 -0.5738 -0.0526 -0.0287
  211MOL0     C28356   1.601  10.863  10.967  0.3629  0.5236 -1.0024
  211MOL0     C28357   1.705  10.860  11.060 -0.2799  0.9595  0.1865
  211MOL0     O28358   1.715  10.735  11.124 -1.0921 -0.2679  0.5319
  211MOL0     C28359   1.821  10.716  11.221 -0.1021  0.1877 -0.2740
  211MOL0     C28360   1.832  10.560  11.255  0.4832  0.4875  0.0824
  211MOL0     C28361   1.865  10.465  11.148 -0.5171  0.1464  0.4760
  211MOL0     C28362   1.906  10.332  11.198  0.0449  0.8633 -0.9664
  211MOL0     C28363   1.896  10.210  11.092  0.0119 -0.0888 -0.8269
  211MOL0     C28364   1.878  10.082  11.171 -0.4561  0.5888 -0.3640
  211MOL0     C28365   2.004  10.053  11.258 -0.4035  0.2462 -0.0734
  211MOL0     C28366   1.988   9.903  11.287  0.2356 -0.1868 -0.5638
  211MOL0     N28367   2.113   9.845  11.351 -0.0422 -0.1529 -0.3914
  211MOL0     C28368   2.256   9.870  11.321 -0.7620  0.2960  0.1666
  211MOL0     C28369   2.317   9.794  11.418  0.5900 -0.0449  0.1394
  211MOL0     C28370   2.464   9.750  11.436 -0.2721 -0.1771  1.3841
  211MOL0     C28371   2.468   9.599  11.438  0.7418 -1.1577 -0.3793
  211MOL0     C28372   2.606   9.541  11.398 -0.0662 -0.6136 -0.8260
  211MOL0     C28373   2.596   9.390  11.377  0.5790 -0.6589 -1.0811
  211MOL0     O28374   2.722   9.344  11.338 -0.8106 -0.4609 -0.0091
  211MOL0     C28375   2.795   9.247  11.408 -0.4758  0.1824  0.8177
  211MOL0     C28376   2.749   9.152  11.496 -0.4068  0.6256  1.4276
  211MOL0     C28377   2.829   9.047  11.536 -0.2881  0.3592 -0.8440
  211MOL0     C28378   2.967   9.044  11.505  0.7064 -0.2704  0.6742
  211MOL0     C28379   3.055   8.930  11.555  0.2428 -0.0540 -0.5581
  211MOL0     O28380   3.183   8.922  11.506  0.0532 -0.3580  0.2206
  211MOL0     C28381   3.285   8.844  11.566 -0.6328 -0.2719 -0.3514
  211MOL0     C28382   3.369   8.761  11.493  0.3629 -0.1209 -0.1871
  211MOL0     C28383   3.466   8.690  11.562  0.3821 -0.2105  0.5270
  211MOL0     C28384   3.494   8.699  11.702  0.2839  1.1265 -0.1909
  211MOL0     O28385   3.592   8.641  11.776  0.2825  0.9933 -0.8874
  211MOL0     C28386   3.679   8.549  11.714 -0.5935 -0.9239  0.1180
  211MOL0     C28387   3.794   8.539  11.809 -0.1095  0.2731  0.4254
  211MOL0     C28388   3.899   8.440  11.746  0.0419 -1.1850  0.9497
  211MOL0     C28389   4.030   8.442  11.820 -0.3212  0.4149 -0.0647
  211MOL0     C28390   4.119   8.325  11.776  0.1445 -0.1460  0.0164
  211MOL0     C28391   4.267   8.334  11.823  0.7252 -0.3038  0.4849
  211MOL0     C28392   4.282   8.360  11.974  0.0779 -0.9376 -0.2010
  211MOL0     C28393   4.433   8.353  12.016  0.3441  0.3941  0.2154
  211MOL0    Cl28394   4.502   8.509  11.978 -0.0055 -0.3099  0.1227
  211MOL0     C28395   3.399   8.782  11.779  0.0085  0.8652  0.8861
  211MOL0     C28396   3.294   8.846  11.709 -0.5235 -0.5411 -0.1362
  211MOL0     O28397   3.014   8.851  11.635  0.6922  0.1290 -0.0833
  211MOL0     C28398   3.017   9.143  11.421 -0.3433 -0.3980  0.4597
  211MOL0     C28399   2.936   9.243  11.382  0.8575  0.1027 -0.3749
  211MOL0     N28400   2.224   9.746  11.514 -0.3616 -0.8121 -0.7278
  211MOL0     N28401   2.113   9.769  11.466  0.4471 -0.0046  0.9354
  211MOL0     C28402   1.785  10.965  11.089  0.0561 -0.4132  0.6931
  211MOL0     C28403   1.770  11.086  11.016  0.7686  0.5240  0.1391
  211MOL0     C28404   1.574  11.338  10.637 -0.8454 -0.1293  0.8447
  211MOL0     C28405   1.547  11.444  10.724  0.1635  0.1906  0.0236
  211MOL0     C28406   1.475  11.560  10.676 -0.3359  1.1261 -0.5720
  211MOL0     C28407   1.439  11.567  10.542  1.0965 -0.3461  0.4507
  211MOL0     O28408   1.385  11.681  10.481 -0.3058  0.4099 -1.2246
  211MOL0     C28409   1.474  11.801  10.476 -0.3650 -0.4970  0.6541
  211MOL0     C28410   1.395  11.929  10.450 -0.2366  0.5013  1.0114
  211MOL0     C28411   1.319  11.937  10.316  0.2172  0.5669 -0.0839
  211MOL0     C28412   1.217  12.041  10.334  0.5089 -1.2257  0.2347
  211MOL0     C28413   1.163  12.096  10.213  0.7825 -0.4610 -0.1081
  211MOL0     C28414   1.111  12.160  10.119 -0.6113 -0.0065  0.2649
  211MOL0     C28415   1.466  11.460  10.457 -0.3848 -1.3075  0.1479
  211MOL0     C28416   1.540  11.353  10.501  0.3974  0.5531 -0.9132
  211MOL0     C28417   1.574  11.261  10.392  0.2503  0.0515 -0.0348
  211MOL0     H28418   1.522  10.983  10.806  0.1301  3.0991 -0.3322
  211MOL0     H28419   1.537  10.777  10.951  2.1508 -1.1142  0.1032
  211MOL0     H28420   1.916  10.753  11.183 -0.7829  3.6338  1.0114
  211MOL0     H28421   1.807  10.770  11.315  1.1433 -1.4151  0.8884
  211MOL0     H28422   1.739  10.528  11.303 -0.2203  0.5071 -1.2045
  211MOL0     H28423   1.910  10.547  11.330 -0.0191 -1.4891  0.2931
  211MOL0     H28424   1.941  10.499  11.078 -0.1830  2.1681  1.7306
  211MOL0     H28425   1.774  10.447  11.090 -0.0928 -3.3989  0.7085
  211MOL0     H28426   2.010  10.333  11.230  0.6301  0.1611 -2.7342
  211MOL0     H28427   1.843  10.299  11.282 -1.1443 -3.2964 -3.2014
  211MOL0     H28428   1.810  10.233  11.028 -1.3076 -0.1357  0.8747
  211MOL0     H28429   1.987  10.203  11.032  2.2345  0.6857  2.2566
  211MOL0     H28430   1.790  10.088  11.236  0.2805 -0.6916  0.7664
  211MOL0     H28431   1.846   9.999  11.107 -1.7052  1.6717 -1.2076
  211MOL0     H28432   2.010  10.107  11.353  1.1340 -3.4414  2.1223
  211MOL0     H28433   2.096  10.076  11.205  0.8783 -2.1149  0.9919
  211MOL0     H28434   1.905   9.893  11.358 -0.1020  2.7892 -0.4032
  211MOL0     H28435   1.973   9.846  11.195 -2.4351 -0.8417  0.1751
  211MOL0     H28436   2.304   9.932  11.247 -1.7724  2.0009  0.8900
  211MOL0     H28437   2.527   9.777  11.351  0.3929  0.1301  1.9630
  211MOL0     H28438   2.502   9.787  11.532 -0.3500 -1.3186  1.8674
  211MOL0     H28439   2.449   9.575  11.543  1.4571  0.3303  0.1075
  211MOL0     H28440   2.388   9.556  11.376 -1.5887  2.2533  0.0174
  211MOL0     H28441   2.682   9.566  11.472 -0.1913  2.9277 -1.7292
  211MOL0     H28442   2.646   9.588  11.308  3.9947 -0.4094  0.8934
  211MOL0     H28443   2.517   9.358  11.308 -3.5715  2.2723  1.8024
  211MOL0     H28444   2.566   9.355  11.476 -2.9613  1.2977 -1.2935
  211MOL0     H28445   2.652   9.165  11.542 -0.0225  4.1385  1.5560
  211MOL0     H28446   2.790   8.964  11.593  3.4165  0.2303  1.8554
  211MOL0     H28447   3.361   8.753  11.385  0.9546 -2.1865 -0.1348
  211MOL0     H28448   3.529   8.617  11.511  1.8786  0.3487  1.5096
  211MOL0     H28449   3.622   8.463  11.678 -1.9769  0.4388 -1.0883
  211MOL0     H28450   3.723   8.593  11.625  0.8897 -0.8459  0.8636
  211MOL0     H28451   3.836   8.639  11.823  0.3168  0.1113  0.3196
  211MOL0     H28452   3.751   8.509  11.906 -1.6091  3.4903  0.8696
  211MOL0     H28453   3.868   8.335  11.747  2.3253 -1.9228  0.8581
  211MOL0     H28454   3.926   8.477  11.646  0.0982  3.1282  2.3504
  211MOL0     H28455   4.003   8.442  11.926 -0.6482 -0.3120 -0.1389
  211MOL0     H28456   4.086   8.535  11.810 -0.7186  0.5578 -1.0112
  211MOL0     H28457   4.120   8.321  11.667 -0.5021 -1.7228  0.0484
  211MOL0     H28458   4.077   8.233  11.816  0.8686 -0.2003  0.6872
  211MOL0     H28459   4.303   8.233  11.800 -0.3427 -0.7037  0.5047
  211MOL0     H28460   4.329   8.402  11.764 -0.1427  0.6862  0.6802
  211MOL0     H28461   4.237   8.283  12.039  3.4999 -3.4251 -0.4993
  211MOL0     H28462   4.261   8.459  12.015  4.7648  0.4327 -0.5613
  211MOL0     H28463   4.437   8.336  12.124  0.6415 -0.9278  0.0084
  211MOL0     H28464   4.476   8.269  11.960  1.6397  2.5656 -2.2661
  211MOL0     H28465   3.405   8.803  11.885 -2.4624 -0.3098  1.3393
  211MOL0     H28466   3.222   8.898  11.771 -0.8209 -1.1264  0.0152
  211MOL0     H28467   3.124   9.152  11.409 -0.0522  0.8524  3.0633
  211MOL0     H28468   2.987   9.308  11.311  2.1758 -2.6436 -2.1323
  211MOL0     H28469   1.856  10.971  11.171  0.5519 -2.6848  0.4935
  211MOL0     H28470   1.827  11.178  11.024  0.0750  0.8289  2.2373
  211MOL0     H28471   1.574  11.448  10.829 -1.9468  0.1534  0.6280
  211MOL0     H28472   1.463  11.646  10.740 -0.3452 -0.0985  1.1324
  211MOL0     H28473   1.546  11.795  10.394 -0.9431 -2.2983  0.2237
  211MOL0     H28474   1.534  11.806  10.567 -0.3064 -2.5156  0.7696
  211MOL0     H28475   1.456  12.018  10.471 -1.7409  1.2835  2.2513
  211MOL0     H28476   1.310  11.939  10.517 -1.6605 -1.7045 -0.3455
  211MOL0     H28477   1.259  11.846  10.307 -1.9567  1.9600 -0.7391
  211MOL0     H28478   1.389  11.947  10.233  1.1672  0.6423  0.7064
  211MOL0     H28479   1.133  11.998  10.390 -1.6392  1.7537 -0.4254
  211MOL0     H28480   1.245  12.126  10.396 -1.3095  0.5255 -1.2100
  211MOL0     H28481   1.054  12.203  10.039  0.7962  0.1186 -0.7085
  211MOL0     H28482   1.421  11.462  10.359 -0.1107  1.1899  0.0081
  211MOL0     H28483   1.681  11.238  10.389  0.0169 -1.0256 -2.3618
  211MOL0     H28484   1.522  11.167  10.412 -1.0060  0.5031 -1.0625
  211MOL0     H28485   1.535  11.306  10.301 -2.4567 -0.1662  0.9271
  212MOL0     O28486  10.784   3.460  11.079  0.2506 -1.8279  0.1835
  212MOL0     C28487  10.664   3.432  11.095 -0.1459 -0.3298 -0.6486
  212MOL0     O28488  10.579   3.517  11.160 -0.0265 -0.3725  1.0057
  212MOL0     C28489  10.630   3.633  11.206 -0.7845 -0.4568 -1.3638
  212MOL0     C28490  10.650   3.740  11.124 -0.5283 -0.0521 -0.3716
  212MOL0     C28491  10.698   3.858  11.166  0.0519 -1.1098  0.2393
  212MOL0     C28492  10.738   3.887  11.302 -0.6165 -0.0604  0.1436
  212MOL0     O28493  10.793   3.995  11.362 -0.3872 -0.4347 -0.3512
  212MOL0     C28494  10.854   4.083  11.275  0.2162 -0.0236 -0.1134
  212MOL0     C28495  10.893   4.206  11.360  0.6661  0.2116  0.0168
  212MOL0     C28496  10.770   4.257  11.449 -0.1055  0.2155  0.3598
  212MOL0     C28497  10.686   4.349  11.365 -0.3832  0.8952 -0.3163
  212MOL0     C28498  10.745   4.491  11.331  0.6103 -0.6286  0.0114
  212MOL0     C28499  10.760   4.583  11.463  0.1989  0.1496  1.1736
  212MOL0     C28500  10.791   4.722  11.426 -0.4360 -0.9360 -0.1462
  212MOL0     C28501  10.886   4.794  11.529  1.6890  0.5298  0.3793
  212MOL0     N28502  10.814   4.838  11.651  0.0546  0.9116  0.1694
  212MOL0     C28503  10.840   4.799  11.783  0.7814  0.5652  0.0831
  212MOL0     C28504  10.733   4.855  11.854  0.3527  0.0659 -0.0976
  212MOL0     C28505  10.722   4.872  12.000  0.2702  0.1852 -1.2414
  212MOL0     C28506  10.607   4.778  12.063 -0.1464 -0.4242 -0.0724
  212MOL0     C28507  10.669   4.635  12.086  0.4243 -0.3517 -0.0892
  212MOL0     C28508  10.565   4.526  12.132 -0.3604 -0.2782 -0.2270
  212MOL0     O28509  10.463   4.577  12.227 -0.2463 -0.4933 -0.1992
  212MOL0     C28510  10.394   4.489  12.297 -0.8725 -0.3324  0.3337
  212MOL0     C28511  10.352   4.532  12.426 -0.5569  0.5652  1.1249
  212MOL0     C28512  10.287   4.439  12.506  0.6999  0.1929 -0.0394
  212MOL0     C28513  10.279   4.301  12.468 -0.0524 -0.6100 -0.5496
  212MOL0     C28514  10.235   4.206  12.568 -0.4137 -0.1760 -0.2492
  212MOL0     O28515  10.214   4.082  12.524  0.8085  0.3950 -0.7273
  212MOL0     C28516  10.163   3.981  12.604 -1.1666 -1.7564  0.0029
  212MOL0     C28517  10.256   3.882  12.628  0.7301  0.8259  0.6344
  212MOL0     C28518  10.225   3.771  12.713  0.7620 -0.4632  0.2014
  212MOL0     C28519  10.091   3.772  12.766 -0.7110  0.4542  0.5566
  212MOL0     O28520  10.051   3.666  12.833  0.0611  0.5676 -0.7095
  212MOL0     C28521  10.039   3.541  12.761 -0.7071 -0.1709  0.0867
  212MOL0     C28522  10.083   3.424  12.852 -0.0171 -0.3175 -0.3883
  212MOL0     C28523  10.235   3.405  12.867 -1.6681  0.3872 -1.2444
  212MOL0     C28524  10.271   3.276  12.939  0.5895  0.0060 -0.0917
  212MOL0     C28525  10.413   3.260  12.981  1.2179  0.4111 -0.2385
  212MOL0     C28526  10.448   3.114  13.021  0.8939 -0.6730  0.2423
  212MOL0     C28527  10.584   3.098  13.088  0.1081 -0.0178  0.9023
  212MOL0     C28528  10.695   3.139  12.982  0.7340 -0.7788  0.3295
  212MOL0    Cl28529  10.849   3.075  13.048  0.2008 -0.4088 -0.2691
  212MOL0     C28530  10.005   3.877  12.744 -0.8813 -1.5867 -0.6826
  212MOL0     C28531  10.039   3.980  12.659  0.1705 -0.5135 -0.9829
  212MOL0     O28532  10.202   4.256  12.678  0.3758  0.8128 -0.0975
  212MOL0     C28533  10.331   4.257  12.341  0.7755  0.0571 -0.3111
  212MOL0     C28534  10.381   4.356  12.257 -0.1065  0.1817 -1.4509
  212MOL0     N28535  10.637   4.914  11.765 -0.8064 -0.6340 -0.3379
  212MOL0     N28536  10.704   4.909  11.646  0.0325 -0.9598  0.4119
  212MOL0     C28537  10.738   3.773  11.387 -0.4679  0.4202  0.1523
  212MOL0     C28538  10.685   3.645  11.338  0.1413  0.0424 -1.4135
  212MOL0     C28539  10.605   3.307  11.059 -0.2952 -0.5351 -0.0190
  212MOL0     C28540  10.496   3.256  11.136  0.5690 -0.4948  0.6659
  212MOL0     C28541  10.456   3.121  11.116  0.4902  0.3871 -0.1961
  212MOL0     C28542  10.498   3.044  11.001 -0.1301  0.3768 -0.3666
  212MOL0     O28543  10.462   2.912  10.968  0.3906  0.1494 -0.0737
  212MOL0     C28544  10.344   2.854  11.037  0.1790 -0.9803  0.7514
  212MOL0     C28545  10.227   2.879  10.940 -0.3832 -1.3584  0.1119
  212MOL0     C28546  10.144   2.753  10.915  0.2492 -0.9067 -0.4850
  212MOL0     C28547  10.061   2.706  11.027  0.1384 -0.3224  0.3965
  212MOL0     C28548   9.928   2.679  10.975 -0.9478  0.3048 -0.0499
  212MOL0     C28549   9.821   2.646  10.913 -0.4049 -0.3146 -0.0143
  212MOL0     C28550  10.598   3.103  10.922  1.2607  0.2441 -0.6310
  212MOL0     C28551  10.648   3.234  10.946 -0.7467 -1.3803 -0.3996
  212MOL0     C28552  10.764   3.286  10.853 -0.5959  0.4546 -0.4042
  212MOL0     H28553  10.625   3.728  11.019 -3.1735 -0.8196  0.2674
  212MOL0     H28554  10.702   3.941  11.096 -0.8080 -0.9333  0.3904
  212MOL0     H28555  10.935   4.024  11.231 -0.8399 -1.7927  0.2485
  212MOL0     H28556  10.781   4.108  11.198 -1.9599 -1.1790  1.4677
  212MOL0     H28557  10.926   4.283  11.289  1.8346 -0.3139 -0.0408
  212MOL0     H28558  10.979   4.171  11.417 -0.2887 -1.9123  0.2213
  212MOL0     H28559  10.804   4.312  11.537 -2.0749  0.8467  0.7746
  212MOL0     H28560  10.713   4.172  11.489  0.3393 -0.2161  0.0934
  212MOL0     H28561  10.673   4.284  11.277  0.3212  0.2349  0.0612
  212MOL0     H28562  10.591   4.354  11.420 -0.0799  2.7812  0.0968
  212MOL0     H28563  10.844   4.473  11.287  2.4121  2.8132  2.2305
  212MOL0     H28564  10.679   4.537  11.257  2.0892 -0.4810 -1.2897
  212MOL0     H28565  10.676   4.572  11.532  0.6247 -1.6197  1.4595
  212MOL0     H28566  10.841   4.538  11.521  0.9707 -1.3766 -0.9443
  212MOL0     H28567  10.701   4.784  11.419 -0.4773 -0.9257  0.4740
  212MOL0     H28568  10.842   4.731  11.329 -0.0834  0.4300  0.1458
  212MOL0     H28569  10.982   4.746  11.547  0.6134 -1.4864  0.9300
  212MOL0     H28570  10.911   4.880  11.465  2.3661  0.2015  0.1966
  212MOL0     H28571  10.920   4.742  11.829 -0.5133 -1.2108  0.2487
  212MOL0     H28572  10.816   4.853  12.052 -1.1677 -2.9684  0.5781
  212MOL0     H28573  10.698   4.977  12.016 -0.7935  0.0659 -1.9584
  212MOL0     H28574  10.571   4.814  12.161  1.5791  3.1892 -0.5940
  212MOL0     H28575  10.520   4.777  11.998 -0.6763  3.0923  0.3384
  212MOL0     H28576  10.747   4.637  12.162  0.9234 -0.4597 -0.5844
  212MOL0     H28577  10.714   4.608  11.989  0.9612  0.7446 -0.1590
  212MOL0     H28578  10.633   4.446  12.159  0.2907  0.5625  0.6501
  212MOL0     H28579  10.499   4.497  12.049  0.6492 -0.8481 -0.8391
  212MOL0     H28580  10.360   4.635  12.459 -0.3470  0.9934 -0.2353
  212MOL0     H28581  10.250   4.475  12.602  0.4151  1.2962 -0.5561
  212MOL0     H28582  10.362   3.890  12.608  0.5986  0.6540 -0.1443
  212MOL0     H28583  10.295   3.688  12.721  1.9199  0.3531 -1.0302
  212MOL0     H28584   9.938   3.510  12.731 -0.8002 -0.6744  0.8983
  212MOL0     H28585  10.108   3.532  12.676 -2.3692 -0.6140 -1.2793
  212MOL0     H28586  10.048   3.451  12.952  1.7055 -1.6222  0.6303
  212MOL0     H28587  10.044   3.326  12.822  0.7196 -1.2666  1.5546
  212MOL0     H28588  10.284   3.404  12.769 -0.2554 -3.3006 -0.6554
  212MOL0     H28589  10.276   3.474  12.941 -0.5343  0.0166 -1.5169
  212MOL0     H28590  10.237   3.194  12.875 -1.2531 -1.4464  2.5546
  212MOL0     H28591  10.208   3.283  13.028 -1.5990  1.9056 -1.6938
  212MOL0     H28592  10.434   3.323  13.069  1.0674  0.1300  0.0019
  212MOL0     H28593  10.484   3.286  12.902  1.2942 -1.4099 -0.8266
  212MOL0     H28594  10.361   3.073  13.073  0.2046  2.5804  1.8568
  212MOL0     H28595  10.447   3.055  12.929  2.5799  1.3889 -1.2070
  212MOL0     H28596  10.595   2.994  13.118  0.5561 -0.4371 -0.6673
  212MOL0     H28597  10.591   3.162  13.177 -1.1359  1.2394  0.1412
  212MOL0     H28598  10.680   3.093  12.884  0.3686 -0.6731  0.3349
  212MOL0     H28599  10.698   3.247  12.967 -1.6101 -0.6890  0.1429
  212MOL0     H28600   9.905   3.886  12.784  0.5644 -1.1707  3.1920
  212MOL0     H28601   9.971   4.060  12.633  0.3042 -0.1254 -0.1454
  212MOL0     H28602  10.329   4.153  12.311 -0.7768 -0.0527  0.0425
  212MOL0     H28603  10.402   4.322  12.156  2.5302 -0.7338 -0.6814
  212MOL0     H28604  10.791   3.768  11.481  0.0910 -1.8597 -0.2183
  212MOL0     H28605  10.665   3.558  11.400  1.6123 -0.2533 -1.3218
  212MOL0     H28606  10.439   3.321  11.201 -0.9466 -1.1203  0.0079
  212MOL0     H28607  10.379   3.088  11.184 -0.3219 -0.7522 -1.6343
  212MOL0     H28608  10.319   2.902  11.132  2.9708 -0.2336  1.2011
  212MOL0     H28609  10.360   2.747  11.050  2.3588 -1.2080 -2.5455
  212MOL0     H28610  10.268   2.902  10.841  0.6681 -0.2136  0.7835
  212MOL0     H28611  10.165   2.965  10.970  0.2287  0.0100 -2.2795
  212MOL0     H28612  10.205   2.666  10.888  0.1289 -1.5955  1.3208
  212MOL0     H28613  10.077   2.775  10.831 -0.9429 -0.6736  0.5077
  212MOL0     H28614  10.101   2.609  11.058 -3.7161 -2.7540 -1.5532
  212MOL0     H28615  10.049   2.782  11.105 -1.7659  0.3899 -0.5409
  212MOL0     H28616   9.742   2.636  10.842  0.6285 -1.4362 -1.0657
  212MOL0     H28617  10.643   3.035  10.851  2.0866  1.2295 -1.0794
  212MOL0     H28618  10.744   3.390  10.825  1.1258  0.3812 -2.1130
  212MOL0     H28619  10.864   3.263  10.890 -0.8605 -2.2448 -1.1470
  212MOL0     H28620  10.760   3.217  10.768  4.1371  0.1645 -0.6712
  213MOL0     O28621  10.417   5.131  10.523  0.0336  0.5355  0.1228
  213MOL0     C28622  10.450   5.046  10.449 -0.6534  0.4000  0.5337
  213MOL0     O28623  10.417   4.916  10.456 -0.5700 -0.5842  0.6138
  213MOL0     C28624  10.319   4.871  10.538  0.5711 -0.1988  0.5961
  213MOL0     C28625  10.248   4.764  10.486  0.4989  0.4625 -0.1564
  213MOL0     C28626  10.139   4.711  10.561 -0.0801 -0.9195 -0.7412
  213MOL0     C28627  10.100   4.763  10.681 -0.6938 -0.1354 -0.6703
  213MOL0     O28628  10.002   4.697  10.751  1.1436  0.2716 -0.5719
  213MOL0     C28629   9.921   4.782  10.844  0.6237  0.6606 -0.9622
  213MOL0     C28630   9.784   4.707  10.859 -0.5110 -0.1072  0.8733
  213MOL0     C28631   9.810   4.563  10.902 -0.0429 -0.0521 -0.0921
  213MOL0     C28632   9.744   4.463  10.813 -0.4364 -0.1626  0.0008
  213MOL0     C28633   9.587   4.487  10.791  0.5202  1.0776  0.3237
  213MOL0     C28634   9.532   4.397  10.681  0.2342 -0.0413  0.5932
  213MOL0     C28635   9.511   4.466  10.547 -0.2158 -0.3102 -0.5138
  213MOL0     C28636   9.427   4.381  10.449  0.8712 -0.2509 -0.8774
  213MOL0     N28637   9.441   4.421  10.307 -0.0354  0.0638  0.3084
  213MOL0     C28638   9.407   4.541  10.241  0.4903  0.1400  0.0881
  213MOL0     C28639   9.419   4.503  10.110  0.0442  0.6839 -1.1436
  213MOL0     C28640   9.386   4.598  10.001  0.3643 -0.2411  0.6814
  213MOL0     C28641   9.249   4.664  10.035 -0.5150  0.8109  0.5953
  213MOL0     C28642   9.139   4.564  10.022  0.5317  0.4998  0.1552
  213MOL0     C28643   9.109   4.471  10.143 -1.0000  0.3076  1.1206
  213MOL0     O28644   9.067   4.551  10.259 -0.7034 -0.1518 -0.1510
  213MOL0     C28645   8.943   4.610  10.267  0.0460  0.4528 -0.2171
  213MOL0     C28646   8.838   4.570  10.178 -0.2241 -0.0636 -0.6760
  213MOL0     C28647   8.713   4.634  10.175 -0.1986  0.3514 -0.4595
  213MOL0     C28648   8.679   4.724  10.279 -0.0600 -0.0370  0.5682
  213MOL0     C28649   8.553   4.802  10.274 -0.3536  0.8693 -0.1243
  213MOL0     O28650   8.522   4.878  10.374 -0.1386 -0.7381 -0.7520
  213MOL0     C28651   8.412   4.964  10.352  0.2453 -0.8983  0.1342
  213MOL0     C28652   8.287   4.928  10.396 -0.1192  0.3272  0.0318
  213MOL0     C28653   8.181   5.014  10.375  0.3127  0.5532  0.3557
  213MOL0     C28654   8.193   5.138  10.310  0.3061  0.9767  0.3305
  213MOL0     O28655   8.090   5.216  10.275 -0.1789 -0.0600  0.4270
  213MOL0     C28656   7.969   5.149  10.240 -1.4454 -0.9175  0.2455
  213MOL0     C28657   7.875   5.252  10.173  0.7122  0.0153  0.0914
  213MOL0     C28658   7.764   5.173  10.095 -0.8332 -0.7891 -0.3212
  213MOL0     C28659   7.651   5.256  10.037  0.2221  0.5198  0.2992
  213MOL0     C28660   7.538   5.158   9.980 -0.4354  0.7259 -0.7353
  213MOL0     C28661   7.447   5.241   9.885  0.2054  0.0916  0.5750
  213MOL0     C28662   7.334   5.146   9.827 -0.3483 -0.9271  0.8365
  213MOL0     C28663   7.236   5.209   9.723 -1.1329  0.0352 -0.0035
  213MOL0    Cl28664   7.113   5.083   9.689 -0.1516  0.0382  0.3768
  213MOL0     C28665   8.325   5.170  10.276  0.2415  0.1741  0.2048
  213MOL0     C28666   8.433   5.089  10.296 -1.0260 -0.9439 -0.0311
  213MOL0     O28667   8.487   4.794  10.173 -0.5136 -0.5500  0.4637
  213MOL0     C28668   8.771   4.739  10.380 -0.3503  0.4028 -1.0218
  213MOL0     C28669   8.899   4.680  10.378  0.5493 -1.1133 -0.1221
  213MOL0     N28670   9.455   4.373  10.101 -0.1459  0.2876  0.0894
  213MOL0     N28671   9.465   4.327  10.215 -0.2288  0.0287 -0.1445
  213MOL0     C28672  10.182   4.861  10.738  0.3081 -0.7640  0.4761
  213MOL0     C28673  10.290   4.918  10.668  0.0024 -0.0689 -0.0079
  213MOL0     C28674  10.547   5.092  10.340  0.3007  0.4126 -0.6333
  213MOL0     C28675  10.565   5.229  10.315  0.2102 -0.1938  0.1137
  213MOL0     C28676  10.652   5.284  10.215  0.3653  0.5300  1.1155
  213MOL0     C28677  10.735   5.196  10.156  0.4492 -0.0981 -0.3399
  213MOL0     O28678  10.841   5.235  10.091 -1.4876 -0.2258 -0.7949
  213MOL0     C28679  10.820   5.217   9.950  0.0720  0.2695  0.2535
  213MOL0     C28680  10.957   5.208   9.879  0.9527 -0.1797 -0.7004
  213MOL0     C28681  10.953   5.217   9.736 -0.0786 -0.4205  0.6392
  213MOL0     C28682  11.089   5.216   9.670 -0.1756 -0.1000 -0.6682
  213MOL0     C28683  11.196   5.301   9.724 -0.5294 -0.3346  0.5291
  213MOL0     C28684  11.290   5.362   9.775 -0.6990  0.0184 -0.5473
  213MOL0     C28685  10.711   5.057  10.172  0.3212  0.0458  0.3825
  213MOL0     C28686  10.615   5.002  10.257 -0.0305  0.2637 -1.0026
  213MOL0     C28687  10.596   4.854  10.267  0.1676 -0.3136 -0.0746
  213MOL0     H28688  10.286   4.712  10.399  2.4788 -0.2301  1.0436
  213MOL0     H28689  10.097   4.620  10.520 -2.0195  0.4178 -1.9303
  213MOL0     H28690   9.970   4.799  10.940 -1.5150 -1.8129  0.7098
  213MOL0     H28691   9.901   4.882  10.805 -0.6176 -0.1731 -2.5902
  213MOL0     H28692   9.721   4.712  10.769 -0.5501 -1.4636  0.8091
  213MOL0     H28693   9.739   4.771  10.936 -0.9178  1.9415 -0.9513
  213MOL0     H28694   9.766   4.550  11.001 -0.3445  1.7118  0.0414
  213MOL0     H28695   9.915   4.534  10.909 -0.1819 -0.1786  2.1651
  213MOL0     H28696   9.802   4.464  10.720  1.6433 -1.0199  1.2060
  213MOL0     H28697   9.759   4.367  10.864 -0.7939 -0.2882 -0.1308
  213MOL0     H28698   9.546   4.460  10.889  1.9858  2.8695  1.4869
  213MOL0     H28699   9.563   4.592  10.770 -1.2969  0.6015 -0.2112
  213MOL0     H28700   9.612   4.324  10.669  1.3708  0.8703  2.2968
  213MOL0     H28701   9.444   4.338  10.709  2.5969 -3.7640  0.8191
  213MOL0     H28702   9.616   4.463  10.514  0.3493 -0.2835  1.1810
  213MOL0     H28703   9.477   4.569  10.559  0.8052 -0.0149 -0.0918
  213MOL0     H28704   9.469   4.280  10.462  1.0945 -0.3679 -2.3022
  213MOL0     H28705   9.324   4.386  10.483  0.8921 -1.3532 -0.6207
  213MOL0     H28706   9.387   4.638  10.287  2.6871 -0.3911  2.3839
  213MOL0     H28707   9.467   4.673  10.006 -2.2905  2.9035  0.1057
  213MOL0     H28708   9.373   4.551   9.903 -3.8246 -0.9383  1.3812
  213MOL0     H28709   9.259   4.705  10.136 -1.1663  0.5014  0.7923
  213MOL0     H28710   9.239   4.741   9.958 -0.8648 -0.7526 -0.9794
  213MOL0     H28711   9.168   4.492   9.945  1.0302 -1.6735  2.2607
  213MOL0     H28712   9.047   4.615   9.991 -0.8069 -3.7161 -3.8398
  213MOL0     H28713   9.195   4.408  10.167  1.4876  2.5085 -1.3666
  213MOL0     H28714   9.030   4.400  10.116 -0.5028 -0.5645  1.9224
  213MOL0     H28715   8.845   4.492  10.103 -2.6040 -0.1602 -0.8813
  213MOL0     H28716   8.640   4.595  10.105 -1.2751 -2.1300  1.8735
  213MOL0     H28717   8.287   4.841  10.461 -4.2628 -0.7228 -1.1378
  213MOL0     H28718   8.082   4.985  10.410 -0.2269  0.4014 -1.2012
  213MOL0     H28719   7.989   5.071  10.166 -2.7380 -0.5972 -0.4823
  213MOL0     H28720   7.925   5.092  10.322  0.0758  1.2862  2.7321
  213MOL0     H28721   7.828   5.313  10.250 -2.6653 -1.8919 -0.2365
  213MOL0     H28722   7.919   5.311  10.092 -0.3216 -1.2741 -1.4818
  213MOL0     H28723   7.809   5.100  10.027 -0.8154 -2.5035  1.4338
  213MOL0     H28724   7.716   5.120  10.178  0.9938 -0.0510  1.2925
  213MOL0     H28725   7.679   5.318   9.952 -1.8771  0.5482 -0.4483
  213MOL0     H28726   7.607   5.318  10.115 -1.4518  0.4093 -0.4966
  213MOL0     H28727   7.487   5.116  10.067  3.4394  3.1827  3.1939
  213MOL0     H28728   7.588   5.069   9.940  3.3197  0.8713  2.8687
  213MOL0     H28729   7.400   5.322   9.943  1.7032  0.8235  0.8055
  213MOL0     H28730   7.504   5.277   9.799 -0.6073 -0.0550 -0.0376
  213MOL0     H28731   7.278   5.104   9.911 -1.7980 -1.1165 -0.1747
  213MOL0     H28732   7.386   5.064   9.776  2.2636  2.7202 -3.0298
  213MOL0     H28733   7.183   5.297   9.760  2.0911  2.0623  0.1622
  213MOL0     H28734   7.298   5.240   9.639  0.0281  3.3200  1.8953
  213MOL0     H28735   8.340   5.267  10.230  2.6815  0.2253  0.9809
  213MOL0     H28736   8.527   5.124  10.254 -0.6236  1.7786  2.7108
  213MOL0     H28737   8.740   4.813  10.453  2.0207  3.2483 -2.6531
  213MOL0     H28738   8.943   4.695  10.476 -2.4925 -1.8503  1.4697
  213MOL0     H28739  10.149   4.900  10.834  1.1661  0.0628  0.4511
  213MOL0     H28740  10.353   4.989  10.722  0.1590  1.4692 -2.1009
  213MOL0     H28741  10.516   5.310  10.367  0.4703  0.4569 -0.6246
  213MOL0     H28742  10.656   5.391  10.197 -2.0386  0.0255 -4.3573
  213MOL0     H28743  10.767   5.301   9.905 -2.6596 -2.5062 -2.2114
  213MOL0     H28744  10.759   5.127   9.935  0.1385  0.2295  0.2190
  213MOL0     H28745  11.014   5.120   9.909  3.6296  1.0336 -1.8710
  213MOL0     H28746  11.017   5.291   9.918 -0.5356  0.4360  0.3816
  213MOL0     H28747  10.921   5.315   9.699  0.8160 -0.1788  0.4841
  213MOL0     H28748  10.894   5.139   9.688 -1.5595  2.3656 -2.4165
  213MOL0     H28749  11.141   5.120   9.662  0.8396  0.4311 -0.6268
  213MOL0     H28750  11.073   5.249   9.567 -2.3929  4.3347  0.8418
  213MOL0     H28751  11.382   5.409   9.803 -0.3614  0.0401 -1.6581
  213MOL0     H28752  10.775   4.993  10.112  3.2985  3.5344 -0.5731
  213MOL0     H28753  10.494   4.818  10.253  0.9915 -2.6827 -0.4042
  213MOL0     H28754  10.657   4.798  10.196  0.5416 -0.4039  0.3114
  213MOL0     H28755  10.629   4.829  10.369 -3.0189  0.7171  1.3508
  214MOL0     O28756   1.581  10.835   8.511 -0.6073  0.2890 -0.0901
  214MOL0     C28757   1.487  10.787   8.452  0.0541  1.1250 -0.5133
  214MOL0     O28758   1.395  10.850   8.374  0.0784 -0.1425 -0.1968
  214MOL0     C28759   1.394  10.990   8.378  0.6099  0.5322 -0.5795
  214MOL0     C28760   1.385  11.050   8.495  1.0776 -0.2477  0.2954
  214MOL0     C28761   1.387  11.192   8.488  0.0749 -0.1523 -0.7698
  214MOL0     C28762   1.414  11.259   8.366  0.5114 -0.3313 -0.3449
  214MOL0     O28763   1.403  11.401   8.365 -0.2605  0.7414 -0.2669
  214MOL0     C28764   1.505  11.466   8.293  0.1613  0.1764 -0.4588
  214MOL0     C28765   1.457  11.617   8.287 -0.1922  0.3163  0.2670
  214MOL0     C28766   1.547  11.714   8.197 -0.1110  0.5631  0.1676
  214MOL0     C28767   1.561  11.837   8.279  0.9022  0.4501  0.0714
  214MOL0     C28768   1.629  11.957   8.200 -0.1210  0.3466 -1.0129
  214MOL0     C28769   1.614  12.086   8.274 -0.5657  0.3437 -0.4361
  214MOL0     C28770   1.677  12.092   8.414 -0.3002  0.7254  0.0950
  214MOL0     C28771   1.830  12.059   8.411  0.0492 -0.0192  0.0251
  214MOL0     N28772   1.889  12.042   8.540  0.7235 -0.5210 -0.0250
  214MOL0     C28773   1.818  12.001   8.660  0.0267 -0.8543  0.4684
  214MOL0     C28774   1.907  12.004   8.760 -0.6573 -0.0102  0.0972
  214MOL0     C28775   1.911  11.945   8.897 -0.3508  0.3710  0.1963
  214MOL0     C28776   1.828  12.022   8.995 -0.0898 -0.3574  0.7635
  214MOL0     C28777   1.847  11.968   9.145 -0.6647 -0.2495  0.5747
  214MOL0     C28778   1.712  11.951   9.214 -0.1975 -0.7646 -0.5020
  214MOL0     O28779   1.732  11.877   9.334  0.7194  0.1540 -0.7013
  214MOL0     C28780   1.711  11.745   9.339 -0.3485  0.5121  0.9815
  214MOL0     C28781   1.674  11.663   9.231  0.2933  0.6140 -0.0653
  214MOL0     C28782   1.653  11.531   9.256 -0.0143 -0.0280 -0.0960
  214MOL0     C28783   1.660  11.470   9.380 -0.1046 -0.6784 -1.2292
  214MOL0     C28784   1.647  11.331   9.397 -0.7602 -0.7549 -0.5608
  214MOL0     O28785   1.611  11.267   9.280 -0.6476 -0.4139 -0.3479
  214MOL0     C28786   1.590  11.131   9.293 -0.7900  0.0820  0.1670
  214MOL0     C28787   1.466  11.086   9.327 -0.8756 -0.1871 -0.2668
  214MOL0     C28788   1.452  10.951   9.342  0.0159  0.0314 -0.0040
  214MOL0     C28789   1.568  10.860   9.324  0.2686 -0.0022 -0.5036
  214MOL0     O28790   1.553  10.726   9.354  0.3874 -0.2996  0.5238
  214MOL0     C28791   1.658  10.663   9.424  0.1927 -0.4867  0.8708
  214MOL0     C28792   1.622  10.519   9.455 -0.1134 -0.3715  0.0041
  214MOL0     C28793   1.737  10.451   9.528  1.3475 -0.3377 -0.1845
  214MOL0     C28794   1.673  10.341   9.621 -0.5323  0.2794  0.8263
  214MOL0     C28795   1.768  10.237   9.677 -0.1539 -0.8512  0.5173
  214MOL0     C28796   1.690  10.168   9.787  0.0888  0.1948  0.3975
  214MOL0     C28797   1.761  10.046   9.854 -0.7107 -0.7820  0.7628
  214MOL0     C28798   1.665   9.925   9.884 -0.9478 -0.4216  0.5871
  214MOL0    Cl28799   1.552   9.960  10.004 -0.2623 -0.1191 -0.5260
  214MOL0     C28800   1.688  10.918   9.288  0.1143  0.8124  0.0243
  214MOL0     C28801   1.707  11.050   9.275 -0.5689  0.0881  0.3717
  214MOL0     O28802   1.666  11.276   9.506  0.1632  0.3376 -0.4093
  214MOL0     C28803   1.701  11.554   9.489  0.9559  0.2217 -0.1722
  214MOL0     C28804   1.719  11.688   9.472 -0.5226 -0.3042  0.3093
  214MOL0     N28805   2.013  12.078   8.709  0.0512 -0.8825  1.1721
  214MOL0     N28806   2.003  12.102   8.581 -0.2498 -0.5642  0.2229
  214MOL0     C28807   1.422  11.191   8.244  1.8537 -0.5516 -0.2157
  214MOL0     C28808   1.400  11.052   8.262 -0.5952 -0.0436 -0.4311
  214MOL0     C28809   1.473  10.633   8.450  0.4393  0.2259  0.8090
  214MOL0     C28810   1.587  10.554   8.442  0.1032 -0.0190 -0.9089
  214MOL0     C28811   1.573  10.416   8.440  0.5437  0.1103 -0.0950
  214MOL0     C28812   1.454  10.347   8.453  1.2692 -0.6097  0.1178
  214MOL0     O28813   1.453  10.212   8.440 -0.3696 -0.1093 -0.0358
  214MOL0     C28814   1.328  10.135   8.430 -0.4663 -0.2608  0.0142
  214MOL0     C28815   1.342   9.987   8.391  0.5899 -0.4051 -0.1050
  214MOL0     C28816   1.200   9.922   8.386  0.9101  0.2106 -0.3611
  214MOL0     C28817   1.212   9.773   8.361 -0.0979  0.0626 -0.0331
  214MOL0     C28818   1.246   9.700   8.481 -1.4778 -0.0531 -0.1823
  214MOL0     C28819   1.286   9.626   8.572 -0.1262  0.7283  0.1514
  214MOL0     C28820   1.341  10.427   8.461  1.4888  0.2450 -0.2041
  214MOL0     C28821   1.343  10.564   8.457  0.4535  0.5246  0.5021
  214MOL0     C28822   1.219  10.643   8.475  0.8823 -0.3877  0.0986
  214MOL0     H28823   1.373  10.998   8.589 -1.2742  0.4230  0.4421
  214MOL0     H28824   1.379  11.239   8.585  0.1251 -1.7695  0.0403
  214MOL0     H28825   1.600  11.462   8.347  0.2059 -2.7362 -0.5513
  214MOL0     H28826   1.511  11.427   8.191 -2.2506  1.0587 -1.0025
  214MOL0     H28827   1.463  11.652   8.391 -3.1086  3.0238 -0.3068
  214MOL0     H28828   1.354  11.633   8.253  0.0491 -0.1342 -0.6968
  214MOL0     H28829   1.492  11.722   8.103 -0.1540 -1.2378  0.0015
  214MOL0     H28830   1.650  11.681   8.182 -0.3588 -1.0821  1.6725
  214MOL0     H28831   1.462  11.869   8.313  0.6938 -0.2879  0.1612
  214MOL0     H28832   1.630  11.812   8.360  0.6774  0.9366  0.4157
  214MOL0     H28833   1.733  11.927   8.193 -0.2969 -0.7561  0.6219
  214MOL0     H28834   1.583  11.968   8.101 -3.3748 -1.7867  0.0969
  214MOL0     H28835   1.658  12.159   8.206 -0.6486  0.8077 -0.0027
  214MOL0     H28836   1.506  12.105   8.280 -0.4346  0.6955  1.4563
  214MOL0     H28837   1.624  12.008   8.459  0.2741 -0.0604 -0.6417
  214MOL0     H28838   1.655  12.191   8.454 -3.5141 -0.6969  2.1856
  214MOL0     H28839   1.853  11.962   8.366 -0.9111  0.4898 -1.6621
  214MOL0     H28840   1.879  12.114   8.330  1.1025 -1.3175 -0.2466
  214MOL0     H28841   1.729  11.940   8.671  1.3354 -3.6122 -2.5747
  214MOL0     H28842   1.871  11.843   8.901 -0.3606  0.4008  3.5785
  214MOL0     H28843   2.017  11.940   8.926  0.1121 -1.3612 -1.5760
  214MOL0     H28844   1.868  12.123   8.982  2.4139 -1.6344 -3.3531
  214MOL0     H28845   1.721  12.015   8.973  0.6153 -4.0769 -2.7743
  214MOL0     H28846   1.906  12.034   9.209 -0.3924 -2.4410  2.7282
  214MOL0     H28847   1.897  11.871   9.148 -0.6184 -0.2413  0.1659
  214MOL0     H28848   1.634  11.915   9.145 -2.1350  0.8424  0.7497
  214MOL0     H28849   1.672  12.049   9.240 -1.5749 -0.9664 -1.6968
  214MOL0     H28850   1.655  11.698   9.130 -0.0634 -1.5658 -0.8139
  214MOL0     H28851   1.627  11.475   9.167 -0.0606  1.7325 -1.2243
  214MOL0     H28852   1.377  11.146   9.345 -2.0080 -2.4377  2.5038
  214MOL0     H28853   1.357  10.914   9.377 -0.1250 -0.8605 -1.2682
  214MOL0     H28854   1.752  10.678   9.371  0.3743  0.5482  1.4437
  214MOL0     H28855   1.675  10.717   9.518 -1.2143  2.1696 -0.2699
  214MOL0     H28856   1.536  10.529   9.522  2.3153  1.8111  3.1058
  214MOL0     H28857   1.595  10.472   9.361  1.3869  0.1296 -0.7074
  214MOL0     H28858   1.797  10.413   9.445  0.8260 -0.1571 -0.6554
  214MOL0     H28859   1.807  10.505   9.590  0.5705 -0.1719  0.5656
  214MOL0     H28860   1.612  10.276   9.557  1.5353  0.0612 -1.0554
  214MOL0     H28861   1.626  10.395   9.704 -0.0852  1.7267  0.1600
  214MOL0     H28862   1.864  10.276   9.712 -0.4372  0.0678  0.3168
  214MOL0     H28863   1.786  10.169   9.594  4.5624 -0.0035  0.5704
  214MOL0     H28864   1.664  10.239   9.866 -2.2627 -2.0230  1.7962
  214MOL0     H28865   1.592  10.138   9.749  0.0346 -0.8955  1.3449
  214MOL0     H28866   1.800  10.082   9.950 -0.1244  0.6504  0.0290
  214MOL0     H28867   1.847  10.017   9.792  0.8598  2.6361  1.1230
  214MOL0     H28868   1.626   9.890   9.788  0.5104  0.7056 -0.4552
  214MOL0     H28869   1.725   9.838   9.914  0.5415  0.3299 -0.0963
  214MOL0     H28870   1.781  10.861   9.282  0.6718  1.1533  3.4894
  214MOL0     H28871   1.804  11.095   9.259  0.1978 -0.9808  1.8508
  214MOL0     H28872   1.714  11.496   9.580 -1.0903 -3.5083 -2.0204
  214MOL0     H28873   1.743  11.746   9.561  2.5664  0.2452 -0.7663
  214MOL0     H28874   1.438  11.250   8.154 -1.7660  1.8959  0.5356
  214MOL0     H28875   1.413  10.990   8.174  4.1843 -0.5076  0.3229
  214MOL0     H28876   1.687  10.593   8.426 -0.0513 -0.0595 -2.0334
  214MOL0     H28877   1.658  10.349   8.433  0.8696  0.6506 -1.6832
  214MOL0     H28878   1.266  10.174   8.349  2.3819 -0.6735 -2.5368
  214MOL0     H28879   1.273  10.144   8.524 -0.0849  0.3182  0.1952
  214MOL0     H28880   1.404   9.941   8.468  1.2974  0.2338 -0.2858
  214MOL0     H28881   1.390   9.971   8.294  2.3652 -2.7511  1.0612
  214MOL0     H28882   1.154   9.958   8.294  0.1599 -2.5134 -1.1367
  214MOL0     H28883   1.149   9.948   8.479  1.1261  1.4261 -0.5671
  214MOL0     H28884   1.116   9.733   8.327 -0.5448  1.2939 -0.2818
  214MOL0     H28885   1.293   9.743   8.294  0.7027 -2.1085  1.7575
  214MOL0     H28886   1.321   9.573   8.659 -2.3677 -0.8761  0.1717
  214MOL0     H28887   1.247  10.373   8.461  1.0642  0.8864  2.3675
  214MOL0     H28888   1.205  10.698   8.381  1.4394  0.3336  0.4248
  214MOL0     H28889   1.138  10.571   8.490  0.8395 -0.4354 -0.3611
  214MOL0     H28890   1.210  10.716   8.557 -1.9608 -0.4134 -0.0843
  215MOL0     O28891   1.578   9.496   2.855 -0.1297  0.1697  0.6655
  215MOL0     C28892   1.564   9.525   2.973 -0.6548 -0.5743 -0.4139
  215MOL0     O28893   1.472   9.469   3.053 -0.1548  0.4307  0.7220
  215MOL0     C28894   1.384   9.370   3.007 -0.5624  0.0364 -0.5670
  215MOL0     C28895   1.258   9.372   3.064  0.5944  0.0308 -0.5289
  215MOL0     C28896   1.157   9.283   3.016 -0.4560 -0.3216  0.2862
  215MOL0     C28897   1.195   9.182   2.923  0.0618  0.2995  0.5029
  215MOL0     O28898   1.100   9.085   2.891 -0.2839 -0.1881  0.1000
  215MOL0     C28899   0.961   9.110   2.906 -0.0191  1.2553  0.0199
  215MOL0     C28900   0.916   9.217   2.812  0.7109 -0.0999 -0.6795
  215MOL0     C28901   0.761   9.248   2.835 -0.1920  0.8618  0.1198
  215MOL0     C28902   0.726   9.354   2.735  0.3653  1.0567  0.1395
  215MOL0     C28903   0.571   9.381   2.723  0.2893 -0.3416  0.2118
  215MOL0     C28904   0.486   9.256   2.695  0.8210 -1.0425 -0.5118
  215MOL0     C28905   0.342   9.292   2.655 -0.0286 -0.5031  0.1294
  215MOL0     C28906   0.322   9.359   2.524 -0.1205 -0.9396  0.1180
  215MOL0     N28907   0.185   9.361   2.503 -0.9856 -0.2614 -1.0474
  215MOL0     C28908   0.086   9.458   2.534  0.0605 -0.2327 -0.4048
  215MOL0     C28909  -0.026   9.400   2.499  0.1016  0.2338  0.1875
  215MOL0     C28910  -0.162   9.470   2.501 -0.6650 -0.0236  0.6103
  215MOL0     C28911  -0.189   9.538   2.633 -0.8420  0.6088 -0.8698
  215MOL0     C28912  -0.291   9.653   2.623  0.0368  0.1529  0.0786
  215MOL0     C28913  -0.433   9.598   2.640  0.0304  0.1894  0.2100
  215MOL0     O28914  -0.531   9.699   2.611  0.0382 -0.4424  0.3140
  215MOL0     C28915  -0.651   9.677   2.671  0.5434  0.5186  0.8410
  215MOL0     C28916  -0.722   9.558   2.657  0.9758 -0.7871 -0.4902
  215MOL0     C28917  -0.852   9.536   2.706 -0.3637 -0.7064 -0.5772
  215MOL0     C28918  -0.916   9.642   2.781  0.4785 -0.4305 -0.4680
  215MOL0     C28919  -1.053   9.629   2.843  0.3503  0.8264  0.2267
  215MOL0     O28920  -1.108   9.507   2.840  0.2939 -0.1882  0.1565
  215MOL0     C28921  -1.236   9.483   2.884  0.4083 -1.0666  0.1362
  215MOL0     C28922  -1.329   9.446   2.786  0.6050  0.2966 -0.0690
  215MOL0     C28923  -1.465   9.428   2.823 -0.3313 -0.0922  0.7675
  215MOL0     C28924  -1.494   9.431   2.963 -0.3964 -0.4802  0.0617
  215MOL0     O28925  -1.622   9.404   2.999  0.1396  0.5849  0.7473
  215MOL0     C28926  -1.680   9.491   3.096  0.1470  0.1088 -0.1643
  215MOL0     C28927  -1.831   9.466   3.094  0.5733 -0.1977  0.1971
  215MOL0     C28928  -1.869   9.339   3.159  0.1079  0.5213  1.5675
  215MOL0     C28929  -1.881   9.211   3.060 -0.3097 -1.0433 -0.3709
  215MOL0     C28930  -1.962   9.099   3.123  0.8608  0.5780  0.0110
  215MOL0     C28931  -1.879   9.009   3.216 -0.4950  0.3311  0.7529
  215MOL0     C28932  -1.958   8.889   3.273 -0.5733  0.0142  0.3371
  215MOL0     C28933  -1.871   8.807   3.361  0.3909 -0.9460 -0.9561
  215MOL0    Cl28934  -1.916   8.640   3.354 -0.3292  0.2992 -0.5539
  215MOL0     C28935  -1.392   9.449   3.056  0.1973  0.3241 -0.0595
  215MOL0     C28936  -1.262   9.483   3.021 -0.1947 -0.6790  0.1578
  215MOL0     O28937  -1.111   9.732   2.883  0.1006 -0.6493  0.1870
  215MOL0     C28938  -0.845   9.758   2.798 -0.3129 -0.6854  0.2931
  215MOL0     C28939  -0.717   9.785   2.734 -0.8196  0.3315  0.1329
  215MOL0     N28940  -0.011   9.274   2.455 -0.3465  1.0769 -0.6418
  215MOL0     N28941   0.116   9.262   2.445 -0.1169  0.3961 -0.0043
  215MOL0     C28942   1.321   9.180   2.869 -0.3272  0.9188 -0.0875
  215MOL0     C28943   1.420   9.277   2.912  0.5044  0.1784 -0.3878
  215MOL0     C28944   1.632   9.641   3.033  1.1758 -0.0423  0.8178
  215MOL0     C28945   1.590   9.688   3.161  0.6059  0.1447 -1.0629
  215MOL0     C28946   1.637   9.809   3.208  0.1659  0.4112 -0.9300
  215MOL0     C28947   1.728   9.885   3.139 -0.2954  0.8304  1.2683
  215MOL0     O28948   1.768   9.996   3.197 -0.0540  0.6380  0.1801
  215MOL0     C28949   1.845  10.103   3.130 -0.0559 -0.2993 -0.3976
  215MOL0     C28950   1.885  10.210   3.239 -0.7038  0.2349  0.5474
  215MOL0     C28951   2.006  10.160   3.320  0.6743  0.3503  1.4351
  215MOL0     C28952   2.063  10.270   3.417 -0.0672  0.3030  0.4932
  215MOL0     C28953   2.200  10.256   3.434 -0.8968 -0.2938  0.1354
  215MOL0     C28954   2.317  10.222   3.458 -0.5280  0.6391 -0.8718
  215MOL0     C28955   1.779   9.841   3.015  0.6440 -0.0861  0.7276
  215MOL0     C28956   1.724   9.724   2.958  0.4034  0.0815  1.0578
  215MOL0     C28957   1.774   9.702   2.817  0.4515 -0.1482 -0.2143
  215MOL0     H28958   1.242   9.455   3.132  1.9806  0.4573 -0.7062
  215MOL0     H28959   1.058   9.301   3.057 -0.9464 -2.1565  0.0056
  215MOL0     H28960   0.902   9.024   2.873 -0.3797  1.8624 -0.9422
  215MOL0     H28961   0.929   9.141   3.006  0.9087 -1.0960  1.1160
  215MOL0     H28962   0.938   9.187   2.709  1.7947 -0.3345 -0.3987
  215MOL0     H28963   0.968   9.312   2.820  1.9477 -0.7094 -1.2100
  215MOL0     H28964   0.719   9.266   2.934 -0.9518 -2.8398  0.6234
  215MOL0     H28965   0.714   9.151   2.812 -3.0528  2.1112  0.2756
  215MOL0     H28966   0.776   9.445   2.771  0.2993  1.2703 -0.3003
  215MOL0     H28967   0.766   9.318   2.640  2.4356  0.3356  1.2100
  215MOL0     H28968   0.542   9.434   2.814  2.6072  0.0199  0.8026
  215MOL0     H28969   0.543   9.452   2.644 -2.5078 -1.6470 -0.1051
  215MOL0     H28970   0.528   9.202   2.609  0.0612 -1.3554 -0.6973
  215MOL0     H28971   0.482   9.201   2.789 -1.1456  1.1807  0.8372
  215MOL0     H28972   0.312   9.362   2.733  0.6195 -0.4979  0.3813
  215MOL0     H28973   0.282   9.201   2.657 -1.6956  0.5161  2.9402
  215MOL0     H28974   0.356   9.462   2.511 -0.4553 -0.3341  3.2966
  215MOL0     H28975   0.360   9.296   2.443 -2.9683 -0.5496 -1.6690
  215MOL0     H28976   0.091   9.553   2.586  1.2180 -0.2629 -0.4392
  215MOL0     H28977  -0.153   9.541   2.417 -1.0094 -0.2676  0.3641
  215MOL0     H28978  -0.248   9.403   2.488  0.1685 -0.5769 -3.8432
  215MOL0     H28979  -0.223   9.466   2.708 -1.4134  2.4524  0.7369
  215MOL0     H28980  -0.096   9.588   2.660 -0.0782  0.3947 -2.9571
  215MOL0     H28981  -0.294   9.708   2.528 -0.2383  0.0608  0.0334
  215MOL0     H28982  -0.265   9.727   2.700 -0.9479  1.1536 -0.5181
  215MOL0     H28983  -0.453   9.561   2.741 -0.0136 -0.5810 -0.0735
  215MOL0     H28984  -0.452   9.524   2.561  1.2894 -1.6538  1.5235
  215MOL0     H28985  -0.679   9.471   2.609  0.1477 -3.5635  3.2996
  215MOL0     H28986  -0.912   9.446   2.697 -3.8604  1.2954  0.7601
  215MOL0     H28987  -1.304   9.443   2.680 -3.8949 -1.4041 -1.3196
  215MOL0     H28988  -1.541   9.412   2.747  0.0718  1.2004  0.0601
  215MOL0     H28989  -1.641   9.464   3.195  1.8407 -1.7966 -1.2660
  215MOL0     H28990  -1.658   9.595   3.073  1.8182 -0.1533  0.1649
  215MOL0     H28991  -1.879   9.549   3.146 -1.3899 -0.4893 -1.0492
  215MOL0     H28992  -1.890   9.479   3.003  1.7836 -3.5591 -1.2286
  215MOL0     H28993  -1.800   9.320   3.242  3.2851 -0.8954 -1.1647
  215MOL0     H28994  -1.971   9.352   3.198  0.2209 -0.0824  2.0747
  215MOL0     H28995  -1.782   9.173   3.033 -0.0397  0.1715 -1.1425
  215MOL0     H28996  -1.930   9.238   2.966  0.9132 -1.6321 -1.2024
  215MOL0     H28997  -2.004   9.034   3.046  1.9672  0.9862 -0.9644
  215MOL0     H28998  -2.041   9.137   3.188  0.4394 -1.1750  0.5718
  215MOL0     H28999  -1.786   8.983   3.166 -0.3548 -0.5449  1.4468
  215MOL0     H29000  -1.854   9.072   3.302  0.2509  1.8891 -0.5599
  215MOL0     H29001  -2.013   8.833   3.197 -1.1464  1.5138 -0.4064
  215MOL0     H29002  -2.035   8.926   3.342 -2.2908 -0.9352 -0.9961
  215MOL0     H29003  -1.767   8.821   3.328  1.3286  0.2697  2.0674
  215MOL0     H29004  -1.878   8.850   3.462 -0.2053 -1.4725 -0.7674
  215MOL0     H29005  -1.421   9.446   3.161 -0.1886  0.5160 -0.1566
  215MOL0     H29006  -1.197   9.532   3.093  0.4452  0.6195 -1.2484
  215MOL0     H29007  -0.888   9.844   2.848  2.4228  0.2031  1.3376
  215MOL0     H29008  -0.677   9.886   2.735 -1.1676  0.6869 -3.9898
  215MOL0     H29009   1.354   9.114   2.789  0.6369 -0.3345  1.2888
  215MOL0     H29010   1.517   9.279   2.864 -0.3572 -0.6467 -2.2497
  215MOL0     H29011   1.523   9.637   3.229 -0.2241  2.4251 -0.0636
  215MOL0     H29012   1.611   9.847   3.307  2.3555  1.7151 -0.7821
  215MOL0     H29013   1.798  10.148   3.043 -1.4636  1.0033  0.9759
  215MOL0     H29014   1.933  10.044   3.102  1.0738  1.1573 -0.0398
  215MOL0     H29015   1.803  10.235   3.306 -1.8352  1.5290 -1.2403
  215MOL0     H29016   1.914  10.300   3.185 -0.6485 -1.5140 -2.5894
  215MOL0     H29017   2.084  10.135   3.247 -1.3852 -0.8612 -0.4762
  215MOL0     H29018   1.985  10.066   3.372 -1.0883  1.9496  3.7766
  215MOL0     H29019   2.047  10.370   3.374 -0.5160 -0.1966 -0.5188
  215MOL0     H29020   2.022  10.245   3.515  1.5116 -1.9487  0.6432
  215MOL0     H29021   2.418  10.199   3.483 -1.6731  0.1840  4.4605
  215MOL0     H29022   1.854   9.902   2.966 -1.3404  2.6460  0.8162
  215MOL0     H29023   1.858   9.765   2.785 -0.6679  1.3024 -0.3881
  215MOL0     H29024   1.815   9.602   2.801  0.2791  0.0250 -2.0079
  215MOL0     H29025   1.689   9.724   2.751  1.5388 -1.8331 -2.3268
  216MOL0     O29026   0.168   2.230   0.169 -0.1358  0.4362  0.2563
  216MOL0     C29027   0.231   2.159   0.088 -0.8717 -0.3405  0.5191
  216MOL0     O29028   0.370   2.161   0.068  0.8106 -0.3213  0.7076
  216MOL0     C29029   0.454   2.216   0.162 -0.2582 -0.2977 -0.3475
  216MOL0     C29030   0.537   2.322   0.137 -0.4731  0.5996  0.5804
  216MOL0     C29031   0.623   2.368   0.230 -0.1573  0.0898 -0.2099
  216MOL0     C29032   0.633   2.321   0.366 -1.1048  0.1509 -0.1150
  216MOL0     O29033   0.701   2.381   0.473  0.2338  0.0163 -0.3358
  216MOL0     C29034   0.789   2.490   0.454  0.0588 -0.6062  0.5327
  216MOL0     C29035   0.850   2.535   0.593  0.2140  0.3939  0.4239
  216MOL0     C29036   0.787   2.666   0.638  0.0398  0.2777 -0.1808
  216MOL0     C29037   0.632   2.645   0.664  0.6661  0.0819 -0.9193
  216MOL0     C29038   0.561   2.772   0.714  0.2499  1.3203 -0.0960
  216MOL0     C29039   0.513   2.856   0.592 -0.1994  0.3896 -0.2634
  216MOL0     C29040   0.462   3.003   0.635  0.5488 -0.1211  0.6341
  216MOL0     C29041   0.370   3.015   0.752  0.5229  0.7047 -0.1963
  216MOL0     N29042   0.357   3.157   0.803 -0.4640  0.6260 -0.1631
  216MOL0     C29043   0.254   3.202   0.886  0.1583  0.2847  0.2023
  216MOL0     C29044   0.235   3.329   0.867 -0.4065  0.7858 -0.6089
  216MOL0     C29045   0.127   3.408   0.945 -0.2566 -0.8018 -0.4748
  216MOL0     C29046   0.175   3.443   1.081 -0.7540  0.2775 -0.0932
  216MOL0     C29047   0.074   3.487   1.174 -0.4637 -0.8478  0.4665
  216MOL0     C29048  -0.037   3.390   1.208  1.4074  0.1492  0.0471
  216MOL0     O29049  -0.127   3.426   1.321 -0.0561  0.2061 -0.2492
  216MOL0     C29050  -0.075   3.407   1.451  0.8242  0.6175 -0.9248
  216MOL0     C29051  -0.169   3.426   1.553  0.1176  0.2054  0.6042
  216MOL0     C29052  -0.149   3.389   1.690 -0.3982 -0.5147 -0.2253
  216MOL0     C29053  -0.021   3.342   1.730 -0.5158 -0.2342  0.1779
  216MOL0     C29054  -0.000   3.298   1.870  0.1337 -0.3545 -0.0541
  216MOL0     O29055  -0.105   3.295   1.963  0.3957  0.4921  0.1997
  216MOL0     C29056  -0.064   3.277   2.092 -0.2961  0.3452 -0.8569
  216MOL0     C29057  -0.066   3.157   2.158  0.3085  0.0966 -1.0934
  216MOL0     C29058  -0.051   3.152   2.298  1.5863  0.3043 -0.6301
  216MOL0     C29059  -0.025   3.264   2.381  0.0446 -0.9134  1.1622
  216MOL0     O29060  -0.022   3.235   2.516  0.3970 -0.8560  0.4255
  216MOL0     C29061   0.063   3.320   2.592  0.3898 -0.9698 -0.4619
  216MOL0     C29062  -0.033   3.403   2.687 -1.3158  0.4940  0.5888
  216MOL0     C29063  -0.096   3.309   2.789 -0.9563  1.1913 -0.8559
  216MOL0     C29064  -0.147   3.378   2.923 -0.6475  0.5906  0.4605
  216MOL0     C29065  -0.134   3.302   3.052 -0.3481 -1.1243 -0.3265
  216MOL0     C29066  -0.001   3.340   3.117 -0.5999 -1.0585 -0.1642
  216MOL0     C29067   0.050   3.226   3.207  0.2755 -0.4576 -0.9948
  216MOL0     C29068   0.110   3.116   3.111  0.1645  0.1348  0.6319
  216MOL0    Cl29069   0.266   3.180   3.055  0.1227  0.1381 -0.0148
  216MOL0     C29070  -0.009   3.384   2.312  0.4018  0.5968 -0.0307
  216MOL0     C29071  -0.026   3.395   2.170 -0.0096 -0.4682  0.5848
  216MOL0     O29072   0.114   3.271   1.898 -1.1934  0.7355  0.5240
  216MOL0     C29073   0.079   3.328   1.633  0.1613  0.1384  0.7895
  216MOL0     C29074   0.048   3.358   1.494  0.4682  0.7842  0.2393
  216MOL0     N29075   0.338   3.371   0.781  0.9571 -0.7243  0.1462
  216MOL0     N29076   0.414   3.272   0.755 -0.1076  0.5798 -0.4549
  216MOL0     C29077   0.548   2.220   0.395  0.4219  1.2187  0.0910
  216MOL0     C29078   0.466   2.163   0.294 -0.1964 -0.7068  0.0248
  216MOL0     C29079   0.155   2.056   0.013 -0.2930 -0.2305  1.5935
  216MOL0     C29080   0.022   2.050   0.040  0.0692  0.1636  0.4360
  216MOL0     C29081  -0.051   1.947  -0.007  0.4923  0.1518  0.0029
  216MOL0     C29082  -0.001   1.848  -0.093 -0.1207  0.5195  0.7783
  216MOL0     O29083  -0.079   1.740  -0.144  0.4492  0.0577 -0.5489
  216MOL0     C29084  -0.036   1.604  -0.133 -0.1175 -0.7595  0.6634
  216MOL0     C29085  -0.011   1.571   0.013  0.3044  0.4720 -0.1568
  216MOL0     C29086   0.047   1.441   0.046  0.1921  1.1964  0.7437
  216MOL0     C29087   0.047   1.425   0.189  0.1302 -0.1907 -0.0450
  216MOL0     C29088   0.117   1.309   0.232 -0.3711 -0.1537  1.2738
  216MOL0     C29089   0.175   1.209   0.258 -0.2504  0.0613  0.0342
  216MOL0     C29090   0.137   1.852  -0.126 -0.1280 -0.1580  0.0065
  216MOL0     C29091   0.213   1.958  -0.077  0.0396 -0.5335  0.1133
  216MOL0     C29092   0.350   1.980  -0.134 -0.2459 -0.2435  1.0181
  216MOL0     H29093   0.539   2.372   0.041 -0.0784  1.3155  0.9475
  216MOL0     H29094   0.693   2.441   0.189 -0.5015  0.3407 -0.3604
  216MOL0     H29095   0.872   2.474   0.384 -2.2970 -2.6332 -2.0311
  216MOL0     H29096   0.733   2.576   0.418 -1.9548 -1.4578  1.4967
  216MOL0     H29097   0.958   2.544   0.586  0.2776 -0.8483 -0.5108
  216MOL0     H29098   0.820   2.457   0.665 -2.4045 -0.3254 -1.3055
  216MOL0     H29099   0.810   2.742   0.564  3.0494  0.7484  1.0753
  216MOL0     H29100   0.825   2.705   0.733  3.1132 -0.8879 -0.8064
  216MOL0     H29101   0.569   2.611   0.582  2.1727  2.8542 -3.3915
  216MOL0     H29102   0.629   2.565   0.739  2.3543  1.3498  0.5700
  216MOL0     H29103   0.475   2.743   0.776  1.4588 -1.0612  0.5844
  216MOL0     H29104   0.640   2.817   0.775  0.0525 -0.3321  1.4682
  216MOL0     H29105   0.595   2.866   0.519 -1.9008 -0.2708 -2.3666
  216MOL0     H29106   0.436   2.800   0.537  0.4149  1.4317 -2.2933
  216MOL0     H29107   0.422   3.058   0.550  0.6725  1.3357  1.4751
  216MOL0     H29108   0.549   3.060   0.670  0.8994 -1.2015  1.6144
  216MOL0     H29109   0.278   2.963   0.724  0.1381  0.4826  1.3836
  216MOL0     H29110   0.420   2.963   0.834  1.4555 -1.6566 -2.1523
  216MOL0     H29111   0.202   3.144   0.961 -0.1850  1.7705  1.1720
  216MOL0     H29112   0.105   3.499   0.887  0.8902 -0.7108 -0.7937
  216MOL0     H29113   0.039   3.344   0.947 -1.7599  1.0408  4.3051
  216MOL0     H29114   0.212   3.348   1.121  0.9370 -0.0329 -2.1919
  216MOL0     H29115   0.259   3.513   1.071 -1.9699  1.7072 -0.6043
  216MOL0     H29116   0.026   3.574   1.128  0.2740 -0.0345  1.2105
  216MOL0     H29117   0.126   3.523   1.263 -1.2128  3.9104 -0.7326
  216MOL0     H29118  -0.007   3.289   1.236 -1.0378 -1.3328 -2.2515
  216MOL0     H29119  -0.105   3.381   1.123  1.3394  0.0142  0.1154
  216MOL0     H29120  -0.266   3.467   1.525 -0.4660  0.3557  2.6565
  216MOL0     H29121  -0.218   3.402   1.773  2.1497  1.1845  1.7795
  216MOL0     H29122  -0.083   3.069   2.098 -0.1167 -0.3097 -0.3919
  216MOL0     H29123  -0.059   3.057   2.350  2.4601 -0.4168 -1.7662
  216MOL0     H29124   0.129   3.255   2.651  0.0134 -1.0765 -0.1498
  216MOL0     H29125   0.118   3.386   2.524  0.5640  0.2542  0.8060
  216MOL0     H29126   0.030   3.476   2.739 -3.4926  1.2040  2.3786
  216MOL0     H29127  -0.114   3.449   2.629 -0.9182  0.1582 -0.2612
  216MOL0     H29128  -0.175   3.252   2.740 -0.9921  1.1802 -0.7842
  216MOL0     H29129  -0.017   3.241   2.824 -2.7938 -1.1863 -1.0988
  216MOL0     H29130  -0.253   3.385   2.898 -0.3414 -2.0137 -2.1403
  216MOL0     H29131  -0.099   3.475   2.936  0.0715  0.0956  1.6762
  216MOL0     H29132  -0.140   3.195   3.035 -0.8453 -0.7810 -2.6336
  216MOL0     H29133  -0.222   3.329   3.112  1.7600  0.7387  2.1591
  216MOL0     H29134   0.069   3.359   3.035 -1.6775 -0.2557 -0.9369
  216MOL0     H29135  -0.012   3.433   3.173  0.4752  0.2430 -1.9893
  216MOL0     H29136  -0.024   3.185   3.275  1.5566 -3.0845 -1.0724
  216MOL0     H29137   0.132   3.263   3.270 -1.6037 -1.0182  2.0005
  216MOL0     H29138   0.148   3.039   3.178 -0.9366 -0.7780  0.2354
  216MOL0     H29139   0.038   3.084   3.035 -1.6704  2.5807  1.1888
  216MOL0     H29140   0.003   3.476   2.369 -1.9449  1.5261 -0.8855
  216MOL0     H29141  -0.017   3.498   2.136  0.0066 -0.3151  1.0414
  216MOL0     H29142   0.180   3.303   1.663 -0.4924 -0.8905  2.2500
  216MOL0     H29143   0.124   3.339   1.418 -0.6011  1.1245 -0.9466
  216MOL0     H29144   0.554   2.173   0.492  0.5041  0.0946 -0.4356
  216MOL0     H29145   0.396   2.087   0.327  1.1191 -1.6638  0.6979
  216MOL0     H29146  -0.027   2.127   0.098 -1.9462 -1.6831  1.2880
  216MOL0     H29147  -0.152   1.951   0.032  0.5446 -2.5601  0.5898
  216MOL0     H29148   0.046   1.596  -0.205 -2.1405  1.7073 -2.1990
  216MOL0     H29149  -0.111   1.538  -0.177 -1.3930  0.4253  0.9685
  216MOL0     H29150  -0.110   1.582   0.060  1.4069 -1.5110  2.9196
  216MOL0     H29151   0.043   1.651   0.064 -2.3009  2.5714 -0.4455
  216MOL0     H29152   0.149   1.448   0.008  0.3309  0.3276  0.9491
  216MOL0     H29153  -0.002   1.363  -0.013 -0.1193 -0.3692  2.9495
  216MOL0     H29154   0.095   1.516   0.225 -0.6902 -0.0160  0.6388
  216MOL0     H29155  -0.053   1.423   0.232 -0.6818 -2.3816 -1.8167
  216MOL0     H29156   0.236   1.130   0.297  4.1534  1.4433 -3.1932
  216MOL0     H29157   0.179   1.776  -0.192 -0.1081  0.9908 -1.3729
  216MOL0     H29158   0.428   1.942  -0.067  2.5941 -1.9964 -2.8561
  216MOL0     H29159   0.367   1.923  -0.226 -1.4786  0.2007  0.4953
  216MOL0     H29160   0.367   2.087  -0.149 -3.6579  0.6346  2.5033
  217MOL0     O29161  10.281   4.104   4.761 -0.3554 -0.0605  0.2407
  217MOL0     C29162  10.332   4.182   4.845 -0.0542 -0.4223  1.0425
  217MOL0     O29163  10.305   4.323   4.843 -0.3534  0.8084 -0.2504
  217MOL0     C29164  10.250   4.376   4.731  0.5003  0.0542 -0.2617
  217MOL0     C29165  10.178   4.491   4.762  0.1846  0.8344  0.4323
  217MOL0     C29166  10.108   4.557   4.665  0.3820 -0.9220  0.1836
  217MOL0     C29167  10.088   4.502   4.536  0.7915 -0.9108  0.2886
  217MOL0     O29168  10.016   4.555   4.429  1.0462  0.8963  0.8515
  217MOL0     C29169   9.918   4.658   4.452 -0.4032 -0.5034 -0.6071
  217MOL0     C29170   9.826   4.634   4.341 -0.8062 -0.4928  0.3413
  217MOL0     C29171   9.738   4.512   4.383 -0.1861  0.1821 -0.1701
  217MOL0     C29172   9.628   4.488   4.279 -0.1752 -0.5915  0.4362
  217MOL0     C29173   9.575   4.347   4.263  0.1128 -0.5939 -0.0845
  217MOL0     C29174   9.510   4.328   4.128 -1.7939 -0.1740 -0.4278
  217MOL0     C29175   9.389   4.408   4.091 -0.6888  0.3323 -0.3171
  217MOL0     C29176   9.414   4.541   4.024 -0.3576  0.3018  1.0342
  217MOL0     N29177   9.285   4.612   3.986 -0.4239 -0.8952 -0.4286
  217MOL0     C29178   9.195   4.661   4.080 -0.0424 -0.1316 -0.3359
  217MOL0     C29179   9.098   4.721   4.013  0.4106  0.2359  0.2226
  217MOL0     C29180   8.994   4.807   4.073 -0.2504 -0.5807 -0.3470
  217MOL0     C29181   8.906   4.729   4.160  0.1204 -0.1057 -1.5616
  217MOL0     C29182   8.781   4.805   4.212  1.4142 -0.2462 -0.8851
  217MOL0     C29183   8.670   4.721   4.256 -0.3240 -0.4422 -0.5052
  217MOL0     O29184   8.704   4.633   4.362 -0.1221  0.1896 -0.1905
  217MOL0     C29185   8.722   4.665   4.493  0.2788 -0.1329  0.1164
  217MOL0     C29186   8.664   4.777   4.559 -0.2573 -0.1794  0.8037
  217MOL0     C29187   8.709   4.824   4.678  0.0654  0.7773  0.5784
  217MOL0     C29188   8.815   4.761   4.737  0.5116  0.9664 -0.0754
  217MOL0     C29189   8.861   4.811   4.869 -0.2189  0.7849 -0.2334
  217MOL0     O29190   8.990   4.775   4.910 -0.3289 -0.7054  1.2192
  217MOL0     C29191   9.027   4.821   5.032 -0.0407  0.0704 -0.1070
  217MOL0     C29192   9.050   4.726   5.133 -0.5769 -0.1995 -0.5232
  217MOL0     C29193   9.092   4.774   5.263 -0.7413 -0.3533 -0.2257
  217MOL0     C29194   9.120   4.915   5.288  0.2008 -0.2251  0.8424
  217MOL0     O29195   9.172   4.955   5.409  0.6505 -0.7364 -0.2258
  217MOL0     C29196   9.193   5.096   5.434  0.4377  0.2557  0.9999
  217MOL0     C29197   9.262   5.126   5.563  0.5944 -0.0281  0.1785
  217MOL0     C29198   9.391   5.051   5.584  1.8699 -0.0962  0.5650
  217MOL0     C29199   9.467   5.125   5.696  0.2173  0.4501 -0.3301
  217MOL0     C29200   9.573   5.025   5.744 -1.0138  0.1779  0.5056
  217MOL0     C29201   9.547   4.996   5.892  0.3529  0.7380  0.3047
  217MOL0     C29202   9.566   5.106   5.999 -0.4946 -0.2906  0.8380
  217MOL0     C29203   9.696   5.190   5.982  0.5605 -0.2590 -0.3104
  217MOL0    Cl29204   9.849   5.100   5.949  0.1533 -0.5304  0.2131
  217MOL0     C29205   9.085   5.006   5.182 -0.2712  1.0189  0.4403
  217MOL0     C29206   9.041   4.954   5.059  0.0068 -0.8251 -0.3220
  217MOL0     O29207   8.787   4.889   4.922  0.3843 -0.3884  0.0154
  217MOL0     C29208   8.877   4.646   4.677 -0.0981  0.1072 -1.1861
  217MOL0     C29209   8.830   4.602   4.556 -0.3729  1.2106  0.7502
  217MOL0     N29210   9.107   4.696   3.880  0.8449 -0.0840 -0.2028
  217MOL0     N29211   9.224   4.626   3.868 -0.6147  0.0046 -0.0730
  217MOL0     C29212  10.167   4.386   4.510  0.1787  0.5389  1.3259
  217MOL0     C29213  10.249   4.327   4.604  0.2177 -0.9175  0.1076
  217MOL0     C29214  10.389   4.125   4.967 -0.3091  0.1802 -0.5025
  217MOL0     C29215  10.475   4.023   4.948 -0.1476  1.5317 -0.3444
  217MOL0     C29216  10.528   3.960   5.054  1.6873  0.6287  0.3183
  217MOL0     C29217  10.510   4.017   5.182  0.6941 -0.1049 -1.0497
  217MOL0     O29218  10.568   3.959   5.290 -0.8823  0.3658  0.1288
  217MOL0     C29219  10.590   3.813   5.302  0.4943 -0.5525 -0.3246
  217MOL0     C29220  10.746   3.771   5.311 -0.0121  0.2815  0.2375
  217MOL0     C29221  10.810   3.858   5.415  0.2746  0.2290 -0.1309
  217MOL0     C29222  10.951   3.802   5.459 -0.3122 -0.4756  0.0300
  217MOL0     C29223  11.019   3.712   5.365  0.3754 -2.0673  0.1633
  217MOL0     C29224  11.071   3.636   5.282 -0.2846  0.3566 -0.9019
  217MOL0     C29225  10.429   4.123   5.201 -0.7387  0.1992  0.3418
  217MOL0     C29226  10.362   4.176   5.093 -0.5250  0.8051  0.6859
  217MOL0     C29227  10.262   4.279   5.129 -0.2306 -0.2018 -0.4342
  217MOL0     H29228  10.160   4.514   4.866  0.0599  1.1125  0.3502
  217MOL0     H29229  10.053   4.646   4.693  1.0472 -0.9250  1.5817
  217MOL0     H29230   9.861   4.664   4.545  0.1944  1.1794 -0.3034
  217MOL0     H29231   9.958   4.759   4.436 -2.6665  0.5385 -0.1198
  217MOL0     H29232   9.874   4.609   4.246  0.0032 -2.1843  1.1535
  217MOL0     H29233   9.768   4.725   4.325 -1.8222 -1.4037 -1.3418
  217MOL0     H29234   9.689   4.537   4.477  0.2749 -2.5509  0.8849
  217MOL0     H29235   9.794   4.420   4.401 -1.1126 -0.1510  1.1025
  217MOL0     H29236   9.546   4.557   4.301 -0.4864 -0.4290 -1.0691
  217MOL0     H29237   9.661   4.526   4.182 -0.4477  2.8812  1.5647
  217MOL0     H29238   9.655   4.280   4.294  1.3699  0.3108 -1.2368
  217MOL0     H29239   9.511   4.325   4.348  2.6816 -1.6268  1.6915
  217MOL0     H29240   9.582   4.343   4.047 -0.7787 -2.2275  0.0147
  217MOL0     H29241   9.491   4.220   4.132 -3.7590  0.1556  2.2818
  217MOL0     H29242   9.351   4.435   4.190  2.3844  0.4031  0.9796
  217MOL0     H29243   9.319   4.340   4.043 -0.8500  0.4984 -0.3170
  217MOL0     H29244   9.487   4.609   4.070 -0.6385 -0.7197  3.1251
  217MOL0     H29245   9.468   4.526   3.930  1.5627  2.3636  1.6878
  217MOL0     H29246   9.213   4.651   4.187 -0.5914 -1.0169 -0.3181
  217MOL0     H29247   9.035   4.885   4.138 -1.0163  0.1948 -0.7666
  217MOL0     H29248   8.943   4.861   3.992  0.3201  0.4925 -0.0177
  217MOL0     H29249   8.880   4.643   4.099 -0.6477 -0.1094 -1.2387
  217MOL0     H29250   8.965   4.694   4.245 -0.8490 -1.9791 -1.6244
  217MOL0     H29251   8.747   4.860   4.124  2.4839  2.1535  0.1218
  217MOL0     H29252   8.815   4.875   4.288  1.6904 -0.2035 -1.0459
  217MOL0     H29253   8.632   4.675   4.164  0.2878  1.1458 -1.6135
  217MOL0     H29254   8.606   4.802   4.291  2.2174  1.0095  1.0804
  217MOL0     H29255   8.596   4.842   4.506  1.2061  1.1476  0.4938
  217MOL0     H29256   8.665   4.913   4.722 -0.2023  0.3877  1.1096
  217MOL0     H29257   9.029   4.621   5.113  1.2131 -0.4702 -1.2545
  217MOL0     H29258   9.098   4.698   5.341  1.0326 -0.1215 -0.0829
  217MOL0     H29259   9.244   5.133   5.345 -0.6461 -3.3240 -1.2740
  217MOL0     H29260   9.093   5.140   5.444  0.3005 -0.0006  0.7493
  217MOL0     H29261   9.289   5.232   5.565 -0.5779  0.2851  2.3555
  217MOL0     H29262   9.203   5.095   5.650  0.5413 -0.3047  0.0451
  217MOL0     H29263   9.370   4.946   5.601  0.5131  0.5768  3.6851
  217MOL0     H29264   9.441   5.062   5.487  2.4148 -0.8974  0.7454
  217MOL0     H29265   9.404   5.149   5.782 -0.5889 -0.7657 -0.5539
  217MOL0     H29266   9.509   5.218   5.657 -1.7633  1.1992 -0.8167
  217MOL0     H29267   9.670   5.074   5.732 -1.9096  1.7485 -0.7250
  217MOL0     H29268   9.565   4.928   5.695 -1.4779  1.0274 -1.1490
  217MOL0     H29269   9.451   4.944   5.902  0.7031 -0.4376 -1.8562
  217MOL0     H29270   9.617   4.916   5.918  1.1190  1.0406 -0.7704
  217MOL0     H29271   9.569   5.056   6.096  0.0521 -0.5647  0.6860
  217MOL0     H29272   9.480   5.173   5.993 -0.4206 -0.2733 -0.3811
  217MOL0     H29273   9.682   5.260   5.899 -0.4382  0.6534  0.5875
  217MOL0     H29274   9.703   5.253   6.072 -2.2963 -0.6813  0.2982
  217MOL0     H29275   9.101   5.113   5.180  0.1282  0.9789 -1.8553
  217MOL0     H29276   9.012   5.032   4.989 -2.6390 -0.1615  1.3625
  217MOL0     H29277   8.950   4.581   4.725  1.5950  2.9137  0.2512
  217MOL0     H29278   8.875   4.518   4.503  0.9484  3.2438 -1.5936
  217MOL0     H29279  10.175   4.349   4.408  0.0194 -1.7516  2.0687
  217MOL0     H29280  10.310   4.242   4.573  1.3036  0.2205 -0.9910
  217MOL0     H29281  10.488   3.980   4.849  0.3134 -0.0202  0.3459
  217MOL0     H29282  10.602   3.882   5.045  3.8812  2.7622 -1.1599
  217MOL0     H29283  10.542   3.754   5.224  1.3565 -3.2395  1.0483
  217MOL0     H29284  10.549   3.784   5.399  1.4131  1.1883  0.6511
  217MOL0     H29285  10.801   3.792   5.219 -0.1974 -0.4554 -0.0451
  217MOL0     H29286  10.749   3.664   5.334 -2.2077  0.6411  2.6834
  217MOL0     H29287  10.748   3.834   5.502 -1.3679 -1.3737 -1.6537
  217MOL0     H29288  10.824   3.960   5.380 -0.0868  0.0336 -0.8480
  217MOL0     H29289  11.011   3.888   5.489 -0.5480  0.2969 -1.6104
  217MOL0     H29290  10.943   3.745   5.553 -0.7541 -2.1302 -0.9579
  217MOL0     H29291  11.118   3.564   5.218  0.5620 -0.6857  0.8299
  217MOL0     H29292  10.412   4.168   5.298 -1.4100 -1.4620  1.0264
  217MOL0     H29293  10.262   4.290   5.237  2.9668 -2.8417 -0.0142
  217MOL0     H29294  10.287   4.370   5.073  1.1894  0.3110  0.9896
  217MOL0     H29295  10.167   4.229   5.105 -0.9559  1.8268 -2.1992
  218MOL0     O29296   0.098   9.416   3.429  0.2627 -0.3129  0.5164
  218MOL0     C29297   0.140   9.311   3.373 -0.2014 -0.1290 -0.4067
  218MOL0     O29298   0.255   9.249   3.391 -0.0601  1.0064 -0.2135
  218MOL0     C29299   0.355   9.306   3.470  0.8398 -0.1666 -0.1958
  218MOL0     C29300   0.488   9.277   3.438  0.8930 -0.4290  0.5108
  218MOL0     C29301   0.598   9.336   3.504  0.5220  0.3945  1.2057
  218MOL0     C29302   0.576   9.428   3.601  0.0581  0.1993  0.0195
  218MOL0     O29303   0.689   9.467   3.663 -0.5083 -0.2518 -0.1745
  218MOL0     C29304   0.679   9.559   3.775  0.3469 -0.1035  0.4049
  218MOL0     C29305   0.818   9.614   3.814 -0.2431 -0.3174 -0.4298
  218MOL0     C29306   0.825   9.700   3.942 -0.4666 -0.6929  0.3661
  218MOL0     C29307   0.935   9.810   3.949 -0.1861  0.8298 -0.0824
  218MOL0     C29308   1.076   9.753   3.937 -0.0197  1.1666 -0.6735
  218MOL0     C29309   1.173   9.867   3.909  0.2539 -0.7551  0.4232
  218MOL0     C29310   1.170  10.000   3.998  0.0199  0.3621  0.1502
  218MOL0     C29311   1.241  10.119   3.934 -0.6329  0.5790 -0.0213
  218MOL0     N29312   1.386  10.072   3.900  0.2444 -0.1521 -0.3014
  218MOL0     C29313   1.444  10.083   3.773  0.6300 -0.6483 -0.7243
  218MOL0     C29314   1.574  10.044   3.800  0.2719 -1.0029  0.4478
  218MOL0     C29315   1.684  10.035   3.702 -0.0745 -0.6360 -0.4908
  218MOL0     C29316   1.712  10.174   3.627  0.2465  0.1698  0.6400
  218MOL0     C29317   1.796  10.267   3.722 -0.6117 -0.1870  0.2953
  218MOL0     C29318   1.726  10.338   3.836 -1.1137  0.7282  0.0511
  218MOL0     O29319   1.592  10.371   3.824  0.5370 -0.0660  0.0232
  218MOL0     C29320   1.531  10.415   3.942  0.1782 -1.3223 -0.3803
  218MOL0     C29321   1.400  10.471   3.925 -0.6919  0.1031  0.2875
  218MOL0     C29322   1.318  10.505   4.034 -0.3828  0.0694  0.5617
  218MOL0     C29323   1.365  10.494   4.168  0.2944  0.4931  0.3681
  218MOL0     C29324   1.276  10.529   4.286 -0.8050 -0.7229 -0.3076
  218MOL0     O29325   1.343  10.563   4.399 -0.8041 -0.1193 -0.1590
  218MOL0     C29326   1.267  10.583   4.512 -0.0879  0.0504  0.8234
  218MOL0     C29327   1.260  10.482   4.603  0.2280  1.2183 -0.4994
  218MOL0     C29328   1.196  10.493   4.733  0.7855 -1.2604  0.9313
  218MOL0     C29329   1.148  10.618   4.766  0.7523  0.4350 -0.0391
  218MOL0     O29330   1.089  10.636   4.891  0.1437  0.2532 -0.0023
  218MOL0     C29331   1.181  10.680   4.998  0.4019 -0.2218  0.7856
  218MOL0     C29332   1.116  10.712   5.132 -0.0822  0.7693  0.2630
  218MOL0     C29333   1.052  10.568   5.179  1.1317  0.0826 -0.0344
  218MOL0     C29334   1.051  10.563   5.339 -0.1448  0.9110  0.5341
  218MOL0     C29335   1.025  10.430   5.408 -0.1777 -0.1434  0.3861
  218MOL0     C29336   1.022  10.450   5.559  0.3079  0.5115 -0.9640
  218MOL0     C29337   0.967  10.333   5.640 -0.0481 -0.1761  0.8274
  218MOL0     C29338   1.058  10.304   5.766  0.1890 -0.5517  0.3251
  218MOL0    Cl29339   1.219  10.289   5.725 -0.3269 -0.6238 -0.6119
  218MOL0     C29340   1.133  10.720   4.672 -0.4936 -0.6210 -0.1447
  218MOL0     C29341   1.201  10.706   4.545  0.1052  0.1734 -0.6020
  218MOL0     O29342   1.152  10.530   4.275  0.0087 -0.4817  0.0240
  218MOL0     C29343   1.499  10.451   4.187  0.2949  0.4097 -0.3176
  218MOL0     C29344   1.585  10.415   4.078 -0.7350 -0.1669  0.6117
  218MOL0     N29345   1.584  10.020   3.936 -0.2071 -0.3954  0.2727
  218MOL0     N29346   1.470  10.032   3.994  0.1524 -0.4918 -0.4093
  218MOL0     C29347   0.446   9.469   3.636  0.4935 -0.2238 -0.2568
  218MOL0     C29348   0.338   9.404   3.576 -0.1630  0.1813 -0.6289
  218MOL0     C29349   0.044   9.261   3.274 -0.0681  0.4105 -0.8183
  218MOL0     C29350  -0.082   9.219   3.329  0.1114  0.0182  0.4786
  218MOL0     C29351  -0.168   9.144   3.260 -0.3103 -0.1604  0.6970
  218MOL0     C29352  -0.139   9.106   3.128 -0.2577  0.0501  0.0140
  218MOL0     O29353  -0.221   9.025   3.065  0.0897 -0.1252  0.0660
  218MOL0     C29354  -0.171   8.906   3.003 -0.1467 -0.4480  0.6499
  218MOL0     C29355  -0.270   8.864   2.895 -0.4126  0.1887  0.1418
  218MOL0     C29356  -0.195   8.845   2.764  0.0916 -0.7078 -0.3894
  218MOL0     C29357  -0.087   8.732   2.757 -0.5012 -0.0553  0.3308
  218MOL0     C29358  -0.020   8.735   2.627  0.4547 -0.2459  0.6417
  218MOL0     C29359   0.044   8.728   2.527  0.3901  0.2219  0.2950
  218MOL0     C29360  -0.027   9.154   3.067 -1.1359  0.2856 -0.0731
  218MOL0     C29361   0.071   9.229   3.141  0.6379 -0.1652 -0.0483
  218MOL0     C29362   0.195   9.274   3.063 -0.3512  0.4640 -0.3134
  218MOL0     H29363   0.517   9.210   3.357  2.1472  1.1106 -0.3837
  218MOL0     H29364   0.701   9.313   3.479  0.1045  0.5594 -0.7682
  218MOL0     H29365   0.614   9.642   3.747  1.4886  1.6484  2.6169
  218MOL0     H29366   0.627   9.511   3.858  0.1546  1.2230  1.0812
  218MOL0     H29367   0.874   9.650   3.727  2.5531 -0.0969  1.3544
  218MOL0     H29368   0.876   9.524   3.836 -3.7151 -2.4027  1.0604
  218MOL0     H29369   0.823   9.645   4.037 -0.2440 -0.9496  0.2258
  218MOL0     H29370   0.731   9.756   3.935  0.2755  0.3819 -3.3188
  218MOL0     H29371   0.924   9.880   3.865  0.3712  1.5893  0.4606
  218MOL0     H29372   0.920   9.871   4.039  1.4001 -1.7151  2.0471
  218MOL0     H29373   1.099   9.694   4.027  2.1486  0.8383 -1.3738
  218MOL0     H29374   1.083   9.685   3.852  1.1975 -0.8688  0.9444
  218MOL0     H29375   1.276   9.832   3.923  0.8086 -0.3931 -2.2431
  218MOL0     H29376   1.157   9.904   3.807 -0.4012  1.6092  1.3119
  218MOL0     H29377   1.216   9.981   4.095  0.5714 -1.0507 -0.3479
  218MOL0     H29378   1.063  10.022   4.009 -0.0661  0.8480 -1.3911
  218MOL0     H29379   1.198  10.148   3.838  0.5400  1.1040 -0.4050
  218MOL0     H29380   1.251  10.210   3.993  0.0154  0.7496 -0.3822
  218MOL0     H29381   1.402  10.121   3.680  0.5822 -0.0942 -0.4800
  218MOL0     H29382   1.774   9.979   3.729  1.5832  0.4203 -3.4057
  218MOL0     H29383   1.637   9.970   3.627 -1.6399  0.9790 -0.9935
  218MOL0     H29384   1.745  10.151   3.525  0.0625  3.8571 -0.4058
  218MOL0     H29385   1.623  10.231   3.598 -0.7999 -0.7317  1.9423
  218MOL0     H29386   1.844  10.341   3.658 -2.1137 -0.2232 -0.9186
  218MOL0     H29387   1.867  10.200   3.773 -0.2720  0.0019  0.0747
  218MOL0     H29388   1.788  10.417   3.879 -0.4215 -0.2948  1.0065
  218MOL0     H29389   1.722  10.258   3.911 -0.1320  0.5874 -0.0421
  218MOL0     H29390   1.355  10.478   3.827  0.3928 -0.6261 -0.2768
  218MOL0     H29391   1.225  10.541   3.993  1.2520  3.8612 -0.2288
  218MOL0     H29392   1.316  10.394   4.575  0.0710  1.2245 -0.8357
  218MOL0     H29393   1.191  10.407   4.799 -2.7636  1.0403  4.1401
  218MOL0     H29394   1.261  10.606   5.006 -0.0916 -0.6389  2.4219
  218MOL0     H29395   1.230  10.774   4.972  0.9605 -0.5694  0.5588
  218MOL0     H29396   1.197  10.729   5.203  0.7863 -0.5035 -0.3916
  218MOL0     H29397   1.047  10.796   5.124 -1.1525 -0.0816  0.3227
  218MOL0     H29398   0.958  10.545   5.128  1.9247 -1.7741 -0.7707
  218MOL0     H29399   1.121  10.491   5.143 -0.8539 -1.6057 -0.4311
  218MOL0     H29400   0.987  10.645   5.372  1.6125  1.3560  3.1413
  218MOL0     H29401   1.153  10.595   5.362  1.9331 -1.2041 -4.3646
  218MOL0     H29402   1.097  10.350   5.388  1.6231  1.2568  1.0023
  218MOL0     H29403   0.924  10.413   5.369  0.0689 -3.1628  0.8259
  218MOL0     H29404   1.121  10.484   5.590 -1.3733  2.9157  2.4517
  218MOL0     H29405   0.958  10.537   5.578 -1.5426 -0.7488 -1.2160
  218MOL0     H29406   0.963  10.240   5.583 -1.4821 -0.5424  1.4857
  218MOL0     H29407   0.864  10.362   5.663 -0.7683  0.5585 -2.7769
  218MOL0     H29408   1.028  10.359   5.856 -1.8342 -2.3078  0.8082
  218MOL0     H29409   1.022  10.208   5.804  0.6609 -0.1172  1.9266
  218MOL0     H29410   1.069  10.803   4.703 -2.2462 -2.2795  0.8928
  218MOL0     H29411   1.194  10.785   4.471 -0.0938  0.3265 -0.4205
  218MOL0     H29412   1.532  10.425   4.287 -1.8024 -0.0149  0.3105
  218MOL0     H29413   1.683  10.377   4.104 -1.6412 -3.9087 -0.7859
  218MOL0     H29414   0.424   9.552   3.702  3.9914  0.7187 -0.0780
  218MOL0     H29415   0.235   9.434   3.592 -1.2898 -2.6873 -1.8860
  218MOL0     H29416  -0.112   9.244   3.430 -0.5336  3.0240 -0.3694
  218MOL0     H29417  -0.265   9.105   3.290 -0.5911  0.1946  0.2776
  218MOL0     H29418  -0.168   8.827   3.078 -0.3774 -1.1231 -0.0430
  218MOL0     H29419  -0.071   8.935   2.967 -0.3668 -2.9749 -2.3998
  218MOL0     H29420  -0.354   8.934   2.893 -1.6511 -1.2703 -1.1346
  218MOL0     H29421  -0.315   8.769   2.925 -0.4182 -0.7033 -2.4838
  218MOL0     H29422  -0.156   8.945   2.740 -2.6508  0.9529  1.4287
  218MOL0     H29423  -0.277   8.818   2.697  0.3342 -0.4402 -0.7918
  218MOL0     H29424  -0.007   8.742   2.831 -1.5685 -0.3315  1.5590
  218MOL0     H29425  -0.124   8.630   2.771 -1.1607  0.2552  0.9136
  218MOL0     H29426   0.095   8.718   2.433  0.3891  4.2905 -0.3323
  218MOL0     H29427   0.003   9.131   2.965 -0.2037 -0.0719  0.2664
  218MOL0     H29428   0.266   9.324   3.130 -1.4438  0.5767  0.7874
  218MOL0     H29429   0.251   9.191   3.020 -0.9428  0.3550 -0.8856
  218MOL0     H29430   0.165   9.338   2.979  2.0497  0.9058 -0.9233
  219MOL0     O29431  10.744   0.493   4.309 -0.1800 -0.4076  0.2069
  219MOL0     C29432  10.862   0.474   4.279  0.4343  0.0401 -0.3015
  219MOL0     O29433  10.954   0.401   4.360 -0.1056  0.2638  0.6044
  219MOL0     C29434  10.899   0.363   4.479  0.3484  0.3936 -0.1323
  219MOL0     C29435  10.847   0.231   4.483 -0.3266 -0.1695 -0.0685
  219MOL0     C29436  10.796   0.195   4.608 -0.5574  0.3983 -0.0235
  219MOL0     C29437  10.789   0.266   4.727 -0.6535 -0.2007  0.1376
  219MOL0     O29438  10.731   0.211   4.831  0.3042  0.3250 -0.7156
  219MOL0     C29439  10.775   0.254   4.959 -0.4166  1.2972  0.2411
  219MOL0     C29440  10.725   0.166   5.066  0.3710 -0.4355  0.1995
  219MOL0     C29441  10.749   0.219   5.203 -0.0487 -1.1699  0.5425
  219MOL0     C29442  10.889   0.184   5.255  0.0306 -0.1720  0.0088
  219MOL0     C29443  10.957   0.278   5.362  0.3826  0.1471 -1.3575
  219MOL0     C29444  10.915   0.235   5.504  0.0690  0.2085  0.6841
  219MOL0     C29445  11.011   0.143   5.593 -0.1465 -0.6329  0.9553
  219MOL0     C29446  10.974   0.117   5.737  0.4988  0.0667  0.2846
  219MOL0     N29447  10.828   0.081   5.742  0.2524 -0.4333  0.4475
  219MOL0     C29448  10.764  -0.018   5.676  1.1859  0.8580 -0.4870
  219MOL0     C29449  10.636   0.007   5.700  0.7279 -0.0261  1.1240
  219MOL0     C29450  10.519  -0.068   5.639 -0.4653 -0.0805 -0.3615
  219MOL0     C29451  10.516  -0.030   5.485 -0.5100 -0.5082  0.2230
  219MOL0     C29452  10.388  -0.089   5.418 -0.4537 -0.4088 -0.0782
  219MOL0     C29453  10.385  -0.042   5.273 -0.4844 -0.1768  0.5352
  219MOL0     O29454  10.485  -0.110   5.198  0.2977  0.3644 -0.0168
  219MOL0     C29455  10.475  -0.108   5.057 -0.5122  0.1706  0.4119
  219MOL0     C29456  10.579  -0.169   4.979  0.5744  0.3322  0.9888
  219MOL0     C29457  10.588  -0.147   4.845  0.7700  1.0924  0.0101
  219MOL0     C29458  10.491  -0.070   4.774 -0.3136  0.4817  0.6064
  219MOL0     C29459  10.497  -0.037   4.631 -0.3682  0.5538 -0.6190
  219MOL0     O29460  10.596  -0.099   4.560  0.2994  0.2235 -1.3972
  219MOL0     C29461  10.600  -0.114   4.425 -0.1756 -0.6216  0.8554
  219MOL0     C29462  10.489  -0.104   4.343  0.8515  0.6002  0.6190
  219MOL0     C29463  10.503  -0.101   4.198 -0.6191 -0.8544  0.4413
  219MOL0     C29464  10.629  -0.090   4.125  0.5464  1.0662 -0.3526
  219MOL0     O29465  10.638  -0.083   3.988  0.8061 -0.5612  0.0424
  219MOL0     C29466  10.767  -0.063   3.921 -1.0246 -0.4561 -0.7476
  219MOL0     C29467  10.745  -0.027   3.777 -0.8952  0.8985 -1.2079
  219MOL0     C29468  10.863   0.046   3.707  0.2225 -0.1272  0.0792
  219MOL0     C29469  10.982  -0.047   3.689  0.1247  0.2794 -0.1762
  219MOL0     C29470  11.086   0.022   3.595 -0.6169  0.4351 -0.4031
  219MOL0     C29471  11.164   0.135   3.672  0.0265  0.1661  0.2431
  219MOL0     C29472  11.283   0.179   3.582  0.2819 -0.3866 -0.8971
  219MOL0     C29473  11.382   0.243   3.676  0.3483 -0.2181  0.7895
  219MOL0    Cl29474  11.294   0.390   3.720 -0.3384  0.0582 -0.0249
  219MOL0     C29475  10.738  -0.099   4.210 -0.9368  0.3895  0.0543
  219MOL0     C29476  10.725  -0.114   4.349  0.1996 -0.0521 -0.1049
  219MOL0     O29477  10.410   0.024   4.584  0.6966 -0.5459  0.5174
  219MOL0     C29478  10.381  -0.030   4.844 -0.5086 -0.4292 -0.4477
  219MOL0     C29479  10.384  -0.037   4.988  0.7383 -1.1396 -0.3539
  219MOL0     N29480  10.624   0.116   5.786 -0.6707 -0.0049  0.2022
  219MOL0     N29481  10.741   0.161   5.817  0.9904  0.1993 -0.9652
  219MOL0     C29482  10.852   0.392   4.719  0.1892  0.0294 -1.0550
  219MOL0     C29483  10.888   0.440   4.597 -0.2692 -0.3999  0.2114
  219MOL0     C29484  10.913   0.534   4.157 -0.0301  0.4811 -0.0071
  219MOL0     C29485  10.867   0.664   4.126 -0.7086 -0.8023 -0.0805
  219MOL0     C29486  10.920   0.730   4.005  0.0226 -0.0337 -0.8020
  219MOL0     C29487  11.009   0.663   3.922 -0.1550  0.1642  0.7188
  219MOL0     O29488  11.055   0.748   3.826 -0.3054 -0.6301  0.2286
  219MOL0     C29489  11.188   0.790   3.853  0.3710 -0.2120  1.0609
  219MOL0     C29490  11.189   0.935   3.860 -0.0473 -0.6214 -0.3750
  219MOL0     C29491  11.130   0.986   3.991  0.6295 -0.3124 -0.4609
  219MOL0     C29492  11.167   1.121   4.037 -0.3322 -0.2298 -0.6658
  219MOL0     C29493  11.224   1.220   3.945  0.3500 -1.7219 -0.1507
  219MOL0     C29494  11.269   1.312   3.875 -0.2902  0.6321 -0.0129
  219MOL0     C29495  11.057   0.536   3.968 -0.8781 -0.1620 -0.5665
  219MOL0     C29496  11.010   0.465   4.078  0.1583 -0.0360  0.3469
  219MOL0     C29497  11.056   0.322   4.094  0.3251 -0.4014  0.6546
  219MOL0     H29498  10.854   0.164   4.399 -0.7662 -0.3011  0.0003
  219MOL0     H29499  10.757   0.095   4.627 -1.9738  0.8314 -0.5073
  219MOL0     H29500  10.884   0.269   4.954 -0.3598  1.1503  0.9363
  219MOL0     H29501  10.725   0.346   4.991 -2.0523  0.2891  0.6725
  219MOL0     H29502  10.760   0.064   5.049  1.5665 -0.6884  3.3822
  219MOL0     H29503  10.618   0.178   5.051  0.5706 -1.7206 -3.0411
  219MOL0     H29504  10.669   0.196   5.274  0.0534  0.2300  1.1582
  219MOL0     H29505  10.746   0.328   5.194  0.0030 -1.1235  1.0541
  219MOL0     H29506  10.891   0.080   5.289 -0.9180  0.3217  1.7107
  219MOL0     H29507  10.944   0.199   5.162 -3.5466  0.5404 -2.1999
  219MOL0     H29508  11.066   0.286   5.359  0.6305 -2.4404 -1.4968
  219MOL0     H29509  10.915   0.376   5.338 -2.2001 -0.6215 -0.3405
  219MOL0     H29510  10.913   0.333   5.553 -1.7987  2.0698 -2.6603
  219MOL0     H29511  10.816   0.189   5.495  0.6272 -0.7153 -1.5570
  219MOL0     H29512  11.111   0.187   5.589  0.6773 -2.3477  1.4969
  219MOL0     H29513  11.026   0.050   5.536  2.9737 -0.6760  1.6844
  219MOL0     H29514  11.046   0.045   5.776 -2.4311 -2.7578  0.9876
  219MOL0     H29515  10.973   0.207   5.799 -1.1137  0.2169  0.0923
  219MOL0     H29516  10.794  -0.091   5.602 -0.1630 -0.4006  0.1589
  219MOL0     H29517  10.537  -0.175   5.657 -0.1643  0.1431  0.7290
  219MOL0     H29518  10.433  -0.029   5.694 -0.6976 -1.5827  0.3935
  219MOL0     H29519  10.511   0.079   5.493 -0.0075 -0.5979  2.4080
  219MOL0     H29520  10.608  -0.056   5.433  0.1285 -1.5459  1.8243
  219MOL0     H29521  10.298  -0.048   5.466 -0.6443 -0.0630 -0.7175
  219MOL0     H29522  10.395  -0.197   5.426 -0.4884 -0.4535 -0.6151
  219MOL0     H29523  10.389   0.066   5.260 -5.5629  0.0474 -1.7942
  219MOL0     H29524  10.288  -0.053   5.222 -0.1132 -3.5769  0.3093
  219MOL0     H29525  10.662  -0.216   5.031  2.3566  1.3694 -0.7847
  219MOL0     H29526  10.667  -0.197   4.791 -1.0581  0.5012 -2.2502
  219MOL0     H29527  10.389  -0.106   4.384  0.0988 -2.7637 -1.0024
  219MOL0     H29528  10.417  -0.108   4.132  1.2329 -0.5175 -2.1823
  219MOL0     H29529  10.824   0.019   3.965 -2.3413 -0.0887  0.3144
  219MOL0     H29530  10.823  -0.157   3.923 -1.6250 -0.8283 -0.8984
  219MOL0     H29531  10.725  -0.120   3.724  0.1915 -1.2704  1.9360
  219MOL0     H29532  10.663   0.046   3.786  0.6480  2.4082  2.2049
  219MOL0     H29533  10.829   0.080   3.609  2.1544  1.1019 -0.2339
  219MOL0     H29534  10.895   0.133   3.765  0.9481  0.0617 -0.5820
  219MOL0     H29535  10.941  -0.140   3.648 -0.1444 -0.0225  0.7587
  219MOL0     H29536  11.032  -0.087   3.778 -0.9838 -0.4509  0.1492
  219MOL0     H29537  11.036   0.065   3.507  3.3330  0.9052 -2.6503
  219MOL0     H29538  11.153  -0.056   3.558 -2.5194 -1.8148  0.5991
  219MOL0     H29539  11.104   0.226   3.684  1.8195  1.9086 -2.6964
  219MOL0     H29540  11.199   0.101   3.769  2.8622  2.7470  0.2527
  219MOL0     H29541  11.243   0.245   3.504 -1.8629 -1.5312 -0.8475
  219MOL0     H29542  11.333   0.088   3.546  1.2327  0.1146 -0.8662
  219MOL0     H29543  11.407   0.167   3.751  2.0362 -2.4855 -1.8701
  219MOL0     H29544  11.480   0.263   3.634  0.3108 -1.4826  0.0371
  219MOL0     H29545  10.840  -0.092   4.174 -0.7840  2.1018  0.7566
  219MOL0     H29546  10.805  -0.143   4.416 -1.3368  0.9918  2.2857
  219MOL0     H29547  10.302   0.031   4.801 -0.9008  0.6031  1.5938
  219MOL0     H29548  10.304   0.016   5.039  1.1989 -1.2992  0.5439
  219MOL0     H29549  10.851   0.455   4.807  0.3674 -1.9903  0.4550
  219MOL0     H29550  10.921   0.544   4.601 -0.8113 -0.2340  3.5494
  219MOL0     H29551  10.805   0.727   4.188  0.5497  0.9750 -0.5396
  219MOL0     H29552  10.895   0.832   3.978  0.5969  0.4177  0.2827
  219MOL0     H29553  11.244   0.750   3.768 -1.1523 -0.7714  0.2864
  219MOL0     H29554  11.218   0.739   3.946  0.4346 -1.9675  0.1205
  219MOL0     H29555  11.130   0.983   3.782  0.3758 -0.4386 -0.5871
  219MOL0     H29556  11.294   0.964   3.849 -0.1036 -0.5959 -0.8534
  219MOL0     H29557  11.134   0.911   4.071 -0.9947  0.7882  0.7126
  219MOL0     H29558  11.023   0.995   3.969  1.0351 -0.3909 -2.6581
  219MOL0     H29559  11.073   1.173   4.059  2.4481  4.9316  0.5053
  219MOL0     H29560  11.230   1.116   4.126 -0.7500  1.3820 -0.2565
  219MOL0     H29561  11.315   1.391   3.819 -1.3751  0.9682 -0.4508
  219MOL0     H29562  11.136   0.490   3.908 -0.3889 -0.1606  0.0719
  219MOL0     H29563  11.096   0.289   3.997  1.4511  0.1811  0.9019
  219MOL0     H29564  11.145   0.315   4.158  1.6441 -0.6279 -1.1125
  219MOL0     H29565  10.975   0.256   4.126 -0.5301  0.5733  0.5431
  220MOL0     O29566   0.317   3.655   2.504  0.0504 -0.2483  0.0087
  220MOL0     C29567   0.420   3.722   2.538  0.0699 -0.4314  0.6864
  220MOL0     O29568   0.424   3.828   2.618  1.3661  0.5015 -0.0892
  220MOL0     C29569   0.357   3.822   2.740 -0.2078  0.8575  0.0019
  220MOL0     C29570   0.321   3.695   2.799  0.1495  0.4900 -0.8802
  220MOL0     C29571   0.267   3.698   2.931  0.5208  0.8500  0.6447
  220MOL0     C29572   0.240   3.816   2.989  1.4097  0.4833 -0.4287
  220MOL0     O29573   0.218   3.794   3.127  0.9295 -0.2949  0.3675
  220MOL0     C29574   0.181   3.906   3.201 -0.6164  0.2925 -1.0129
  220MOL0     C29575   0.111   3.870   3.334 -1.1849 -0.4991  0.3322
  220MOL0     C29576  -0.031   3.802   3.309 -0.3994  0.2029  0.4364
  220MOL0     C29577  -0.085   3.752   3.445 -0.1548  0.2215  0.8907
  220MOL0     C29578  -0.042   3.611   3.476  0.2316  0.3382 -0.4550
  220MOL0     C29579  -0.125   3.534   3.580 -0.2191  0.0390  0.0084
  220MOL0     C29580  -0.081   3.391   3.602  0.8735 -0.3386  0.2119
  220MOL0     C29581  -0.158   3.312   3.706  1.6141 -0.0794  0.1552
  220MOL0     N29582  -0.289   3.269   3.664  0.2422  0.1758  0.0423
  220MOL0     C29583  -0.314   3.208   3.541 -0.2378  1.8292 -0.1915
  220MOL0     C29584  -0.450   3.186   3.545  0.2991  0.4947  0.3014
  220MOL0     C29585  -0.531   3.111   3.442  0.4156 -0.5262 -0.6183
  220MOL0     C29586  -0.545   3.187   3.313 -0.8935  0.1454  0.0050
  220MOL0     C29587  -0.640   3.118   3.204 -1.2000  0.0733 -0.0574
  220MOL0     C29588  -0.797   3.109   3.241  1.1186  0.7083  0.0956
  220MOL0     O29589  -0.869   3.100   3.115  0.7900 -0.4062 -0.8280
  220MOL0     C29590  -1.013   3.091   3.125 -1.9561 -0.3723  0.3829
  220MOL0     C29591  -1.086   3.078   3.241  0.0980  0.5694  0.3103
  220MOL0     C29592  -1.221   3.043   3.234 -0.4941 -0.1407  0.1482
  220MOL0     C29593  -1.289   3.034   3.116 -1.4721  0.4642  0.3064
  220MOL0     C29594  -1.432   2.992   3.105  0.4796  0.7631  0.9121
  220MOL0     O29595  -1.509   3.023   3.211 -0.2660 -0.3899 -0.2962
  220MOL0     C29596  -1.641   2.987   3.208  0.7179 -0.0269  0.3048
  220MOL0     C29597  -1.726   3.097   3.218  0.8605 -0.2249 -0.4596
  220MOL0     C29598  -1.869   3.091   3.217 -0.4687  0.1251 -0.0898
  220MOL0     C29599  -1.922   2.963   3.198 -0.7685  0.4611 -0.1750
  220MOL0     O29600  -2.056   2.969   3.179  0.8614 -0.6215  0.5077
  220MOL0     C29601  -2.120   2.869   3.095  0.2420  0.9768 -0.6316
  220MOL0     C29602  -2.244   2.924   3.047  1.3402  0.5074 -0.7176
  220MOL0     C29603  -2.213   3.034   2.954 -1.0688 -0.6394  0.1403
  220MOL0     C29604  -2.333   3.085   2.856 -0.4919 -0.6245  0.2995
  220MOL0     C29605  -2.291   3.148   2.719  0.3404  1.2522 -0.5513
  220MOL0     C29606  -2.212   3.280   2.734 -1.3661  0.2914 -0.2572
  220MOL0     C29607  -2.163   3.334   2.596  0.2727 -0.1356  0.3432
  220MOL0     C29608  -2.153   3.494   2.571 -0.0782 -0.7279  0.4880
  220MOL0    Cl29609  -2.314   3.563   2.607  0.3667 -0.2319  0.1583
  220MOL0     C29610  -1.837   2.852   3.189  0.1775  0.1209  0.9510
  220MOL0     C29611  -1.692   2.864   3.202  0.4517 -0.4674 -0.1015
  220MOL0     O29612  -1.468   2.928   3.009  0.4443 -0.7395 -0.4266
  220MOL0     C29613  -1.217   3.066   3.004  0.5931 -0.3810  0.2035
  220MOL0     C29614  -1.081   3.084   3.005 -0.1274 -0.4271 -0.4803
  220MOL0     N29615  -0.504   3.259   3.663 -0.3555  1.1523 -0.0504
  220MOL0     N29616  -0.403   3.309   3.726  0.4707 -0.1060 -0.3042
  220MOL0     C29617   0.264   3.941   2.928 -0.3120  0.0896  0.3132
  220MOL0     C29618   0.323   3.940   2.802  0.6240  0.3096 -0.2385
  220MOL0     C29619   0.555   3.694   2.474  0.2084  0.3837 -0.2836
  220MOL0     C29620   0.644   3.800   2.460  0.0415 -0.1925 -0.5643
  220MOL0     C29621   0.780   3.782   2.419 -0.6648  0.2948  1.3987
  220MOL0     C29622   0.819   3.657   2.367 -0.6529 -1.0439  0.1673
  220MOL0     O29623   0.953   3.662   2.323  0.7608  0.3767 -0.2786
  220MOL0     C29624   1.060   3.631   2.417  0.2633 -1.1956 -1.6226
  220MOL0     C29625   1.109   3.751   2.501 -0.1872 -1.3910 -0.4281
  220MOL0     C29626   1.181   3.841   2.401 -0.0617  0.2360 -0.2731
  220MOL0     C29627   1.250   3.940   2.490 -0.2635 -0.9824  0.4745
  220MOL0     C29628   1.331   4.037   2.408 -0.6856  0.5457 -0.5030
  220MOL0     C29629   1.396   4.107   2.332 -0.4003 -0.3535  0.5953
  220MOL0     C29630   0.734   3.547   2.380 -0.1380 -0.0667  0.2619
  220MOL0     C29631   0.600   3.561   2.424 -0.9134 -0.4597  0.6652
  220MOL0     C29632   0.515   3.440   2.434  0.2108 -0.4447  0.0915
  220MOL0     H29633   0.343   3.597   2.757  0.6044  0.6786 -1.0906
  220MOL0     H29634   0.240   3.608   2.985  1.2457  0.2261 -0.0212
  220MOL0     H29635   0.274   3.958   3.226 -0.7561 -0.4537  1.2484
  220MOL0     H29636   0.120   3.970   3.135 -0.0438  0.1749 -1.6683
  220MOL0     H29637   0.114   3.963   3.392 -1.1052 -1.4298  1.8829
  220MOL0     H29638   0.175   3.792   3.375 -2.3424 -1.3080  0.6505
  220MOL0     H29639  -0.010   3.723   3.236  0.8458  0.4045  0.5507
  220MOL0     H29640  -0.109   3.866   3.267 -1.1635 -0.8180  0.2580
  220MOL0     H29641  -0.038   3.818   3.518  3.4537  0.0118 -0.9972
  220MOL0     H29642  -0.193   3.766   3.445 -0.2953 -0.3762 -1.7777
  220MOL0     H29643  -0.030   3.547   3.388  1.0423  3.0005 -2.3782
  220MOL0     H29644   0.060   3.610   3.515  0.5787  2.3599 -1.2169
  220MOL0     H29645  -0.120   3.576   3.681 -3.1184 -2.2134  1.2314
  220MOL0     H29646  -0.228   3.535   3.544  0.5290 -2.2243 -2.5889
  220MOL0     H29647   0.021   3.410   3.636 -0.0016 -1.2551  3.7119
  220MOL0     H29648  -0.085   3.323   3.516 -0.9195  0.2176 -0.1954
  220MOL0     H29649  -0.097   3.234   3.752 -3.1272 -3.7060  1.0080
  220MOL0     H29650  -0.177   3.389   3.782  0.1133 -2.7076  2.6046
  220MOL0     H29651  -0.235   3.180   3.472 -1.3163 -2.3877  0.0259
  220MOL0     H29652  -0.481   3.015   3.430 -0.5357 -1.2421  0.7869
  220MOL0     H29653  -0.628   3.115   3.493  1.9523  2.9479  2.6197
  220MOL0     H29654  -0.579   3.290   3.326 -0.6190  0.7156 -3.0460
  220MOL0     H29655  -0.443   3.185   3.273 -1.7064 -1.3730 -2.1475
  220MOL0     H29656  -0.611   3.019   3.166 -0.8660 -0.1935  0.8648
  220MOL0     H29657  -0.631   3.182   3.116 -0.6522 -0.2760 -0.2587
  220MOL0     H29658  -0.826   3.203   3.289  0.5514 -0.3713  1.9527
  220MOL0     H29659  -0.829   3.030   3.309 -1.9411  0.0290 -1.9573
  220MOL0     H29660  -1.022   3.087   3.328  0.6006  1.1844 -0.1111
  220MOL0     H29661  -1.283   3.009   3.317 -2.0008  1.3277 -0.2999
  220MOL0     H29662  -1.683   3.197   3.223 -2.0614  1.0675  1.5138
  220MOL0     H29663  -1.947   3.166   3.223 -2.6460 -1.9712 -0.8400
  220MOL0     H29664  -2.060   2.835   3.010 -1.1851 -1.4589 -0.7738
  220MOL0     H29665  -2.140   2.779   3.155  4.7181 -0.0156 -0.2543
  220MOL0     H29666  -2.303   2.843   3.002  1.6503 -2.0136  2.9621
  220MOL0     H29667  -2.303   2.966   3.129  0.9092 -0.7726 -0.3455
  220MOL0     H29668  -2.179   3.119   3.014 -4.4460  0.5138  0.6133
  220MOL0     H29669  -2.142   2.989   2.884 -0.5096 -1.5414  1.2656
  220MOL0     H29670  -2.401   3.156   2.904 -1.1350 -0.9008 -0.1868
  220MOL0     H29671  -2.404   3.001   2.847  1.1021 -1.9786 -0.0928
  220MOL0     H29672  -2.382   3.170   2.662 -0.8032  0.2635  0.8149
  220MOL0     H29673  -2.229   3.090   2.651 -0.9059  0.5899 -1.1665
  220MOL0     H29674  -2.267   3.361   2.784  3.4210  1.5663  3.8005
  220MOL0     H29675  -2.121   3.261   2.793 -1.1946  0.1861 -0.5543
  220MOL0     H29676  -2.239   3.307   2.522  0.7875 -0.4128 -0.0878
  220MOL0     H29677  -2.062   3.299   2.572  0.5324  1.4740 -1.0958
  220MOL0     H29678  -2.077   3.540   2.635  0.5285 -2.5587  1.1741
  220MOL0     H29679  -2.141   3.523   2.466 -0.8045  0.4977  0.7241
  220MOL0     H29680  -1.876   2.755   3.159  3.0247 -0.2574 -2.2676
  220MOL0     H29681  -1.623   2.782   3.221 -0.4682 -1.2534 -0.0675
  220MOL0     H29682  -1.275   3.055   2.912  2.4472  0.8756 -1.1960
  220MOL0     H29683  -1.037   3.100   2.907  0.3222  0.6143 -0.1272
  220MOL0     H29684   0.245   4.032   2.985  2.4171 -0.6026  2.5639
  220MOL0     H29685   0.343   4.038   2.759 -1.0659 -0.7800 -3.9451
  220MOL0     H29686   0.617   3.898   2.500  1.9233 -0.1692  0.8065
  220MOL0     H29687   0.846   3.867   2.432 -0.7024  0.1656  2.5795
  220MOL0     H29688   1.140   3.581   2.362 -0.4355 -1.4434 -2.4316
  220MOL0     H29689   1.024   3.561   2.493  1.8503 -0.6489 -0.3206
  220MOL0     H29690   1.179   3.716   2.578  3.1484  2.0652 -1.5560
  220MOL0     H29691   1.030   3.806   2.553  2.7699  1.8117  1.1385
  220MOL0     H29692   1.113   3.886   2.328  0.0135 -1.2559 -1.3199
  220MOL0     H29693   1.260   3.784   2.352 -1.7695 -1.2226 -1.4839
  220MOL0     H29694   1.182   4.002   2.550  2.0232  0.0598  2.1244
  220MOL0     H29695   1.322   3.892   2.557 -0.1855 -1.9491 -0.2827
  220MOL0     H29696   1.462   4.174   2.281 -2.5824  0.8352 -0.8588
  220MOL0     H29697   0.783   3.460   2.337  1.4464  0.8037  0.2342
  220MOL0     H29698   0.551   3.359   2.371  0.5891  0.0948 -0.3944
  220MOL0     H29699   0.521   3.420   2.541  0.1371 -0.1357  0.1540
  220MOL0     H29700   0.410   3.457   2.406  0.2055 -1.0602 -0.2913
  221MOL0     O29701   1.909   0.599   7.500  0.4607  0.0707 -0.4487
  221MOL0     C29702   1.971   0.700   7.463  0.0582  0.2394 -0.2530
  221MOL0     O29703   2.110   0.709   7.460  0.4598  0.5395 -0.0086
  221MOL0     C29704   2.173   0.629   7.552 -0.5080 -0.4298  0.1158
  221MOL0     C29705   2.190   0.494   7.532  0.9884 -0.1778 -0.2928
  221MOL0     C29706   2.274   0.418   7.620  0.0793  0.5868 -0.2232
  221MOL0     C29707   2.339   0.476   7.726  0.4352  0.1950  0.4000
  221MOL0     O29708   2.414   0.395   7.805  0.9196 -0.4938 -0.1013
  221MOL0     C29709   2.470   0.432   7.933 -0.2131 -0.0156  0.2949
  221MOL0     C29710   2.434   0.327   8.037 -0.7080  0.0063 -0.1912
  221MOL0     C29711   2.515   0.344   8.171 -0.4366 -0.6430 -0.2119
  221MOL0     C29712   2.528   0.492   8.224 -0.2594  0.0966  0.1751
  221MOL0     C29713   2.624   0.491   8.343  0.4310 -0.2223 -0.6249
  221MOL0     C29714   2.648   0.627   8.417  0.0102  0.7300  0.4586
  221MOL0     C29715   2.750   0.707   8.336 -0.4554  0.9353  0.1484
  221MOL0     C29716   2.755   0.836   8.402 -0.6048 -0.3777 -0.0519
  221MOL0     N29717   2.846   0.941   8.339  0.2026 -0.2028  0.8556
  221MOL0     C29718   2.987   0.941   8.326  0.3431  0.4787  0.0549
  221MOL0     C29719   3.017   1.056   8.258 -0.9571 -0.1540  0.5758
  221MOL0     C29720   3.153   1.122   8.229 -0.5376  1.0858 -0.1229
  221MOL0     C29721   3.228   1.040   8.123  0.8144 -0.0789  0.2169
  221MOL0     C29722   3.381   1.059   8.136  1.0553 -0.0804  0.1656
  221MOL0     C29723   3.428   1.201   8.167  0.1463 -0.3128 -0.5043
  221MOL0     O29724   3.397   1.312   8.079 -0.0185  0.3347  0.2480
  221MOL0     C29725   3.430   1.316   7.944 -0.2863  0.3956 -0.7768
  221MOL0     C29726   3.518   1.242   7.878  0.2442  1.0064  0.2270
  221MOL0     C29727   3.542   1.265   7.744  0.1686 -0.3919  0.9852
  221MOL0     C29728   3.470   1.358   7.669 -0.3756  0.9137 -0.4410
  221MOL0     C29729   3.490   1.381   7.530  0.8159  0.0991  0.0990
  221MOL0     O29730   3.479   1.506   7.481  1.0003  0.0617  0.1479
  221MOL0     C29731   3.456   1.528   7.345 -0.5687  0.6521 -1.2176
  221MOL0     C29732   3.521   1.641   7.291  0.3984 -1.1459  1.1969
  221MOL0     C29733   3.475   1.688   7.161 -0.5355  0.2289  0.0339
  221MOL0     C29734   3.389   1.612   7.098  0.0532  0.6548  0.6784
  221MOL0     O29735   3.347   1.652   6.973 -0.2567  0.0928 -0.5038
  221MOL0     C29736   3.252   1.754   6.982  0.1714 -0.0438 -0.0337
  221MOL0     C29737   3.134   1.701   6.900  0.0176  0.8872  0.7968
  221MOL0     C29738   3.035   1.606   6.967 -0.1121  0.9317  0.1844
  221MOL0     C29739   2.920   1.544   6.882  0.5924  0.4375 -0.7698
  221MOL0     C29740   2.854   1.424   6.965  0.6243 -0.5156 -0.0999
  221MOL0     C29741   2.736   1.370   6.883 -1.0263 -1.1286 -0.3929
  221MOL0     C29742   2.708   1.221   6.922 -0.2107 -0.1810 -0.3016
  221MOL0     C29743   2.623   1.221   7.068 -0.1477  0.5285  1.0824
  221MOL0    Cl29744   2.468   1.289   7.030 -0.2946 -0.0218 -0.0488
  221MOL0     C29745   3.342   1.490   7.136  0.2512  0.3826 -0.2157
  221MOL0     C29746   3.368   1.452   7.266  0.0326  0.2115  0.5155
  221MOL0     O29747   3.531   1.287   7.465  0.2285 -0.0956 -0.1844
  221MOL0     C29748   3.380   1.435   7.747  0.1460  0.1612  1.2628
  221MOL0     C29749   3.366   1.419   7.882 -0.1185  0.0504  0.4398
  221MOL0     N29750   2.902   1.110   8.215  1.6117  0.2667  0.2527
  221MOL0     N29751   2.796   1.052   8.267  0.0194 -0.7303 -0.4292
  221MOL0     C29752   2.311   0.605   7.744 -0.9801 -0.6767 -0.2997
  221MOL0     C29753   2.240   0.687   7.656  0.3727  0.4797  0.5527
  221MOL0     C29754   1.897   0.799   7.374 -1.0194  0.1767  0.3679
  221MOL0     C29755   1.971   0.850   7.267 -0.6404 -0.4397  1.0620
  221MOL0     C29756   1.910   0.941   7.179  0.1392  0.3891  0.2900
  221MOL0     C29757   1.778   0.990   7.201 -0.7670  0.2093 -0.4558
  221MOL0     O29758   1.733   1.097   7.126  0.8176  0.5225 -0.4084
  221MOL0     C29759   1.596   1.136   7.163  0.0132  0.1335  0.1410
  221MOL0     C29760   1.549   1.216   7.055 -1.0098 -0.3036  0.5400
  221MOL0     C29761   1.606   1.355   7.066 -0.2105  0.0735  0.3095
  221MOL0     C29762   1.569   1.431   6.937  0.0721  0.9294 -0.4174
  221MOL0     C29763   1.592   1.575   6.943 -0.3201 -0.5867 -0.0547
  221MOL0     C29764   1.597   1.694   6.928  0.0487  0.0173  0.4724
  221MOL0     C29765   1.699   0.929   7.308 -0.3742 -1.0493  0.1450
  221MOL0     C29766   1.764   0.840   7.396  1.1335 -0.0711 -0.1014
  221MOL0     C29767   1.671   0.797   7.510  0.4702 -0.5305  0.1842
  221MOL0     H29768   2.136   0.445   7.452 -0.5398  0.2871  0.4216
  221MOL0     H29769   2.302   0.314   7.606 -0.7718  0.0640  1.6997
  221MOL0     H29770   2.577   0.443   7.913 -0.1586 -2.0462 -0.7113
  221MOL0     H29771   2.443   0.532   7.971 -2.6578  0.8318 -3.1694
  221MOL0     H29772   2.451   0.229   7.990  1.1703 -0.5097  1.4094
  221MOL0     H29773   2.326   0.327   8.054 -1.1769 -1.1094 -2.7616
  221MOL0     H29774   2.613   0.302   8.144 -1.0946 -1.9746 -0.6312
  221MOL0     H29775   2.458   0.290   8.247  0.3601  0.5603  1.2824
  221MOL0     H29776   2.570   0.559   8.149 -1.1776  2.1447  1.4281
  221MOL0     H29777   2.426   0.517   8.254 -0.8947 -4.0303  2.1830
  221MOL0     H29778   2.571   0.421   8.408 -4.1384  2.1175 -1.4249
  221MOL0     H29779   2.717   0.447   8.306  0.2628 -0.0605 -1.2488
  221MOL0     H29780   2.551   0.670   8.443 -0.8203  0.5312 -2.0503
  221MOL0     H29781   2.694   0.599   8.513  0.8122 -1.1807 -0.4262
  221MOL0     H29782   2.741   0.731   8.229  1.1776  1.4116  0.0982
  221MOL0     H29783   2.848   0.662   8.351  0.7501  2.9687 -1.2108
  221MOL0     H29784   2.652   0.870   8.388 -0.5104 -1.1819 -3.4557
  221MOL0     H29785   2.779   0.820   8.508  0.2779 -0.6563 -0.2819
  221MOL0     H29786   3.055   0.871   8.372  2.1534  1.0621 -1.6348
  221MOL0     H29787   3.141   1.224   8.191 -0.7849  0.1877 -2.7048
  221MOL0     H29788   3.206   1.109   8.324 -1.1765 -3.0320 -0.1100
  221MOL0     H29789   3.203   0.935   8.108  1.2962 -0.3140  0.9967
  221MOL0     H29790   3.189   1.083   8.030 -0.7684  1.5511  1.5526
  221MOL0     H29791   3.428   1.038   8.039  0.2800 -0.3961 -0.1467
  221MOL0     H29792   3.420   0.990   8.212 -0.1486 -1.4919 -0.4439
  221MOL0     H29793   3.536   1.212   8.170  0.2350 -0.4380 -2.2215
  221MOL0     H29794   3.385   1.228   8.264 -1.0270 -4.0396  0.1950
  221MOL0     H29795   3.564   1.149   7.912  2.0456  1.5859 -0.5042
  221MOL0     H29796   3.618   1.209   7.692  0.9668  1.7854 -0.3618
  221MOL0     H29797   3.588   1.705   7.348  0.3138  1.0579 -0.9873
  221MOL0     H29798   3.532   1.770   7.119 -1.2707  0.9858  0.4858
  221MOL0     H29799   3.228   1.788   7.083  1.0464 -1.6139  0.7373
  221MOL0     H29800   3.281   1.843   6.925 -0.7131  1.7105  2.0797
  221MOL0     H29801   3.073   1.792   6.894 -0.0676  0.7690 -0.1542
  221MOL0     H29802   3.166   1.671   6.800  2.5853  3.5105  0.6841
  221MOL0     H29803   3.083   1.526   7.023 -0.0689  0.7889 -0.0540
  221MOL0     H29804   2.994   1.656   7.055  2.3163  1.2832  1.1994
  221MOL0     H29805   2.956   1.495   6.792  0.9789 -0.5544 -0.0991
  221MOL0     H29806   2.845   1.620   6.862 -0.2596 -0.2845 -0.3878
  221MOL0     H29807   2.819   1.451   7.066  3.0987  4.4198 -0.3089
  221MOL0     H29808   2.925   1.342   6.978  0.2347 -0.4536  3.5338
  221MOL0     H29809   2.646   1.431   6.895 -1.4103 -1.7910  0.1577
  221MOL0     H29810   2.766   1.372   6.778  1.2791  0.7607  0.2243
  221MOL0     H29811   2.796   1.157   6.917 -0.4459 -0.4781 -0.6888
  221MOL0     H29812   2.646   1.172   6.846 -0.5782 -1.1462  0.6006
  221MOL0     H29813   2.606   1.115   7.089  0.6375 -0.3133 -2.0452
  221MOL0     H29814   2.670   1.278   7.150 -3.8563  4.0326  1.0864
  221MOL0     H29815   3.273   1.439   7.070 -1.1712 -0.7275  2.0107
  221MOL0     H29816   3.315   1.368   7.310  0.7915 -0.5533  0.0068
  221MOL0     H29817   3.316   1.498   7.687 -0.4473 -0.9287  0.7313
  221MOL0     H29818   3.292   1.480   7.933  1.4403  1.2090  1.4123
  221MOL0     H29819   2.361   0.657   7.826  1.5332 -1.4108 -1.2761
  221MOL0     H29820   2.228   0.792   7.681  0.0245  0.9589 -1.4529
  221MOL0     H29821   2.073   0.821   7.240 -0.4394 -0.0511  1.3874
  221MOL0     H29822   1.971   0.977   7.097 -2.8657  3.5092 -0.8368
  221MOL0     H29823   1.599   1.191   7.258 -1.4181  0.6283 -0.0742
  221MOL0     H29824   1.530   1.049   7.168 -0.1505  0.1457 -1.3793
  221MOL0     H29825   1.440   1.224   7.058 -0.9322  0.7250  1.1846
  221MOL0     H29826   1.572   1.168   6.960 -1.6346  2.2941 -1.0403
  221MOL0     H29827   1.715   1.348   7.070 -0.2144 -0.2635 -0.1086
  221MOL0     H29828   1.560   1.414   7.146  0.0481 -0.3886  0.8019
  221MOL0     H29829   1.637   1.393   6.860 -1.3325  2.7959 -2.7139
  221MOL0     H29830   1.467   1.420   6.898  0.0061 -1.7131  0.3209
  221MOL0     H29831   1.588   1.797   6.901  4.6617  0.1397 -1.5090
  221MOL0     H29832   1.600   0.954   7.343  0.1575 -1.0650  1.7139
  221MOL0     H29833   1.608   0.884   7.533  1.1532 -0.1674  0.6888
  221MOL0     H29834   1.599   0.717   7.486 -1.0889  0.3036  1.8482
  221MOL0     H29835   1.730   0.772   7.599  3.2573  4.7662  0.2012
  222MOL0     O29836   2.167   2.445   1.338  0.2591 -0.4175 -0.2497
  222MOL0     C29837   2.253   2.363   1.365  0.0818  0.6978  0.4310
  222MOL0     O29838   2.268   2.305   1.490  0.1033  0.0792 -0.2154
  222MOL0     C29839   2.140   2.295   1.546  0.0327 -0.7301 -0.7782
  222MOL0     C29840   2.086   2.386   1.638 -0.2981  0.4936  0.2107
  222MOL0     C29841   1.961   2.368   1.694 -0.2328  0.7709 -0.1470
  222MOL0     C29842   1.876   2.255   1.671 -0.6138  0.2729  0.5319
  222MOL0     O29843   1.758   2.224   1.717  0.2314  0.2250  0.4532
  222MOL0     C29844   1.691   2.310   1.813 -0.1275  0.4638 -0.3342
  222MOL0     C29845   1.591   2.415   1.753 -0.1186 -0.4566  0.8405
  222MOL0     C29846   1.560   2.516   1.858  0.3483  0.5945 -0.3799
  222MOL0     C29847   1.444   2.594   1.811  0.4333  0.1542 -0.6836
  222MOL0     C29848   1.403   2.706   1.917 -0.7695  0.8593 -0.4474
  222MOL0     C29849   1.301   2.801   1.856  0.1277 -0.8154  0.4565
  222MOL0     C29850   1.268   2.925   1.947 -0.4040  1.3656 -0.6019
  222MOL0     C29851   1.150   3.014   1.896  0.6471 -0.0408 -0.2748
  222MOL0     N29852   1.017   2.941   1.905 -0.9112 -0.6809  0.1553
  222MOL0     C29853   0.930   2.927   1.796 -0.4832  0.2923  0.5967
  222MOL0     C29854   0.821   2.870   1.857  0.1147  0.9767 -0.4169
  222MOL0     C29855   0.702   2.807   1.780 -0.3393  0.7035  0.6212
  222MOL0     C29856   0.755   2.681   1.707  0.8223 -0.3614  0.0403
  222MOL0     C29857   0.641   2.621   1.618 -0.4470  0.1414  0.4432
  222MOL0     C29858   0.507   2.578   1.680 -0.2093 -0.4060 -1.2111
  222MOL0     O29859   0.434   2.519   1.578  0.4080 -0.5908 -0.3666
  222MOL0     C29860   0.304   2.496   1.610  0.6932 -0.7061  0.4799
  222MOL0     C29861   0.245   2.481   1.732 -0.9206  0.0584  0.3740
  222MOL0     C29862   0.116   2.452   1.737 -0.5399 -0.4158  1.0286
  222MOL0     C29863   0.035   2.428   1.625  0.8001  0.4523  0.6626
  222MOL0     C29864  -0.108   2.402   1.630  1.1907 -0.1008 -0.3423
  222MOL0     O29865  -0.170   2.341   1.518  0.2450  0.8045 -0.0647
  222MOL0     C29866  -0.300   2.301   1.516 -0.8830 -0.0872 -0.4997
  222MOL0     C29867  -0.374   2.342   1.405 -0.3849 -0.0941  0.0415
  222MOL0     C29868  -0.497   2.280   1.379  0.1631 -0.3421  0.5511
  222MOL0     C29869  -0.565   2.208   1.476 -0.1442 -0.1759  0.5786
  222MOL0     O29870  -0.682   2.164   1.433  0.1125  0.5513  0.5759
  222MOL0     C29871  -0.755   2.065   1.513  0.1499  0.2666  0.8485
  222MOL0     C29872  -0.770   1.941   1.425  0.2306  0.1838  0.2897
  222MOL0     C29873  -0.821   1.962   1.279  0.6711  0.4903 -0.7940
  222MOL0     C29874  -0.795   1.837   1.208 -0.9546  0.0322  0.4943
  222MOL0     C29875  -0.839   1.840   1.064  0.4546  0.7015 -0.1011
  222MOL0     C29876  -0.807   1.703   0.994 -1.2616  0.5233 -0.0143
  222MOL0     C29877  -0.901   1.598   1.042  0.3412  1.0360 -0.3406
  222MOL0     C29878  -0.849   1.453   1.023  0.4654 -0.3594  0.3827
  222MOL0    Cl29879  -0.881   1.425   0.849 -0.3700 -0.1063  0.1068
  222MOL0     C29880  -0.497   2.182   1.600  0.3491 -0.1879  1.2026
  222MOL0     C29881  -0.368   2.229   1.617 -0.7529 -0.0976  0.3382
  222MOL0     O29882  -0.149   2.413   1.742  0.3171 -1.0065 -0.2502
  222MOL0     C29883   0.095   2.435   1.501  0.3223 -0.3310 -0.6499
  222MOL0     C29884   0.226   2.482   1.491  0.8135 -0.8297 -0.1516
  222MOL0     N29885   0.854   2.831   1.991 -0.1416  0.6118  0.1964
  222MOL0     N29886   0.971   2.864   2.006  0.5372 -0.3148 -0.7641
  222MOL0     C29887   1.942   2.162   1.592 -1.0065  0.7123 -0.0857
  222MOL0     C29888   2.065   2.186   1.521 -0.1255  0.3454 -0.2018
  222MOL0     C29889   2.360   2.343   1.260  0.6401 -0.1801  0.3958
  222MOL0     C29890   2.313   2.358   1.121 -0.9660 -0.9126 -0.1569
  222MOL0     C29891   2.396   2.350   1.009  0.7935 -0.4045  0.6088
  222MOL0     C29892   2.534   2.322   1.026  0.1500  0.1027 -0.0347
  222MOL0     O29893   2.619   2.334   0.916 -0.0286 -0.0353  0.2381
  222MOL0     C29894   2.748   2.387   0.929 -0.6912 -0.0994 -0.5107
  222MOL0     C29895   2.850   2.327   0.836  0.2418 -0.0813  0.8434
  222MOL0     C29896   2.975   2.415   0.833 -0.5225 -0.2025 -0.4179
  222MOL0     C29897   2.957   2.556   0.771 -0.4364  0.3505  0.4547
  222MOL0     C29898   2.850   2.586   0.675  0.3892  0.1611 -0.5023
  222MOL0     C29899   2.758   2.618   0.597 -0.1038 -0.3926  0.5108
  222MOL0     C29900   2.581   2.286   1.154  0.1720 -0.8845 -1.1159
  222MOL0     C29901   2.493   2.294   1.267  0.0563 -0.5621 -0.3153
  222MOL0     C29902   2.533   2.237   1.397  0.2131  0.0692  0.4042
  222MOL0     H29903   2.144   2.475   1.660  0.0099  1.0712 -2.6152
  222MOL0     H29904   1.938   2.445   1.767  1.8395  0.9885  0.3302
  222MOL0     H29905   1.629   2.243   1.873  1.4592 -0.0979  0.7399
  222MOL0     H29906   1.764   2.359   1.878  0.5204 -0.5732 -0.2495
  222MOL0     H29907   1.501   2.367   1.714  0.2238 -1.2301  0.9698
  222MOL0     H29908   1.630   2.457   1.660 -3.6378  0.9631 -0.1499
  222MOL0     H29909   1.640   2.591   1.869  0.6670  0.8988 -3.6857
  222MOL0     H29910   1.533   2.459   1.947 -0.8702 -0.4529 -1.3878
  222MOL0     H29911   1.467   2.632   1.712 -1.8375 -0.0268 -1.3514
  222MOL0     H29912   1.355   2.530   1.807  1.0207 -0.8001  0.6608
  222MOL0     H29913   1.355   2.659   2.004 -0.4216 -0.5497 -0.9824
  222MOL0     H29914   1.488   2.757   1.965 -2.2089  2.0308  0.9889
  222MOL0     H29915   1.335   2.837   1.759 -1.7518 -1.3068 -0.4207
  222MOL0     H29916   1.207   2.747   1.844 -0.3504  0.3749 -1.5515
  222MOL0     H29917   1.356   2.989   1.961  0.4492 -0.0415  0.8533
  222MOL0     H29918   1.266   2.887   2.049  2.4361 -1.2753 -1.3674
  222MOL0     H29919   1.150   3.101   1.962 -0.5482 -1.6380  1.9679
  222MOL0     H29920   1.168   3.042   1.791 -1.6789  0.7725 -0.5124
  222MOL0     H29921   0.952   2.958   1.694  0.8511 -1.3756  0.3250
  222MOL0     H29922   0.629   2.770   1.853  2.0158 -0.9336  2.2846
  222MOL0     H29923   0.665   2.879   1.707  0.2430 -0.3496 -0.7495
  222MOL0     H29924   0.838   2.688   1.637  3.8408 -0.2273  3.3103
  222MOL0     H29925   0.799   2.617   1.784  1.6226 -0.9406 -0.8824
  222MOL0     H29926   0.681   2.531   1.571 -1.4059  0.9667 -2.1309
  222MOL0     H29927   0.612   2.693   1.541  1.3856 -1.3464 -1.7781
  222MOL0     H29928   0.455   2.663   1.724 -2.1292 -1.6344 -1.0050
  222MOL0     H29929   0.516   2.499   1.755 -0.1769  0.8518  0.1473
  222MOL0     H29930   0.307   2.494   1.820  0.7852 -0.3938 -0.7035
  222MOL0     H29931   0.066   2.443   1.833 -2.6347  1.0577  0.1553
  222MOL0     H29932  -0.319   2.396   1.329  0.3706 -2.5700 -1.2723
  222MOL0     H29933  -0.545   2.299   1.283  2.7392 -1.9410 -1.1724
  222MOL0     H29934  -0.701   2.033   1.603  2.4039  1.8979  0.1813
  222MOL0     H29935  -0.849   2.115   1.536 -0.1909  0.0100  0.0359
  222MOL0     H29936  -0.673   1.890   1.422  0.2622  0.2729 -0.6198
  222MOL0     H29937  -0.839   1.873   1.476  0.8268 -0.6280  0.0478
  222MOL0     H29938  -0.925   1.995   1.283  1.4659  3.1484 -0.2045
  222MOL0     H29939  -0.763   2.041   1.231  4.3957 -1.6311 -0.1507
  222MOL0     H29940  -0.859   1.767   1.262  0.9258 -1.8076  0.4461
  222MOL0     H29941  -0.690   1.810   1.220 -0.9052  0.3837  0.8684
  222MOL0     H29942  -0.782   1.919   1.015  0.7211  2.3210  2.6622
  222MOL0     H29943  -0.945   1.863   1.055 -0.1865 -2.1914 -1.1399
  222MOL0     H29944  -0.827   1.715   0.887 -1.2563  0.3973 -0.0288
  222MOL0     H29945  -0.702   1.678   1.009 -1.0890 -0.4620 -2.4231
  222MOL0     H29946  -0.999   1.606   0.993  1.1758  1.0499 -2.0640
  222MOL0     H29947  -0.906   1.624   1.148  1.8871  0.2685 -0.0671
  222MOL0     H29948  -0.742   1.450   1.045  0.5668  1.5152  0.3652
  222MOL0     H29949  -0.896   1.378   1.087  1.1875 -1.3917 -0.2645
  222MOL0     H29950  -0.541   2.126   1.682  0.2037 -0.4952  0.9156
  222MOL0     H29951  -0.314   2.206   1.708  0.5692 -1.6857 -0.7699
  222MOL0     H29952   0.043   2.419   1.407  0.1957  2.7751 -1.1879
  222MOL0     H29953   0.271   2.497   1.393 -0.5300 -0.1768 -0.6824
  222MOL0     H29954   1.903   2.062   1.577  0.3780 -0.1647  1.7377
  222MOL0     H29955   2.105   2.103   1.465 -4.1432 -1.7166 -0.4117
  222MOL0     H29956   2.214   2.385   1.086 -0.7021  0.7608  0.2804
  222MOL0     H29957   2.366   2.357   0.905  1.9143  1.3038  0.3666
  222MOL0     H29958   2.786   2.365   1.030 -0.0462  1.1545 -0.4643
  222MOL0     H29959   2.754   2.494   0.910  1.0193 -0.3023 -1.2432
  222MOL0     H29960   2.813   2.315   0.733 -1.9548 -1.6913  1.7461
  222MOL0     H29961   2.900   2.240   0.879 -0.7422  0.2887  2.8253
  222MOL0     H29962   3.044   2.359   0.769  3.4389  3.8238 -0.1400
  222MOL0     H29963   3.020   2.419   0.932  2.7967 -0.3479 -1.7877
  222MOL0     H29964   2.936   2.619   0.858 -1.9599  6.0082 -3.4329
  222MOL0     H29965   3.052   2.592   0.731 -0.4588  3.8889  3.1262
  222MOL0     H29966   2.676   2.644   0.534  0.6826  0.7437 -0.0852
  222MOL0     H29967   2.679   2.238   1.157  0.4182 -0.3275  1.1384
  222MOL0     H29968   2.639   2.209   1.400  0.1266 -1.0058 -2.6837
  222MOL0     H29969   2.504   2.306   1.476 -0.3185  0.1784  0.1162
  222MOL0     H29970   2.469   2.153   1.424  1.6789 -1.2159  0.0156
  223MOL0     O29971  11.231  11.149   5.258  0.5362  0.7972  0.4080
  223MOL0     C29972  11.168  11.051   5.296  0.5277  0.1772 -0.3359
  223MOL0     O29973  11.218  10.926   5.305 -0.1813 -0.1091 -0.2761
  223MOL0     C29974  11.314  10.899   5.219 -0.7385  0.5824 -0.4393
  223MOL0     C29975  11.294  10.843   5.086 -0.1354  0.1622 -0.9615
  223MOL0     C29976  11.404  10.800   5.013 -0.2857 -0.3527  0.5216
  223MOL0     C29977  11.535  10.805   5.057  0.5603  0.7611  0.2182
  223MOL0     O29978  11.641  10.767   4.977  0.3073 -0.9154  0.6703
  223MOL0     C29979  11.774  10.834   4.988  0.4057  0.2810  0.6572
  223MOL0     C29980  11.852  10.815   4.859  0.1781  0.0536 -0.0499
  223MOL0     C29981  11.779  10.865   4.731 -0.0698  0.5987 -0.5343
  223MOL0     C29982  11.856  10.818   4.600  0.0109 -0.6797 -0.0771
  223MOL0     C29983  11.805  10.879   4.480 -0.7568 -0.7796  0.4371
  223MOL0     C29984  11.896  10.835   4.360  0.2529  0.0167  0.6399
  223MOL0     C29985  11.845  10.903   4.237  0.0151  0.2060  0.0563
  223MOL0     C29986  11.922  10.855   4.109 -0.0720  0.0041 -0.1334
  223MOL0     N29987  11.877  10.944   4.002 -0.7144  0.3431 -0.1064
  223MOL0     C29988  11.906  11.071   3.997  0.7981 -0.6003  0.3677
  223MOL0     C29989  11.869  11.117   3.875  0.6611 -0.3897  0.9808
  223MOL0     C29990  11.885  11.257   3.824  0.0321 -0.4451 -0.2996
  223MOL0     C29991  11.872  11.360   3.929 -0.2774  0.1687 -0.2861
  223MOL0     C29992  11.732  11.382   3.971  0.6239  0.3453  0.4321
  223MOL0     C29993  11.751  11.460   4.104 -0.2900 -0.7460 -0.6831
  223MOL0     O29994  11.803  11.377   4.203 -0.0651 -0.1107 -0.2381
  223MOL0     C29995  11.826  11.435   4.320 -0.0265  0.2181 -0.5465
  223MOL0     C29996  11.797  11.562   4.356  0.6065  0.4048  0.7219
  223MOL0     C29997  11.803  11.606   4.487 -0.0381  0.2537 -0.3225
  223MOL0     C29998  11.855  11.525   4.592  0.3046  0.2114  0.9802
  223MOL0     C29999  11.859  11.574   4.736 -1.4003  0.2600  0.2121
  223MOL0     O30000  11.818  11.708   4.756  0.5775 -0.3643  0.1529
  223MOL0     C30001  11.834  11.786   4.871  0.1647 -0.0133 -0.7811
  223MOL0     C30002  11.945  11.869   4.881 -0.2439  0.1889  0.5092
  223MOL0     C30003  11.975  11.942   4.996 -0.6576 -0.1460 -0.5549
  223MOL0     C30004  11.891  11.932   5.105 -0.1742 -0.4537  0.5240
  223MOL0     O30005  11.909  12.000   5.221  0.5406 -0.1135  0.0414
  223MOL0     C30006  12.046  11.983   5.273 -0.0215  0.9605 -0.6453
  223MOL0     C30007  12.064  12.081   5.389  0.0377 -0.2137  0.4068
  223MOL0     C30008  11.963  12.094   5.507  0.8054  0.3142  1.0360
  223MOL0     C30009  11.913  11.958   5.557  0.7954 -0.3800 -0.5027
  223MOL0     C30010  11.818  11.993   5.674 -0.3101 -0.8990  0.2841
  223MOL0     C30011  11.767  11.862   5.739 -0.5195 -0.1193  0.0854
  223MOL0     C30012  11.678  11.904   5.857 -0.4833 -0.1622  0.0707
  223MOL0     C30013  11.760  11.935   5.984  0.3699 -0.0559 -0.2740
  223MOL0    Cl30014  11.812  11.784   6.055  0.6366 -0.2550 -0.1786
  223MOL0     C30015  11.782  11.851   5.098  0.3195  0.2513 -0.7319
  223MOL0     C30016  11.757  11.765   4.987 -0.0857  0.5252 -1.1165
  223MOL0     O30017  11.924  11.508   4.814 -0.2287  0.1254  0.3953
  223MOL0     C30018  11.893  11.393   4.552  0.8830  0.0410 -1.1502
  223MOL0     C30019  11.882  11.354   4.422  0.6903 -0.4455  0.4052
  223MOL0     N30020  11.796  11.015   3.816 -0.5723 -0.0634  0.1760
  223MOL0     N30021  11.800  10.911   3.888  0.2948  0.1456 -0.3344
  223MOL0     C30022  11.557  10.856   5.187  0.1379 -0.4835  0.5150
  223MOL0     C30023  11.449  10.901   5.262 -0.0506 -0.1264 -0.1842
  223MOL0     C30024  11.031  11.071   5.355 -0.1970  1.1999  0.4009
  223MOL0     C30025  10.995  10.977   5.453  0.5639 -0.0393 -0.6200
  223MOL0     C30026  10.869  10.976   5.520 -0.4440  0.0115  0.5758
  223MOL0     C30027  10.782  11.079   5.495  0.6025 -0.5188  0.2290
  223MOL0     O30028  10.667  11.092   5.559  0.2978  0.2158  0.4537
  223MOL0     C30029  10.558  11.005   5.525 -0.3242 -0.5951 -0.0938
  223MOL0     C30030  10.553  10.898   5.625  0.2965 -0.8422 -1.1867
  223MOL0     C30031  10.499  10.760   5.591 -0.2563  0.2109 -0.2850
  223MOL0     C30032  10.522  10.717   5.445 -0.4114  0.4465 -0.0018
  223MOL0     C30033  10.451  10.590   5.416 -1.0447  0.3355  0.5490
  223MOL0     C30034  10.387  10.489   5.398  0.6487 -0.4855 -0.1963
  223MOL0     C30035  10.816  11.172   5.395  0.7936  0.2491 -0.0547
  223MOL0     C30036  10.940  11.174   5.335  0.3364  0.3565  0.5244
  223MOL0     C30037  10.963  11.277   5.226 -0.1759 -0.8638  0.3540
  223MOL0     H30038  11.198  10.864   5.040  0.0849 -0.3417 -1.6752
  223MOL0     H30039  11.386  10.766   4.912  0.8807 -1.1058  0.5406
  223MOL0     H30040  11.759  10.943   4.988 -0.8324  0.2123 -2.3435
  223MOL0     H30041  11.819  10.801   5.082 -2.0159 -3.3390  0.7302
  223MOL0     H30042  11.890  10.716   4.833 -2.7951 -0.7069 -1.9712
  223MOL0     H30043  11.944  10.874   4.869  0.8482 -0.9533 -0.1467
  223MOL0     H30044  11.771  10.974   4.731 -3.1576  0.4787 -0.8661
  223MOL0     H30045  11.679  10.821   4.730  1.1597 -2.4273 -2.1279
  223MOL0     H30046  11.961  10.843   4.619  0.0136  0.0123 -0.9788
  223MOL0     H30047  11.841  10.710   4.586  1.7645 -0.9918  0.2748
  223MOL0     H30048  11.699  10.853   4.466 -0.6252 -0.6068 -1.0402
  223MOL0     H30049  11.828  10.986   4.479  3.8716 -1.5759  0.3776
  223MOL0     H30050  11.996  10.862   4.396 -1.4728  2.5004  4.2774
  223MOL0     H30051  11.874  10.729   4.343 -3.3138  0.8919 -1.2581
  223MOL0     H30052  11.857  11.010   4.257  1.2224 -0.4368  3.2349
  223MOL0     H30053  11.749  10.863   4.204 -1.7884  2.4397  2.2840
  223MOL0     H30054  12.028  10.859   4.132 -0.7769 -3.2511  5.4656
  223MOL0     H30055  11.890  10.753   4.084 -1.5521  0.6959 -1.2539
  223MOL0     H30056  11.971  11.120   4.067  2.4090  0.0676 -1.5001
  223MOL0     H30057  11.979  11.267   3.769 -0.6050  1.3307 -1.1439
  223MOL0     H30058  11.810  11.285   3.749  0.0750 -3.1146 -1.4204
  223MOL0     H30059  11.929  11.333   4.019 -0.0511 -1.0486 -0.7741
  223MOL0     H30060  11.911  11.457   3.897  1.3552  2.6038  7.0145
  223MOL0     H30061  11.690  11.283   3.988 -1.0090  1.2134  1.8417
  223MOL0     H30062  11.666  11.429   3.897  0.1214 -1.2169 -0.1560
  223MOL0     H30063  11.649  11.494   4.123 -0.2700  2.0177 -4.4339
  223MOL0     H30064  11.814  11.543   4.071 -0.4221 -0.0237  0.8020
  223MOL0     H30065  11.768  11.630   4.277  1.5918  1.6102  1.3508
  223MOL0     H30066  11.778  11.707   4.515  0.4841  0.6388 -1.2233
  223MOL0     H30067  12.026  11.864   4.809 -0.8673  0.4047 -0.2263
  223MOL0     H30068  12.076  11.982   4.996 -0.2619 -1.1172 -0.5249
  223MOL0     H30069  12.058  11.877   5.297 -2.2269  1.2727  2.4239
  223MOL0     H30070  12.118  12.022   5.200  0.1824 -0.7757 -1.4127
  223MOL0     H30071  12.167  12.082   5.426  0.2024  1.8919  0.0553
  223MOL0     H30072  12.046  12.170   5.328 -2.1740 -1.3684 -0.7291
  223MOL0     H30073  12.010  12.145   5.591  0.4110  0.5445  1.1229
  223MOL0     H30074  11.869  12.141   5.475 -0.0725 -1.9620  0.0602
  223MOL0     H30075  12.001  11.898   5.581 -0.7036 -3.2599 -1.6674
  223MOL0     H30076  11.853  11.909   5.480 -2.6830  0.5834  1.4157
  223MOL0     H30077  11.730  12.048   5.642  2.4890  3.0053 -1.5490
  223MOL0     H30078  11.855  12.066   5.747 -1.4294 -0.8247  0.7913
  223MOL0     H30079  11.705  11.813   5.663 -0.7225 -0.5802  0.5415
  223MOL0     H30080  11.840  11.785   5.766 -1.8236 -1.2195  0.5787
  223MOL0     H30081  11.594  11.839   5.883  0.5251 -2.1126 -1.2879
  223MOL0     H30082  11.632  11.999   5.828  0.2613  0.1914  0.0345
  223MOL0     H30083  11.858  11.979   5.960  0.5947 -0.0103  0.6649
  223MOL0     H30084  11.695  11.985   6.056 -0.8361 -1.3647 -0.4127
  223MOL0     H30085  11.719  11.861   5.186  0.1850 -1.7808 -0.5507
  223MOL0     H30086  11.674  11.696   4.996  1.4540 -1.1742  1.3128
  223MOL0     H30087  11.925  11.316   4.622 -0.4183  0.4877 -0.0327
  223MOL0     H30088  11.925  11.259   4.391 -1.0072 -0.5499 -1.9177
  223MOL0     H30089  11.657  10.866   5.229  1.0494 -1.3202 -1.3511
  223MOL0     H30090  11.474  10.945   5.358  1.5879  1.5893 -1.3546
  223MOL0     H30091  11.064  10.901   5.487 -0.1156  0.1841  1.4384
  223MOL0     H30092  10.845  10.904   5.597 -0.0833  0.2131  0.8778
  223MOL0     H30093  10.570  10.956   5.428 -2.9487  1.1846 -1.4433
  223MOL0     H30094  10.460  11.053   5.534 -1.0397 -2.2606  1.4677
  223MOL0     H30095  10.518  10.934   5.723 -2.6375 -1.1316 -2.0480
  223MOL0     H30096  10.656  10.880   5.660  0.2264  2.5952  1.3775
  223MOL0     H30097  10.393  10.749   5.615 -0.7362 -1.8466 -2.8992
  223MOL0     H30098  10.553  10.701   5.666 -2.0865  1.7494  2.3878
  223MOL0     H30099  10.481  10.789   5.374 -2.5505  0.4045  1.1096
  223MOL0     H30100  10.625  10.685   5.427 -0.4724 -0.6142  1.4100
  223MOL0     H30101  10.328  10.403   5.375  3.6426 -2.7381 -0.0331
  223MOL0     H30102  10.754  11.261   5.383 -0.3648 -0.6350 -0.7629
  223MOL0     H30103  11.063  11.318   5.240 -0.5040  0.1504 -0.2130
  223MOL0     H30104  10.954  11.241   5.123 -2.9214  0.7112 -0.0400
  223MOL0     H30105  10.887  11.355   5.235 -2.6496 -3.2428  1.8233
  224MOL0     O30106   2.214   2.669  11.271 -0.7130 -0.3172 -0.2631
  224MOL0     C30107   2.206   2.785  11.289  1.1069 -0.0070  0.2719
  224MOL0     O30108   2.175   2.875  11.187 -0.1788  0.5093 -0.6812
  224MOL0     C30109   2.143   2.851  11.056  0.6544 -0.7919  0.3086
  224MOL0     C30110   2.105   2.959  10.977 -0.1724  0.3737 -0.6746
  224MOL0     C30111   2.071   2.961  10.845  0.3927 -0.2231 -0.9307
  224MOL0     C30112   2.090   2.849  10.777  0.3632  0.7567 -0.1410
  224MOL0     O30113   2.070   2.851  10.638  0.2207  0.0584 -0.1740
  224MOL0     C30114   2.192   2.875  10.573  0.6925  0.4067  0.3852
  224MOL0     C30115   2.172   2.848  10.430 -0.1156 -0.4040  1.5416
  224MOL0     C30116   2.077   2.952  10.363 -0.0663  0.5261  0.1624
  224MOL0     C30117   2.058   2.919  10.210  0.0308  0.0674 -0.5423
  224MOL0     C30118   1.979   3.006  10.109  0.1804 -0.6701  0.2073
  224MOL0     C30119   2.016   3.157  10.123  0.6235  0.3828 -0.7208
  224MOL0     C30120   2.149   3.194  10.068  0.4131  0.5183 -0.9860
  224MOL0     C30121   2.191   3.332  10.110 -0.1729  0.1991  0.2819
  224MOL0     N30122   2.208   3.351  10.255 -0.7506  0.3679  0.4634
  224MOL0     C30123   2.325   3.343  10.324 -0.4652 -0.0539  0.1054
  224MOL0     C30124   2.285   3.364  10.460 -1.0706 -0.0609  0.3585
  224MOL0     C30125   2.375   3.372  10.581  0.3005  0.8175  0.9596
  224MOL0     C30126   2.420   3.505  10.625  0.0997 -0.1538 -0.2233
  224MOL0     C30127   2.499   3.487  10.750 -0.0303  0.1133 -0.5202
  224MOL0     C30128   2.507   3.609  10.838 -0.7836  0.3158  0.5583
  224MOL0     O30129   2.631   3.613  10.914  0.2969  0.5727  0.0266
  224MOL0     C30130   2.758   3.618  10.854  0.0788 -0.5345 -0.8263
  224MOL0     C30131   2.793   3.631  10.723 -0.1420  0.0711  0.1505
  224MOL0     C30132   2.929   3.665  10.685 -0.0369 -0.1421 -0.7859
  224MOL0     C30133   3.032   3.691  10.784  0.0035 -0.0393 -0.5058
  224MOL0     C30134   3.165   3.715  10.747  0.6830 -0.2123  0.6898
  224MOL0     O30135   3.267   3.695  10.842  0.0208  0.1629  0.5675
  224MOL0     C30136   3.400   3.693  10.803  0.0420  0.5247  0.1266
  224MOL0     C30137   3.465   3.571  10.834 -0.3743  0.4464  0.2157
  224MOL0     C30138   3.598   3.538  10.793  0.2211 -0.2204  1.2236
  224MOL0     C30139   3.658   3.633  10.708  0.1746 -0.1173  0.5915
  224MOL0     O30140   3.781   3.599  10.669  0.0436  0.8169  0.5409
  224MOL0     C30141   3.894   3.644  10.762  0.7093  0.2841 -0.7043
  224MOL0     C30142   4.001   3.725  10.687 -0.6143  0.2064 -0.3560
  224MOL0     C30143   4.122   3.743  10.777 -0.6200  0.5340 -1.4571
  224MOL0     C30144   4.225   3.819  10.689 -0.1332 -0.1004  0.2439
  224MOL0     C30145   4.350   3.845  10.780 -0.2261  0.3151  1.0862
  224MOL0     C30146   4.336   3.960  10.869  0.1301 -1.0392 -0.0046
  224MOL0     C30147   4.442   3.964  10.983  0.2214  0.0221  0.4825
  224MOL0     C30148   4.397   4.075  11.067 -0.4087  0.6445 -0.3502
  224MOL0    Cl30149   4.263   4.020  11.164 -0.2907  0.0844  0.2821
  224MOL0     C30150   3.599   3.757  10.669  0.0271 -0.1481 -0.0885
  224MOL0     C30151   3.473   3.782  10.728 -0.2189 -0.3700  0.6660
  224MOL0     O30152   3.179   3.741  10.627  0.1694  0.4007  0.0020
  224MOL0     C30153   2.988   3.685  10.918 -0.3679  0.0322  0.2061
  224MOL0     C30154   2.860   3.640  10.947  0.7570  0.4012 -0.9248
  224MOL0     N30155   2.149   3.378  10.469  0.5770  0.3200 -0.2117
  224MOL0     N30156   2.105   3.366  10.344  0.5776  0.1804  0.0365
  224MOL0     C30157   2.128   2.733  10.838  0.0142  0.3232 -0.0663
  224MOL0     C30158   2.153   2.731  10.980  0.7287 -0.1628 -1.1991
  224MOL0     C30159   2.245   2.834  11.418 -0.0720 -0.2333 -0.3490
  224MOL0     C30160   2.308   2.963  11.425  0.1634  0.3366  0.9728
  224MOL0     C30161   2.370   3.010  11.542  0.0780  0.1124  1.2103
  224MOL0     C30162   2.376   2.942  11.657 -0.5254  0.2922 -0.6969
  224MOL0     O30163   2.434   2.995  11.766 -0.1497  0.0327  0.2712
  224MOL0     C30164   2.454   2.916  11.879  0.2822  0.4233  0.1793
  224MOL0     C30165   2.488   2.997  12.010 -0.2810  0.3593 -0.2825
  224MOL0     C30166   2.568   2.915  12.111 -0.4463  0.1542 -0.1743
  224MOL0     C30167   2.597   2.986  12.253 -0.2705 -0.0053 -0.4069
  224MOL0     C30168   2.644   2.885  12.353 -0.6105  0.9527  1.0555
  224MOL0     C30169   2.668   2.802  12.436  0.0976  0.8888  0.5461
  224MOL0     C30170   2.305   2.816  11.661  0.0344  0.3132 -0.2190
  224MOL0     C30171   2.245   2.765  11.546 -0.3305  0.7214 -0.9636
  224MOL0     C30172   2.190   2.630  11.551 -0.6398  0.7518  0.6276
  224MOL0     H30173   2.085   3.060  11.012  0.7776  0.4943 -0.4648
  224MOL0     H30174   2.047   3.053  10.792  1.6833  1.0664  0.6266
  224MOL0     H30175   2.228   2.977  10.592  1.2561 -0.2500  3.3043
  224MOL0     H30176   2.264   2.802  10.611 -2.6553 -0.7668  5.4859
  224MOL0     H30177   2.131   2.748  10.413  1.9271 -1.5494  2.8617
  224MOL0     H30178   2.271   2.865  10.387  0.1564  1.0031  2.6269
  224MOL0     H30179   2.129   3.048  10.365  0.8574  0.0256  1.4942
  224MOL0     H30180   1.977   2.961  10.407 -1.2877 -2.4257 -1.6638
  224MOL0     H30181   2.161   2.896  10.182  0.1898 -0.0671  0.1389
  224MOL0     H30182   2.003   2.825  10.206 -0.1752  0.2112 -1.2291
  224MOL0     H30183   1.991   2.975  10.005 -0.3208  1.6709 -0.5903
  224MOL0     H30184   1.872   3.001  10.129 -0.1175  0.6026 -0.9346
  224MOL0     H30185   1.944   3.218  10.069 -0.0496 -0.6502 -1.0237
  224MOL0     H30186   1.999   3.186  10.227 -0.6786  2.3005 -1.4253
  224MOL0     H30187   2.136   3.187   9.959  0.0036  1.0971 -0.9756
  224MOL0     H30188   2.222   3.124  10.111 -1.3683  0.0422  1.4384
  224MOL0     H30189   2.286   3.333  10.056 -0.6195 -0.0313 -0.5290
  224MOL0     H30190   2.126   3.407  10.065 -0.8078 -0.6550 -0.2626
  224MOL0     H30191   2.419   3.353  10.270 -0.7164  0.2076 -0.2887
  224MOL0     H30192   2.320   3.313  10.655  2.8491 -2.4654  0.4693
  224MOL0     H30193   2.462   3.310  10.559 -0.7138 -0.6916  1.0579
  224MOL0     H30194   2.487   3.542  10.547 -1.1846 -1.6387 -2.1341
  224MOL0     H30195   2.329   3.565  10.627 -0.0805 -0.4409  0.6457
  224MOL0     H30196   2.602   3.453  10.741  0.8286  2.3530  0.2924
  224MOL0     H30197   2.446   3.410  10.807  0.9514 -0.5137 -0.4309
  224MOL0     H30198   2.415   3.624  10.895 -0.8503  1.2978  0.2228
  224MOL0     H30199   2.508   3.694  10.769 -0.2313 -0.1200  0.0148
  224MOL0     H30200   2.732   3.640  10.634  1.1252  2.0154 -0.5679
  224MOL0     H30201   2.955   3.686  10.582  4.6126  2.1826  0.6020
  224MOL0     H30202   3.410   3.508  10.903 -0.1128 -0.7663 -0.6382
  224MOL0     H30203   3.655   3.451  10.821  1.3125 -1.0007 -2.8493
  224MOL0     H30204   3.862   3.705  10.847 -0.7988  0.6994 -1.5282
  224MOL0     H30205   3.940   3.558  10.812 -1.4023  0.0595  0.9899
  224MOL0     H30206   4.016   3.665  10.596 -2.9807 -1.4908  0.2842
  224MOL0     H30207   3.948   3.812  10.645 -2.7609 -0.1752  1.3805
  224MOL0     H30208   4.085   3.793  10.866 -2.5261 -0.8917 -1.3862
  224MOL0     H30209   4.160   3.649  10.817  0.3512  1.7904  0.7348
  224MOL0     H30210   4.180   3.910  10.648  0.4225 -0.2595 -0.7528
  224MOL0     H30211   4.258   3.751  10.610  3.6850 -0.3616  1.8308
  224MOL0     H30212   4.432   3.862  10.710 -1.4018  0.3192 -0.3523
  224MOL0     H30213   4.370   3.757  10.841 -0.6452 -3.2826 -3.4376
  224MOL0     H30214   4.357   4.051  10.812  1.7568 -0.8704  0.8218
  224MOL0     H30215   4.235   3.983  10.907  1.1360  2.5685  0.9401
  224MOL0     H30216   4.544   3.990  10.952  1.0584 -0.9157  2.2789
  224MOL0     H30217   4.430   3.873  11.042 -3.8322  0.6912  1.0294
  224MOL0     H30218   4.478   4.108  11.133  0.7901 -2.0267 -0.3926
  224MOL0     H30219   4.371   4.169  11.018 -1.1183  0.8611  0.4036
  224MOL0     H30220   3.654   3.833  10.616  6.5546 -2.3794  2.4232
  224MOL0     H30221   3.416   3.868  10.694 -1.2192 -2.0593 -2.2760
  224MOL0     H30222   3.062   3.703  10.995 -0.7487  0.7853  0.4026
  224MOL0     H30223   2.825   3.623  11.049 -0.1667 -1.5359 -1.5172
  224MOL0     H30224   2.143   2.640  10.783  1.3379  0.3045  0.2904
  224MOL0     H30225   2.176   2.637  11.030 -1.2545 -1.8873 -3.3215
  224MOL0     H30226   2.292   3.022  11.335 -1.9549 -0.7785  0.5421
  224MOL0     H30227   2.413   3.110  11.539 -0.3857  0.2902 -0.1898
  224MOL0     H30228   2.522   2.839  11.842 -3.1526 -3.6637  1.6736
  224MOL0     H30229   2.363   2.866  11.912 -0.2119  2.1005  1.5506
  224MOL0     H30230   2.396   3.035  12.055  0.0625  0.6839  0.1630
  224MOL0     H30231   2.547   3.084  11.982 -0.3410  0.1608 -1.0462
  224MOL0     H30232   2.670   2.893  12.077  0.3721 -0.2538  2.3000
  224MOL0     H30233   2.513   2.823  12.132 -1.5833  0.7516 -0.4553
  224MOL0     H30234   2.671   3.066  12.244  1.5188 -1.3783  1.3051
  224MOL0     H30235   2.505   3.036  12.286  0.4520  1.0322  0.1088
  224MOL0     H30236   2.682   2.727  12.511 -0.0958  1.9071  1.6405
  224MOL0     H30237   2.324   2.745  11.741  0.5416 -0.5121 -1.0512
  224MOL0     H30238   2.262   2.562  11.504 -2.3102 -1.6925  1.4201
  224MOL0     H30239   2.157   2.590  11.647 -4.6019  1.6414 -0.1972
  224MOL0     H30240   2.102   2.624  11.487  0.5223  4.4079 -1.6354
  225MOL0     O30241   5.640   8.869  10.707  0.4529 -1.2321  0.1191
  225MOL0     C30242   5.719   8.905  10.624 -0.5710 -0.3203  0.1729
  225MOL0     O30243   5.820   8.989  10.641  0.5390  0.4770  0.0490
  225MOL0     C30244   5.815   9.085  10.738  0.1945  1.1792  0.0537
  225MOL0     C30245   5.699   9.160  10.754 -0.0216  0.1279  0.1185
  225MOL0     C30246   5.695   9.255  10.848  0.0648 -0.7947 -0.6206
  225MOL0     C30247   5.815   9.265  10.936  0.1331 -1.1668  0.4359
  225MOL0     O30248   5.792   9.356  11.039 -0.2113  0.3592 -0.0750
  225MOL0     C30249   5.892   9.380  11.139 -0.1131  0.6456  0.7310
  225MOL0     C30250   5.827   9.454  11.255 -0.0404 -0.4532 -0.8760
  225MOL0     C30251   5.884   9.595  11.289 -0.0250 -0.0999 -0.0008
  225MOL0     C30252   5.861   9.677  11.163 -0.2971  0.0853 -1.1685
  225MOL0     C30253   5.915   9.813  11.164 -0.3400  0.4948 -0.8532
  225MOL0     C30254   5.829   9.904  11.071 -0.4029  0.9828  0.1597
  225MOL0     C30255   5.892  10.044  11.034 -0.2314  0.8240 -0.7963
  225MOL0     C30256   5.824  10.112  10.917  0.4200  0.7799 -0.2275
  225MOL0     N30257   5.756  10.236  10.942 -0.5436 -0.1527 -0.3958
  225MOL0     C30258   5.816  10.357  10.925 -0.0913 -1.0335 -0.7878
  225MOL0     C30259   5.721  10.454  10.953  0.3611  0.9848 -0.0563
  225MOL0     C30260   5.747  10.594  10.992  0.0728 -0.5830 -0.5343
  225MOL0     C30261   5.809  10.680  10.876 -0.0951 -0.2317 -0.3731
  225MOL0     C30262   5.869  10.808  10.918  0.4739 -0.7746 -0.6146
  225MOL0     C30263   5.940  10.821  11.053 -0.0313 -0.9170 -0.6025
  225MOL0     O30264   6.039  10.718  11.064 -0.4727 -0.0375 -0.4773
  225MOL0     C30265   6.159  10.770  11.117  0.1534  0.4977 -0.3844
  225MOL0     C30266   6.271  10.732  11.053 -0.4538  0.8837  0.6534
  225MOL0     C30267   6.396  10.767  11.118 -0.5710  0.0015  0.2429
  225MOL0     C30268   6.396  10.844  11.233 -0.7455 -0.3872 -0.3680
  225MOL0     C30269   6.522  10.883  11.306  0.5912 -0.7423 -0.2083
  225MOL0     O30270   6.635  10.835  11.240  0.1274 -0.5647  0.4178
  225MOL0     C30271   6.764  10.836  11.292  0.4603 -0.1053  0.9086
  225MOL0     C30272   6.870  10.832  11.204 -0.0927  0.2551 -0.8090
  225MOL0     C30273   7.005  10.834  11.242 -0.1535  0.0209 -0.9224
  225MOL0     C30274   7.031  10.842  11.384 -0.5059  0.5218 -0.5140
  225MOL0     O30275   7.160  10.863  11.441  0.2298 -0.4321 -0.4183
  225MOL0     C30276   7.265  10.815  11.352 -0.2690  0.3172 -0.5454
  225MOL0     C30277   7.403  10.857  11.407 -0.6404 -0.9025 -0.8561
  225MOL0     C30278   7.414  11.016  11.406  0.7502 -0.8892 -0.9020
  225MOL0     C30279   7.555  11.066  11.453  0.1018  0.4318 -0.3007
  225MOL0     C30280   7.551  11.216  11.481 -0.7819 -0.0340 -0.0392
  225MOL0     C30281   7.692  11.265  11.511  0.3118  0.6308  0.4022
  225MOL0     C30282   7.764  11.204  11.623  0.4146  0.1715 -0.5303
  225MOL0     C30283   7.884  11.280  11.686  0.4834  0.1345 -0.4974
  225MOL0    Cl30284   7.854  11.318  11.859  0.0279  0.0288  0.0432
  225MOL0     C30285   6.927  10.839  11.469  0.4220 -0.8617 -0.1387
  225MOL0     C30286   6.791  10.835  11.428 -0.7332  0.3010 -0.6613
  225MOL0     O30287   6.525  10.968  11.394  0.7682 -0.2312 -0.2317
  225MOL0     C30288   6.277  10.894  11.287 -0.3435 -0.2311 -0.3986
  225MOL0     C30289   6.160  10.845  11.233 -0.9174  0.8669 -0.9048
  225MOL0     N30290   5.596  10.394  10.958 -0.1736  0.7586 -0.0423
  225MOL0     N30291   5.624  10.267  10.957 -0.2382 -0.2299  0.5374
  225MOL0     C30292   5.926   9.188  10.917 -0.0643  0.3688 -0.6149
  225MOL0     C30293   5.930   9.101  10.814  1.2199 -1.5551 -0.0847
  225MOL0     C30294   5.728   8.830  10.493 -0.4582 -0.2271 -0.5462
  225MOL0     C30295   5.769   8.902  10.383  0.0986  0.0781  0.0541
  225MOL0     C30296   5.796   8.837  10.265 -0.0347 -0.0052 -0.6857
  225MOL0     C30297   5.768   8.702  10.244  0.2299 -0.1404  0.0625
  225MOL0     O30298   5.775   8.656  10.117 -0.6491  0.8875  0.2160
  225MOL0     C30299   5.650   8.652  10.055  0.4143 -0.7042 -0.1651
  225MOL0     C30300   5.618   8.540   9.956  0.0374 -0.3266 -0.3193
  225MOL0     C30301   5.687   8.528   9.824 -0.1424 -2.0318 -0.3521
  225MOL0     C30302   5.628   8.640   9.733 -0.3584  0.6518 -0.5440
  225MOL0     C30303   5.685   8.613   9.600 -0.1504 -0.0186 -0.4779
  225MOL0     C30304   5.737   8.612   9.489  0.1817  0.7314  0.3293
  225MOL0     C30305   5.712   8.637  10.353  0.2619 -0.4089  0.2840
  225MOL0     C30306   5.692   8.694  10.474 -0.5025 -0.6230 -0.2772
  225MOL0     C30307   5.659   8.610  10.593  1.2898 -0.1552 -0.3654
  225MOL0     H30308   5.609   9.158  10.693 -0.4524  1.7235  0.6529
  225MOL0     H30309   5.604   9.307  10.877 -0.1738 -1.1286 -0.7623
  225MOL0     H30310   5.925   9.279  11.167 -2.6134 -1.0508 -1.8321
  225MOL0     H30311   5.971   9.432  11.084 -2.2949  3.7781  0.2576
  225MOL0     H30312   5.836   9.401  11.350 -2.1530  1.6961  0.6640
  225MOL0     H30313   5.722   9.478  11.237  0.2073  1.2704 -0.1847
  225MOL0     H30314   5.991   9.603  11.311  0.4063 -0.2792 -1.8361
  225MOL0     H30315   5.823   9.638  11.369  0.5482 -2.4474  1.8234
  225MOL0     H30316   5.901   9.620  11.079  0.8818 -1.6622  0.4912
  225MOL0     H30317   5.752   9.691  11.161 -0.3840  0.0038  1.0000
  225MOL0     H30318   5.912   9.854  11.265  0.7648  1.1892 -1.0744
  225MOL0     H30319   6.021   9.819  11.135  0.0768  2.5235  0.8100
  225MOL0     H30320   5.816   9.844  10.981  0.3243  0.9414  0.0750
  225MOL0     H30321   5.734   9.919  11.123 -0.2236  0.6092  0.6071
  225MOL0     H30322   5.996  10.030  11.005  0.1484 -1.5839  1.3730
  225MOL0     H30323   5.892  10.109  11.122 -1.2062 -1.3891  0.9221
  225MOL0     H30324   5.898  10.138  10.840  0.3442  2.6311  0.2686
  225MOL0     H30325   5.757  10.036  10.874 -3.5694  4.1585 -0.6399
  225MOL0     H30326   5.923  10.374  10.926  0.4205 -3.3730  3.0527
  225MOL0     H30327   5.664  10.649  11.036 -0.1893 -2.7585  1.9284
  225MOL0     H30328   5.821  10.591  11.073  0.3001  1.6075 -0.6121
  225MOL0     H30329   5.896  10.622  10.844  1.2602  1.6276 -0.1638
  225MOL0     H30330   5.730  10.698  10.803 -0.5035  0.7815  0.3043
  225MOL0     H30331   5.796  10.890  10.919  0.0648 -1.1351 -0.3047
  225MOL0     H30332   5.955  10.832  10.854 -0.0549  3.8076  0.0535
  225MOL0     H30333   5.873  10.793  11.135  0.1725 -1.3658 -0.5869
  225MOL0     H30334   5.966  10.927  11.065 -0.3694 -0.6733 -1.9423
  225MOL0     H30335   6.270  10.677  10.959 -2.0150  2.7592 -0.5146
  225MOL0     H30336   6.493  10.739  11.076 -0.5475 -0.7872  0.7891
  225MOL0     H30337   6.842  10.810  11.101  2.5384 -3.6336 -0.9279
  225MOL0     H30338   7.083  10.837  11.167  0.4394 -2.8466 -0.5362
  225MOL0     H30339   7.261  10.706  11.344  0.0481  0.4614 -4.1476
  225MOL0     H30340   7.244  10.855  11.253 -2.6130 -1.3978 -0.8386
  225MOL0     H30341   7.414  10.827  11.511 -0.7266 -0.4524 -0.7145
  225MOL0     H30342   7.488  10.811  11.356 -1.6219 -1.8446 -1.6911
  225MOL0     H30343   7.392  11.069  11.313 -1.1429  3.6818  1.8349
  225MOL0     H30344   7.336  11.055  11.473 -0.3912 -4.6868  0.2275
  225MOL0     H30345   7.634  11.046  11.380  0.2540  0.4202 -0.1324
  225MOL0     H30346   7.583  11.013  11.544 -1.3802  1.3558  0.7441
  225MOL0     H30347   7.485  11.243  11.565 -3.2361 -1.2394 -1.4704
  225MOL0     H30348   7.527  11.264  11.386 -1.8040  1.6200  0.9967
  225MOL0     H30349   7.757  11.259  11.423  0.7961 -1.7091  0.8604
  225MOL0     H30350   7.693  11.374  11.516  0.4521  0.6754 -0.4115
  225MOL0     H30351   7.804  11.110  11.585 -0.4677 -1.1856  1.7129
  225MOL0     H30352   7.693  11.190  11.705  1.8124 -0.8961  0.5479
  225MOL0     H30353   7.974  11.223  11.660  0.6026  0.1266 -0.0894
  225MOL0     H30354   7.897  11.376  11.636 -0.4988  0.0312 -0.9739
  225MOL0     H30355   6.952  10.847  11.574 -0.0130  2.9598 -0.1781
  225MOL0     H30356   6.708  10.829  11.497 -0.5134  1.0533 -0.3201
  225MOL0     H30357   6.277  10.962  11.372 -2.2024  1.2342 -1.4827
  225MOL0     H30358   6.071  10.867  11.292 -1.6018  1.0083 -1.9733
  225MOL0     H30359   6.014   9.186  10.981  0.1672 -0.6047 -0.9526
  225MOL0     H30360   6.015   9.042  10.781  0.4026 -3.0377  0.3599
  225MOL0     H30361   5.808   9.002  10.399  1.6038 -0.2228 -1.3992
  225MOL0     H30362   5.838   8.900  10.187 -2.5916  0.9086 -1.4034
  225MOL0     H30363   5.648   8.745   9.998  2.9050  1.2178  2.5783
  225MOL0     H30364   5.571   8.656  10.132  1.2928 -2.6675  0.8937
  225MOL0     H30365   5.511   8.557   9.940  0.2305  2.0863  0.5542
  225MOL0     H30366   5.633   8.447  10.011 -1.1684  1.4540  3.3756
  225MOL0     H30367   5.679   8.426   9.788  1.9033 -2.9064  1.3825
  225MOL0     H30368   5.793   8.546   9.844 -0.3859  1.6059 -1.5138
  225MOL0     H30369   5.520   8.638   9.718 -0.4151 -3.9196 -0.8165
  225MOL0     H30370   5.672   8.734   9.768  2.0558 -1.1347  1.6616
  225MOL0     H30371   5.771   8.604   9.388 -0.2516  0.2742  0.2147
  225MOL0     H30372   5.694   8.531  10.333 -3.1106 -0.2770  1.9728
  225MOL0     H30373   5.657   8.505  10.565  4.4125 -0.0444 -1.3668
  225MOL0     H30374   5.738   8.619  10.668  0.6983  1.8836  0.0749
  225MOL0     H30375   5.560   8.634  10.634  1.3235 -2.2950  1.1079
  226MOL0     O30376   6.346   9.937   5.011  0.3372  0.2964 -0.1076
  226MOL0     C30377   6.312   9.911   5.126 -1.1066  1.0263 -1.4099
  226MOL0     O30378   6.296   9.787   5.187 -0.5129  0.9494  0.1500
  226MOL0     C30379   6.279   9.681   5.101  0.4494 -0.0753  1.0767
  226MOL0     C30380   6.314   9.555   5.139  0.2567 -0.0220  0.2098
  226MOL0     C30381   6.280   9.440   5.074  0.4078 -0.0332 -0.2684
  226MOL0     C30382   6.216   9.448   4.949  0.8430  0.3061 -0.5650
  226MOL0     O30383   6.201   9.332   4.883  0.4751 -0.0158  0.4403
  226MOL0     C30384   6.187   9.314   4.735 -0.1415 -0.5989  0.1982
  226MOL0     C30385   6.125   9.185   4.677  0.6642  0.4044  0.1144
  226MOL0     C30386   6.212   9.074   4.727 -1.4385  0.0252  0.2508
  226MOL0     C30387   6.157   8.936   4.680 -0.9041  0.3394 -0.4826
  226MOL0     C30388   6.268   8.828   4.723 -0.1299 -0.0751  0.1628
  226MOL0     C30389   6.212   8.682   4.689 -0.7240  0.1562  0.5487
  226MOL0     C30390   6.306   8.573   4.734 -0.0063  0.5730  1.3613
  226MOL0     C30391   6.424   8.561   4.640  0.4398  1.2412 -0.7009
  226MOL0     N30392   6.525   8.472   4.696 -0.4936 -0.6071 -0.1698
  226MOL0     C30393   6.588   8.464   4.819  0.5971 -0.6423  1.1146
  226MOL0     C30394   6.638   8.341   4.821 -0.2575 -0.7423 -0.3721
  226MOL0     C30395   6.706   8.283   4.939  0.2392 -0.1806  0.4472
  226MOL0     C30396   6.857   8.271   4.927  0.3405 -0.5226  0.0572
  226MOL0     C30397   6.921   8.395   4.975 -0.3757 -0.7491  0.2061
  226MOL0     C30398   7.068   8.394   4.962 -0.9877  0.0286 -0.1123
  226MOL0     O30399   7.103   8.395   4.820  0.2691  0.2014  0.2233
  226MOL0     C30400   7.230   8.357   4.785  0.6326 -0.3942  1.0620
  226MOL0     C30401   7.347   8.380   4.852  0.4249  0.6752 -0.5287
  226MOL0     C30402   7.473   8.343   4.800 -0.5872 -0.1476 -0.1570
  226MOL0     C30403   7.485   8.270   4.676 -0.9755 -0.7146  0.3373
  226MOL0     C30404   7.619   8.215   4.639  0.1094  0.6656  0.6292
  226MOL0     O30405   7.716   8.247   4.713 -0.1093 -0.5132 -0.3255
  226MOL0     C30406   7.825   8.155   4.726  0.2228 -0.5902  0.0415
  226MOL0     C30407   7.946   8.195   4.671 -0.0254 -0.2854 -0.5262
  226MOL0     C30408   8.057   8.117   4.685  0.7117 -0.1148 -0.4656
  226MOL0     C30409   8.054   8.009   4.765 -0.5588 -0.5805  1.0780
  226MOL0     O30410   8.176   7.948   4.772  0.5531 -0.2378 -0.3797
  226MOL0     C30411   8.205   7.866   4.882 -0.1433 -0.1090 -0.3582
  226MOL0     C30412   8.354   7.850   4.910  0.1235  0.7720 -0.7581
  226MOL0     C30413   8.403   7.743   4.811  0.1709 -0.1328 -0.0411
  226MOL0     C30414   8.386   7.598   4.844 -0.6644  0.0803  0.1320
  226MOL0     C30415   8.460   7.514   4.734  0.1335  0.6044  0.2877
  226MOL0     C30416   8.379   7.486   4.611 -0.4973 -0.1458 -0.1019
  226MOL0     C30417   8.448   7.386   4.524 -0.1051 -0.0256 -1.4561
  226MOL0     C30418   8.564   7.459   4.447  0.0803  0.0236 -0.0286
  226MOL0    Cl30419   8.615   7.340   4.317 -0.6227 -0.2072  0.2221
  226MOL0     C30420   7.937   7.963   4.830 -0.3635  0.0564  0.5087
  226MOL0     C30421   7.821   8.040   4.804  0.6750 -0.0923  0.4113
  226MOL0     O30422   7.622   8.147   4.539 -0.5338  0.0847  0.5704
  226MOL0     C30423   7.370   8.259   4.603  0.1550 -0.7131 -0.0047
  226MOL0     C30424   7.249   8.290   4.656  0.2577  0.4587  0.3481
  226MOL0     N30425   6.626   8.278   4.705  0.6232 -0.4585 -0.1159
  226MOL0     N30426   6.550   8.359   4.628  0.9992  0.0055  0.7810
  226MOL0     C30427   6.176   9.568   4.899 -0.8379 -1.1089 -0.8916
  226MOL0     C30428   6.211   9.682   4.975 -0.2740 -0.3226 -1.8265
  226MOL0     C30429   6.300  10.010   5.226  0.3361  0.7316 -0.2683
  226MOL0     C30430   6.352   9.980   5.345  0.9391  1.0846 -0.3783
  226MOL0     C30431   6.366  10.072   5.455  0.5466 -0.0753  0.4946
  226MOL0     C30432   6.306  10.204   5.441 -0.7122  0.3052  0.4081
  226MOL0     O30433   6.308  10.303   5.534  0.2856  0.4996  0.8651
  226MOL0     C30434   6.326  10.289   5.677  0.0686  0.0336 -0.0689
  226MOL0     C30435   6.329  10.429   5.745 -0.9187  0.0480 -0.3363
  226MOL0     C30436   6.366  10.428   5.898 -0.0415  0.6314  0.6006
  226MOL0     C30437   6.272  10.345   5.992 -0.1446 -0.2454  0.1408
  226MOL0     C30438   6.325  10.342   6.130  0.0043  0.0893  1.3816
  226MOL0     C30439   6.385  10.334   6.238  0.2009  0.3157  0.2799
  226MOL0     C30440   6.259  10.237   5.315  0.7941  0.1398 -0.2071
  226MOL0     C30441   6.270  10.151   5.206  0.8465 -0.0574  0.7510
  226MOL0     C30442   6.215  10.202   5.071 -0.1021 -1.0786 -0.6270
  226MOL0     H30443   6.368   9.546   5.232  0.4918 -2.2410 -0.0866
  226MOL0     H30444   6.314   9.350   5.126 -1.4530 -0.4201  0.3312
  226MOL0     H30445   6.117   9.393   4.706 -1.2524 -1.9233 -0.8921
  226MOL0     H30446   6.289   9.327   4.696 -0.4122 -2.0009 -1.0945
  226MOL0     H30447   6.138   9.191   4.569 -0.5567  0.0031 -0.0657
  226MOL0     H30448   6.020   9.179   4.708  0.9305  1.3318  1.2807
  226MOL0     H30449   6.231   9.072   4.835  3.3029 -4.3454 -0.2509
  226MOL0     H30450   6.314   9.095   4.692  1.0393  0.9279  6.6434
  226MOL0     H30451   6.054   8.913   4.711 -1.2921  1.8271 -0.5701
  226MOL0     H30452   6.151   8.934   4.571  1.0850  4.2655 -0.8414
  226MOL0     H30453   6.364   8.840   4.673 -1.4234 -0.5853 -2.6697
  226MOL0     H30454   6.282   8.830   4.831  0.8476 -4.0615  0.2499
  226MOL0     H30455   6.120   8.673   4.748 -0.5447  3.1106  1.4386
  226MOL0     H30456   6.198   8.681   4.581  0.5916  2.2282  0.3065
  226MOL0     H30457   6.250   8.480   4.729  1.1068 -0.0868  0.9220
  226MOL0     H30458   6.344   8.584   4.836 -2.9577  1.9697  2.4456
  226MOL0     H30459   6.400   8.521   4.541 -3.3143 -1.6661  1.0970
  226MOL0     H30460   6.469   8.659   4.629  0.2986  1.4462  0.4487
  226MOL0     H30461   6.588   8.539   4.898  1.2141  0.0486  0.4702
  226MOL0     H30462   6.674   8.344   5.024 -1.4789 -0.7707  0.2543
  226MOL0     H30463   6.674   8.179   4.940  1.0286 -0.4496 -0.5492
  226MOL0     H30464   6.894   8.189   4.988  0.8838  0.5386  1.2052
  226MOL0     H30465   6.889   8.254   4.824  0.6777 -2.3585  0.4415
  226MOL0     H30466   6.895   8.416   5.079 -0.4821  1.1681 -0.1605
  226MOL0     H30467   6.882   8.485   4.926 -1.5578 -0.8108  0.9794
  226MOL0     H30468   7.105   8.299   5.003 -0.6701  1.3116  2.8250
  226MOL0     H30469   7.124   8.469   5.018  2.0503 -1.4392 -0.9674
  226MOL0     H30470   7.342   8.452   4.933 -2.0530 -0.1979  0.2046
  226MOL0     H30471   7.558   8.373   4.860 -2.5674 -0.8586  3.2335
  226MOL0     H30472   7.947   8.292   4.622 -0.2079  0.2531  0.5057
  226MOL0     H30473   8.145   8.140   4.625  0.2967 -2.3836 -2.0877
  226MOL0     H30474   8.170   7.905   4.978 -1.1918 -0.6737 -0.5020
  226MOL0     H30475   8.170   7.765   4.856 -0.3999 -0.5753  1.6289
  226MOL0     H30476   8.418   7.938   4.909  0.4740  0.5168 -1.4819
  226MOL0     H30477   8.376   7.807   5.009 -0.5752  1.7500 -0.1583
  226MOL0     H30478   8.350   7.754   4.716  0.4619  0.2344 -0.1635
  226MOL0     H30479   8.510   7.756   4.795 -0.0455  1.0709 -0.6033
  226MOL0     H30480   8.286   7.556   4.856  0.8072 -4.0215 -0.4111
  226MOL0     H30481   8.440   7.591   4.939 -0.6544 -2.0255  0.0134
  226MOL0     H30482   8.480   7.420   4.788  0.3544  0.7757  0.5089
  226MOL0     H30483   8.564   7.546   4.720  1.7835 -4.2252 -0.5468
  226MOL0     H30484   8.287   7.438   4.647 -1.0310  0.7031 -0.2978
  226MOL0     H30485   8.365   7.577   4.551  3.0422 -1.3592 -3.1467
  226MOL0     H30486   8.368   7.345   4.461 -2.2093  0.0620  0.9744
  226MOL0     H30487   8.487   7.307   4.589  2.0601  1.1264 -1.2797
  226MOL0     H30488   8.528   7.556   4.410  0.5004  0.9438  1.8716
  226MOL0     H30489   8.653   7.483   4.506 -0.7513  0.6275  1.0246
  226MOL0     H30490   7.947   7.876   4.895 -0.3125 -0.6773 -0.4544
  226MOL0     H30491   7.729   8.022   4.859  1.8664 -1.9579  1.9564
  226MOL0     H30492   7.366   8.206   4.509  1.1810 -5.6027  2.3603
  226MOL0     H30493   7.165   8.260   4.594  1.1148 -1.5691  0.0949
  226MOL0     H30494   6.125   9.582   4.804 -1.1163  1.2901 -0.4378
  226MOL0     H30495   6.191   9.776   4.925 -0.2543 -0.6532 -2.4711
  226MOL0     H30496   6.390   9.885   5.382 -1.3836 -0.4136 -1.5548
  226MOL0     H30497   6.417  10.047   5.547 -2.8832 -2.6833  1.9229
  226MOL0     H30498   6.409  10.220   5.692  0.0041 -0.1894 -0.6908
  226MOL0     H30499   6.229  10.260   5.717 -1.2119  0.4872 -2.6128
  226MOL0     H30500   6.237  10.478   5.713 -1.0245  1.8251  2.3711
  226MOL0     H30501   6.417  10.486   5.713 -0.6845  0.4422  0.9528
  226MOL0     H30502   6.367  10.533   5.926 -2.4591  0.9106 -0.0985
  226MOL0     H30503   6.472  10.403   5.908  0.1290  0.4372 -1.2756
  226MOL0     H30504   6.172  10.387   5.983  0.1924  0.6464  0.4591
  226MOL0     H30505   6.256  10.239   5.972  1.7869 -0.8462  1.3756
  226MOL0     H30506   6.451  10.339   6.322  2.2094 -2.4274 -1.0003
  226MOL0     H30507   6.211  10.334   5.301  3.4255  1.7145  0.8129
  226MOL0     H30508   6.291  10.197   4.992  2.7385  4.4646  1.1674
  226MOL0     H30509   6.124  10.150   5.041 -1.1892  1.9762 -3.2165
  226MOL0     H30510   6.179  10.305   5.084 -0.7027 -1.3536 -0.0798
  227MOL0     O30511   3.762   6.431   4.574 -0.2238 -0.1243 -0.0856
  227MOL0     C30512   3.814   6.318   4.562  0.0286  0.7689  0.2943
  227MOL0     O30513   3.835   6.260   4.436  0.1510 -0.8882  0.5636
  227MOL0     C30514   3.808   6.340   4.331 -0.2019 -0.5288  0.5157
  227MOL0     C30515   3.703   6.317   4.237  0.4476  0.1447  1.0793
  227MOL0     C30516   3.672   6.407   4.134 -0.2377  0.1233 -0.2027
  227MOL0     C30517   3.754   6.522   4.111 -0.3060 -0.8353  0.5466
  227MOL0     O30518   3.725   6.624   4.022  0.6193  0.2679  0.3137
  227MOL0     C30519   3.740   6.764   4.055 -0.4004  0.2859 -0.7306
  227MOL0     C30520   3.713   6.863   3.949  0.2022  0.4064 -0.3566
  227MOL0     C30521   3.551   6.875   3.916  0.1198 -0.1903  1.3340
  227MOL0     C30522   3.519   7.014   3.838 -0.2167  0.4376 -0.4139
  227MOL0     C30523   3.551   7.017   3.691  1.7028  0.7511 -0.5115
  227MOL0     C30524   3.501   7.153   3.641 -0.9861 -0.3814 -1.0344
  227MOL0     C30525   3.500   7.161   3.497  0.5134 -0.1576  0.8821
  227MOL0     C30526   3.446   7.297   3.453  0.1364 -0.9107  0.5214
  227MOL0     N30527   3.453   7.321   3.307  0.0144 -0.1398  0.1946
  227MOL0     C30528   3.348   7.304   3.213  0.6035  0.9869  0.1185
  227MOL0     C30529   3.399   7.340   3.093  0.2186  0.2300  0.0945
  227MOL0     C30530   3.336   7.351   2.960 -0.7444 -0.2805  0.1145
  227MOL0     C30531   3.390   7.262   2.851  0.8652 -1.1041  0.0146
  227MOL0     C30532   3.333   7.290   2.713 -1.4084  0.2490 -0.5476
  227MOL0     C30533   3.420   7.408   2.649 -0.0626 -0.0222 -0.6184
  227MOL0     O30534   3.361   7.444   2.529 -0.4660 -0.0098 -0.1658
  227MOL0     C30535   3.400   7.548   2.452  0.2327  0.2501 -0.7861
  227MOL0     C30536   3.357   7.567   2.319 -0.3697  0.7651 -0.5314
  227MOL0     C30537   3.415   7.662   2.235  0.6029  0.1379  0.8303
  227MOL0     C30538   3.515   7.750   2.285 -0.9040  0.6992 -0.4931
  227MOL0     C30539   3.576   7.850   2.190 -0.2132 -0.6654 -0.3873
  227MOL0     O30540   3.645   7.960   2.233  0.4133  0.3180  0.1823
  227MOL0     C30541   3.703   8.042   2.140  0.0517  0.6396 -0.6123
  227MOL0     C30542   3.695   8.182   2.148 -0.0615  0.2096 -0.7010
  227MOL0     C30543   3.771   8.264   2.063  0.0860 -0.1071 -0.0597
  227MOL0     C30544   3.855   8.210   1.959  0.5361  0.0277  0.0317
  227MOL0     O30545   3.921   8.267   1.853  0.3441  0.6720  0.0166
  227MOL0     C30546   3.919   8.409   1.834  0.0025 -0.1668 -1.0143
  227MOL0     C30547   3.961   8.450   1.697 -0.3068  0.2140  0.2230
  227MOL0     C30548   3.889   8.581   1.651 -0.6408 -0.1541  0.6470
  227MOL0     C30549   3.746   8.561   1.607  0.4117 -0.4875  0.1133
  227MOL0     C30550   3.653   8.650   1.684  0.3936  0.3404 -1.0022
  227MOL0     C30551   3.509   8.610   1.640  0.5563  0.3849 -0.0526
  227MOL0     C30552   3.405   8.668   1.741 -0.1500  0.8349 -0.3850
  227MOL0     C30553   3.333   8.792   1.688 -0.2031 -0.6019  0.4135
  227MOL0    Cl30554   3.435   8.931   1.631 -0.1899 -0.0289  0.0410
  227MOL0     C30555   3.864   8.072   1.964 -0.3434  0.7156  0.2508
  227MOL0     C30556   3.790   7.983   2.051 -0.3313 -0.0645  0.7725
  227MOL0     O30557   3.556   7.826   2.069 -0.0136  0.2672 -0.8114
  227MOL0     C30558   3.555   7.731   2.420 -0.8024  0.2080 -0.5137
  227MOL0     C30559   3.500   7.633   2.500 -0.0420 -0.0540  0.6647
  227MOL0     N30560   3.527   7.383   3.115 -0.0424  0.1195  1.2139
  227MOL0     N30561   3.555   7.371   3.239  0.2108  0.0982 -0.5492
  227MOL0     C30562   3.868   6.533   4.197  0.3988 -0.0669  0.0572
  227MOL0     C30563   3.891   6.450   4.303 -0.0086 -0.6756 -0.2110
  227MOL0     C30564   3.847   6.234   4.679 -0.7088  0.4067  0.5001
  227MOL0     C30565   3.880   6.098   4.669 -1.1212  0.1260 -0.2355
  227MOL0     C30566   3.909   6.010   4.775 -0.3024  0.8397  0.2275
  227MOL0     C30567   3.940   6.072   4.894  0.0801 -0.6913  0.6231
  227MOL0     O30568   3.974   6.008   5.009  0.7630 -0.2290  0.6441
  227MOL0     C30569   3.934   5.871   5.023 -0.9071 -0.2666  0.3530
  227MOL0     C30570   3.926   5.850   5.172  0.7004  0.2480  0.6833
  227MOL0     C30571   4.060   5.819   5.239  0.3760  0.7311  0.8428
  227MOL0     C30572   4.029   5.809   5.392 -0.8962  0.5434 -0.1082
  227MOL0     C30573   4.160   5.804   5.471 -0.5390  0.0906  0.7714
  227MOL0     C30574   4.272   5.780   5.506  0.1470  0.3203 -0.3634
  227MOL0     C30575   3.926   6.207   4.905  0.4028 -0.2999 -0.3111
  227MOL0     C30576   3.876   6.285   4.805  0.2263 -0.0228 -0.6198
  227MOL0     C30577   3.851   6.425   4.863 -0.5211  0.3013  0.1747
  227MOL0     H30578   3.629   6.239   4.247  0.5834 -0.0009  0.9449
  227MOL0     H30579   3.583   6.380   4.079  0.1126 -0.6266 -0.4166
  227MOL0     H30580   3.687   6.791   4.147 -0.3219  1.4888 -1.0202
  227MOL0     H30581   3.844   6.799   4.062 -1.0039  2.9145 -3.1881
  227MOL0     H30582   3.758   6.833   3.854  0.5217  1.5784 -0.5895
  227MOL0     H30583   3.751   6.961   3.979  0.5767 -0.3407  1.8089
  227MOL0     H30584   3.490   6.885   4.005 -2.4102 -3.1311  0.0965
  227MOL0     H30585   3.518   6.787   3.861 -1.7768  0.9067  0.6079
  227MOL0     H30586   3.412   7.028   3.855 -0.1575  2.2082 -1.2517
  227MOL0     H30587   3.562   7.102   3.888 -2.2653  1.5268 -0.4820
  227MOL0     H30588   3.658   7.006   3.669  1.6512 -0.2364 -0.2850
  227MOL0     H30589   3.492   6.944   3.635  2.6861 -2.8429  2.7433
  227MOL0     H30590   3.401   7.178   3.677 -1.9062  1.1817 -4.3341
  227MOL0     H30591   3.564   7.225   3.694 -0.6476 -3.1664  2.8165
  227MOL0     H30592   3.441   7.079   3.455  0.0257  0.7890 -0.3493
  227MOL0     H30593   3.599   7.151   3.452  0.2669  1.5413 -0.1021
  227MOL0     H30594   3.341   7.318   3.478 -0.0114  2.4949 -2.1137
  227MOL0     H30595   3.513   7.369   3.500  0.1422  1.7847 -3.1579
  227MOL0     H30596   3.246   7.277   3.237  0.4473  0.1560 -1.4151
  227MOL0     H30597   3.227   7.357   2.963 -0.6583  1.0092  1.7412
  227MOL0     H30598   3.357   7.445   2.908  3.9754 -1.5744 -0.7824
  227MOL0     H30599   3.499   7.263   2.846  0.8735 -1.6814  0.0706
  227MOL0     H30600   3.365   7.158   2.875 -0.6113 -0.6211  0.6802
  227MOL0     H30601   3.224   7.298   2.726 -1.4891 -1.3549  0.0031
  227MOL0     H30602   3.350   7.195   2.662 -1.3682 -0.1996  0.2773
  227MOL0     H30603   3.521   7.365   2.643  1.7079  3.1228  2.4575
  227MOL0     H30604   3.434   7.483   2.728 -2.0897 -1.9965  1.8192
  227MOL0     H30605   3.291   7.490   2.280  1.2680 -0.9783 -0.0122
  227MOL0     H30606   3.364   7.676   2.140  1.8940 -2.4372 -0.3319
  227MOL0     H30607   3.639   8.241   2.220  1.6399  1.0037  0.0210
  227MOL0     H30608   3.759   8.372   2.066  2.4404  0.1969  0.0142
  227MOL0     H30609   3.816   8.445   1.840  0.5228  1.5318 -1.7446
  227MOL0     H30610   3.976   8.458   1.912 -1.4551  3.6562 -2.1230
  227MOL0     H30611   4.068   8.473   1.697  0.0387 -1.1628 -1.7986
  227MOL0     H30612   3.937   8.377   1.619  0.3079  0.5738 -0.3198
  227MOL0     H30613   3.891   8.663   1.723  1.2979 -0.8718  1.4711
  227MOL0     H30614   3.931   8.604   1.553 -1.0934  2.2711  0.9531
  227MOL0     H30615   3.723   8.456   1.625 -1.2396  0.3168  3.5001
  227MOL0     H30616   3.739   8.578   1.499 -0.8067 -0.2669  0.2149
  227MOL0     H30617   3.675   8.757   1.675  0.9869  0.4462  1.0634
  227MOL0     H30618   3.677   8.637   1.791 -0.7978 -2.2720 -0.9888
  227MOL0     H30619   3.495   8.635   1.534  0.2594 -1.2683 -0.4327
  227MOL0     H30620   3.497   8.502   1.632 -0.6232  0.4330  0.7957
  227MOL0     H30621   3.454   8.682   1.838  5.6610  2.3877 -3.1129
  227MOL0     H30622   3.319   8.601   1.747 -0.0837  0.8619  1.4083
  227MOL0     H30623   3.273   8.769   1.599 -2.0962  1.5394  1.0310
  227MOL0     H30624   3.265   8.820   1.769  0.1237  0.0207  0.4741
  227MOL0     H30625   3.931   8.027   1.892 -1.4819 -1.4223  0.4540
  227MOL0     H30626   3.813   7.878   2.069 -1.9601 -0.6322 -0.1905
  227MOL0     H30627   3.628   7.796   2.468 -2.0275  0.6511  0.8205
  227MOL0     H30628   3.542   7.619   2.599  1.9970 -2.9064 -0.4829
  227MOL0     H30629   3.942   6.609   4.176  3.7952 -2.5928  1.8017
  227MOL0     H30630   3.971   6.465   4.374 -0.2344 -0.8254  0.0791
  227MOL0     H30631   3.854   6.041   4.580 -0.8908 -1.6994  0.8077
  227MOL0     H30632   3.925   5.905   4.753 -4.2697  0.2926 -0.7978
  227MOL0     H30633   4.004   5.803   4.974  0.9738  1.6911  0.1899
  227MOL0     H30634   3.835   5.857   4.979 -0.1892  0.8280 -1.7201
  227MOL0     H30635   3.849   5.772   5.182 -0.5247  1.0567 -1.6651
  227MOL0     H30636   3.887   5.941   5.218  0.0527  0.1147  0.4131
  227MOL0     H30637   4.130   5.896   5.205 -1.7828  1.5281 -2.2741
  227MOL0     H30638   4.093   5.721   5.201  0.2723  1.1880 -0.4806
  227MOL0     H30639   3.973   5.892   5.436  0.3992 -0.3903  3.6649
  227MOL0     H30640   3.970   5.719   5.411  2.3634 -1.8686 -0.4640
  227MOL0     H30641   4.370   5.771   5.548  0.2035  0.1802 -0.5204
  227MOL0     H30642   3.942   6.251   5.003 -3.4966  0.7593  0.0152
  227MOL0     H30643   3.927   6.488   4.816 -0.5676 -0.2874 -0.7097
  227MOL0     H30644   3.754   6.458   4.825 -0.8104 -2.4197 -1.7497
  227MOL0     H30645   3.858   6.439   4.971  1.0436  0.3672  0.0922
  228MOL0     O30646   7.079   6.687   7.175 -0.0866  0.1842 -0.2364
  228MOL0     C30647   7.057   6.615   7.079  0.3770  0.5337 -0.5380
  228MOL0     O30648   6.933   6.569   7.038  0.3648 -0.5317 -0.4779
  228MOL0     C30649   6.820   6.633   7.086 -0.1344 -0.1801 -0.6557
  228MOL0     C30650   6.717   6.549   7.118  0.1350  0.3297 -0.2448
  228MOL0     C30651   6.595   6.601   7.159  0.4347  0.1966  0.5607
  228MOL0     C30652   6.567   6.739   7.171 -0.4773  0.0795  0.2524
  228MOL0     O30653   6.451   6.799   7.203  0.5319 -0.4499 -0.0992
  228MOL0     C30654   6.361   6.732   7.285 -0.1592 -0.3224 -0.5890
  228MOL0     C30655   6.262   6.833   7.335  0.8399 -0.2751 -0.1672
  228MOL0     C30656   6.227   6.793   7.481  0.4863  0.3883  0.0522
  228MOL0     C30657   6.110   6.876   7.530 -0.5490  0.3593 -0.1015
  228MOL0     C30658   6.057   6.847   7.675  0.9113 -0.9600  0.1616
  228MOL0     C30659   6.148   6.903   7.787  0.1250 -0.3175 -0.8675
  228MOL0     C30660   6.077   6.944   7.914  0.4566 -0.0193 -0.0624
  228MOL0     C30661   6.185   6.967   8.022 -0.1645 -0.1950  1.0344
  228MOL0     N30662   6.117   7.019   8.143 -0.0138 -0.6501  0.0634
  228MOL0     C30663   6.015   6.950   8.203  0.4339 -0.8953 -0.1232
  228MOL0     C30664   5.936   7.042   8.266  0.2133  0.6603  0.5225
  228MOL0     C30665   5.814   7.013   8.346  0.5302 -0.1585 -0.8012
  228MOL0     C30666   5.696   7.022   8.252 -0.2081 -0.3838 -0.4959
  228MOL0     C30667   5.564   6.998   8.331 -0.0932 -0.2882  0.1683
  228MOL0     C30668   5.439   7.026   8.248  0.1445  0.4274  0.6688
  228MOL0     O30669   5.427   6.937   8.135 -1.1015  0.0313  0.6570
  228MOL0     C30670   5.414   6.804   8.156  0.7225 -0.3642  0.6537
  228MOL0     C30671   5.406   6.723   8.047  0.9477 -0.5566  0.3352
  228MOL0     C30672   5.375   6.585   8.064 -1.0621  0.6342 -0.3749
  228MOL0     C30673   5.366   6.533   8.193 -0.7148 -0.2437 -0.0715
  228MOL0     C30674   5.347   6.387   8.211  0.7353 -0.2552 -1.2255
  228MOL0     O30675   5.368   6.331   8.330  0.3434 -0.5495 -0.5187
  228MOL0     C30676   5.401   6.199   8.351 -0.2387 -0.8745  0.5233
  228MOL0     C30677   5.455   6.105   8.260 -0.5079 -0.3871  0.0505
  228MOL0     C30678   5.482   5.972   8.293 -0.2418 -0.2323 -0.0631
  228MOL0     C30679   5.444   5.924   8.427  0.0643 -0.2396  0.7791
  228MOL0     O30680   5.457   5.793   8.460  0.7288  0.2887 -0.4350
  228MOL0     C30681   5.356   5.707   8.408  0.5031 -0.2229  0.4605
  228MOL0     C30682   5.385   5.558   8.441 -0.4795 -0.3071  0.1935
  228MOL0     C30683   5.242   5.477   8.456 -0.3311 -0.5232 -1.1552
  228MOL0     C30684   5.290   5.346   8.507 -0.4336 -0.3214  0.8476
  228MOL0     C30685   5.371   5.249   8.428  0.1887  1.1232 -0.6711
  228MOL0     C30686   5.352   5.243   8.276  0.1603 -0.2673  0.2718
  228MOL0     C30687   5.451   5.134   8.220  0.6293 -0.3615 -0.0578
  228MOL0     C30688   5.444   5.130   8.068  0.5239  0.0232 -0.5532
  228MOL0    Cl30689   5.544   4.999   8.001 -0.2400 -0.2395 -0.1918
  228MOL0     C30690   5.390   6.021   8.519 -0.3726 -1.6417  0.3688
  228MOL0     C30691   5.371   6.153   8.482  0.4745 -0.4636 -0.1919
  228MOL0     O30692   5.308   6.333   8.113  0.1175  0.1539 -0.5529
  228MOL0     C30693   5.363   6.620   8.301  0.3893  0.8693  0.3665
  228MOL0     C30694   5.382   6.752   8.281 -0.8389 -0.6119 -0.2283
  228MOL0     N30695   5.989   7.168   8.235 -0.0125  0.9887 -0.6940
  228MOL0     N30696   6.103   7.153   8.175 -0.3333  0.5781 -0.2513
  228MOL0     C30697   6.679   6.822   7.143  0.0238 -0.2025 -0.9521
  228MOL0     C30698   6.804   6.777   7.105  0.2820  0.0383 -0.6445
  228MOL0     C30699   7.180   6.574   7.004 -0.4867 -0.3473 -0.5066
  228MOL0     C30700   7.161   6.471   6.914  0.1479 -0.6453 -0.2333
  228MOL0     C30701   7.248   6.434   6.807  0.9201 -0.5913 -0.8244
  228MOL0     C30702   7.372   6.505   6.807 -0.9501 -0.0451  0.2396
  228MOL0     O30703   7.474   6.482   6.720 -0.4091  0.2366  0.2147
  228MOL0     C30704   7.482   6.356   6.655  0.3811 -0.3454  0.0420
  228MOL0     C30705   7.628   6.335   6.597  0.8079 -0.4156 -0.0667
  228MOL0     C30706   7.636   6.425   6.479 -0.1319  1.2006  0.0379
  228MOL0     C30707   7.761   6.406   6.397 -0.3508  0.5768  0.6913
  228MOL0     C30708   7.746   6.475   6.275 -0.5843 -1.2539  0.7781
  228MOL0     C30709   7.727   6.542   6.178 -0.2220  0.2870 -0.6082
  228MOL0     C30710   7.399   6.604   6.905  0.6911 -0.1076  0.4089
  228MOL0     C30711   7.305   6.643   6.999  0.4865 -1.1483 -0.1331
  228MOL0     C30712   7.346   6.755   7.084 -0.0074  1.4167  0.3139
  228MOL0     H30713   6.728   6.441   7.109  0.3852  0.0039  2.8319
  228MOL0     H30714   6.512   6.534   7.177  0.2766  0.6370  1.5346
  228MOL0     H30715   6.314   6.647   7.236 -1.4907  0.2745 -0.3938
  228MOL0     H30716   6.419   6.697   7.371 -0.5313  0.1638 -0.1278
  228MOL0     H30717   6.174   6.845   7.270  0.6223  4.4827  0.6524
  228MOL0     H30718   6.313   6.930   7.338  0.6191 -0.1676  0.2464
  228MOL0     H30719   6.315   6.813   7.542  0.3990 -0.0471  0.3310
  228MOL0     H30720   6.204   6.686   7.485  0.2003  0.4381 -0.2903
  228MOL0     H30721   6.130   6.983   7.515  2.6465 -0.1988 -0.4283
  228MOL0     H30722   6.022   6.846   7.472  0.3800 -3.3096  0.1618
  228MOL0     H30723   5.958   6.889   7.694  2.5138  1.8645  3.3770
  228MOL0     H30724   6.051   6.738   7.687  2.2648 -1.3837 -2.2314
  228MOL0     H30725   6.221   6.824   7.807 -0.9901 -1.3755 -0.8000
  228MOL0     H30726   6.203   6.986   7.744  1.6101 -1.6383 -1.6248
  228MOL0     H30727   6.009   6.862   7.937 -0.8119  1.2954  1.1209
  228MOL0     H30728   6.019   7.037   7.906  0.7877  0.2065  0.0989
  228MOL0     H30729   6.234   6.874   8.051  0.4912 -0.0221  0.4946
  228MOL0     H30730   6.270   7.030   7.995  0.0086 -1.7337 -2.5703
  228MOL0     H30731   6.002   6.843   8.197  2.5415 -1.2408  0.5818
  228MOL0     H30732   5.822   6.918   8.399  1.5181  0.6826  0.6610
  228MOL0     H30733   5.806   7.084   8.430 -1.0872  0.5910 -1.5376
  228MOL0     H30734   5.692   7.125   8.216  2.0064 -0.5992 -1.5483
  228MOL0     H30735   5.700   6.949   8.171  0.3135 -3.0665  1.7849
  228MOL0     H30736   5.561   7.071   8.413 -0.5686  0.2543 -0.3217
  228MOL0     H30737   5.562   6.901   8.381 -0.4142 -0.0930  0.5376
  228MOL0     H30738   5.456   7.122   8.199 -1.4313 -0.0239 -0.8644
  228MOL0     H30739   5.346   7.021   8.304  1.8684 -2.4079  3.6666
  228MOL0     H30740   5.417   6.753   7.943 -1.6195 -0.8326 -0.0803
  228MOL0     H30741   5.371   6.516   7.980 -0.6215 -1.1876  1.0376
  228MOL0     H30742   5.469   6.149   8.162  0.2006  0.4807  0.5266
  228MOL0     H30743   5.521   5.895   8.226  2.6223 -0.2176  1.4191
  228MOL0     H30744   5.258   5.732   8.448 -0.4904 -1.0416 -1.3383
  228MOL0     H30745   5.353   5.718   8.299 -0.6722  2.0283  0.6770
  228MOL0     H30746   5.446   5.520   8.359  1.6088  0.5954  1.2496
  228MOL0     H30747   5.447   5.557   8.531 -0.9200 -3.4805  0.5888
  228MOL0     H30748   5.192   5.533   8.535  0.2512 -2.2241  0.5035
  228MOL0     H30749   5.185   5.468   8.363 -4.4247 -2.9745  1.3059
  228MOL0     H30750   5.197   5.291   8.525 -0.4467 -1.2990 -1.7535
  228MOL0     H30751   5.334   5.357   8.606 -0.8633  0.8897  0.9112
  228MOL0     H30752   5.354   5.149   8.469 -1.2270  1.0595 -1.3398
  228MOL0     H30753   5.478   5.267   8.442  0.9860 -3.3001  0.7475
  228MOL0     H30754   5.251   5.206   8.255  0.0024 -0.7483  1.7722
  228MOL0     H30755   5.372   5.344   8.239 -0.8171  0.6346  2.0441
  228MOL0     H30756   5.440   5.039   8.272 -0.6961 -1.5538 -2.3925
  228MOL0     H30757   5.548   5.178   8.244  0.2051 -0.0235  1.1427
  228MOL0     H30758   5.340   5.126   8.035  0.6314 -0.5803 -0.8384
  228MOL0     H30759   5.486   5.226   8.038  1.9567 -1.0983 -2.4043
  228MOL0     H30760   5.364   5.994   8.621 -5.1585  1.1129  0.2074
  228MOL0     H30761   5.328   6.222   8.554  3.9047 -0.2097  1.8519
  228MOL0     H30762   5.333   6.591   8.401 -3.5425 -2.1454 -1.3979
  228MOL0     H30763   5.371   6.825   8.360  0.2731  1.9281 -2.2758
  228MOL0     H30764   6.669   6.926   7.172 -2.0037 -0.0612 -1.9468
  228MOL0     H30765   6.887   6.847   7.098  0.2415  0.6329  3.1267
  228MOL0     H30766   7.064   6.421   6.915  0.0661 -0.5630 -1.5287
  228MOL0     H30767   7.219   6.354   6.740 -0.9000 -0.5853 -0.1001
  228MOL0     H30768   7.412   6.342   6.573 -1.0935  3.6791  0.3916
  228MOL0     H30769   7.455   6.278   6.727 -2.9088  0.3092 -0.3390
  228MOL0     H30770   7.640   6.230   6.571 -0.2841 -0.6249  0.2331
  228MOL0     H30771   7.704   6.370   6.667  1.8728  1.8760 -2.2003
  228MOL0     H30772   7.622   6.527   6.517 -1.6925  0.9248  0.3026
  228MOL0     H30773   7.555   6.395   6.412  0.3675  1.3068 -0.6182
  228MOL0     H30774   7.850   6.439   6.452 -1.0608  1.6769  1.2142
  228MOL0     H30775   7.778   6.298   6.386  2.1850  0.9542  0.4242
  228MOL0     H30776   7.706   6.607   6.096 -1.7339  1.8221  0.9082
  228MOL0     H30777   7.494   6.656   6.904 -0.6953  2.6020  0.8394
  228MOL0     H30778   7.442   6.799   7.055  1.1853 -1.7910 -1.1146
  228MOL0     H30779   7.268   6.831   7.087 -1.4715 -0.0584  3.2268
  228MOL0     H30780   7.352   6.715   7.185 -0.2419  0.4633 -0.0429
  229MOL0     O30781   6.580   2.231   3.495  0.5725 -0.1218 -0.1931
  229MOL0     C30782   6.660   2.323   3.495  0.2078  0.3544  0.4831
  229MOL0     O30783   6.796   2.309   3.522  0.5148 -0.9596 -0.6462
  229MOL0     C30784   6.822   2.175   3.540  0.2007  0.9192  0.2082
  229MOL0     C30785   6.844   2.129   3.668  0.2847  0.4481  0.1322
  229MOL0     C30786   6.853   1.990   3.699 -0.0806  0.2454 -0.4245
  229MOL0     C30787   6.845   1.894   3.600 -0.5931  0.5508  0.5849
  229MOL0     O30788   6.856   1.762   3.634  0.7540  0.3775 -0.1975
  229MOL0     C30789   6.868   1.659   3.532 -0.7472 -0.1196 -0.2631
  229MOL0     C30790   6.888   1.521   3.593 -0.1939 -0.4965  0.3835
  229MOL0     C30791   6.778   1.486   3.693  0.8166  0.8545  0.1673
  229MOL0     C30792   6.772   1.335   3.705  0.3962  0.0601 -0.5012
  229MOL0     C30793   6.646   1.277   3.773 -0.9458 -0.3936  1.1561
  229MOL0     C30794   6.629   1.127   3.755 -0.5305  0.9738  0.2843
  229MOL0     C30795   6.742   1.035   3.808 -0.1435 -0.2323  0.4020
  229MOL0     C30796   6.762   1.027   3.956  0.5129 -0.2500 -0.2329
  229MOL0     N30797   6.884   0.951   3.992 -0.0996  0.4002 -0.3023
  229MOL0     C30798   6.896   0.815   3.981  0.1892 -0.1679  0.9869
  229MOL0     C30799   7.019   0.795   4.034  0.7215 -0.2010 -0.5308
  229MOL0     C30800   7.066   0.652   4.044  0.6079  0.1340 -0.2758
  229MOL0     C30801   7.176   0.609   3.941  0.1714 -0.9702 -0.8785
  229MOL0     C30802   7.314   0.632   4.006 -0.3807 -0.0209  0.7335
  229MOL0     C30803   7.423   0.600   3.902 -0.3346  0.0578 -0.6091
  229MOL0     O30804   7.431   0.459   3.872  0.6046  0.1690 -0.3087
  229MOL0     C30805   7.524   0.414   3.784 -0.1926 -0.8298  0.0888
  229MOL0     C30806   7.501   0.289   3.739  0.2593 -0.0834 -0.0428
  229MOL0     C30807   7.589   0.222   3.643 -0.4258 -1.1181 -0.1768
  229MOL0     C30808   7.698   0.303   3.591  0.6120 -1.1987  0.8142
  229MOL0     C30809   7.782   0.259   3.480 -0.4948  0.4898 -0.4693
  229MOL0     O30810   7.729   0.149   3.408 -0.0986 -0.4217 -0.5358
  229MOL0     C30811   7.799   0.111   3.296  0.1415  0.7056  0.3535
  229MOL0     C30812   7.898   0.019   3.302 -0.4002  0.0119  0.4161
  229MOL0     C30813   7.930  -0.060   3.187  0.4065 -0.1813 -0.0591
  229MOL0     C30814   7.860  -0.036   3.062  0.0533  0.4865 -0.9571
  229MOL0     O30815   7.887  -0.099   2.941  0.6865 -0.1501  0.4547
  229MOL0     C30816   7.992  -0.183   2.947  0.7641  0.2277 -0.3439
  229MOL0     C30817   8.031  -0.258   2.819  0.4877 -0.2633  0.0103
  229MOL0     C30818   7.908  -0.336   2.771 -0.5531  0.5534  0.0419
  229MOL0     C30819   7.947  -0.441   2.671  0.3564  0.5726 -1.0604
  229MOL0     C30820   7.828  -0.508   2.586 -0.0858 -0.2937  0.7098
  229MOL0     C30821   7.759  -0.399   2.498  0.0706  0.2478 -0.7833
  229MOL0     C30822   7.664  -0.456   2.392  0.0173  0.8217  0.0695
  229MOL0     C30823   7.623  -0.342   2.292 -0.0396  0.3277  0.0678
  229MOL0    Cl30824   7.519  -0.425   2.177 -0.1147  0.4241  0.5303
  229MOL0     C30825   7.774   0.067   3.064 -0.4536  0.2334  0.3790
  229MOL0     C30826   7.737   0.134   3.176 -0.1585  0.5590  0.3752
  229MOL0     O30827   7.894   0.315   3.458 -0.1761  0.0471 -0.3064
  229MOL0     C30828   7.726   0.433   3.636  1.3104  0.7735 -0.5800
  229MOL0     C30829   7.638   0.494   3.737  0.7440 -0.2113  0.7031
  229MOL0     N30830   7.079   0.917   4.072 -0.2721 -0.3163  0.7171
  229MOL0     N30831   6.987   1.009   4.057 -0.2592  0.7280  1.1325
  229MOL0     C30832   6.820   1.937   3.467  0.1274  0.5317 -0.8313
  229MOL0     C30833   6.819   2.077   3.437 -0.1468 -0.3280  0.3969
  229MOL0     C30834   6.606   2.465   3.490 -0.3992 -0.3265 -0.3634
  229MOL0     C30835   6.682   2.564   3.562  1.1174  0.2312  0.1043
  229MOL0     C30836   6.642   2.700   3.564  0.4808 -0.2191 -0.6085
  229MOL0     C30837   6.517   2.737   3.506 -0.4377 -0.0246 -0.0120
  229MOL0     O30838   6.467   2.865   3.494  0.2482  0.8042 -0.3843
  229MOL0     C30839   6.530   2.959   3.587  0.5300  0.4653 -0.7761
  229MOL0     C30840   6.495   2.959   3.735  0.5693  0.3731  0.3525
  229MOL0     C30841   6.349   2.945   3.754 -0.6094  0.4283 -0.5185
  229MOL0     C30842   6.321   2.951   3.901  0.8305  0.3724 -0.3877
  229MOL0     C30843   6.319   3.090   3.951  0.0445  0.3828 -0.6173
  229MOL0     C30844   6.325   3.208   3.999  0.7138  0.1515  0.3050
  229MOL0     C30845   6.454   2.641   3.438  0.7169 -0.0572  0.1367
  229MOL0     C30846   6.485   2.513   3.430 -0.7987 -0.6780  0.1290
  229MOL0     C30847   6.382   2.424   3.378  0.0203  0.2190  0.7555
  229MOL0     H30848   6.838   2.208   3.742  4.4017  0.3441  0.8116
  229MOL0     H30849   6.870   1.965   3.803 -1.4681  0.8356 -0.0363
  229MOL0     H30850   6.788   1.657   3.458  0.7391  2.2829 -2.0913
  229MOL0     H30851   6.959   1.682   3.475  0.1886 -2.7686 -0.0147
  229MOL0     H30852   6.987   1.517   3.639  1.9996  1.0915 -3.7444
  229MOL0     H30853   6.886   1.446   3.513 -0.8022 -0.8333  0.7010
  229MOL0     H30854   6.678   1.509   3.657  0.4665  1.6382  1.5818
  229MOL0     H30855   6.794   1.532   3.791  0.1755  1.0730  0.1686
  229MOL0     H30856   6.769   1.298   3.602  2.0424 -0.0896 -0.5195
  229MOL0     H30857   6.864   1.296   3.750  2.4973  2.3348 -2.4699
  229MOL0     H30858   6.648   1.313   3.876 -0.0763 -0.1947  1.0791
  229MOL0     H30859   6.561   1.328   3.725  0.2731  1.8382  1.2075
  229MOL0     H30860   6.540   1.102   3.814  0.5496  0.8080  1.9075
  229MOL0     H30861   6.598   1.101   3.654 -2.6093  4.2511 -0.0527
  229MOL0     H30862   6.835   1.068   3.761  0.0832 -2.7303 -1.1179
  229MOL0     H30863   6.719   0.933   3.776 -0.8626 -0.5821  1.9564
  229MOL0     H30864   6.780   1.131   3.988  1.7515 -0.1764 -1.1277
  229MOL0     H30865   6.675   1.003   4.019 -0.8664  3.3125 -0.5453
  229MOL0     H30866   6.826   0.744   3.939  1.1614  0.1890 -1.4025
  229MOL0     H30867   7.097   0.618   4.144 -2.1453  1.3769  1.1130
  229MOL0     H30868   6.986   0.580   4.025  0.5617  0.3722 -1.0226
  229MOL0     H30869   7.162   0.503   3.917  0.3561 -0.4971 -3.2716
  229MOL0     H30870   7.164   0.668   3.850 -2.9591  2.1303  1.2949
  229MOL0     H30871   7.327   0.579   4.101  2.3219  0.1234  0.5278
  229MOL0     H30872   7.318   0.739   4.028 -2.5077  0.4258 -0.7514
  229MOL0     H30873   7.525   0.612   3.940  0.9742 -5.2842 -1.5852
  229MOL0     H30874   7.408   0.655   3.809 -3.7372 -0.4916 -0.5394
  229MOL0     H30875   7.418   0.242   3.792  0.6157 -1.9654 -1.0558
  229MOL0     H30876   7.563   0.122   3.610  0.3380 -1.7229  0.9948
  229MOL0     H30877   7.929  -0.016   3.400 -0.6060  0.2995  0.5843
  229MOL0     H30878   8.021  -0.119   3.195 -0.7644 -2.3611 -1.8290
  229MOL0     H30879   8.079  -0.131   2.987 -1.1341  0.1772  4.5063
  229MOL0     H30880   7.960  -0.253   3.024  1.2627  1.0611  0.6358
  229MOL0     H30881   8.053  -0.185   2.740  0.4187 -1.6303 -1.3094
  229MOL0     H30882   8.111  -0.332   2.835 -0.5860 -0.9369  2.8647
  229MOL0     H30883   7.860  -0.396   2.849  0.0953  0.2974  0.2505
  229MOL0     H30884   7.837  -0.272   2.717 -0.1682  0.3861 -0.6729
  229MOL0     H30885   8.018  -0.511   2.717  0.2527  0.8143 -0.5271
  229MOL0     H30886   8.014  -0.386   2.605 -0.3073  3.4458  0.4614
  229MOL0     H30887   7.747  -0.549   2.648 -2.9921 -0.7056 -2.9660
  229MOL0     H30888   7.872  -0.594   2.535 -0.0274 -0.3155  0.7974
  229MOL0     H30889   7.699  -0.324   2.551 -3.3007 -1.9354 -1.2161
  229MOL0     H30890   7.841  -0.339   2.458 -2.4817  6.0901  1.4222
  229MOL0     H30891   7.575  -0.497   2.442 -0.8931  1.3045 -1.0983
  229MOL0     H30892   7.705  -0.537   2.332 -0.3354 -0.2719  1.2633
  229MOL0     H30893   7.569  -0.265   2.348 -0.6786  1.0891 -1.5449
  229MOL0     H30894   7.703  -0.301   2.231 -0.3178 -2.2970 -2.2347
  229MOL0     H30895   7.729   0.090   2.968  2.2698 -0.3091 -1.1255
  229MOL0     H30896   7.647   0.192   3.154 -0.9254 -1.3258 -1.8975
  229MOL0     H30897   7.817   0.480   3.601  2.5412 -0.1192  1.2970
  229MOL0     H30898   7.645   0.600   3.759 -3.9799  0.2139  1.1785
  229MOL0     H30899   6.802   1.869   3.384 -1.2207 -2.1376  1.4757
  229MOL0     H30900   6.821   2.110   3.334 -2.0382  3.3245  1.3777
  229MOL0     H30901   6.781   2.547   3.604  1.1541 -0.0540 -0.0925
  229MOL0     H30902   6.711   2.759   3.624 -2.2813  1.7478  0.8494
  229MOL0     H30903   6.505   3.057   3.546 -2.7162  0.5446  1.1092
  229MOL0     H30904   6.638   2.945   3.595  0.3951  0.6884  3.8359
  229MOL0     H30905   6.528   3.054   3.779  4.0239 -0.8783  0.6942
  229MOL0     H30906   6.550   2.881   3.789  2.0103 -0.1875 -1.8138
  229MOL0     H30907   6.308   2.851   3.717  2.1399 -0.4125 -1.7250
  229MOL0     H30908   6.300   3.026   3.699  0.0630  1.6163  0.5537
  229MOL0     H30909   6.225   2.905   3.928 -0.8015  1.5530 -3.6396
  229MOL0     H30910   6.402   2.898   3.952  1.8850  1.2506 -1.1107
  229MOL0     H30911   6.332   3.313   4.021 -1.0352  0.0644  1.4307
  229MOL0     H30912   6.363   2.677   3.391  0.4303 -0.5430  0.3081
  229MOL0     H30913   6.361   2.352   3.457  0.9212 -1.7311 -0.6965
  229MOL0     H30914   6.285   2.473   3.364  0.5572  0.7367 -1.6451
  229MOL0     H30915   6.423   2.383   3.285 -0.4528  0.7619  0.3021
  230MOL0     O30916   3.640  10.963   4.589 -0.4171  0.4441  0.4069
  230MOL0     C30917   3.559  11.002   4.673 -0.7866  0.4937 -0.6296
  230MOL0     O30918   3.577  10.973   4.811 -0.2104 -0.3286 -0.1566
  230MOL0     C30919   3.687  10.923   4.860 -1.2237 -0.4992  0.3792
  230MOL0     C30920   3.745  10.800   4.815  0.5369  0.1580  0.1829
  230MOL0     C30921   3.858  10.744   4.882  0.6472  1.0539 -1.0075
  230MOL0     C30922   3.915  10.812   4.992  0.0449  0.4462  0.4303
  230MOL0     O30923   4.009  10.765   5.078  0.4977  0.3178 -0.2824
  230MOL0     C30924   4.074  10.642   5.035 -0.7198  0.7586 -0.0469
  230MOL0     C30925   4.182  10.574   5.125  0.9895 -0.1947  0.0795
  230MOL0     C30926   4.311  10.668   5.155 -0.1471 -0.0722 -0.6316
  230MOL0     C30927   4.355  10.660   5.301 -0.1240 -0.8131 -0.1680
  230MOL0     C30928   4.414  10.527   5.341  0.1532  1.0216  0.4480
  230MOL0     C30929   4.465  10.523   5.494  0.7624 -0.3706  0.0873
  230MOL0     C30930   4.492  10.377   5.537  0.0413  0.0782 -0.7532
  230MOL0     C30931   4.576  10.361   5.665  0.6202  0.0134  0.4250
  230MOL0     N30932   4.591  10.230   5.724 -0.2748 -0.4665  0.4412
  230MOL0     C30933   4.496  10.173   5.807  0.7077  1.0835 -0.3605
  230MOL0     C30934   4.569  10.077   5.869  0.1420 -0.9229  0.7743
  230MOL0     C30935   4.534   9.989   5.980  0.0132  0.5155  0.4325
  230MOL0     C30936   4.648   9.929   6.064 -0.4899  1.0974  0.4785
  230MOL0     C30937   4.719  10.040   6.159 -1.2021 -0.0920  0.0866
  230MOL0     C30938   4.844   9.972   6.225  0.3252 -0.8030  0.3051
  230MOL0     O30939   4.819   9.866   6.313  0.1024 -0.0768  0.0447
  230MOL0     C30940   4.932   9.819   6.380 -1.2138  0.6231 -0.2302
  230MOL0     C30941   5.066   9.861   6.370  0.5776 -0.2227  0.6005
  230MOL0     C30942   5.181   9.793   6.423  0.2186 -0.4174 -0.0464
  230MOL0     C30943   5.167   9.687   6.514 -0.4355 -0.6996 -0.8775
  230MOL0     C30944   5.275   9.623   6.597  0.0889  0.0861  0.6477
  230MOL0     O30945   5.243   9.532   6.697  0.5561  0.3340  0.3632
  230MOL0     C30946   5.356   9.460   6.748 -0.9349 -0.5817  0.0648
  230MOL0     C30947   5.381   9.326   6.729  0.2051 -0.0046 -0.2843
  230MOL0     C30948   5.502   9.262   6.774 -0.3335 -0.2885 -1.5439
  230MOL0     C30949   5.604   9.340   6.823  0.5558  0.2557  0.5333
  230MOL0     O30950   5.725   9.270   6.851  0.0506  0.0457 -0.6117
  230MOL0     C30951   5.819   9.275   6.743  0.0913  0.4511  0.9196
  230MOL0     C30952   5.964   9.260   6.798  0.1147  0.7969 -0.1200
  230MOL0     C30953   6.018   9.383   6.881 -0.1406 -0.2746 -0.4971
  230MOL0     C30954   6.162   9.354   6.921 -0.4653  0.3889 -0.7754
  230MOL0     C30955   6.227   9.464   7.014  0.1183 -0.4706 -0.1541
  230MOL0     C30956   6.246   9.594   6.933  0.1765  0.2173 -0.9100
  230MOL0     C30957   6.351   9.569   6.821  0.4349  0.3504  0.2095
  230MOL0     C30958   6.422   9.708   6.779  0.8530 -0.3478 -0.7606
  230MOL0    Cl30959   6.514   9.793   6.910  0.4945 -0.1824 -0.0263
  230MOL0     C30960   5.584   9.476   6.854  0.4201 -0.2335  0.4326
  230MOL0     C30961   5.462   9.539   6.813  0.5352  0.2215 -0.1938
  230MOL0     O30962   5.393   9.644   6.560  0.5868  0.5483 -0.3212
  230MOL0     C30963   5.031   9.655   6.543 -0.0056  0.2655 -0.2040
  230MOL0     C30964   4.917   9.719   6.486 -0.5086  0.3053 -0.1492
  230MOL0     N30965   4.693  10.074   5.812 -0.0091  0.4240 -0.1272
  230MOL0     N30966   4.703  10.161   5.715 -0.5881  0.0630  0.8000
  230MOL0     C30967   3.867  10.938   5.025 -0.2823 -0.1536 -0.0217
  230MOL0     C30968   3.749  10.993   4.964  0.3749 -0.3533  0.4396
  230MOL0     C30969   3.447  11.074   4.636  0.5932 -0.1248 -0.1845
  230MOL0     C30970   3.324  11.014   4.678  0.4220  0.0378  0.0713
  230MOL0     C30971   3.200  11.072   4.632  0.6174  0.2705  0.2899
  230MOL0     C30972   3.199  11.187   4.551 -0.2834  0.3986 -1.0212
  230MOL0     O30973   3.096  11.255   4.493 -0.2546 -0.2015  0.5055
  230MOL0     C30974   2.966  11.252   4.548  0.0466  0.3701 -0.5172
  230MOL0     C30975   2.878  11.355   4.469  0.3944  0.6637  0.5692
  230MOL0     C30976   2.728  11.369   4.516  0.9543  1.0745  0.2520
  230MOL0     C30977   2.714  11.384   4.660 -0.4190  1.1923 -0.7487
  230MOL0     C30978   2.733  11.527   4.701 -1.2765  0.9397  0.6402
  230MOL0     C30979   2.752  11.643   4.717  0.8500  0.2785 -0.5845
  230MOL0     C30980   3.326  11.249   4.528 -0.3405 -0.9335 -0.2776
  230MOL0     C30981   3.450  11.195   4.566  0.4705 -0.2915 -0.0596
  230MOL0     C30982   3.583  11.251   4.503 -0.7410  0.1493  0.5387
  230MOL0     H30983   3.701  10.743   4.733  1.2400 -0.5149  0.2629
  230MOL0     H30984   3.892  10.648   4.844 -2.4947 -1.2225  1.4026
  230MOL0     H30985   3.986  10.576   5.042 -0.4991  0.4775  0.1199
  230MOL0     H30986   4.110  10.632   4.933 -2.3776 -3.4036 -0.4497
  230MOL0     H30987   4.212  10.485   5.069  2.1829  0.6050 -0.5910
  230MOL0     H30988   4.130  10.545   5.217 -1.6333 -1.2982 -1.6196
  230MOL0     H30989   4.287  10.774   5.140 -1.1225  0.4611  3.3192
  230MOL0     H30990   4.398  10.645   5.093  1.4711 -0.5637  1.6918
  230MOL0     H30991   4.432  10.739   5.297 -0.2859 -0.6814 -0.9632
  230MOL0     H30992   4.277  10.684   5.374  0.6395  0.1582  0.3597
  230MOL0     H30993   4.327  10.462   5.329 -0.3808  1.7946  0.0533
  230MOL0     H30994   4.494  10.502   5.271  2.2172  2.4919  2.1709
  230MOL0     H30995   4.562  10.569   5.514  0.9309  0.7313 -2.6991
  230MOL0     H30996   4.393  10.568   5.563  0.8070 -2.5397  1.6414
  230MOL0     H30997   4.544  10.330   5.453  2.0479  3.4542 -1.6175
  230MOL0     H30998   4.392  10.333   5.546  1.1686 -2.6174 -0.2710
  230MOL0     H30999   4.678  10.394   5.642  1.0031 -1.0777  0.5196
  230MOL0     H31000   4.522  10.428   5.732  1.4608  0.5635  0.5694
  230MOL0     H31001   4.391  10.191   5.823  0.7210  1.6508 -0.8681
  230MOL0     H31002   4.474  10.046   6.052  0.6684  4.0872 -1.5934
  230MOL0     H31003   4.475   9.912   5.930 -0.8693  0.2240  1.8828
  230MOL0     H31004   4.611   9.842   6.118  2.1537 -0.7814 -0.5179
  230MOL0     H31005   4.729   9.886   6.004  0.2171 -2.1271  3.4664
  230MOL0     H31006   4.650  10.064   6.240 -0.3229  0.2073  0.7557
  230MOL0     H31007   4.745  10.134   6.110 -0.3074 -0.3174  0.1177
  230MOL0     H31008   4.897  10.041   6.292 -0.1956  0.3752 -0.4763
  230MOL0     H31009   4.905   9.936   6.142  0.3160 -0.1717  0.0179
  230MOL0     H31010   5.097   9.939   6.301 -1.7855  2.5246  2.3627
  230MOL0     H31011   5.277   9.826   6.384  0.7510 -1.7697  0.0790
  230MOL0     H31012   5.298   9.262   6.702 -0.4041  0.7382 -0.2067
  230MOL0     H31013   5.516   9.155   6.758  0.7831  0.1857 -4.6312
  230MOL0     H31014   5.792   9.194   6.674 -0.4991 -0.5486  2.2821
  230MOL0     H31015   5.809   9.362   6.678  3.2765 -0.4953 -1.1289
  230MOL0     H31016   5.938   9.174   6.860 -1.1363 -1.3954 -3.4541
  230MOL0     H31017   6.022   9.227   6.711 -2.6624 -2.8992 -0.7804
  230MOL0     H31018   6.009   9.475   6.822 -0.2044 -0.4228 -0.7136
  230MOL0     H31019   5.972   9.384   6.981  2.7555  2.6545  1.0089
  230MOL0     H31020   6.214   9.354   6.825  1.1938  0.1156  0.0937
  230MOL0     H31021   6.167   9.259   6.975 -1.7681  1.5562  1.5622
  230MOL0     H31022   6.326   9.420   7.030  0.8522  0.2641 -2.2464
  230MOL0     H31023   6.169   9.487   7.104 -0.9951  1.2862 -1.2545
  230MOL0     H31024   6.153   9.627   6.885 -0.5262  0.7357  0.7631
  230MOL0     H31025   6.281   9.675   6.997  1.0228 -1.7989  1.3130
  230MOL0     H31026   6.306   9.528   6.731  0.7506  3.1766 -1.3436
  230MOL0     H31027   6.433   9.510   6.863 -1.4094 -3.2049 -0.7427
  230MOL0     H31028   6.482   9.693   6.689  0.4600  0.4328 -1.1574
  230MOL0     H31029   6.347   9.785   6.758  1.6663  0.9412  0.8756
  230MOL0     H31030   5.665   9.536   6.895  0.2399 -0.4560  1.1379
  230MOL0     H31031   5.457   9.647   6.822  2.1426  0.4849 -1.9007
  230MOL0     H31032   5.011   9.585   6.623 -4.4891 -1.7771 -2.7407
  230MOL0     H31033   4.822   9.666   6.495  0.7358 -2.4730 -2.0190
  230MOL0     H31034   3.923  11.003   5.091 -0.9986  0.7411 -0.2764
  230MOL0     H31035   3.718  11.092   4.997 -0.8833  1.1447 -4.3723
  230MOL0     H31036   3.333  10.923   4.736  3.6894 -0.2412 -0.6355
  230MOL0     H31037   3.102  11.031   4.653  0.2532  1.3665  0.8163
  230MOL0     H31038   2.981  11.282   4.652 -0.0344  0.8754 -0.6503
  230MOL0     H31039   2.944  11.146   4.538  1.0698  0.2590 -1.8875
  230MOL0     H31040   2.882  11.345   4.361  2.5175 -1.1863  0.7402
  230MOL0     H31041   2.920  11.456   4.482  0.5461  0.7142 -0.2885
  230MOL0     H31042   2.669  11.282   4.485 -0.8171  2.7047 -1.2157
  230MOL0     H31043   2.683  11.450   4.457 -0.3844 -1.2340 -2.1471
  230MOL0     H31044   2.622  11.339   4.698  0.2698 -0.9264 -1.4079
  230MOL0     H31045   2.782  11.320   4.717 -2.2005 -0.6599 -0.5596
  230MOL0     H31046   2.758  11.748   4.738 -0.6038  0.0093  1.5349
  230MOL0     H31047   3.326  11.349   4.485  0.4324  0.1355  1.9886
  230MOL0     H31048   3.646  11.309   4.572 -0.5576 -2.1935  2.4813
  230MOL0     H31049   3.638  11.162   4.469  2.5696  2.1180  0.2949
  230MOL0     H31050   3.567  11.317   4.418 -0.2585 -1.0259 -0.4890
  231MOL0     O31051   7.075   2.299  10.374  0.2168  0.3697  0.1316
  231MOL0     C31052   7.108   2.409  10.430 -0.7376  1.0313 -0.1147
  231MOL0     O31053   7.114   2.531  10.380  0.2627  0.8185 -0.3044
  231MOL0     C31054   7.074   2.554  10.252  0.0163  0.1043  0.3607
  231MOL0     C31055   6.938   2.554  10.223  0.8340 -0.8902  0.7455
  231MOL0     C31056   6.896   2.614  10.095  0.1770  0.1386  0.2654
  231MOL0     C31057   6.993   2.651  10.005 -0.0201  0.2956 -0.1593
  231MOL0     O31058   6.943   2.726   9.900  0.1142 -0.5338  0.1460
  231MOL0     C31059   7.034   2.768   9.804  0.7989  0.1421  0.6339
  231MOL0     C31060   7.087   2.900   9.858  0.7975 -0.7598  0.0595
  231MOL0     C31061   7.184   2.968   9.758  0.4739  0.1698 -0.3838
  231MOL0     C31062   7.186   3.120   9.788  0.1895  0.5882 -0.3385
  231MOL0     C31063   7.292   3.191   9.703 -0.1022 -0.0918  0.4297
  231MOL0     C31064   7.324   3.327   9.760  0.3249 -0.7066 -0.8049
  231MOL0     C31065   7.203   3.425   9.760  0.9267 -0.0719 -0.2821
  231MOL0     C31066   7.147   3.449   9.624  0.3860  0.0989  0.9191
  231MOL0     N31067   7.028   3.528   9.634 -0.0649 -0.7258  0.5274
  231MOL0     C31068   7.028   3.653   9.692  0.9603 -0.8224 -0.0368
  231MOL0     C31069   6.897   3.695   9.684 -0.5061 -0.3847  0.3319
  231MOL0     C31070   6.841   3.822   9.734 -0.0537 -0.6042  0.3024
  231MOL0     C31071   6.729   3.883   9.636 -0.1924 -0.7491 -0.3696
  231MOL0     C31072   6.667   4.012   9.679 -0.2025  0.1059  0.2224
  231MOL0     C31073   6.544   4.050   9.598  0.0720  1.1046 -0.0172
  231MOL0     O31074   6.566   4.056   9.459  0.2361  0.2479  0.2735
  231MOL0     C31075   6.506   4.168   9.394  0.0399  0.0861 -1.2170
  231MOL0     C31076   6.418   4.257   9.453 -0.7464  0.2341 -0.2712
  231MOL0     C31077   6.365   4.366   9.386  0.0585  0.6501  0.2423
  231MOL0     C31078   6.388   4.379   9.249  0.5276 -0.8433 -0.2298
  231MOL0     C31079   6.316   4.490   9.170 -0.3654 -0.2656  0.1996
  231MOL0     O31080   6.360   4.505   9.043 -0.0424 -0.6347 -0.5230
  231MOL0     C31081   6.340   4.611   8.970  0.3987 -0.6007  0.0834
  231MOL0     C31082   6.284   4.599   8.842  0.3189 -0.3392 -0.1515
  231MOL0     C31083   6.272   4.717   8.765 -0.4191 -0.4658  0.1697
  231MOL0     C31084   6.312   4.838   8.810 -0.5143 -1.1999  0.4772
  231MOL0     O31085   6.273   4.944   8.735  0.1056 -0.4699  0.1567
  231MOL0     C31086   6.264   4.948   8.594 -0.0658 -0.1332 -0.0227
  231MOL0     C31087   6.247   5.097   8.560  0.5390  0.1821 -0.5555
  231MOL0     C31088   6.152   5.184   8.646  0.0287 -0.4368 -0.6082
  231MOL0     C31089   6.120   5.321   8.579 -0.1226 -0.8067 -0.6874
  231MOL0     C31090   6.018   5.405   8.668  0.0608 -0.9795 -0.1056
  231MOL0     C31091   5.996   5.550   8.610 -0.0178 -1.0165  0.1539
  231MOL0     C31092   5.886   5.637   8.677 -0.9021  0.2794  0.7631
  231MOL0     C31093   5.751   5.586   8.638 -0.0179 -0.3127  0.5017
  231MOL0    Cl31094   5.742   5.598   8.451 -0.4622  0.2799 -0.1189
  231MOL0     C31095   6.373   4.847   8.934  0.5913  0.7849  0.1971
  231MOL0     C31096   6.382   4.733   9.016  0.0825 -0.6669  0.2071
  231MOL0     O31097   6.232   4.556   9.226  0.0781 -0.0636 -0.3339
  231MOL0     C31098   6.472   4.289   9.189  0.4720  1.5515  0.2171
  231MOL0     C31099   6.531   4.192   9.266 -0.2041  0.3007  0.8382
  231MOL0     N31100   6.832   3.597   9.613 -0.4577  0.2631 -0.0456
  231MOL0     N31101   6.908   3.502   9.584  0.8259  0.9438 -0.4259
  231MOL0     C31102   7.130   2.618  10.029  0.0816 -0.5023  0.2187
  231MOL0     C31103   7.164   2.562  10.147  0.9861  0.7201 -0.1845
  231MOL0     C31104   7.126   2.404  10.577  0.3092 -0.0647 -0.0693
  231MOL0     C31105   7.138   2.279  10.631 -0.1062  0.0565  0.1721
  231MOL0     C31106   7.153   2.258  10.770  0.7878  0.7385 -0.0476
  231MOL0     C31107   7.164   2.362  10.859 -0.0395  0.9703 -0.8672
  231MOL0     O31108   7.185   2.361  10.994  0.1841 -0.0001  0.3770
  231MOL0     C31109   7.231   2.236  11.049  0.7239  0.0787  0.3273
  231MOL0     C31110   7.197   2.261  11.197  0.2513 -1.4969  0.7705
  231MOL0     C31111   7.281   2.372  11.276 -1.3677  0.3133  0.5745
  231MOL0     C31112   7.425   2.327  11.328  0.3534 -0.6407  0.7134
  231MOL0     C31113   7.511   2.311  11.218 -0.6073 -0.5258 -0.1230
  231MOL0     C31114   7.593   2.305  11.127  0.3536  0.7962  0.3850
  231MOL0     C31115   7.167   2.487  10.804  0.1261  0.0577  0.7089
  231MOL0     C31116   7.139   2.508  10.662 -1.0923 -0.7360 -0.8956
  231MOL0     C31117   7.127   2.649  10.623 -0.3425  0.1129 -0.4989
  231MOL0     H31118   6.865   2.530  10.300 -3.4439 -0.1946 -2.6811
  231MOL0     H31119   6.793   2.647  10.092 -0.6045 -2.0466  0.7856
  231MOL0     H31120   7.104   2.686   9.788  0.1450 -0.5514  1.2439
  231MOL0     H31121   6.987   2.797   9.709  0.3542  0.4304  0.9354
  231MOL0     H31122   7.135   2.891   9.956 -1.0992  1.3388  1.2918
  231MOL0     H31123   6.996   2.959   9.875 -0.4024 -2.0990 -1.3905
  231MOL0     H31124   7.147   2.961   9.656  0.3197  2.9839 -0.5867
  231MOL0     H31125   7.286   2.931   9.750  0.7557  1.0350 -0.9247
  231MOL0     H31126   7.084   3.153   9.767  0.1011 -1.7357 -4.9430
  231MOL0     H31127   7.202   3.148   9.892 -0.7504 -0.0777 -0.0033
  231MOL0     H31128   7.387   3.138   9.714  0.2514  0.6373  0.9845
  231MOL0     H31129   7.252   3.194   9.601 -3.3288 -2.6359  1.4319
  231MOL0     H31130   7.355   3.323   9.865 -1.2877 -0.6502 -0.2971
  231MOL0     H31131   7.414   3.366   9.713  1.4515 -1.8930  0.2600
  231MOL0     H31132   7.245   3.520   9.796 -1.3550  2.0505 -2.8106
  231MOL0     H31133   7.129   3.386   9.830 -1.2779  1.2633 -1.7710
  231MOL0     H31134   7.227   3.501   9.571  0.2333 -0.0919  0.4919
  231MOL0     H31135   7.109   3.358   9.576  1.7313 -0.3619  0.6930
  231MOL0     H31136   7.109   3.706   9.742  2.0072 -0.1034 -2.3957
  231MOL0     H31137   6.778   3.800   9.821 -1.4789  3.7018  0.5478
  231MOL0     H31138   6.926   3.881   9.772  0.5304  0.8214 -2.9312
  231MOL0     H31139   6.781   3.898   9.541  2.4400 -0.7999  0.9499
  231MOL0     H31140   6.645   3.817   9.615 -0.7349 -0.6894  1.3979
  231MOL0     H31141   6.744   4.088   9.661  1.9003 -2.4025 -2.4415
  231MOL0     H31142   6.634   4.017   9.783  0.1003  0.7443  0.2946
  231MOL0     H31143   6.513   4.139   9.653 -1.2694 -0.2119  1.5003
  231MOL0     H31144   6.462   3.978   9.613  0.8353  0.7321  3.1745
  231MOL0     H31145   6.356   4.241   9.541 -1.2422  2.2281 -0.1937
  231MOL0     H31146   6.305   4.441   9.437  0.1412  1.8096 -1.2713
  231MOL0     H31147   6.227   4.517   8.800  0.8567  0.1566 -1.9402
  231MOL0     H31148   6.219   4.727   8.670  2.0371  2.6308 -1.0273
  231MOL0     H31149   6.354   4.903   8.552  0.7748  3.0299 -1.9524
  231MOL0     H31150   6.171   4.898   8.568  0.9658 -1.1643 -1.9206
  231MOL0     H31151   6.347   5.140   8.573  1.1175 -1.8923  3.2881
  231MOL0     H31152   6.206   5.111   8.460 -2.1514 -1.0499  0.2663
  231MOL0     H31153   6.060   5.133   8.675  1.0699 -1.0614  1.8766
  231MOL0     H31154   6.204   5.196   8.742  1.2938  0.3574 -1.3599
  231MOL0     H31155   6.079   5.321   8.478  0.8322 -1.5763 -1.0921
  231MOL0     H31156   6.220   5.364   8.576 -0.2374  0.1144  3.0684
  231MOL0     H31157   6.057   5.426   8.768  1.3473  1.1653 -0.9826
  231MOL0     H31158   5.918   5.362   8.677 -0.2705  0.0724  1.8197
  231MOL0     H31159   6.089   5.605   8.626 -1.3833  0.4830  4.7812
  231MOL0     H31160   5.975   5.545   8.503  0.4179  0.3725 -0.0212
  231MOL0     H31161   5.924   5.735   8.647 -0.2922  0.9446  3.4184
  231MOL0     H31162   5.886   5.637   8.786 -1.6941 -1.7439  0.7938
  231MOL0     H31163   5.719   5.488   8.674  1.8028 -0.3122  2.3347
  231MOL0     H31164   5.678   5.659   8.675 -0.4084 -0.5517  0.2030
  231MOL0     H31165   6.400   4.941   8.981 -1.8158  1.3089  0.6702
  231MOL0     H31166   6.451   4.739   9.100  1.7910 -0.4063 -1.1571
  231MOL0     H31167   6.489   4.274   9.083 -0.0106 -0.7340  0.4144
  231MOL0     H31168   6.608   4.129   9.224  0.3352 -0.4580  2.8416
  231MOL0     H31169   7.205   2.645   9.955 -0.5380 -1.7820 -0.9473
  231MOL0     H31170   7.265   2.530  10.174  0.1057 -0.5238  1.9153
  231MOL0     H31171   7.138   2.185  10.576 -0.1391 -0.7297  1.4676
  231MOL0     H31172   7.164   2.155  10.805 -1.0926  0.8375  0.9246
  231MOL0     H31173   7.339   2.225  11.034  0.7827  0.5117  0.3937
  231MOL0     H31174   7.178   2.148  11.014 -1.4768  1.6598 -0.5442
  231MOL0     H31175   7.197   2.171  11.259 -0.6778 -1.2813  1.1079
  231MOL0     H31176   7.096   2.297  11.217  0.6974 -0.9195  2.1285
  231MOL0     H31177   7.229   2.417  11.361 -1.0123 -0.7896  1.4039
  231MOL0     H31178   7.299   2.456  11.208 -1.1793  1.2621  1.7597
  231MOL0     H31179   7.475   2.392  11.401 -1.3611 -1.0707  2.3542
  231MOL0     H31180   7.395   2.230  11.368 -0.2124 -1.1262 -0.8186
  231MOL0     H31181   7.656   2.322  11.042  1.1668 -0.3377  0.7287
  231MOL0     H31182   7.185   2.576  10.864  0.4805  0.3062  0.2426
  231MOL0     H31183   7.027   2.663  10.581 -0.6962 -1.7653 -0.3412
  231MOL0     H31184   7.151   2.725  10.698  1.5886 -1.1234  0.1902
  231MOL0     H31185   7.195   2.682  10.544  0.1902  0.4556  0.0970
  232MOL0     O31186   5.536  10.376   9.442 -0.4583 -0.4923  0.5785
  232MOL0     C31187   5.437  10.443   9.433  0.4329  0.9074 -0.1160
  232MOL0     O31188   5.311  10.400   9.381 -1.1683  0.0116 -0.2489
  232MOL0     C31189   5.295  10.263   9.360  0.5637  1.1035 -0.3603
  232MOL0     C31190   5.259  10.219   9.233 -0.0963 -0.9697  0.4940
  232MOL0     C31191   5.251  10.093   9.184 -0.0989  0.0556 -0.0705
  232MOL0     C31192   5.286   9.997   9.283 -0.2582  0.0695 -0.0052
  232MOL0     O31193   5.289   9.868   9.243  0.0598 -0.1352 -0.3637
  232MOL0     C31194   5.210   9.765   9.310  0.7385  0.3226 -0.3299
  232MOL0     C31195   5.067   9.770   9.256  0.1591 -0.2172  0.5653
  232MOL0     C31196   4.975   9.878   9.312 -0.5404 -1.0680  0.6410
  232MOL0     C31197   4.961   9.878   9.472  0.3206  0.1051 -0.3287
  232MOL0     C31198   4.845   9.951   9.548 -0.3046 -0.5909  0.0545
  232MOL0     C31199   4.704   9.919   9.492  0.3460  0.6656  0.0968
  232MOL0     C31200   4.673   9.759   9.511  0.1174 -0.3768 -0.2852
  232MOL0     C31201   4.524   9.734   9.477 -0.0545 -0.2855 -0.7838
  232MOL0     N31202   4.486   9.740   9.334  0.0831 -0.7199 -0.4879
  232MOL0     C31203   4.489   9.632   9.245 -0.0295  0.4419 -0.1142
  232MOL0     C31204   4.451   9.679   9.130  0.0064 -0.2518  0.1260
  232MOL0     C31205   4.439   9.599   8.999 -0.0403 -0.0808 -1.0204
  232MOL0     C31206   4.389   9.675   8.880 -0.2173 -0.2124 -0.4710
  232MOL0     C31207   4.431   9.595   8.758  0.4703  0.2176  0.0886
  232MOL0     C31208   4.343   9.609   8.638  0.4886  1.0450  0.0059
  232MOL0     O31209   4.295   9.742   8.607  0.3284  0.2376 -0.2380
  232MOL0     C31210   4.389   9.836   8.572 -0.2711 -0.8681  0.1177
  232MOL0     C31211   4.345   9.968   8.586 -0.4524  0.6929  0.4335
  232MOL0     C31212   4.435  10.069   8.569  1.0866  0.6728 -0.2889
  232MOL0     C31213   4.571  10.053   8.532  0.0680 -0.3307 -0.5262
  232MOL0     C31214   4.658  10.166   8.534 -1.5322 -0.1195 -0.1175
  232MOL0     O31215   4.797  10.145   8.521 -1.0156 -0.4395  0.1347
  232MOL0     C31216   4.875  10.239   8.453 -0.2217  0.2118  0.0566
  232MOL0     C31217   4.949  10.334   8.520  0.6286  1.1065  0.2563
  232MOL0     C31218   5.049  10.404   8.462  0.3395  0.5497  0.1450
  232MOL0     C31219   5.069  10.392   8.318 -0.4080 -0.5902 -1.0704
  232MOL0     O31220   5.176  10.448   8.250 -0.4938  0.0240  0.3425
  232MOL0     C31221   5.274  10.528   8.318 -0.2781 -0.4047 -0.6325
  232MOL0     C31222   5.406  10.571   8.231  0.2196  0.5471 -0.2983
  232MOL0     C31223   5.399  10.687   8.138 -1.8879 -0.3865  0.4613
  232MOL0     C31224   5.544  10.739   8.111 -0.4899 -0.1118  0.1405
  232MOL0     C31225   5.539  10.871   8.031 -0.3815  0.2663 -0.3398
  232MOL0     C31226   5.645  10.883   7.911  0.8957  0.8828  0.6437
  232MOL0     C31227   5.610  10.773   7.803  0.1559 -0.5660  0.8643
  232MOL0     C31228   5.696  10.796   7.677  0.6909  0.0555  0.6818
  232MOL0    Cl31229   5.863  10.738   7.716  0.8261 -0.6906 -0.1695
  232MOL0     C31230   4.986  10.302   8.246 -0.5001 -0.2344 -0.2861
  232MOL0     C31231   4.895  10.219   8.320  0.0273  0.4793  0.0011
  232MOL0     O31232   4.608  10.275   8.542  0.1179  0.0038  0.4942
  232MOL0     C31233   4.612   9.921   8.522 -0.2858 -0.5648 -0.1633
  232MOL0     C31234   4.519   9.820   8.537 -0.5674 -0.6088  0.2876
  232MOL0     N31235   4.419   9.810   9.151 -0.5310 -0.8403 -0.6210
  232MOL0     N31236   4.449   9.852   9.270  0.8076  0.1568 -0.8828
  232MOL0     C31237   5.324  10.025   9.413 -0.9394 -0.1423 -0.0033
  232MOL0     C31238   5.320  10.162   9.451  0.2592  0.2937 -0.7845
  232MOL0     C31239   5.439  10.588   9.475  0.4035 -0.3951 -0.9738
  232MOL0     C31240   5.433  10.688   9.378 -0.2182 -0.9398  0.2152
  232MOL0     C31241   5.420  10.818   9.409 -0.2352 -0.4098 -1.0839
  232MOL0     C31242   5.407  10.860   9.547 -0.5003  0.1736 -0.0685
  232MOL0     O31243   5.381  10.992   9.575 -0.0044  0.2152  0.9463
  232MOL0     C31244   5.249  11.018   9.631  0.2013  0.7080  0.7028
  232MOL0     C31245   5.266  11.063   9.776  1.1961  0.9314 -0.0863
  232MOL0     C31246   5.134  11.108   9.840 -0.4551 -0.4535  1.1388
  232MOL0     C31247   5.026  10.998   9.833 -0.4521 -0.0629 -0.4063
  232MOL0     C31248   4.925  11.030   9.934  0.2315  0.4268  0.2352
  232MOL0     C31249   4.818  11.059   9.992 -0.8216 -0.9917  0.2022
  232MOL0     C31250   5.422  10.765   9.648 -0.6144  0.8196 -0.0878
  232MOL0     C31251   5.440  10.621   9.609  0.4266 -0.3359  0.0724
  232MOL0     C31252   5.440  10.517   9.720 -0.4482 -0.0926  0.1210
  232MOL0     H31253   5.239  10.296   9.158  3.2528  2.2875  2.5774
  232MOL0     H31254   5.223  10.064   9.084  0.4240 -3.1486  0.6094
  232MOL0     H31255   5.254   9.670   9.278 -1.9976 -0.5003 -1.9692
  232MOL0     H31256   5.219   9.765   9.419 -0.6517  3.2466 -0.1211
  232MOL0     H31257   5.010   9.682   9.287 -1.4143  0.0357 -1.4278
  232MOL0     H31258   5.065   9.770   9.146 -2.4315 -2.8394  0.4962
  232MOL0     H31259   4.873   9.868   9.274  0.1329  0.7375 -1.9927
  232MOL0     H31260   5.005   9.980   9.284 -2.5537 -0.6092 -0.0124
  232MOL0     H31261   4.929   9.776   9.497 -3.4253  1.1028 -0.5295
  232MOL0     H31262   5.056   9.907   9.517  0.0507  1.0275 -0.3439
  232MOL0     H31263   4.871   9.930   9.652  0.2849 -0.2497 -0.0222
  232MOL0     H31264   4.856  10.060   9.544 -1.6780 -0.3846  0.8373
  232MOL0     H31265   4.635   9.986   9.544  1.4168  2.1410 -0.3194
  232MOL0     H31266   4.705   9.945   9.386  2.0175 -0.1079 -0.1078
  232MOL0     H31267   4.700   9.722   9.610 -1.7693 -2.4259 -0.4448
  232MOL0     H31268   4.748   9.709   9.449  1.2536  0.6591  0.2191
  232MOL0     H31269   4.492   9.634   9.510  0.0563  0.1405  0.7049
  232MOL0     H31270   4.463   9.798   9.542  0.8267 -1.5491  1.4062
  232MOL0     H31271   4.519   9.528   9.257  0.5050  0.6839  0.7561
  232MOL0     H31272   4.539   9.560   8.977 -1.2483 -3.6343 -0.8050
  232MOL0     H31273   4.372   9.514   9.015  0.7764 -0.5313  0.1018
  232MOL0     H31274   4.279   9.681   8.883 -0.1143  3.6290  0.8181
  232MOL0     H31275   4.428   9.776   8.864 -3.3029  0.7123 -3.3357
  232MOL0     H31276   4.437   9.488   8.779  3.0280  0.0494 -1.1278
  232MOL0     H31277   4.535   9.620   8.737  0.9798  0.6651  2.8109
  232MOL0     H31278   4.254   9.550   8.660  1.9341 -0.8516  1.0847
  232MOL0     H31279   4.383   9.558   8.551 -0.6407 -1.8284  1.0551
  232MOL0     H31280   4.242   9.989   8.612 -0.5471  0.3948  0.3089
  232MOL0     H31281   4.404  10.172   8.576  0.7745  0.6349 -0.9966
  232MOL0     H31282   4.937  10.363   8.624  1.5359  3.1190 -0.1529
  232MOL0     H31283   5.115  10.476   8.509 -1.6147  1.1686  2.0997
  232MOL0     H31284   5.245  10.627   8.356  1.6802  0.2482 -0.6807
  232MOL0     H31285   5.320  10.474   8.401  0.6676  1.3450  0.0534
  232MOL0     H31286   5.493  10.577   8.298 -0.2475 -4.1337  1.0267
  232MOL0     H31287   5.430  10.485   8.169  0.2681 -0.0653  0.5523
  232MOL0     H31288   5.360  10.648   8.044 -1.5868  1.6463 -0.5622
  232MOL0     H31289   5.340  10.769   8.179  0.6409  0.7874  2.0279
  232MOL0     H31290   5.602  10.661   8.061 -0.9770 -2.2123  2.6081
  232MOL0     H31291   5.578  10.766   8.211 -0.5369 -0.0027  0.1263
  232MOL0     H31292   5.559  10.960   8.092 -2.0509  0.9131 -0.6782
  232MOL0     H31293   5.438  10.884   7.992 -0.4629  1.9875  0.3908
  232MOL0     H31294   5.653  10.984   7.870  1.8489  0.7378  0.4358
  232MOL0     H31295   5.750  10.863   7.934  1.2593  0.9904 -0.8172
  232MOL0     H31296   5.505  10.791   7.778 -0.0037 -0.6349  1.4705
  232MOL0     H31297   5.630  10.671   7.837 -3.9128 -0.8764  2.9069
  232MOL0     H31298   5.658  10.725   7.602  0.7527 -1.5565  2.1171
  232MOL0     H31299   5.685  10.898   7.640 -5.1027 -1.2766 -2.7147
  232MOL0     H31300   5.005  10.284   8.140  1.5116 -2.8282  0.4145
  232MOL0     H31301   4.831  10.144   8.274  0.3148 -0.3737  0.9480
  232MOL0     H31302   4.711   9.891   8.489  0.1725 -0.2755  0.9047
  232MOL0     H31303   4.562   9.721   8.525  2.2601  0.6018 -0.2890
  232MOL0     H31304   5.368   9.950   9.479 -1.3075 -1.0485 -0.7635
  232MOL0     H31305   5.362  10.189   9.547  0.1347  2.0220 -1.1855
  232MOL0     H31306   5.418  10.669   9.273 -1.4864 -1.7697  0.5271
  232MOL0     H31307   5.387  10.886   9.331  1.8396  0.4783 -1.2739
  232MOL0     H31308   5.191  10.926   9.634  0.4174  0.5018  5.1242
  232MOL0     H31309   5.201  11.096   9.570 -0.1290 -1.7874 -2.4980
  232MOL0     H31310   5.347  11.133   9.800  2.5736 -0.1594 -1.3733
  232MOL0     H31311   5.311  10.974   9.821 -0.1272 -0.4616 -1.3936
  232MOL0     H31312   5.095  11.196   9.788  0.2445  1.3036  3.4325
  232MOL0     H31313   5.150  11.134   9.945  0.7892 -1.2487  1.1656
  232MOL0     H31314   4.992  11.003   9.728  1.7564  2.9907 -1.1117
  232MOL0     H31315   5.069  10.899   9.847  1.8509  1.1431  1.8720
  232MOL0     H31316   4.719  11.085  10.024 -0.3388 -0.1085  1.0505
  232MOL0     H31317   5.415  10.786   9.754 -2.4193  0.5155 -0.1111
  232MOL0     H31318   5.440  10.564   9.819  0.3447 -0.7172  0.4325
  232MOL0     H31319   5.355  10.448   9.716 -0.0644 -0.5879  0.4145
  232MOL0     H31320   5.536  10.465   9.707 -0.1600  0.5151 -0.2244
  233MOL0     O31321   3.104   2.577   6.644 -0.1401  0.5989 -0.3202
  233MOL0     C31322   3.024   2.642   6.580  0.8981  0.5880 -0.6559
  233MOL0     O31323   2.893   2.655   6.611 -0.3385  0.1681 -0.5173
  233MOL0     C31324   2.845   2.607   6.726 -0.4389  1.1324  0.0821
  233MOL0     C31325   2.878   2.657   6.854 -0.2763 -0.2519  0.6997
  233MOL0     C31326   2.826   2.597   6.969 -0.1970  0.2351 -1.1246
  233MOL0     C31327   2.740   2.488   6.962 -0.2899 -1.4371 -0.3040
  233MOL0     O31328   2.677   2.428   7.062  0.0921 -0.3401  0.3959
  233MOL0     C31329   2.698   2.477   7.196 -0.1854  1.1454  0.7219
  233MOL0     C31330   2.638   2.385   7.301 -0.4773  0.9328 -0.5100
  233MOL0     C31331   2.691   2.396   7.437 -0.1698  0.0613  0.9429
  233MOL0     C31332   2.650   2.260   7.500 -0.4667  0.2744  0.2557
  233MOL0     C31333   2.674   2.266   7.653 -0.0575  0.6045  0.1059
  233MOL0     C31334   2.586   2.162   7.734  1.2867 -0.7563  0.1657
  233MOL0     C31335   2.428   2.187   7.751 -0.9109  1.6542 -0.2747
  233MOL0     C31336   2.413   2.302   7.851  0.3824 -0.1564  0.2762
  233MOL0     N31337   2.436   2.432   7.793  0.0578 -0.0583 -0.3857
  233MOL0     C31338   2.376   2.476   7.677  0.2335 -0.3406  0.6702
  233MOL0     C31339   2.417   2.603   7.660  0.3203  0.0678  0.5247
  233MOL0     C31340   2.406   2.685   7.538  0.7450 -1.1261 -1.2146
  233MOL0     C31341   2.535   2.724   7.461  0.0022 -1.1729  0.2805
  233MOL0     C31342   2.516   2.856   7.395  0.3452  0.3472  0.5398
  233MOL0     C31343   2.648   2.910   7.348 -0.2554 -0.3019  0.1579
  233MOL0     O31344   2.626   3.020   7.266 -0.2096 -0.3582 -0.0008
  233MOL0     C31345   2.589   2.996   7.133  0.6438 -0.1567  0.3382
  233MOL0     C31346   2.488   3.081   7.088  0.2153  0.2226  0.8565
  233MOL0     C31347   2.435   3.055   6.961  0.4229 -0.1662 -0.3594
  233MOL0     C31348   2.483   2.952   6.882  0.7728  0.3714  1.3055
  233MOL0     C31349   2.423   2.942   6.750  0.1023  0.4824 -0.2750
  233MOL0     O31350   2.468   2.838   6.675 -0.5841  0.5361  1.0657
  233MOL0     C31351   2.455   2.862   6.537 -0.3197 -0.2250  0.0655
  233MOL0     C31352   2.337   2.826   6.466 -0.1169 -0.2169 -0.1071
  233MOL0     C31353   2.330   2.840   6.326 -0.2911  0.1982  1.1937
  233MOL0     C31354   2.436   2.894   6.252 -0.1129  0.5716  0.4560
  233MOL0     O31355   2.415   2.891   6.116  0.7949 -0.1511 -0.0561
  233MOL0     C31356   2.519   2.933   6.031  0.5883  0.1714  0.2980
  233MOL0     C31357   2.456   2.948   5.897  0.0926 -0.1493  0.2105
  233MOL0     C31358   2.542   2.998   5.788 -0.3759  0.2124  0.0470
  233MOL0     C31359   2.466   3.035   5.654 -0.0217  0.1919  1.0756
  233MOL0     C31360   2.574   3.080   5.550  0.5518 -1.0344 -0.3345
  233MOL0     C31361   2.633   2.967   5.469  0.4665 -0.4050  0.4574
  233MOL0     C31362   2.549   2.898   5.363  0.0748  0.1854  0.2012
  233MOL0     C31363   2.612   2.853   5.233 -0.1684 -0.3491 -0.2903
  233MOL0    Cl31364   2.671   2.993   5.146 -0.1997 -0.0454  0.0343
  233MOL0     C31365   2.552   2.932   6.323 -0.5351 -1.1672 -0.4895
  233MOL0     C31366   2.562   2.911   6.462  0.2561  0.1473  0.3514
  233MOL0     O31367   2.324   3.013   6.721 -0.3566  0.5293 -0.2219
  233MOL0     C31368   2.593   2.876   6.924  0.6823  0.4749  0.8780
  233MOL0     C31369   2.641   2.892   7.055  0.5137  0.2503  0.1519
  233MOL0     N31370   2.483   2.647   7.772  0.5221  0.8037  0.2232
  233MOL0     N31371   2.490   2.547   7.849 -1.2303  0.0212 -0.6459
  233MOL0     C31372   2.698   2.453   6.833  0.1380  0.6747 -0.9478
  233MOL0     C31373   2.760   2.493   6.713  0.0070  1.0476 -0.5465
  233MOL0     C31374   3.081   2.710   6.467 -0.6268  0.0269 -0.6642
  233MOL0     C31375   3.219   2.749   6.462  0.0753  0.7815  0.8200
  233MOL0     C31376   3.289   2.801   6.351 -0.3365 -0.0207  0.0108
  233MOL0     C31377   3.214   2.830   6.243 -0.4112  0.6032  0.3981
  233MOL0     O31378   3.271   2.879   6.130 -0.3537  0.7163 -0.2615
  233MOL0     C31379   3.259   3.013   6.108  0.0856  0.0713  0.7312
  233MOL0     C31380   3.394   3.076   6.153  0.3112  0.4053 -0.2603
  233MOL0     C31381   3.411   3.216   6.094 -0.0632 -0.2628 -0.6238
  233MOL0     C31382   3.525   3.290   6.165 -0.4643 -0.7433 -0.4414
  233MOL0     C31383   3.651   3.252   6.100 -0.2408  0.7916 -1.1038
  233MOL0     C31384   3.760   3.228   6.055  1.0746  0.3877 -0.0746
  233MOL0     C31385   3.079   2.812   6.245 -0.0489 -0.1037 -0.3182
  233MOL0     C31386   3.010   2.750   6.349  0.2897 -0.5869 -1.2127
  233MOL0     C31387   2.858   2.713   6.330 -1.2636 -0.4675 -0.2452
  233MOL0     H31388   2.959   2.729   6.856  1.2264 -1.8647  0.6972
  233MOL0     H31389   2.846   2.645   7.063 -2.2794  0.7178 -0.8834
  233MOL0     H31390   2.801   2.504   7.221  0.5908 -0.7064 -0.3018
  233MOL0     H31391   2.655   2.578   7.200  2.6449  2.4035  1.7595
  233MOL0     H31392   2.640   2.285   7.258  1.1808  0.1191  1.3288
  233MOL0     H31393   2.532   2.408   7.316 -0.7051 -0.9029  0.9769
  233MOL0     H31394   2.652   2.487   7.485 -2.7090 -1.9118  2.8948
  233MOL0     H31395   2.800   2.398   7.429 -0.0833 -3.5715 -0.6393
  233MOL0     H31396   2.547   2.233   7.480  1.3835 -5.7101 -3.9279
  233MOL0     H31397   2.715   2.183   7.457 -1.0634  0.7224 -1.5336
  233MOL0     H31398   2.781   2.255   7.672 -0.0170  1.6078  0.5196
  233MOL0     H31399   2.653   2.363   7.699  1.9397  0.9133  0.4634
  233MOL0     H31400   2.601   2.063   7.689  3.2258  0.0769 -1.1875
  233MOL0     H31401   2.632   2.157   7.834 -1.5177 -2.0387  1.4972
  233MOL0     H31402   2.399   2.091   7.795  2.2179 -0.0972 -1.6982
  233MOL0     H31403   2.374   2.203   7.657  0.7079 -0.7563 -1.7277
  233MOL0     H31404   2.309   2.300   7.886 -0.3253  0.2461 -1.6570
  233MOL0     H31405   2.490   2.302   7.929  0.9324  1.0353 -0.2464
  233MOL0     H31406   2.315   2.431   7.599  2.0551 -0.3644 -0.8275
  233MOL0     H31407   2.332   2.625   7.484  0.1074 -1.8106  0.3539
  233MOL0     H31408   2.374   2.780   7.583  2.7389 -0.6075 -0.7988
  233MOL0     H31409   2.620   2.716   7.529 -0.8253 -2.3952  1.2319
  233MOL0     H31410   2.553   2.656   7.377  1.5003 -1.5709  0.8896
  233MOL0     H31411   2.478   2.928   7.468 -0.3188 -1.3875  1.9801
  233MOL0     H31412   2.455   2.845   7.304 -0.5337  3.3081  0.6685
  233MOL0     H31413   2.717   2.838   7.303  0.7402  0.2071  0.8495
  233MOL0     H31414   2.700   2.942   7.439  2.5524 -0.3621 -1.3096
  233MOL0     H31415   2.453   3.158   7.156  1.2498  1.2839  0.2286
  233MOL0     H31416   2.361   3.121   6.916 -1.2498 -2.5881 -1.3609
  233MOL0     H31417   2.262   2.777   6.528 -1.3962  0.0323 -1.4115
  233MOL0     H31418   2.246   2.798   6.272 -0.8580  2.8843 -0.2104
  233MOL0     H31419   2.571   3.019   6.074  1.6676 -0.3814  0.1437
  233MOL0     H31420   2.589   2.849   6.027  0.0693 -0.2286 -0.6571
  233MOL0     H31421   2.423   2.849   5.864  4.6881 -1.4645 -1.2141
  233MOL0     H31422   2.370   3.016   5.905  0.5824  0.6022 -0.6569
  233MOL0     H31423   2.588   3.088   5.831  0.9642 -0.9038  1.0343
  233MOL0     H31424   2.613   2.921   5.757 -3.2516 -2.0831 -1.3898
  233MOL0     H31425   2.387   3.111   5.658 -2.0355 -1.6138 -1.1158
  233MOL0     H31426   2.415   2.946   5.617  1.3019  0.4997 -1.7833
  233MOL0     H31427   2.651   3.129   5.610 -0.9349  0.8748  0.0896
  233MOL0     H31428   2.530   3.147   5.476  1.0339 -1.4702 -1.0317
  233MOL0     H31429   2.706   3.009   5.398  0.1417 -0.6339 -0.0159
  233MOL0     H31430   2.694   2.908   5.538  0.1220 -1.9113 -0.4834
  233MOL0     H31431   2.470   2.968   5.332  1.4590  2.0620  0.7216
  233MOL0     H31432   2.500   2.813   5.410 -0.7848  0.5663  0.0211
  233MOL0     H31433   2.688   2.775   5.231 -0.2230 -0.4684 -4.0307
  233MOL0     H31434   2.539   2.807   5.165 -0.5475  0.1183 -0.2125
  233MOL0     H31435   2.621   2.995   6.267 -1.6124  0.4237 -0.1115
  233MOL0     H31436   2.640   2.940   6.532 -0.3603  0.9635  0.7295
  233MOL0     H31437   2.619   2.786   6.868 -0.7009  0.2603  0.5544
  233MOL0     H31438   2.721   2.823   7.080 -0.6874 -1.5477 -0.6916
  233MOL0     H31439   2.623   2.375   6.845  1.7402 -0.7073  0.9804
  233MOL0     H31440   2.738   2.453   6.615  2.6075  0.2177 -0.8801
  233MOL0     H31441   3.256   2.743   6.564 -2.5620  0.7957  1.8539
  233MOL0     H31442   3.395   2.821   6.363 -0.1755 -1.4504  1.4049
  233MOL0     H31443   3.169   3.064   6.143 -0.6744 -0.0740 -0.9334
  233MOL0     H31444   3.261   3.030   6.000 -0.2392 -1.3463  0.4864
  233MOL0     H31445   3.481   3.020   6.118  0.5733  0.7816 -0.2149
  233MOL0     H31446   3.391   3.076   6.263 -3.9722 -0.9171 -0.1768
  233MOL0     H31447   3.321   3.271   6.120  0.5459 -0.1950  1.4685
  233MOL0     H31448   3.429   3.223   5.986 -2.4884 -1.2216 -1.1716
  233MOL0     H31449   3.528   3.397   6.142  0.3815 -0.2552  1.6467
  233MOL0     H31450   3.534   3.283   6.274 -3.3925 -1.3516 -0.1432
  233MOL0     H31451   3.861   3.209   6.025  1.2334 -0.5190  0.9453
  233MOL0     H31452   3.020   2.845   6.160  0.3637  1.8345  0.1054
  233MOL0     H31453   2.824   2.745   6.231 -1.0136  1.9702  0.3934
  233MOL0     H31454   2.841   2.606   6.338  0.2191 -0.7829 -0.9078
  233MOL0     H31455   2.804   2.774   6.403  2.3363  2.5241  0.2456
  234MOL0     O31456   9.284   8.287   6.128  1.1031 -0.4586  0.3678
  234MOL0     C31457   9.258   8.364   6.028 -0.1654  1.5338 -0.5159
  234MOL0     O31458   9.263   8.324   5.891  0.1209  0.5391 -0.6057
  234MOL0     C31459   9.308   8.193   5.861  0.0853  1.3006  0.1537
  234MOL0     C31460   9.246   8.135   5.754  0.3075  0.5573 -0.1718
  234MOL0     C31461   9.295   8.023   5.686 -0.2878  0.2679  0.6640
  234MOL0     C31462   9.412   7.960   5.729 -0.6435 -0.1805  0.3298
  234MOL0     O31463   9.465   7.846   5.664  0.3715 -0.1718  0.3271
  234MOL0     C31464   9.407   7.792   5.550  0.3071 -0.1284  0.2250
  234MOL0     C31465   9.481   7.676   5.502 -0.1792  0.4080  0.0826
  234MOL0     C31466   9.416   7.612   5.383  0.2649 -0.3217 -0.2164
  234MOL0     C31467   9.337   7.490   5.427  0.3580  0.1274  0.2360
  234MOL0     C31468   9.211   7.464   5.354  0.1772 -0.1471 -0.2001
  234MOL0     C31469   9.221   7.459   5.196 -0.5330  0.0721  0.5568
  234MOL0     C31470   9.333   7.380   5.137  0.5699  0.2103 -0.0416
  234MOL0     C31471   9.373   7.412   4.986  0.3403  0.2449  0.0575
  234MOL0     N31472   9.442   7.545   4.959 -0.1815  0.0815  0.3582
  234MOL0     C31473   9.374   7.657   4.936  0.0906  0.1418  0.4701
  234MOL0     C31474   9.470   7.749   4.919  0.4445  0.1473  0.0751
  234MOL0     C31475   9.438   7.893   4.901 -1.7008 -1.3762  0.3427
  234MOL0     C31476   9.538   7.990   4.974 -0.1522  0.0387 -0.6783
  234MOL0     C31477   9.470   8.060   5.098 -0.2471  0.2077 -1.0172
  234MOL0     C31478   9.559   8.154   5.167  0.6272  0.0539  0.6733
  234MOL0     O31479   9.568   8.262   5.090  0.0169 -0.0775  0.7097
  234MOL0     C31480   9.614   8.373   5.147 -0.1193  0.1235  0.4157
  234MOL0     C31481   9.718   8.381   5.238 -0.5348  0.1393  0.2681
  234MOL0     C31482   9.762   8.499   5.302  0.0865 -0.2171 -0.0482
  234MOL0     C31483   9.697   8.616   5.273 -0.4232  0.3220 -0.2171
  234MOL0     C31484   9.731   8.741   5.333  0.3411  0.7739 -0.4921
  234MOL0     O31485   9.865   8.751   5.393  0.6168 -0.8268 -0.8212
  234MOL0     C31486   9.910   8.873   5.447  0.2261  0.0393  0.0355
  234MOL0     C31487   9.929   8.992   5.383 -0.8612  0.8256 -0.5507
  234MOL0     C31488   9.961   9.111   5.451  0.4459  0.0268 -0.4923
  234MOL0     C31489   9.980   9.108   5.587  0.0635 -0.5038  0.3450
  234MOL0     O31490  10.016   9.215   5.662  0.1649 -0.4979 -0.1665
  234MOL0     C31491  10.029   9.351   5.615 -0.2485  0.3939 -0.4763
  234MOL0     C31492  10.051   9.435   5.736  0.0068  0.0357 -0.4916
  234MOL0     C31493  10.048   9.588   5.691 -0.3940  0.1935  1.6278
  234MOL0     C31494  10.028   9.688   5.798  0.1344  0.0665 -0.0755
  234MOL0     C31495   9.971   9.823   5.758  0.1631  1.0663 -0.0040
  234MOL0     C31496  10.078   9.904   5.679  1.1741 -0.3676  0.5064
  234MOL0     C31497  10.018  10.044   5.641 -0.2266  0.0824 -0.0299
  234MOL0     C31498  10.127  10.144   5.603 -0.1736 -1.7246  0.6057
  234MOL0    Cl31499  10.086  10.303   5.671 -0.4412  0.2216 -0.3625
  234MOL0     C31500   9.970   8.992   5.660  0.6568  0.4159  0.1735
  234MOL0     C31501   9.916   8.877   5.589  0.6196  0.2867  0.3916
  234MOL0     O31502   9.647   8.829   5.325  0.9842  0.1736 -0.0503
  234MOL0     C31503   9.597   8.619   5.174 -0.2190 -0.3564 -0.9047
  234MOL0     C31504   9.558   8.498   5.112  0.1971  0.2678 -0.2509
  234MOL0     N31505   9.590   7.676   4.899 -0.3929 -0.4306 -0.2808
  234MOL0     N31506   9.572   7.558   4.922  0.7839  0.1887 -0.4018
  234MOL0     C31507   9.467   8.018   5.846 -0.7548  0.8193 -0.2366
  234MOL0     C31508   9.420   8.132   5.914  0.7186  0.2643 -0.1745
  234MOL0     C31509   9.209   8.501   6.055  0.3538  0.8652 -0.3052
  234MOL0     C31510   9.223   8.599   5.949 -0.6228  1.1608  0.3458
  234MOL0     C31511   9.195   8.730   5.967 -0.4030 -0.7028 -0.8195
  234MOL0     C31512   9.131   8.773   6.077 -0.1410 -0.2218  0.8780
  234MOL0     O31513   9.101   8.905   6.103  0.5594  0.3246  0.0949
  234MOL0     C31514   9.130   9.008   6.002 -0.0983  0.7720 -0.7976
  234MOL0     C31515   9.054   9.143   6.019 -0.5670  0.4513  0.5488
  234MOL0     C31516   8.906   9.116   6.016 -0.0010 -0.5337  0.2489
  234MOL0     C31517   8.844   9.257   6.014  0.2887 -0.9795  0.7424
  234MOL0     C31518   8.708   9.230   5.966  0.1683 -0.1564  0.2321
  234MOL0     C31519   8.598   9.180   5.943  0.1656 -0.5279  0.2383
  234MOL0     C31520   9.108   8.673   6.174 -0.6338 -0.2713 -0.4163
  234MOL0     C31521   9.144   8.540   6.173 -0.6438  0.0768  0.4033
  234MOL0     C31522   9.095   8.448   6.283 -0.7724 -0.4087 -0.5331
  234MOL0     H31523   9.161   8.183   5.706 -0.7672  1.1012  2.1625
  234MOL0     H31524   9.240   7.973   5.607  0.8386  0.9510 -0.6028
  234MOL0     H31525   9.309   7.755   5.584 -0.3902  1.4144 -0.0090
  234MOL0     H31526   9.379   7.862   5.470  1.0463  1.1086  1.0284
  234MOL0     H31527   9.495   7.604   5.582  0.4702  1.7845  1.2566
  234MOL0     H31528   9.579   7.713   5.472  0.3914 -2.0695 -1.4103
  234MOL0     H31529   9.486   7.572   5.310  1.3926 -0.8308  1.0908
  234MOL0     H31530   9.348   7.682   5.333  0.3419  0.9028  1.3060
  234MOL0     H31531   9.394   7.398   5.412 -1.9084 -0.9543 -3.0010
  234MOL0     H31532   9.303   7.510   5.529 -2.4206 -0.6239 -0.4629
  234MOL0     H31533   9.148   7.385   5.394 -0.1365  0.0494 -0.3032
  234MOL0     H31534   9.139   7.545   5.370 -0.4555 -0.9792  1.3112
  234MOL0     H31535   9.128   7.412   5.162  0.6085 -2.1636  0.3530
  234MOL0     H31536   9.225   7.563   5.163 -0.2470 -1.1333 -3.7528
  234MOL0     H31537   9.308   7.273   5.136  0.3692  0.1535  2.8555
  234MOL0     H31538   9.416   7.391   5.207  0.5026  5.3500 -0.3600
  234MOL0     H31539   9.427   7.321   4.957 -1.2949 -1.0594  0.8791
  234MOL0     H31540   9.277   7.411   4.933 -0.5181 -1.4809  1.5122
  234MOL0     H31541   9.269   7.678   4.953 -1.2788 -4.6545 -0.7715
  234MOL0     H31542   9.437   7.915   4.794  1.9659 -1.1106  0.2399
  234MOL0     H31543   9.336   7.906   4.937 -1.3965  1.7920  0.3630
  234MOL0     H31544   9.628   7.936   5.006  0.8402  1.6128 -0.7333
  234MOL0     H31545   9.572   8.065   4.903  2.3058  1.1507  1.5158
  234MOL0     H31546   9.445   7.974   5.161 -2.1550  0.1135 -1.8320
  234MOL0     H31547   9.377   8.115   5.080 -0.5161 -0.1643 -0.7684
  234MOL0     H31548   9.658   8.110   5.176 -0.0377 -1.3754  1.2494
  234MOL0     H31549   9.504   8.170   5.260  0.3478 -0.5592  0.6166
  234MOL0     H31550   9.756   8.293   5.289 -1.4318  1.3916  3.3306
  234MOL0     H31551   9.824   8.470   5.386 -0.7220 -2.4318 -0.1334
  234MOL0     H31552   9.905   8.991   5.277 -0.1025 -0.1396 -0.7331
  234MOL0     H31553   9.961   9.206   5.398  5.2146  3.5499  4.6566
  234MOL0     H31554  10.117   9.353   5.550 -1.2406  3.2216 -1.9125
  234MOL0     H31555   9.929   9.381   5.580 -0.8373  1.2154  1.7532
  234MOL0     H31556   9.982   9.417   5.819  1.2278  0.6639  0.7100
  234MOL0     H31557  10.147   9.424   5.787  0.3806  2.8677 -0.4276
  234MOL0     H31558  10.128   9.606   5.620 -0.0768 -2.1256  1.3183
  234MOL0     H31559   9.960   9.592   5.625  0.0112  2.1278  1.1679
  234MOL0     H31560  10.126   9.708   5.841 -0.3794 -0.5566  1.4309
  234MOL0     H31561   9.961   9.631   5.863 -0.7837 -0.6253 -1.5676
  234MOL0     H31562   9.936   9.869   5.850  0.6096  1.9180 -0.2480
  234MOL0     H31563   9.885   9.792   5.699 -0.2437  0.2021  1.0072
  234MOL0     H31564  10.169   9.923   5.737  1.8291 -1.1264 -0.2304
  234MOL0     H31565  10.106   9.843   5.592 -0.1981  0.4177 -0.5234
  234MOL0     H31566   9.977  10.099   5.725  0.9193  3.1335 -1.3241
  234MOL0     H31567   9.943  10.040   5.561  0.4832  0.0405 -0.7154
  234MOL0     H31568  10.224  10.121   5.648 -0.7333 -0.8689  2.2902
  234MOL0     H31569  10.133  10.168   5.496 -1.1774  2.0839  1.2756
  234MOL0     H31570   9.973   8.984   5.768 -0.2387 -1.5643  0.0933
  234MOL0     H31571   9.895   8.791   5.650 -0.8662  1.1948  1.2134
  234MOL0     H31572   9.549   8.713   5.151  2.4610  1.1181 -0.8975
  234MOL0     H31573   9.485   8.496   5.031  0.1273  2.0287 -0.2605
  234MOL0     H31574   9.561   7.974   5.878 -0.4422  0.5243 -1.5044
  234MOL0     H31575   9.477   8.177   5.995  2.0085 -1.2880 -0.1450
  234MOL0     H31576   9.280   8.576   5.859  0.0140  1.0894  0.7602
  234MOL0     H31577   9.222   8.801   5.890  3.0087  0.0492  0.8565
  234MOL0     H31578   9.109   8.982   5.898  2.4759 -0.9488 -0.9814
  234MOL0     H31579   9.236   9.028   6.019 -0.3201  1.2497  0.0921
  234MOL0     H31580   9.084   9.200   5.931 -0.1894  0.3430  0.6053
  234MOL0     H31581   9.088   9.201   6.105 -0.1162  1.1970 -0.1225
  234MOL0     H31582   8.887   9.063   6.110  0.5256 -0.1693  0.5650
  234MOL0     H31583   8.862   9.053   5.938 -1.7861 -0.0331  0.8049
  234MOL0     H31584   8.840   9.313   6.108 -1.3651  0.5867 -0.1883
  234MOL0     H31585   8.903   9.317   5.944 -0.6879 -1.1930 -0.2919
  234MOL0     H31586   8.503   9.132   5.947 -0.5391  0.6260 -1.5745
  234MOL0     H31587   9.043   8.705   6.255 -0.7531 -4.0564  1.1956
  234MOL0     H31588   9.027   8.372   6.244  2.0716 -2.4414 -1.9294
  234MOL0     H31589   9.179   8.406   6.339 -2.7740 -1.8542  1.5451
  234MOL0     H31590   9.036   8.498   6.360 -0.7047 -1.3014  0.1147
  235MOL0     O31591   7.416   9.194   0.725 -0.3033 -0.5181 -0.4532
  235MOL0     C31592   7.506   9.108   0.723  0.3261  0.3568 -0.0618
  235MOL0     O31593   7.635   9.141   0.699 -0.4570  0.1919  0.7909
  235MOL0     C31594   7.688   9.267   0.698  0.1306  0.1887 -0.1736
  235MOL0     C31595   7.645   9.371   0.774 -0.1554 -0.7024 -0.8681
  235MOL0     C31596   7.713   9.486   0.788 -0.1975 -0.4412  0.5286
  235MOL0     C31597   7.817   9.516   0.697  0.4224  0.3377  0.7391
  235MOL0     O31598   7.865   9.650   0.702 -0.1564 -0.6353  0.3018
  235MOL0     C31599   7.974   9.671   0.626 -0.0966  0.0280 -0.7064
  235MOL0     C31600   8.004   9.820   0.607  0.5054  0.1869 -1.0151
  235MOL0     C31601   8.003   9.845   0.461  0.5496  0.2497  0.5236
  235MOL0     C31602   8.035   9.992   0.415 -0.7965  1.2334  0.6264
  235MOL0     C31603   8.047  10.011   0.266 -0.2157 -0.0908  1.4738
  235MOL0     C31604   8.164   9.946   0.188 -0.2643  0.1644  0.4018
  235MOL0     C31605   8.155   9.993   0.049 -1.1454  0.1030  0.8786
  235MOL0     C31606   8.270   9.949  -0.036  0.1841 -0.0395 -0.2618
  235MOL0     N31607   8.382  10.038  -0.034  0.4569 -0.8884 -0.4262
  235MOL0     C31608   8.412  10.119  -0.139  0.6474 -0.5423 -0.0098
  235MOL0     C31609   8.498  10.212  -0.104 -0.5010  0.7326 -0.3031
  235MOL0     C31610   8.567  10.319  -0.187  0.1859  0.0861 -0.1162
  235MOL0     C31611   8.595  10.288  -0.329 -0.1442 -0.0536  0.0144
  235MOL0     C31612   8.680  10.398  -0.404 -1.1744 -0.2438 -1.1946
  235MOL0     C31613   8.606  10.539  -0.406  0.3445  0.2761  0.4208
  235MOL0     O31614   8.645  10.597  -0.533  0.6619  1.5457  0.0361
  235MOL0     C31615   8.712  10.718  -0.521 -0.3141  0.6273  0.0143
  235MOL0     C31616   8.671  10.826  -0.437 -0.6836  0.5621  0.1603
  235MOL0     C31617   8.734  10.953  -0.448 -0.4230 -0.6976 -0.2174
  235MOL0     C31618   8.850  10.961  -0.534  0.1210 -1.2663 -0.2288
  235MOL0     C31619   8.915  11.100  -0.554 -0.7177  0.7035  0.9298
  235MOL0     O31620   8.881  11.199  -0.467  0.6881 -0.3522  0.4107
  235MOL0     C31621   8.936  11.329  -0.460 -0.5694  0.2792 -0.0787
  235MOL0     C31622   8.946  11.411  -0.581  0.2683  0.3906 -0.1061
  235MOL0     C31623   8.979  11.546  -0.588 -0.5471  0.0734 -0.3258
  235MOL0     C31624   9.007  11.611  -0.466  0.1022 -0.0584 -0.0758
  235MOL0     O31625   9.050  11.744  -0.464  0.7157 -0.4488 -1.0359
  235MOL0     C31626   9.071  11.822  -0.578  0.3623  0.0207  0.2189
  235MOL0     C31627   9.129  11.958  -0.535  0.6349 -0.6081  0.1185
  235MOL0     C31628   9.111  12.070  -0.635 -0.8788  0.2263 -0.5808
  235MOL0     C31629   8.970  12.111  -0.654  0.3170 -0.5542  0.4306
  235MOL0     C31630   8.932  12.240  -0.732 -0.0811  0.4863 -0.0617
  235MOL0     C31631   8.927  12.354  -0.634 -0.0809 -0.0323 -0.1455
  235MOL0     C31632   8.793  12.357  -0.556  0.4114 -0.4082 -0.4366
  235MOL0     C31633   8.803  12.463  -0.435 -0.6406  0.3841  0.4355
  235MOL0    Cl31634   8.934  12.435  -0.313  0.2709 -0.4009  0.0348
  235MOL0     C31635   8.980  11.539  -0.343  0.7447  0.2661 -0.1184
  235MOL0     C31636   8.957  11.397  -0.340 -0.4874 -0.6779 -0.1553
  235MOL0     O31637   8.978  11.122  -0.666  0.0141  0.3962 -0.9397
  235MOL0     C31638   8.890  10.858  -0.612 -0.0911  0.1441 -0.1166
  235MOL0     C31639   8.823  10.733  -0.594 -0.8245  0.3957 -0.1172
  235MOL0     N31640   8.529  10.181   0.027 -1.3503 -1.0292  0.5542
  235MOL0     N31641   8.467  10.078   0.068 -0.0051  1.0787 -0.5771
  235MOL0     C31642   7.879   9.411   0.635  0.3621  0.8361  1.0526
  235MOL0     C31643   7.812   9.283   0.633 -0.0546 -0.7859 -0.1345
  235MOL0     C31644   7.478   8.958   0.738 -0.3365  0.8829  0.9335
  235MOL0     C31645   7.541   8.899   0.848 -0.7229  0.5409  0.4713
  235MOL0     C31646   7.533   8.759   0.862 -1.2327 -0.3939  0.0580
  235MOL0     C31647   7.452   8.679   0.783 -0.4950  0.1545 -0.8098
  235MOL0     O31648   7.434   8.545   0.797 -0.6274 -0.6686 -0.9361
  235MOL0     C31649   7.386   8.494   0.924 -0.0270  0.2586  0.7930
  235MOL0     C31650   7.239   8.449   0.896  0.4784  0.3305  0.4337
  235MOL0     C31651   7.236   8.311   0.828  0.4359  0.0760  0.0378
  235MOL0     C31652   7.131   8.303   0.712 -0.3444 -0.3621 -0.3773
  235MOL0     C31653   7.001   8.284   0.763  1.0067  0.3653 -0.1876
  235MOL0     C31654   6.883   8.283   0.794 -0.1584  0.4368  0.0573
  235MOL0     C31655   7.380   8.738   0.676  0.4223 -0.1284 -0.9326
  235MOL0     C31656   7.393   8.882   0.655  0.6090  0.6279 -0.2916
  235MOL0     C31657   7.300   8.955   0.557 -0.0049  0.6742 -0.2656
  235MOL0     H31658   7.562   9.354   0.841  0.3563  3.9498  1.3910
  235MOL0     H31659   7.678   9.569   0.849  0.1617 -0.0749  0.2443
  235MOL0     H31660   8.060   9.613   0.661 -0.7943  0.5342  2.0940
  235MOL0     H31661   7.964   9.623   0.528 -2.0508 -1.2990  0.0716
  235MOL0     H31662   8.098   9.860   0.645 -0.0828  0.3159  0.3944
  235MOL0     H31663   7.921   9.885   0.639  0.7949 -0.0982  0.3465
  235MOL0     H31664   7.913   9.808   0.412  0.9810 -2.7850  1.7851
  235MOL0     H31665   8.086   9.785   0.422  0.3800  1.3354 -1.5979
  235MOL0     H31666   7.962  10.064   0.453 -1.6355  1.7339 -1.7392
  235MOL0     H31667   8.131  10.011   0.464 -0.6927  0.2834  0.8112
  235MOL0     H31668   7.953   9.973   0.225  0.6223 -2.0261  1.2409
  235MOL0     H31669   8.056  10.120   0.260  2.9837 -0.2530  1.2697
  235MOL0     H31670   8.262   9.968   0.231 -0.5060  0.0390  1.0361
  235MOL0     H31671   8.158   9.837   0.187  1.9765 -0.0189 -1.7357
  235MOL0     H31672   8.165  10.102   0.049  1.9011 -0.1042  0.4011
  235MOL0     H31673   8.064   9.961  -0.004  0.2003  0.6526 -1.9618
  235MOL0     H31674   8.305   9.850  -0.005 -1.1210 -0.6675 -0.6739
  235MOL0     H31675   8.237   9.936  -0.139  0.5601  2.6196 -0.7773
  235MOL0     H31676   8.393  10.107  -0.245  0.5663  3.1341 -0.5503
  235MOL0     H31677   8.495  10.401  -0.193 -0.9658 -0.9661 -1.3141
  235MOL0     H31678   8.665  10.329  -0.140  0.5469  0.8200 -1.0084
  235MOL0     H31679   8.649  10.193  -0.342  2.4475  0.8339  2.9429
  235MOL0     H31680   8.499  10.275  -0.379  0.5272  0.1578 -1.3912
  235MOL0     H31681   8.715  10.358  -0.499  0.2590  0.2044 -0.8823
  235MOL0     H31682   8.769  10.410  -0.341 -0.8387 -2.0990 -1.2699
  235MOL0     H31683   8.619  10.602  -0.317 -2.1486  0.7050  0.5811
  235MOL0     H31684   8.497  10.536  -0.419  0.3352  0.9929  0.2619
  235MOL0     H31685   8.573  10.822  -0.389 -0.8058  0.9953 -0.0471
  235MOL0     H31686   8.714  11.034  -0.379 -1.5924  0.5409 -1.9120
  235MOL0     H31687   8.916  11.368  -0.676 -2.3430  0.8206  0.4448
  235MOL0     H31688   8.977  11.585  -0.690 -1.8608 -1.6470 -1.0136
  235MOL0     H31689   9.137  11.772  -0.651  0.2283 -0.9456  0.7501
  235MOL0     H31690   8.970  11.840  -0.615 -0.3063  0.8496  2.3309
  235MOL0     H31691   9.085  11.981  -0.437  0.6767  1.3604 -0.2786
  235MOL0     H31692   9.236  11.934  -0.526  0.4800 -0.6080  2.5281
  235MOL0     H31693   9.176  12.152  -0.605  0.9492 -1.3263 -0.0629
  235MOL0     H31694   9.141  12.033  -0.734 -0.6905  2.6791 -1.5092
  235MOL0     H31695   8.914  12.118  -0.561 -1.8981 -0.0780 -0.8559
  235MOL0     H31696   8.916  12.034  -0.711  1.8880 -0.7167 -0.9026
  235MOL0     H31697   8.836  12.240  -0.786  0.6562 -0.3442 -1.4067
  235MOL0     H31698   9.003  12.254  -0.814  1.0976  0.2424  0.9060
  235MOL0     H31699   9.006  12.348  -0.558 -1.0315  0.0791  0.8819
  235MOL0     H31700   8.941  12.452  -0.680  0.3618 -0.3568 -0.6999
  235MOL0     H31701   8.754  12.262  -0.520 -2.1759  0.8443  0.3144
  235MOL0     H31702   8.717  12.387  -0.630  1.3838 -0.1012 -1.3390
  235MOL0     H31703   8.811  12.564  -0.476 -0.6736 -0.3486 -1.4541
  235MOL0     H31704   8.708  12.463  -0.380 -1.1420  2.3580 -0.3344
  235MOL0     H31705   8.984  11.598  -0.252  0.7780 -0.6446  0.4762
  235MOL0     H31706   8.964  11.364  -0.236 -4.4745 -3.3051 -0.4837
  235MOL0     H31707   8.976  10.862  -0.679  0.1287 -2.3725 -0.1080
  235MOL0     H31708   8.865  10.653  -0.654  3.3238  0.8743  1.7691
  235MOL0     H31709   7.977   9.421   0.591  0.0095 -4.0136 -1.4695
  235MOL0     H31710   7.869   9.207   0.581 -1.2034 -1.5357 -0.3502
  235MOL0     H31711   7.619   8.953   0.901  0.6506 -0.0803 -0.8577
  235MOL0     H31712   7.610   8.719   0.928 -0.1343 -0.4425 -1.2172
  235MOL0     H31713   7.383   8.571   1.001  3.2539 -0.7667  2.1312
  235MOL0     H31714   7.454   8.422   0.971  2.4425  4.3884  4.2032
  235MOL0     H31715   7.191   8.530   0.840  2.8112  2.2817  1.0673
  235MOL0     H31716   7.179   8.432   0.985 -2.0096 -0.7075 -1.3386
  235MOL0     H31717   7.210   8.230   0.897  2.0321 -1.7706 -1.3967
  235MOL0     H31718   7.333   8.286   0.784  0.1595  0.2452 -0.6715
  235MOL0     H31719   7.145   8.392   0.650  1.2644 -0.8565 -0.7717
  235MOL0     H31720   7.154   8.221   0.643  0.1614 -1.3706  0.9670
  235MOL0     H31721   6.788   8.273   0.841 -0.1339  0.5274  0.1267
  235MOL0     H31722   7.308   8.698   0.605  2.0257 -0.6690 -2.3201
  235MOL0     H31723   7.212   8.984   0.615 -0.4728 -0.6550 -0.2778
  235MOL0     H31724   7.356   9.043   0.525  4.5955 -0.8967  2.4285
  235MOL0     H31725   7.266   8.894   0.473  1.5228  1.7918 -1.7760
  236MOL0     O31726   8.197   8.649  10.531 -0.5292  0.2907 -0.6300
  236MOL0     C31727   8.265   8.672  10.434  0.3295 -0.0431  0.9100
  236MOL0     O31728   8.272   8.590  10.328  0.1683  0.2662  0.3110
  236MOL0     C31729   8.201   8.472  10.317 -0.4590  0.2563  0.3514
  236MOL0     C31730   8.261   8.371  10.247 -0.2785 -0.3891 -0.8260
  236MOL0     C31731   8.204   8.248  10.229  0.4206  0.9966  0.5927
  236MOL0     C31732   8.070   8.230  10.270 -0.8439  0.7991 -0.0268
  236MOL0     O31733   8.012   8.110  10.248 -0.1081 -0.2501 -0.0941
  236MOL0     C31734   8.037   8.030  10.365 -0.3619  1.0072  0.4444
  236MOL0     C31735   7.978   7.893  10.372  0.3217  0.2771  0.5033
  236MOL0     C31736   8.002   7.802  10.256  0.3810  0.2397  0.3102
  236MOL0     C31737   8.032   7.657  10.301 -0.5417 -0.9717 -0.5356
  236MOL0     C31738   8.064   7.581  10.171  0.1329  0.3407 -0.3318
  236MOL0     C31739   8.127   7.455  10.211 -0.4810  1.3449  1.1332
  236MOL0     C31740   8.142   7.360  10.088  0.3438 -0.1931 -0.2981
  236MOL0     C31741   8.262   7.397   9.993  0.5688 -0.2647  0.4751
  236MOL0     N31742   8.392   7.380  10.064 -0.3793 -0.1039 -0.8161
  236MOL0     C31743   8.422   7.297  10.171  0.7921 -0.9427 -0.2398
  236MOL0     C31744   8.543   7.322  10.210 -0.5597  1.0139  0.3387
  236MOL0     C31745   8.618   7.267  10.329 -0.4800  1.2150 -0.3579
  236MOL0     C31746   8.707   7.136  10.295 -0.2077 -0.0329 -0.7093
  236MOL0     C31747   8.636   7.007  10.233  0.8685  0.6939  0.0055
  236MOL0     C31748   8.713   6.875  10.246  0.5254  0.0494  0.7716
  236MOL0     O31749   8.839   6.887  10.176 -0.3469 -1.1190  0.0917
  236MOL0     C31750   8.907   6.779  10.138 -0.3080  0.8160 -0.3430
  236MOL0     C31751   8.886   6.647  10.184  0.2153  0.1440  0.4585
  236MOL0     C31752   8.949   6.535  10.136 -0.3839 -0.0840  0.3850
  236MOL0     C31753   9.039   6.546  10.032  0.8536  0.0135  0.4190
  236MOL0     C31754   9.103   6.419   9.975 -0.7237  0.0561  0.1373
  236MOL0     O31755   9.230   6.449   9.912 -0.3430 -0.0278 -0.7899
  236MOL0     C31756   9.305   6.345   9.877  0.2261 -0.2706 -0.3516
  236MOL0     C31757   9.428   6.314   9.927 -0.3777  0.1058 -0.5577
  236MOL0     C31758   9.521   6.211   9.884 -0.7918 -0.0368  0.2224
  236MOL0     C31759   9.479   6.130   9.783 -0.6455 -0.8564  0.3055
  236MOL0     O31760   9.552   6.023   9.741  1.2448 -0.0037  0.5880
  236MOL0     C31761   9.692   6.015   9.739 -0.8867  0.2761 -0.1649
  236MOL0     C31762   9.730   5.908   9.642 -0.3986 -0.0421 -0.7892
  236MOL0     C31763   9.680   5.765   9.676  0.3008 -1.0134 -0.6519
  236MOL0     C31764   9.666   5.672   9.551 -0.6396 -0.8901 -1.4891
  236MOL0     C31765   9.795   5.678   9.471 -0.7348  0.4582 -0.0486
  236MOL0     C31766   9.825   5.554   9.381  0.0836 -0.1791 -0.5390
  236MOL0     C31767   9.961   5.569   9.330  0.8194 -0.6434  0.2750
  236MOL0     C31768   9.959   5.669   9.213  0.2885 -1.1526 -0.1765
  236MOL0    Cl31769  10.107   5.673   9.116  0.1171  0.4316 -0.3279
  236MOL0     C31770   9.358   6.153   9.732 -0.2753  0.1278 -0.2510
  236MOL0     C31771   9.264   6.266   9.768  0.7167  1.2735 -0.1508
  236MOL0     O31772   9.074   6.308  10.019  0.9425 -0.5100 -0.4385
  236MOL0     C31773   9.065   6.674   9.986  1.0442  0.2985  0.0416
  236MOL0     C31774   9.003   6.786  10.037 -0.1436 -0.2798 -0.1269
  236MOL0     N31775   8.600   7.411  10.124 -0.1247  0.3156  0.7995
  236MOL0     N31776   8.507   7.457  10.045 -0.2730 -0.0912  0.0998
  236MOL0     C31777   7.997   8.345  10.319  0.1770  0.5121 -0.6753
  236MOL0     C31778   8.063   8.462  10.349 -0.3244 -0.5737 -0.0279
  236MOL0     C31779   8.342   8.801  10.433 -0.3073 -0.0574  0.0548
  236MOL0     C31780   8.277   8.908  10.496 -0.3401  0.2240 -0.5133
  236MOL0     C31781   8.342   9.030  10.507 -0.4316 -0.1841 -0.3418
  236MOL0     C31782   8.473   9.047  10.455  0.0598 -0.1204 -1.1765
  236MOL0     O31783   8.524   9.172  10.466  0.3260 -0.3540 -0.1582
  236MOL0     C31784   8.605   9.205  10.582 -0.0915  0.5893  0.4627
  236MOL0     C31785   8.654   9.343  10.560 -0.6198 -0.2585 -0.7199
  236MOL0     C31786   8.554   9.455  10.526  0.9588 -0.0737 -0.1420
  236MOL0     C31787   8.439   9.482  10.617  1.2477 -0.2161  0.1381
  236MOL0     C31788   8.482   9.517  10.751 -0.0021 -0.0444  0.5947
  236MOL0     C31789   8.510   9.571  10.856 -0.2582 -0.3580 -1.0684
  236MOL0     C31790   8.536   8.940  10.394  0.8840 -0.4790 -0.1269
  236MOL0     C31791   8.477   8.813  10.381  1.0422 -0.8325 -0.3963
  236MOL0     C31792   8.549   8.700  10.306  0.2977  0.5269  0.1662
  236MOL0     H31793   8.360   8.390  10.207  1.2181  0.1363  2.7158
  236MOL0     H31794   8.263   8.176  10.173 -2.3793 -1.2906  0.3993
  236MOL0     H31795   8.145   8.009  10.362 -0.4105  0.8304 -0.1379
  236MOL0     H31796   8.020   8.084  10.459 -0.6353 -0.1084  1.0541
  236MOL0     H31797   7.869   7.900  10.381  0.2938  0.9702 -0.2594
  236MOL0     H31798   8.026   7.857  10.464 -2.2834  1.0361  2.2770
  236MOL0     H31799   8.073   7.853  10.190  0.2757  2.2737  1.6843
  236MOL0     H31800   7.915   7.796  10.190  1.8298 -0.3984 -1.6505
  236MOL0     H31801   8.126   7.664  10.357 -1.0864  1.3640  0.2304
  236MOL0     H31802   7.963   7.603  10.366  1.5708 -1.9226  1.0546
  236MOL0     H31803   7.967   7.566  10.124 -0.3968 -1.2155  1.1637
  236MOL0     H31804   8.125   7.630  10.095  0.8648 -0.1462 -0.0736
  236MOL0     H31805   8.223   7.473  10.260  0.9986 -1.5010 -0.4808
  236MOL0     H31806   8.060   7.393  10.272  0.7128  0.7583  1.8865
  236MOL0     H31807   8.047   7.363  10.034  1.6654  0.0472 -2.7663
  236MOL0     H31808   8.150   7.259  10.130  0.0353  0.7723  2.2760
  236MOL0     H31809   8.263   7.327   9.909  0.4006 -0.7328  0.8545
  236MOL0     H31810   8.258   7.494   9.944 -2.0391  1.0285  2.9790
  236MOL0     H31811   8.353   7.225  10.213 -0.4281  0.6328  0.5701
  236MOL0     H31812   8.678   7.349  10.369 -0.6615  1.4779 -0.6238
  236MOL0     H31813   8.553   7.234  10.411  2.1942 -3.1913  0.3530
  236MOL0     H31814   8.785   7.171  10.227  0.8639  0.5358  0.7838
  236MOL0     H31815   8.763   7.107  10.384 -1.3106 -2.3727 -0.6798
  236MOL0     H31816   8.605   7.014  10.128 -2.5078 -0.3746  0.7931
  236MOL0     H31817   8.547   6.986  10.294  2.4252  0.6371  2.4013
  236MOL0     H31818   8.644   6.797  10.212 -1.2686  0.9505  2.1854
  236MOL0     H31819   8.743   6.841  10.346 -0.9076 -2.2207  0.5171
  236MOL0     H31820   8.797   6.624  10.241 -1.1163 -1.4974 -2.0945
  236MOL0     H31821   8.916   6.437  10.169 -0.2838 -0.2011  0.1355
  236MOL0     H31822   9.464   6.383  10.002  2.3922 -0.2384 -1.4752
  236MOL0     H31823   9.613   6.194   9.939  1.8683  0.5745 -3.6075
  236MOL0     H31824   9.733   6.111   9.708  0.4786 -0.8491 -2.0564
  236MOL0     H31825   9.739   5.982   9.832  3.2194 -0.4167 -2.2730
  236MOL0     H31826   9.697   5.942   9.544  1.9384 -1.0391 -1.9926
  236MOL0     H31827   9.838   5.893   9.646 -0.4063  0.1180  2.4158
  236MOL0     H31828   9.735   5.726   9.762 -0.6382  1.2025  1.0552
  236MOL0     H31829   9.577   5.784   9.707  1.1599  0.4687  1.6064
  236MOL0     H31830   9.578   5.698   9.492 -2.4719  0.1700  1.4909
  236MOL0     H31831   9.638   5.572   9.586  0.8045 -0.0452  2.5974
  236MOL0     H31832   9.872   5.688   9.549 -1.2125  0.7257  0.3937
  236MOL0     H31833   9.793   5.774   9.417 -3.0472  1.4493  1.6544
  236MOL0     H31834   9.812   5.466   9.446 -0.4523 -0.8951 -1.5820
  236MOL0     H31835   9.750   5.539   9.303 -3.5654 -3.1738  3.0330
  236MOL0     H31836   9.990   5.480   9.274 -1.0023 -0.5811 -0.8570
  236MOL0     H31837  10.027   5.603   9.410  0.0456 -3.0916  2.0598
  236MOL0     H31838   9.876   5.652   9.143 -0.1733 -1.1692  0.3728
  236MOL0     H31839   9.933   5.771   9.240  0.2880 -0.3548 -2.8677
  236MOL0     H31840   9.318   6.094   9.650 -0.2892 -0.6044  0.2664
  236MOL0     H31841   9.166   6.282   9.723 -1.1142 -0.6780  2.7850
  236MOL0     H31842   9.135   6.677   9.903 -1.0942 -2.8213 -2.0667
  236MOL0     H31843   9.020   6.886  10.000  2.1750 -0.8691 -0.7855
  236MOL0     H31844   7.892   8.347  10.347  0.3180  3.5016 -0.0317
  236MOL0     H31845   8.007   8.550  10.381 -0.8070 -0.8140 -0.2040
  236MOL0     H31846   8.185   8.892  10.550  0.0199 -1.2078 -0.2589
  236MOL0     H31847   8.282   9.098  10.566  0.1689 -0.1283  0.2202
  236MOL0     H31848   8.687   9.135  10.599 -0.3631  0.0309 -0.4493
  236MOL0     H31849   8.535   9.200  10.666  0.6904  2.6676  1.2978
  236MOL0     H31850   8.727   9.352  10.479 -0.9771 -0.1316 -1.0307
  236MOL0     H31851   8.711   9.381  10.646  2.3291  1.9628 -3.4071
  236MOL0     H31852   8.515   9.440  10.425 -0.1091 -0.8144  0.3582
  236MOL0     H31853   8.616   9.545  10.528  1.4441 -0.4208  1.3117
  236MOL0     H31854   8.366   9.554  10.579 -2.0037 -3.3118  0.0607
  236MOL0     H31855   8.392   9.384  10.622 -2.3532  1.3498 -0.1708
  236MOL0     H31856   8.543   9.620  10.945 -2.9119  1.2581 -0.8833
  236MOL0     H31857   8.632   8.965  10.351  0.3340  1.7016 -0.1890
  236MOL0     H31858   8.647   8.734  10.273 -0.2261 -1.0634 -3.5035
  236MOL0     H31859   8.564   8.613  10.371  0.7591  0.7292  0.3319
  236MOL0     H31860   8.489   8.671  10.220  1.1897  2.3105 -1.1192
  237MOL0     O31861   8.495   3.235   1.075 -0.6982 -0.2080  0.2978
  237MOL0     C31862   8.579   3.236   0.992 -0.9103 -0.6730  0.3634
  237MOL0     O31863   8.701   3.292   1.013 -0.4820 -0.0982 -0.5210
  237MOL0     C31864   8.746   3.313   1.145 -0.8395 -0.7559 -0.3669
  237MOL0     C31865   8.713   3.244   1.259  0.2284  0.0858 -0.3994
  237MOL0     C31866   8.763   3.270   1.391 -1.2457  0.1577  0.0713
  237MOL0     C31867   8.872   3.360   1.403  0.3055 -1.2996  0.6903
  237MOL0     O31868   8.941   3.388   1.512 -0.2554 -0.1880 -0.2822
  237MOL0     C31869   8.900   3.310   1.632 -0.1341  0.4746  0.5701
  237MOL0     C31870   8.994   3.334   1.752 -0.2550 -1.2518  0.1753
  237MOL0     C31871   9.026   3.480   1.771 -0.6912 -0.3705  0.8660
  237MOL0     C31872   9.074   3.500   1.915 -0.8749  0.7569  0.5796
  237MOL0     C31873   9.104   3.648   1.934  0.2915 -0.8459  0.4101
  237MOL0     C31874   9.141   3.687   2.077  0.1655 -0.3323  0.2219
  237MOL0     C31875   9.124   3.848   2.089 -0.3368  0.3120 -0.2275
  237MOL0     C31876   9.209   3.916   2.187 -0.3128  0.9620  0.0239
  237MOL0     N31877   9.354   3.914   2.135  0.3167 -0.2627  0.0550
  237MOL0     C31878   9.429   4.009   2.065 -0.0583 -0.9518 -0.1415
  237MOL0     C31879   9.558   3.965   2.050  0.1875 -0.0246 -0.3512
  237MOL0     C31880   9.692   4.020   1.996  2.1875 -0.2722 -0.1844
  237MOL0     C31881   9.791   4.038   2.116  0.4718  0.0391  0.2407
  237MOL0     C31882   9.938   4.083   2.083  0.3479 -1.0127  0.2204
  237MOL0     C31883  10.015   4.155   2.194 -0.2889  0.6079  0.4328
  237MOL0     O31884  10.147   4.162   2.157 -0.1870  0.1030 -0.2721
  237MOL0     C31885  10.190   4.259   2.076 -0.3682 -0.2462 -0.0328
  237MOL0     C31886  10.107   4.364   2.029 -1.1316 -0.2044  0.0843
  237MOL0     C31887  10.148   4.437   1.913  0.1700  0.3079 -0.7428
  237MOL0     C31888  10.278   4.416   1.857 -0.3990 -0.0039 -0.1792
  237MOL0     C31889  10.317   4.479   1.730  0.6460  0.4480 -0.3687
  237MOL0     O31890  10.212   4.525   1.651 -0.5214  0.5150  0.4963
  237MOL0     C31891  10.258   4.583   1.536 -0.3713  0.5547 -0.8292
  237MOL0     C31892  10.254   4.722   1.528 -0.0277  0.2348 -0.0826
  237MOL0     C31893  10.321   4.788   1.423  0.4870 -0.3237  0.5476
  237MOL0     C31894  10.391   4.710   1.326  0.2538  0.9963 -0.5904
  237MOL0     O31895  10.463   4.762   1.227  0.9576 -0.3780  0.0691
  237MOL0     C31896  10.548   4.878   1.256 -0.3093  0.2623  0.2661
  237MOL0     C31897  10.639   4.900   1.136  0.1400  0.0727 -0.8054
  237MOL0     C31898  10.736   4.784   1.109  0.1296 -0.5494  0.7004
  237MOL0     C31899  10.884   4.834   1.118  0.7488 -0.6808  0.0834
  237MOL0     C31900  10.989   4.736   1.069  1.3708  0.4950  0.0229
  237MOL0     C31901  11.000   4.711   0.917  0.4530 -0.8871  0.2368
  237MOL0     C31902  11.115   4.611   0.884 -0.2801 -0.4309 -0.1416
  237MOL0     C31903  11.137   4.598   0.736 -0.5587  0.2095  0.6130
  237MOL0    Cl31904  11.190   4.755   0.673 -0.0726  0.5547  0.2181
  237MOL0     C31905  10.375   4.573   1.333  0.5136  0.1562  0.4354
  237MOL0     C31906  10.323   4.512   1.438  0.9930 -0.0998  1.0851
  237MOL0     O31907  10.436   4.490   1.715  0.6985  0.0188 -0.8103
  237MOL0     C31908  10.370   4.328   1.918 -0.4624  0.1550  0.4597
  237MOL0     C31909  10.324   4.244   2.022 -0.0764  0.0067  0.1617
  237MOL0     N31910   9.558   3.851   2.114 -0.7813 -0.0705 -0.7133
  237MOL0     N31911   9.440   3.819   2.173  0.4764  0.4197  0.3410
  237MOL0     C31912   8.905   3.433   1.283 -0.1562 -0.2826  0.3370
  237MOL0     C31913   8.845   3.412   1.158  0.1899 -0.6279 -0.3240
  237MOL0     C31914   8.574   3.179   0.859 -0.2966 -0.1359  0.8597
  237MOL0     C31915   8.681   3.187   0.761  0.0808 -0.1698 -0.2314
  237MOL0     C31916   8.665   3.134   0.631 -0.2336 -0.8145  0.0848
  237MOL0     C31917   8.549   3.060   0.593  0.1123 -0.3811  1.0080
  237MOL0     O31918   8.526   3.011   0.463  0.0963 -0.2833 -0.8045
  237MOL0     C31919   8.627   3.025   0.357 -0.2835 -0.0375  0.8355
  237MOL0     C31920   8.685   2.878   0.351  0.4039  0.3370  0.0096
  237MOL0     C31921   8.802   2.864   0.248  0.3878 -0.6015 -0.3280
  237MOL0     C31922   8.846   2.713   0.242 -0.2897 -0.7781 -0.2882
  237MOL0     C31923   8.739   2.638   0.172  0.6295 -1.3625 -0.7805
  237MOL0     C31924   8.639   2.581   0.132 -0.2725  0.3085  0.1502
  237MOL0     C31925   8.452   3.053   0.688  0.1303  0.2941  0.3554
  237MOL0     C31926   8.462   3.109   0.820  1.2186  0.5739  0.4061
  237MOL0     C31927   8.329   3.080   0.898  1.0977 -0.4321  0.0701
  237MOL0     H31928   8.647   3.159   1.246 -0.6412  0.8918 -1.6240
  237MOL0     H31929   8.737   3.212   1.478  1.4105 -1.2890  0.0056
  237MOL0     H31930   8.800   3.324   1.675 -0.5107 -2.3895  0.7607
  237MOL0     H31931   8.901   3.203   1.611  4.7797  0.5253 -0.5637
  237MOL0     H31932   9.080   3.266   1.743  0.4400 -0.7664  2.4011
  237MOL0     H31933   8.956   3.299   1.849  1.5626  0.0588  1.4371
  237MOL0     H31934   8.941   3.546   1.750  0.1425  0.5758  0.3386
  237MOL0     H31935   9.099   3.500   1.692 -2.9396 -1.1629 -1.5526
  237MOL0     H31936   9.014   3.459   1.996 -0.0088 -0.5799  0.5717
  237MOL0     H31937   9.165   3.442   1.932  0.0571  1.9892  0.0477
  237MOL0     H31938   9.179   3.678   1.860  0.7909  1.2682  1.6713
  237MOL0     H31939   9.011   3.700   1.911 -0.2117 -2.2247 -0.8351
  237MOL0     H31940   9.070   3.631   2.139  0.0266 -1.4810 -0.9411
  237MOL0     H31941   9.243   3.648   2.084  0.7629  1.1288 -0.0693
  237MOL0     H31942   9.018   3.864   2.106 -0.3236 -0.1725  0.3156
  237MOL0     H31943   9.136   3.899   1.992  1.5233  1.4172  0.5128
  237MOL0     H31944   9.192   4.021   2.210  1.7285  1.6622 -1.3646
  237MOL0     H31945   9.207   3.862   2.283  0.5511  0.0905 -0.4224
  237MOL0     H31946   9.382   4.091   2.011  0.4848 -0.3086  0.3321
  237MOL0     H31947   9.735   3.950   1.924 -0.8225 -0.0079 -2.4164
  237MOL0     H31948   9.673   4.114   1.944  1.9767 -0.2379 -0.0478
  237MOL0     H31949   9.748   4.106   2.190  1.6492  0.8431  0.1970
  237MOL0     H31950   9.802   3.937   2.158  0.6215 -0.6923 -1.4557
  237MOL0     H31951   9.928   4.160   2.006 -2.0807 -1.4442  0.0321
  237MOL0     H31952   9.997   4.009   2.028 -0.2709 -0.5386 -1.1233
  237MOL0     H31953  10.012   4.101   2.289  0.9874  2.1170  1.3735
  237MOL0     H31954   9.983   4.256   2.221 -2.6998 -0.3255  1.3472
  237MOL0     H31955  10.002   4.386   2.048 -1.1033  0.2219 -0.2163
  237MOL0     H31956  10.077   4.506   1.869  2.1592  3.2550  0.3873
  237MOL0     H31957  10.225   4.777   1.617 -1.5445 -2.1316  0.9841
  237MOL0     H31958  10.334   4.896   1.418 -2.3872  0.0505 -1.6815
  237MOL0     H31959  10.489   4.963   1.292 -1.4972 -0.7038  0.6883
  237MOL0     H31960  10.610   4.852   1.342  1.6197  1.3712 -0.7179
  237MOL0     H31961  10.577   4.937   1.054 -1.3408 -1.5234 -0.4482
  237MOL0     H31962  10.700   4.987   1.162  0.7398 -1.0510  1.8496
  237MOL0     H31963  10.714   4.708   1.185 -1.3493  1.1984  2.1093
  237MOL0     H31964  10.716   4.743   1.009  2.1435 -0.6840  0.3181
  237MOL0     H31965  10.907   4.850   1.224  0.0792 -0.9064  0.2689
  237MOL0     H31966  10.899   4.928   1.063 -0.8016  0.0293  0.8011
  237MOL0     H31967  10.977   4.642   1.124 -1.4307 -0.5006 -2.0465
  237MOL0     H31968  11.080   4.786   1.105  0.0164  2.5341  0.7995
  237MOL0     H31969  10.904   4.676   0.878  0.0074  3.4508 -3.2831
  237MOL0     H31970  11.024   4.810   0.878  3.2773 -1.4926  0.2202
  237MOL0     H31971  11.096   4.518   0.938  3.8600 -1.2055  0.2502
  237MOL0     H31972  11.211   4.650   0.918 -1.4156  0.2859  2.5125
  237MOL0     H31973  11.221   4.535   0.708 -0.8337  1.1984 -2.8556
  237MOL0     H31974  11.047   4.548   0.699 -2.9300  2.6660  2.6088
  237MOL0     H31975  10.424   4.500   1.270  1.0923 -2.0828  3.2779
  237MOL0     H31976  10.337   4.404   1.440  1.6029 -0.0164  2.1644
  237MOL0     H31977  10.471   4.309   1.880  0.2450 -1.6595  2.9643
  237MOL0     H31978  10.393   4.169   2.059 -1.4969 -2.1575 -1.3766
  237MOL0     H31979   8.982   3.509   1.292 -1.0523  0.3779  4.6222
  237MOL0     H31980   8.879   3.467   1.072 -0.6824  0.4455 -0.0080
  237MOL0     H31981   8.774   3.243   0.768 -0.4904  0.7048  0.6541
  237MOL0     H31982   8.750   3.142   0.564  0.6546 -1.4063  1.0971
  237MOL0     H31983   8.701   3.103   0.373  0.7235 -0.4535 -1.4430
  237MOL0     H31984   8.584   3.050   0.259 -1.0204  0.7422  1.3418
  237MOL0     H31985   8.610   2.802   0.325  0.9473 -0.9145  1.8972
  237MOL0     H31986   8.716   2.862   0.455  0.1739  2.7087  0.4972
  237MOL0     H31987   8.890   2.922   0.277  1.0533 -0.4683 -2.4471
  237MOL0     H31988   8.781   2.894   0.145 -1.0241  1.7439  0.5591
  237MOL0     H31989   8.942   2.699   0.190  0.6809  0.0336  1.2039
  237MOL0     H31990   8.859   2.679   0.345 -1.8698  0.5207  0.3783
  237MOL0     H31991   8.564   2.507   0.116  2.8493 -2.7793 -1.5505
  237MOL0     H31992   8.362   3.004   0.651  1.4636 -0.8409 -1.5550
  237MOL0     H31993   8.289   2.991   0.848  1.2323  0.0135 -0.8658
  237MOL0     H31994   8.356   3.060   1.002  1.2894  0.0557  0.1147
  237MOL0     H31995   8.262   3.166   0.892  2.0701  0.6612  3.1261
  238MOL0     O31996   3.655   1.999  10.030  0.5746 -0.2574 -0.6150
  238MOL0     C31997   3.654   1.981   9.913 -0.0470 -0.0786  0.3580
  238MOL0     O31998   3.588   1.886   9.855  0.2474  0.3103  0.4280
  238MOL0     C31999   3.546   1.780   9.939  0.0670  0.6999 -0.6387
  238MOL0     C32000   3.624   1.702  10.013 -0.2500  0.2712 -0.4655
  238MOL0     C32001   3.573   1.595  10.091 -0.0452  0.2721 -0.3102
  238MOL0     C32002   3.437   1.574  10.083  0.4717  0.3462 -1.0654
  238MOL0     O32003   3.372   1.472  10.157  0.1551  0.5739  0.2403
  238MOL0     C32004   3.430   1.352  10.157 -0.2891  0.6172 -0.8352
  238MOL0     C32005   3.327   1.246  10.170  0.3155 -0.5771 -0.0702
  238MOL0     C32006   3.216   1.246  10.053  1.4556  0.9794 -0.2834
  238MOL0     C32007   3.095   1.340  10.041 -0.1218 -0.9106 -0.1455
  238MOL0     C32008   2.967   1.296   9.950 -0.0350  0.1146 -0.6040
  238MOL0     C32009   3.011   1.220   9.827  0.0744  0.3718 -0.0082
  238MOL0     C32010   2.890   1.228   9.724  0.1511 -0.5935  0.0665
  238MOL0     C32011   2.898   1.354   9.637 -0.1082  0.1874 -0.1271
  238MOL0     N32012   3.017   1.367   9.552  0.3573  0.2219 -1.4130
  238MOL0     C32013   3.146   1.418   9.581  0.6719 -0.7459  1.6074
  238MOL0     C32014   3.235   1.382   9.481 -0.3009 -0.7254  0.4509
  238MOL0     C32015   3.378   1.435   9.443  0.4890  0.0933  0.2015
  238MOL0     C32016   3.412   1.578   9.503 -0.3412 -1.1620  0.4760
  238MOL0     C32017   3.508   1.661   9.420  1.4444  1.0783 -0.4941
  238MOL0     C32018   3.531   1.798   9.489 -1.0372  1.0209  0.7984
  238MOL0     O32019   3.655   1.851   9.452  0.2423 -1.2264  0.5293
  238MOL0     C32020   3.647   1.948   9.355  0.4435 -0.1057  0.9586
  238MOL0     C32021   3.538   1.973   9.270 -0.0267 -1.1276 -0.1198
  238MOL0     C32022   3.550   2.091   9.187 -0.0387  0.8526  0.8648
  238MOL0     C32023   3.670   2.171   9.180 -0.1658  0.6670 -0.0451
  238MOL0     C32024   3.666   2.294   9.098  0.3765  0.4882  0.4439
  238MOL0     O32025   3.777   2.370   9.109  0.2949 -0.0144  0.1290
  238MOL0     C32026   3.776   2.499   9.065  0.2565 -1.0122  0.0040
  238MOL0     C32027   3.663   2.577   9.092  0.4804  1.2096  0.1628
  238MOL0     C32028   3.667   2.711   9.054  0.9043  0.8478 -0.0130
  238MOL0     C32029   3.781   2.772   8.997  0.6892 -0.8279  0.2106
  238MOL0     O32030   3.776   2.905   8.971 -0.1420  0.2055  1.3620
  238MOL0     C32031   3.877   2.996   9.028 -0.4011 -0.9792  0.0616
  238MOL0     C32032   3.814   3.134   9.062  0.7049 -0.4146  0.4846
  238MOL0     C32033   3.728   3.197   8.944 -0.2977 -0.7289 -0.2350
  238MOL0     C32034   3.662   3.328   8.978  0.0781  0.5900 -0.9480
  238MOL0     C32035   3.593   3.388   8.857  0.5315 -0.8154  0.2842
  238MOL0     C32036   3.452   3.321   8.815 -0.1384  0.2777  0.2713
  238MOL0     C32037   3.381   3.398   8.705 -0.3448  0.5831  0.3595
  238MOL0     C32038   3.292   3.311   8.616  0.0663  0.1582 -0.0410
  238MOL0    Cl32039   3.158   3.243   8.711  0.2282  0.1010 -0.2247
  238MOL0     C32040   3.898   2.688   8.980 -0.5784  0.7363  0.0946
  238MOL0     C32041   3.889   2.551   9.018  0.5968  0.2608  0.3407
  238MOL0     O32042   3.571   2.315   9.029  0.0628  1.0682 -0.1614
  238MOL0     C32043   3.783   2.132   9.258  1.0320 -0.9410  0.7875
  238MOL0     C32044   3.764   2.033   9.350 -0.9976  0.0785 -0.3089
  238MOL0     N32045   3.157   1.323   9.388 -0.8462  0.2353 -0.2170
  238MOL0     N32046   3.030   1.311   9.429  0.5945 -0.5924  0.2992
  238MOL0     C32047   3.354   1.654  10.008  0.2053 -0.0120  0.4095
  238MOL0     C32048   3.407   1.756   9.933 -0.2100 -0.0198  1.3183
  238MOL0     C32049   3.759   2.057   9.832 -0.3759  1.0878 -0.9926
  238MOL0     C32050   3.820   1.997   9.722 -0.5904  0.3952 -0.7653
  238MOL0     C32051   3.948   2.045   9.674 -0.7766  0.1117  0.4689
  238MOL0     C32052   4.003   2.164   9.717  0.8917  0.6131 -0.0353
  238MOL0     O32053   4.112   2.224   9.663  0.5614 -0.4512 -0.2127
  238MOL0     C32054   4.231   2.138   9.651 -0.2671 -0.2461 -1.1824
  238MOL0     C32055   4.359   2.212   9.616 -0.1901  0.0737  0.4644
  238MOL0     C32056   4.350   2.307   9.498 -0.2105  0.0623 -0.1517
  238MOL0     C32057   4.295   2.251   9.362  0.9565 -0.0033 -0.3407
  238MOL0     C32058   4.363   2.128   9.323  0.6731 -0.2280  1.3446
  238MOL0     C32059   4.430   2.029   9.293  1.1261  0.5524  0.2467
  238MOL0     C32060   3.930   2.232   9.817 -0.2150  0.6056 -0.3460
  238MOL0     C32061   3.815   2.188   9.878  0.1445  0.6828  0.0797
  238MOL0     C32062   3.756   2.279   9.979  0.3205 -0.6534 -0.6933
  238MOL0     H32063   3.728   1.734  10.016 -0.7757  2.0531  0.3473
  238MOL0     H32064   3.641   1.535  10.150  1.7403 -0.5566 -3.0201
  238MOL0     H32065   3.499   1.324  10.078 -0.3636 -1.1691 -0.3107
  238MOL0     H32066   3.488   1.352  10.250 -2.4986  0.9434  0.6406
  238MOL0     H32067   3.267   1.288  10.251 -2.6630 -0.1524 -2.3311
  238MOL0     H32068   3.366   1.149  10.203  1.1233 -1.1112 -2.4083
  238MOL0     H32069   3.163   1.150  10.059 -0.4665  2.0494  0.8836
  238MOL0     H32070   3.267   1.246   9.956  2.2788 -0.8143  0.1071
  238MOL0     H32071   3.068   1.367  10.143 -3.4052  1.5699 -1.4829
  238MOL0     H32072   3.145   1.429   9.999 -3.2392  0.9507 -0.1744
  238MOL0     H32073   2.894   1.239  10.008 -0.6269  1.1629 -0.3005
  238MOL0     H32074   2.909   1.382   9.916  0.7545  0.4298 -1.1738
  238MOL0     H32075   3.101   1.270   9.789  1.0131  0.8734  2.7047
  238MOL0     H32076   3.037   1.117   9.852 -0.3442 -0.0736 -1.3060
  238MOL0     H32077   2.789   1.244   9.765 -0.5177 -1.5082 -1.1281
  238MOL0     H32078   2.891   1.137   9.662 -2.2586 -1.4524  1.1229
  238MOL0     H32079   2.809   1.348   9.575 -0.5414 -2.8026  0.6154
  238MOL0     H32080   2.907   1.443   9.700  4.6616  2.1448 -3.0204
  238MOL0     H32081   3.167   1.473   9.672 -2.4508 -2.0006  3.2526
  238MOL0     H32082   3.451   1.356   9.467 -0.2383 -1.3458 -1.9617
  238MOL0     H32083   3.382   1.451   9.335 -1.7236  2.9078  0.4368
  238MOL0     H32084   3.323   1.641   9.511  1.8833  2.7538 -2.1030
  238MOL0     H32085   3.458   1.559   9.600  0.0394 -1.1413  0.3031
  238MOL0     H32086   3.468   1.679   9.320  0.8465 -1.5317 -0.7893
  238MOL0     H32087   3.605   1.611   9.423  0.9382  0.0296 -1.1177
  238MOL0     H32088   3.543   1.775   9.596  0.7131 -3.0154 -0.0520
  238MOL0     H32089   3.454   1.875   9.482 -1.6946  0.3167  0.0980
  238MOL0     H32090   3.442   1.924   9.285 -1.8388  2.1043  0.0119
  238MOL0     H32091   3.468   2.117   9.122 -2.8594  1.9905  4.4960
  238MOL0     H32092   3.567   2.543   9.130  0.5278  0.2873 -0.5073
  238MOL0     H32093   3.579   2.775   9.059 -1.1242 -1.5969 -1.7463
  238MOL0     H32094   3.902   2.942   9.120  0.6368  3.5753  2.7621
  238MOL0     H32095   3.967   3.013   8.969 -1.6794  3.2381 -1.0078
  238MOL0     H32096   3.739   3.119   9.140 -1.3625 -2.9900 -1.7897
  238MOL0     H32097   3.900   3.194   9.095 -0.1538 -0.1802  2.4570
  238MOL0     H32098   3.797   3.228   8.865 -0.8209 -0.8549 -0.7480
  238MOL0     H32099   3.646   3.137   8.904 -1.2898  0.5043 -0.1404
  238MOL0     H32100   3.743   3.392   9.015  1.1324 -0.7582 -0.8543
  238MOL0     H32101   3.592   3.323   9.062 -0.8802 -3.4322 -1.8081
  238MOL0     H32102   3.667   3.391   8.776  2.0582 -0.8512  1.6336
  238MOL0     H32103   3.579   3.494   8.880  0.3170 -0.6413 -0.5992
  238MOL0     H32104   3.475   3.222   8.775  1.9229  1.7329 -2.4840
  238MOL0     H32105   3.384   3.305   8.899 -1.8172 -1.5211 -1.3381
  238MOL0     H32106   3.454   3.461   8.653  1.2351 -2.2281 -1.0588
  238MOL0     H32107   3.304   3.460   8.752 -0.3738  1.8067 -1.2095
  238MOL0     H32108   3.247   3.375   8.539  2.9209  1.7435 -0.5348
  238MOL0     H32109   3.349   3.229   8.572  1.5772  0.3398  1.5123
  238MOL0     H32110   3.997   2.713   8.943 -0.7203 -0.4901 -1.1946
  238MOL0     H32111   3.963   2.472   9.020 -0.1726 -0.4863  0.0612
  238MOL0     H32112   3.883   2.173   9.250  0.4446  0.4190  0.0972
  238MOL0     H32113   3.852   2.004   9.408 -0.8322 -0.1755 -0.6798
  238MOL0     H32114   3.248   1.636  10.001  0.0176  1.3460 -1.0449
  238MOL0     H32115   3.351   1.812   9.858  2.2933 -0.0830 -0.7674
  238MOL0     H32116   3.771   1.908   9.684 -2.7762  2.7054 -3.8564
  238MOL0     H32117   4.001   1.989   9.598 -0.2677 -1.1935  1.7472
  238MOL0     H32118   4.217   2.058   9.577 -1.6050 -0.3686 -0.8201
  238MOL0     H32119   4.246   2.092   9.749  1.9340  3.7664  0.6276
  238MOL0     H32120   4.445   2.145   9.605  0.2394  0.6278  0.4279
  238MOL0     H32121   4.379   2.283   9.697  0.3790  0.6446 -0.1610
  238MOL0     H32122   4.452   2.337   9.470  0.3025 -0.4345  1.1350
  238MOL0     H32123   4.284   2.391   9.520 -2.2604 -1.1468 -1.3724
  238MOL0     H32124   4.187   2.238   9.360  0.8451  0.9154 -0.9909
  238MOL0     H32125   4.298   2.317   9.275 -2.1975 -0.0894 -0.6065
  238MOL0     H32126   4.473   1.933   9.272  0.5549  0.2703  0.3469
  238MOL0     H32127   3.960   2.331   9.852  0.9603  1.0942 -2.5439
  238MOL0     H32128   3.647   2.269   9.979  0.1067  1.1843  0.8689
  238MOL0     H32129   3.786   2.253  10.081 -1.2901 -1.7645 -0.4612
  238MOL0     H32130   3.772   2.386   9.971 -5.0715  0.7162  1.7398
  239MOL0     O32131   9.085  10.038   5.637 -0.0633  0.4954  0.0578
  239MOL0     C32132   9.139   9.969   5.552  0.0687 -0.5892 -0.8783
  239MOL0     O32133   9.196   9.846   5.565 -0.2650  0.5278  0.1239
  239MOL0     C32134   9.236   9.794   5.687  0.2987 -0.2486 -0.6486
  239MOL0     C32135   9.274   9.864   5.798  1.5394  0.9290  0.5530
  239MOL0     C32136   9.320   9.800   5.914 -0.0775 -0.5434  0.6108
  239MOL0     C32137   9.314   9.655   5.915 -0.1276 -0.3254  0.2353
  239MOL0     O32138   9.360   9.588   6.025 -0.4787  0.4335  0.5305
  239MOL0     C32139   9.335   9.449   6.046  0.0969 -0.3725  0.5094
  239MOL0     C32140   9.357   9.411   6.194  0.0266  0.5745  0.0414
  239MOL0     C32141   9.386   9.262   6.206 -0.0711  0.4560  0.1206
  239MOL0     C32142   9.361   9.226   6.351 -0.3703  0.3888 -0.4284
  239MOL0     C32143   9.363   9.068   6.383  0.6813  0.1355 -0.2326
  239MOL0     C32144   9.474   8.979   6.314 -0.4069 -0.3845  0.3368
  239MOL0     C32145   9.458   8.827   6.325 -0.0385 -0.3943 -0.3489
  239MOL0     C32146   9.545   8.747   6.224 -0.1265 -0.8454  0.1870
  239MOL0     N32147   9.683   8.726   6.261 -0.4438  0.0438 -0.0906
  239MOL0     C32148   9.724   8.642   6.366  0.2094 -0.3541  0.2150
  239MOL0     C32149   9.860   8.629   6.352 -0.0890 -0.0630 -0.4386
  239MOL0     C32150   9.963   8.552   6.434 -0.5128 -0.4094  0.4558
  239MOL0     C32151   9.976   8.406   6.382  0.3964  0.2369 -0.0562
  239MOL0     C32152  10.057   8.316   6.475 -0.5181  0.3502 -0.5726
  239MOL0     C32153  10.071   8.184   6.410  0.3401  0.4649  0.4388
  239MOL0     O32154  10.165   8.111   6.497  0.2698 -0.3397  0.7021
  239MOL0     C32155  10.219   7.987   6.447 -0.4171 -0.6791  0.7066
  239MOL0     C32156  10.359   7.963   6.480  0.3902 -0.1401  0.5402
  239MOL0     C32157  10.404   7.834   6.459  0.0515 -0.4813  0.8488
  239MOL0     C32158  10.343   7.737   6.378  0.5480  0.9313 -1.3019
  239MOL0     C32159  10.422   7.615   6.349 -1.0030 -0.1769  0.2207
  239MOL0     O32160  10.549   7.592   6.410  0.1088  0.0197  0.5276
  239MOL0     C32161  10.619   7.483   6.363  0.1274  0.0699  0.5523
  239MOL0     C32162  10.756   7.489   6.326  0.6733  0.2788 -0.7963
  239MOL0     C32163  10.833   7.378   6.294 -0.4184  0.5361  0.1947
  239MOL0     C32164  10.789   7.250   6.286  0.2400 -0.6377 -0.1543
  239MOL0     O32165  10.871   7.160   6.234  0.4865  0.1667  0.0654
  239MOL0     C32166  10.855   7.027   6.282 -0.7888  0.2902 -0.1080
  239MOL0     C32167  10.991   6.961   6.271  0.3696 -1.4942 -0.1801
  239MOL0     C32168  10.980   6.817   6.316 -0.5501  1.3337 -0.2487
  239MOL0     C32169  11.123   6.742   6.340  0.6408 -0.1569  0.0268
  239MOL0     C32170  11.188   6.787   6.462 -0.2288  1.3919 -0.0188
  239MOL0     C32171  11.320   6.724   6.487  0.7410  0.5242  0.0281
  239MOL0     C32172  11.321   6.592   6.570  0.0680 -0.0951 -0.4829
  239MOL0     C32173  11.458   6.524   6.561 -0.0555 -0.5270  0.3735
  239MOL0    Cl32174  11.481   6.445   6.718 -0.3617  0.1338  0.4895
  239MOL0     C32175  10.658   7.238   6.324 -0.0655  0.0072 -0.2065
  239MOL0     C32176  10.575   7.349   6.359  0.3255  0.7149 -0.9037
  239MOL0     O32177  10.378   7.551   6.257  0.7126  0.7814 -0.1645
  239MOL0     C32178  10.202   7.755   6.344 -0.4111 -0.6639  0.1622
  239MOL0     C32179  10.154   7.890   6.365 -0.2176  0.5060 -0.9629
  239MOL0     N32180   9.884   8.691   6.228 -0.6569 -0.2894 -0.3971
  239MOL0     N32181   9.790   8.763   6.184  0.1549 -0.2540 -0.9868
  239MOL0     C32182   9.269   9.585   5.797 -0.7936 -0.1267  1.4477
  239MOL0     C32183   9.243   9.655   5.684 -0.0134  0.2852  0.2150
  239MOL0     C32184   9.146  10.029   5.414  0.1005  0.1576  0.5391
  239MOL0     C32185   9.218   9.959   5.314  0.2497  1.1702 -0.4803
  239MOL0     C32186   9.203   9.997   5.177 -0.7317 -0.4774  0.3609
  239MOL0     C32187   9.132  10.114   5.147 -0.5290  0.9911  0.4644
  239MOL0     O32188   9.126  10.163   5.021  0.5344 -0.3359  0.1289
  239MOL0     C32189   9.248  10.154   4.938 -0.8036 -0.1478 -0.4846
  239MOL0     C32190   9.220  10.211   4.803 -0.0421  0.1742 -0.2236
  239MOL0     C32191   9.345  10.200   4.721 -0.1048  0.4937  0.0863
  239MOL0     C32192   9.339  10.249   4.576 -0.2545  0.1486 -0.3060
  239MOL0     C32193   9.466  10.246   4.503  0.7164 -0.6900  1.2742
  239MOL0     C32194   9.581  10.256   4.470 -0.6424  0.6629 -0.0239
  239MOL0     C32195   9.078  10.193   5.246 -0.0241  0.5636 -1.0044
  239MOL0     C32196   9.080  10.145   5.378  0.3811 -0.0490 -0.5633
  239MOL0     C32197   8.981  10.217   5.469  1.1468  0.6567  1.1953
  239MOL0     H32198   9.267   9.972   5.792  0.3265  0.9540  1.8989
  239MOL0     H32199   9.355   9.860   5.997  0.1012  3.6113 -2.1976
  239MOL0     H32200   9.232   9.427   6.017 -0.5843  2.3134  0.6563
  239MOL0     H32201   9.400   9.390   5.981  2.0540  1.6128  0.5258
  239MOL0     H32202   9.278   9.438   6.265  1.5021 -0.5885  2.2262
  239MOL0     H32203   9.438   9.464   6.244 -1.9932  2.2425  1.7539
  239MOL0     H32204   9.483   9.225   6.170 -0.0498  1.4855 -0.9591
  239MOL0     H32205   9.311   9.214   6.143 -0.8556 -0.0987  1.4418
  239MOL0     H32206   9.431   9.274   6.420  1.8344 -1.4765 -1.2290
  239MOL0     H32207   9.256   9.244   6.376 -1.1376 -3.4457 -0.1487
  239MOL0     H32208   9.354   9.038   6.488  2.8711 -0.5201 -0.1886
  239MOL0     H32209   9.269   9.024   6.349  1.8936 -0.7356 -2.6729
  239MOL0     H32210   9.463   9.015   6.211 -3.3427  3.0606  1.6471
  239MOL0     H32211   9.573   9.009   6.352 -0.3164 -1.0747  0.6696
  239MOL0     H32212   9.351   8.808   6.328 -0.6787  2.8754  2.2052
  239MOL0     H32213   9.481   8.795   6.427  0.2037 -2.0065 -0.8690
  239MOL0     H32214   9.501   8.647   6.224  3.8871 -2.7631  0.2197
  239MOL0     H32215   9.537   8.799   6.128  1.0332 -0.1468  0.4513
  239MOL0     H32216   9.658   8.600   6.441  0.8417 -0.4506  0.7328
  239MOL0     H32217  10.053   8.614   6.422 -1.0286  0.1690 -0.6153
  239MOL0     H32218   9.948   8.553   6.542  1.7483  0.8032  0.8329
  239MOL0     H32219   9.874   8.367   6.386  1.2931 -2.2286  0.2716
  239MOL0     H32220  10.003   8.394   6.277  2.8593  1.8822  0.2984
  239MOL0     H32221  10.030   8.311   6.580  1.8925 -4.8461  0.1238
  239MOL0     H32222  10.162   8.348   6.477 -0.8574  1.4700 -0.0270
  239MOL0     H32223  10.118   8.190   6.311 -1.6718  1.1690 -0.5327
  239MOL0     H32224   9.975   8.133   6.397  1.9346 -2.0978 -2.9062
  239MOL0     H32225  10.420   8.028   6.542  0.3660 -1.3736  1.9022
  239MOL0     H32226  10.497   7.804   6.506  0.6800 -0.2001 -0.2020
  239MOL0     H32227  10.788   7.593   6.321 -0.5493  0.8092  1.2161
  239MOL0     H32228  10.931   7.404   6.256 -2.2434  3.3070 -3.1806
  239MOL0     H32229  10.808   7.032   6.380 -0.5754  0.5982 -0.0169
  239MOL0     H32230  10.785   6.969   6.222 -1.2774  0.3549  0.3965
  239MOL0     H32231  11.032   6.967   6.170 -0.8645 -3.5610 -0.8882
  239MOL0     H32232  11.059   7.013   6.339 -0.1693  1.9620 -2.0812
  239MOL0     H32233  10.927   6.818   6.412 -0.1139  1.8905 -0.0100
  239MOL0     H32234  10.911   6.778   6.241 -1.1625  3.3499 -0.7933
  239MOL0     H32235  11.184   6.758   6.250 -1.3840 -0.2953 -1.4448
  239MOL0     H32236  11.109   6.634   6.350 -3.1338  0.3112  1.1956
  239MOL0     H32237  11.122   6.768   6.548 -2.6496  0.7986 -1.8998
  239MOL0     H32238  11.201   6.895   6.453 -1.4249  1.6033  0.4749
  239MOL0     H32239  11.367   6.713   6.389 -0.1672 -0.0913 -0.3508
  239MOL0     H32240  11.377   6.802   6.538  1.5647  0.4997 -0.8190
  239MOL0     H32241  11.250   6.519   6.530 -0.5896  0.9485 -1.2768
  239MOL0     H32242  11.291   6.635   6.666 -1.1543 -0.1964 -0.7928
  239MOL0     H32243  11.467   6.459   6.473 -0.3506  1.4347 -1.1725
  239MOL0     H32244  11.539   6.596   6.549 -0.7735  0.7924  2.8891
  239MOL0     H32245  10.616   7.138   6.320 -0.7632  0.1456  2.1319
  239MOL0     H32246  10.473   7.332   6.392  0.9137 -3.5239 -0.8023
  239MOL0     H32247  10.134   7.695   6.284 -3.1506  1.9824  0.4369
  239MOL0     H32248  10.047   7.901   6.353 -0.1063  0.1573 -2.4882
  239MOL0     H32249   9.253   9.479   5.778  0.0387 -0.0208  0.0576
  239MOL0     H32250   9.225   9.616   5.585 -1.3208 -0.3874  0.7007
  239MOL0     H32251   9.278   9.872   5.339 -2.9145 -0.1624  3.5792
  239MOL0     H32252   9.263   9.946   5.102 -2.7974  1.2173 -2.6413
  239MOL0     H32253   9.275  10.048   4.930  0.6729  0.1466  0.2099
  239MOL0     H32254   9.330  10.208   4.986 -1.5588  1.3134 -0.8071
  239MOL0     H32255   9.211  10.318   4.822  1.4997  0.8340 -2.6679
  239MOL0     H32256   9.133  10.160   4.760  1.1853 -4.8682  2.4694
  239MOL0     H32257   9.372  10.094   4.714 -3.9423 -0.6375  0.1400
  239MOL0     H32258   9.421  10.251   4.781  0.3764 -1.7662  1.5408
  239MOL0     H32259   9.268  10.184   4.524  0.1327  1.1010 -2.1220
  239MOL0     H32260   9.294  10.348   4.562 -2.7552 -1.1124 -1.8526
  239MOL0     H32261   9.687  10.263   4.451 -0.6018 -0.9045 -0.5085
  239MOL0     H32262   9.025  10.279   5.206 -0.2949  0.7036 -0.3601
  239MOL0     H32263   8.895  10.157   5.502  2.0454 -1.4586 -0.0846
  239MOL0     H32264   9.038  10.239   5.560  2.1821 -0.3128  0.7964
  239MOL0     H32265   8.946  10.305   5.415  0.8791  2.4657  4.0935
  240MOL0     O32266   5.136   4.037   2.579 -0.6323 -0.5116  0.6632
  240MOL0     C32267   5.234   4.083   2.625  0.7052 -0.0982 -0.3855
  240MOL0     O32268   5.283   4.054   2.750 -0.3101  0.4102 -0.2469
  240MOL0     C32269   5.190   3.983   2.829  1.1029  0.3087  0.1513
  240MOL0     C32270   5.076   4.054   2.875 -0.6530  0.2956 -0.0038
  240MOL0     C32271   4.976   3.998   2.956 -0.0038 -0.1042 -0.1254
  240MOL0     C32272   4.981   3.865   2.983  0.0270  0.2537  1.1053
  240MOL0     O32273   4.892   3.787   3.048  0.5824  0.4135 -0.3131
  240MOL0     C32274   4.761   3.826   3.066 -0.1887 -0.1162  0.0810
  240MOL0     C32275   4.744   3.899   3.203 -0.2187 -0.1898 -0.6325
  240MOL0     C32276   4.604   3.961   3.228  0.0045  0.1724 -0.0509
  240MOL0     C32277   4.574   4.081   3.127 -0.1721 -0.1785  0.2300
  240MOL0     C32278   4.424   4.110   3.128 -0.0111  0.7039  0.3035
  240MOL0     C32279   4.360   4.122   3.276 -0.5743  0.4566  0.7530
  240MOL0     C32280   4.211   4.116   3.253 -0.2653 -0.0425  0.5147
  240MOL0     C32281   4.125   4.129   3.377  0.0047 -0.4331 -0.2922
  240MOL0     N32282   4.134   4.269   3.437  0.2508  0.1463  0.3073
  240MOL0     C32283   4.040   4.363   3.420 -0.3874 -0.6211  0.9055
  240MOL0     C32284   4.097   4.472   3.479  0.1258  0.0283  0.6024
  240MOL0     C32285   4.047   4.610   3.463 -0.3951  0.0384  0.4377
  240MOL0     C32286   3.895   4.620   3.485 -0.0002  0.1688 -0.0923
  240MOL0     C32287   3.834   4.760   3.466  0.0502  0.3359 -0.5169
  240MOL0     C32288   3.882   4.863   3.558  0.4436 -1.0358  0.7168
  240MOL0     O32289   3.835   4.987   3.520 -0.3485 -0.0061  0.9377
  240MOL0     C32290   3.910   5.074   3.444 -0.7073 -0.0061 -0.6792
  240MOL0     C32291   3.862   5.202   3.454 -0.1549 -0.2477 -1.5348
  240MOL0     C32292   3.926   5.312   3.395  0.7543  0.1850 -0.1607
  240MOL0     C32293   4.035   5.290   3.305 -0.1256 -0.3571 -0.5587
  240MOL0     C32294   4.112   5.400   3.231  0.5815 -0.5362  0.5192
  240MOL0     O32295   4.082   5.530   3.258  0.4155  0.5474 -0.5519
  240MOL0     C32296   4.140   5.634   3.198 -0.5632  0.0254 -0.0363
  240MOL0     C32297   4.218   5.711   3.284  0.3267 -0.5436  0.4196
  240MOL0     C32298   4.267   5.828   3.232  0.2139 -1.3431 -0.4628
  240MOL0     C32299   4.255   5.874   3.102  0.7278  0.0009 -0.2703
  240MOL0     O32300   4.320   5.991   3.064 -0.0842  0.7424  0.5453
  240MOL0     C32301   4.363   5.994   2.922 -0.5773 -0.8851 -0.3761
  240MOL0     C32302   4.424   6.130   2.890  0.8759 -0.3592  1.1803
  240MOL0     C32303   4.552   6.150   2.971  0.4953 -0.4021  0.7536
  240MOL0     C32304   4.534   6.218   3.104  0.9884  0.5676 -0.0116
  240MOL0     C32305   4.523   6.373   3.094  0.3832  0.6681  0.9423
  240MOL0     C32306   4.652   6.449   3.052 -0.6305  0.0635  0.3782
  240MOL0     C32307   4.784   6.406   3.124  0.5261 -0.1713  0.0948
  240MOL0     C32308   4.920   6.467   3.083  0.1593  1.0071 -0.0124
  240MOL0    Cl32309   5.041   6.402   3.195 -0.3162 -0.2946  0.0311
  240MOL0     C32310   4.169   5.799   3.017 -0.1102 -0.5908 -0.4926
  240MOL0     C32311   4.111   5.675   3.064 -0.5006  0.0007  0.1301
  240MOL0     O32312   4.185   5.358   3.142 -0.3045  0.8249 -0.7243
  240MOL0     C32313   4.076   5.156   3.284 -0.4071 -0.5374  0.4164
  240MOL0     C32314   4.020   5.050   3.361  0.0766 -1.0064 -0.2107
  240MOL0     N32315   4.202   4.425   3.553  0.2104 -0.5673  0.4907
  240MOL0     N32316   4.227   4.307   3.525 -0.0020  0.4061 -0.2865
  240MOL0     C32317   5.094   3.790   2.927 -0.3319  0.5955  0.4463
  240MOL0     C32318   5.198   3.851   2.856 -1.0686  0.6178 -0.1291
  240MOL0     C32319   5.306   4.184   2.543 -0.7428  0.3635  0.1568
  240MOL0     C32320   5.442   4.186   2.561  1.0176  0.5844 -0.4407
  240MOL0     C32321   5.516   4.286   2.489 -0.0156  0.8026 -0.6644
  240MOL0     C32322   5.467   4.365   2.393  0.2603 -0.1587  0.6227
  240MOL0     O32323   5.533   4.456   2.319 -0.1262 -0.7280  0.3710
  240MOL0     C32324   5.673   4.478   2.358  0.1766  1.0181  0.1130
  240MOL0     C32325   5.744   4.557   2.250 -0.1621 -1.2523  0.2626
  240MOL0     C32326   5.704   4.708   2.245  1.0762 -0.7248  1.0901
  240MOL0     C32327   5.775   4.780   2.123 -0.1280 -0.2509 -0.2106
  240MOL0     C32328   5.743   4.928   2.111 -0.2780 -0.1311  0.0110
  240MOL0     C32329   5.736   5.050   2.112 -0.4483 -0.2168  0.9940
  240MOL0     C32330   5.333   4.364   2.376 -0.2847  0.0388  0.3124
  240MOL0     C32331   5.249   4.276   2.453 -0.0451  0.7378 -0.5818
  240MOL0     C32332   5.102   4.289   2.438  0.3920 -0.0854 -0.0139
  240MOL0     H32333   5.086   4.161   2.868  0.5700  0.4776  2.9287
  240MOL0     H32334   4.903   4.055   3.013  0.5221 -1.8752  2.5237
  240MOL0     H32335   4.730   3.872   2.972  0.8165 -1.3224 -0.8767
  240MOL0     H32336   4.701   3.735   3.068 -0.0931 -0.1823 -0.0058
  240MOL0     H32337   4.824   3.974   3.207  0.7947 -1.1191 -2.1710
  240MOL0     H32338   4.753   3.819   3.278  1.9791 -1.0239 -1.6806
  240MOL0     H32339   4.592   3.992   3.332 -0.0435 -1.7454  0.5476
  240MOL0     H32340   4.529   3.881   3.222 -1.4278  1.5262 -0.9983
  240MOL0     H32341   4.627   4.174   3.151  1.5409 -0.6502 -1.4917
  240MOL0     H32342   4.604   4.049   3.027 -1.7796  1.2528 -0.7483
  240MOL0     H32343   4.394   4.200   3.074  0.6172  1.3780  1.0533
  240MOL0     H32344   4.375   4.026   3.077 -0.5917  0.1274  1.7624
  240MOL0     H32345   4.393   4.027   3.319  0.1597 -2.0395 -4.4578
  240MOL0     H32346   4.401   4.205   3.333  0.6698 -0.3449  1.0680
  240MOL0     H32347   4.190   4.015   3.217 -0.4306 -0.7390  2.4411
  240MOL0     H32348   4.178   4.189   3.178  0.3100 -0.2472  0.0513
  240MOL0     H32349   4.021   4.111   3.347 -0.3915  1.6003 -0.2500
  240MOL0     H32350   4.146   4.052   3.451  3.6044 -0.6225 -1.3572
  240MOL0     H32351   3.962   4.357   3.345  1.8554 -0.4315 -1.5934
  240MOL0     H32352   4.111   4.673   3.526 -1.1444  3.1436 -1.6805
  240MOL0     H32353   4.076   4.646   3.365  2.0109 -0.0136  1.0663
  240MOL0     H32354   3.834   4.555   3.422 -3.5654  2.0157  1.1657
  240MOL0     H32355   3.883   4.587   3.588 -0.1040 -0.2316 -0.2310
  240MOL0     H32356   3.726   4.753   3.475 -0.2181  0.4484 -2.9659
  240MOL0     H32357   3.835   4.799   3.364  0.8317  1.3528 -0.1420
  240MOL0     H32358   3.991   4.867   3.569  0.7562 -0.5158 -2.0193
  240MOL0     H32359   3.836   4.844   3.656 -2.5101 -0.4163 -0.4464
  240MOL0     H32360   3.771   5.204   3.512  0.6235 -1.2427 -0.2161
  240MOL0     H32361   3.896   5.412   3.426  1.6767 -0.1962  2.1188
  240MOL0     H32362   4.232   5.685   3.389 -0.0556  0.3337  0.7060
  240MOL0     H32363   4.318   5.894   3.302  0.2720  0.8739 -2.4932
  240MOL0     H32364   4.434   5.918   2.887  0.9412  0.0675  0.4921
  240MOL0     H32365   4.271   5.988   2.863 -0.5019 -1.3142 -0.4556
  240MOL0     H32366   4.444   6.133   2.783  0.4050  2.5396  1.0944
  240MOL0     H32367   4.354   6.213   2.903  0.1327 -0.7325 -0.2631
  240MOL0     H32368   4.599   6.056   3.000  2.3546  0.6773  1.3898
  240MOL0     H32369   4.609   6.228   2.920 -1.9687  0.7791 -0.3880
  240MOL0     H32370   4.610   6.179   3.172  0.4353 -0.3308  0.1000
  240MOL0     H32371   4.442   6.183   3.153  1.1723  0.2280  0.0900
  240MOL0     H32372   4.488   6.420   3.186 -3.2484 -0.9760  0.5751
  240MOL0     H32373   4.455   6.407   3.015 -0.4531 -1.9816  0.4160
  240MOL0     H32374   4.664   6.430   2.945  0.1962  0.6324  0.3649
  240MOL0     H32375   4.653   6.557   3.070  0.4053  0.4028 -1.4895
  240MOL0     H32376   4.796   6.303   3.088 -0.3205  0.7489 -3.0816
  240MOL0     H32377   4.766   6.404   3.232 -1.4621 -4.1192 -0.1296
  240MOL0     H32378   4.942   6.429   2.983  1.2655  1.6768 -0.0407
  240MOL0     H32379   4.911   6.576   3.073 -2.3997  0.9805  1.2089
  240MOL0     H32380   4.136   5.833   2.920 -0.5987 -1.4584 -0.6400
  240MOL0     H32381   4.039   5.617   3.007 -0.7832 -0.3390  0.8246
  240MOL0     H32382   4.161   5.127   3.222 -0.4525 -0.3340  0.2594
  240MOL0     H32383   4.057   4.949   3.348 -1.3847 -1.6109  0.1353
  240MOL0     H32384   5.087   3.683   2.945  0.1870  0.1370 -1.8051
  240MOL0     H32385   5.287   3.793   2.833 -1.4189  0.6854 -1.7418
  240MOL0     H32386   5.483   4.114   2.631 -1.9820 -3.4294 -2.4467
  240MOL0     H32387   5.619   4.296   2.521 -0.3707 -1.6073  1.5649
  240MOL0     H32388   5.714   4.377   2.362 -2.4533 -0.1122  0.7825
  240MOL0     H32389   5.693   4.538   2.447 -0.9938  3.8024 -1.3820
  240MOL0     H32390   5.719   4.505   2.157  1.4744 -0.5691 -0.6071
  240MOL0     H32391   5.852   4.554   2.269  0.7525  0.4682 -3.6804
  240MOL0     H32392   5.728   4.765   2.336  1.2127 -0.4637  0.8918
  240MOL0     H32393   5.597   4.717   2.225  0.3203 -3.8460  3.0953
  240MOL0     H32394   5.883   4.780   2.141 -0.1346 -1.1738 -0.1232
  240MOL0     H32395   5.763   4.725   2.029  2.7120 -1.7846  0.2047
  240MOL0     H32396   5.732   5.156   2.096  0.1897 -0.4948 -1.5578
  240MOL0     H32397   5.282   4.440   2.318 -6.2094 -1.2451  3.1061
  240MOL0     H32398   5.061   4.320   2.534  3.3047  0.4617  1.1521
  240MOL0     H32399   5.073   4.372   2.373  0.4100  2.5055  3.0476
  240MOL0     H32400   5.072   4.190   2.401  0.8462 -1.0603  2.0714
  241MOL0     O32401   6.834   8.871  10.684  0.2245 -0.3861  0.0085
  241MOL0     C32402   6.897   8.798  10.611  0.2777 -0.2876 -0.4096
  241MOL0     O32403   6.992   8.842  10.533  0.0951  0.4314 -0.0886
  241MOL0     C32404   7.067   8.949  10.566 -1.0720 -0.0344 -0.3028
  241MOL0     C32405   7.014   9.071  10.609  0.6854  0.1796  0.6563
  241MOL0     C32406   7.102   9.166  10.654  0.2086  0.0968  0.1275
  241MOL0     C32407   7.243   9.150  10.670  0.1441  0.4995 -1.0350
  241MOL0     O32408   7.308   9.251  10.735 -0.5812  0.2693  0.1316
  241MOL0     C32409   7.454   9.251  10.727 -0.4287  0.5119  0.1427
  241MOL0     C32410   7.513   9.371  10.792  0.0590  0.1431  0.3596
  241MOL0     C32411   7.665   9.376  10.784 -0.7130  0.6008 -0.3253
  241MOL0     C32412   7.724   9.389  10.643  0.1391  0.7836  0.2242
  241MOL0     C32413   7.880   9.400  10.635  1.0138 -0.3873  0.5454
  241MOL0     C32414   7.944   9.529  10.680  0.6022  0.5834  0.8701
  241MOL0     C32415   8.089   9.515  10.698 -0.6317 -0.2542 -0.3004
  241MOL0     C32416   8.136   9.533  10.844 -0.8177  1.1862  0.7466
  241MOL0     N32417   8.071   9.438  10.927  0.1426 -0.2947  0.0135
  241MOL0     C32418   7.947   9.460  10.998 -0.9664 -0.0690  0.7750
  241MOL0     C32419   7.928   9.354  11.069  1.2250  0.5387 -0.2930
  241MOL0     C32420   7.812   9.315  11.159  0.0032 -0.0374 -0.5252
  241MOL0     C32421   7.738   9.190  11.094  0.4066 -0.3264  0.3638
  241MOL0     C32422   7.728   9.083  11.205  0.1673 -0.2053 -0.1449
  241MOL0     C32423   7.670   8.944  11.162 -0.0424 -0.3712  0.4888
  241MOL0     O32424   7.546   8.954  11.093  0.3188 -0.4806  0.4251
  241MOL0     C32425   7.504   8.857  11.014  0.7525 -0.0162  0.0963
  241MOL0     C32426   7.565   8.732  11.014 -0.4458 -0.3397  0.6765
  241MOL0     C32427   7.506   8.634  10.939 -0.5349 -0.3063  0.4345
  241MOL0     C32428   7.390   8.645  10.862 -0.5735 -0.5746  0.1153
  241MOL0     C32429   7.333   8.539  10.785  0.0410  0.2080  0.4320
  241MOL0     O32430   7.370   8.415  10.820 -0.1166 -0.0783 -0.1387
  241MOL0     C32431   7.305   8.310  10.755  0.2539 -0.5577  0.0003
  241MOL0     C32432   7.389   8.232  10.667 -0.2622 -0.1319 -0.1050
  241MOL0     C32433   7.339   8.114  10.617  1.1980 -0.3887 -0.0889
  241MOL0     C32434   7.205   8.084  10.651 -0.8174  0.3550 -0.3028
  241MOL0     O32435   7.143   7.975  10.604  0.0324 -0.0314 -0.2013
  241MOL0     C32436   7.074   7.984  10.481  0.8056  1.0791  0.2275
  241MOL0     C32437   7.038   7.839  10.444  0.7705 -1.7927 -0.0867
  241MOL0     C32438   7.163   7.748  10.439  0.3527 -0.2985 -0.3477
  241MOL0     C32439   7.133   7.601  10.418  0.6762 -0.1057  1.1437
  241MOL0     C32440   7.104   7.575  10.259  0.0986  0.6077  1.3599
  241MOL0     C32441   7.081   7.427  10.248  0.9089  0.3502  0.3004
  241MOL0     C32442   7.004   7.391  10.122 -0.3196 -0.5154 -0.3444
  241MOL0     C32443   7.025   7.242  10.088 -0.4084  0.0318  0.4131
  241MOL0    Cl32444   6.964   7.131  10.223  0.2907 -0.3777  0.0890
  241MOL0     C32445   7.126   8.158  10.730  0.5615  0.4172 -1.0541
  241MOL0     C32446   7.177   8.276  10.774  0.2191  0.0757 -0.1124
  241MOL0     O32447   7.245   8.563  10.695  0.1460  0.4392 -0.5459
  241MOL0     C32448   7.338   8.776  10.851  1.1575 -0.7736  0.8785
  241MOL0     C32449   7.394   8.876  10.926 -1.8587  0.4064 -0.3106
  241MOL0     N32450   8.031   9.265  11.051 -0.2947 -0.8218  0.2520
  241MOL0     N32451   8.110   9.318  10.970 -0.6236 -1.3040  0.0366
  241MOL0     C32452   7.290   9.025  10.616 -0.2021  0.5111 -1.2570
  241MOL0     C32453   7.205   8.925  10.565 -0.4574 -0.4847 -1.1270
  241MOL0     C32454   6.855   8.649  10.604  0.6972 -0.8799 -0.7700
  241MOL0     C32455   6.955   8.556  10.567 -0.7762 -0.3603 -0.3193
  241MOL0     C32456   6.927   8.425  10.551  0.2107 -0.5275  1.1677
  241MOL0     C32457   6.796   8.371  10.576  0.3105  0.1385 -0.2373
  241MOL0     O32458   6.768   8.238  10.572  0.3929 -0.0389  1.2654
  241MOL0     C32459   6.637   8.198  10.613  0.6729  0.1128 -0.4323
  241MOL0     C32460   6.631   8.048  10.606  0.4826  0.1833  1.1107
  241MOL0     C32461   6.649   7.992  10.467 -0.6920  0.1497 -0.0766
  241MOL0     C32462   6.643   7.835  10.450  1.1586  0.1621  0.1075
  241MOL0     C32463   6.502   7.790  10.478 -0.1899 -0.1177  0.4676
  241MOL0     C32464   6.397   7.749  10.534 -0.6785 -0.9442  1.0911
  241MOL0     C32465   6.708   8.475  10.614  0.5832  0.4387  0.5592
  241MOL0     C32466   6.728   8.601  10.636  0.2804  0.4819  1.1618
  241MOL0     C32467   6.606   8.687  10.669 -0.1871  0.5811 -0.1346
  241MOL0     H32468   6.911   9.099  10.592 -0.2358 -2.5418  1.2670
  241MOL0     H32469   7.074   9.271  10.664  1.2544  0.3122  0.9728
  241MOL0     H32470   7.497   9.173  10.789 -2.5802  0.4605  1.7193
  241MOL0     H32471   7.488   9.243  10.623  0.9047 -2.2711  0.7249
  241MOL0     H32472   7.491   9.362  10.898  0.2124  2.1251  0.5945
  241MOL0     H32473   7.470   9.464  10.755  0.8584  2.2496  4.2151
  241MOL0     H32474   7.711   9.291  10.836 -2.8644 -0.4649 -0.0809
  241MOL0     H32475   7.690   9.467  10.839 -0.0529  0.1438  0.1470
  241MOL0     H32476   7.704   9.295  10.590  1.3922 -0.0997  1.2522
  241MOL0     H32477   7.675   9.470  10.590 -0.0594  0.1178 -0.6284
  241MOL0     H32478   7.915   9.317  10.696 -0.2014  1.0113  3.2909
  241MOL0     H32479   7.905   9.378  10.530  2.3546 -0.0199  0.7695
  241MOL0     H32480   7.927   9.609  10.607 -1.5633  0.0216  0.6859
  241MOL0     H32481   7.907   9.560  10.778  4.1487  0.4486  2.3905
  241MOL0     H32482   8.131   9.599  10.644 -1.2091  1.4383  1.7455
  241MOL0     H32483   8.126   9.422  10.654  0.8663 -0.0503  0.4927
  241MOL0     H32484   8.239   9.501  10.862 -0.7511  2.3815  2.7816
  241MOL0     H32485   8.122   9.636  10.878  2.8795  1.4529  1.8659
  241MOL0     H32486   7.884   9.548  10.992 -0.6057  0.2110  1.0908
  241MOL0     H32487   7.863   9.297  11.254 -0.6889  0.4345 -0.0606
  241MOL0     H32488   7.751   9.405  11.169  1.9051  1.2508  0.0781
  241MOL0     H32489   7.646   9.215  11.041  0.8908 -1.3790 -1.0284
  241MOL0     H32490   7.791   9.141  11.012 -1.3587 -2.8152  0.6228
  241MOL0     H32491   7.672   9.130  11.287  2.8683  0.5387  1.4187
  241MOL0     H32492   7.816   9.062  11.266 -0.8972 -1.2476  1.1109
  241MOL0     H32493   7.659   8.884  11.253  1.6875 -0.7652  0.4728
  241MOL0     H32494   7.747   8.896  11.101 -1.8032 -2.2701 -0.3642
  241MOL0     H32495   7.650   8.710  11.078  1.4502  1.6458 -1.0104
  241MOL0     H32496   7.549   8.535  10.937 -0.6705 -0.4139  1.6377
  241MOL0     H32497   7.492   8.263  10.650  1.2770 -4.1124  0.8183
  241MOL0     H32498   7.382   8.051  10.540 -0.5831 -1.2238 -0.4548
  241MOL0     H32499   6.982   8.042  10.483  1.9598  3.2820 -2.5543
  241MOL0     H32500   7.142   8.030  10.408  0.7672  0.9051  0.0810
  241MOL0     H32501   6.965   7.796  10.513  1.2200 -1.3404  0.6771
  241MOL0     H32502   6.993   7.831  10.344  0.8228 -2.6368 -0.0493
  241MOL0     H32503   7.221   7.786  10.354 -1.8827 -0.6571 -2.1320
  241MOL0     H32504   7.228   7.764  10.525 -0.9388  1.2090  0.3910
  241MOL0     H32505   7.059   7.554  10.483 -1.1247  0.2562 -0.5352
  241MOL0     H32506   7.223   7.540  10.435  0.0928 -1.1565  0.5696
  241MOL0     H32507   7.193   7.600  10.201  0.6000  0.7366  2.1706
  241MOL0     H32508   7.024   7.642  10.225 -1.3776 -0.1100  3.2065
  241MOL0     H32509   7.173   7.369  10.259 -0.8935 -2.4207  1.8087
  241MOL0     H32510   7.012   7.394  10.326  2.0224 -1.6925  0.4849
  241MOL0     H32511   7.051   7.438  10.035  1.1735  2.9968  2.1389
  241MOL0     H32512   6.901   7.427  10.119  0.3689  1.5884 -1.3293
  241MOL0     H32513   6.958   7.224  10.004  2.3187 -2.6137 -1.3958
  241MOL0     H32514   7.119   7.223  10.036 -1.8169  0.7595 -2.6269
  241MOL0     H32515   7.023   8.126  10.742  1.1174 -1.9371 -2.0018
  241MOL0     H32516   7.120   8.344  10.837  1.4159 -0.4370  1.5764
  241MOL0     H32517   7.243   8.789  10.800  0.1845 -1.3390  2.4776
  241MOL0     H32518   7.363   8.980  10.928  2.0884  1.7863 -1.6453
  241MOL0     H32519   7.393   8.993  10.625  0.0344  0.6328 -3.0467
  241MOL0     H32520   7.254   8.830  10.547  1.0576  0.3619 -1.6934
  241MOL0     H32521   7.053   8.582  10.530 -1.0760  0.3793 -0.6135
  241MOL0     H32522   6.995   8.360  10.497 -1.0665 -0.0683 -1.1401
  241MOL0     H32523   6.550   8.245  10.566  0.3397  0.7928  0.8132
  241MOL0     H32524   6.627   8.230  10.718 -0.5509  2.6337 -1.2235
  241MOL0     H32525   6.542   7.999  10.647 -2.2128  3.2950 -0.6125
  241MOL0     H32526   6.714   8.013  10.669 -1.9672 -2.1315  3.3266
  241MOL0     H32527   6.753   8.013  10.443  0.7086 -3.2132  2.2117
  241MOL0     H32528   6.586   8.035  10.389  0.4154 -0.0695 -1.1193
  241MOL0     H32529   6.693   7.794  10.362  0.7800  0.4529 -0.2505
  241MOL0     H32530   6.709   7.785  10.521  3.8296  2.1757 -0.8214
  241MOL0     H32531   6.305   7.726  10.583 -0.9319 -1.0960  0.5444
  241MOL0     H32532   6.603   8.448  10.618  0.4412  0.5140 -1.7834
  241MOL0     H32533   6.614   8.777  10.606  0.2230 -0.0132 -0.9467
  241MOL0     H32534   6.512   8.638  10.642 -0.5970  1.3503 -0.1445
  241MOL0     H32535   6.611   8.724  10.772 -2.2113 -0.0092  0.2174
  242MOL0     O32536  10.205   1.977   3.837  0.3657 -0.4611  0.4214
  242MOL0     C32537  10.087   1.975   3.809  0.6630 -0.3323 -0.3413
  242MOL0     O32538   9.984   1.999   3.905 -0.4450  0.5109  1.3368
  242MOL0     C32539  10.007   2.037   4.032 -0.2975 -0.7667  0.0956
  242MOL0     C32540   9.926   2.130   4.087  0.9349 -0.4848  0.5507
  242MOL0     C32541   9.946   2.179   4.218  0.1570 -0.3006  0.2966
  242MOL0     C32542  10.054   2.139   4.288 -0.5728  0.2435  0.6288
  242MOL0     O32543  10.074   2.182   4.421 -0.1529 -0.4277 -0.2515
  242MOL0     C32544  10.053   2.076   4.515 -1.0668 -0.1571  1.1605
  242MOL0     C32545  10.055   2.149   4.648 -0.1582 -0.1135 -0.2879
  242MOL0     C32546  10.009   2.074   4.767 -0.2952  0.0305  0.1870
  242MOL0     C32547  10.110   1.964   4.828  0.0356 -0.3418 -0.0365
  242MOL0     C32548  10.055   1.912   4.968  0.2901  0.9844  0.1662
  242MOL0     C32549   9.904   1.877   4.974  0.2221  0.7350  0.1906
  242MOL0     C32550   9.847   1.826   5.105 -0.2607 -0.5541  0.5592
  242MOL0     C32551   9.695   1.830   5.120  0.3956  0.8022 -0.0918
  242MOL0     N32552   9.619   1.952   5.083 -0.4445 -0.4534 -0.3749
  242MOL0     C32553   9.494   1.955   5.020 -0.0140 -0.9653  1.1977
  242MOL0     C32554   9.445   2.080   5.033  0.1100 -0.1005  0.3660
  242MOL0     C32555   9.311   2.129   4.967  0.1279  0.5429  0.6348
  242MOL0     C32556   9.204   2.040   5.047 -0.1322 -0.1247  0.8693
  242MOL0     C32557   9.204   2.049   5.200  0.5903 -0.9238 -0.6094
  242MOL0     C32558   9.175   2.181   5.260 -0.3087 -0.0748  0.0063
  242MOL0     O32559   9.042   2.220   5.224  0.4492  0.1258 -0.4589
  242MOL0     C32560   8.991   2.332   5.286  0.6172 -0.4690 -0.2948
  242MOL0     C32561   9.042   2.397   5.398 -0.9554 -0.3901  0.2199
  242MOL0     C32562   8.967   2.503   5.453  0.1652  0.0367 -0.6220
  242MOL0     C32563   8.832   2.536   5.404  0.7758 -1.0047 -0.2263
  242MOL0     C32564   8.764   2.657   5.459 -0.3783 -0.0195  0.1973
  242MOL0     O32565   8.829   2.711   5.565  0.2610  0.4068 -0.0070
  242MOL0     C32566   8.809   2.841   5.594 -0.0537 -0.7347  0.0273
  242MOL0     C32567   8.760   2.872   5.719 -0.4127  0.1374 -0.0964
  242MOL0     C32568   8.752   3.003   5.771 -0.4884 -0.3213 -0.6100
  242MOL0     C32569   8.784   3.109   5.686  0.2173 -0.6648  0.8957
  242MOL0     O32570   8.773   3.238   5.736 -0.4863  0.1866 -0.4380
  242MOL0     C32571   8.878   3.325   5.690  0.6079 -0.5384  0.0807
  242MOL0     C32572   8.854   3.454   5.769 -0.3010  0.4712  0.5734
  242MOL0     C32573   8.872   3.427   5.916 -0.4046 -0.2903 -0.6222
  242MOL0     C32574   8.851   3.552   5.997  0.1195  0.2063  0.4018
  242MOL0     C32575   8.851   3.532   6.153  0.2722 -0.3754 -0.2797
  242MOL0     C32576   8.797   3.654   6.221 -0.7470  0.1470 -0.1571
  242MOL0     C32577   8.803   3.660   6.382  0.2540  0.0023  0.4721
  242MOL0     C32578   8.811   3.803   6.434  0.2435  0.6775  0.2266
  242MOL0    Cl32579   8.957   3.877   6.367  0.2140 -0.1255 -0.0638
  242MOL0     C32580   8.818   3.082   5.551  0.4694  0.5804  0.8345
  242MOL0     C32581   8.824   2.953   5.498 -0.8461  0.3485 -0.4505
  242MOL0     O32582   8.667   2.702   5.400 -1.2311  0.4607 -0.4175
  242MOL0     C32583   8.781   2.463   5.306  0.1264  0.3534  0.1557
  242MOL0     C32584   8.860   2.365   5.247 -0.2543 -0.3124 -0.0928
  242MOL0     N32585   9.550   2.148   5.088  0.1454  0.0903  0.2526
  242MOL0     N32586   9.646   2.078   5.129 -0.1738 -0.3552  0.3712
  242MOL0     C32587  10.143   2.037   4.235  0.3742  0.1052 -0.3655
  242MOL0     C32588  10.114   1.980   4.110  0.6228  0.6466 -0.1537
  242MOL0     C32589  10.044   1.976   3.659 -0.0846 -0.4526 -0.3528
  242MOL0     C32590  10.141   1.975   3.562  0.5496  0.3839 -0.2985
  242MOL0     C32591  10.106   1.973   3.424  0.7443 -0.8496  0.0177
  242MOL0     C32592   9.971   1.980   3.376  0.0983 -0.7901 -0.8294
  242MOL0     O32593   9.925   1.975   3.243 -1.0459 -0.0621 -0.2399
  242MOL0     C32594  10.029   1.961   3.140 -0.5430 -0.4908  0.1396
  242MOL0     C32595  10.060   1.811   3.124  0.2439  0.4917  0.1202
  242MOL0     C32596   9.952   1.733   3.056  0.4186 -0.1317 -0.1197
  242MOL0     C32597   9.943   1.736   2.905  0.1255 -1.3497  0.3738
  242MOL0     C32598   9.879   1.862   2.863  1.3490 -0.1549 -0.4347
  242MOL0     C32599   9.810   1.957   2.833  0.1902  0.2925 -0.2689
  242MOL0     C32600   9.877   1.975   3.483  0.9840 -1.4133  1.2373
  242MOL0     C32601   9.907   1.976   3.618 -0.0099  0.5400 -0.3391
  242MOL0     C32602   9.784   1.982   3.710 -0.2526 -0.5688  0.4992
  242MOL0     H32603   9.844   2.166   4.027 -0.2476 -0.0498  2.3368
  242MOL0     H32604   9.881   2.258   4.253 -1.1012 -1.5136  0.8107
  242MOL0     H32605   9.956   2.030   4.492  0.1330 -1.4538 -1.9133
  242MOL0     H32606  10.135   2.003   4.511  0.2747  1.3458  0.2485
  242MOL0     H32607   9.979   2.226   4.633  0.4876  0.1750 -2.3455
  242MOL0     H32608  10.148   2.202   4.672 -0.0844 -0.3486 -0.0387
  242MOL0     H32609   9.924   2.020   4.724 -0.2818  0.3038 -0.1830
  242MOL0     H32610   9.978   2.139   4.849  0.5702  0.8343 -0.1121
  242MOL0     H32611  10.141   1.882   4.763  1.5332  0.6017 -0.5646
  242MOL0     H32612  10.205   2.015   4.850  1.4225 -1.9329 -1.9524
  242MOL0     H32613  10.106   1.821   5.002 -1.7629  0.8123  3.1812
  242MOL0     H32614  10.066   1.998   5.036 -0.0666 -0.6612  2.4202
  242MOL0     H32615   9.845   1.962   4.937 -0.9634  0.9493  2.3770
  242MOL0     H32616   9.876   1.798   4.903 -0.9045  1.4662 -0.2154
  242MOL0     H32617   9.886   1.883   5.190 -0.5349 -0.4036  0.5841
  242MOL0     H32618   9.890   1.726   5.119  1.1343 -0.4812 -2.5375
  242MOL0     H32619   9.660   1.752   5.053 -2.3069  1.3919  0.5024
  242MOL0     H32620   9.669   1.803   5.222  3.6961 -1.5834  0.2513
  242MOL0     H32621   9.448   1.873   4.966 -1.0705  1.7844 -2.4362
  242MOL0     H32622   9.300   2.237   4.980  0.4954  0.3213  3.2532
  242MOL0     H32623   9.310   2.098   4.862  1.1118 -0.8643  1.0209
  242MOL0     H32624   9.102   2.064   5.018  0.2853  1.6875  0.7741
  242MOL0     H32625   9.221   1.940   5.007  1.7112  1.3954 -2.6338
  242MOL0     H32626   9.305   2.016   5.226  1.0266 -0.8432 -2.0866
  242MOL0     H32627   9.132   1.983   5.249 -0.1647  1.5854  1.8985
  242MOL0     H32628   9.246   2.246   5.209 -0.8564 -0.4508 -1.2557
  242MOL0     H32629   9.196   2.183   5.368  4.9401  1.5090 -0.7597
  242MOL0     H32630   9.136   2.373   5.446  0.3652  2.4583 -0.6915
  242MOL0     H32631   9.017   2.556   5.534 -1.4356  1.7145 -0.6704
  242MOL0     H32632   8.735   2.785   5.779  1.2701 -0.7991 -0.6852
  242MOL0     H32633   8.747   3.021   5.877  0.8763  0.8704 -0.7120
  242MOL0     H32634   8.975   3.287   5.724  0.5374  0.9546  2.1616
  242MOL0     H32635   8.875   3.349   5.583 -0.1341  0.8949  0.4074
  242MOL0     H32636   8.904   3.540   5.724  1.0356  1.0285  2.9874
  242MOL0     H32637   8.746   3.474   5.762 -0.4918  0.1736  2.2218
  242MOL0     H32638   8.789   3.365   5.953  0.8929 -2.7999 -1.6808
  242MOL0     H32639   8.969   3.384   5.943  0.5433  1.7744 -0.5359
  242MOL0     H32640   8.758   3.604   5.970 -1.8278 -1.4343  3.3294
  242MOL0     H32641   8.940   3.610   5.973 -0.7184  0.7178 -1.6755
  242MOL0     H32642   8.950   3.502   6.188  0.8391 -0.5513 -1.9221
  242MOL0     H32643   8.777   3.452   6.161 -0.3739  0.2506  0.0355
  242MOL0     H32644   8.860   3.734   6.181 -1.7280  1.4299  0.7909
  242MOL0     H32645   8.694   3.672   6.189 -1.2728 -1.5725  0.4199
  242MOL0     H32646   8.887   3.611   6.432 -1.0119 -0.6734  2.0488
  242MOL0     H32647   8.723   3.602   6.428  0.1158 -0.6256 -0.5408
  242MOL0     H32648   8.723   3.854   6.394 -0.5736  2.1419  3.5651
  242MOL0     H32649   8.812   3.807   6.543  1.5925  2.0719  0.1912
  242MOL0     H32650   8.835   3.164   5.482  0.0171 -1.0207 -1.2760
  242MOL0     H32651   8.871   2.938   5.402  1.1497 -2.6984  0.8541
  242MOL0     H32652   8.690   2.491   5.254 -0.0198 -0.7053 -0.1849
  242MOL0     H32653   8.828   2.325   5.151  2.1488 -2.4624 -0.1239
  242MOL0     H32654  10.225   1.997   4.295  1.3887  1.7322 -0.6049
  242MOL0     H32655  10.179   1.899   4.077 -3.9384 -3.0444 -1.1655
  242MOL0     H32656  10.245   1.981   3.594 -0.2615 -2.4597  3.5697
  242MOL0     H32657  10.188   1.964   3.353  2.5577 -1.8494  2.1259
  242MOL0     H32658  10.126   2.004   3.167  0.4699 -1.5641 -1.5837
  242MOL0     H32659   9.995   2.015   3.051 -0.4836 -0.4338  0.1510
  242MOL0     H32660  10.084   1.760   3.218 -1.7580 -5.8602 -2.2702
  242MOL0     H32661  10.155   1.799   3.070  0.4240 -0.0620  0.5455
  242MOL0     H32662   9.859   1.767   3.100  2.7705  2.7270  3.1638
  242MOL0     H32663   9.972   1.629   3.086 -2.1172 -2.5266 -5.3903
  242MOL0     H32664  10.044   1.738   2.863 -0.4554  1.5008 -1.1276
  242MOL0     H32665   9.878   1.655   2.870 -0.5170  0.3651 -2.6813
  242MOL0     H32666   9.756   2.049   2.820  0.4389  0.7038  1.3638
  242MOL0     H32667   9.771   1.969   3.460  1.1789  1.1106 -0.7248
  242MOL0     H32668   9.695   1.973   3.647  0.8565 -1.2063 -1.0372
  242MOL0     H32669   9.782   1.903   3.785  0.2878  0.0390  1.1717
  242MOL0     H32670   9.771   2.083   3.750 -3.1778  0.1761 -1.9226
  243MOL0     O32671   8.230  10.618   1.424 -0.0501  0.3881 -0.9095
  243MOL0     C32672   8.290  10.726   1.456  0.2757 -0.1068 -0.4602
  243MOL0     O32673   8.379  10.794   1.376  0.2351 -0.4363  0.2184
  243MOL0     C32674   8.409  10.756   1.242 -0.2768 -0.0037  0.1709
  243MOL0     C32675   8.338  10.656   1.168 -0.1630  0.2499  0.3578
  243MOL0     C32676   8.381  10.627   1.039  0.1051  0.1102  0.3846
  243MOL0     C32677   8.497  10.700   0.989 -0.1841  0.2716  0.3775
  243MOL0     O32678   8.532  10.698   0.856 -0.3661 -0.1650 -0.5491
  243MOL0     C32679   8.494  10.589   0.786 -0.2552  0.2155  0.9625
  243MOL0     C32680   8.577  10.581   0.661 -0.2694 -0.2299  0.0963
  243MOL0     C32681   8.548  10.457   0.580  0.7366 -0.3959  0.3497
  243MOL0     C32682   8.604  10.462   0.441 -0.1146  0.8779  0.4731
  243MOL0     C32683   8.570  10.577   0.358  0.9664 -0.4710  0.5687
  243MOL0     C32684   8.541  10.557   0.207  0.4884  0.0876  0.2818
  243MOL0     C32685   8.455  10.680   0.160  0.0507 -0.3182  0.2884
  243MOL0     C32686   8.397  10.658   0.015  0.9093  0.0921  0.6402
  243MOL0     N32687   8.379  10.779  -0.063 -0.1135 -0.0551  0.8481
  243MOL0     C32688   8.279  10.868  -0.065  0.3893  0.4588  0.1296
  243MOL0     C32689   8.296  10.948  -0.168  1.6537  0.4124  0.7574
  243MOL0     C32690   8.189  11.047  -0.218 -0.6337 -0.9657  0.7139
  243MOL0     C32691   8.214  11.185  -0.152  0.4122  0.1542  0.2475
  243MOL0     C32692   8.142  11.304  -0.221 -0.2076  0.3991  0.4059
  243MOL0     C32693   7.984  11.295  -0.214 -0.0412  0.0902  0.5544
  243MOL0     O32694   7.921  11.350  -0.326  0.7114 -0.5629 -0.3125
  243MOL0     C32695   7.851  11.462  -0.306  0.3390 -0.0906  0.3616
  243MOL0     C32696   7.892  11.569  -0.232  0.0037  1.1392  0.1182
  243MOL0     C32697   7.811  11.682  -0.225  0.7809 -0.1834 -0.3068
  243MOL0     C32698   7.686  11.685  -0.292  1.1875  0.7799 -0.3202
  243MOL0     C32699   7.596  11.808  -0.278 -0.3169 -0.0903  0.1447
  243MOL0     O32700   7.622  11.905  -0.174  0.1233  0.2977 -0.2598
  243MOL0     C32701   7.580  12.032  -0.208  0.3804  0.7098 -0.0111
  243MOL0     C32702   7.450  12.083  -0.181  0.7173  0.6967  0.0864
  243MOL0     C32703   7.411  12.209  -0.215 -0.7769 -0.6026 -0.0870
  243MOL0     C32704   7.510  12.299  -0.268 -0.6290 -0.7608  0.4347
  243MOL0     O32705   7.481  12.425  -0.291 -0.6617 -0.6918 -0.1725
  243MOL0     C32706   7.580  12.530  -0.289  0.4203  0.7084  0.1919
  243MOL0     C32707   7.650  12.558  -0.156  0.6033 -0.7111 -0.5601
  243MOL0     C32708   7.735  12.691  -0.158 -0.1678  0.2298  1.2566
  243MOL0     C32709   7.871  12.656  -0.238  1.3240 -1.0723 -0.7481
  243MOL0     C32710   7.939  12.790  -0.285 -0.2833  0.1653 -0.0913
  243MOL0     C32711   8.088  12.794  -0.276 -0.6694  0.7106 -0.4835
  243MOL0     C32712   8.149  12.920  -0.334 -0.9265  0.7174 -0.5406
  243MOL0     C32713   8.298  12.938  -0.289  0.3663  0.9561  0.0794
  243MOL0    Cl32714   8.374  13.086  -0.356 -0.1666  0.3962  0.4415
  243MOL0     C32715   7.640  12.248  -0.292 -0.5941 -0.9103  0.1580
  243MOL0     C32716   7.675  12.117  -0.260  0.2121 -0.1362 -0.4780
  243MOL0     O32717   7.493  11.811  -0.345 -0.3093 -0.3678 -0.5356
  243MOL0     C32718   7.654  11.583  -0.376  0.6827  0.8056  0.2281
  243MOL0     C32719   7.737  11.479  -0.388  0.2926  0.0117 -0.3027
  243MOL0     N32720   8.404  10.901  -0.235 -0.0306 -0.0519 -0.2370
  243MOL0     N32721   8.453  10.798  -0.178  0.8622  0.3197 -0.7343
  243MOL0     C32722   8.561  10.795   1.064 -0.2189 -0.5205  0.5746
  243MOL0     C32723   8.520  10.817   1.188 -0.3203 -0.7241 -0.9233
  243MOL0     C32724   8.263  10.794   1.589 -0.0573  0.6088  0.7347
  243MOL0     C32725   8.358  10.888   1.623 -0.5731 -0.0457  0.5631
  243MOL0     C32726   8.351  10.951   1.751 -0.1962  0.2890  0.3415
  243MOL0     C32727   8.252  10.915   1.845 -0.5447 -0.4405  0.3009
  243MOL0     O32728   8.240  10.948   1.979 -0.6434 -0.2285 -0.1755
  243MOL0     C32729   8.282  11.085   1.996 -0.2747 -0.1649 -0.6028
  243MOL0     C32730   8.169  11.178   1.968  0.0745  1.3439  0.9257
  243MOL0     C32731   8.032  11.131   2.035 -0.4583  0.0185 -0.7679
  243MOL0     C32732   8.025  11.164   2.185 -0.4835  1.2540 -0.0871
  243MOL0     C32733   8.070  11.056   2.271 -0.6214  0.3052 -0.3539
  243MOL0     C32734   8.099  10.978   2.357  0.4632  0.4394 -0.2497
  243MOL0     C32735   8.163  10.813   1.806 -0.0083 -1.1711  0.0082
  243MOL0     C32736   8.164  10.748   1.684  0.2409  0.3362  0.7217
  243MOL0     C32737   8.063  10.631   1.666 -0.1872  0.0455  0.2422
  243MOL0     H32738   8.248  10.609   1.207 -0.3146 -0.1145 -0.3994
  243MOL0     H32739   8.324  10.557   0.979 -0.4841  1.2835 -0.4599
  243MOL0     H32740   8.534  10.503   0.840 -2.0187 -0.0418  1.9351
  243MOL0     H32741   8.388  10.591   0.762 -0.1500  0.0211  0.4639
  243MOL0     H32742   8.685  10.579   0.674 -0.2847 -3.7245  0.5848
  243MOL0     H32743   8.539  10.671   0.611  0.1954  0.8218  1.5672
  243MOL0     H32744   8.442  10.439   0.558  1.0742  0.8513 -2.6402
  243MOL0     H32745   8.600  10.369   0.620  0.1022  0.9473  4.6358
  243MOL0     H32746   8.712  10.469   0.452  0.1098  0.1776 -1.0681
  243MOL0     H32747   8.578  10.366   0.395 -3.2437  1.8357 -0.0367
  243MOL0     H32748   8.479  10.620   0.402  0.5366  0.5487 -1.2302
  243MOL0     H32749   8.652  10.649   0.362  2.0517 -1.5969 -0.3753
  243MOL0     H32750   8.628  10.540   0.143  1.0299  0.5419  0.8864
  243MOL0     H32751   8.484  10.464   0.200  1.7311 -0.8509  2.0622
  243MOL0     H32752   8.528  10.759   0.149  0.6007 -0.8679 -0.0562
  243MOL0     H32753   8.371  10.697   0.228 -0.0052  0.5824 -0.0007
  243MOL0     H32754   8.471  10.608  -0.047  0.8365  0.4026  0.2994
  243MOL0     H32755   8.306  10.597   0.020 -0.0760  1.2783 -1.3283
  243MOL0     H32756   8.197  10.867   0.007 -0.1702 -0.0976 -0.4973
  243MOL0     H32757   8.192  11.067  -0.325 -0.9625 -2.1948  0.4569
  243MOL0     H32758   8.084  11.020  -0.198 -1.3819  1.9390  1.1789
  243MOL0     H32759   8.170  11.183  -0.052  0.2449 -3.2983  0.2365
  243MOL0     H32760   8.320  11.207  -0.142  0.7284 -0.9640 -0.3675
  243MOL0     H32761   8.185  11.311  -0.321 -2.0533  1.0325 -0.3758
  243MOL0     H32762   8.174  11.401  -0.182 -0.5021  1.9589 -2.8996
  243MOL0     H32763   7.943  11.330  -0.118 -2.0250  4.9413 -1.7398
  243MOL0     H32764   7.954  11.190  -0.220 -1.5620  0.5002  0.6106
  243MOL0     H32765   7.974  11.580  -0.161 -1.8317 -2.1430  3.0740
  243MOL0     H32766   7.846  11.770  -0.173 -3.8476  1.4215  0.5547
  243MOL0     H32767   7.366  12.023  -0.149 -0.1913  0.2216 -2.8828
  243MOL0     H32768   7.311  12.246  -0.198  0.1386  1.3880  1.5062
  243MOL0     H32769   7.660  12.509  -0.361 -0.7825 -2.7702 -0.3128
  243MOL0     H32770   7.529  12.618  -0.329 -0.1743  1.1970  1.9385
  243MOL0     H32771   7.569  12.569  -0.084 -0.5084 -0.5163 -1.8141
  243MOL0     H32772   7.702  12.471  -0.113  1.1342 -0.1736 -0.0761
  243MOL0     H32773   7.680  12.761  -0.221  1.0737 -1.5974 -2.1594
  243MOL0     H32774   7.742  12.716  -0.052  0.3346 -3.0474  2.0959
  243MOL0     H32775   7.856  12.595  -0.328  0.3770  0.4091 -1.6340
  243MOL0     H32776   7.941  12.606  -0.170  1.1420  2.2316  2.1385
  243MOL0     H32777   7.908  12.869  -0.215  1.8169 -0.1429  1.2743
  243MOL0     H32778   7.889  12.810  -0.380 -1.8803 -0.4724  0.5692
  243MOL0     H32779   8.113  12.792  -0.170 -0.3683 -3.4069 -0.4663
  243MOL0     H32780   8.116  12.701  -0.326 -0.0739  0.5712  0.1043
  243MOL0     H32781   8.085  13.007  -0.316  0.1136  2.0737 -2.8594
  243MOL0     H32782   8.144  12.911  -0.443 -1.1637 -0.6452 -0.4348
  243MOL0     H32783   8.304  12.957  -0.181  1.0150  0.4043  0.1468
  243MOL0     H32784   8.359  12.852  -0.318  0.6974 -0.2663  3.7895
  243MOL0     H32785   7.712  12.305  -0.350  1.1669 -1.7892  1.3989
  243MOL0     H32786   7.779  12.086  -0.268  0.4199 -0.2961  1.9752
  243MOL0     H32787   7.579  11.589  -0.455 -1.2269  2.9486  2.0591
  243MOL0     H32788   7.715  11.406  -0.466 -1.1581  1.0340 -0.8812
  243MOL0     H32789   8.652  10.844   1.030  1.2920 -0.9958  3.5681
  243MOL0     H32790   8.577  10.886   1.249 -0.2682 -1.7555  0.2362
  243MOL0     H32791   8.437  10.926   1.558  0.8805 -1.9182  1.1308
  243MOL0     H32792   8.431  11.022   1.769  0.1129  0.4151 -1.3630
  243MOL0     H32793   8.373  11.114   1.942 -1.3317  2.4916 -1.0780
  243MOL0     H32794   8.304  11.112   2.099  2.1665  1.3015 -1.4211
  243MOL0     H32795   8.154  11.179   1.860  0.7333  3.7877  0.7977
  243MOL0     H32796   8.183  11.283   1.995 -1.4509  2.6547 -2.7456
  243MOL0     H32797   8.009  11.025   2.019 -1.0681  0.1047 -0.4721
  243MOL0     H32798   7.943  11.184   2.001 -1.9263 -1.2819  0.8622
  243MOL0     H32799   8.087  11.253   2.193  0.8701  0.4126 -0.8570
  243MOL0     H32800   7.919  11.173   2.211  0.1055  1.2612  2.6204
  243MOL0     H32801   8.122  10.897   2.424  4.2832 -2.1224 -4.1259
  243MOL0     H32802   8.081  10.795   1.875  2.1491  0.1928  3.1698
  243MOL0     H32803   7.988  10.628   1.745 -0.7757  0.3203 -0.2934
  243MOL0     H32804   8.006  10.641   1.573  1.7452  3.2518 -0.7854
  243MOL0     H32805   8.126  10.541   1.666 -1.6036 -0.9958 -1.1757
  244MOL0     O32806   6.236   3.154   1.006  0.0989  0.1569 -0.5583
  244MOL0     C32807   6.159   3.168   1.097 -1.0880  0.1522 -0.5282
  244MOL0     O32808   6.184   3.143   1.233  0.0234 -0.9416 -0.3802
  244MOL0     C32809   6.278   3.053   1.273 -0.5163 -0.6054 -0.1399
  244MOL0     C32810   6.351   3.089   1.380  0.0013 -0.6757 -0.7649
  244MOL0     C32811   6.449   3.006   1.434 -0.1639 -0.4354  0.5113
  244MOL0     C32812   6.485   2.892   1.366 -0.6638  0.3304  0.6416
  244MOL0     O32813   6.588   2.802   1.407 -0.7529 -0.0223 -0.4713
  244MOL0     C32814   6.565   2.758   1.544  1.0106  0.7356 -0.9561
  244MOL0     C32815   6.667   2.656   1.584 -0.2926 -0.3203  0.3160
  244MOL0     C32816   6.611   2.589   1.707  0.7294 -0.5859  0.2464
  244MOL0     C32817   6.725   2.488   1.746 -0.2581 -0.5568 -0.5547
  244MOL0     C32818   6.698   2.381   1.854  0.4465  0.1007 -0.4572
  244MOL0     C32819   6.673   2.457   1.997 -0.1789  0.1628  0.2219
  244MOL0     C32820   6.671   2.351   2.103  1.4206  0.7325 -0.1200
  244MOL0     C32821   6.639   2.405   2.254  0.4823  0.9720  0.2525
  244MOL0     N32822   6.741   2.482   2.307 -0.0583 -0.0170  0.2013
  244MOL0     C32823   6.727   2.575   2.413 -0.4132 -0.6161 -0.4032
  244MOL0     C32824   6.853   2.600   2.439 -0.2799  0.2698 -1.1185
  244MOL0     C32825   6.892   2.668   2.571  0.4240 -0.2604  0.9168
  244MOL0     C32826   6.864   2.814   2.582  0.2111 -0.3837 -0.4491
  244MOL0     C32827   6.933   2.886   2.701 -0.5553 -0.1096 -0.2071
  244MOL0     C32828   6.888   3.032   2.721 -0.8666  0.5710  1.1365
  244MOL0     O32829   6.758   3.043   2.755  0.0907  0.7244  0.4711
  244MOL0     C32830   6.659   3.078   2.659 -0.8277  0.8431  0.2755
  244MOL0     C32831   6.688   3.116   2.522 -0.7284 -0.1318 -1.0264
  244MOL0     C32832   6.584   3.166   2.447  0.6426  0.0654  0.7741
  244MOL0     C32833   6.459   3.187   2.497  0.2038  0.2190 -0.0941
  244MOL0     C32834   6.358   3.257   2.413 -0.1605 -0.6369 -0.0542
  244MOL0     O32835   6.226   3.234   2.451 -0.1218  0.0665  0.9796
  244MOL0     C32836   6.125   3.293   2.372 -0.0344  0.2931 -0.0477
  244MOL0     C32837   6.114   3.419   2.339 -0.9146 -0.2456  0.2773
  244MOL0     C32838   6.009   3.482   2.283  0.7215 -0.5335  0.4945
  244MOL0     C32839   5.895   3.412   2.260  0.0177  0.8389  1.2182
  244MOL0     O32840   5.790   3.476   2.194 -0.3256  0.1794  0.3181
  244MOL0     C32841   5.662   3.448   2.246  0.7397  0.2276 -0.4147
  244MOL0     C32842   5.569   3.574   2.227  0.5003 -1.0060  0.5048
  244MOL0     C32843   5.618   3.674   2.343 -0.6537 -0.3655 -0.1872
  244MOL0     C32844   5.543   3.807   2.342  0.0967  0.1560  0.2057
  244MOL0     C32845   5.623   3.916   2.422  0.9579  0.3232 -0.1413
  244MOL0     C32846   5.643   3.869   2.570  0.7368 -0.5583  0.5716
  244MOL0     C32847   5.745   3.956   2.636 -0.3153 -0.3872  0.1218
  244MOL0     C32848   5.900   3.930   2.605  0.6759 -1.4509 -0.7650
  244MOL0    Cl32849   6.023   3.993   2.712 -0.4387 -0.1488 -0.5806
  244MOL0     C32850   5.894   3.274   2.293  0.3411 -0.6082  0.7078
  244MOL0     C32851   6.010   3.210   2.351  0.3292 -0.2918 -0.0732
  244MOL0     O32852   6.397   3.322   2.311  0.2790  0.2593  0.0321
  244MOL0     C32853   6.430   3.145   2.633  0.1335  1.0101 -0.1236
  244MOL0     C32854   6.530   3.095   2.712 -0.5344  0.2056  0.1117
  244MOL0     N32855   6.943   2.539   2.356 -0.2956  0.6199  0.0842
  244MOL0     N32856   6.876   2.468   2.275  0.4337 -0.7266 -0.4764
  244MOL0     C32857   6.426   2.855   1.247 -1.2168  0.1980 -0.6492
  244MOL0     C32858   6.322   2.937   1.202  0.0322  0.3428  0.1783
  244MOL0     C32859   6.033   3.244   1.063 -0.7890  0.0830 -0.1748
  244MOL0     C32860   5.988   3.241   0.926 -0.3398 -0.5720 -0.6520
  244MOL0     C32861   5.874   3.309   0.894  0.0605 -0.5450  0.1926
  244MOL0     C32862   5.790   3.374   0.989 -0.3530  0.0499  0.2498
  244MOL0     O32863   5.667   3.419   0.947 -0.5158 -0.1336  0.2132
  244MOL0     C32864   5.555   3.338   0.999 -0.8401 -0.4335 -0.1798
  244MOL0     C32865   5.426   3.418   1.025 -0.1426  0.5212 -0.7004
  244MOL0     C32866   5.442   3.522   1.139  0.6575  0.1248 -0.2831
  244MOL0     C32867   5.498   3.649   1.080 -0.8547  0.3003  0.2572
  244MOL0     C32868   5.459   3.766   1.158  0.6941 -0.4605 -0.3653
  244MOL0     C32869   5.409   3.871   1.207 -0.7285  0.0564 -0.5405
  244MOL0     C32870   5.834   3.383   1.120 -0.4322  0.5923 -0.8637
  244MOL0     C32871   5.957   3.320   1.161 -0.5989 -0.1967  0.2572
  244MOL0     C32872   5.979   3.321   1.311 -0.2500  0.6208 -0.0377
  244MOL0     H32873   6.333   3.178   1.439  4.4526 -0.2599  0.3295
  244MOL0     H32874   6.495   3.024   1.530 -1.2519  1.2813  0.7553
  244MOL0     H32875   6.566   2.842   1.614  0.6871 -1.0356  1.2565
  244MOL0     H32876   6.468   2.707   1.543  1.4811 -0.1854 -0.2563
  244MOL0     H32877   6.757   2.711   1.611  0.5585 -1.0740 -0.8679
  244MOL0     H32878   6.700   2.597   1.498  1.2504  1.0427 -0.0657
  244MOL0     H32879   6.518   2.533   1.696  0.1857  0.4398 -0.4837
  244MOL0     H32880   6.605   2.670   1.780  3.6585 -0.2386  0.2255
  244MOL0     H32881   6.754   2.436   1.654 -0.6448 -0.6645 -0.6187
  244MOL0     H32882   6.806   2.551   1.783  0.1206 -2.6356  2.5920
  244MOL0     H32883   6.607   2.323   1.835  0.8854 -0.6465 -0.3351
  244MOL0     H32884   6.790   2.322   1.864  2.7079  3.0345 -2.1060
  244MOL0     H32885   6.759   2.524   2.009  1.5992 -2.2213  1.7349
  244MOL0     H32886   6.584   2.520   1.991  0.9653  1.6956 -3.2186
  244MOL0     H32887   6.764   2.294   2.108 -0.4042 -2.6497 -1.2161
  244MOL0     H32888   6.581   2.294   2.080  1.7498 -0.2414  0.9439
  244MOL0     H32889   6.545   2.461   2.248  0.1992  0.3815 -1.3696
  244MOL0     H32890   6.627   2.319   2.320 -2.3179 -0.0046 -1.3461
  244MOL0     H32891   6.641   2.603   2.474 -0.2617 -0.5055 -0.2400
  244MOL0     H32892   6.850   2.612   2.655 -1.1918  0.5911  0.7205
  244MOL0     H32893   6.999   2.647   2.580  1.1315  0.5759 -3.4151
  244MOL0     H32894   6.883   2.871   2.490  4.5797  0.2822  0.6385
  244MOL0     H32895   6.757   2.805   2.603  0.8040 -2.8129  1.9486
  244MOL0     H32896   7.039   2.888   2.674 -0.4468  0.6704  0.2388
  244MOL0     H32897   6.926   2.826   2.792  1.4080  0.5746  0.4394
  244MOL0     H32898   6.902   3.100   2.637 -1.2461 -3.3740 -2.5019
  244MOL0     H32899   6.954   3.076   2.796  1.7345  3.2350 -2.3943
  244MOL0     H32900   6.779   3.087   2.470 -1.3567  0.8227 -2.7557
  244MOL0     H32901   6.608   3.199   2.346 -3.5507 -0.0781 -0.4290
  244MOL0     H32902   6.199   3.476   2.375  0.7932 -1.7068 -1.2458
  244MOL0     H32903   6.005   3.589   2.266 -2.5738 -0.6267  0.0146
  244MOL0     H32904   5.630   3.360   2.190  0.1191 -1.1404  1.9369
  244MOL0     H32905   5.670   3.429   2.353 -1.6742 -1.8850 -0.5152
  244MOL0     H32906   5.570   3.606   2.122 -1.3373 -1.9265  0.1573
  244MOL0     H32907   5.468   3.543   2.253 -0.2212 -1.5361 -2.5165
  244MOL0     H32908   5.609   3.635   2.445  0.0211  0.0630  0.0430
  244MOL0     H32909   5.723   3.698   2.325 -0.5734 -0.6441 -0.0895
  244MOL0     H32910   5.454   3.788   2.402 -0.3687 -0.2483 -0.6052
  244MOL0     H32911   5.517   3.829   2.238  4.3752 -3.0865 -1.9186
  244MOL0     H32912   5.565   4.008   2.408  0.7295 -0.1952 -3.5014
  244MOL0     H32913   5.726   3.929   2.385  0.7713 -0.3596 -0.9253
  244MOL0     H32914   5.550   3.857   2.627 -0.2649  0.4433 -0.7686
  244MOL0     H32915   5.681   3.767   2.572  3.3415  0.2724 -1.4994
  244MOL0     H32916   5.728   3.940   2.743 -1.1676 -1.1138 -0.1075
  244MOL0     H32917   5.733   4.060   2.605 -0.0516 -0.5007 -0.3678
  244MOL0     H32918   5.922   3.823   2.603 -0.7666 -1.8468  1.2505
  244MOL0     H32919   5.921   3.963   2.503  2.1232  1.1461  0.2872
  244MOL0     H32920   5.804   3.216   2.277 -0.9279  2.0052 -2.7743
  244MOL0     H32921   6.005   3.108   2.386 -3.6509 -0.9668 -2.1330
  244MOL0     H32922   6.332   3.162   2.673 -0.9168 -1.0514 -1.5868
  244MOL0     H32923   6.508   3.050   2.808  1.2222 -3.0538 -0.8793
  244MOL0     H32924   6.445   2.756   1.206  1.1832 -0.0740  0.9229
  244MOL0     H32925   6.275   2.915   1.107  4.5976 -1.9069 -1.8643
  244MOL0     H32926   6.041   3.182   0.852  1.4477  1.1087 -0.8174
  244MOL0     H32927   5.828   3.295   0.797 -1.0690  2.0817  0.2586
  244MOL0     H32928   5.585   3.285   1.089 -0.7564 -2.7772 -1.5151
  244MOL0     H32929   5.534   3.261   0.924  3.9652 -1.0980 -1.1668
  244MOL0     H32930   5.356   3.338   1.054  0.6085  1.1065  3.1954
  244MOL0     H32931   5.383   3.457   0.932 -0.2271 -1.7397 -1.6787
  244MOL0     H32932   5.491   3.482   1.228  0.5708 -0.1660 -0.3634
  244MOL0     H32933   5.341   3.544   1.172 -0.0523 -2.2277 -0.7105
  244MOL0     H32934   5.607   3.644   1.085 -0.5702 -0.5246 -3.6703
  244MOL0     H32935   5.478   3.659   0.973 -0.3653  0.0958  0.1418
  244MOL0     H32936   5.360   3.954   1.253 -1.6746  0.6316 -2.4829
  244MOL0     H32937   5.766   3.431   1.190  0.7837 -1.2089  1.6955
  244MOL0     H32938   6.079   3.353   1.339 -0.6130  3.0997 -1.3435
  244MOL0     H32939   5.909   3.376   1.375  0.7348  1.2838  0.4889
  244MOL0     H32940   5.969   3.215   1.338  0.8520  0.6095  0.3693
  245MOL0     O32941   8.911   3.353   4.237 -0.2694 -0.0919 -0.1257
  245MOL0     C32942   9.009   3.362   4.159  1.3798  0.8125  0.0515
  245MOL0     O32943   9.104   3.447   4.173  0.0330  0.8148  0.0139
  245MOL0     C32944   9.090   3.557   4.257  0.1777 -0.3008 -0.3276
  245MOL0     C32945   9.059   3.685   4.199  0.0805 -0.3847 -0.5417
  245MOL0     C32946   9.040   3.795   4.282 -0.2181  0.4025 -0.0234
  245MOL0     C32947   9.065   3.793   4.420  0.6289 -0.8471 -0.3439
  245MOL0     O32948   9.057   3.911   4.485  0.3890  0.6402 -0.4075
  245MOL0     C32949   9.102   3.924   4.619  0.5806 -0.1431  0.9331
  245MOL0     C32950   9.142   4.065   4.659 -0.7965 -1.1518  0.1487
  245MOL0     C32951   9.252   4.131   4.571  0.6416  0.0555  0.0317
  245MOL0     C32952   9.244   4.283   4.580  0.1597  0.6100 -0.9537
  245MOL0     C32953   9.261   4.328   4.726 -0.2222  0.0459  0.4757
  245MOL0     C32954   9.276   4.480   4.713  0.6218 -0.2213 -0.0033
  245MOL0     C32955   9.412   4.531   4.665 -0.2298 -0.2822  0.2155
  245MOL0     C32956   9.414   4.681   4.636  0.3089  0.0538  0.0519
  245MOL0     N32957   9.305   4.727   4.558  0.3482  1.1470  0.3410
  245MOL0     C32958   9.199   4.787   4.606  0.9485 -0.5062  0.2297
  245MOL0     C32959   9.144   4.854   4.495 -0.0944  0.8448 -0.6109
  245MOL0     C32960   9.021   4.938   4.505  0.0010 -0.3337  0.3767
  245MOL0     C32961   9.061   5.077   4.570 -0.2963  0.0718 -0.3987
  245MOL0     C32962   8.930   5.159   4.577 -1.5631 -0.2600  0.7968
  245MOL0     C32963   8.974   5.291   4.647 -0.4031  0.3512 -0.3998
  245MOL0     O32964   8.876   5.309   4.753  0.3442  1.1131 -0.2901
  245MOL0     C32965   8.916   5.306   4.880  0.2056 -0.5095 -0.5437
  245MOL0     C32966   8.816   5.284   4.970 -0.6703 -1.2219 -0.4766
  245MOL0     C32967   8.842   5.298   5.100  0.9222 -0.2531 -0.1879
  245MOL0     C32968   8.956   5.350   5.155 -0.3468 -0.7684  0.0218
  245MOL0     C32969   8.963   5.382   5.302 -0.1125 -0.0452 -0.1907
  245MOL0     O32970   8.867   5.345   5.386 -0.0045 -0.2944  0.4425
  245MOL0     C32971   8.864   5.378   5.516 -0.0564 -0.1857  0.5446
  245MOL0     C32972   8.918   5.503   5.572  0.0108  0.2718  0.6335
  245MOL0     C32973   8.903   5.533   5.710  0.8424  0.0606  0.3709
  245MOL0     C32974   8.854   5.435   5.800 -0.8473 -0.1746  0.3278
  245MOL0     O32975   8.875   5.458   5.936  0.6236  0.5304  0.1808
  245MOL0     C32976   8.741   5.475   5.995  0.2840  0.1477  0.6036
  245MOL0     C32977   8.747   5.576   6.104  0.4081  0.0372  0.1063
  245MOL0     C32978   8.609   5.631   6.144 -0.1311 -0.9701  0.4154
  245MOL0     C32979   8.609   5.783   6.176 -1.1724 -0.5789  0.9737
  245MOL0     C32980   8.483   5.831   6.246  0.7928 -0.0701 -0.9375
  245MOL0     C32981   8.353   5.809   6.169 -0.0567  0.4548 -0.4014
  245MOL0     C32982   8.354   5.869   6.028 -0.4641 -0.4484 -0.8198
  245MOL0     C32983   8.214   5.871   5.968 -0.2959  0.3406 -0.2687
  245MOL0    Cl32984   8.105   5.978   6.054  0.1665 -0.0539 -0.4342
  245MOL0     C32985   8.810   5.310   5.750 -0.3361 -0.3399  0.6036
  245MOL0     C32986   8.805   5.295   5.606  1.1709 -0.1167 -0.1312
  245MOL0     O32987   9.074   5.427   5.328  0.1557 -0.8099 -0.3637
  245MOL0     C32988   9.064   5.364   5.062 -0.1978 -0.1388  0.2790
  245MOL0     C32989   9.040   5.356   4.926 -1.5513  0.4690  0.3410
  245MOL0     N32990   9.218   4.832   4.380 -0.4058 -0.1607 -0.2464
  245MOL0     N32991   9.320   4.758   4.422 -0.4543  0.5322  0.4604
  245MOL0     C32992   9.111   3.672   4.478  0.2978 -0.6916 -0.1560
  245MOL0     C32993   9.115   3.557   4.394 -0.6867 -0.4700  0.5215
  245MOL0     C32994   9.026   3.272   4.039 -0.1620 -0.1826 -0.1081
  245MOL0     C32995   9.093   3.312   3.919 -0.4190  0.0069 -0.4364
  245MOL0     C32996   9.109   3.235   3.810  1.3164 -0.3647  0.6702
  245MOL0     C32997   9.049   3.106   3.797  0.1019 -0.0381 -0.1626
  245MOL0     O32998   9.078   3.020   3.696 -0.3751  0.2535 -0.5100
  245MOL0     C32999   9.155   3.061   3.574  0.3028  1.1892 -0.2886
  245MOL0     C33000   9.070   3.122   3.459 -0.4927 -0.9147 -0.4013
  245MOL0     C33001   9.164   3.191   3.354 -0.1244  0.5857 -1.2907
  245MOL0     C33002   9.091   3.243   3.237  0.3939 -0.1075  1.0090
  245MOL0     C33003   9.181   3.325   3.154  0.4980  0.0797  0.7831
  245MOL0     C33004   9.253   3.387   3.070 -0.7741  0.3318  0.3167
  245MOL0     C33005   8.980   3.075   3.914  0.1197 -0.1899 -0.4162
  245MOL0     C33006   8.970   3.144   4.034 -0.3387 -0.6199  0.4143
  245MOL0     C33007   8.902   3.065   4.151  0.0872 -0.3817 -0.2123
  245MOL0     H33008   9.047   3.692   4.092  0.3980 -1.1439 -0.6380
  245MOL0     H33009   9.012   3.896   4.256 -0.2108  0.8937  1.7572
  245MOL0     H33010   9.028   3.882   4.688  1.6659 -0.0668  2.2003
  245MOL0     H33011   9.192   3.864   4.636  0.3035  0.0743  3.7607
  245MOL0     H33012   9.170   4.065   4.765 -4.8883  1.2545  1.4401
  245MOL0     H33013   9.049   4.122   4.656 -0.7633 -1.1479 -0.8222
  245MOL0     H33014   9.227   4.102   4.468 -1.1839  1.1908  0.1110
  245MOL0     H33015   9.350   4.091   4.600  0.0786  0.0402  2.0296
  245MOL0     H33016   9.305   4.322   4.498 -0.4259  4.1008  0.1094
  245MOL0     H33017   9.140   4.302   4.553 -0.6518 -2.2672 -0.2638
  245MOL0     H33018   9.174   4.310   4.790  0.6144  3.8998  3.0491
  245MOL0     H33019   9.352   4.282   4.764  1.0024  1.9346 -0.0376
  245MOL0     H33020   9.206   4.512   4.637  2.5243  1.5039 -1.1277
  245MOL0     H33021   9.260   4.528   4.810 -0.4927 -2.9800  1.2890
  245MOL0     H33022   9.445   4.484   4.572  1.7401  0.2136  0.6067
  245MOL0     H33023   9.487   4.508   4.742  0.9287  0.1482 -0.7573
  245MOL0     H33024   9.431   4.739   4.728  1.8531 -0.1167 -0.0934
  245MOL0     H33025   9.505   4.709   4.583 -0.4593  2.4803 -0.0914
  245MOL0     H33026   9.166   4.797   4.709  0.3030 -3.7463  0.4369
  245MOL0     H33027   8.981   4.966   4.407  0.7863 -0.0096  0.1407
  245MOL0     H33028   8.950   4.879   4.563 -1.3977  1.8241  0.9705
  245MOL0     H33029   9.116   5.065   4.664  2.0632  0.2370 -1.6626
  245MOL0     H33030   9.136   5.129   4.510  1.4167 -0.0113  1.5611
  245MOL0     H33031   8.848   5.113   4.632 -1.9511  0.1631  0.5770
  245MOL0     H33032   8.889   5.183   4.479  1.8535  2.2184 -0.2285
  245MOL0     H33033   8.979   5.383   4.588  3.2612  2.4079  2.6892
  245MOL0     H33034   9.081   5.287   4.671 -0.6459 -1.3120  0.5867
  245MOL0     H33035   8.713   5.262   4.943 -0.9993 -2.0924  1.3676
  245MOL0     H33036   8.760   5.272   5.166 -1.6507  1.5324 -2.4566
  245MOL0     H33037   8.973   5.576   5.512  1.9158 -1.5673  0.0228
  245MOL0     H33038   8.922   5.629   5.756 -2.0099 -0.2244  2.4535
  245MOL0     H33039   8.677   5.517   5.917  3.7369 -0.7208 -3.0442
  245MOL0     H33040   8.707   5.380   6.035  2.6086 -0.0082  2.4871
  245MOL0     H33041   8.806   5.530   6.183  1.7554  1.5022 -0.0040
  245MOL0     H33042   8.809   5.659   6.071  0.4614 -0.2155 -0.4519
  245MOL0     H33043   8.543   5.608   6.060 -0.6382  1.4030  0.0839
  245MOL0     H33044   8.565   5.578   6.230 -0.4272  0.1838  1.0024
  245MOL0     H33045   8.621   5.847   6.089 -1.1259 -1.5478  0.2512
  245MOL0     H33046   8.695   5.803   6.241  0.1691 -3.3372  0.1811
  245MOL0     H33047   8.505   5.936   6.267 -0.5808 -0.2281  1.8155
  245MOL0     H33048   8.469   5.767   6.333 -0.4275 -2.5094 -2.7887
  245MOL0     H33049   8.339   5.701   6.163  1.7603 -0.0436  2.3578
  245MOL0     H33050   8.286   5.860   6.238  3.1898  1.8509  1.9894
  245MOL0     H33051   8.424   5.807   5.972  0.4135 -0.2465  0.0190
  245MOL0     H33052   8.394   5.971   6.030 -2.0047  0.1597  0.1254
  245MOL0     H33053   8.220   5.898   5.862  1.6164 -0.6513 -0.4542
  245MOL0     H33054   8.170   5.771   5.966 -2.8068  1.3560 -1.9483
  245MOL0     H33055   8.772   5.235   5.819  0.4330 -1.6512 -0.3440
  245MOL0     H33056   8.774   5.209   5.547 -2.5608 -1.2857  3.0431
  245MOL0     H33057   9.166   5.375   5.097 -1.0378 -2.6866  4.2887
  245MOL0     H33058   9.117   5.375   4.852 -2.2125  1.5543 -0.0892
  245MOL0     H33059   9.137   3.661   4.583 -2.5593  0.4317  0.7749
  245MOL0     H33060   9.124   3.465   4.451 -0.0339  0.2505  1.6107
  245MOL0     H33061   9.148   3.405   3.927 -1.5825  0.8263 -1.7651
  245MOL0     H33062   9.161   3.284   3.728 -0.4683  0.3072 -0.1087
  245MOL0     H33063   9.202   2.971   3.533 -3.6846 -1.3496  0.1819
  245MOL0     H33064   9.232   3.128   3.613  0.2824  1.1155 -0.1225
  245MOL0     H33065   8.994   3.191   3.497  2.1603  3.0795 -1.6775
  245MOL0     H33066   9.013   3.040   3.415 -2.5447  0.8608 -1.2705
  245MOL0     H33067   9.232   3.108   3.330 -2.4796 -1.7807 -0.2819
  245MOL0     H33068   9.220   3.275   3.395  2.8045 -2.2586  1.0479
  245MOL0     H33069   9.037   3.166   3.181  1.6566 -0.1990 -0.1575
  245MOL0     H33070   9.013   3.310   3.274 -2.0286 -3.2884  2.0659
  245MOL0     H33071   9.300   3.446   2.994  0.7318 -1.3676 -0.1466
  245MOL0     H33072   8.926   2.982   3.922 -0.1901  0.1240  2.1413
  245MOL0     H33073   8.930   3.096   4.252 -3.5572  3.5402 -0.1085
  245MOL0     H33074   8.793   3.076   4.158  0.1362 -0.9541  3.6622
  245MOL0     H33075   8.927   2.959   4.143 -0.6653 -0.4793 -1.6539
  246MOL0     O33076   8.637   0.588   2.477 -0.0632  0.3379  0.0935
  246MOL0     C33077   8.574   0.656   2.551 -0.5023 -0.7220  0.7503
  246MOL0     O33078   8.458   0.623   2.608  0.4501  0.7105  0.5182
  246MOL0     C33079   8.401   0.500   2.598 -0.3824  0.0519 -0.2108
  246MOL0     C33080   8.260   0.484   2.554  0.5218 -0.0399 -0.3017
  246MOL0     C33081   8.202   0.356   2.552 -0.2662  0.3518 -0.6453
  246MOL0     C33082   8.281   0.243   2.584  0.0896  0.2023  0.8545
  246MOL0     O33083   8.218   0.120   2.600 -0.2480  0.2696  0.1006
  246MOL0     C33084   8.212   0.039   2.478  0.0188  0.9720  0.2085
  246MOL0     C33085   8.240  -0.117   2.507 -0.5100  1.1522 -0.3439
  246MOL0     C33086   8.380  -0.159   2.474  0.6056 -0.3325 -0.2216
  246MOL0     C33087   8.503  -0.075   2.519 -0.2968  0.1287 -0.2350
  246MOL0     C33088   8.630  -0.126   2.454  0.0917 -0.1440  0.0159
  246MOL0     C33089   8.757  -0.044   2.491 -0.0842 -0.6956  0.1791
  246MOL0     C33090   8.755   0.086   2.405  0.1166 -0.6812 -0.3415
  246MOL0     C33091   8.886   0.159   2.396  0.5194  0.5208  0.1320
  246MOL0     N33092   8.878   0.263   2.291  0.3263  0.6345  0.2633
  246MOL0     C33093   8.863   0.399   2.313 -0.3140 -0.1292 -0.1956
  246MOL0     C33094   8.876   0.454   2.189  0.7450  0.3936 -0.2730
  246MOL0     C33095   8.853   0.599   2.175  0.1150 -0.0629  0.8705
  246MOL0     C33096   8.989   0.670   2.151  0.1988 -0.6445 -0.3714
  246MOL0     C33097   9.065   0.715   2.285 -0.1646  0.4116 -0.1097
  246MOL0     C33098   9.206   0.753   2.241 -0.2877  0.2896  0.0272
  246MOL0     O33099   9.302   0.750   2.353 -0.3367  0.1045  0.7683
  246MOL0     C33100   9.291   0.855   2.445 -1.0114 -0.0873  0.0197
  246MOL0     C33101   9.266   0.820   2.581 -0.4891  0.8707  0.3469
  246MOL0     C33102   9.240   0.916   2.681  0.0054  0.3607  0.4499
  246MOL0     C33103   9.225   1.047   2.631 -0.2798  0.4656 -0.2341
  246MOL0     C33104   9.185   1.156   2.720 -0.6289 -0.2382 -0.4924
  246MOL0     O33105   9.175   1.118   2.855 -0.1071  0.0844 -0.2245
  246MOL0     C33106   9.143   1.205   2.958 -0.3292  1.5850  0.7679
  246MOL0     C33107   9.026   1.280   2.958  0.9405  0.0420 -1.5799
  246MOL0     C33108   8.989   1.346   3.078  0.6977 -0.0361  0.1121
  246MOL0     C33109   9.067   1.352   3.194 -0.1077  0.1206 -0.6029
  246MOL0     O33110   9.002   1.399   3.308 -0.8233 -0.3705 -0.0036
  246MOL0     C33111   9.098   1.452   3.407 -0.6084 -1.1987  0.6149
  246MOL0     C33112   9.100   1.361   3.530 -1.0050 -0.5844 -0.9202
  246MOL0     C33113   9.203   1.391   3.642 -0.8670  0.0511 -0.8871
  246MOL0     C33114   9.333   1.310   3.629  0.4258 -0.0178  0.0801
  246MOL0     C33115   9.453   1.335   3.721  0.4502  0.4694 -1.9613
  246MOL0     C33116   9.548   1.453   3.698  0.2597  0.1754  0.4373
  246MOL0     C33117   9.664   1.395   3.612 -0.0544  0.1889 -0.6401
  246MOL0     C33118   9.796   1.473   3.626  0.2602  0.9502  0.6277
  246MOL0    Cl33119   9.783   1.649   3.579  0.3410 -0.0098  0.3673
  246MOL0     C33120   9.195   1.282   3.185  0.2159 -1.2692 -0.0496
  246MOL0     C33121   9.230   1.202   3.070  0.1072  0.1756  0.7455
  246MOL0     O33122   9.166   1.280   2.687 -0.4878 -0.5679  0.3881
  246MOL0     C33123   9.235   1.080   2.498  0.3500  0.4417 -0.1966
  246MOL0     C33124   9.268   0.985   2.404 -0.7786  0.5743 -0.7271
  246MOL0     N33125   8.907   0.353   2.093 -0.1886  0.1853 -0.4611
  246MOL0     N33126   8.901   0.241   2.155  1.1872 -0.0302  0.6025
  246MOL0     C33127   8.419   0.257   2.617 -0.3356 -0.5586 -0.9532
  246MOL0     C33128   8.472   0.385   2.633 -0.7508  0.4346 -0.6065
  246MOL0     C33129   8.614   0.806   2.552 -0.6813  0.5925  0.0862
  246MOL0     C33130   8.747   0.838   2.516  0.1450  0.2605  0.3575
  246MOL0     C33131   8.797   0.965   2.527 -0.2645  0.2648  0.1935
  246MOL0     C33132   8.706   1.067   2.560 -0.4650  0.3246 -0.6839
  246MOL0     O33133   8.745   1.197   2.576 -0.2160 -0.3763 -0.0195
  246MOL0     C33134   8.870   1.247   2.522 -0.5395  0.5038  0.2741
  246MOL0     C33135   8.903   1.393   2.545  0.5597  0.6871  0.1312
  246MOL0     C33136   9.000   1.450   2.446 -0.6719  0.3328  0.6757
  246MOL0     C33137   9.074   1.570   2.506  0.5774 -0.8362  0.2870
  246MOL0     C33138   9.178   1.609   2.410  0.2818 -0.0897  0.3368
  246MOL0     C33139   9.270   1.642   2.337  0.6634  0.1925  0.1313
  246MOL0     C33140   8.572   1.036   2.596 -0.1695 -0.1038  0.4899
  246MOL0     C33141   8.527   0.908   2.598 -0.3511  0.6320  0.3960
  246MOL0     C33142   8.382   0.886   2.649 -0.3546 -0.2583 -0.2780
  246MOL0     H33143   8.201   0.575   2.544  1.8577  1.2081  2.2543
  246MOL0     H33144   8.103   0.347   2.510 -0.1062 -1.1119 -0.7700
  246MOL0     H33145   8.113   0.051   2.433  0.4067  3.1854 -0.1650
  246MOL0     H33146   8.290   0.077   2.411  2.9997 -1.5916  1.9760
  246MOL0     H33147   8.174  -0.177   2.444  3.7086 -2.0265 -2.2314
  246MOL0     H33148   8.237  -0.137   2.614 -0.3857 -0.9083 -0.6762
  246MOL0     H33149   8.381  -0.176   2.366  0.4204  0.9675 -0.4366
  246MOL0     H33150   8.393  -0.254   2.526  3.1286 -0.4024 -0.8339
  246MOL0     H33151   8.485   0.032   2.500 -3.6295 -0.0413  1.1702
  246MOL0     H33152   8.511  -0.071   2.628 -0.0233 -0.3994 -0.2331
  246MOL0     H33153   8.642  -0.232   2.480  1.2787  0.1183  0.6204
  246MOL0     H33154   8.617  -0.135   2.346 -0.6898 -3.3562  0.2758
  246MOL0     H33155   8.780  -0.015   2.595 -1.8255  0.8019  0.1904
  246MOL0     H33156   8.836  -0.114   2.462 -0.5019 -1.6430  1.2507
  246MOL0     H33157   8.688   0.162   2.449  0.1899  0.2949 -1.8624
  246MOL0     H33158   8.731   0.054   2.303  0.5342  0.0243 -0.6677
  246MOL0     H33159   8.913   0.198   2.495 -0.3229 -1.0988  1.0412
  246MOL0     H33160   8.963   0.088   2.364  2.1428  2.6839 -1.0748
  246MOL0     H33161   8.837   0.441   2.409 -2.5391 -0.2994 -0.6678
  246MOL0     H33162   8.783   0.627   2.096  3.3840  0.2839 -2.1668
  246MOL0     H33163   8.821   0.649   2.267  0.4852  2.2266 -0.1738
  246MOL0     H33164   9.049   0.610   2.082  0.6117  0.8394 -1.3389
  246MOL0     H33165   8.967   0.764   2.099  4.0156  0.2374 -0.6738
  246MOL0     H33166   9.073   0.627   2.349 -1.2779 -0.6769 -1.4245
  246MOL0     H33167   9.019   0.803   2.331 -0.0242 -0.9998  2.9751
  246MOL0     H33168   9.205   0.849   2.187  1.2338 -0.3846 -1.2840
  246MOL0     H33169   9.243   0.677   2.171  3.5819  0.6894  1.4514
  246MOL0     H33170   9.274   0.712   2.589 -0.4313  0.8282 -0.2553
  246MOL0     H33171   9.215   0.885   2.782  0.8925  2.8819  1.5311
  246MOL0     H33172   8.970   1.277   2.865  1.9901 -1.0834 -2.1968
  246MOL0     H33173   8.891   1.391   3.066  0.0332 -1.9036 -2.4735
  246MOL0     H33174   9.195   1.480   3.366 -1.5101  2.2024  0.5204
  246MOL0     H33175   9.057   1.543   3.451 -0.4314  0.0982 -1.7510
  246MOL0     H33176   8.999   1.363   3.572 -0.0588  0.2893  1.4685
  246MOL0     H33177   9.133   1.261   3.499 -1.1136 -0.9189  0.0168
  246MOL0     H33178   9.221   1.499   3.635 -1.2339  0.1327 -0.6329
  246MOL0     H33179   9.161   1.364   3.740 -0.2268  3.2363  0.4071
  246MOL0     H33180   9.360   1.326   3.525 -2.6716  2.9133 -0.4615
  246MOL0     H33181   9.305   1.207   3.654 -0.1087  0.3090  0.8919
  246MOL0     H33182   9.513   1.245   3.735  0.0619 -0.0488 -3.4342
  246MOL0     H33183   9.408   1.336   3.821  0.0124 -1.6470 -2.0890
  246MOL0     H33184   9.499   1.542   3.658 -1.9555 -0.0882  2.3212
  246MOL0     H33185   9.607   1.480   3.786  1.5259  1.3017 -0.7266
  246MOL0     H33186   9.634   1.409   3.507 -0.5274  0.1247 -0.5170
  246MOL0     H33187   9.681   1.288   3.625 -0.2030  0.3534  1.2142
  246MOL0     H33188   9.857   1.467   3.716  5.3707  4.9752 -2.0118
  246MOL0     H33189   9.864   1.443   3.545 -0.2466  1.2276  0.0984
  246MOL0     H33190   9.238   1.274   3.285 -0.0488 -1.3392  0.0589
  246MOL0     H33191   9.313   1.133   3.084  0.3697  0.6570  1.6967
  246MOL0     H33192   9.213   1.179   2.459 -1.1746 -0.4673 -1.8328
  246MOL0     H33193   9.281   1.018   2.301  2.5384 -2.9423 -1.6989
  246MOL0     H33194   8.469   0.166   2.649 -2.6710 -1.3998  0.4820
  246MOL0     H33195   8.569   0.395   2.680  0.0821 -0.8464 -1.9639
  246MOL0     H33196   8.822   0.770   2.476  1.2729  3.0147 -2.6150
  246MOL0     H33197   8.903   0.988   2.521 -0.2624  0.4781  0.8591
  246MOL0     H33198   8.862   1.234   2.413 -0.5319 -1.2557  0.4551
  246MOL0     H33199   8.955   1.184   2.549 -0.6200 -0.7506 -2.0841
  246MOL0     H33200   8.920   1.411   2.651 -2.8021  0.7173  0.7654
  246MOL0     H33201   8.815   1.456   2.530 -1.0849 -1.6588 -0.9375
  246MOL0     H33202   8.944   1.486   2.359 -1.9224 -2.4833  0.1856
  246MOL0     H33203   9.062   1.367   2.408 -3.1669 -1.0084 -0.7351
  246MOL0     H33204   9.001   1.651   2.517  0.7550 -0.4722 -1.1271
  246MOL0     H33205   9.128   1.549   2.599  2.3341  1.0809 -0.2318
  246MOL0     H33206   9.346   1.665   2.265  0.3503  3.0081  0.6100
  246MOL0     H33207   8.512   1.123   2.620 -2.7728 -2.0158  1.3237
  246MOL0     H33208   8.322   0.976   2.662  1.0863  0.9067 -1.3428
  246MOL0     H33209   8.326   0.829   2.573 -2.9612  1.2325  0.4033
  246MOL0     H33210   8.382   0.830   2.743 -0.1856  0.6156  0.2553
  247MOL0     O33211   8.457   1.370   5.178  0.0605  0.5757  0.5864
  247MOL0     C33212   8.474   1.259   5.232  0.2317 -0.1176  0.3327
  247MOL0     O33213   8.423   1.219   5.344  0.8207 -0.0935 -0.0172
  247MOL0     C33214   8.319   1.291   5.402  0.8381  0.6225  0.4403
  247MOL0     C33215   8.186   1.244   5.417  0.4638  0.3792 -0.5949
  247MOL0     C33216   8.079   1.320   5.469 -0.0096 -0.3198  0.1916
  247MOL0     C33217   8.110   1.453   5.524  0.4738 -0.6112  0.7319
  247MOL0     O33218   8.020   1.537   5.589  0.4647  0.6186  0.3383
  247MOL0     C33219   7.878   1.509   5.579 -0.0061  1.5258 -0.4627
  247MOL0     C33220   7.793   1.618   5.631 -0.8012 -0.0384 -0.3090
  247MOL0     C33221   7.819   1.646   5.783 -0.4054 -0.3310  0.0320
  247MOL0     C33222   7.700   1.707   5.849  0.0765  0.2460 -0.3897
  247MOL0     C33223   7.592   1.605   5.888  0.5531 -0.9249 -0.2839
  247MOL0     C33224   7.454   1.677   5.920  0.4824 -0.2054 -0.1872
  247MOL0     C33225   7.450   1.779   6.033 -1.2298 -0.6006 -0.2139
  247MOL0     C33226   7.499   1.725   6.166  0.2829  0.5310  0.4880
  247MOL0     N33227   7.485   1.831   6.271  0.1321  0.3845  0.1426
  247MOL0     C33228   7.566   1.945   6.277  0.4558  0.3490 -0.7636
  247MOL0     C33229   7.515   2.020   6.374 -0.2572  0.0089  0.5090
  247MOL0     C33230   7.546   2.169   6.387  0.6302  0.0662  0.2016
  247MOL0     C33231   7.468   2.235   6.513 -0.1212  0.5720  0.6188
  247MOL0     C33232   7.565   2.224   6.635  0.6635 -0.0113  0.3704
  247MOL0     C33233   7.489   2.282   6.751  0.4398 -0.3316 -0.2412
  247MOL0     O33234   7.573   2.286   6.870 -0.3036  1.2842 -0.0554
  247MOL0     C33235   7.517   2.349   6.983 -0.7835 -0.3525 -0.0813
  247MOL0     C33236   7.602   2.359   7.095  0.3725 -0.8406  0.5788
  247MOL0     C33237   7.541   2.386   7.219 -0.1043  0.4484  0.3157
  247MOL0     C33238   7.408   2.426   7.237 -0.0702  0.2584  0.1355
  247MOL0     C33239   7.338   2.470   7.367 -0.6544 -0.0254 -0.4307
  247MOL0     O33240   7.218   2.532   7.352 -0.9196  0.1905 -0.4698
  247MOL0     C33241   7.137   2.545   7.457 -0.6182 -0.5203 -0.2611
  247MOL0     C33242   7.109   2.445   7.550  0.5225 -0.7263  1.1887
  247MOL0     C33243   7.032   2.477   7.659  0.0069 -0.9420  0.3411
  247MOL0     C33244   6.964   2.601   7.670  0.0477  1.2720  0.2373
  247MOL0     O33245   6.874   2.627   7.768  0.9022  0.5408 -0.1237
  247MOL0     C33246   6.804   2.513   7.820 -0.2631 -0.1918 -1.0803
  247MOL0     C33247   6.693   2.551   7.915 -0.6278 -0.4171 -0.3616
  247MOL0     C33248   6.745   2.620   8.045 -0.3763 -0.2605  0.7212
  247MOL0     C33249   6.633   2.633   8.145  0.1413 -0.3989  0.7725
  247MOL0     C33250   6.690   2.682   8.277  0.5851  0.4382 -0.0175
  247MOL0     C33251   6.595   2.681   8.394 -0.5996  0.8588  0.7489
  247MOL0     C33252   6.458   2.730   8.351  0.2045 -0.0941 -0.3577
  247MOL0     C33253   6.362   2.726   8.470  0.8261  0.6281  1.1149
  247MOL0    Cl33254   6.198   2.800   8.452  0.3207  0.6047  0.2921
  247MOL0     C33255   7.001   2.697   7.578  0.0742  0.0556 -0.0760
  247MOL0     C33256   7.084   2.671   7.472 -0.3399 -0.5424 -0.7991
  247MOL0     O33257   7.402   2.436   7.466 -0.0266 -0.3180 -1.7416
  247MOL0     C33258   7.326   2.426   7.123 -0.3515  0.8029  0.7246
  247MOL0     C33259   7.384   2.384   7.003  0.7245  1.0843  0.4625
  247MOL0     N33260   7.411   1.941   6.430  0.1245  0.2074 -0.6118
  247MOL0     N33261   7.398   1.830   6.369  0.0796 -0.0259  0.0329
  247MOL0     C33262   8.240   1.500   5.516 -0.0218 -0.0092  0.1164
  247MOL0     C33263   8.341   1.423   5.455 -0.7581 -0.2556  2.0155
  247MOL0     C33264   8.579   1.179   5.163 -1.1807  0.0248 -0.5326
  247MOL0     C33265   8.545   1.093   5.056 -0.4667 -0.0066  0.3460
  247MOL0     C33266   8.643   1.014   4.990  0.2636  0.3306 -0.6482
  247MOL0     C33267   8.770   1.010   5.041 -0.3411  0.0019 -0.0769
  247MOL0     O33268   8.878   0.951   4.979 -0.2150 -0.0039 -0.1621
  247MOL0     C33269   8.873   0.807   4.963 -0.1610 -0.6717 -1.2918
  247MOL0     C33270   8.921   0.757   4.826 -0.3397 -0.9843  0.9097
  247MOL0     C33271   8.918   0.606   4.817 -0.3531 -0.5950  0.0397
  247MOL0     C33272   8.988   0.563   4.696 -0.4582  0.1273 -1.4488
  247MOL0     C33273   8.925   0.601   4.575 -0.6143  0.1291 -0.0159
  247MOL0     C33274   8.870   0.612   4.470  0.7158  0.5425  0.1833
  247MOL0     C33275   8.807   1.100   5.137  0.6258 -0.1496 -0.0908
  247MOL0     C33276   8.713   1.177   5.205  0.9207 -1.0420  0.7423
  247MOL0     C33277   8.772   1.279   5.302  0.0126 -0.8198 -0.0237
  247MOL0     H33278   8.171   1.139   5.396  0.9209  0.8218 -3.5031
  247MOL0     H33279   7.981   1.275   5.478 -0.2391  0.4953  2.6072
  247MOL0     H33280   7.855   1.497   5.473  0.8820 -0.2288 -0.4935
  247MOL0     H33281   7.838   1.429   5.641 -1.2650  2.5325  0.0787
  247MOL0     H33282   7.689   1.583   5.622 -0.3953 -0.8731 -2.3609
  247MOL0     H33283   7.804   1.711   5.574  1.2958 -0.2936 -0.3949
  247MOL0     H33284   7.900   1.715   5.807  0.4287 -1.4500  0.5420
  247MOL0     H33285   7.841   1.557   5.842 -2.1683 -1.1130 -0.4130
  247MOL0     H33286   7.724   1.771   5.934 -0.4567  1.3879 -1.0706
  247MOL0     H33287   7.672   1.784   5.776  2.0724 -0.6153 -2.1837
  247MOL0     H33288   7.580   1.527   5.813  0.5824 -1.5641  0.3636
  247MOL0     H33289   7.627   1.548   5.975 -0.6677 -1.1810  0.0525
  247MOL0     H33290   7.423   1.728   5.828  0.5377  2.3103  1.1130
  247MOL0     H33291   7.387   1.594   5.944  0.5103 -0.1358  0.1342
  247MOL0     H33292   7.347   1.815   6.046 -0.7797  1.2303 -1.2890
  247MOL0     H33293   7.512   1.863   6.002  1.4225 -1.9224  1.2226
  247MOL0     H33294   7.446   1.632   6.190  0.3553 -0.6016 -3.0684
  247MOL0     H33295   7.604   1.696   6.162 -0.5082 -2.7112 -0.0303
  247MOL0     H33296   7.644   1.982   6.212  3.9084 -1.1324  2.1908
  247MOL0     H33297   7.654   2.182   6.390  0.3440  3.2014  0.5543
  247MOL0     H33298   7.511   2.227   6.300 -0.3386 -0.8422 -0.0397
  247MOL0     H33299   7.456   2.344   6.502  1.5552  0.6699 -0.6290
  247MOL0     H33300   7.371   2.193   6.541  0.5643 -0.6891  1.1496
  247MOL0     H33301   7.658   2.281   6.626  1.6848 -1.6215  0.2406
  247MOL0     H33302   7.598   2.121   6.650  3.2822  0.5254 -1.1653
  247MOL0     H33303   7.396   2.228   6.770 -0.1618  0.9860  0.7235
  247MOL0     H33304   7.468   2.385   6.723 -3.7879  0.2373  3.7103
  247MOL0     H33305   7.709   2.346   7.090  0.8681  2.7043 -0.3361
  247MOL0     H33306   7.588   2.372   7.316 -3.0358  1.8696  2.0820
  247MOL0     H33307   7.152   2.346   7.541  0.2397 -1.1542  3.7819
  247MOL0     H33308   7.011   2.395   7.727 -0.0508  0.8702  2.6338
  247MOL0     H33309   6.765   2.452   7.738  0.8524  0.9092 -2.4809
  247MOL0     H33310   6.882   2.456   7.871 -0.8625  1.8497  2.4503
  247MOL0     H33311   6.620   2.614   7.863 -1.7171 -0.0947  1.4675
  247MOL0     H33312   6.642   2.458   7.940 -1.0408 -0.8270 -2.5545
  247MOL0     H33313   6.829   2.565   8.090  0.1026 -0.2559 -0.1290
  247MOL0     H33314   6.787   2.718   8.021  2.4942 -1.5676 -0.1360
  247MOL0     H33315   6.583   2.535   8.145 -2.8468  0.9672  2.4723
  247MOL0     H33316   6.566   2.709   8.102 -0.2088  0.8342  3.3016
  247MOL0     H33317   6.719   2.785   8.255 -1.8042  1.4090  1.0851
  247MOL0     H33318   6.772   2.614   8.300  0.8419  0.9158  0.5155
  247MOL0     H33319   6.580   2.580   8.434 -0.8129  1.7568  3.0733
  247MOL0     H33320   6.636   2.731   8.483  0.6760 -0.6710  1.0771
  247MOL0     H33321   6.429   2.688   8.255 -1.9575  2.2608 -0.8623
  247MOL0     H33322   6.467   2.837   8.330 -1.1180  0.2016  0.4454
  247MOL0     H33323   6.330   2.623   8.489 -1.5973  1.3027  0.9486
  247MOL0     H33324   6.404   2.768   8.562  1.0668 -1.0155  1.8046
  247MOL0     H33325   6.964   2.799   7.584  1.7061  0.8244 -1.8122
  247MOL0     H33326   7.101   2.748   7.397  1.0429  1.4090  1.3883
  247MOL0     H33327   7.221   2.452   7.125 -0.5560  0.4850 -2.1137
  247MOL0     H33328   7.315   2.349   6.926 -0.8386 -1.3260  2.7355
  247MOL0     H33329   8.257   1.599   5.558  3.5330 -0.5090  0.1803
  247MOL0     H33330   8.435   1.474   5.438 -0.1405 -1.6462  1.1057
  247MOL0     H33331   8.446   1.084   5.012 -0.6131  1.4714  0.3470
  247MOL0     H33332   8.618   0.944   4.912  1.0647  0.2142 -0.8077
  247MOL0     H33333   8.770   0.771   4.975  0.4394 -1.5340  2.9369
  247MOL0     H33334   8.927   0.747   5.037 -1.8975  0.0831  0.6962
  247MOL0     H33335   9.023   0.787   4.802  0.3445 -1.7149  2.7191
  247MOL0     H33336   8.849   0.794   4.752  2.6924  1.2183 -1.1489
  247MOL0     H33337   8.815   0.569   4.814 -0.0044 -2.1558  3.0968
  247MOL0     H33338   8.965   0.566   4.907  2.7791  1.0346 -0.7255
  247MOL0     H33339   9.093   0.592   4.704 -0.9311  1.4492  0.6563
  247MOL0     H33340   8.989   0.454   4.705 -3.4555  0.1710  1.0793
  247MOL0     H33341   8.819   0.603   4.376  0.1547 -1.9152  0.6467
  247MOL0     H33342   8.910   1.105   5.172  1.4837 -0.7650 -2.3367
  247MOL0     H33343   8.763   1.373   5.247 -2.8864 -1.2047 -0.3924
  247MOL0     H33344   8.708   1.285   5.391  1.0718 -0.7946  0.7533
  247MOL0     H33345   8.879   1.268   5.321  0.5298  0.4549 -1.9851
  248MOL0     O33346   5.006   9.453   0.338  0.1648  0.1245 -0.6500
  248MOL0     C33347   4.950   9.557   0.318 -0.6566 -0.5703  0.7464
  248MOL0     O33348   5.003   9.680   0.345  0.8735 -0.1191  1.0884
  248MOL0     C33349   5.080   9.689   0.454 -1.6421 -0.5195  0.0213
  248MOL0     C33350   5.063   9.618   0.577 -0.8180 -0.0425  0.4522
  248MOL0     C33351   5.165   9.613   0.679 -0.5654  0.2290  0.6021
  248MOL0     C33352   5.282   9.688   0.664  0.4087 -0.2250  0.7948
  248MOL0     O33353   5.376   9.650   0.753  0.8477  0.2364 -0.4413
  248MOL0     C33354   5.426   9.769   0.830  0.0129  0.6542  0.4786
  248MOL0     C33355   5.511   9.728   0.949  0.3859 -0.0699 -0.6899
  248MOL0     C33356   5.633   9.637   0.906  0.1954 -0.0939  0.8035
  248MOL0     C33357   5.722   9.694   0.791  0.3192  1.6150  0.0914
  248MOL0     C33358   5.859   9.631   0.773 -0.6612  0.2612 -0.8358
  248MOL0     C33359   5.948   9.645   0.896  0.4808 -0.3455 -0.1481
  248MOL0     C33360   6.096   9.587   0.873  1.0581 -0.2460 -0.4155
  248MOL0     C33361   6.099   9.446   0.823  0.0450 -1.4448  0.4066
  248MOL0     N33362   6.080   9.337   0.921  0.0894  0.2422 -0.4090
  248MOL0     C33363   6.141   9.210   0.918 -0.5157  0.1778  0.2155
  248MOL0     C33364   6.078   9.146   1.018 -0.2506  0.0599 -0.3967
  248MOL0     C33365   6.115   9.011   1.060  1.2250  0.4585  0.8187
  248MOL0     C33366   6.027   8.903   0.996 -0.4033  0.4205  0.6933
  248MOL0     C33367   5.881   8.914   1.025 -0.7306  0.7326  0.2134
  248MOL0     C33368   5.787   8.823   0.933  0.7870  1.2992  0.9758
  248MOL0     O33369   5.666   8.889   0.927  0.5037 -0.2221  0.0053
  248MOL0     C33370   5.557   8.822   0.878  0.4319  0.6239  0.0436
  248MOL0     C33371   5.436   8.897   0.878 -0.3554 -0.1655  0.3111
  248MOL0     C33372   5.308   8.843   0.846 -0.3516  0.8778  0.3307
  248MOL0     C33373   5.297   8.709   0.815 -0.5154 -1.0429 -0.0767
  248MOL0     C33374   5.167   8.648   0.812 -0.3186 -0.6756  0.3735
  248MOL0     O33375   5.059   8.725   0.819 -0.6800 -0.1037  0.3633
  248MOL0     C33376   4.938   8.666   0.808  0.4791 -0.0462  0.6586
  248MOL0     C33377   4.905   8.582   0.915 -0.4709  0.6954  0.5907
  248MOL0     C33378   4.768   8.535   0.933  0.0122 -0.0927  1.2207
  248MOL0     C33379   4.675   8.576   0.838  0.4491 -0.5798 -0.0200
  248MOL0     O33380   4.546   8.529   0.842  0.6319 -0.0273 -0.9548
  248MOL0     C33381   4.469   8.642   0.894  0.1187 -0.1321  0.4816
  248MOL0     C33382   4.334   8.604   0.939 -1.0878 -0.2465 -0.5858
  248MOL0     C33383   4.248   8.566   0.815  0.3673  0.1812  0.9274
  248MOL0     C33384   4.099   8.557   0.841  0.8629 -0.1581 -0.5865
  248MOL0     C33385   4.017   8.542   0.705 -0.4244  0.2175  0.0331
  248MOL0     C33386   3.864   8.547   0.738  0.3597  0.4535 -0.1286
  248MOL0     C33387   3.802   8.683   0.795  0.4371 -0.6084 -0.1351
  248MOL0     C33388   3.705   8.736   0.695 -0.0131 -0.3078 -0.2359
  248MOL0    Cl33389   3.634   8.899   0.752  0.0112  0.3231  0.0077
  248MOL0     C33390   4.716   8.651   0.722 -0.1557  0.9335 -0.6999
  248MOL0     C33391   4.848   8.701   0.702  0.5058  1.1780 -0.2521
  248MOL0     O33392   5.170   8.534   0.765  0.5992  0.0305  0.4491
  248MOL0     C33393   5.418   8.645   0.799 -0.4615  0.6312  0.8206
  248MOL0     C33394   5.545   8.688   0.835 -0.3094 -0.4102 -0.0583
  248MOL0     N33395   5.986   9.229   1.079  0.9499  0.8346  0.0746
  248MOL0     N33396   5.989   9.337   1.022  0.7827 -0.6852 -0.5418
  248MOL0     C33397   5.295   9.764   0.545 -0.1612  0.3655  0.1090
  248MOL0     C33398   5.199   9.755   0.443 -0.7198  1.1115 -0.5173
  248MOL0     C33399   4.822   9.560   0.239  0.7633  0.2760 -0.4850
  248MOL0     C33400   4.743   9.677   0.250  0.3708 -0.0587 -0.4619
  248MOL0     C33401   4.623   9.699   0.182  0.4426 -0.3522  0.4890
  248MOL0     C33402   4.597   9.608   0.072 -0.0077 -0.2031  0.0070
  248MOL0     O33403   4.504   9.647  -0.014 -0.5217 -0.0420 -0.0186
  248MOL0     C33404   4.472   9.563  -0.131  1.0071 -0.3359 -0.3370
  248MOL0     C33405   4.567   9.592  -0.247  0.0241  0.4569 -0.5682
  248MOL0     C33406   4.552   9.737  -0.309  0.0042 -0.6313  0.7453
  248MOL0     C33407   4.614   9.748  -0.453 -0.6088 -0.6719 -0.4050
  248MOL0     C33408   4.614   9.884  -0.512  0.1651 -0.9389 -0.7552
  248MOL0     C33409   4.605  10.001  -0.558 -0.4190 -0.0285  0.5175
  248MOL0     C33410   4.681   9.487   0.059  0.2191  0.4842  0.8441
  248MOL0     C33411   4.793   9.459   0.144 -0.7349 -0.5564  0.0493
  248MOL0     C33412   4.876   9.335   0.126  0.0125  0.4605 -0.4768
  248MOL0     H33413   4.977   9.555   0.596 -2.0512  0.5093 -2.7529
  248MOL0     H33414   5.161   9.563   0.776  1.5883  1.1947  1.2391
  248MOL0     H33415   5.487   9.827   0.760  1.3986 -0.9538  0.3071
  248MOL0     H33416   5.338   9.826   0.860 -2.0455 -2.1883  0.2340
  248MOL0     H33417   5.456   9.666   1.020 -0.1326  0.9583 -0.1897
  248MOL0     H33418   5.537   9.821   1.000 -0.9154 -1.4091  2.6978
  248MOL0     H33419   5.595   9.543   0.867 -0.1311  0.4635 -0.2470
  248MOL0     H33420   5.690   9.619   0.998  3.1631 -0.7460 -1.0452
  248MOL0     H33421   5.663   9.666   0.703  0.1739 -1.9404  1.1428
  248MOL0     H33422   5.739   9.800   0.812  3.7623  0.9997  1.0916
  248MOL0     H33423   5.843   9.523   0.760 -3.6764  0.4801  0.2926
  248MOL0     H33424   5.899   9.687   0.688 -1.2288 -0.5499 -1.6608
  248MOL0     H33425   5.955   9.749   0.930 -1.3657 -0.7249  1.6123
  248MOL0     H33426   5.906   9.587   0.979 -0.9533 -2.1707 -2.0436
  248MOL0     H33427   6.153   9.589   0.967 -2.8945 -2.4350  2.3452
  248MOL0     H33428   6.130   9.660   0.799  0.2826  0.6027  0.0429
  248MOL0     H33429   6.038   9.446   0.732  0.3025 -1.6700  0.2315
  248MOL0     H33430   6.203   9.426   0.796  0.6002  1.8168 -0.3349
  248MOL0     H33431   6.223   9.174   0.857 -1.8899 -0.2216 -1.4466
  248MOL0     H33432   6.213   8.988   1.016  1.3416  2.6440 -0.1775
  248MOL0     H33433   6.117   8.996   1.168  2.1005  1.5782  0.9864
  248MOL0     H33434   6.048   8.894   0.889 -2.7774 -2.2678  0.3544
  248MOL0     H33435   6.070   8.810   1.033  0.3879  0.5475  0.1094
  248MOL0     H33436   5.855   9.018   1.007  0.7316  1.4040  1.7297
  248MOL0     H33437   5.856   8.886   1.127 -3.3363 -0.3961 -0.6405
  248MOL0     H33438   5.763   8.723   0.971 -2.4345  0.0108 -3.5518
  248MOL0     H33439   5.817   8.811   0.829 -1.7758  0.8896  0.2227
  248MOL0     H33440   5.442   8.997   0.920  4.6208 -0.3653  0.6908
  248MOL0     H33441   5.219   8.904   0.849 -0.3006  0.9309  0.8462
  248MOL0     H33442   4.986   8.530   0.965 -0.5355  0.7930  0.7976
  248MOL0     H33443   4.754   8.469   1.017 -0.2316 -1.8190 -0.1241
  248MOL0     H33444   4.520   8.677   0.984  0.6443  2.2259 -0.6546
  248MOL0     H33445   4.443   8.720   0.822 -0.1759 -1.9053 -1.4322
  248MOL0     H33446   4.345   8.514   1.001 -1.2466  0.6642  0.8027
  248MOL0     H33447   4.275   8.680   0.991  0.8969  0.4134  0.8251
  248MOL0     H33448   4.254   8.642   0.737 -2.8271 -1.0803 -0.7117
  248MOL0     H33449   4.284   8.479   0.758 -4.2126 -0.6245 -1.2221
  248MOL0     H33450   4.065   8.652   0.883  1.8424 -0.4853  1.0525
  248MOL0     H33451   4.073   8.475   0.908  0.3111 -0.5222 -1.2377
  248MOL0     H33452   4.022   8.452   0.642 -0.2111  0.9583 -1.0292
  248MOL0     H33453   4.040   8.623   0.635 -1.2614  1.1853  0.8394
  248MOL0     H33454   3.813   8.516   0.647 -1.1412 -0.2316  0.8983
  248MOL0     H33455   3.845   8.470   0.814 -1.0161 -0.2838 -1.1768
  248MOL0     H33456   3.876   8.759   0.821  1.2359 -0.2376 -3.1889
  248MOL0     H33457   3.747   8.664   0.888 -0.7451  1.1213 -0.4208
  248MOL0     H33458   3.756   8.746   0.599 -0.6166  1.3592 -0.4098
  248MOL0     H33459   3.629   8.659   0.681  1.2204 -1.9737  1.7074
  248MOL0     H33460   4.643   8.653   0.642 -1.1042  0.9602  0.1446
  248MOL0     H33461   4.875   8.756   0.612  1.1721  1.7391  0.2895
  248MOL0     H33462   5.406   8.543   0.763 -0.3702  0.7103  0.5676
  248MOL0     H33463   5.631   8.621   0.830  0.0861  0.0906  0.0043
  248MOL0     H33464   5.396   9.803   0.542  0.7782 -1.8580 -3.1593
  248MOL0     H33465   5.230   9.815   0.358  0.2351  2.2438  0.5763
  248MOL0     H33466   4.770   9.751   0.324 -1.4335 -1.1835  1.4282
  248MOL0     H33467   4.571   9.795   0.187 -0.9809 -1.0558 -0.1917
  248MOL0     H33468   4.375   9.606  -0.159 -0.7048 -2.2451  2.1962
  248MOL0     H33469   4.468   9.456  -0.108 -2.6254  0.2647  2.7231
  248MOL0     H33470   4.546   9.506  -0.310  1.6420 -0.0475 -0.4637
  248MOL0     H33471   4.667   9.580  -0.203 -1.0950  0.7289  2.2792
  248MOL0     H33472   4.599   9.807  -0.240 -1.9950 -0.7496  2.3426
  248MOL0     H33473   4.446   9.765  -0.317  0.5447  1.1389 -0.8850
  248MOL0     H33474   4.719   9.718  -0.444 -0.9134 -1.2848  1.2872
  248MOL0     H33475   4.561   9.683  -0.523 -1.2996 -0.1030 -0.4138
  248MOL0     H33476   4.595  10.101  -0.596 -1.8400 -0.6834 -0.9682
  248MOL0     H33477   4.668   9.419  -0.025  1.1327  0.5580  0.6273
  248MOL0     H33478   4.975   9.365   0.091 -0.0759 -0.7848 -1.9034
  248MOL0     H33479   4.886   9.277   0.218  3.9797 -0.3756 -1.2278
  248MOL0     H33480   4.817   9.271   0.059 -1.2680 -1.0723  1.9701
  249MOL0     O33481   2.031   2.738   4.507  0.2136 -0.3283  0.9284
  249MOL0     C33482   1.934   2.813   4.507  0.7421 -0.6655 -0.2320
  249MOL0     O33483   1.803   2.767   4.499 -1.1657  0.1310  0.3512
  249MOL0     C33484   1.796   2.632   4.520 -0.0490  0.3853 -0.0481
  249MOL0     C33485   1.739   2.538   4.427  0.2200  0.2372  0.5599
  249MOL0     C33486   1.684   2.417   4.477  0.4148 -0.7890  1.2288
  249MOL0     C33487   1.696   2.371   4.604 -0.3630  0.0094  0.0153
  249MOL0     O33488   1.670   2.243   4.647 -0.7717  0.4977 -0.0998
  249MOL0     C33489   1.700   2.146   4.539  0.0346 -0.1896  0.9915
  249MOL0     C33490   1.709   2.003   4.597 -0.5062 -0.1855  0.3786
  249MOL0     C33491   1.702   1.882   4.494 -0.0621 -0.8756 -0.2669
  249MOL0     C33492   1.627   1.757   4.559 -0.2184 -0.7381 -0.5426
  249MOL0     C33493   1.565   1.676   4.448  0.1316  0.4116  0.4878
  249MOL0     C33494   1.423   1.730   4.415  0.5071  0.4754 -0.1806
  249MOL0     C33495   1.376   1.704   4.275 -0.0976 -0.6439 -0.4246
  249MOL0     C33496   1.224   1.676   4.283  0.8356  1.3675  0.0914
  249MOL0     N33497   1.196   1.529   4.288  0.3380  0.5757  0.6781
  249MOL0     C33498   1.213   1.454   4.403  0.2894 -0.1341 -0.0603
  249MOL0     C33499   1.147   1.338   4.371 -0.4901 -0.4423 -0.2000
  249MOL0     C33500   1.132   1.216   4.456 -0.5798  0.1856  0.0447
  249MOL0     C33501   1.105   1.087   4.378  0.1940 -0.6526  0.7396
  249MOL0     C33502   1.010   0.994   4.455 -0.1529 -0.4224 -0.2787
  249MOL0     C33503   1.066   0.950   4.580  0.3149 -0.2158  0.9184
  249MOL0     O33504   0.982   0.841   4.629  0.2464  0.4828  0.1760
  249MOL0     C33505   1.011   0.787   4.750  0.3983  1.0715 -0.2589
  249MOL0     C33506   0.901   0.715   4.799 -0.3715  0.4155 -0.4553
  249MOL0     C33507   0.908   0.649   4.919 -0.2536 -0.7272 -0.4936
  249MOL0     C33508   1.024   0.664   5.000 -0.0632 -0.1492 -1.0544
  249MOL0     C33509   1.034   0.597   5.126  0.2318  0.7244 -1.2666
  249MOL0     O33510   0.922   0.532   5.170 -0.1215 -0.1189 -0.1932
  249MOL0     C33511   0.918   0.501   5.302 -0.2198 -0.2579 -0.3855
  249MOL0     C33512   0.880   0.377   5.344 -0.0027  0.0357 -0.0360
  249MOL0     C33513   0.872   0.343   5.485  0.6431 -0.8012  0.6863
  249MOL0     C33514   0.889   0.437   5.577  1.0460 -0.4427 -0.7007
  249MOL0     O33515   0.884   0.404   5.713 -0.7791  0.0593  0.0684
  249MOL0     C33516   0.775   0.464   5.794  0.2510 -0.5832 -0.6701
  249MOL0     C33517   0.709   0.353   5.863 -0.2995 -0.4181 -0.6082
  249MOL0     C33518   0.792   0.309   5.990  0.2309  0.0962 -0.5528
  249MOL0     C33519   0.726   0.204   6.073 -0.6629 -0.2654  0.4022
  249MOL0     C33520   0.746   0.060   6.051  0.2433 -0.5849 -0.3094
  249MOL0     C33521   0.649  -0.033   6.112  0.0215  0.4161 -0.3050
  249MOL0     C33522   0.701  -0.171   6.149 -1.0962 -0.6835  0.2871
  249MOL0     C33523   0.779  -0.163   6.295  0.1837  0.0958 -0.0677
  249MOL0    Cl33524   0.658  -0.110   6.419  0.2043  0.2312 -0.8800
  249MOL0     C33525   0.924   0.568   5.542 -0.7002  0.9576 -0.3562
  249MOL0     C33526   0.937   0.600   5.408  0.1367 -0.7060 -0.1221
  249MOL0     O33527   1.145   0.609   5.190  1.0812 -0.5205 -0.3112
  249MOL0     C33528   1.136   0.740   4.952 -1.0409  0.2427  0.5471
  249MOL0     C33529   1.125   0.799   4.823 -0.0978  0.4336  0.3117
  249MOL0     N33530   1.103   1.347   4.245 -0.2385  0.3367 -0.9418
  249MOL0     N33531   1.130   1.456   4.191  0.6436  0.1759 -0.2193
  249MOL0     C33532   1.762   2.455   4.691  0.5029  0.1193 -0.3264
  249MOL0     C33533   1.811   2.586   4.651 -1.0541  0.1598 -0.6460
  249MOL0     C33534   1.945   2.961   4.517 -0.1560 -1.3318  0.1705
  249MOL0     C33535   1.826   3.029   4.542 -0.2920  1.7977 -0.6884
  249MOL0     C33536   1.825   3.163   4.566  0.2825  0.6588 -0.3641
  249MOL0     C33537   1.934   3.235   4.544  0.1520  0.8652 -0.4377
  249MOL0     O33538   1.933   3.373   4.559  0.7876  0.3332 -0.7397
  249MOL0     C33539   1.976   3.446   4.439 -0.1269  0.4015 -0.9512
  249MOL0     C33540   1.867   3.532   4.390  0.9464 -0.1139  1.2246
  249MOL0     C33541   1.775   3.451   4.304 -0.6203  0.1601  0.9000
  249MOL0     C33542   1.635   3.520   4.273  0.3463  0.6645 -0.2780
  249MOL0     C33543   1.651   3.636   4.194  0.3106 -0.4431  0.8649
  249MOL0     C33544   1.668   3.729   4.122 -1.0133 -0.2582  0.3508
  249MOL0     C33545   2.051   3.174   4.505  0.6287  0.8146  0.0242
  249MOL0     C33546   2.061   3.035   4.503  0.3340 -0.6629  0.0656
  249MOL0     C33547   2.191   2.984   4.453 -0.1742 -0.3504  0.0610
  249MOL0     H33548   1.721   2.550   4.321  1.6837 -2.6509 -0.0900
  249MOL0     H33549   1.642   2.368   4.389  4.0401 -0.5348 -0.8748
  249MOL0     H33550   1.624   2.154   4.461  0.1952  0.1329  0.8660
  249MOL0     H33551   1.801   2.174   4.506 -0.2668 -0.5101 -0.2476
  249MOL0     H33552   1.631   1.994   4.673 -0.5175 -1.7038  0.2012
  249MOL0     H33553   1.804   1.991   4.650 -0.2303 -1.2342 -0.3373
  249MOL0     H33554   1.801   1.848   4.461 -0.0592 -1.7745  0.6251
  249MOL0     H33555   1.638   1.905   4.409 -3.0652  1.4186  2.3925
  249MOL0     H33556   1.705   1.701   4.612 -1.8958 -1.8475  0.8609
  249MOL0     H33557   1.564   1.787   4.643 -1.7790 -0.9491 -1.6095
  249MOL0     H33558   1.619   1.679   4.353  0.2413  1.2887  0.5705
  249MOL0     H33559   1.564   1.572   4.482 -0.4784  0.1066 -0.4205
  249MOL0     H33560   1.361   1.674   4.486  1.1522  1.3740  1.1507
  249MOL0     H33561   1.422   1.836   4.443  3.0694  0.0662  1.9202
  249MOL0     H33562   1.429   1.619   4.229  2.5864  1.0720 -0.7508
  249MOL0     H33563   1.391   1.803   4.231  0.3757  0.0757  1.2714
  249MOL0     H33564   1.187   1.728   4.372 -2.2688  0.7746 -0.7020
  249MOL0     H33565   1.174   1.715   4.194 -1.1871 -1.0964  0.0161
  249MOL0     H33566   1.257   1.492   4.494 -1.6083  2.1637 -0.0287
  249MOL0     H33567   1.226   1.204   4.510 -0.1841  0.4172 -0.5846
  249MOL0     H33568   1.062   1.232   4.538  1.3556  1.8793  1.4767
  249MOL0     H33569   1.043   1.116   4.293  0.7677  0.7387  0.7805
  249MOL0     H33570   1.193   1.028   4.350 -1.6337 -3.0273 -0.3997
  249MOL0     H33571   0.982   0.906   4.395  1.6471 -1.0897 -0.2061
  249MOL0     H33572   0.917   1.048   4.474  1.1500  1.4255  1.2588
  249MOL0     H33573   1.060   1.032   4.652 -0.8071 -0.0036  0.6001
  249MOL0     H33574   1.171   0.926   4.559  0.2398  0.3627 -0.1764
  249MOL0     H33575   0.805   0.723   4.749 -0.6506  0.7803  0.1353
  249MOL0     H33576   0.820   0.599   4.959 -0.8549  0.1155 -0.7310
  249MOL0     H33577   0.865   0.291   5.280  3.3063 -0.2693 -0.5517
  249MOL0     H33578   0.836   0.248   5.522 -2.3525 -0.4648 -1.0108
  249MOL0     H33579   0.812   0.532   5.871  1.6735  2.1821 -3.5588
  249MOL0     H33580   0.700   0.519   5.737  0.6814  0.3538 -0.3489
  249MOL0     H33581   0.614   0.387   5.905 -0.1684 -0.6217 -0.1391
  249MOL0     H33582   0.683   0.274   5.791 -1.2156 -0.2491 -0.4768
  249MOL0     H33583   0.894   0.270   5.975  0.9598  0.3211  2.9986
  249MOL0     H33584   0.810   0.400   6.047 -0.1645 -1.3855  2.0996
  249MOL0     H33585   0.619   0.227   6.084 -0.1139  3.2836 -0.5085
  249MOL0     H33586   0.767   0.223   6.173  2.5684 -1.6818 -0.5505
  249MOL0     H33587   0.844   0.030   6.088 -0.9268 -0.6962  3.0665
  249MOL0     H33588   0.746   0.035   5.945 -0.4662 -0.3626 -0.3667
  249MOL0     H33589   0.608  -0.004   6.209  0.7060 -1.1147  0.4705
  249MOL0     H33590   0.572  -0.042   6.035 -0.7117  0.1172  0.4402
  249MOL0     H33591   0.760  -0.214   6.068  1.4825  0.9800  1.1363
  249MOL0     H33592   0.612  -0.232   6.166 -1.9558  1.0332  2.5007
  249MOL0     H33593   0.833  -0.257   6.308  3.3896  1.8502  0.3376
  249MOL0     H33594   0.866  -0.097   6.295  1.3040 -1.1976 -3.3516
  249MOL0     H33595   0.960   0.636   5.618  1.6233  1.3028 -1.6783
  249MOL0     H33596   0.966   0.701   5.380  0.2827 -0.7733 -0.2082
  249MOL0     H33597   1.227   0.756   5.009 -0.1262  0.2643 -0.8731
  249MOL0     H33598   1.212   0.851   4.783  0.1991 -1.3647 -1.5479
  249MOL0     H33599   1.768   2.419   4.793 -2.1902  0.7909  0.1375
  249MOL0     H33600   1.843   2.655   4.729 -0.7463  0.2427 -0.8438
  249MOL0     H33601   1.730   2.980   4.553  1.7062 -3.0204 -2.2446
  249MOL0     H33602   1.734   3.213   4.598 -0.5655 -0.9765 -0.0933
  249MOL0     H33603   2.007   3.382   4.356  1.4474 -0.4365  0.2281
  249MOL0     H33604   2.060   3.508   4.469  1.4793 -2.4003  0.8121
  249MOL0     H33605   1.899   3.616   4.327  2.4251 -0.5413  1.3461
  249MOL0     H33606   1.823   3.587   4.473  1.5124  1.3347  0.5961
  249MOL0     H33607   1.752   3.364   4.366  0.3862  0.1636  1.2829
  249MOL0     H33608   1.831   3.425   4.214 -1.3124  1.0987  0.1698
  249MOL0     H33609   1.566   3.446   4.230  4.4119 -2.8057 -1.4614
  249MOL0     H33610   1.607   3.559   4.372  2.9491  0.3978  0.6303
  249MOL0     H33611   1.675   3.819   4.064  0.9308  1.4441  3.0059
  249MOL0     H33612   2.133   3.241   4.481 -0.8553  2.0190 -2.0414
  249MOL0     H33613   2.250   2.943   4.536  1.0995 -1.5311 -1.3564
  249MOL0     H33614   2.174   2.900   4.384  0.4822 -1.2703  0.9855
  249MOL0     H33615   2.262   3.057   4.412  1.0397  0.6256  3.5689
  250MOL0     O33616   4.176   7.413   0.915 -0.1105 -0.2005 -0.8493
  250MOL0     C33617   4.274   7.490   0.927 -0.1987  0.8638 -0.4353
  250MOL0     O33618   4.270   7.614   0.996  0.0016  0.0856 -0.5149
  250MOL0     C33619   4.184   7.651   1.095 -1.0934  0.1586 -0.8908
  250MOL0     C33620   4.190   7.785   1.132  0.8028  0.0141  1.1535
  250MOL0     C33621   4.126   7.836   1.247  0.4115 -0.2800 -0.2345
  250MOL0     C33622   4.043   7.749   1.318 -0.3373 -0.2815 -0.4336
  250MOL0     O33623   3.977   7.810   1.418  0.4470 -0.0639  0.0032
  250MOL0     C33624   3.832   7.820   1.398 -0.3762  0.5407 -0.2164
  250MOL0     C33625   3.771   7.838   1.530  0.6344 -0.1154 -0.1781
  250MOL0     C33626   3.723   7.982   1.547 -0.0295  0.7392 -0.2207
  250MOL0     C33627   3.626   7.995   1.663  0.7073  0.1052  0.1195
  250MOL0     C33628   3.553   8.130   1.662  0.1491  0.6487  0.4063
  250MOL0     C33629   3.416   8.131   1.733  0.2141 -0.6589  0.5177
  250MOL0     C33630   3.429   8.144   1.888  0.0743 -0.0073 -0.1977
  250MOL0     C33631   3.290   8.175   1.947 -0.7404 -0.0865  0.0199
  250MOL0     N33632   3.201   8.061   1.937 -0.5043  0.1905 -0.1866
  250MOL0     C33633   3.240   7.935   1.949 -0.0643 -0.2132 -0.3423
  250MOL0     C33634   3.143   7.852   1.910  0.7344  0.3587 -0.2881
  250MOL0     C33635   3.116   7.696   1.912 -0.1980 -0.8712 -0.3690
  250MOL0     C33636   3.234   7.606   1.878  0.2536  0.3231 -0.2996
  250MOL0     C33637   3.294   7.665   1.753 -0.4368  0.1550 -0.4588
  250MOL0     C33638   3.416   7.592   1.695  0.6749  0.3333 -0.8912
  250MOL0     O33639   3.374   7.474   1.625  0.0297  0.5093 -1.5083
  250MOL0     C33640   3.475   7.398   1.569  0.5401 -0.9810  0.0859
  250MOL0     C33641   3.434   7.308   1.481  0.0574  0.2950  0.0547
  250MOL0     C33642   3.521   7.223   1.422 -0.0557  0.9266  0.8343
  250MOL0     C33643   3.658   7.229   1.430 -0.1584 -0.3575  0.2195
  250MOL0     C33644   3.756   7.152   1.350  0.6264  0.0615 -0.9986
  250MOL0     O33645   3.887   7.182   1.371 -1.0369 -0.3053  0.6283
  250MOL0     C33646   3.985   7.099   1.316 -0.3227 -0.1170 -0.7997
  250MOL0     C33647   4.096   7.148   1.244  0.3707  0.0714 -0.5590
  250MOL0     C33648   4.195   7.070   1.194  0.0017  0.1541 -0.7821
  250MOL0     C33649   4.199   6.937   1.214 -0.0316  0.0739  0.1149
  250MOL0     O33650   4.296   6.855   1.171  0.3801 -0.6110  0.0499
  250MOL0     C33651   4.321   6.855   1.029 -0.8195  0.5158 -0.2985
  250MOL0     C33652   4.467   6.811   1.003  0.2580  0.0997 -0.3947
  250MOL0     C33653   4.556   6.929   1.056 -0.0568  0.0334 -0.1921
  250MOL0     C33654   4.709   6.891   1.023 -0.5625 -0.6218 -0.3458
  250MOL0     C33655   4.806   7.019   0.992  0.4681  0.5985 -0.0621
  250MOL0     C33656   4.818   7.124   1.100  0.1103  0.2919 -0.3252
  250MOL0     C33657   4.920   7.076   1.206  0.9239  0.1257  0.4244
  250MOL0     C33658   4.968   7.177   1.316 -0.3728 -0.5399 -0.0079
  250MOL0    Cl33659   4.834   7.297   1.363  0.1380  0.5311 -0.5280
  250MOL0     C33660   4.080   6.883   1.269  0.5690  1.0580  0.3117
  250MOL0     C33661   3.974   6.958   1.318 -0.5790 -0.2358  0.4939
  250MOL0     O33662   3.713   7.070   1.274 -0.8398  0.0686 -0.5349
  250MOL0     C33663   3.706   7.328   1.520 -0.3675  0.9299  0.0216
  250MOL0     C33664   3.614   7.423   1.573  0.2944 -0.3674 -0.6631
  250MOL0     N33665   3.050   7.936   1.856  1.1223  0.4117 -0.0046
  250MOL0     N33666   3.077   8.057   1.896 -1.1732  0.2597  0.4818
  250MOL0     C33667   4.029   7.613   1.285  0.0222  0.0058 -0.1691
  250MOL0     C33668   4.098   7.568   1.172 -0.2283  0.1705 -0.6045
  250MOL0     C33669   4.401   7.478   0.845  0.8211  0.0364 -0.1171
  250MOL0     C33670   4.485   7.592   0.834  0.1803  0.4599 -0.1944
  250MOL0     C33671   4.611   7.588   0.781  0.6974 -0.1590  0.4371
  250MOL0     C33672   4.649   7.473   0.720 -0.3283  0.0272 -0.2587
  250MOL0     O33673   4.772   7.449   0.669  0.4235 -0.1525  0.0899
  250MOL0     C33674   4.840   7.560   0.599 -0.6554 -0.2610 -0.8950
  250MOL0     C33675   4.803   7.577   0.450  0.2446  0.5172 -0.7278
  250MOL0     C33676   4.889   7.680   0.383  0.2117 -0.0463 -0.1328
  250MOL0     C33677   5.026   7.631   0.357  0.3148  0.4707 -1.0090
  250MOL0     C33678   5.115   7.729   0.284  0.6845  0.2363 -0.4889
  250MOL0     C33679   5.180   7.806   0.231 -0.1271  1.0484 -1.1314
  250MOL0     C33680   4.562   7.361   0.707  0.2180  0.2054  0.3919
  250MOL0     C33681   4.438   7.360   0.780  0.0155  0.8555  0.2560
  250MOL0     C33682   4.355   7.227   0.785 -0.0998  0.5302 -0.6320
  250MOL0     H33683   4.243   7.849   1.061 -0.9786 -1.7004 -1.9539
  250MOL0     H33684   4.108   7.940   1.274 -1.6172 -0.9352  1.2282
  250MOL0     H33685   3.801   7.898   1.327 -1.5560 -0.1313 -0.4738
  250MOL0     H33686   3.794   7.726   1.355 -1.0298  0.6054  0.2017
  250MOL0     H33687   3.835   7.802   1.612  0.6662  1.4466  0.5251
  250MOL0     H33688   3.687   7.768   1.534  1.0969 -0.6335  0.8564
  250MOL0     H33689   3.672   8.012   1.455  3.2232  0.0131 -2.4208
  250MOL0     H33690   3.801   8.058   1.555  0.0846  1.2726 -4.3477
  250MOL0     H33691   3.547   7.920   1.659  0.4801  0.2880  0.9255
  250MOL0     H33692   3.678   7.982   1.759  3.6163 -0.8934 -1.4770
  250MOL0     H33693   3.618   8.214   1.690 -1.9566  2.4198  0.2900
  250MOL0     H33694   3.531   8.155   1.557  3.5401 -2.0143 -1.1425
  250MOL0     H33695   3.367   8.222   1.695  1.4861 -1.1381 -2.4786
  250MOL0     H33696   3.349   8.045   1.726 -0.6249 -0.2744  2.7667
  250MOL0     H33697   3.494   8.230   1.904 -0.5444  0.1412  1.8193
  250MOL0     H33698   3.485   8.058   1.926  1.1375  0.4814 -0.6325
  250MOL0     H33699   3.303   8.192   2.055 -1.1099 -2.9380  0.5755
  250MOL0     H33700   3.264   8.272   1.904  1.9375  0.6515 -0.1695
  250MOL0     H33701   3.335   7.900   1.989  0.5565  1.9878  0.2640
  250MOL0     H33702   3.068   7.666   2.005 -1.6554  0.5502 -0.6191
  250MOL0     H33703   3.042   7.677   1.834 -1.5943  0.5228  0.5629
  250MOL0     H33704   3.304   7.616   1.961 -0.2742  0.6922  0.1075
  250MOL0     H33705   3.204   7.502   1.864 -2.0820  0.6388  1.7333
  250MOL0     H33706   3.331   7.764   1.782 -0.5373  0.9746 -2.9368
  250MOL0     H33707   3.223   7.664   1.670 -0.5591 -1.8061 -0.3819
  250MOL0     H33708   3.477   7.577   1.785 -2.5251 -1.6611  1.1638
  250MOL0     H33709   3.459   7.660   1.622 -3.5551  3.7859 -0.5753
  250MOL0     H33710   3.330   7.307   1.452  0.2319  0.5536 -0.5865
  250MOL0     H33711   3.480   7.146   1.359  0.4981  2.9943 -2.2991
  250MOL0     H33712   4.103   7.254   1.224 -1.0803  0.6247  1.5199
  250MOL0     H33713   4.272   7.114   1.131  0.9871  1.9444  1.5104
  250MOL0     H33714   4.254   6.780   0.987  1.3358 -1.8728  0.2389
  250MOL0     H33715   4.309   6.953   0.982 -1.8733  0.6377  0.1883
  250MOL0     H33716   4.494   6.710   1.037 -0.3116 -0.3920 -1.3434
  250MOL0     H33717   4.503   6.810   0.900  3.2842  1.2995  0.5445
  250MOL0     H33718   4.532   7.018   0.997  0.6433  0.4010  0.0692
  250MOL0     H33719   4.533   6.953   1.160  1.0295  0.2793 -0.0039
  250MOL0     H33720   4.718   6.830   0.933  1.3481 -3.5573  1.6504
  250MOL0     H33721   4.752   6.838   1.108  1.3937  3.6482  1.6560
  250MOL0     H33722   4.772   7.054   0.894  3.3416 -3.0125 -2.6551
  250MOL0     H33723   4.910   6.989   0.976  0.0428 -0.5907 -0.7311
  250MOL0     H33724   4.839   7.224   1.062 -1.2560  0.8600  0.3201
  250MOL0     H33725   4.722   7.128   1.154  0.2398 -3.7319  0.4825
  250MOL0     H33726   5.009   7.049   1.147 -0.2550 -2.3321 -0.3788
  250MOL0     H33727   4.891   6.986   1.260 -0.8851  1.7802  2.3755
  250MOL0     H33728   5.014   7.122   1.399 -0.8476 -2.4793 -0.9535
  250MOL0     H33729   5.043   7.246   1.277  0.2434 -0.7432  0.8034
  250MOL0     H33730   4.079   6.775   1.283  0.0757  0.7291 -1.9776
  250MOL0     H33731   3.889   6.905   1.358  2.2060 -4.9771  0.9186
  250MOL0     H33732   3.811   7.343   1.543 -0.5784  2.2124  0.2324
  250MOL0     H33733   3.642   7.499   1.645 -1.9127  0.3596 -0.4952
  250MOL0     H33734   3.963   7.548   1.342 -0.2167  1.6556  1.5181
  250MOL0     H33735   4.090   7.460   1.158 -3.7719  0.4086 -1.3271
  250MOL0     H33736   4.466   7.688   0.881 -0.7373 -0.0071  0.4078
  250MOL0     H33737   4.678   7.673   0.782  1.3782 -0.5538 -2.6733
  250MOL0     H33738   4.945   7.530   0.598 -0.8239 -0.9669  0.1610
  250MOL0     H33739   4.830   7.654   0.654  3.6717 -0.9567  1.5652
  250MOL0     H33740   4.699   7.611   0.456  1.2136  3.5723  1.6568
  250MOL0     H33741   4.810   7.480   0.400  2.5480 -0.0394  0.5366
  250MOL0     H33742   4.896   7.779   0.429 -1.7175 -0.1254  0.4352
  250MOL0     H33743   4.839   7.685   0.286 -0.0832 -1.5477 -0.0927
  250MOL0     H33744   5.064   7.630   0.460 -1.0692 -1.8748 -0.4473
  250MOL0     H33745   5.033   7.530   0.315  0.3758 -1.8389  3.8462
  250MOL0     H33746   5.246   7.880   0.190  2.6475 -2.0599 -2.7142
  250MOL0     H33747   4.596   7.269   0.662 -1.3689 -1.2978  2.0554
  250MOL0     H33748   4.333   7.218   0.891  0.7302 -2.4410 -0.6063
  250MOL0     H33749   4.254   7.254   0.752 -0.8854  1.9944  2.6312
  250MOL0     H33750   4.407   7.140   0.743 -0.5070 -0.8752  1.6400
  251MOL0     O33751   0.612   2.329   5.563  0.5577  0.8660 -0.3272
  251MOL0     C33752   0.512   2.355   5.635 -0.7869 -0.5919  0.3381
  251MOL0     O33753   0.503   2.322   5.764 -0.1577  0.1339 -0.2117
  251MOL0     C33754   0.570   2.221   5.828 -0.3208 -0.2872  0.0191
  251MOL0     C33755   0.577   2.220   5.972 -0.8870  0.6857  0.3144
  251MOL0     C33756   0.634   2.107   6.037 -0.4026  0.4240  0.3592
  251MOL0     C33757   0.681   1.995   5.969 -0.1585  0.0752 -0.7166
  251MOL0     O33758   0.748   1.910   6.050 -0.7000 -0.5236 -0.9296
  251MOL0     C33759   0.789   1.775   6.011 -0.6789  0.1552  0.1153
  251MOL0     C33760   0.836   1.698   6.136  0.2081 -0.5041 -0.1688
  251MOL0     C33761   0.983   1.725   6.168 -0.6001  0.0084  0.1998
  251MOL0     C33762   1.023   1.648   6.292 -0.4434  0.1740  0.3958
  251MOL0     C33763   1.162   1.701   6.317 -0.7089 -0.6412  0.5151
  251MOL0     C33764   1.217   1.649   6.447  0.0587  0.6729  0.4972
  251MOL0     C33765   1.365   1.677   6.459  1.1202  0.1932  0.2549
  251MOL0     C33766   1.422   1.656   6.598 -0.8423  0.7119 -0.1918
  251MOL0     N33767   1.429   1.507   6.620  0.1047 -0.2826  0.2181
  251MOL0     C33768   1.319   1.434   6.667 -0.7594 -0.4050 -0.0642
  251MOL0     C33769   1.354   1.302   6.640 -0.1179 -0.2981  0.9340
  251MOL0     C33770   1.261   1.178   6.648 -0.3631  0.7728 -0.5301
  251MOL0     C33771   1.196   1.146   6.506 -0.3422  1.1833 -0.1786
  251MOL0     C33772   1.307   1.086   6.419 -0.6866 -0.4428 -0.7779
  251MOL0     C33773   1.261   1.076   6.277 -0.9741  0.0025 -0.7555
  251MOL0     O33774   1.264   1.190   6.203 -0.3837  0.6334 -0.2922
  251MOL0     C33775   1.160   1.237   6.131  0.0020  0.1534 -0.4296
  251MOL0     C33776   1.036   1.172   6.102  0.5307  0.4721 -0.2184
  251MOL0     C33777   0.938   1.233   6.014  0.4265  0.6415 -0.4494
  251MOL0     C33778   0.975   1.341   5.944  0.5211 -0.7535  0.8884
  251MOL0     C33779   0.902   1.399   5.827  0.2206  1.1044  0.4251
  251MOL0     O33780   0.932   1.533   5.792  0.8361  0.1164  0.2320
  251MOL0     C33781   0.850   1.602   5.704  0.2795  0.1280 -0.0540
  251MOL0     C33782   0.714   1.603   5.740  0.2395 -0.0908  1.0746
  251MOL0     C33783   0.629   1.682   5.665 -0.0342  0.2002 -0.0090
  251MOL0     C33784   0.674   1.762   5.556  0.4987  1.1074 -0.0660
  251MOL0     O33785   0.597   1.837   5.476  0.4440 -0.4562 -0.4423
  251MOL0     C33786   0.476   1.886   5.527  0.1121  0.1769  0.0463
  251MOL0     C33787   0.421   1.980   5.419 -0.1277  0.3137 -0.6147
  251MOL0     C33788   0.395   1.932   5.279  0.3216 -0.4406 -0.1481
  251MOL0     C33789   0.314   1.803   5.279  0.1668  0.7834 -1.0259
  251MOL0     C33790   0.277   1.768   5.130 -0.5423 -0.3336 -0.2660
  251MOL0     C33791   0.406   1.724   5.042  0.0720  0.1222 -0.1560
  251MOL0     C33792   0.360   1.680   4.906  0.7286 -0.4820 -0.0931
  251MOL0     C33793   0.455   1.704   4.793  0.5983  0.1451  0.7796
  251MOL0    Cl33794   0.373   1.667   4.636  0.2114 -0.1583  0.3562
  251MOL0     C33795   0.807   1.744   5.519 -0.0598  0.2920  0.9903
  251MOL0     C33796   0.896   1.664   5.592  0.1495 -0.3551  0.6648
  251MOL0     O33797   0.824   1.324   5.764  0.7630  0.1965  0.1151
  251MOL0     C33798   1.098   1.401   5.967  0.9566 -0.0554  0.8015
  251MOL0     C33799   1.181   1.352   6.060  0.0534 -0.2518  0.7119
  251MOL0     N33800   1.481   1.303   6.586  0.4753  1.1625  0.8592
  251MOL0     N33801   1.527   1.425   6.573  0.5430 -0.0482  0.3225
  251MOL0     C33802   0.683   1.997   5.833  0.2258 -0.4774  0.5946
  251MOL0     C33803   0.630   2.106   5.765  0.7275  0.2277  0.1892
  251MOL0     C33804   0.406   2.440   5.576 -0.2225 -0.1679  0.3249
  251MOL0     C33805   0.294   2.475   5.657 -0.4488 -0.7240 -0.7059
  251MOL0     C33806   0.192   2.546   5.614  0.1707 -0.6950  0.2401
  251MOL0     C33807   0.191   2.586   5.485  0.0260 -0.4244 -0.4043
  251MOL0     O33808   0.074   2.647   5.439  0.0213  0.2284  0.1236
  251MOL0     C33809   0.061   2.650   5.297  0.3656  0.4151  0.8432
  251MOL0     C33810  -0.073   2.713   5.261  0.3239 -0.5319 -0.2191
  251MOL0     C33811  -0.107   2.682   5.116  0.4105  0.1067 -0.7545
  251MOL0     C33812  -0.256   2.699   5.102 -0.9189 -0.6562  0.6903
  251MOL0     C33813  -0.326   2.582   5.115  0.3444  0.6104  0.1744
  251MOL0     C33814  -0.378   2.478   5.131  0.2214  0.0673 -0.1935
  251MOL0     C33815   0.309   2.579   5.412  0.8638 -0.1421 -0.7582
  251MOL0     C33816   0.419   2.496   5.450  0.5272  0.3736 -0.0694
  251MOL0     C33817   0.526   2.470   5.344 -1.1571 -0.6841  0.1359
  251MOL0     H33818   0.535   2.303   6.029 -1.3075 -0.6797  2.1121
  251MOL0     H33819   0.659   2.112   6.143  0.0148 -0.5786  0.3157
  251MOL0     H33820   0.712   1.724   5.952 -0.5185 -1.6811  1.4261
  251MOL0     H33821   0.871   1.784   5.939 -1.5155 -0.0902 -0.8938
  251MOL0     H33822   0.807   1.592   6.135  0.7320 -0.6659  0.8342
  251MOL0     H33823   0.777   1.736   6.220 -1.0189  1.1580 -1.7118
  251MOL0     H33824   0.990   1.831   6.195 -0.2531 -0.0756  0.4481
  251MOL0     H33825   1.057   1.695   6.093  2.5914  3.0701  1.8259
  251MOL0     H33826   0.968   1.669   6.384  1.2462  0.0133  1.4812
  251MOL0     H33827   1.018   1.541   6.270 -4.0592 -0.4062  3.1463
  251MOL0     H33828   1.228   1.672   6.235  0.7349 -0.1438  1.4672
  251MOL0     H33829   1.150   1.809   6.326 -2.3848 -0.8024  0.5594
  251MOL0     H33830   1.160   1.698   6.527 -0.7274  0.0916  0.3173
  251MOL0     H33831   1.196   1.543   6.468  0.5205  0.3128 -0.7515
  251MOL0     H33832   1.389   1.780   6.431 -0.9729  0.3220 -1.2367
  251MOL0     H33833   1.418   1.605   6.396  0.8672  0.1551  0.0880
  251MOL0     H33834   1.522   1.694   6.615 -0.0913 -2.6627  5.0327
  251MOL0     H33835   1.364   1.701   6.679 -0.1240 -0.7434  1.1895
  251MOL0     H33836   1.222   1.471   6.699 -0.6510  1.7367 -1.9339
  251MOL0     H33837   1.320   1.100   6.697  0.7648  2.0036  0.1442
  251MOL0     H33838   1.179   1.204   6.716 -0.0027 -0.6852  0.5142
  251MOL0     H33839   1.114   1.075   6.516  1.3030 -0.8231 -0.1552
  251MOL0     H33840   1.162   1.235   6.452 -2.5483  0.4228 -0.1433
  251MOL0     H33841   1.326   0.984   6.455 -1.5101 -0.3348  0.0007
  251MOL0     H33842   1.404   1.135   6.414  0.0357 -1.7601 -0.1745
  251MOL0     H33843   1.158   1.039   6.287  0.1853 -3.4133 -0.4905
  251MOL0     H33844   1.318   0.998   6.226  2.3032  0.5945  1.6591
  251MOL0     H33845   1.023   1.073   6.146  0.1925 -0.4196 -2.2417
  251MOL0     H33846   0.838   1.194   6.001  1.2411 -2.2676  1.0844
  251MOL0     H33847   0.675   1.540   5.820 -3.6601 -0.5071 -0.8898
  251MOL0     H33848   0.523   1.675   5.687  0.1986 -2.8738  0.5465
  251MOL0     H33849   0.404   1.806   5.550  1.7754 -1.4766 -0.2602
  251MOL0     H33850   0.497   1.944   5.617  2.7928  6.2062 -3.8154
  251MOL0     H33851   0.326   2.012   5.464  0.5916  2.3177 -0.4051
  251MOL0     H33852   0.480   2.072   5.422  0.2846  0.1064 -1.8910
  251MOL0     H33853   0.346   2.007   5.216 -3.1880 -1.7961  0.7561
  251MOL0     H33854   0.487   1.901   5.227 -1.3844 -1.0694 -3.0300
  251MOL0     H33855   0.223   1.822   5.337  0.2826  5.4705 -1.9770
  251MOL0     H33856   0.368   1.721   5.327  0.6582  0.4206 -2.1749
  251MOL0     H33857   0.218   1.843   5.077  0.0197 -0.1270 -0.5983
  251MOL0     H33858   0.214   1.678   5.139  0.2434 -1.0072 -1.2633
  251MOL0     H33859   0.476   1.808   5.036 -1.7419  1.7500  0.2911
  251MOL0     H33860   0.448   1.638   5.095  0.9609 -0.7974 -2.2368
  251MOL0     H33861   0.264   1.731   4.890  1.6018  1.5401  0.8532
  251MOL0     H33862   0.329   1.575   4.914  2.0833 -0.7958  1.7882
  251MOL0     H33863   0.501   1.803   4.791 -0.4093  0.6143 -1.0885
  251MOL0     H33864   0.535   1.634   4.820 -0.1609  0.0892  3.0846
  251MOL0     H33865   0.840   1.790   5.427  0.0524 -2.2179 -0.3238
  251MOL0     H33866   1.004   1.657   5.583  0.2569  2.6379 -2.2529
  251MOL0     H33867   1.132   1.484   5.906  2.4929 -2.0529 -1.2437
  251MOL0     H33868   1.275   1.403   6.082  1.5617 -3.1987  1.6552
  251MOL0     H33869   0.735   1.924   5.771  3.3194  1.7223  0.3649
  251MOL0     H33870   0.617   2.101   5.658  0.4054 -2.3943  0.2724
  251MOL0     H33871   0.276   2.435   5.756  0.6741  1.1147  0.2989
  251MOL0     H33872   0.100   2.576   5.664  1.0510  1.7403  0.5262
  251MOL0     H33873   0.073   2.545   5.268  1.7346 -0.3963  3.9534
  251MOL0     H33874   0.150   2.690   5.248  1.0302  0.7334  2.2553
  251MOL0     H33875  -0.065   2.822   5.271 -0.3208 -0.5361  0.4323
  251MOL0     H33876  -0.148   2.674   5.331 -0.5369  2.7691  0.8783
  251MOL0     H33877  -0.066   2.588   5.081  0.4609 -0.7010  1.3437
  251MOL0     H33878  -0.055   2.755   5.052  2.1232 -0.6748 -0.3119
  251MOL0     H33879  -0.298   2.764   5.180 -3.1425  0.0433 -0.9535
  251MOL0     H33880  -0.261   2.741   5.001  2.3167 -0.5879  0.4601
  251MOL0     H33881  -0.426   2.385   5.154  3.8843 -1.5403  1.6904
  251MOL0     H33882   0.327   2.641   5.324 -0.3608  1.0538 -0.2007
  251MOL0     H33883   0.497   2.501   5.243 -0.9066 -0.9056 -0.0080
  251MOL0     H33884   0.613   2.523   5.384 -2.5301  1.8873 -0.0851
  251MOL0     H33885   0.543   2.362   5.332 -0.3884 -0.4779 -0.7479
  252MOL0     O33886   9.752   8.530   2.353 -0.9142 -0.7602 -0.2872
  252MOL0     C33887   9.845   8.554   2.436  0.3811 -0.3624 -0.0776
  252MOL0     O33888   9.878   8.477   2.545  0.4483 -0.1336 -0.0732
  252MOL0     C33889   9.791   8.384   2.587  0.1725  0.8131 -0.6914
  252MOL0     C33890   9.830   8.243   2.577 -0.5664 -0.2766  0.8429
  252MOL0     C33891   9.745   8.146   2.619 -0.3411  0.4463 -0.3288
  252MOL0     C33892   9.620   8.184   2.672  0.2210 -0.5385  0.5563
  252MOL0     O33893   9.531   8.089   2.717 -0.3570 -0.2508  0.7351
  252MOL0     C33894   9.587   7.964   2.750  0.3035 -0.2538  0.2980
  252MOL0     C33895   9.502   7.870   2.827 -0.0915  0.0295 -0.4110
  252MOL0     C33896   9.572   7.736   2.830  0.1057  0.6251  0.4907
  252MOL0     C33897   9.504   7.637   2.926  0.5918  0.3004  0.0934
  252MOL0     C33898   9.533   7.489   2.901 -0.2643 -0.5026 -0.5065
  252MOL0     C33899   9.674   7.461   2.942 -0.0430  0.4168  0.4692
  252MOL0     C33900   9.701   7.311   2.924  0.3670  0.4271  0.2864
  252MOL0     C33901   9.719   7.272   2.777  0.0806  0.6967  0.4983
  252MOL0     N33902   9.743   7.127   2.755 -0.2363 -0.4600  0.3811
  252MOL0     C33903   9.857   7.060   2.792 -0.2969  0.5301 -0.3160
  252MOL0     C33904   9.850   6.941   2.733  0.6689  0.3106  0.8242
  252MOL0     C33905   9.942   6.825   2.740 -1.2073 -0.1702 -0.1733
  252MOL0     C33906   9.901   6.698   2.659 -0.2666  0.5624 -0.2881
  252MOL0     C33907   9.914   6.718   2.510 -0.6637  0.1834  0.4103
  252MOL0     C33908   9.888   6.580   2.437 -0.5779 -1.0455 -0.4296
  252MOL0     O33909   9.966   6.460   2.488 -0.3788 -0.8082  0.2099
  252MOL0     C33910   9.908   6.347   2.538 -0.2507 -0.4587  0.4607
  252MOL0     C33911   9.962   6.218   2.527  0.3095  0.2282  0.2200
  252MOL0     C33912   9.894   6.112   2.592 -0.0116 -0.1252 -0.1665
  252MOL0     C33913   9.763   6.119   2.654 -0.0276 -0.0775  0.2044
  252MOL0     C33914   9.699   5.989   2.703 -0.7182  0.6205 -0.1573
  252MOL0     O33915   9.624   6.006   2.815  0.1167 -0.7916 -0.0280
  252MOL0     C33916   9.570   5.898   2.877 -0.1134  0.5381 -0.1108
  252MOL0     C33917   9.641   5.800   2.958 -0.2486  0.0107  0.4617
  252MOL0     C33918   9.573   5.702   3.019  0.0983  0.7753 -0.0976
  252MOL0     C33919   9.436   5.692   3.021 -0.3782  0.1582 -0.5483
  252MOL0     O33920   9.390   5.581   3.089  0.2674 -0.5763  0.1581
  252MOL0     C33921   9.253   5.556   3.090  0.1418  0.2862  0.2183
  252MOL0     C33922   9.225   5.411   3.148 -0.6421 -0.3681  0.6665
  252MOL0     C33923   9.306   5.397   3.279 -0.0334 -0.0258  0.6934
  252MOL0     C33924   9.233   5.464   3.395 -0.1346 -0.7980  0.4542
  252MOL0     C33925   9.316   5.456   3.519  0.3768 -0.0511  0.2903
  252MOL0     C33926   9.234   5.498   3.640 -0.5098  0.2620  0.1885
  252MOL0     C33927   9.333   5.468   3.752  0.3213  0.0694  0.3294
  252MOL0     C33928   9.286   5.524   3.886 -0.6293  0.6768  0.0049
  252MOL0    Cl33929   9.166   5.410   3.966 -0.2520  0.1453 -0.2387
  252MOL0     C33930   9.362   5.783   2.954  0.1161 -1.0639  0.5341
  252MOL0     C33931   9.428   5.895   2.883 -0.4772 -0.9067  0.6784
  252MOL0     O33932   9.704   5.885   2.637  0.1283 -1.0928 -0.3000
  252MOL0     C33933   9.708   6.250   2.656  0.1328 -0.5315 -0.2185
  252MOL0     C33934   9.776   6.360   2.600 -0.4792 -0.5884  0.0818
  252MOL0     N33935   9.735   6.934   2.653 -0.0354  0.1585  0.4433
  252MOL0     N33936   9.668   7.039   2.680  0.3309  0.0495  0.1580
  252MOL0     C33937   9.579   8.315   2.689  0.0198 -0.1915  0.4587
  252MOL0     C33938   9.667   8.421   2.654  0.2042  0.0851 -0.4594
  252MOL0     C33939   9.924   8.692   2.412  0.4891  0.0612  0.5502
  252MOL0     C33940  10.062   8.694   2.452  0.1894  0.4587  0.2097
  252MOL0     C33941  10.151   8.800   2.426 -0.8510 -0.7968  0.0929
  252MOL0     C33942  10.101   8.925   2.376  0.4195  0.2894  0.3683
  252MOL0     O33943  10.189   9.030   2.385  0.2781 -0.9133 -0.4455
  252MOL0     C33944  10.193   9.121   2.269  0.0827  0.6474  0.4822
  252MOL0     C33945  10.220   9.055   2.133 -0.5911  1.5449 -0.7212
  252MOL0     C33946  10.253   9.145   2.018 -0.0270  0.6975 -0.7997
  252MOL0     C33947  10.141   9.241   1.978 -0.0372  0.8700  0.8101
  252MOL0     C33948  10.144   9.356   2.067 -0.4939  0.2777 -0.3532
  252MOL0     C33949  10.162   9.436   2.156 -0.0676  0.0865 -0.9620
  252MOL0     C33950   9.965   8.921   2.327 -0.0259  0.5472 -0.5045
  252MOL0     C33951   9.874   8.809   2.350 -0.2720  0.3269  1.1866
  252MOL0     C33952   9.722   8.820   2.306  0.1955 -0.3928 -0.6095
  252MOL0     H33953   9.926   8.211   2.539 -0.4584  2.0014 -1.0952
  252MOL0     H33954   9.788   8.048   2.599  0.7047  0.7836  0.2078
  252MOL0     H33955   9.633   7.914   2.663  1.1851  2.4847 -0.9118
  252MOL0     H33956   9.676   7.981   2.811  1.4395  1.1195 -1.6387
  252MOL0     H33957   9.402   7.859   2.783  0.3161 -1.4916 -1.0352
  252MOL0     H33958   9.488   7.911   2.927 -0.8022 -1.6058  0.1949
  252MOL0     H33959   9.674   7.738   2.869 -0.2508 -1.5155  1.6604
  252MOL0     H33960   9.584   7.701   2.727  0.3995  1.7948  0.1081
  252MOL0     H33961   9.518   7.669   3.030  2.0620  0.6621 -0.1842
  252MOL0     H33962   9.396   7.655   2.920  0.9603  2.9882  0.3205
  252MOL0     H33963   9.475   7.417   2.960  0.4840 -2.0617 -1.6001
  252MOL0     H33964   9.510   7.470   2.796  0.5941 -0.4957 -0.7073
  252MOL0     H33965   9.728   7.526   2.874 -1.2596 -0.4379 -1.3898
  252MOL0     H33966   9.695   7.498   3.043 -2.1149  3.7264 -0.1592
  252MOL0     H33967   9.615   7.250   2.955 -0.6515  3.2006  3.4661
  252MOL0     H33968   9.795   7.298   2.978  1.2451 -1.3920 -1.5111
  252MOL0     H33969   9.633   7.300   2.716  1.0430 -1.6587 -2.1686
  252MOL0     H33970   9.803   7.330   2.736 -0.7857  1.4515 -0.2523
  252MOL0     H33971   9.940   7.091   2.854  1.3627 -2.3959 -0.8740
  252MOL0     H33972  10.045   6.850   2.711 -2.0542  1.7926 -1.8029
  252MOL0     H33973   9.949   6.791   2.843  0.0134  1.2833  0.2476
  252MOL0     H33974   9.969   6.617   2.686  0.3521  1.0339 -0.4027
  252MOL0     H33975   9.800   6.664   2.682  0.3438 -1.8570 -0.8975
  252MOL0     H33976  10.015   6.758   2.495 -1.3178  3.0595  2.8946
  252MOL0     H33977   9.841   6.792   2.476 -0.9094 -0.0158  0.4982
  252MOL0     H33978   9.929   6.601   2.338 -1.2522  1.1448 -0.3007
  252MOL0     H33979   9.785   6.548   2.422 -0.1549 -2.2689 -0.8715
  252MOL0     H33980  10.051   6.193   2.469  0.9604  1.8380  0.4813
  252MOL0     H33981   9.943   6.015   2.592  1.4693  0.6101 -0.0488
  252MOL0     H33982   9.747   5.808   2.976 -0.8847  1.6681  4.5784
  252MOL0     H33983   9.615   5.638   3.095 -0.2551  0.0972 -0.4673
  252MOL0     H33984   9.198   5.631   3.148 -0.6150  0.1644 -0.3281
  252MOL0     H33985   9.206   5.560   2.992 -1.2864  0.8363  0.8964
  252MOL0     H33986   9.118   5.394   3.163 -0.9303  0.4965 -0.3113
  252MOL0     H33987   9.261   5.339   3.074  2.2682  0.5750  1.0448
  252MOL0     H33988   9.306   5.290   3.304  2.0635 -0.1414  0.3688
  252MOL0     H33989   9.406   5.441   3.272  0.1602 -0.7471 -2.6234
  252MOL0     H33990   9.131   5.428   3.415 -0.5329 -0.4072 -0.7910
  252MOL0     H33991   9.211   5.566   3.362 -1.1940 -0.8538  0.9386
  252MOL0     H33992   9.407   5.515   3.506 -1.0475  2.5027  1.2056
  252MOL0     H33993   9.356   5.354   3.524  1.7881  0.2622 -2.6852
  252MOL0     H33994   9.209   5.603   3.624 -3.2080 -0.4008 -0.3892
  252MOL0     H33995   9.141   5.442   3.647 -1.8487  1.6666 -3.8037
  252MOL0     H33996   9.436   5.490   3.723  0.7293 -1.9681  0.0554
  252MOL0     H33997   9.329   5.359   3.753 -4.7350 -0.2052 -4.3935
  252MOL0     H33998   9.373   5.533   3.951 -0.7919  0.5338  0.2403
  252MOL0     H33999   9.235   5.621   3.881  1.6568  1.9294 -0.2595
  252MOL0     H34000   9.255   5.769   2.941  0.2365  0.2255 -2.5345
  252MOL0     H34001   9.357   5.970   2.849 -1.4912 -2.4307 -0.7149
  252MOL0     H34002   9.614   6.265   2.709 -0.7063 -2.1620 -1.1604
  252MOL0     H34003   9.724   6.454   2.610  1.2549  0.8021 -2.8327
  252MOL0     H34004   9.481   8.336   2.731 -0.4241 -3.5594  1.3841
  252MOL0     H34005   9.649   8.527   2.673  0.2858 -0.2224  1.4847
  252MOL0     H34006  10.101   8.599   2.487 -0.0375 -1.4609 -4.1475
  252MOL0     H34007  10.255   8.803   2.458 -0.1430  0.6279 -2.1201
  252MOL0     H34008  10.260   9.206   2.282  1.3562 -0.4205  1.1083
  252MOL0     H34009  10.096   9.168   2.248 -0.9628 -1.9019 -0.7960
  252MOL0     H34010  10.131   8.994   2.113  1.7968 -2.3949 -0.4641
  252MOL0     H34011  10.295   8.976   2.142 -0.7912  0.7533 -4.5667
  252MOL0     H34012  10.277   9.077   1.935 -2.9688  0.6253 -1.6870
  252MOL0     H34013  10.347   9.200   2.032 -0.3231  0.9082  0.5375
  252MOL0     H34014  10.165   9.281   1.879 -2.6386  2.8390  0.8494
  252MOL0     H34015  10.044   9.191   1.966  1.8724 -2.7134 -1.2604
  252MOL0     H34016  10.172   9.516   2.226 -0.8294 -1.4619  1.0214
  252MOL0     H34017   9.928   9.019   2.297  0.8119  0.7406 -0.9445
  252MOL0     H34018   9.720   8.919   2.261  1.1920 -0.6002 -1.1459
  252MOL0     H34019   9.698   8.758   2.219 -1.9621 -2.1552  1.1090
  252MOL0     H34020   9.641   8.792   2.374  0.9580 -3.5226 -0.8188
  253MOL0     O34021   8.976   4.011  10.106  0.0829 -1.1905 -0.0120
  253MOL0     C34022   8.925   4.086  10.184  0.3307  0.2708 -0.4296
  253MOL0     O34023   8.806   4.142  10.176 -0.1157 -0.8015  0.0109
  253MOL0     C34024   8.707   4.096  10.094  0.5507  0.5298  0.4946
  253MOL0     C34025   8.725   4.026   9.968  0.1723 -0.1948 -0.7081
  253MOL0     C34026   8.619   3.987   9.896 -0.1534 -0.5133 -0.1873
  253MOL0     C34027   8.491   4.014   9.933  0.8009 -1.0935 -0.4445
  253MOL0     O34028   8.388   3.980   9.848  0.4867  0.1810 -0.6728
  253MOL0     C34029   8.359   4.092   9.755 -0.2605  0.5628  0.2323
  253MOL0     C34030   8.229   4.048   9.678  0.3683 -0.2657 -0.6014
  253MOL0     C34031   8.115   3.991   9.771  0.0696 -0.3537  0.6100
  253MOL0     C34032   7.976   3.998   9.709  0.6377  0.5637  0.3189
  253MOL0     C34033   7.876   3.947   9.797 -0.0947 -0.5956 -0.4035
  253MOL0     C34034   7.900   3.804   9.832 -0.1460  0.1552 -0.9213
  253MOL0     C34035   7.783   3.758   9.910  0.8320  0.2949 -0.9169
  253MOL0     C34036   7.771   3.607   9.903 -0.0460  0.9084 -0.4881
  253MOL0     N34037   7.654   3.570   9.975 -0.3110  0.0275  0.2150
  253MOL0     C34038   7.649   3.516  10.108 -0.1424  0.2942 -0.1868
  253MOL0     C34039   7.524   3.489  10.134  0.0387 -0.8484 -0.4544
  253MOL0     C34040   7.477   3.441  10.268  0.7974 -0.4153 -0.6451
  253MOL0     C34041   7.397   3.540  10.347  0.3340  0.3622  0.1276
  253MOL0     C34042   7.246   3.566  10.307 -0.2257  0.4186  0.4076
  253MOL0     C34043   7.172   3.672  10.390 -0.5686 -0.3234 -0.0352
  253MOL0     O34044   7.034   3.662  10.387 -0.0563  0.6609 -0.9314
  253MOL0     C34045   6.963   3.574  10.463 -0.6690 -1.0281 -0.4735
  253MOL0     C34046   6.848   3.528  10.400 -0.0431  0.8001 -1.1473
  253MOL0     C34047   6.757   3.438  10.469 -0.0571  0.0340 -0.0040
  253MOL0     C34048   6.789   3.393  10.603  0.4924 -0.6975  0.9414
  253MOL0     C34049   6.697   3.302  10.672  0.5274  0.8466 -0.2316
  253MOL0     O34050   6.737   3.253  10.794  0.0450  0.4898  0.8339
  253MOL0     C34051   6.652   3.169  10.859  0.2403 -0.4787  0.1550
  253MOL0     C34052   6.547   3.213  10.937 -0.2506 -0.4828 -0.2728
  253MOL0     C34053   6.472   3.121  11.008 -0.0141 -1.3217 -0.1151
  253MOL0     C34054   6.514   2.983  11.012 -0.5852  0.3970 -1.0160
  253MOL0     O34055   6.440   2.903  11.093  0.3706  0.2090  0.2347
  253MOL0     C34056   6.442   2.758  11.113 -0.6064 -0.1244  0.8501
  253MOL0     C34057   6.399   2.674  10.979  0.0855  0.2638 -0.4111
  253MOL0     C34058   6.249   2.684  10.959 -0.0963 -0.1954  0.8247
  253MOL0     C34059   6.214   2.623  10.818  0.2471  0.5986  0.2669
  253MOL0     C34060   6.258   2.475  10.796  0.0179 -0.0274 -0.2236
  253MOL0     C34061   6.196   2.428  10.672  0.2844 -0.4582 -0.2847
  253MOL0     C34062   6.209   2.283  10.655  0.4740 -0.2641  0.5930
  253MOL0     C34063   6.165   2.232  10.514 -0.3844 -0.5101 -0.2811
  253MOL0    Cl34064   6.208   2.065  10.494  0.8800 -0.2027 -0.2883
  253MOL0     C34065   6.624   2.949  10.939 -0.4612  0.2320  1.2674
  253MOL0     C34066   6.693   3.036  10.861 -0.9714 -0.2258 -0.2643
  253MOL0     O34067   6.583   3.282  10.620  0.6602 -0.1178 -0.6188
  253MOL0     C34068   6.912   3.434  10.663  0.0366 -0.1370  0.2548
  253MOL0     C34069   6.991   3.522  10.593 -0.8843  0.0462  0.0303
  253MOL0     N34070   7.451   3.520  10.025  0.0243 -0.0562 -0.2027
  253MOL0     N34071   7.520   3.578   9.932  0.0643 -0.1524  0.5231
  253MOL0     C34072   8.464   4.078  10.057 -0.0980  0.1732  0.5103
  253MOL0     C34073   8.574   4.124  10.133  0.1726 -0.2148 -0.1815
  253MOL0     C34074   8.997   4.111  10.315  1.0626 -1.3666 -1.1338
  253MOL0     C34075   8.918   4.137  10.428 -0.7546  0.0669 -0.0217
  253MOL0     C34076   8.969   4.157  10.556  0.6458  0.9978 -0.1443
  253MOL0     C34077   9.110   4.146  10.579  1.9362 -0.0238 -0.3575
  253MOL0     O34078   9.171   4.152  10.701 -0.1308  0.0718  1.0103
  253MOL0     C34079   9.094   4.185  10.826 -0.7405 -0.4608  0.8422
  253MOL0     C34080   9.167   4.156  10.967 -0.6051  0.0185 -0.2668
  253MOL0     C34081   9.274   4.257  10.991  0.1359 -0.1615 -0.6132
  253MOL0     C34082   9.345   4.224  11.120 -1.1440  0.0018 -0.6080
  253MOL0     C34083   9.460   4.315  11.133 -1.3348 -0.6370 -0.7563
  253MOL0     C34084   9.539   4.402  11.141  0.9546  0.4124  0.1084
  253MOL0     C34085   9.191   4.102  10.472  0.5492 -0.5462  0.8959
  253MOL0     C34086   9.138   4.096  10.343 -0.1208 -0.3271 -0.1412
  253MOL0     C34087   9.240   4.084  10.229  0.4812 -0.9946  0.2047
  253MOL0     H34088   8.822   4.007   9.924 -0.3074 -4.1625 -0.3902
  253MOL0     H34089   8.631   3.921   9.811 -1.7621  0.1278 -0.9563
  253MOL0     H34090   8.359   4.186   9.810  0.7879  0.6570  0.0891
  253MOL0     H34091   8.434   4.111   9.678  0.7969 -2.8836  0.2504
  253MOL0     H34092   8.248   3.959   9.618 -0.6176  0.5607 -2.2028
  253MOL0     H34093   8.207   4.134   9.614  2.9990 -0.9736 -2.6070
  253MOL0     H34094   8.124   4.043   9.867 -0.5948 -1.2032  1.1432
  253MOL0     H34095   8.137   3.890   9.808 -0.0888 -0.1853  1.1678
  253MOL0     H34096   7.960   4.104   9.683 -0.6275  0.6480  1.3289
  253MOL0     H34097   7.965   3.938   9.618  0.8098  2.3648 -0.9590
  253MOL0     H34098   7.871   4.018   9.880 -2.3964 -1.0442 -0.0735
  253MOL0     H34099   7.778   3.949   9.749  0.4014 -2.5033 -1.5780
  253MOL0     H34100   7.895   3.741   9.742 -4.1117  0.7508 -1.3224
  253MOL0     H34101   7.989   3.779   9.890 -1.0425  1.2655  1.0078
  253MOL0     H34102   7.690   3.799   9.870  1.1726  0.4978 -1.5164
  253MOL0     H34103   7.807   3.766  10.016  3.0854 -0.0194 -1.3395
  253MOL0     H34104   7.771   3.561   9.804  2.3664 -4.0239  1.4522
  253MOL0     H34105   7.855   3.561   9.955 -0.7632  2.1660  1.9020
  253MOL0     H34106   7.728   3.497  10.180 -0.5178  1.5148  0.5736
  253MOL0     H34107   7.424   3.346  10.260 -0.0016  0.1315 -2.3447
  253MOL0     H34108   7.571   3.420  10.320  0.6597  1.2018  0.3337
  253MOL0     H34109   7.381   3.493  10.445  0.1454 -2.0536 -0.9822
  253MOL0     H34110   7.449   3.635  10.361 -2.0898  1.4778  2.3532
  253MOL0     H34111   7.194   3.470  10.317 -1.6531  1.0562 -0.5499
  253MOL0     H34112   7.244   3.598  10.202 -1.7499 -2.5151 -0.5759
  253MOL0     H34113   7.188   3.770  10.344 -1.5055 -1.9654 -4.2814
  253MOL0     H34114   7.201   3.675  10.495 -0.5621  0.5418 -0.0563
  253MOL0     H34115   6.832   3.542  10.293 -1.2055 -1.2314 -1.2935
  253MOL0     H34116   6.664   3.401  10.428 -0.4735 -1.4080  2.0848
  253MOL0     H34117   6.512   3.316  10.936  1.6563  0.2275  0.4117
  253MOL0     H34118   6.381   3.135  11.066  1.5669 -3.4946  3.2374
  253MOL0     H34119   6.544   2.734  11.145  0.2337  1.8123 -0.2050
  253MOL0     H34120   6.378   2.739  11.199 -1.2722  0.5045  0.5065
  253MOL0     H34121   6.448   2.704  10.886 -3.2788 -2.5518 -3.4200
  253MOL0     H34122   6.425   2.569  10.993  0.1740  0.3243 -0.1226
  253MOL0     H34123   6.192   2.628  11.033 -2.1680  0.6933 -0.0234
  253MOL0     H34124   6.222   2.790  10.957 -3.1924 -0.9032 -0.5076
  253MOL0     H34125   6.260   2.676  10.734 -0.6540  1.6735  0.4271
  253MOL0     H34126   6.105   2.617  10.804  0.1763 -0.0201  1.0200
  253MOL0     H34127   6.236   2.398  10.870 -0.5230 -0.5432 -0.9067
  253MOL0     H34128   6.365   2.465  10.779  0.5836  0.0324  2.7060
  253MOL0     H34129   6.091   2.456  10.684  0.4334 -0.9116  3.0147
  253MOL0     H34130   6.247   2.472  10.586 -3.0937 -2.0460 -3.3893
  253MOL0     H34131   6.144   2.231  10.725 -2.2763  0.2364 -1.4064
  253MOL0     H34132   6.314   2.256  10.665  0.6025 -0.1184 -0.2327
  253MOL0     H34133   6.059   2.256  10.503 -0.5574  0.3817  2.6304
  253MOL0     H34134   6.203   2.298  10.435 -1.1772  2.6964  1.8199
  253MOL0     H34135   6.653   2.846  10.953 -2.2698  0.0642  5.0711
  253MOL0     H34136   6.772   2.998  10.796 -1.7354 -5.3464  1.3414
  253MOL0     H34137   6.942   3.401  10.762 -0.6422  1.9701  1.2175
  253MOL0     H34138   7.076   3.565  10.645 -1.9427  0.4896  1.4535
  253MOL0     H34139   8.360   4.091  10.086 -0.6826  0.7322 -1.6395
  253MOL0     H34140   8.556   4.172  10.229  0.3934  1.3065 -0.8701
  253MOL0     H34141   8.816   4.173  10.419  0.8882  5.3071 -1.0941
  253MOL0     H34142   8.914   4.178  10.647 -0.5517 -1.8255 -0.0838
  253MOL0     H34143   8.995   4.140  10.828 -2.1837  2.4363  2.9077
  253MOL0     H34144   9.074   4.293  10.835  1.0889 -0.1984  2.3906
  253MOL0     H34145   9.213   4.057  10.966 -0.0917  0.2085 -2.8891
  253MOL0     H34146   9.097   4.170  11.049  2.7047  0.3914  2.7561
  253MOL0     H34147   9.228   4.355  10.979 -1.2296 -0.8522 -1.2640
  253MOL0     H34148   9.345   4.248  10.908  1.9870  0.0812  0.8626
  253MOL0     H34149   9.266   4.244  11.193 -1.0056 -0.3379 -0.3616
  253MOL0     H34150   9.373   4.118  11.125 -0.0916  0.3507  2.2988
  253MOL0     H34151   9.613   4.475  11.167  5.2522 -2.8377 -1.8367
  253MOL0     H34152   9.298   4.084  10.477  0.6607  0.3556  2.4994
  253MOL0     H34153   9.346   4.070  10.255  2.0648 -0.1872 -4.6937
  253MOL0     H34154   9.213   3.991  10.177  1.1100 -1.2843  0.3870
  253MOL0     H34155   9.246   4.168  10.159  0.2807 -2.6002 -1.8266
  254MOL0     O34156   4.574   0.725   1.361  0.3023 -0.3320  0.3688
  254MOL0     C34157   4.531   0.613   1.390 -0.2829 -1.0358  0.3614
  254MOL0     O34158   4.397   0.585   1.403  0.1030  0.3360 -0.0287
  254MOL0     C34159   4.310   0.694   1.393 -0.0680  0.8724  1.6981
  254MOL0     C34160   4.233   0.720   1.272  0.4020 -0.6886 -0.3979
  254MOL0     C34161   4.120   0.811   1.276  0.4892  0.6343 -0.1581
  254MOL0     C34162   4.094   0.884   1.398 -0.4380  0.3073 -0.1228
  254MOL0     O34163   3.993   0.973   1.401 -0.2729 -0.0903 -0.2882
  254MOL0     C34164   3.866   0.906   1.405 -0.0738 -0.6298 -0.0104
  254MOL0     C34165   3.761   1.013   1.427 -0.2731  0.0368 -0.6775
  254MOL0     C34166   3.733   1.050   1.570  0.0027 -0.3437 -0.7702
  254MOL0     C34167   3.622   0.977   1.639 -0.8897  0.4740 -0.3262
  254MOL0     C34168   3.591   1.037   1.784  0.2414  0.3619 -0.1156
  254MOL0     C34169   3.477   0.952   1.857 -1.0775 -0.0908 -0.4455
  254MOL0     C34170   3.338   0.997   1.815  0.7326 -0.0597  0.3435
  254MOL0     C34171   3.213   0.966   1.906  0.1232  0.1925  0.9581
  254MOL0     N34172   3.178   0.825   1.915  0.6751 -0.3781  0.6264
  254MOL0     C34173   3.218   0.743   2.019 -0.1417 -0.5553  0.1566
  254MOL0     C34174   3.133   0.634   2.010 -0.8651  0.6069 -0.4235
  254MOL0     C34175   3.109   0.517   2.106 -0.0339 -0.0196  0.5069
  254MOL0     C34176   3.237   0.446   2.133 -0.4165  0.4551  0.0142
  254MOL0     C34177   3.296   0.361   2.010  0.3638 -0.3613 -0.6038
  254MOL0     C34178   3.258   0.212   2.035  0.2274  0.3911  0.6643
  254MOL0     O34179   3.273   0.143   1.908  0.3007 -0.2287  0.1305
  254MOL0     C34180   3.179   0.170   1.804  1.1353  0.7592 -0.0682
  254MOL0     C34181   3.058   0.238   1.818 -0.2211 -0.4026  0.9957
  254MOL0     C34182   2.986   0.276   1.704  0.3007  0.7682  1.1290
  254MOL0     C34183   3.021   0.238   1.578  0.4558  0.6678 -0.2546
  254MOL0     C34184   2.927   0.254   1.466 -1.0428  0.2533 -0.2063
  254MOL0     O34185   2.965   0.239   1.338  0.4375 -1.1394  0.1733
  254MOL0     C34186   2.861   0.245   1.248 -0.4844  0.4333  0.0219
  254MOL0     C34187   2.826   0.369   1.200  1.0465 -0.4869  0.9566
  254MOL0     C34188   2.716   0.378   1.112  1.2670 -0.3489  0.3114
  254MOL0     C34189   2.646   0.265   1.069  0.0882  0.1041 -0.1892
  254MOL0     O34190   2.544   0.275   0.977 -0.1523 -0.0441  0.3721
  254MOL0     C34191   2.504   0.161   0.896  0.2940 -0.4038 -0.5372
  254MOL0     C34192   2.372   0.200   0.820 -0.2728 -0.0217 -0.1557
  254MOL0     C34193   2.284   0.080   0.772  0.7688  0.7501 -0.4403
  254MOL0     C34194   2.198   0.093   0.646 -0.5954 -0.0815  0.0466
  254MOL0     C34195   2.062   0.147   0.693  0.2914 -0.1136 -0.2970
  254MOL0     C34196   1.961   0.165   0.574 -0.0980 -0.9321  0.6332
  254MOL0     C34197   1.824   0.178   0.629 -0.2619 -0.1644 -0.5927
  254MOL0     C34198   1.796   0.322   0.649 -0.0743 -0.3923 -0.0672
  254MOL0    Cl34199   1.743   0.398   0.491 -0.5730  0.2891  0.3790
  254MOL0     C34200   2.681   0.144   1.132  1.1700 -0.0107 -0.3624
  254MOL0     C34201   2.787   0.137   1.219 -0.1224  1.1111  0.5744
  254MOL0     O34202   2.817   0.265   1.506 -0.7580  0.8523  0.0312
  254MOL0     C34203   3.141   0.175   1.566  0.4684  0.1536  0.1855
  254MOL0     C34204   3.215   0.142   1.676  0.4075 -0.0158  0.2825
  254MOL0     N34205   3.053   0.642   1.901 -0.1521  0.3680  0.4306
  254MOL0     N34206   3.079   0.757   1.844  0.5137 -1.1590 -0.0891
  254MOL0     C34207   4.178   0.868   1.497 -0.3765 -0.2014 -0.0799
  254MOL0     C34208   4.284   0.776   1.497  0.4676  0.7812 -0.0439
  254MOL0     C34209   4.629   0.509   1.433  0.3749  0.2796  0.1648
  254MOL0     C34210   4.573   0.378   1.476 -0.8237  0.2885 -0.9333
  254MOL0     C34211   4.666   0.274   1.517  0.3194 -0.4698 -0.3972
  254MOL0     C34212   4.805   0.296   1.515  0.3347  0.5779  0.8877
  254MOL0     O34213   4.885   0.201   1.575  0.1143 -0.6627  0.4320
  254MOL0     C34214   4.939   0.105   1.476  0.2909  0.4148 -0.0850
  254MOL0     C34215   5.063   0.144   1.393 -0.4986  0.1454  0.4519
  254MOL0     C34216   5.182   0.132   1.486  0.4897  0.2026 -0.6383
  254MOL0     C34217   5.325   0.143   1.421  0.7165 -0.0007 -0.5104
  254MOL0     C34218   5.434   0.099   1.506 -0.4077 -1.0329 -0.1315
  254MOL0     C34219   5.524   0.045   1.559 -0.6255  1.1837  0.5542
  254MOL0     C34220   4.857   0.420   1.475 -0.0767  0.0654 -0.0065
  254MOL0     C34221   4.773   0.531   1.436 -0.6371  0.6247 -0.5396
  254MOL0     C34222   4.842   0.659   1.392 -0.0859  0.9487 -0.2504
  254MOL0     H34223   4.255   0.667   1.180  0.4967  1.2200 -1.5501
  254MOL0     H34224   4.045   0.810   1.198 -0.4320 -3.4911  0.5633
  254MOL0     H34225   3.852   0.871   1.302 -2.2955 -1.3103  0.4608
  254MOL0     H34226   3.856   0.825   1.478 -2.5288 -0.1839  0.2457
  254MOL0     H34227   3.672   0.965   1.385  0.0375 -0.0384 -1.2627
  254MOL0     H34228   3.791   1.103   1.373  4.5713 -0.4957  0.6899
  254MOL0     H34229   3.717   1.158   1.577  0.0399 -0.2341 -2.1246
  254MOL0     H34230   3.822   1.032   1.630 -0.7009  0.5546  0.6018
  254MOL0     H34231   3.524   0.976   1.589  0.3147  1.5170 -2.8581
  254MOL0     H34232   3.661   0.876   1.655 -0.6837  0.6114  0.0460
  254MOL0     H34233   3.687   1.021   1.834  0.9090  4.2006  0.1056
  254MOL0     H34234   3.571   1.144   1.784 -0.2889  0.2815 -1.1035
  254MOL0     H34235   3.501   0.846   1.851  0.0302  0.0358  1.1183
  254MOL0     H34236   3.477   0.976   1.964  2.0359 -2.4756  0.2485
  254MOL0     H34237   3.304   0.954   1.721 -3.4562  2.3605  0.4889
  254MOL0     H34238   3.346   1.106   1.811  2.9858 -0.1542  0.8164
  254MOL0     H34239   3.240   1.005   2.005 -1.0053 -2.4783  2.4178
  254MOL0     H34240   3.133   1.033   1.873  4.2236  4.4783 -1.4929
  254MOL0     H34241   3.293   0.764   2.095  0.2558 -0.4734 -0.2505
  254MOL0     H34242   3.069   0.561   2.197  0.5557 -2.4787  2.0421
  254MOL0     H34243   3.036   0.439   2.083 -1.0552 -0.4658  4.5214
  254MOL0     H34244   3.318   0.513   2.162 -1.1210 -0.4297  4.7438
  254MOL0     H34245   3.228   0.384   2.222  2.2066  2.8990  2.1828
  254MOL0     H34246   3.405   0.375   2.006  0.0161  3.0417 -1.8746
  254MOL0     H34247   3.244   0.385   1.917 -0.8683 -3.7732 -0.9366
  254MOL0     H34248   3.156   0.198   2.073 -0.0776  1.1531  0.1578
  254MOL0     H34249   3.331   0.166   2.103  0.5722  1.4358  1.0304
  254MOL0     H34250   3.025   0.271   1.916 -1.7033 -0.3732  0.5235
  254MOL0     H34251   2.889   0.323   1.719 -0.4823 -0.7549  1.0539
  254MOL0     H34252   2.879   0.457   1.234  1.5133 -1.2541  2.2677
  254MOL0     H34253   2.693   0.475   1.070  1.5308 -0.9356 -1.2496
  254MOL0     H34254   2.578   0.124   0.824  1.4692  1.6566 -0.4371
  254MOL0     H34255   2.478   0.078   0.963  2.8974 -0.5410  0.4004
  254MOL0     H34256   2.308   0.265   0.881 -2.2070 -2.4063  0.5376
  254MOL0     H34257   2.393   0.258   0.730 -2.9401 -1.4441 -1.8258
  254MOL0     H34258   2.361   0.008   0.743  2.4216  2.4854 -0.4991
  254MOL0     H34259   2.225   0.049   0.859 -0.9162  1.6287 -1.2258
  254MOL0     H34260   2.195  -0.003   0.593  4.0914  0.0335 -0.9170
  254MOL0     H34261   2.241   0.169   0.580 -0.9153  0.8707  0.9081
  254MOL0     H34262   2.076   0.242   0.746 -0.4199  0.0874 -0.4487
  254MOL0     H34263   2.021   0.073   0.761  1.5341 -1.2062 -0.6950
  254MOL0     H34264   1.997   0.242   0.505 -0.5022 -1.2278  0.0810
  254MOL0     H34265   1.964   0.069   0.522  2.2501 -0.2173 -0.6611
  254MOL0     H34266   1.807   0.130   0.727 -1.1023  1.0163 -0.1395
  254MOL0     H34267   1.744   0.138   0.567 -0.5484  0.0572 -0.3707
  254MOL0     H34268   1.709   0.334   0.715 -0.5314  0.4559 -0.7998
  254MOL0     H34269   1.883   0.374   0.691 -0.9715  1.7139 -0.6589
  254MOL0     H34270   2.612   0.063   1.113  1.0106 -0.6987  2.6434
  254MOL0     H34271   2.818   0.043   1.264  2.5553  1.3053 -0.6546
  254MOL0     H34272   3.171   0.134   1.471  0.5297  1.3812 -0.3444
  254MOL0     H34273   3.305   0.086   1.655  0.6352  0.4919 -0.1194
  254MOL0     H34274   4.165   0.928   1.586 -1.7613 -0.7739  0.1411
  254MOL0     H34275   4.330   0.766   1.596 -0.3603  3.6672  0.7236
  254MOL0     H34276   4.467   0.359   1.487 -0.4653 -0.9105  1.1221
  254MOL0     H34277   4.633   0.174   1.542 -3.6248  0.5335 -1.0054
  254MOL0     H34278   4.856   0.084   1.407 -0.2827  3.1847 -0.3730
  254MOL0     H34279   4.953   0.008   1.524  3.2915 -0.0121 -1.5565
  254MOL0     H34280   5.056   0.241   1.343 -2.1817  0.5193  1.3365
  254MOL0     H34281   5.069   0.072   1.311  2.5527  2.0438 -1.2014
  254MOL0     H34282   5.166   0.031   1.526  1.7531  0.3742  0.3569
  254MOL0     H34283   5.182   0.199   1.573  1.8812  0.7417 -1.0294
  254MOL0     H34284   5.331   0.107   1.318 -0.0817 -1.7583  0.0193
  254MOL0     H34285   5.349   0.250   1.422 -0.0099  0.2826  3.2603
  254MOL0     H34286   5.603  -0.010   1.605  0.2714  0.3258 -1.8360
  254MOL0     H34287   4.964   0.432   1.487  0.0093  2.6658 -2.3784
  254MOL0     H34288   4.948   0.643   1.415 -0.2911 -0.7207 -0.3354
  254MOL0     H34289   4.831   0.676   1.285  0.8007 -0.0367 -0.5081
  254MOL0     H34290   4.805   0.747   1.447  1.5774  1.4080  0.1873
  255MOL0     O34291   9.988   7.752   6.073  0.1225 -0.2451  0.3956
  255MOL0     C34292   9.898   7.738   5.993 -0.8720  0.6325  0.5834
  255MOL0     O34293   9.773   7.790   6.004  0.8337 -0.5632 -0.3703
  255MOL0     C34294   9.747   7.851   6.126 -0.0149 -0.3611 -0.1069
  255MOL0     C34295   9.711   7.991   6.123  0.5490  0.2408 -0.3504
  255MOL0     C34296   9.673   8.064   6.236  0.4083 -0.4392  0.1848
  255MOL0     C34297   9.669   7.993   6.364  0.3374  0.3766 -0.0145
  255MOL0     O34298   9.632   8.068   6.472 -0.2088  0.5480  0.1247
  255MOL0     C34299   9.689   8.043   6.599  0.4662  0.1471 -0.1366
  255MOL0     C34300   9.690   8.170   6.693  0.7654  0.5846 -0.2147
  255MOL0     C34301   9.549   8.214   6.728  0.5200  0.9015 -0.7374
  255MOL0     C34302   9.496   8.297   6.611 -0.3400  0.5808  0.0592
  255MOL0     C34303   9.397   8.398   6.667  0.5264  0.2075 -0.0485
  255MOL0     C34304   9.288   8.339   6.775 -0.1197  0.7718  0.0922
  255MOL0     C34305   9.187   8.446   6.795  0.4452 -0.4121  0.2998
  255MOL0     C34306   9.066   8.406   6.876 -0.6527  0.3170  0.6206
  255MOL0     N34307   8.998   8.286   6.824  0.2225 -0.4160 -0.4559
  255MOL0     C34308   8.998   8.160   6.887 -1.1663 -0.7162  0.1007
  255MOL0     C34309   8.950   8.068   6.795 -0.3536 -0.1651  0.6807
  255MOL0     C34310   8.963   7.923   6.793  0.2109  0.1988 -0.5479
  255MOL0     C34311   9.088   7.891   6.707  0.3953 -0.3238  0.5533
  255MOL0     C34312   9.142   7.741   6.720  0.1559 -0.0776  0.5570
  255MOL0     C34313   9.293   7.736   6.703 -0.0097 -0.4057 -0.0172
  255MOL0     O34314   9.352   7.810   6.810  0.0651 -0.5072  0.7756
  255MOL0     C34315   9.487   7.801   6.823 -0.0222 -0.9779 -0.0437
  255MOL0     C34316   9.567   7.727   6.733 -0.7556  0.6054 -0.6007
  255MOL0     C34317   9.706   7.712   6.756 -0.4270  0.5407  0.6780
  255MOL0     C34318   9.773   7.783   6.848  0.2295 -0.6382 -0.6013
  255MOL0     C34319   9.919   7.761   6.862  0.2535  0.1539 -0.4696
  255MOL0     O34320   9.967   7.636   6.825 -0.3057 -0.7071  0.3391
  255MOL0     C34321  10.104   7.613   6.840 -0.1185  1.1526  0.1278
  255MOL0     C34322  10.163   7.569   6.958 -0.8880  0.3643  1.3748
  255MOL0     C34323  10.295   7.508   6.954  0.1046  0.7087 -0.2346
  255MOL0     C34324  10.369   7.506   6.835 -1.0781 -0.2296  0.3304
  255MOL0     O34325  10.494   7.455   6.807  0.7773 -0.0128 -1.0701
  255MOL0     C34326  10.559   7.398   6.928  0.4593  0.1886 -0.1250
  255MOL0     C34327  10.690   7.328   6.901  0.7312  0.0051  0.3163
  255MOL0     C34328  10.762   7.371   6.778 -0.1466  0.6200  0.8630
  255MOL0     C34329  10.895   7.294   6.750 -0.0782  1.2794 -0.7311
  255MOL0     C34330  10.962   7.357   6.631  0.7796  0.2126  0.4079
  255MOL0     C34331  11.106   7.327   6.650 -1.0373 -0.3813  0.7140
  255MOL0     C34332  11.153   7.182   6.621  0.4452 -0.6303  0.3928
  255MOL0     C34333  11.300   7.161   6.669 -0.7076 -0.1529 -0.7439
  255MOL0    Cl34334  11.336   7.162   6.848 -0.2290  0.4003  0.3373
  255MOL0     C34335  10.309   7.559   6.717  0.4629 -0.2726  0.6846
  255MOL0     C34336  10.179   7.600   6.731 -0.4469  0.0058  0.7567
  255MOL0     O34337   9.984   7.857   6.892  0.0950 -1.3487  0.8698
  255MOL0     C34338   9.692   7.869   6.927  0.2097  0.0865 -0.2821
  255MOL0     C34339   9.550   7.879   6.910  0.4863  1.3871  0.7886
  255MOL0     N34340   8.907   8.149   6.681 -0.2109  0.5653 -0.1618
  255MOL0     N34341   8.947   8.263   6.700 -0.4156  0.1882  0.0225
  255MOL0     C34342   9.704   7.857   6.365 -0.6463 -0.4479  0.0778
  255MOL0     C34343   9.740   7.782   6.251  0.5443 -0.8626  0.1333
  255MOL0     C34344   9.928   7.672   5.868 -0.9940 -0.0513  0.3572
  255MOL0     C34345   9.830   7.692   5.764  1.1914  0.3317  0.1259
  255MOL0     C34346   9.834   7.603   5.658 -0.3013 -0.5919  0.4458
  255MOL0     C34347   9.931   7.511   5.637 -0.0914  1.1314  0.0956
  255MOL0     O34348   9.919   7.436   5.522 -0.3594 -0.0326  0.1579
  255MOL0     C34349   9.797   7.364   5.491 -0.1229 -0.7883  0.9337
  255MOL0     C34350   9.816   7.279   5.365  0.3248  1.3488 -0.3327
  255MOL0     C34351   9.939   7.189   5.374 -0.7004  0.1373 -0.2294
  255MOL0     C34352   9.949   7.065   5.285 -0.1521  0.3131 -0.1219
  255MOL0     C34353  10.063   6.976   5.305 -0.0516  1.1888 -0.3103
  255MOL0     C34354  10.151   6.903   5.327 -0.5955  0.3499  0.5916
  255MOL0     C34355  10.029   7.492   5.735  0.6690 -0.6977 -0.8529
  255MOL0     C34356  10.029   7.576   5.853  0.4116  0.3628 -0.2737
  255MOL0     C34357  10.141   7.551   5.961 -0.4749  0.2218  0.4293
  255MOL0     H34358   9.699   8.034   6.024 -2.6358 -1.0101 -0.6442
  255MOL0     H34359   9.652   8.169   6.224  2.4461  0.3244  2.3885
  255MOL0     H34360   9.618   7.973   6.642  0.1742 -0.0915 -0.9992
  255MOL0     H34361   9.791   8.003   6.596  1.0250  1.5078 -0.1978
  255MOL0     H34362   9.750   8.252   6.654 -0.2522  2.2447  1.5260
  255MOL0     H34363   9.730   8.137   6.789 -0.8040 -2.1311 -0.3856
  255MOL0     H34364   9.550   8.283   6.812 -0.7863  2.0472 -1.6164
  255MOL0     H34365   9.479   8.136   6.759 -0.7268  2.3223  0.1507
  255MOL0     H34366   9.569   8.357   6.555 -2.4160  1.2729 -2.0685
  255MOL0     H34367   9.445   8.224   6.547 -1.6892 -1.0757  2.8466
  255MOL0     H34368   9.447   8.475   6.726 -0.0210  3.0422 -3.0133
  255MOL0     H34369   9.339   8.460   6.598 -1.9741  1.0753  2.6317
  255MOL0     H34370   9.247   8.249   6.728  1.2891 -0.0345  0.3303
  255MOL0     H34371   9.330   8.322   6.874  0.3424 -0.1861 -0.2560
  255MOL0     H34372   9.140   8.486   6.705 -4.6091  3.9578  4.2027
  255MOL0     H34373   9.239   8.525   6.850 -0.4455 -1.5477  2.9502
  255MOL0     H34374   9.097   8.394   6.981 -2.0757  0.5972  1.0876
  255MOL0     H34375   9.001   8.494   6.876  1.5914  2.0974  0.3765
  255MOL0     H34376   9.037   8.126   6.982 -0.9407  1.8637  1.0188
  255MOL0     H34377   8.954   7.881   6.894 -0.6571  1.1182 -0.2278
  255MOL0     H34378   8.876   7.880   6.742  1.0573  2.1164 -3.9121
  255MOL0     H34379   9.067   7.909   6.601 -2.3815 -2.5599  0.6150
  255MOL0     H34380   9.165   7.963   6.738  0.2153  0.4635 -0.7416
  255MOL0     H34381   9.080   7.682   6.652  1.1508  0.4083 -0.8212
  255MOL0     H34382   9.128   7.700   6.820 -1.1331 -1.1136 -0.0179
  255MOL0     H34383   9.327   7.784   6.611 -3.7311 -0.5968 -1.6686
  255MOL0     H34384   9.325   7.632   6.712 -1.0324 -0.7066  0.2016
  255MOL0     H34385   9.516   7.674   6.653 -0.5927  0.0354 -0.3302
  255MOL0     H34386   9.764   7.639   6.700  1.2459  2.8879 -0.8251
  255MOL0     H34387  10.105   7.567   7.050 -0.4956 -0.7842  1.6208
  255MOL0     H34388  10.332   7.485   7.053 -0.8859  2.6317  0.6436
  255MOL0     H34389  10.593   7.484   6.986 -1.7612  1.2911 -0.3325
  255MOL0     H34390  10.489   7.336   6.985 -1.6368  1.9263 -0.6700
  255MOL0     H34391  10.758   7.326   6.986  0.7576  2.3866  0.4096
  255MOL0     H34392  10.658   7.225   6.884 -0.7490  0.9514 -3.7835
  255MOL0     H34393  10.704   7.356   6.686 -0.2785  0.7137  0.9307
  255MOL0     H34394  10.773   7.480   6.788 -0.0667  0.9127 -1.7942
  255MOL0     H34395  10.883   7.186   6.733  0.0873  0.3052  3.9535
  255MOL0     H34396  10.954   7.306   6.842 -0.3197 -0.0841 -0.3744
  255MOL0     H34397  10.943   7.464   6.641  4.4933  0.9141  1.2008
  255MOL0     H34398  10.920   7.310   6.541 -1.6306  0.6518  1.2246
  255MOL0     H34399  11.142   7.383   6.563 -3.2414  0.4209  0.2754
  255MOL0     H34400  11.151   7.377   6.737  1.1217  3.8710 -2.4358
  255MOL0     H34401  11.168   7.162   6.515  3.2806 -2.0564  0.9654
  255MOL0     H34402  11.087   7.111   6.671  2.9059 -1.4869  2.6604
  255MOL0     H34403  11.331   7.074   6.612 -0.0950  0.8610 -2.0113
  255MOL0     H34404  11.359   7.242   6.625 -3.7357  0.5954 -3.8563
  255MOL0     H34405  10.349   7.552   6.617 -1.2316 -4.2041  0.0861
  255MOL0     H34406  10.148   7.635   6.633 -1.5648  1.9424  1.7553
  255MOL0     H34407   9.740   7.922   7.009  0.5793 -0.1527 -0.3418
  255MOL0     H34408   9.492   7.940   6.979 -1.5957 -0.3557  0.7123
  255MOL0     H34409   9.712   7.820   6.467  0.4137  1.7855  0.8811
  255MOL0     H34410   9.748   7.675   6.266 -1.9189 -0.7654  3.1175
  255MOL0     H34411   9.740   7.753   5.767 -1.4307 -3.2030 -0.2327
  255MOL0     H34412   9.768   7.610   5.572  1.1507  0.4937 -0.6396
  255MOL0     H34413   9.718   7.432   5.457  0.0771 -0.0945  1.8389
  255MOL0     H34414   9.765   7.307   5.579  1.5879 -2.7640  0.3489
  255MOL0     H34415   9.816   7.339   5.274 -0.4683  1.2772 -0.3868
  255MOL0     H34416   9.730   7.212   5.363  0.8739  0.6358 -0.8328
  255MOL0     H34417   9.950   7.153   5.477 -1.3814 -0.2691 -0.2900
  255MOL0     H34418  10.028   7.248   5.352 -0.2054 -0.8414 -0.8949
  255MOL0     H34419   9.859   7.003   5.287 -1.4087  1.8182 -3.1298
  255MOL0     H34420   9.947   7.101   5.182  1.1456 -1.7960 -0.9665
  255MOL0     H34421  10.215   6.818   5.333 -1.8339 -0.9230 -2.4369
  255MOL0     H34422  10.109   7.420   5.729  0.5846 -1.0225  1.2402
  255MOL0     H34423  10.092   7.503   6.046  0.1223 -1.2137 -0.0045
  255MOL0     H34424  10.215   7.488   5.911 -1.8555 -0.7406 -0.4786
  255MOL0     H34425  10.186   7.646   5.992  1.5508 -1.3703  2.6719
  256MOL0     O34426   0.267   6.232   7.273 -0.1693 -0.1948  0.2406
  256MOL0     C34427   0.234   6.271   7.385  0.9819  0.7913  1.2450
  256MOL0     O34428   0.100   6.275   7.430 -0.2723 -0.6205  0.4763
  256MOL0     C34429  -0.001   6.253   7.337  0.4785  0.3277  0.9209
  256MOL0     C34430  -0.126   6.308   7.359 -0.0628 -0.2905  0.7287
  256MOL0     C34431  -0.244   6.278   7.290  0.3821  1.1773  0.5704
  256MOL0     C34432  -0.242   6.186   7.178 -0.3566 -0.7572 -0.3695
  256MOL0     O34433  -0.354   6.143   7.120 -0.1414 -0.8902 -0.6533
  256MOL0     C34434  -0.475   6.216   7.130  0.0742  1.3536  0.2323
  256MOL0     C34435  -0.566   6.155   7.240  0.4248 -0.4555  0.4175
  256MOL0     C34436  -0.705   6.208   7.240  0.0037 -1.1909 -0.4598
  256MOL0     C34437  -0.763   6.208   7.378 -0.6724 -1.2324 -0.9499
  256MOL0     C34438  -0.742   6.342   7.470 -0.3805  0.4268  0.1851
  256MOL0     C34439  -0.835   6.458   7.421 -0.8483 -0.4547  0.4009
  256MOL0     C34440  -0.798   6.592   7.485  0.7387  0.4327 -0.6824
  256MOL0     C34441  -0.907   6.696   7.452 -0.8047  0.6275 -0.3778
  256MOL0     N34442  -0.878   6.824   7.523  1.0998 -0.0748  0.3095
  256MOL0     C34443  -0.816   6.933   7.462 -0.1453 -0.5551 -1.2013
  256MOL0     C34444  -0.760   6.993   7.572  0.8433 -0.0792  0.8092
  256MOL0     C34445  -0.661   7.106   7.562 -0.2850  0.9391 -0.2826
  256MOL0     C34446  -0.535   7.086   7.484  0.0003 -0.9400  0.2508
  256MOL0     C34447  -0.464   7.226   7.489 -0.5417 -0.7044  0.5325
  256MOL0     C34448  -0.337   7.231   7.391  0.2288 -0.7670 -0.0834
  256MOL0     O34449  -0.244   7.127   7.416  0.5476  0.1486  0.7152
  256MOL0     C34450  -0.131   7.141   7.484  0.7648  0.6922 -0.3464
  256MOL0     C34451  -0.124   7.213   7.603 -0.4920  0.2829  0.4009
  256MOL0     C34452  -0.001   7.239   7.662 -0.0452 -0.0805  0.1839
  256MOL0     C34453   0.114   7.178   7.612 -0.0566  0.1294 -0.1340
  256MOL0     C34454   0.250   7.181   7.684 -0.5002  0.0384  0.9494
  256MOL0     O34455   0.268   7.303   7.747  0.8281 -0.0222  0.5800
  256MOL0     C34456   0.396   7.328   7.784 -0.2312 -0.3145 -0.0643
  256MOL0     C34457   0.477   7.417   7.719 -0.0413  0.6817 -0.1782
  256MOL0     C34458   0.606   7.451   7.767 -0.0164 -0.0154 -0.0647
  256MOL0     C34459   0.662   7.365   7.869  0.0212 -0.2984  0.8647
  256MOL0     O34460   0.790   7.399   7.907  0.4390  0.7461 -0.2082
  256MOL0     C34461   0.825   7.373   8.035 -0.3480 -0.0473  0.3407
  256MOL0     C34462   0.918   7.499   8.068  0.0805 -0.1446 -0.0183
  256MOL0     C34463   0.948   7.511   8.222 -0.3120 -0.0641  0.5603
  256MOL0     C34464   1.023   7.651   8.250  0.4202  0.1679  0.4982
  256MOL0     C34465   1.037   7.673   8.402  0.5147  0.5561 -0.0527
  256MOL0     C34466   1.088   7.814   8.426 -0.5509 -0.7467 -0.0043
  256MOL0     C34467   1.224   7.843   8.354 -0.7490 -0.8490  0.4498
  256MOL0     C34468   1.315   7.957   8.422  0.1234  0.2430 -0.2029
  256MOL0    Cl34469   1.248   8.117   8.397  0.2943  0.0790  0.2835
  256MOL0     C34470   0.584   7.275   7.937  0.1914  0.3139  0.5042
  256MOL0     C34471   0.454   7.261   7.893  0.1021  0.8135 -0.4754
  256MOL0     O34472   0.334   7.088   7.668  0.5052 -0.1619  0.3665
  256MOL0     C34473   0.108   7.104   7.497 -0.3054  0.6780  0.8724
  256MOL0     C34474  -0.015   7.099   7.431  0.6952  0.4946 -0.2932
  256MOL0     N34475  -0.813   6.938   7.686  0.1840  0.1067  0.1430
  256MOL0     N34476  -0.870   6.822   7.655 -1.9886  0.4137 -1.0655
  256MOL0     C34477  -0.120   6.139   7.153 -0.4580  0.4999  0.0637
  256MOL0     C34478  -0.000   6.154   7.226 -0.9853  0.0970  0.9969
  256MOL0     C34479   0.342   6.306   7.477 -0.2309  0.1517 -0.5611
  256MOL0     C34480   0.322   6.419   7.560 -0.1955  0.6154  0.4404
  256MOL0     C34481   0.437   6.473   7.635  0.2278 -0.8700 -0.0186
  256MOL0     C34482   0.563   6.408   7.647  0.2386  0.8505  0.5491
  256MOL0     O34483   0.666   6.459   7.722  0.7775 -0.2217  0.2929
  256MOL0     C34484   0.802   6.444   7.693  0.5932  0.2876 -0.9919
  256MOL0     C34485   0.868   6.299   7.713  0.6611  0.7966  0.5839
  256MOL0     C34486   1.014   6.317   7.722 -0.3642 -0.0184  0.1795
  256MOL0     C34487   1.095   6.361   7.604  0.6237 -0.0216  0.1813
  256MOL0     C34488   1.067   6.281   7.483  0.5340  0.2864 -0.1479
  256MOL0     C34489   1.035   6.220   7.382  1.8449 -0.5076  0.0759
  256MOL0     C34490   0.568   6.289   7.567 -0.0230 -0.4214 -0.6021
  256MOL0     C34491   0.470   6.239   7.480 -0.2246 -0.8302 -0.2498
  256MOL0     C34492   0.494   6.104   7.407 -0.2408  0.6978  0.3100
  256MOL0     H34493  -0.131   6.368   7.450 -0.2441  0.4594  0.2336
  256MOL0     H34494  -0.332   6.315   7.339  2.7559  1.1327  5.4004
  256MOL0     H34495  -0.456   6.324   7.136 -0.8926  1.6194 -0.9300
  256MOL0     H34496  -0.529   6.193   7.037 -1.7948  0.1327  1.5398
  256MOL0     H34497  -0.531   6.183   7.340 -2.0646 -0.2406  1.2959
  256MOL0     H34498  -0.580   6.050   7.213  0.7730 -0.0983 -1.2599
  256MOL0     H34499  -0.762   6.136   7.182  0.5871 -1.0125 -1.2860
  256MOL0     H34500  -0.710   6.306   7.190 -1.1497 -1.7964 -1.5778
  256MOL0     H34501  -0.871   6.192   7.374 -0.8735 -0.2862  0.1857
  256MOL0     H34502  -0.714   6.132   7.439  3.2283  0.9806 -1.0071
  256MOL0     H34503  -0.774   6.326   7.573 -1.0994  3.9475  0.6546
  256MOL0     H34504  -0.637   6.371   7.464 -0.5128  0.5899 -2.6319
  256MOL0     H34505  -0.832   6.458   7.311  2.0318 -1.1766  0.3929
  256MOL0     H34506  -0.940   6.437   7.442 -1.0207  2.1912  2.7399
  256MOL0     H34507  -0.698   6.622   7.450  1.2852 -0.3699  0.1470
  256MOL0     H34508  -0.799   6.580   7.594  0.7002 -0.0589 -0.7353
  256MOL0     H34509  -0.913   6.717   7.345  0.7462  0.3285 -0.5493
  256MOL0     H34510  -1.005   6.656   7.477 -2.1661  4.1966  0.6655
  256MOL0     H34511  -0.798   6.961   7.359  2.4928 -1.0070 -0.9361
  256MOL0     H34512  -0.720   7.183   7.511  1.3125  0.7896 -2.5068
  256MOL0     H34513  -0.637   7.141   7.663  0.2047 -0.1510  0.0026
  256MOL0     H34514  -0.467   7.014   7.531 -1.4144 -0.7273  2.8148
  256MOL0     H34515  -0.551   7.055   7.380  2.6334  2.2321 -1.3139
  256MOL0     H34516  -0.420   7.233   7.589 -0.9955 -1.4821  0.7871
  256MOL0     H34517  -0.526   7.314   7.467  2.3413  0.8960 -2.0094
  256MOL0     H34518  -0.287   7.326   7.413  0.5746 -0.7887 -0.7649
  256MOL0     H34519  -0.365   7.244   7.286 -2.4178  2.3826  0.8338
  256MOL0     H34520  -0.218   7.253   7.639 -1.1836 -0.6886 -0.2689
  256MOL0     H34521   0.005   7.300   7.751 -1.4127  1.4408 -0.7215
  256MOL0     H34522   0.450   7.482   7.637 -1.9587  4.2250  2.9391
  256MOL0     H34523   0.666   7.535   7.734  0.6768  0.2006  1.6414
  256MOL0     H34524   0.749   7.368   8.113 -0.8109  2.4812  0.1228
  256MOL0     H34525   0.871   7.274   8.047 -0.7149 -0.4407 -1.2869
  256MOL0     H34526   1.014   7.494   8.015  1.3944 -1.1031  2.3075
  256MOL0     H34527   0.860   7.587   8.039 -0.2603 -0.9837 -2.0938
  256MOL0     H34528   0.857   7.497   8.281 -1.6320  4.5152  0.0236
  256MOL0     H34529   1.020   7.437   8.258  2.0151  0.6974 -2.1989
  256MOL0     H34530   0.962   7.728   8.201 -2.4396 -3.1142 -1.5433
  256MOL0     H34531   1.119   7.642   8.197 -0.7318 -2.2517 -1.3482
  256MOL0     H34532   1.104   7.595   8.440  0.4695 -0.5090 -2.0564
  256MOL0     H34533   0.943   7.654   8.455  1.3358  1.3837  1.8106
  256MOL0     H34534   1.011   7.883   8.389  1.5942  1.3577 -0.8089
  256MOL0     H34535   1.112   7.848   8.527  1.0851  2.7292 -1.3826
  256MOL0     H34536   1.201   7.868   8.250  2.8520 -1.1952 -0.5724
  256MOL0     H34537   1.287   7.754   8.353  0.4055 -0.1255 -2.7040
  256MOL0     H34538   1.323   7.942   8.531 -1.6278  1.0735  0.0645
  256MOL0     H34539   1.409   7.952   8.367  0.2763 -3.4999  0.1006
  256MOL0     H34540   0.628   7.224   8.022 -2.8396 -1.1998  1.2914
  256MOL0     H34541   0.410   7.187   7.959  3.7392  1.5368  3.1196
  256MOL0     H34542   0.196   7.063   7.448 -0.9890 -1.5311  1.3689
  256MOL0     H34543  -0.019   7.058   7.331 -0.9056  0.1282 -0.1031
  256MOL0     H34544  -0.107   6.076   7.065 -3.6934  0.1905 -0.3295
  256MOL0     H34545   0.087   6.104   7.186 -0.2275  2.6453 -0.8510
  256MOL0     H34546   0.230   6.477   7.558 -0.7015  0.0193  2.6352
  256MOL0     H34547   0.406   6.554   7.700 -0.9870 -3.4798  2.9524
  256MOL0     H34548   0.858   6.507   7.763 -0.4152  3.0863 -2.5717
  256MOL0     H34549   0.815   6.488   7.594  0.1842  0.6136 -0.9044
  256MOL0     H34550   0.843   6.229   7.632 -0.6174  3.0557 -1.0599
  256MOL0     H34551   0.831   6.255   7.806  0.6085 -1.6540 -0.5134
  256MOL0     H34552   1.044   6.219   7.759 -0.3318 -1.1379 -2.6006
  256MOL0     H34553   1.048   6.383   7.803  0.3152 -0.2147  0.0671
  256MOL0     H34554   1.068   6.465   7.584  2.0048  0.0213 -1.8542
  256MOL0     H34555   1.201   6.357   7.634  1.3426  2.9325 -1.5363
  256MOL0     H34556   1.027   6.172   7.287  2.0651  0.8300 -0.6471
  256MOL0     H34557   0.647   6.216   7.582 -0.2822 -0.7380 -0.7597
  256MOL0     H34558   0.492   6.125   7.300 -1.6546  6.7307  1.1608
  256MOL0     H34559   0.591   6.059   7.431 -0.3840  1.5548  2.8302
  256MOL0     H34560   0.416   6.030   7.428  0.9217 -1.3380 -2.0218
  257MOL0     O34561   3.713   7.493   3.900  0.3024  0.3145  0.1754
  257MOL0     C34562   3.665   7.607   3.882  0.0281  0.2933 -0.1951
  257MOL0     O34563   3.556   7.638   3.805 -0.2793  0.1251  0.9415
  257MOL0     C34564   3.456   7.546   3.786  0.2283 -0.2256 -0.0610
  257MOL0     C34565   3.353   7.584   3.698  0.0694 -0.3057  0.7470
  257MOL0     C34566   3.233   7.514   3.693  1.3994 -0.5460  0.5429
  257MOL0     C34567   3.211   7.413   3.786  0.4952  0.1663  0.4237
  257MOL0     O34568   3.096   7.347   3.817 -0.1187 -0.4041 -0.1422
  257MOL0     C34569   2.964   7.395   3.794 -1.2122 -0.7461 -0.3710
  257MOL0     C34570   2.887   7.410   3.925 -0.4124 -0.1716  0.5329
  257MOL0     C34571   2.946   7.501   4.036 -0.3453  0.7806  0.2082
  257MOL0     C34572   2.876   7.465   4.173  1.7600 -0.4953  1.0042
  257MOL0     C34573   2.748   7.548   4.198 -0.4380  0.2295  0.4558
  257MOL0     C34574   2.624   7.499   4.117  0.2416 -1.1451 -0.3791
  257MOL0     C34575   2.489   7.563   4.168 -0.6498 -0.1388  0.3021
  257MOL0     C34576   2.372   7.497   4.102 -0.2486  0.3590 -0.8166
  257MOL0     N34577   2.254   7.567   4.159 -0.3736  0.0796 -0.7593
  257MOL0     C34578   2.188   7.665   4.096 -0.2506  0.5677 -0.6341
  257MOL0     C34579   2.055   7.664   4.152  0.3044 -0.7355 -0.6437
  257MOL0     C34580   1.944   7.742   4.103 -0.2042 -0.8544 -0.5552
  257MOL0     C34581   1.940   7.889   4.159 -0.0896  1.3526 -0.1544
  257MOL0     C34582   1.925   7.885   4.313 -0.7792 -0.5033  0.2199
  257MOL0     C34583   1.799   7.803   4.372  0.0315 -0.2551  0.4200
  257MOL0     O34584   1.769   7.820   4.512  0.2555 -0.7834 -0.7352
  257MOL0     C34585   1.805   7.732   4.610 -0.5189 -1.1071  0.0831
  257MOL0     C34586   1.864   7.613   4.601 -0.4759 -0.0228 -0.4524
  257MOL0     C34587   1.854   7.522   4.706  0.6130 -0.5067  0.8588
  257MOL0     C34588   1.781   7.557   4.822 -0.5266  0.3306  0.4998
  257MOL0     C34589   1.759   7.456   4.920  0.3733  0.7173  0.7923
  257MOL0     O34590   1.772   7.323   4.873 -0.3855 -0.5460 -0.1445
  257MOL0     C34591   1.797   7.237   4.980 -0.3355  0.1738  0.6984
  257MOL0     C34592   1.697   7.142   5.003 -0.6744 -0.7584  0.2951
  257MOL0     C34593   1.711   7.060   5.109 -0.7609 -0.1106  0.1261
  257MOL0     C34594   1.825   7.068   5.190 -1.0448 -0.0210 -0.0384
  257MOL0     O34595   1.833   6.971   5.284 -0.5712  0.2958 -0.3538
  257MOL0     C34596   1.864   7.016   5.424 -1.0295  0.7829  0.2174
  257MOL0     C34597   1.881   6.896   5.519  0.4763  0.3148  0.5484
  257MOL0     C34598   1.755   6.807   5.509 -0.2802  0.3032 -0.4365
  257MOL0     C34599   1.637   6.881   5.577  0.3733 -0.1068  0.0992
  257MOL0     C34600   1.519   6.779   5.592 -0.1337  0.8887  0.2110
  257MOL0     C34601   1.465   6.744   5.453 -0.1292 -0.2448  0.7330
  257MOL0     C34602   1.369   6.856   5.406 -1.1053  0.1250 -0.0681
  257MOL0     C34603   1.303   6.824   5.274 -0.1204 -0.9808 -0.4572
  257MOL0    Cl34604   1.428   6.804   5.143  0.4619 -0.3583 -0.0740
  257MOL0     C34605   1.914   7.167   5.178 -0.2184 -0.5401  0.2945
  257MOL0     C34606   1.910   7.254   5.062  0.2990  0.2478 -0.1914
  257MOL0     O34607   1.732   7.490   5.033  0.1250 -0.3648 -0.0361
  257MOL0     C34608   1.741   7.689   4.837  0.1999  0.0916 -0.5312
  257MOL0     C34609   1.756   7.779   4.727  0.5721 -0.4073 -0.3323
  257MOL0     N34610   2.052   7.563   4.243 -0.0224  0.1371 -0.1222
  257MOL0     N34611   2.173   7.519   4.260  0.5651 -0.0859  1.1794
  257MOL0     C34612   3.316   7.370   3.862  0.1211  0.1885  0.2327
  257MOL0     C34613   3.438   7.429   3.864  0.6254  0.1839  0.5442
  257MOL0     C34614   3.716   7.728   3.953 -0.0167  1.0015 -0.2401
  257MOL0     C34615   3.661   7.856   3.928  0.3432  0.4198 -0.0489
  257MOL0     C34616   3.725   7.978   3.981  1.3295  0.3872 -0.5038
  257MOL0     C34617   3.837   7.971   4.050 -0.2510 -0.5642  0.6528
  257MOL0     O34618   3.890   8.092   4.086 -0.7372  0.5676 -0.5560
  257MOL0     C34619   3.987   8.089   4.196 -0.0893 -0.1218  0.5667
  257MOL0     C34620   4.068   8.217   4.188  0.3938 -0.6763 -0.0993
  257MOL0     C34621   3.982   8.336   4.209  0.0136  0.4212 -0.3508
  257MOL0     C34622   4.074   8.451   4.242 -1.3126  0.0612  0.3515
  257MOL0     C34623   4.140   8.491   4.117  0.6733  0.0842  0.1038
  257MOL0     C34624   4.201   8.523   4.020  0.0221  0.1740  0.2770
  257MOL0     C34625   3.882   7.844   4.086 -0.3018 -1.2822 -0.8574
  257MOL0     C34626   3.827   7.728   4.037 -0.1394 -0.2894  0.2554
  257MOL0     C34627   3.902   7.603   4.053  0.2845  0.4471 -0.5903
  257MOL0     H34628   3.376   7.670   3.636 -0.0753  1.0241  2.4436
  257MOL0     H34629   3.158   7.555   3.627  0.1373  0.6033  2.5624
  257MOL0     H34630   2.975   7.492   3.744  1.3925  0.2973  1.9311
  257MOL0     H34631   2.917   7.323   3.727 -0.6953 -0.3376 -1.1915
  257MOL0     H34632   2.887   7.312   3.972  1.7945 -1.3685 -1.7109
  257MOL0     H34633   2.782   7.420   3.898  0.0837  0.1059 -1.4689
  257MOL0     H34634   2.945   7.608   4.013 -2.7942  1.5016  3.0876
  257MOL0     H34635   3.042   7.454   4.057 -1.3804 -1.7637 -0.4238
  257MOL0     H34636   2.838   7.363   4.164  0.7684 -0.0285 -0.4498
  257MOL0     H34637   2.944   7.486   4.256  2.3806 -1.3034  0.7046
  257MOL0     H34638   2.716   7.556   4.302  0.2613  1.0701  0.6172
  257MOL0     H34639   2.778   7.645   4.157  1.6991 -0.3251  0.5526
  257MOL0     H34640   2.636   7.535   4.015 -1.6238 -0.9091 -0.5461
  257MOL0     H34641   2.611   7.391   4.124  0.7463 -1.3666 -2.2398
  257MOL0     H34642   2.496   7.670   4.145  1.1263 -0.5627 -1.3824
  257MOL0     H34643   2.474   7.559   4.276 -0.7300  0.1537  0.3033
  257MOL0     H34644   2.374   7.505   3.993  0.8852 -0.6858 -0.8998
  257MOL0     H34645   2.383   7.392   4.130 -0.9210  0.3595 -0.5466
  257MOL0     H34646   2.202   7.707   3.997 -0.4269 -2.0197 -1.8357
  257MOL0     H34647   1.957   7.746   3.994  4.7307 -4.4855 -0.4790
  257MOL0     H34648   1.853   7.682   4.115 -0.6947  0.1287  0.8423
  257MOL0     H34649   2.033   7.941   4.138  1.0211 -0.4392  0.0627
  257MOL0     H34650   1.852   7.943   4.124 -0.4016  2.4428  2.1436
  257MOL0     H34651   1.925   7.988   4.348 -0.5941 -0.4734  0.1318
  257MOL0     H34652   2.009   7.829   4.356 -0.8629  1.5176  3.3019
  257MOL0     H34653   1.815   7.696   4.358 -1.0144 -0.2017 -1.6366
  257MOL0     H34654   1.707   7.830   4.320  1.4281 -0.2761 -2.2524
  257MOL0     H34655   1.937   7.588   4.525  0.1260 -0.4022  0.2339
  257MOL0     H34656   1.913   7.431   4.701  4.6881  1.8364  2.0635
  257MOL0     H34657   1.626   7.126   4.922  0.7998 -0.4552 -1.1235
  257MOL0     H34658   1.626   7.002   5.144 -2.2268  2.5027  1.2192
  257MOL0     H34659   1.955   7.077   5.420 -2.2957  2.7035 -0.6147
  257MOL0     H34660   1.789   7.084   5.465  2.4512  4.5948  0.9440
  257MOL0     H34661   1.962   6.830   5.487 -0.5234 -0.5233 -0.3312
  257MOL0     H34662   1.905   6.925   5.622  1.5052 -2.5269  1.2298
  257MOL0     H34663   1.748   6.761   5.410 -1.9021 -3.6855  1.3061
  257MOL0     H34664   1.781   6.716   5.566  2.3400 -0.2159 -2.2547
  257MOL0     H34665   1.613   6.968   5.516 -3.1232 -0.8616  0.2174
  257MOL0     H34666   1.675   6.911   5.676 -1.1695 -0.8684  0.9612
  257MOL0     H34667   1.446   6.825   5.659  3.0973  4.2843  1.7811
  257MOL0     H34668   1.554   6.690   5.645 -0.6798  0.8193  0.4662
  257MOL0     H34669   1.545   6.720   5.382 -0.6552 -0.4757  0.2102
  257MOL0     H34670   1.397   6.659   5.455  0.9635 -1.1924 -0.5964
  257MOL0     H34671   1.411   6.956   5.394  0.3471 -0.7102 -2.7246
  257MOL0     H34672   1.293   6.861   5.486 -0.9428 -1.1682  0.1857
  257MOL0     H34673   1.244   6.732   5.267  0.6200 -1.3080 -4.1713
  257MOL0     H34674   1.236   6.908   5.252  0.8658 -0.0174  0.1011
  257MOL0     H34675   1.997   7.189   5.244  0.4891  1.3030 -1.1247
  257MOL0     H34676   1.994   7.320   5.047  1.6804 -1.8131 -2.1719
  257MOL0     H34677   1.685   7.729   4.921 -0.8640  1.3912 -1.8011
  257MOL0     H34678   1.714   7.878   4.736 -1.4787 -1.2027 -0.5733
  257MOL0     H34679   3.294   7.298   3.940  1.7184 -0.2582  0.3015
  257MOL0     H34680   3.499   7.386   3.942 -2.9748 -0.9029  3.0429
  257MOL0     H34681   3.579   7.872   3.858 -0.1575 -2.2613 -0.1847
  257MOL0     H34682   3.681   8.075   3.961 -1.1711 -1.1276 -3.1116
  257MOL0     H34683   4.049   8.001   4.181 -0.1335  0.1716 -1.8050
  257MOL0     H34684   3.931   8.085   4.290  1.4709  1.1640  1.5938
  257MOL0     H34685   4.112   8.231   4.089 -0.0157 -0.4186 -0.2470
  257MOL0     H34686   4.143   8.209   4.267  0.1171  0.0321  0.2428
  257MOL0     H34687   3.921   8.331   4.299 -0.3910  2.6036 -0.4486
  257MOL0     H34688   3.908   8.363   4.133 -1.2535 -0.7170  0.4313
  257MOL0     H34689   4.012   8.533   4.281 -0.9756 -0.6645  2.5717
  257MOL0     H34690   4.134   8.427   4.330 -1.6943  0.5837  0.7658
  257MOL0     H34691   4.252   8.549   3.930 -1.0967 -0.7410 -0.6469
  257MOL0     H34692   3.971   7.825   4.146 -1.6271 -1.0777  1.2341
  257MOL0     H34693   3.991   7.625   4.113  0.9674 -1.2638 -0.9409
  257MOL0     H34694   3.851   7.520   4.103  1.3210 -0.7420 -1.4466
  257MOL0     H34695   3.936   7.554   3.961  0.5770 -1.9936  0.7307
  258MOL0     O34696   2.396   2.430   3.542  0.0926 -0.0165 -0.3838
  258MOL0     C34697   2.371   2.352   3.447 -0.7116  0.4962 -0.1881
  258MOL0     O34698   2.374   2.215   3.459 -0.4687  0.6813 -0.0780
  258MOL0     C34699   2.444   2.147   3.554  0.7140 -0.1145 -0.2328
  258MOL0     C34700   2.463   2.189   3.693  0.3209  0.5541 -0.0281
  258MOL0     C34701   2.546   2.101   3.776 -1.4206  0.5845  0.6869
  258MOL0     C34702   2.600   1.974   3.726 -0.5493  0.2738  0.6156
  258MOL0     O34703   2.685   1.903   3.803  0.0565 -0.6190  0.1569
  258MOL0     C34704   2.827   1.943   3.793  0.3439  0.1237 -0.0508
  258MOL0     C34705   2.911   1.810   3.789  1.0337 -0.1180  0.0798
  258MOL0     C34706   3.049   1.824   3.735 -0.6037 -0.4544 -0.0340
  258MOL0     C34707   3.129   1.916   3.834  0.1122 -0.0103  0.0617
  258MOL0     C34708   3.283   1.915   3.801 -0.3591  0.3723 -0.3052
  258MOL0     C34709   3.362   1.780   3.845  1.2719  0.3549  0.5072
  258MOL0     C34710   3.494   1.768   3.749  0.5764  1.0326 -0.2044
  258MOL0     C34711   3.568   1.628   3.774  0.1335 -0.5144  0.0046
  258MOL0     N34712   3.630   1.630   3.909  0.5459 -0.6634  0.7096
  258MOL0     C34713   3.741   1.698   3.941 -0.6106 -0.2634  0.3223
  258MOL0     C34714   3.744   1.688   4.072  0.1089 -0.7734  0.2485
  258MOL0     C34715   3.851   1.726   4.161 -0.7280 -1.8083 -0.0209
  258MOL0     C34716   3.821   1.845   4.253 -0.3048 -1.0826 -0.3464
  258MOL0     C34717   3.935   1.886   4.353  0.0696  0.3473  0.7513
  258MOL0     C34718   4.020   1.996   4.300 -0.0385 -0.0084 -0.1488
  258MOL0     O34719   3.930   2.108   4.287  0.3947  0.0131  0.2691
  258MOL0     C34720   3.983   2.220   4.221 -0.0510 -0.6391 -0.0458
  258MOL0     C34721   3.908   2.334   4.220  0.4222 -0.1016 -0.2459
  258MOL0     C34722   3.949   2.443   4.138  1.0647  0.1519  0.3249
  258MOL0     C34723   4.047   2.426   4.040 -0.0385 -0.5559  0.2070
  258MOL0     C34724   4.056   2.529   3.938 -0.1970 -0.7297 -0.6258
  258MOL0     O34725   3.939   2.590   3.896  0.1289  0.2996 -0.5005
  258MOL0     C34726   3.934   2.678   3.791 -0.0657 -0.4390  0.3485
  258MOL0     C34727   3.808   2.699   3.732  0.3412  0.0145 -0.3556
  258MOL0     C34728   3.787   2.786   3.631 -0.0710  0.2521  0.6242
  258MOL0     C34729   3.888   2.862   3.574 -0.5359 -0.5366  0.1915
  258MOL0     O34730   3.852   2.964   3.488 -0.1143 -0.0851 -0.3745
  258MOL0     C34731   3.950   3.046   3.428  0.3236 -0.4106 -0.0655
  258MOL0     C34732   3.888   3.159   3.344 -0.5626  0.7749 -0.0851
  258MOL0     C34733   3.823   3.254   3.448 -0.4412 -0.6551 -0.0968
  258MOL0     C34734   3.846   3.400   3.412 -0.5878  0.2629 -0.1559
  258MOL0     C34735   3.734   3.438   3.315  0.7828  0.3663  0.2453
  258MOL0     C34736   3.717   3.595   3.322 -0.1360  0.2656 -0.9229
  258MOL0     C34737   3.588   3.639   3.249  0.6631 -0.6934  0.5235
  258MOL0     C34738   3.595   3.779   3.198  0.0666 -0.7088  0.7416
  258MOL0    Cl34739   3.596   3.896   3.332 -0.2120  0.3116  0.0800
  258MOL0     C34740   4.013   2.845   3.631 -0.8474 -0.3774 -0.7406
  258MOL0     C34741   4.042   2.756   3.738 -0.1465 -0.9362  0.4726
  258MOL0     O34742   4.167   2.556   3.895 -0.0785 -0.2272  0.6285
  258MOL0     C34743   4.128   2.314   4.047 -0.3214 -0.1980  0.2444
  258MOL0     C34744   4.098   2.218   4.142 -0.2035  0.3080 -0.5192
  258MOL0     N34745   3.641   1.604   4.113  0.0877 -0.0093  0.4245
  258MOL0     N34746   3.565   1.574   4.010  1.2880 -0.8166 -0.0771
  258MOL0     C34747   2.573   1.945   3.589 -0.0233  1.7281 -0.7521
  258MOL0     C34748   2.498   2.028   3.500  0.8361 -0.0216 -0.3390
  258MOL0     C34749   2.347   2.410   3.313 -0.3946  0.0413  0.4447
  258MOL0     C34750   2.303   2.543   3.323 -0.4473 -0.6729  0.2691
  258MOL0     C34751   2.272   2.618   3.209 -1.3312 -0.5069 -0.5333
  258MOL0     C34752   2.293   2.559   3.084 -0.4612  0.6968 -0.0767
  258MOL0     O34753   2.252   2.613   2.971 -0.5327  0.0389  0.4577
  258MOL0     C34754   2.172   2.729   2.957 -0.9871 -0.2415 -1.0819
  258MOL0     C34755   2.122   2.736   2.816 -0.2125  0.4293  0.0356
  258MOL0     C34756   2.241   2.732   2.719  0.3228  0.5096 -0.3309
  258MOL0     C34757   2.301   2.876   2.714 -0.2586 -0.1140  0.0586
  258MOL0     C34758   2.397   2.888   2.598 -0.2918  0.2510  0.1021
  258MOL0     C34759   2.466   2.883   2.497  0.1767  0.8415  0.0354
  258MOL0     C34760   2.336   2.431   3.078  0.0941  0.5065 -0.6623
  258MOL0     C34761   2.374   2.352   3.186 -0.2359 -0.4588 -0.5317
  258MOL0     C34762   2.419   2.210   3.158 -0.0551  0.3569  0.4238
  258MOL0     H34763   2.429   2.280   3.741  2.5143 -0.1593  3.2118
  258MOL0     H34764   2.577   2.133   3.875  1.0347 -4.6675  2.0160
  258MOL0     H34765   2.844   1.973   3.689  2.1553 -0.9874 -0.1190
  258MOL0     H34766   2.864   2.009   3.873  2.2640 -2.9818  1.8685
  258MOL0     H34767   2.863   1.738   3.722  2.0608  0.1697 -1.0026
  258MOL0     H34768   2.911   1.771   3.891  0.0884 -0.8402 -0.1823
  258MOL0     H34769   3.053   1.868   3.635  0.7975 -0.3855  0.0339
  258MOL0     H34770   3.099   1.727   3.739 -0.5031 -0.4296 -0.5856
  258MOL0     H34771   3.094   2.019   3.840 -0.7019 -0.2166 -0.9217
  258MOL0     H34772   3.115   1.875   3.934 -0.7761  0.4384  0.1269
  258MOL0     H34773   3.310   1.950   3.701 -1.5571  3.1582  0.2390
  258MOL0     H34774   3.329   1.983   3.873  0.8473 -1.4651  0.7297
  258MOL0     H34775   3.395   1.775   3.949  0.0584 -1.0804  0.8645
  258MOL0     H34776   3.298   1.693   3.832  1.2131  0.8509 -3.7427
  258MOL0     H34777   3.567   1.844   3.779  2.4447 -0.9949  0.6385
  258MOL0     H34778   3.466   1.781   3.644  0.4272 -0.2138 -0.3278
  258MOL0     H34779   3.486   1.556   3.769 -0.6848  0.4863 -3.1304
  258MOL0     H34780   3.639   1.606   3.693 -1.7969  0.1131 -1.9532
  258MOL0     H34781   3.827   1.739   3.888  0.5101 -0.4232  1.9632
  258MOL0     H34782   3.887   1.641   4.220 -1.5531 -2.0175  0.1884
  258MOL0     H34783   3.929   1.748   4.088 -1.6620 -0.7576 -0.7458
  258MOL0     H34784   3.779   1.935   4.207 -0.8525 -1.2060 -0.1063
  258MOL0     H34785   3.732   1.814   4.310 -1.5604 -0.2216 -1.7762
  258MOL0     H34786   4.004   1.804   4.375 -1.1262 -0.2862  2.2488
  258MOL0     H34787   3.889   1.921   4.446 -4.2952  1.9283 -1.7017
  258MOL0     H34788   4.063   1.983   4.200 -0.4495  2.7793 -0.7983
  258MOL0     H34789   4.100   2.012   4.373  3.1257 -0.7288 -3.2145
  258MOL0     H34790   3.830   2.349   4.294  1.8121  0.9819  1.0684
  258MOL0     H34791   3.900   2.538   4.157 -1.8048 -1.2390  0.4444
  258MOL0     H34792   3.734   2.635   3.780 -1.2775  2.6746  0.9492
  258MOL0     H34793   3.686   2.790   3.593  1.2800  1.9641 -3.3318
  258MOL0     H34794   4.008   3.080   3.515  0.3385  0.4256 -0.3925
  258MOL0     H34795   4.020   2.987   3.369  0.7519 -0.9869  0.9863
  258MOL0     H34796   3.970   3.217   3.301  0.5738 -0.2340  0.6437
  258MOL0     H34797   3.824   3.123   3.264 -1.1410  2.9190 -0.6597
  258MOL0     H34798   3.716   3.236   3.463 -0.3523 -0.0585  1.4166
  258MOL0     H34799   3.870   3.239   3.545 -0.4954  2.8979  0.5959
  258MOL0     H34800   3.936   3.408   3.350  1.5992 -0.1862  2.7251
  258MOL0     H34801   3.845   3.460   3.503  0.2314  2.8428 -1.7286
  258MOL0     H34802   3.638   3.405   3.357  0.3412  2.0503  0.6364
  258MOL0     H34803   3.757   3.408   3.213  1.0235  1.7853 -0.1423
  258MOL0     H34804   3.697   3.636   3.422  1.1619 -1.1637 -0.0348
  258MOL0     H34805   3.804   3.643   3.277  2.2946 -0.7869  2.2956
  258MOL0     H34806   3.500   3.629   3.314 -0.2457 -1.4719 -0.7966
  258MOL0     H34807   3.564   3.576   3.163 -3.9310  0.3536  0.7666
  258MOL0     H34808   3.680   3.787   3.130 -1.8161  2.4510 -1.5140
  258MOL0     H34809   3.511   3.794   3.129  1.4609 -0.1022 -0.8899
  258MOL0     H34810   4.093   2.916   3.615 -1.2241  0.2587  0.1214
  258MOL0     H34811   4.143   2.750   3.776 -0.5712 -3.1299  1.4488
  258MOL0     H34812   4.208   2.308   3.975 -0.8956  1.4120 -0.5611
  258MOL0     H34813   4.181   2.149   4.153 -0.3887 -0.3096 -2.6905
  258MOL0     H34814   2.624   1.862   3.542  0.4378  0.1551  2.3247
  258MOL0     H34815   2.479   2.012   3.394  1.7774  2.4482 -0.9541
  258MOL0     H34816   2.289   2.594   3.418  1.8118  1.3925 -0.4021
  258MOL0     H34817   2.251   2.725   3.213  1.8841  0.3216 -2.3153
  258MOL0     H34818   2.234   2.815   2.985 -1.9699 -0.2266  1.2286
  258MOL0     H34819   2.085   2.725   3.022 -0.7488  0.4460 -0.7077
  258MOL0     H34820   2.060   2.826   2.805  0.3570  1.1582  2.1917
  258MOL0     H34821   2.060   2.649   2.794 -0.2603  0.8316 -1.5307
  258MOL0     H34822   2.206   2.704   2.619 -0.7520 -2.5797  0.7827
  258MOL0     H34823   2.324   2.663   2.735  2.1259  2.2564 -1.6483
  258MOL0     H34824   2.230   2.959   2.721  1.9222  1.8032  0.3302
  258MOL0     H34825   2.361   2.884   2.805 -2.3985 -0.1245  1.5447
  258MOL0     H34826   2.534   2.859   2.418 -0.7564 -2.7291  0.1377
  258MOL0     H34827   2.337   2.386   2.980 -0.1169  1.9274 -1.3479
  258MOL0     H34828   2.504   2.182   3.219  0.2562  1.4782  0.5301
  258MOL0     H34829   2.347   2.140   3.202  0.7356 -0.1265  0.9657
  258MOL0     H34830   2.434   2.203   3.050 -0.4562  2.7921  0.1483
  259MOL0     O34831   9.276   2.528   2.938  0.4935 -0.2857  0.3235
  259MOL0     C34832   9.312   2.503   2.825 -0.3108 -0.6161 -0.6476
  259MOL0     O34833   9.299   2.373   2.771 -0.1565 -0.5875  0.2709
  259MOL0     C34834   9.284   2.350   2.634 -1.1547 -0.3246 -0.2419
  259MOL0     C34835   9.154   2.336   2.585 -0.7525 -0.4808  0.5545
  259MOL0     C34836   9.133   2.327   2.439  0.5319  0.6696  0.0774
  259MOL0     C34837   9.247   2.316   2.353  0.0935 -0.6201 -0.0621
  259MOL0     O34838   9.231   2.292   2.218 -0.2241  0.0407 -0.1480
  259MOL0     C34839   9.297   2.180   2.149 -0.1627  0.5502  0.0228
  259MOL0     C34840   9.377   2.222   2.031 -0.2279 -0.6483  0.9880
  259MOL0     C34841   9.450   2.099   1.975 -1.0519 -0.3699 -1.0134
  259MOL0     C34842   9.587   2.076   2.055 -0.6427  0.4679  0.2978
  259MOL0     C34843   9.656   1.964   1.974 -0.6811  0.6300  0.7345
  259MOL0     C34844   9.789   1.940   2.053  0.3299 -0.5272  0.3487
  259MOL0     C34845   9.799   1.839   2.161 -0.0735 -1.3073  0.4498
  259MOL0     C34846   9.757   1.690   2.119 -0.8157 -0.2314  0.8699
  259MOL0     N34847   9.865   1.636   2.021  1.4552  0.3829 -0.0921
  259MOL0     C34848   9.977   1.567   2.050  0.1755 -0.1467  0.3706
  259MOL0     C34849  10.037   1.545   1.933 -0.6658  0.3344 -0.2472
  259MOL0     C34850  10.160   1.463   1.903 -0.2107 -0.3443 -0.2366
  259MOL0     C34851  10.285   1.557   1.884 -0.8380  0.5104  0.0510
  259MOL0     C34852  10.412   1.471   1.887  0.0143  0.2877  0.6019
  259MOL0     C34853  10.538   1.570   1.880  0.4416  0.3628  0.0747
  259MOL0     O34854  10.528   1.645   1.757  0.0505  0.1246 -0.8109
  259MOL0     C34855  10.619   1.611   1.668  0.2332  0.8800  0.7400
  259MOL0     C34856  10.581   1.519   1.574 -0.5680 -0.6674  0.3927
  259MOL0     C34857  10.672   1.470   1.488  0.4387 -0.0656  0.2645
  259MOL0     C34858  10.803   1.526   1.479  0.8011 -0.5137  0.3116
  259MOL0     C34859  10.903   1.490   1.381 -0.5819 -0.0818 -0.3086
  259MOL0     O34860  11.012   1.565   1.364  0.2866  0.7559  0.0095
  259MOL0     C34861  11.102   1.533   1.265  0.1857 -1.3229 -0.1089
  259MOL0     C34862  11.234   1.499   1.315 -0.6473  0.2476  0.4264
  259MOL0     C34863  11.333   1.453   1.234 -0.9420 -0.1379 -0.5752
  259MOL0     C34864  11.308   1.444   1.095 -0.3583 -0.1997  0.4607
  259MOL0     O34865  11.410   1.401   1.012 -0.3992 -0.9131  0.8473
  259MOL0     C34866  11.389   1.331   0.889 -0.5252  0.0241 -0.0977
  259MOL0     C34867  11.519   1.277   0.845 -0.8775  0.9228 -0.5105
  259MOL0     C34868  11.614   1.393   0.816 -0.1796  0.0695 -0.1079
  259MOL0     C34869  11.711   1.349   0.714 -0.4088  0.6833  0.4855
  259MOL0     C34870  11.831   1.446   0.721 -0.1143  0.0315  0.3013
  259MOL0     C34871  11.945   1.399   0.629  0.2602 -0.4459  0.4584
  259MOL0     C34872  12.089   1.444   0.676  0.0764  0.1172 -0.3984
  259MOL0     C34873  12.204   1.408   0.591 -0.5281  0.4832  1.1130
  259MOL0    Cl34874  12.212   1.230   0.576 -0.6360 -0.2463 -0.2631
  259MOL0     C34875  11.183   1.492   1.045 -0.0003 -0.6358 -0.7977
  259MOL0     C34876  11.074   1.534   1.129  0.0501  0.0971  0.4624
  259MOL0     O34877  10.873   1.395   1.307 -0.4581  0.1677 -0.4019
  259MOL0     C34878  10.827   1.629   1.569 -0.7730  0.2869 -0.2808
  259MOL0     C34879  10.741   1.673   1.667 -0.8583  0.7019 -0.6467
  259MOL0     N34880   9.971   1.611   1.838 -0.1183  0.1859  0.1929
  259MOL0     N34881   9.860   1.657   1.889 -0.3140 -0.3753  0.5553
  259MOL0     C34882   9.374   2.329   2.402 -0.7310  1.1034 -0.8260
  259MOL0     C34883   9.398   2.348   2.543  0.6515  0.8799  0.4543
  259MOL0     C34884   9.362   2.604   2.741  0.3835  0.5325 -1.0900
  259MOL0     C34885   9.501   2.614   2.709  0.7300 -0.0860  0.2712
  259MOL0     C34886   9.557   2.709   2.625  0.4294 -0.5232 -0.4896
  259MOL0     C34887   9.464   2.800   2.568 -0.1723 -0.3108  0.3947
  259MOL0     O34888   9.502   2.902   2.484 -0.0159  0.6773  0.2745
  259MOL0     C34889   9.634   2.943   2.473 -0.3870 -0.0797  0.8717
  259MOL0     C34890   9.656   3.078   2.407  0.0859  0.5910  0.0251
  259MOL0     C34891   9.621   3.065   2.263 -0.1822 -0.2362  0.2114
  259MOL0     C34892   9.680   3.177   2.176  0.0157  0.0106  0.2950
  259MOL0     C34893   9.633   3.314   2.197 -0.1204 -0.3743 -0.3418
  259MOL0     C34894   9.590   3.428   2.212  0.3938 -0.9612  0.4664
  259MOL0     C34895   9.329   2.799   2.600  1.0448  0.4838 -0.8325
  259MOL0     C34896   9.278   2.704   2.698  0.0769 -0.4439 -0.4981
  259MOL0     C34897   9.135   2.717   2.739 -0.0674 -0.4620 -1.1643
  259MOL0     H34898   9.076   2.349   2.659 -0.3057  2.1766  0.6449
  259MOL0     H34899   9.036   2.296   2.402  0.6612  0.9488 -0.5149
  259MOL0     H34900   9.364   2.120   2.213 -0.7058 -0.2940 -0.1895
  259MOL0     H34901   9.213   2.119   2.115  1.2937 -1.5798  0.0272
  259MOL0     H34902   9.429   2.312   2.065 -1.2272  0.1329  0.5240
  259MOL0     H34903   9.313   2.266   1.954  0.5626 -0.1706  0.5870
  259MOL0     H34904   9.470   2.116   1.869  2.2669 -2.0737 -0.7863
  259MOL0     H34905   9.391   2.012   2.003  2.4686 -1.9230  2.5821
  259MOL0     H34906   9.640   2.171   2.065  0.1666 -0.1535  2.3961
  259MOL0     H34907   9.562   2.035   2.153 -0.7893  1.8059  0.8361
  259MOL0     H34908   9.595   1.874   1.960 -1.4367  1.4551 -1.9594
  259MOL0     H34909   9.671   1.993   1.870 -1.9369 -2.5244 -0.4639
  259MOL0     H34910   9.869   1.914   1.983 -2.0840  1.7251 -3.5875
  259MOL0     H34911   9.828   2.036   2.088  1.7274 -0.0142 -2.3242
  259MOL0     H34912   9.737   1.876   2.243 -2.0824  2.0891 -2.3227
  259MOL0     H34913   9.903   1.850   2.194 -0.3264  0.2397  0.8204
  259MOL0     H34914   9.744   1.633   2.211  2.6197 -3.7857 -0.5852
  259MOL0     H34915   9.653   1.691   2.086 -0.6830 -2.3835  0.2332
  259MOL0     H34916  10.008   1.517   2.141  3.6580 -0.8314 -1.0026
  259MOL0     H34917  10.181   1.401   1.990  2.8398  0.8100 -0.0356
  259MOL0     H34918  10.147   1.384   1.829 -5.1995 -2.3959  2.3542
  259MOL0     H34919  10.290   1.603   1.786 -3.7246 -3.0238 -2.0128
  259MOL0     H34920  10.281   1.628   1.967 -0.3451 -0.5773  1.0431
  259MOL0     H34921  10.410   1.392   1.812 -1.1930  1.3543 -0.5693
  259MOL0     H34922  10.410   1.428   1.987  2.0454 -1.0748  0.0938
  259MOL0     H34923  10.631   1.513   1.891  0.9488  1.0599 -0.5336
  259MOL0     H34924  10.532   1.638   1.965 -3.7873  1.8638 -1.1508
  259MOL0     H34925  10.481   1.477   1.580 -0.4345 -1.1771 -0.7531
  259MOL0     H34926  10.642   1.400   1.411 -2.1195 -0.2102  1.2809
  259MOL0     H34927  11.260   1.500   1.420 -1.1363 -1.1324  0.5744
  259MOL0     H34928  11.429   1.421   1.272 -2.3180 -2.7711  1.0565
  259MOL0     H34929  11.320   1.246   0.899 -0.6830  0.1846  0.1879
  259MOL0     H34930  11.355   1.392   0.805  1.6090 -0.3554 -1.3060
  259MOL0     H34931  11.572   1.208   0.912  0.1926  0.1763 -2.0610
  259MOL0     H34932  11.497   1.224   0.752 -3.4413  1.0178 -0.0522
  259MOL0     H34933  11.567   1.480   0.770  0.1713  0.3445  0.0436
  259MOL0     H34934  11.661   1.441   0.903  0.9322  2.8746 -2.1158
  259MOL0     H34935  11.672   1.350   0.612  1.3497  0.8395 -0.2312
  259MOL0     H34936  11.751   1.249   0.732 -2.5190 -0.1937  0.6120
  259MOL0     H34937  11.877   1.439   0.820 -0.5434 -0.6775  0.4596
  259MOL0     H34938  11.794   1.549   0.715 -1.6135 -0.3603  2.0971
  259MOL0     H34939  11.949   1.291   0.612  4.0232 -0.0238 -2.4500
  259MOL0     H34940  11.920   1.453   0.537  5.3009  1.9854  0.2118
  259MOL0     H34941  12.112   1.401   0.773  1.4547 -0.8024 -1.0967
  259MOL0     H34942  12.104   1.553   0.673  2.3147 -0.1219  0.2563
  259MOL0     H34943  12.192   1.454   0.492 -1.5484 -2.8896 -0.4850
  259MOL0     H34944  12.300   1.438   0.635 -0.0075  0.3028  0.1331
  259MOL0     H34945  11.169   1.484   0.938 -0.5797  2.2918 -1.0160
  259MOL0     H34946  10.978   1.561   1.086  1.8217 -0.9144 -5.0208
  259MOL0     H34947  10.921   1.682   1.558 -1.4474  2.1402  1.9806
  259MOL0     H34948  10.757   1.746   1.745 -2.4355  1.3985 -0.9378
  259MOL0     H34949   9.451   2.332   2.325  2.1654 -0.7994  1.7778
  259MOL0     H34950   9.496   2.355   2.590  2.4894  1.8098 -3.1757
  259MOL0     H34951   9.561   2.547   2.769 -2.4242  0.0377  4.0312
  259MOL0     H34952   9.662   2.724   2.600  0.6144 -1.9945 -0.7131
  259MOL0     H34953   9.695   2.862   2.433 -0.8939 -1.5527  2.9154
  259MOL0     H34954   9.668   2.955   2.576 -0.2145  1.0667  0.6986
  259MOL0     H34955   9.752   3.130   2.423 -1.1345  3.4828 -1.3448
  259MOL0     H34956   9.587   3.149   2.454 -0.1003  0.8082 -0.5670
  259MOL0     H34957   9.513   3.065   2.252 -0.0116 -0.8698 -1.7758
  259MOL0     H34958   9.653   2.966   2.230 -1.4722 -0.0434 -1.7359
  259MOL0     H34959   9.789   3.171   2.183  0.0308 -2.5137 -1.1770
  259MOL0     H34960   9.660   3.147   2.073 -3.8209 -2.7285  1.6342
  259MOL0     H34961   9.547   3.523   2.237  2.6623  0.6369 -1.2165
  259MOL0     H34962   9.261   2.873   2.559 -2.4872 -2.7785 -1.3364
  259MOL0     H34963   9.116   2.706   2.846  4.5606  1.0947  0.0519
  259MOL0     H34964   9.085   2.804   2.694 -0.5979  0.3608  0.9220
  259MOL0     H34965   9.081   2.628   2.704 -0.3027 -0.9512  0.3646
  260MOL0     O34966   1.063   6.477   7.054 -0.8480  0.8494 -0.0910
  260MOL0     C34967   1.171   6.515   7.006  0.1576 -0.0502  0.3552
  260MOL0     O34968   1.208   6.488   6.879  1.0846  0.7260  0.0205
  260MOL0     C34969   1.134   6.419   6.782 -1.2087 -0.3909  0.0618
  260MOL0     C34970   0.992   6.419   6.766 -0.2602 -0.3762  0.4516
  260MOL0     C34971   0.933   6.326   6.672 -0.0964  0.3606 -0.9554
  260MOL0     C34972   0.992   6.237   6.597 -0.0452 -0.9344  0.2224
  260MOL0     O34973   0.927   6.145   6.518  0.2336  0.0474  0.7531
  260MOL0     C34974   0.864   6.203   6.406  0.8907 -0.1108 -0.1339
  260MOL0     C34975   0.957   6.273   6.323  0.7101  0.1446 -0.4142
  260MOL0     C34976   1.048   6.178   6.247 -0.0299  1.0840  0.0614
  260MOL0     C34977   1.115   6.245   6.126 -0.0309 -0.5066  0.0600
  260MOL0     C34978   1.038   6.197   6.010  0.2274 -0.1037 -0.1498
  260MOL0     C34979   1.088   6.260   5.871 -0.0750  0.0482 -0.4097
  260MOL0     C34980   1.054   6.177   5.743  0.5733 -0.0399  0.2729
  260MOL0     C34981   0.902   6.177   5.719  0.7511 -0.4997  0.1903
  260MOL0     N34982   0.866   6.103   5.594  0.0324  1.2194 -0.8757
  260MOL0     C34983   0.831   5.966   5.599  0.2990  0.0084  0.1460
  260MOL0     C34984   0.794   5.926   5.473 -1.6921 -0.2872  0.3904
  260MOL0     C34985   0.759   5.789   5.425  0.5685 -0.9696 -0.9713
  260MOL0     C34986   0.657   5.795   5.316 -0.0305 -0.3926 -0.4180
  260MOL0     C34987   0.724   5.802   5.172 -0.1023  0.0827 -0.4050
  260MOL0     C34988   0.628   5.869   5.075  0.3924 -0.0116 -0.7686
  260MOL0     O34989   0.680   5.882   4.941 -0.1917  0.0981 -0.4827
  260MOL0     C34990   0.614   5.948   4.845  0.0945  0.0534 -0.1401
  260MOL0     C34991   0.479   6.001   4.851  0.4316 -1.1306  0.0500
  260MOL0     C34992   0.434   6.070   4.741 -0.1981  0.0059 -0.0783
  260MOL0     C34993   0.516   6.088   4.619 -0.2747 -0.9498 -0.9485
  260MOL0     C34994   0.469   6.165   4.502  0.6676  0.3252  0.1278
  260MOL0     O34995   0.566   6.189   4.406 -0.0217  0.2706  0.0483
  260MOL0     C34996   0.563   6.287   4.307 -0.2335 -1.4123  0.2616
  260MOL0     C34997   0.637   6.261   4.184  0.0082  0.0580 -0.1721
  260MOL0     C34998   0.637   6.355   4.082  0.2778  0.1702  0.1576
  260MOL0     C34999   0.561   6.475   4.095  0.4110  0.6659  0.0295
  260MOL0     O35000   0.552   6.557   3.983  0.7524 -0.2421 -0.8063
  260MOL0     C35001   0.468   6.675   3.986 -0.9565 -0.1190  1.1353
  260MOL0     C35002   0.480   6.734   3.842 -0.1896  0.1475  0.3420
  260MOL0     C35003   0.451   6.881   3.837  0.4571 -0.8644 -0.2739
  260MOL0     C35004   0.307   6.916   3.869  0.0239 -0.3728 -0.5929
  260MOL0     C35005   0.260   7.059   3.859 -0.4426  0.2502  1.0577
  260MOL0     C35006   0.260   7.103   3.713  0.5405 -0.4247  0.1427
  260MOL0     C35007   0.220   7.245   3.692 -0.3195 -0.4382 -0.7352
  260MOL0     C35008   0.215   7.259   3.537  0.4124 -0.7614 -0.2872
  260MOL0    Cl35009   0.239   7.435   3.484  0.2320  0.2741 -0.2973
  260MOL0     C35010   0.487   6.493   4.211  0.8204 -0.2639 -0.6024
  260MOL0     C35011   0.490   6.405   4.318 -1.1973  0.7502 -0.5224
  260MOL0     O35012   0.352   6.198   4.488 -0.0077 -0.6448  0.2190
  260MOL0     C35013   0.643   6.019   4.614  0.0603 -0.3138  0.2728
  260MOL0     C35014   0.686   5.956   4.728  0.7279  0.1181 -0.3556
  260MOL0     N35015   0.808   6.037   5.393  0.3058  0.0557 -0.3948
  260MOL0     N35016   0.842   6.141   5.466  0.1522 -0.0642  1.0956
  260MOL0     C35017   1.136   6.240   6.616 -0.1382  1.1776 -0.7682
  260MOL0     C35018   1.207   6.326   6.713 -1.1209 -0.2303 -0.2076
  260MOL0     C35019   1.266   6.592   7.092 -0.5519  0.3792 -0.1782
  260MOL0     C35020   1.273   6.553   7.230 -0.5643  0.1344 -0.4757
  260MOL0     C35021   1.357   6.624   7.317 -0.7159 -0.2728 -0.1537
  260MOL0     C35022   1.445   6.718   7.266 -0.1134 -1.4336 -0.0731
  260MOL0     O35023   1.542   6.772   7.351  0.3410  0.4506  0.6528
  260MOL0     C35024   1.647   6.861   7.300 -0.3423  0.2468  0.3536
  260MOL0     C35025   1.755   6.876   7.407  0.2473  0.1186  1.1545
  260MOL0     C35026   1.885   6.932   7.342 -0.1998  0.9125 -0.1646
  260MOL0     C35027   1.887   7.076   7.369  0.8143  0.1928  0.9581
  260MOL0     C35028   2.007   7.125   7.301  0.4901  0.8916  0.5253
  260MOL0     C35029   2.111   7.142   7.236  0.3912  0.0506  0.0523
  260MOL0     C35030   1.440   6.755   7.130 -0.6729 -0.7220 -1.1067
  260MOL0     C35031   1.354   6.693   7.041 -0.7183 -0.4981  0.1648
  260MOL0     C35032   1.341   6.750   6.901 -0.1106 -0.2459  0.5859
  260MOL0     H35033   0.927   6.492   6.813 -0.6502 -0.3007 -0.2008
  260MOL0     H35034   0.825   6.329   6.665 -0.1993 -2.2861 -1.8870
  260MOL0     H35035   0.802   6.131   6.350  0.5820 -0.6196  0.8447
  260MOL0     H35036   0.797   6.281   6.442  1.6328  0.2987  0.3766
  260MOL0     H35037   1.013   6.346   6.383 -0.9679  2.6882 -1.7719
  260MOL0     H35038   0.892   6.339   6.264 -0.2777  1.4672  2.0207
  260MOL0     H35039   0.987   6.094   6.214 -0.2280  1.4484 -0.5011
  260MOL0     H35040   1.121   6.140   6.319  1.6713  3.1530 -0.4673
  260MOL0     H35041   1.113   6.354   6.138 -1.0958 -0.3749 -1.1206
  260MOL0     H35042   1.216   6.204   6.129 -0.6222 -2.2451 -1.5718
  260MOL0     H35043   1.045   6.088   5.999  0.6115 -0.0879 -0.0639
  260MOL0     H35044   0.932   6.218   6.030  0.9671  1.2150  3.0705
  260MOL0     H35045   1.049   6.361   5.858 -1.2961 -0.0000  2.1068
  260MOL0     H35046   1.198   6.265   5.875 -0.0449 -0.0090 -1.1339
  260MOL0     H35047   1.086   6.073   5.749  0.6147 -0.0544 -0.1215
  260MOL0     H35048   1.105   6.209   5.651  1.7467 -1.4207  0.4121
  260MOL0     H35049   0.852   6.135   5.807 -1.5286 -0.1294 -0.8876
  260MOL0     H35050   0.876   6.283   5.710  2.2029  0.4115  4.1343
  260MOL0     H35051   0.842   5.899   5.684 -0.1693 -0.3697 -0.0882
  260MOL0     H35052   0.849   5.746   5.381 -0.0073 -0.1646 -3.0288
  260MOL0     H35053   0.724   5.725   5.507  2.8352  0.2396  1.0944
  260MOL0     H35054   0.598   5.702   5.324  0.1978 -0.4589  0.4983
  260MOL0     H35055   0.592   5.883   5.320  0.5877  0.0370  0.1162
  260MOL0     H35056   0.756   5.707   5.129 -1.6098  0.5054 -2.7098
  260MOL0     H35057   0.805   5.875   5.168 -0.3646  0.3444 -2.3669
  260MOL0     H35058   0.599   5.965   5.118  2.9126 -1.1327  4.1963
  260MOL0     H35059   0.530   5.819   5.070 -0.1492  1.0829 -1.6647
  260MOL0     H35060   0.407   5.991   4.931 -0.9102 -2.6704 -1.2845
  260MOL0     H35061   0.339   6.122   4.749 -1.3205 -2.0606  0.6926
  260MOL0     H35062   0.688   6.165   4.187 -0.5267 -0.2099  0.7292
  260MOL0     H35063   0.702   6.340   3.996  1.3602 -0.2294  1.0270
  260MOL0     H35064   0.365   6.648   4.007 -0.7516 -4.0982 -1.8392
  260MOL0     H35065   0.513   6.746   4.056  2.8234 -0.1145 -1.0168
  260MOL0     H35066   0.585   6.718   3.820 -0.7388 -2.0523 -0.9067
  260MOL0     H35067   0.424   6.681   3.765 -1.2315  0.3845  0.9113
  260MOL0     H35068   0.529   6.928   3.896  2.5524 -2.2294 -1.8297
  260MOL0     H35069   0.476   6.909   3.734 -2.6069 -1.3457 -1.2718
  260MOL0     H35070   0.289   6.891   3.974  2.6330 -0.2594 -0.0409
  260MOL0     H35071   0.241   6.858   3.804 -0.1977  1.0158 -1.6552
  260MOL0     H35072   0.326   7.120   3.922  0.6401  1.7878 -1.4170
  260MOL0     H35073   0.158   7.067   3.898 -2.1265 -0.9008 -2.6751
  260MOL0     H35074   0.360   7.109   3.670  1.4844 -0.2781  2.2712
  260MOL0     H35075   0.194   7.036   3.657 -0.2041  1.8568 -1.9268
  260MOL0     H35076   0.298   7.316   3.720  0.1814 -0.5578 -1.7796
  260MOL0     H35077   0.119   7.250   3.734  0.0217 -1.8212  0.3496
  260MOL0     H35078   0.298   7.211   3.485  3.7297  2.1041  1.9138
  260MOL0     H35079   0.119   7.220   3.500  0.3288 -3.9235  2.7304
  260MOL0     H35080   0.435   6.587   4.228  1.4849 -0.2644  1.7470
  260MOL0     H35081   0.436   6.421   4.410 -0.7887  3.2590 -0.6490
  260MOL0     H35082   0.710   6.010   4.529  0.5126 -1.2085  0.7103
  260MOL0     H35083   0.784   5.910   4.725  1.5906  1.8932 -1.7270
  260MOL0     H35084   1.199   6.172   6.561  0.0853  0.6845  0.0745
  260MOL0     H35085   1.312   6.327   6.742 -1.4490  0.6017  1.0211
  260MOL0     H35086   1.212   6.477   7.275  2.6462 -0.4490  3.4775
  260MOL0     H35087   1.368   6.603   7.423 -2.4930 -0.6739 -0.0257
  260MOL0     H35088   1.603   6.960   7.284  0.1979  0.4842  0.3014
  260MOL0     H35089   1.682   6.812   7.208 -0.4225  1.4161 -0.3156
  260MOL0     H35090   1.765   6.773   7.443  1.9929 -0.3288 -0.4736
  260MOL0     H35091   1.729   6.949   7.485 -2.0979  2.3697 -1.4795
  260MOL0     H35092   1.886   6.920   7.233  0.5523  3.8281 -0.5748
  260MOL0     H35093   1.967   6.869   7.379  1.2375  2.5726 -0.4141
  260MOL0     H35094   1.806   7.117   7.308 -0.7804 -1.7264  1.6824
  260MOL0     H35095   1.872   7.101   7.475  0.1403 -0.7526  1.1051
  260MOL0     H35096   2.202   7.166   7.183  0.2262  0.0211 -0.2490
  260MOL0     H35097   1.504   6.839   7.103 -0.3539 -0.0018  1.5996
  260MOL0     H35098   1.242   6.736   6.855 -0.4909 -0.3581  1.4189
  260MOL0     H35099   1.358   6.858   6.894 -0.7536 -0.2552 -2.9969
  260MOL0     H35100   1.407   6.708   6.825 -0.1005  2.9582 -1.3774
  261MOL0     O35101   8.308   1.175   9.975  0.7460  0.0397  0.0702
  261MOL0     C35102   8.205   1.226  10.027  0.6316  0.3187 -0.8090
  261MOL0     O35103   8.206   1.355  10.082 -0.5101 -0.7645  0.3345
  261MOL0     C35104   8.331   1.412  10.106  0.7385 -0.0475  0.1576
  261MOL0     C35105   8.373   1.542  10.076 -0.6806  0.4428  1.1485
  261MOL0     C35106   8.505   1.591  10.085  0.3667 -0.2037 -0.0484
  261MOL0     C35107   8.604   1.507  10.135  0.3229  0.5278 -0.2655
  261MOL0     O35108   8.725   1.570  10.166 -0.9197  0.0885 -0.0060
  261MOL0     C35109   8.836   1.491  10.215  0.2353 -0.3284 -0.8622
  261MOL0     C35110   8.831   1.490  10.366  0.9172  0.3313  0.1201
  261MOL0     C35111   8.800   1.622  10.436  0.0386  0.0391 -1.3582
  261MOL0     C35112   8.780   1.595  10.581  0.1634 -0.5861  0.0642
  261MOL0     C35113   8.780   1.729  10.659 -0.2692  0.2599  0.0926
  261MOL0     C35114   8.826   1.712  10.807 -0.2634  0.8037  0.6349
  261MOL0     C35115   8.966   1.656  10.837  0.4972  0.9470 -0.2037
  261MOL0     C35116   9.072   1.762  10.817  1.1315 -0.0690  0.1844
  261MOL0     N35117   9.202   1.719  10.824  0.3691  0.3574  0.2984
  261MOL0     C35118   9.242   1.614  10.746  0.2406 -0.6984 -1.4778
  261MOL0     C35119   9.360   1.582  10.809 -0.3740 -0.1590  0.1040
  261MOL0     C35120   9.464   1.494  10.747 -0.4750  0.2896 -0.2270
  261MOL0     C35121   9.575   1.582  10.690  0.9854 -0.4359  0.0495
  261MOL0     C35122   9.697   1.502  10.645  0.2597  0.2192 -0.2072
  261MOL0     C35123   9.681   1.425  10.520 -0.0826 -0.4523 -0.7946
  261MOL0     O35124   9.705   1.519  10.410  0.1178  0.3503  0.0658
  261MOL0     C35125   9.717   1.466  10.281  0.8809 -0.7843 -0.8253
  261MOL0     C35126   9.748   1.552  10.178 -0.0400  0.2222 -0.5986
  261MOL0     C35127   9.744   1.516  10.052  0.1857  0.7170  0.4520
  261MOL0     C35128   9.718   1.372  10.012  0.6691 -0.8565  0.3674
  261MOL0     C35129   9.737   1.310   9.882  0.8755 -0.6746 -0.1840
  261MOL0     O35130   9.743   1.172   9.873  0.4595  0.5182  0.1694
  261MOL0     C35131   9.785   1.110   9.756 -0.3849  0.8427 -0.4752
  261MOL0     C35132   9.926   1.140   9.720  0.6582  0.3707  0.6283
  261MOL0     C35133   9.973   1.067   9.611 -0.3215 -0.1894 -0.1032
  261MOL0     C35134   9.899   0.985   9.531  0.3067  0.7059 -0.0476
  261MOL0     O35135   9.950   0.925   9.415 -0.3334 -0.3483  0.5719
  261MOL0     C35136   9.990   1.028   9.322 -0.1066 -0.3730  0.3225
  261MOL0     C35137  10.034   0.962   9.185  0.0943  0.1784  0.8836
  261MOL0     C35138  10.062   1.070   9.075 -0.6203  0.0357  0.1875
  261MOL0     C35139   9.933   1.103   9.006 -0.8609  0.0262 -0.1944
  261MOL0     C35140   9.964   1.230   8.910  0.1413 -0.0252  0.1548
  261MOL0     C35141   9.846   1.277   8.829 -0.3871 -0.5104  0.0994
  261MOL0     C35142   9.896   1.406   8.757  1.1757 -1.2286  0.2650
  261MOL0     C35143   9.785   1.457   8.669 -0.8024  0.5627 -0.2567
  261MOL0    Cl35144   9.762   1.345   8.521  0.1816 -0.2764  0.2357
  261MOL0     C35145   9.766   0.953   9.567 -0.3870 -0.2404 -0.8637
  261MOL0     C35146   9.711   1.013   9.684 -0.3859  0.8089  0.5775
  261MOL0     O35147   9.740   1.389   9.788  0.0583 -0.6133 -0.1454
  261MOL0     C35148   9.706   1.281  10.117 -0.5445 -0.7455 -0.8072
  261MOL0     C35149   9.703   1.328  10.248  1.2060  0.3520  0.1925
  261MOL0     N35150   9.379   1.656  10.930 -0.0491  0.0687 -1.2562
  261MOL0     N35151   9.276   1.731  10.939 -0.3340 -0.6883 -0.1777
  261MOL0     C35152   8.559   1.377  10.183 -0.9237 -0.9696  0.3413
  261MOL0     C35153   8.429   1.330  10.171  0.4747  0.8711 -1.2426
  261MOL0     C35154   8.074   1.147  10.042  0.5420 -0.3370  1.2433
  261MOL0     C35155   8.081   1.011  10.002 -1.8196  0.1206 -0.1095
  261MOL0     C35156   7.964   0.936   9.977 -0.2463 -0.3518  0.6066
  261MOL0     C35157   7.837   0.986   9.990 -0.4119  0.0444 -0.3555
  261MOL0     O35158   7.724   0.920   9.969 -0.0669 -0.1559  0.2518
  261MOL0     C35159   7.710   0.800  10.053 -0.1092  0.3024 -0.4115
  261MOL0     C35160   7.583   0.811  10.143 -0.1002  0.1746  0.2916
  261MOL0     C35161   7.593   0.930  10.239  0.0855  0.6218  0.6900
  261MOL0     C35162   7.656   0.885  10.366 -0.1183 -0.7149  0.3883
  261MOL0     C35163   7.787   0.818  10.360  0.9294  0.2620 -0.2679
  261MOL0     C35164   7.898   0.764  10.341  0.2722  1.1079  0.3591
  261MOL0     C35165   7.834   1.122  10.033 -0.9582 -0.1145 -0.3133
  261MOL0     C35166   7.951   1.197  10.057  0.4712 -1.3532 -0.4296
  261MOL0     C35167   7.929   1.340  10.102 -0.3587  0.4131 -0.4079
  261MOL0     H35168   8.303   1.612  10.033  0.1440  0.0901 -0.8890
  261MOL0     H35169   8.528   1.694  10.058 -0.1050 -0.3361 -0.9898
  261MOL0     H35170   8.832   1.387  10.181 -0.0473 -0.8087  0.5868
  261MOL0     H35171   8.925   1.544  10.179 -0.2083  0.8550 -0.2733
  261MOL0     H35172   8.933   1.462  10.391  1.3745  0.6499 -1.2625
  261MOL0     H35173   8.771   1.408  10.405 -0.4550  1.2830  0.1230
  261MOL0     H35174   8.711   1.675  10.400 -0.4161 -1.5922 -2.8336
  261MOL0     H35175   8.884   1.689  10.416 -1.1901  1.2775 -2.6494
  261MOL0     H35176   8.684   1.542  10.580  0.2590 -0.8722  2.2115
  261MOL0     H35177   8.854   1.528  10.625  0.7339  1.7364  2.8945
  261MOL0     H35178   8.843   1.801  10.607 -1.6265  1.0804 -0.4592
  261MOL0     H35179   8.685   1.783  10.666 -1.2102 -1.4940  2.9557
  261MOL0     H35180   8.820   1.813  10.848  1.3963  2.0558 -1.9482
  261MOL0     H35181   8.757   1.637  10.848  1.2814 -0.4841  0.9639
  261MOL0     H35182   8.984   1.572  10.770  2.2023  1.4891 -0.4721
  261MOL0     H35183   8.964   1.621  10.940 -0.5499  0.9119 -0.2230
  261MOL0     H35184   9.045   1.810  10.722  1.5068  2.2703  1.1808
  261MOL0     H35185   9.059   1.843  10.889  1.9458  1.9826 -1.8473
  261MOL0     H35186   9.192   1.577  10.658  0.3345  1.1259 -2.3541
  261MOL0     H35187   9.515   1.431  10.821 -1.1410 -0.2927 -0.2530
  261MOL0     H35188   9.422   1.440  10.661 -0.0346  1.5512 -1.2624
  261MOL0     H35189   9.529   1.637  10.607  2.1707 -3.3577 -2.7432
  261MOL0     H35190   9.603   1.645  10.775 -4.1775  0.1175  1.6954
  261MOL0     H35191   9.722   1.427  10.720  1.5857 -1.5839 -2.3119
  261MOL0     H35192   9.787   1.564  10.636  0.6178 -0.1618  0.6741
  261MOL0     H35193   9.578   1.393  10.501  0.4562 -2.7305 -0.2012
  261MOL0     H35194   9.745   1.336  10.519  1.4852  0.3981  3.3234
  261MOL0     H35195   9.770   1.655  10.200  0.7989 -0.0946  0.0723
  261MOL0     H35196   9.764   1.582   9.968  1.1725 -1.7834 -1.4002
  261MOL0     H35197   9.982   1.215   9.775 -0.4403  2.8134 -1.4038
  261MOL0     H35198  10.074   1.095   9.585  0.5868 -2.1185  1.0578
  261MOL0     H35199   9.910   1.099   9.303  2.4372  3.2028  1.9700
  261MOL0     H35200  10.083   1.077   9.350  1.2031 -0.9979 -2.5240
  261MOL0     H35201  10.120   0.896   9.201  0.5935 -0.4515 -3.2268
  261MOL0     H35202   9.959   0.893   9.144  4.4129 -3.1231 -2.4038
  261MOL0     H35203  10.118   1.154   9.118 -0.7510  0.0143  0.4021
  261MOL0     H35204  10.142   1.040   9.007  0.8646 -0.1443  1.9298
  261MOL0     H35205   9.858   1.141   9.076 -1.8685  0.4863 -1.4783
  261MOL0     H35206   9.883   1.019   8.958 -1.2728 -1.1406  2.1535
  261MOL0     H35207  10.055   1.215   8.852  0.7219  0.6933  0.8605
  261MOL0     H35208   9.990   1.311   8.979  2.1118 -0.3769 -0.1145
  261MOL0     H35209   9.811   1.199   8.762  1.1612 -0.9390 -0.2565
  261MOL0     H35210   9.765   1.307   8.897 -1.4107 -2.6120 -0.1054
  261MOL0     H35211   9.975   1.386   8.685 -3.0898 -2.0093 -4.8102
  261MOL0     H35212   9.916   1.492   8.822  1.3102  1.1480 -2.7176
  261MOL0     H35213   9.690   1.464   8.722 -1.5430  1.2179 -1.6501
  261MOL0     H35214   9.813   1.558   8.638  0.4971  0.7076  1.2501
  261MOL0     H35215   9.711   0.885   9.503  0.3322  0.9033 -2.7784
  261MOL0     H35216   9.605   0.992   9.693 -0.3562  0.7139  0.7095
  261MOL0     H35217   9.709   1.175  10.094 -0.9866 -1.1255  0.7068
  261MOL0     H35218   9.701   1.245  10.319  0.0149 -0.2273 -0.4863
  261MOL0     H35219   8.633   1.315  10.234  1.0620  1.3962  0.5378
  261MOL0     H35220   8.406   1.229  10.206  1.0051 -0.1300 -3.6196
  261MOL0     H35221   8.177   0.963   9.985 -1.7570  0.7265 -1.6738
  261MOL0     H35222   7.983   0.837   9.937  0.0467 -0.0035 -0.1377
  261MOL0     H35223   7.806   0.773  10.098  0.6557  1.9300 -0.9624
  261MOL0     H35224   7.691   0.717   9.984  0.6097 -1.2112  1.1551
  261MOL0     H35225   7.567   0.719  10.200  5.8871 -0.9038  0.8375
  261MOL0     H35226   7.498   0.823  10.076 -0.7626 -1.9807  0.6796
  261MOL0     H35227   7.490   0.966  10.246 -1.7716 -3.3474 -2.2828
  261MOL0     H35228   7.656   1.012  10.204  0.1078  0.5868  0.6485
  261MOL0     H35229   7.665   0.963  10.443 -2.1701 -0.9814  0.9788
  261MOL0     H35230   7.582   0.818  10.412  1.3265 -3.0268 -0.5077
  261MOL0     H35231   7.996   0.720  10.341  0.1569  0.8013  1.8062
  261MOL0     H35232   7.736   1.165  10.052 -0.5138 -0.0740  2.3714
  261MOL0     H35233   7.988   1.354  10.193  0.2307  0.9842 -0.8691
  261MOL0     H35234   7.960   1.416  10.030 -2.1569  1.3861 -0.1863
  261MOL0     H35235   7.825   1.363  10.126  0.1166  0.2491  2.1059
  262MOL0     O35236   5.489   7.103  10.443  0.3354 -0.4194  0.3421
  262MOL0     C35237   5.523   7.107  10.561  0.5144 -0.5002  0.0485
  262MOL0     O35238   5.434   7.110  10.661  0.0599  0.0173 -0.4067
  262MOL0     C35239   5.299   7.087  10.640 -0.9130  0.1787  0.5608
  262MOL0     C35240   5.242   7.012  10.536 -0.3727 -0.0009 -0.0682
  262MOL0     C35241   5.101   7.005  10.526 -0.0006  0.1464 -0.1428
  262MOL0     C35242   5.007   7.064  10.625 -0.1677  0.3495  0.3918
  262MOL0     O35243   4.872   7.062  10.610 -0.1284 -0.7507 -0.9210
  262MOL0     C35244   4.779   7.143  10.691  0.0164 -0.2201  0.3209
  262MOL0     C35245   4.628   7.099  10.689 -0.3893 -0.3420  0.4018
  262MOL0     C35246   4.599   6.969  10.762 -0.5556  0.3066 -0.7703
  262MOL0     C35247   4.448   6.943  10.763  0.6752 -1.2436  1.5631
  262MOL0     C35248   4.406   6.822  10.859 -0.1426  0.3760  0.2380
  262MOL0     C35249   4.416   6.851  11.007 -0.8006 -0.0470 -0.6597
  262MOL0     C35250   4.339   6.753  11.098  0.6263 -0.4985 -0.1928
  262MOL0     C35251   4.195   6.793  11.087  0.1572 -1.2016  0.0317
  262MOL0     N35252   4.113   6.739  11.193 -0.3930 -0.2251 -0.2670
  262MOL0     C35253   4.026   6.625  11.193  0.6674  0.3354  1.0235
  262MOL0     C35254   3.988   6.610  11.317 -0.0666  0.3588 -0.1282
  262MOL0     C35255   3.903   6.486  11.373 -0.5236 -1.1216  0.6742
  262MOL0     C35256   3.771   6.536  11.427  0.7487 -0.0632 -0.4566
  262MOL0     C35257   3.660   6.428  11.432  0.2446  0.7462  0.1001
  262MOL0     C35258   3.524   6.488  11.460 -0.5009 -0.2851  0.5759
  262MOL0     O35259   3.505   6.521  11.599  0.5926  0.0121  0.5206
  262MOL0     C35260   3.404   6.601  11.630 -0.3627  0.7251 -0.3370
  262MOL0     C35261   3.401   6.662  11.757  0.4862 -0.4604 -0.3719
  262MOL0     C35262   3.295   6.757  11.796 -0.9553  0.2329  0.4849
  262MOL0     C35263   3.205   6.804  11.694 -1.1880 -0.0501 -0.4193
  262MOL0     C35264   3.098   6.904  11.716  0.0466  1.1731  0.0922
  262MOL0     O35265   3.014   6.941  11.613 -0.2794 -0.2228 -1.3206
  262MOL0     C35266   2.911   7.020  11.660  0.0050  0.7160 -0.2221
  262MOL0     C35267   2.792   6.982  11.730 -0.0519  0.8371 -0.5917
  262MOL0     C35268   2.704   7.082  11.766  0.3152  0.2843 -0.4925
  262MOL0     C35269   2.723   7.212  11.729 -0.5910 -0.1860 -0.1754
  262MOL0     O35270   2.638   7.315  11.772  0.1442 -0.2652  0.6627
  262MOL0     C35271   2.540   7.301  11.877  0.0077 -0.0218 -0.0121
  262MOL0     C35272   2.520   7.439  11.951 -0.6034  0.8890 -1.0379
  262MOL0     C35273   2.444   7.556  11.872  0.4271  0.6580 -0.3983
  262MOL0     C35274   2.513   7.686  11.901 -0.4433  0.4557  0.0377
  262MOL0     C35275   2.431   7.821  11.876  0.1144 -0.4122  0.2576
  262MOL0     C35276   2.326   7.851  11.988 -0.3517  0.5128  0.2830
  262MOL0     C35277   2.298   7.995  12.029  0.0708 -0.0246  0.3589
  262MOL0     C35278   2.163   8.005  12.096  0.0294 -0.1255 -0.6215
  262MOL0    Cl35279   2.141   8.186  12.125  0.1403 -0.5470 -0.1910
  262MOL0     C35280   2.837   7.246  11.661 -0.8271  0.1783  0.0752
  262MOL0     C35281   2.914   7.147  11.611 -0.7419 -0.0468  0.3498
  262MOL0     O35282   3.099   6.956  11.824 -0.0692 -0.1599 -0.0617
  262MOL0     C35283   3.223   6.748  11.565  0.8284 -0.5188 -0.3913
  262MOL0     C35284   3.321   6.661  11.536  0.8613  0.5241  0.7153
  262MOL0     N35285   4.058   6.705  11.398 -0.3046  0.2003 -0.3653
  262MOL0     N35286   4.125   6.779  11.321 -0.4672  0.6080 -0.6261
  262MOL0     C35287   5.073   7.135  10.730  0.2143 -0.8133  0.1927
  262MOL0     C35288   5.212   7.142  10.734 -0.2111 -0.3406  0.1402
  262MOL0     C35289   5.668   7.107  10.594 -0.3880 -0.4362 -0.0636
  262MOL0     C35290   5.697   7.062  10.722 -0.1355 -0.3472  0.5952
  262MOL0     C35291   5.830   7.040  10.752 -0.0882  0.2368  0.4444
  262MOL0     C35292   5.932   7.096  10.683 -0.5443  0.4616  0.3442
  262MOL0     O35293   6.063   7.079  10.724 -0.7316 -0.1331  0.6851
  262MOL0     C35294   6.098   7.004  10.838 -1.0253 -0.1589 -0.7404
  262MOL0     C35295   6.249   6.997  10.841 -0.5374  0.4757  0.0991
  262MOL0     C35296   6.324   6.974  10.712  0.0751  0.2374 -0.3325
  262MOL0     C35297   6.285   6.841  10.656  0.4035  0.1064  0.5307
  262MOL0     C35298   6.373   6.807  10.538 -0.7136  0.3105  0.9849
  262MOL0     C35299   6.447   6.795  10.444 -1.4440  0.8709 -1.0736
  262MOL0     C35300   5.900   7.139  10.549  1.0484  0.6104  0.1645
  262MOL0     C35301   5.769   7.140  10.507  0.2175 -0.8830  0.5417
  262MOL0     C35302   5.738   7.213  10.371  0.3324 -0.0511 -0.0741
  262MOL0     H35303   5.303   6.958  10.464  2.9822  1.3352  1.5589
  262MOL0     H35304   5.055   6.954  10.442 -3.3503  2.6558 -0.0552
  262MOL0     H35305   4.810   7.144  10.796  1.2905  0.3912 -0.0397
  262MOL0     H35306   4.780   7.241  10.643 -2.6335 -0.3669 -0.1646
  262MOL0     H35307   4.595   7.083  10.586 -0.2103  1.1188  0.0905
  262MOL0     H35308   4.579   7.185  10.737  2.4531  0.5887  1.8754
  262MOL0     H35309   4.640   6.981  10.862  2.5068  1.2980 -2.0083
  262MOL0     H35310   4.644   6.883  10.712 -3.1333  0.3203 -3.4030
  262MOL0     H35311   4.401   7.038  10.792  2.7935  0.6688 -0.7859
  262MOL0     H35312   4.409   6.922  10.663 -1.8760  0.9269  1.9635
  262MOL0     H35313   4.304   6.793  10.832 -0.2701  0.3104  0.7825
  262MOL0     H35314   4.466   6.734  10.836  0.5371  1.2540 -1.5812
  262MOL0     H35315   4.523   6.862  11.028 -0.4932 -0.0673 -2.1126
  262MOL0     H35316   4.374   6.952  11.016 -1.7083 -0.4688 -0.0411
  262MOL0     H35317   4.389   6.753  11.195  1.4744 -4.5492 -0.4848
  262MOL0     H35318   4.345   6.651  11.060 -1.1308 -0.8927  0.4960
  262MOL0     H35319   4.188   6.902  11.098  3.2375 -0.4274 -3.7716
  262MOL0     H35320   4.157   6.759  10.991  2.8295  1.1223 -2.0147
  262MOL0     H35321   3.987   6.563  11.112 -0.6175 -0.6639  2.3532
  262MOL0     H35322   3.889   6.414  11.292  4.7072  1.7183 -3.4119
  262MOL0     H35323   3.961   6.443  11.455  0.2941  0.3987  0.9327
  262MOL0     H35324   3.785   6.585  11.524 -2.8972  1.0113 -0.3456
  262MOL0     H35325   3.739   6.607  11.351  0.9397 -0.4125 -0.8695
  262MOL0     H35326   3.686   6.352  11.507  0.0456 -2.0136 -2.4538
  262MOL0     H35327   3.662   6.386  11.332 -1.7954  5.0683 -2.0323
  262MOL0     H35328   3.452   6.411  11.428  1.3309 -1.1877 -1.6448
  262MOL0     H35329   3.521   6.576  11.395 -1.9069  0.4146  1.5489
  262MOL0     H35330   3.474   6.619  11.825 -2.3866 -0.1750  3.2434
  262MOL0     H35331   3.280   6.789  11.899 -0.9100  1.8022  0.0313
  262MOL0     H35332   2.773   6.880  11.761 -1.9689 -0.0798 -4.1755
  262MOL0     H35333   2.620   7.042  11.823  1.8722 -2.2645  0.1734
  262MOL0     H35334   2.446   7.260  11.839  0.1834 -2.7895  2.1773
  262MOL0     H35335   2.583   7.231  11.949  0.0842 -1.9880 -1.8685
  262MOL0     H35336   2.475   7.432  12.050 -0.3621  0.9443 -0.9239
  262MOL0     H35337   2.620   7.485  11.955 -0.3157  0.3583 -1.8972
  262MOL0     H35338   2.442   7.545  11.764 -4.3664  1.4242 -0.5868
  262MOL0     H35339   2.342   7.569  11.910  0.3847  0.1552 -0.3225
  262MOL0     H35340   2.610   7.690  11.850 -1.8636  0.1867 -2.9161
  262MOL0     H35341   2.550   7.667  12.002  1.4955 -2.7432 -1.0944
  262MOL0     H35342   2.390   7.798  11.777  2.9795 -3.7126 -0.3838
  262MOL0     H35343   2.501   7.905  11.873 -0.8738  0.4262  0.3599
  262MOL0     H35344   2.232   7.797  11.972  1.6329 -2.7320 -1.4531
  262MOL0     H35345   2.380   7.823  12.080  1.2838  1.9880 -0.1634
  262MOL0     H35346   2.305   8.059  11.940  0.9989 -0.4844  0.0915
  262MOL0     H35347   2.378   8.022  12.099 -0.6671  1.2840  0.7325
  262MOL0     H35348   2.086   7.973  12.026  2.2470 -4.5774 -1.4199
  262MOL0     H35349   2.164   7.945  12.188 -2.4307  1.1590  0.3304
  262MOL0     H35350   2.842   7.353  11.643 -2.6028  0.2813 -0.0261
  262MOL0     H35351   2.997   7.174  11.546 -0.5474  0.4372  0.7908
  262MOL0     H35352   3.152   6.777  11.488  0.1330  2.0531  1.0743
  262MOL0     H35353   3.334   6.634  11.432 -2.5946  0.3620  0.2223
  262MOL0     H35354   5.023   7.198  10.804  4.0416  1.7734  0.8569
  262MOL0     H35355   5.260   7.200  10.812  1.1174 -0.6592 -0.4268
  262MOL0     H35356   5.617   7.032  10.790 -0.6676  0.9594  0.5756
  262MOL0     H35357   5.848   6.991  10.848 -0.3744 -1.7210 -0.4541
  262MOL0     H35358   6.052   6.905  10.835 -2.6919  0.5416  0.2611
  262MOL0     H35359   6.057   7.052  10.927  1.7685 -0.9780  1.1092
  262MOL0     H35360   6.286   6.910  10.897 -1.2810  0.0481 -0.0566
  262MOL0     H35361   6.292   7.092  10.874  1.0833  0.1447 -0.9375
  262MOL0     H35362   6.433   6.973  10.722  0.0364 -2.0114  0.3815
  262MOL0     H35363   6.291   7.056  10.647  0.7215 -0.5934 -1.7814
  262MOL0     H35364   6.279   6.765  10.734  0.5520 -2.4711 -1.8283
  262MOL0     H35365   6.180   6.845  10.625  0.7108  0.4740 -0.5223
  262MOL0     H35366   6.516   6.801  10.363  4.0824  2.3810  3.1745
  262MOL0     H35367   5.977   7.179  10.484 -1.5992  2.1159 -2.2976
  262MOL0     H35368   5.642   7.187  10.325  0.0816 -2.4632  1.6342
  262MOL0     H35369   5.755   7.321  10.379 -4.0054  0.8377 -0.5036
  262MOL0     H35370   5.817   7.180  10.303  1.1440  2.2784 -0.3473
  263MOL0     O35371   0.519   8.367   0.614  0.7289  0.4584 -0.5550
  263MOL0     C35372   0.517   8.421   0.505 -0.0491  0.2636 -0.3358
  263MOL0     O35373   0.430   8.509   0.463  0.2221 -1.2065  0.1057
  263MOL0     C35374   0.325   8.543   0.546 -0.2642 -0.2499  0.6667
  263MOL0     C35375   0.351   8.643   0.650  0.2638  0.2444 -0.2867
  263MOL0     C35376   0.246   8.679   0.737 -0.0028 -1.0597 -0.2028
  263MOL0     C35377   0.129   8.613   0.734 -0.0228 -0.4040 -1.0081
  263MOL0     O35378   0.029   8.654   0.824 -0.3112 -0.0305  0.7301
  263MOL0     C35379  -0.065   8.561   0.880 -0.5404  0.5709  0.6323
  263MOL0     C35380  -0.129   8.619   0.994 -0.2155  0.4649  0.4267
  263MOL0     C35381  -0.042   8.643   1.119 -0.5415  0.7660 -1.4768
  263MOL0     C35382  -0.121   8.679   1.248  0.0225 -0.2878  0.8465
  263MOL0     C35383  -0.036   8.723   1.362 -0.6597 -0.3133  0.5893
  263MOL0     C35384  -0.127   8.809   1.460 -0.0811 -0.5209 -1.2240
  263MOL0     C35385  -0.047   8.866   1.576  0.0090 -0.1473 -0.0368
  263MOL0     C35386   0.037   8.988   1.540  0.1682  0.1579 -0.4993
  263MOL0     N35387  -0.038   9.121   1.537 -0.3856 -0.2673 -0.1154
  263MOL0     C35388  -0.084   9.172   1.655 -0.9817 -0.2545 -0.0030
  263MOL0     C35389  -0.159   9.273   1.620 -0.1817 -0.3547 -0.2422
  263MOL0     C35390  -0.215   9.382   1.713 -0.7229  0.1117 -0.2367
  263MOL0     C35391  -0.125   9.403   1.832  0.0899  0.3177  0.2840
  263MOL0     C35392  -0.189   9.521   1.920  0.2616 -0.1583 -0.2083
  263MOL0     C35393  -0.092   9.549   2.039 -0.4078 -0.1149 -1.8324
  263MOL0     O35394   0.043   9.576   1.982 -0.6529 -1.3929  0.0133
  263MOL0     C35395   0.151   9.573   2.062 -0.7374  0.4156 -0.1733
  263MOL0     C35396   0.155   9.617   2.194  0.8685  0.9661 -0.4511
  263MOL0     C35397   0.276   9.607   2.266  0.0824  0.1699 -0.3731
  263MOL0     C35398   0.397   9.563   2.200 -0.0692 -0.4937  0.4780
  263MOL0     C35399   0.524   9.544   2.277 -0.4452  0.5457  0.1605
  263MOL0     O35400   0.615   9.445   2.236  0.5210  0.0763 -0.8529
  263MOL0     C35401   0.740   9.438   2.287  0.5230 -0.2913  1.4855
  263MOL0     C35402   0.772   9.330   2.365 -0.1887 -0.0133  0.9481
  263MOL0     C35403   0.904   9.326   2.425  0.0951  0.0876  0.3264
  263MOL0     C35404   0.998   9.420   2.403  0.1704 -0.4183 -0.3880
  263MOL0     O35405   1.104   9.434   2.494  0.2060  0.2328  0.2735
  263MOL0     C35406   1.234   9.421   2.432  0.2532  0.2974 -0.0809
  263MOL0     C35407   1.327   9.353   2.525  0.4124  0.2918  0.5083
  263MOL0     C35408   1.471   9.344   2.462  0.9056 -0.2727 -0.6186
  263MOL0     C35409   1.546   9.475   2.486  0.8331  0.4623 -0.0734
  263MOL0     C35410   1.689   9.471   2.433 -0.0307 -0.4542  0.9305
  263MOL0     C35411   1.760   9.601   2.469  0.1099 -0.0669 -0.2163
  263MOL0     C35412   1.907   9.596   2.434  0.4715 -0.1372  0.1504
  263MOL0     C35413   1.992   9.495   2.505  0.1298  0.4041  0.1835
  263MOL0    Cl35414   2.155   9.542   2.450  0.5825 -0.1050 -0.4817
  263MOL0     C35415   0.968   9.519   2.312  0.9544  0.0262  0.2996
  263MOL0     C35416   0.843   9.529   2.250  0.4743 -0.7028 -0.1034
  263MOL0     O35417   0.544   9.637   2.349 -0.3242  0.2147 -0.0193
  263MOL0     C35418   0.383   9.529   2.067  0.1686  0.0504  0.0650
  263MOL0     C35419   0.261   9.539   1.993 -0.1833  0.0849 -0.8852
  263MOL0     N35420  -0.168   9.287   1.481  0.2131 -0.0910 -0.8555
  263MOL0     N35421  -0.093   9.186   1.436 -0.1961 -0.4039  0.1317
  263MOL0     C35422   0.105   8.505   0.647  0.2378 -1.0404 -0.0616
  263MOL0     C35423   0.201   8.481   0.543 -0.0651 -0.1200 -0.1479
  263MOL0     C35424   0.636   8.397   0.414  0.7200 -0.4948  0.4928
  263MOL0     C35425   0.636   8.470   0.291 -0.9988  1.0443  0.7700
  263MOL0     C35426   0.739   8.456   0.195 -0.0114  0.9983  0.5185
  263MOL0     C35427   0.845   8.364   0.221  0.0284  0.0912  0.3652
  263MOL0     O35428   0.945   8.355   0.123  1.0345 -0.0422 -0.5793
  263MOL0     C35429   1.055   8.273   0.155 -0.5340  0.6126 -0.4697
  263MOL0     C35430   1.136   8.269   0.026  0.1426  0.4568 -0.5619
  263MOL0     C35431   1.271   8.207   0.056 -0.1965  0.6360 -0.1387
  263MOL0     C35432   1.381   8.249  -0.034 -0.6317  0.0394 -0.2282
  263MOL0     C35433   1.352   8.202  -0.169  0.3801 -0.2540 -0.8834
  263MOL0     C35434   1.323   8.150  -0.277  0.0071 -0.6443  0.3045
  263MOL0     C35435   0.835   8.289   0.340 -0.7792 -0.0990  0.9932
  263MOL0     C35436   0.740   8.312   0.443  0.3336 -0.2646  0.2849
  263MOL0     C35437   0.760   8.230   0.566 -0.5265 -0.3739 -0.5711
  263MOL0     H35438   0.450   8.689   0.647  0.4765 -0.2249 -0.6022
  263MOL0     H35439   0.254   8.771   0.793  0.0417 -1.0223 -0.2704
  263MOL0     H35440  -0.133   8.535   0.799  0.2424 -0.0949  0.1847
  263MOL0     H35441   0.001   8.476   0.900 -0.8340  0.4491  1.1127
  263MOL0     H35442  -0.209   8.552   1.024  1.6641 -2.0661  0.1427
  263MOL0     H35443  -0.176   8.711   0.958  2.1840  0.7000 -2.6053
  263MOL0     H35444   0.041   8.714   1.111 -0.7624  1.6653  2.1307
  263MOL0     H35445   0.007   8.547   1.138  0.2655  1.8459  3.1700
  263MOL0     H35446  -0.190   8.760   1.224 -1.4308 -2.1430 -1.7825
  263MOL0     H35447  -0.188   8.598   1.279 -2.4005  1.4545  0.4398
  263MOL0     H35448  -0.002   8.636   1.418  0.0179 -1.2331 -1.1585
  263MOL0     H35449   0.045   8.786   1.323 -1.0505 -1.6284 -2.7157
  263MOL0     H35450  -0.163   8.900   1.412 -1.7758 -0.4529  0.1015
  263MOL0     H35451  -0.216   8.759   1.498 -1.2597  0.5847 -2.4406
  263MOL0     H35452   0.017   8.789   1.621  0.5178  1.8100  2.8676
  263MOL0     H35453  -0.112   8.882   1.662  0.9409 -1.0442  0.8695
  263MOL0     H35454   0.111   8.992   1.620 -0.3853  0.3118  0.0196
  263MOL0     H35455   0.089   8.974   1.445 -1.3815  5.5543 -2.5541
  263MOL0     H35456  -0.068   9.129   1.753 -0.4341  1.6470  0.7803
  263MOL0     H35457  -0.236   9.475   1.660 -2.8235 -0.6742 -0.9083
  263MOL0     H35458  -0.307   9.344   1.757  0.1380  1.1593  2.7157
  263MOL0     H35459  -0.120   9.310   1.890  1.2765 -0.9382 -1.6971
  263MOL0     H35460  -0.027   9.438   1.799  0.3109  0.0927  0.6962
  263MOL0     H35461  -0.290   9.495   1.953 -0.6346 -0.0897 -2.6625
  263MOL0     H35462  -0.201   9.614   1.863  1.2835  2.0795  2.9717
  263MOL0     H35463  -0.075   9.458   2.098  0.2561  1.5434  0.7001
  263MOL0     H35464  -0.130   9.628   2.104  1.9770  0.4817 -1.0524
  263MOL0     H35465   0.066   9.660   2.240 -2.1688 -2.9744 -2.0775
  263MOL0     H35466   0.294   9.638   2.368 -0.3275 -0.6527 -0.0384
  263MOL0     H35467   0.694   9.257   2.382 -0.1497 -1.1346 -2.8959
  263MOL0     H35468   0.925   9.238   2.484 -3.2406 -1.3802 -0.4612
  263MOL0     H35469   1.234   9.363   2.339  2.4395  1.0338 -0.6128
  263MOL0     H35470   1.270   9.520   2.401  0.7326  1.2231  3.0837
  263MOL0     H35471   1.337   9.394   2.626  1.8314 -0.3106  0.6339
  263MOL0     H35472   1.299   9.248   2.533  4.2780 -1.0927 -1.3959
  263MOL0     H35473   1.522   9.257   2.505 -0.3537  0.0524  1.7182
  263MOL0     H35474   1.465   9.329   2.354  1.9642  1.0416 -0.8826
  263MOL0     H35475   1.562   9.495   2.593  1.1802  6.4472 -0.9341
  263MOL0     H35476   1.487   9.554   2.438 -3.4134 -2.3860 -0.1382
  263MOL0     H35477   1.693   9.470   2.323 -0.0991  0.8052  0.9083
  263MOL0     H35478   1.740   9.385   2.477  0.2804 -0.6365  0.2381
  263MOL0     H35479   1.709   9.669   2.400 -1.4296 -1.5178 -0.5822
  263MOL0     H35480   1.733   9.624   2.573 -0.7925 -2.3012  0.1179
  263MOL0     H35481   1.943   9.699   2.448 -1.4957  0.4199  1.4375
  263MOL0     H35482   1.911   9.572   2.328 -2.0543  1.5250 -0.4145
  263MOL0     H35483   1.967   9.491   2.611 -0.3132 -1.3046  0.0444
  263MOL0     H35484   1.973   9.399   2.456 -2.9779  1.1255 -0.2182
  263MOL0     H35485   1.049   9.587   2.288  1.8441 -0.7243  1.0902
  263MOL0     H35486   0.817   9.617   2.191 -3.0153 -0.3731  1.6877
  263MOL0     H35487   0.474   9.523   2.008 -0.2266  0.9364 -0.6718
  263MOL0     H35488   0.261   9.529   1.885  0.2952 -1.5748 -0.7580
  263MOL0     H35489   0.008   8.457   0.655 -0.2593  0.2121  2.3143
  263MOL0     H35490   0.180   8.405   0.468  3.2944 -0.5516 -0.8128
  263MOL0     H35491   0.558   8.540   0.265 -0.7744  2.2446  3.0660
  263MOL0     H35492   0.747   8.517   0.106 -0.8450 -0.6633 -0.7653
  263MOL0     H35493   1.015   8.174   0.178 -2.5937  1.7407  1.1406
  263MOL0     H35494   1.112   8.314   0.239  0.2153 -1.2900  0.0046
  263MOL0     H35495   1.154   8.372  -0.006 -0.1278  1.0860  1.2237
  263MOL0     H35496   1.082   8.209  -0.047  1.3783 -0.4866 -0.7267
  263MOL0     H35497   1.272   8.098   0.056  1.8751  0.5741  1.7446
  263MOL0     H35498   1.309   8.233   0.156  0.9925 -1.5392  0.0266
  263MOL0     H35499   1.385   8.357  -0.020 -2.3483  0.3195 -1.5435
  263MOL0     H35500   1.478   8.207  -0.006 -0.5516 -1.6873 -2.6761
  263MOL0     H35501   1.302   8.103  -0.371 -0.5500  0.9201 -0.3754
  263MOL0     H35502   0.907   8.209   0.357 -2.6098 -1.6340  1.9786
  263MOL0     H35503   0.863   8.194   0.573  0.0916  1.4858  0.6919
  263MOL0     H35504   0.739   8.301   0.647 -7.1485 -0.6466 -1.4733
  263MOL0     H35505   0.692   8.145   0.571 -0.9618 -0.0693 -1.1778
  264MOL0     O35506   6.462  10.782   9.184  0.2828  1.2125  0.2655
  264MOL0     C35507   6.437  10.659   9.199 -0.3200 -0.0958  0.2325
  264MOL0     O35508   6.336  10.614   9.267  0.0012 -0.2272  0.1104
  264MOL0     C35509   6.247  10.691   9.340 -0.4599 -0.4975 -0.9563
  264MOL0     C35510   6.188  10.632   9.455  0.1114  0.7494  0.1345
  264MOL0     C35511   6.096  10.704   9.535  0.3311  0.6173 -0.0113
  264MOL0     C35512   6.059  10.833   9.496  0.8718 -0.3641 -0.2503
  264MOL0     O35513   5.971  10.907   9.563  0.0367  0.3243  0.1552
  264MOL0     C35514   5.853  10.961   9.504  0.1177 -0.9640 -0.1508
  264MOL0     C35515   5.812  11.091   9.576  0.0006 -0.8276 -0.7091
  264MOL0     C35516   5.917  11.204   9.560 -0.4404 -0.4211  0.6274
  264MOL0     C35517   5.916  11.299   9.674  0.6804  0.9358  0.2125
  264MOL0     C35518   5.773  11.358   9.702 -0.8330 -0.6482 -0.5024
  264MOL0     C35519   5.706  11.420   9.582 -0.3450  0.0597 -0.2154
  264MOL0     C35520   5.576  11.499   9.624  0.6948  1.0222 -0.2534
  264MOL0     C35521   5.460  11.397   9.663  0.0950  0.1233 -0.0273
  264MOL0     N35522   5.355  11.452   9.742  0.1145 -0.5827  0.6316
  264MOL0     C35523   5.375  11.519   9.854  0.4500  0.4700 -0.2605
  264MOL0     C35524   5.256  11.542   9.911 -0.0982  0.2255 -0.7410
  264MOL0     C35525   5.234  11.611  10.045 -0.2148 -0.0989  0.9730
  264MOL0     C35526   5.207  11.753  10.032 -0.4386 -0.8532 -0.0671
  264MOL0     C35527   5.123  11.809  10.144 -0.4515 -0.3060 -0.9110
  264MOL0     C35528   5.063  11.947  10.110 -0.3322 -0.5823 -0.4327
  264MOL0     O35529   4.966  11.947   9.996 -0.6230  0.2490 -0.6718
  264MOL0     C35530   4.838  11.928  10.048 -0.2903  0.1224 -0.5167
  264MOL0     C35531   4.781  11.804  10.042 -0.0269 -0.5325 -0.3132
  264MOL0     C35532   4.652  11.786  10.093 -0.3803  0.6498 -0.0302
  264MOL0     C35533   4.576  11.885  10.146 -0.9101 -0.2374  0.6141
  264MOL0     C35534   4.452  11.857  10.206 -0.1386 -0.1732 -0.1356
  264MOL0     O35535   4.403  11.952  10.282 -0.5169 -0.2302 -0.2970
  264MOL0     C35536   4.269  11.937  10.321  0.5202  0.6433  0.8632
  264MOL0     C35537   4.221  11.858  10.429 -1.3833  0.2554  0.2789
  264MOL0     C35538   4.100  11.888  10.483  1.5130 -0.9471  0.0632
  264MOL0     C35539   3.998  11.956  10.404 -0.4827  0.1119 -0.0524
  264MOL0     O35540   3.868  11.938  10.450  0.4050  0.5540  1.0169
  264MOL0     C35541   3.779  11.898  10.342  0.2042 -0.2078 -0.0927
  264MOL0     C35542   3.669  11.824  10.435  0.1349 -0.0919  0.3450
  264MOL0     C35543   3.552  11.768  10.353 -0.9812  0.0662 -0.1334
  264MOL0     C35544   3.453  11.683  10.441  0.4950 -0.7770  0.3688
  264MOL0     C35545   3.414  11.556  10.363  0.0586 -0.1650 -0.4801
  264MOL0     C35546   3.505  11.436  10.383 -0.5947  0.8821 -0.9490
  264MOL0     C35547   3.456  11.308  10.329  0.5013 -0.3776 -0.0009
  264MOL0     C35548   3.429  11.310  10.178 -0.1261  0.3333  0.9434
  264MOL0    Cl35549   3.579  11.312  10.077 -0.3612 -0.0921  0.2936
  264MOL0     C35550   4.037  12.015  10.282 -0.3871 -0.3591 -0.5205
  264MOL0     C35551   4.179  12.015  10.251  0.0256  0.2608 -0.4305
  264MOL0     O35552   4.391  11.753  10.185 -0.4810  0.5994 -0.2362
  264MOL0     C35553   4.634  12.014  10.157  0.6696  0.3740  0.2563
  264MOL0     C35554   4.759  12.033  10.102  0.1758 -0.6638  0.2622
  264MOL0     N35555   5.162  11.466   9.835  0.2109 -0.0963 -0.5083
  264MOL0     N35556   5.220  11.435   9.724 -0.3157  0.4220  0.6319
  264MOL0     C35557   6.109  10.886   9.378  0.4646  0.4192  1.0806
  264MOL0     C35558   6.206  10.819   9.302  0.0711 -0.4522  0.6884
  264MOL0     C35559   6.537  10.555   9.164  0.0052  0.1886  0.1027
  264MOL0     C35560   6.513  10.411   9.191 -0.5963  0.7913  0.8284
  264MOL0     C35561   6.612  10.317   9.171  0.1133  0.4310  0.2524
  264MOL0     C35562   6.740  10.353   9.142  0.0309 -0.3480  1.0217
  264MOL0     O35563   6.843  10.266   9.141  0.6381  0.5724 -0.0197
  264MOL0     C35564   6.942  10.294   9.241 -0.2110  0.8877  0.6899
  264MOL0     C35565   7.027  10.163   9.269 -0.3521  0.2105  0.7113
  264MOL0     C35566   7.172  10.161   9.217 -0.3172 -0.4694  0.5293
  264MOL0     C35567   7.203  10.098   9.086  0.4280 -0.0097  1.0319
  264MOL0     C35568   7.350  10.088   9.076  0.2755  0.1818 -0.1480
  264MOL0     C35569   7.466  10.071   9.064 -0.8986  0.5745 -0.1566
  264MOL0     C35570   6.768  10.492   9.118 -0.6930 -0.0123 -0.3734
  264MOL0     C35571   6.667  10.589   9.119  0.0882  0.0547 -0.4203
  264MOL0     C35572   6.722  10.722   9.087  0.1946 -0.6840 -0.1925
  264MOL0     H35573   6.201  10.527   9.480  0.7624  1.1997  1.8401
  264MOL0     H35574   6.066  10.670   9.634 -1.4669  1.4632 -0.2201
  264MOL0     H35575   5.874  10.981   9.399  0.4660 -1.3481 -0.1572
  264MOL0     H35576   5.769  10.891   9.509  0.5601 -1.4811  0.3424
  264MOL0     H35577   5.782  11.081   9.681 -1.6179  0.7360 -0.9773
  264MOL0     H35578   5.723  11.120   9.521  0.6743 -0.7383 -1.7791
  264MOL0     H35579   5.895  11.255   9.466  0.1262 -0.4320  0.4905
  264MOL0     H35580   6.019  11.165   9.552  0.5684  1.8212  1.7044
  264MOL0     H35581   5.956  11.235   9.753  2.2154  1.0810 -0.4092
  264MOL0     H35582   5.993  11.375   9.663 -0.6148  2.6060  2.0563
  264MOL0     H35583   5.713  11.275   9.741 -1.4702  0.8611  1.9660
  264MOL0     H35584   5.771  11.425   9.789 -3.8796 -1.8196  0.4622
  264MOL0     H35585   5.772  11.489   9.529  1.3654 -0.8427  0.6407
  264MOL0     H35586   5.669  11.344   9.513 -2.2037  1.4091 -0.7943
  264MOL0     H35587   5.543  11.554   9.536  1.3797  0.2102 -1.0334
  264MOL0     H35588   5.599  11.568   9.705  0.0026  0.6200  0.3042
  264MOL0     H35589   5.417  11.356   9.571 -2.5112 -0.4692  1.3524
  264MOL0     H35590   5.492  11.318   9.731 -1.5879 -0.1689  0.4595
  264MOL0     H35591   5.466  11.548   9.904  0.3921  0.7255 -0.3009
  264MOL0     H35592   5.140  11.571  10.083 -0.9864  1.8026  1.1703
  264MOL0     H35593   5.316  11.598  10.117 -1.6857  2.2710  3.2418
  264MOL0     H35594   5.303  11.806  10.036  0.5545 -2.6251  2.5954
  264MOL0     H35595   5.150  11.764   9.940 -1.6214  0.4220  0.7887
  264MOL0     H35596   5.178  11.814  10.238 -0.7395 -0.1828 -0.7474
  264MOL0     H35597   5.035  11.746  10.158  0.3268 -1.0873  0.7065
  264MOL0     H35598   5.151  12.008  10.089  1.4541 -2.3794  1.3135
  264MOL0     H35599   5.018  11.993  10.198  1.8181 -1.7906  1.3998
  264MOL0     H35600   4.843  11.720  10.011  0.0162 -1.5073  2.1479
  264MOL0     H35601   4.605  11.688  10.097  0.3451  0.2688 -0.5960
  264MOL0     H35602   4.294  11.788  10.467 -0.3535 -0.0019 -2.0409
  264MOL0     H35603   4.066  11.845  10.577  1.6482 -1.1553  0.0188
  264MOL0     H35604   3.729  11.985  10.299 -0.0319 -0.1382  0.3164
  264MOL0     H35605   3.821  11.826  10.271  0.3454 -2.0169  1.7271
  264MOL0     H35606   3.709  11.736  10.486 -1.1636 -0.6867  0.3657
  264MOL0     H35607   3.635  11.879  10.523 -2.2400  0.2826 -0.7401
  264MOL0     H35608   3.506  11.853  10.300  0.0558  0.7702  0.0692
  264MOL0     H35609   3.594  11.710  10.271  0.0911  1.3833 -0.5482
  264MOL0     H35610   3.364  11.741  10.466 -0.1413 -0.6315 -2.0083
  264MOL0     H35611   3.515  11.655  10.527  1.9728 -0.8918 -0.6985
  264MOL0     H35612   3.391  11.584  10.259 -1.3002  2.9744  0.5386
  264MOL0     H35613   3.321  11.513  10.401 -0.9354  1.6996 -0.6690
  264MOL0     H35614   3.604  11.452  10.340 -0.1384  1.9458  0.4289
  264MOL0     H35615   3.524  11.431  10.491 -0.8949  1.7768 -0.8437
  264MOL0     H35616   3.364  11.278  10.380  0.6629 -3.0271 -1.0935
  264MOL0     H35617   3.530  11.233  10.360  1.0937  1.1802  2.6223
  264MOL0     H35618   3.383  11.215  10.149 -0.4135 -0.2768  3.1950
  264MOL0     H35619   3.363  11.392  10.149  1.3824  1.5163  0.6707
  264MOL0     H35620   3.976  12.086  10.227  1.5511  0.4825 -1.6906
  264MOL0     H35621   4.204  12.062  10.156 -1.6111 -2.1370 -2.2007
  264MOL0     H35622   4.586  12.094  10.211 -0.1482 -1.2560  2.0789
  264MOL0     H35623   4.806  12.131  10.091 -0.0020 -0.7399 -1.3377
  264MOL0     H35624   6.066  10.975   9.331 -3.4615 -0.5772  2.3857
  264MOL0     H35625   6.238  10.847   9.202  0.9783 -2.4737  0.3513
  264MOL0     H35626   6.412  10.379   9.216 -1.3542 -0.6304 -3.3255
  264MOL0     H35627   6.583  10.213   9.186 -1.6808  1.1541  2.3897
  264MOL0     H35628   6.902  10.337   9.333 -1.4673  0.4358  0.3803
  264MOL0     H35629   7.002  10.364   9.182  0.4422  0.2081  0.5271
  264MOL0     H35630   6.980  10.083   9.211 -0.8551 -0.0475  1.4650
  264MOL0     H35631   7.034  10.137   9.375  4.7737 -1.3205  0.2750
  264MOL0     H35632   7.247  10.113   9.281  0.2754 -1.3952 -0.8072
  264MOL0     H35633   7.199  10.266   9.201 -0.5285 -0.4155  0.5315
  264MOL0     H35634   7.152  10.002   9.074  1.2286 -0.3160 -0.0953
  264MOL0     H35635   7.161  10.146   8.997 -2.3339 -0.7483  1.8325
  264MOL0     H35636   7.572  10.062   9.072 -0.6413  1.7794 -1.6553
  264MOL0     H35637   6.872  10.518   9.100  0.1099 -1.4146  1.7295
  264MOL0     H35638   6.799  10.705   9.012 -0.4710 -1.0843 -0.8028
  264MOL0     H35639   6.646  10.789   9.047  1.1242  0.7989  0.4389
  264MOL0     H35640   6.745  10.767   9.184 -3.7214  0.9754  0.1391
  265MOL0     O35641   4.143   5.637   3.907  0.0173 -0.0336  0.4036
  265MOL0     C35642   4.168   5.541   3.830  0.5785  0.9641  0.5389
  265MOL0     O35643   4.092   5.429   3.819  0.0832  1.0014  0.2952
  265MOL0     C35644   3.983   5.402   3.898  0.2500 -0.8351 -0.4140
  265MOL0     C35645   3.910   5.495   3.979  0.7680  0.1496  0.1440
  265MOL0     C35646   3.796   5.441   4.040  0.6467 -0.3956  0.0108
  265MOL0     C35647   3.743   5.310   4.021 -0.8480  0.0293  0.1587
  265MOL0     O35648   3.622   5.286   4.077  0.2225 -0.2374  0.7688
  265MOL0     C35649   3.590   5.151   4.109 -0.6467  0.8049  0.5446
  265MOL0     C35650   3.619   5.124   4.257 -0.4083  0.3280  0.9486
  265MOL0     C35651   3.736   5.192   4.326  0.5070  0.8093 -0.2746
  265MOL0     C35652   3.777   5.108   4.454  0.4180  0.1019 -0.5008
  265MOL0     C35653   3.910   5.171   4.509 -0.1452  0.1460 -0.9052
  265MOL0     C35654   3.958   5.096   4.638 -0.1488  0.2612  0.4244
  265MOL0     C35655   4.110   5.124   4.656 -1.3237  0.1500 -0.4835
  265MOL0     C35656   4.141   5.141   4.807  0.7864 -0.5248  0.1948
  265MOL0     N35657   4.109   5.269   4.869 -0.2038 -0.4100  0.2031
  265MOL0     C35658   4.008   5.347   4.829  0.1339  0.7685 -0.5244
  265MOL0     C35659   3.997   5.435   4.928 -0.2115 -0.0225  0.0584
  265MOL0     C35660   3.890   5.536   4.950 -0.2578  0.7909 -0.6863
  265MOL0     C35661   3.744   5.480   4.962 -0.3096  0.4386 -0.6220
  265MOL0     C35662   3.665   5.597   5.009  0.2541 -1.2057  0.0612
  265MOL0     C35663   3.521   5.559   5.013  0.7935 -0.0618 -0.4955
  265MOL0     O35664   3.489   5.477   5.122  0.0184 -0.4204 -0.0425
  265MOL0     C35665   3.360   5.443   5.149  0.7641 -0.6644 -0.5592
  265MOL0     C35666   3.361   5.342   5.240 -0.5291  0.2969  0.4646
  265MOL0     C35667   3.247   5.275   5.285  0.3613  0.5387  1.2338
  265MOL0     C35668   3.124   5.322   5.248 -0.6712 -0.3951  0.2788
  265MOL0     C35669   2.998   5.257   5.311 -0.8624  0.1545  0.7062
  265MOL0     O35670   2.878   5.278   5.256  0.3488 -0.1899  0.2748
  265MOL0     C35671   2.773   5.207   5.317  0.6724  0.3223 -0.7296
  265MOL0     C35672   2.687   5.275   5.408 -0.5969  0.5848  1.0118
  265MOL0     C35673   2.574   5.210   5.467 -0.7936  0.0342  0.1083
  265MOL0     C35674   2.558   5.071   5.444  0.1053 -0.5850  0.6416
  265MOL0     O35675   2.470   5.001   5.515 -0.0934 -0.5629 -0.7524
  265MOL0     C35676   2.336   5.031   5.459 -0.6762 -0.3406  0.8951
  265MOL0     C35677   2.219   4.966   5.553 -0.0080  0.2795 -0.4299
  265MOL0     C35678   2.087   4.966   5.471  0.1187 -0.1042  0.2767
  265MOL0     C35679   1.981   4.856   5.508  0.3585  0.4702 -0.2867
  265MOL0     C35680   1.869   4.851   5.404 -0.7069  0.0374 -0.0709
  265MOL0     C35681   1.777   4.749   5.462  0.2109 -0.3541 -0.7006
  265MOL0     C35682   1.655   4.729   5.390 -0.1371  0.4770 -0.0653
  265MOL0     C35683   1.574   4.614   5.428 -0.3368  0.1199 -1.0428
  265MOL0    Cl35684   1.464   4.571   5.302 -0.8350  0.1610  0.6395
  265MOL0     C35685   2.630   5.012   5.343  0.0275  0.4581 -0.0937
  265MOL0     C35686   2.742   5.078   5.287  0.5080  0.7677 -0.5302
  265MOL0     O35687   3.019   5.193   5.413 -0.0742 -1.0009 -0.3189
  265MOL0     C35688   3.115   5.425   5.152  0.3416  0.5176 -0.4277
  265MOL0     C35689   3.229   5.479   5.100 -0.5477  0.0148 -0.8694
  265MOL0     N35690   4.094   5.412   5.022 -1.0512  0.1298  0.3496
  265MOL0     N35691   4.158   5.311   4.995  0.4027 -0.0285 -0.2084
  265MOL0     C35692   3.822   5.222   3.938  1.0776 -0.6725 -1.2628
  265MOL0     C35693   3.947   5.272   3.884 -0.0536  0.3880 -0.0776
  265MOL0     C35694   4.304   5.542   3.772  0.8028  0.6104  0.2359
  265MOL0     C35695   4.415   5.570   3.853 -0.6711 -1.3161 -0.2979
  265MOL0     C35696   4.544   5.563   3.808 -0.1096 -0.7346 -0.6305
  265MOL0     C35697   4.562   5.511   3.684 -0.4814  1.0598 -0.4731
  265MOL0     O35698   4.699   5.505   3.646 -0.0427 -0.6444 -0.2797
  265MOL0     C35699   4.733   5.372   3.623  0.1854  0.4649 -0.4160
  265MOL0     C35700   4.889   5.340   3.635 -0.5547 -0.7321  0.0609
  265MOL0     C35701   4.979   5.393   3.520  0.2121 -0.8910 -0.0998
  265MOL0     C35702   5.021   5.547   3.535 -0.2121  0.4691  0.5688
  265MOL0     C35703   5.104   5.573   3.416 -0.6961  0.2559  1.1513
  265MOL0     C35704   5.161   5.595   3.308 -0.7697  0.1757 -0.9099
  265MOL0     C35705   4.460   5.471   3.604 -0.5460  1.0530 -0.0598
  265MOL0     C35706   4.330   5.475   3.647 -0.3047 -1.0896  0.3191
  265MOL0     C35707   4.226   5.436   3.545  0.4957 -1.0535 -0.4122
  265MOL0     H35708   3.927   5.602   3.986 -1.2509  0.4657  0.8893
  265MOL0     H35709   3.738   5.505   4.106  0.9101 -1.7424  1.6106
  265MOL0     H35710   3.485   5.135   4.082  0.2112 -0.3101 -2.5864
  265MOL0     H35711   3.649   5.073   4.060 -4.0167 -1.2653 -0.5708
  265MOL0     H35712   3.627   5.015   4.265  0.0698  0.2138 -0.7973
  265MOL0     H35713   3.528   5.149   4.314 -1.1103  1.2116 -0.4999
  265MOL0     H35714   3.714   5.292   4.365  1.9218 -0.0395  3.0776
  265MOL0     H35715   3.820   5.217   4.260  0.8730 -1.4409 -0.7237
  265MOL0     H35716   3.696   5.116   4.527  0.7075 -1.5175  0.0242
  265MOL0     H35717   3.791   5.003   4.430 -2.1485  0.0853 -2.2353
  265MOL0     H35718   3.992   5.176   4.438  1.9968 -1.9802  1.2453
  265MOL0     H35719   3.893   5.275   4.537 -2.6960  0.1127 -2.0146
  265MOL0     H35720   3.895   5.131   4.721 -0.6036 -0.4566  0.3874
  265MOL0     H35721   3.942   4.990   4.615  0.6121  0.3113 -0.3592
  265MOL0     H35722   4.123   5.219   4.604 -1.4604 -1.8133 -4.4440
  265MOL0     H35723   4.175   5.052   4.606 -1.2872  0.1103 -0.3805
  265MOL0     H35724   4.090   5.070   4.871  1.3935  0.3906  1.7404
  265MOL0     H35725   4.249   5.130   4.818  0.4217 -2.8056  2.1128
  265MOL0     H35726   3.955   5.348   4.734 -0.7564 -1.1562 -0.0869
  265MOL0     H35727   3.934   5.589   5.036  2.4794  1.6062 -2.4563
  265MOL0     H35728   3.892   5.607   4.867  1.8355  1.6473  0.0175
  265MOL0     H35729   3.710   5.430   4.871  0.2270  1.6121 -1.5013
  265MOL0     H35730   3.740   5.401   5.038 -0.8919 -1.7047 -2.7644
  265MOL0     H35731   3.680   5.674   4.933  1.9071 -4.1747 -2.9446
  265MOL0     H35732   3.687   5.640   5.107 -1.8153  2.6350 -0.9831
  265MOL0     H35733   3.491   5.513   4.919 -0.8362 -1.1853  0.5151
  265MOL0     H35734   3.457   5.646   5.032 -0.0099 -1.1247  2.2233
  265MOL0     H35735   3.457   5.321   5.286 -0.3662 -0.0590 -0.0331
  265MOL0     H35736   3.264   5.189   5.348 -1.0041 -0.6168  0.1250
  265MOL0     H35737   2.731   5.371   5.433 -1.5725  0.3440  4.1076
  265MOL0     H35738   2.530   5.252   5.557  0.8460 -0.5920  1.2478
  265MOL0     H35739   2.300   5.134   5.444 -3.5618 -1.1801  1.4618
  265MOL0     H35740   2.336   4.974   5.366 -0.0919 -0.3978  0.9279
  265MOL0     H35741   2.254   4.868   5.586 -0.6436  0.1691 -0.0738
  265MOL0     H35742   2.216   5.025   5.645  0.1061 -0.3259 -0.0327
  265MOL0     H35743   2.032   5.058   5.496  0.6522  0.9364 -2.0505
  265MOL0     H35744   2.097   4.969   5.362 -3.0869  4.2601 -0.1756
  265MOL0     H35745   1.940   4.880   5.607 -2.6738 -1.1623 -1.0345
  265MOL0     H35746   2.030   4.758   5.510  1.1463  0.8080 -1.7709
  265MOL0     H35747   1.898   4.818   5.304 -1.4210 -0.2965 -0.1698
  265MOL0     H35748   1.822   4.950   5.404 -1.6784 -0.3536  2.3440
  265MOL0     H35749   1.826   4.655   5.490 -0.7978 -0.0565  2.4734
  265MOL0     H35750   1.748   4.777   5.563 -0.1834 -1.3734 -0.5136
  265MOL0     H35751   1.675   4.726   5.282 -3.6036 -0.0768 -0.8213
  265MOL0     H35752   1.594   4.818   5.412 -0.5333  0.7212 -1.9709
  265MOL0     H35753   1.635   4.526   5.452 -2.0159  0.0736  4.3332
  265MOL0     H35754   1.515   4.635   5.517 -1.9203 -1.5432 -1.6434
  265MOL0     H35755   2.609   4.911   5.310 -0.1471  0.4284  0.1037
  265MOL0     H35756   2.792   5.026   5.207 -1.1339 -1.1768 -0.3618
  265MOL0     H35757   3.019   5.459   5.114  1.0951  3.9220  0.4270
  265MOL0     H35758   3.205   5.560   5.032 -0.9151  0.2796 -0.4317
  265MOL0     H35759   3.802   5.117   3.920  0.1288 -1.1326  1.8566
  265MOL0     H35760   4.008   5.201   3.829 -1.4734  0.3853 -1.7538
  265MOL0     H35761   4.393   5.597   3.956 -0.4269 -0.5824 -0.4301
  265MOL0     H35762   4.631   5.576   3.872 -1.5080 -2.2750  1.7645
  265MOL0     H35763   4.700   5.348   3.522  3.0492  4.2138 -2.5139
  265MOL0     H35764   4.693   5.305   3.700  1.0168  1.3930  0.8539
  265MOL0     H35765   4.891   5.231   3.640 -2.0460 -0.8088 -0.4921
  265MOL0     H35766   4.930   5.378   3.730  2.3035  0.2487 -1.4371
  265MOL0     H35767   4.914   5.380   3.433 -1.2005 -2.3360  1.1181
  265MOL0     H35768   5.072   5.335   3.520  0.8174  0.0166 -1.9757
  265MOL0     H35769   4.933   5.611   3.532 -1.6481 -1.2367  2.8359
  265MOL0     H35770   5.064   5.568   3.633  0.3266 -4.6916  1.7553
  265MOL0     H35771   5.187   5.616   3.206 -1.3321 -1.3913 -1.4116
  265MOL0     H35772   4.487   5.438   3.504  1.8897  1.1799  0.4934
  265MOL0     H35773   4.140   5.503   3.555  0.3096 -0.7700 -3.0708
  265MOL0     H35774   4.259   5.438   3.441 -0.0037 -2.6610 -0.6332
  265MOL0     H35775   4.187   5.338   3.575 -0.2763 -0.0903  1.9825
  266MOL0     O35776   1.915   7.215   6.985  0.3068  0.6122 -0.0870
  266MOL0     C35777   1.902   7.246   6.871 -0.1801 -0.0284  0.3752
  266MOL0     O35778   1.969   7.347   6.808 -0.2171  0.5619  0.3144
  266MOL0     C35779   2.046   7.437   6.877 -0.5558 -0.0565 -0.9281
  266MOL0     C35780   2.054   7.568   6.826 -0.0818 -0.1296  0.5111
  266MOL0     C35781   2.120   7.669   6.897 -0.5375 -1.2373  0.2343
  266MOL0     C35782   2.196   7.627   7.008 -1.2617 -1.0630 -0.2018
  266MOL0     O35783   2.249   7.736   7.075  0.8305  0.2561  0.5129
  266MOL0     C35784   2.298   7.725   7.201  1.1719 -0.0594 -0.1284
  266MOL0     C35785   2.193   7.697   7.303  0.4500  0.2672 -0.3246
  266MOL0     C35786   2.053   7.776   7.297 -0.1806 -0.1117 -0.6783
  266MOL0     C35787   1.984   7.730   7.420  0.1572 -0.6356  0.7646
  266MOL0     C35788   1.887   7.603   7.391  0.3342 -0.1563  0.1743
  266MOL0     C35789   1.786   7.592   7.504 -0.4229 -0.0310 -0.0976
  266MOL0     C35790   1.670   7.504   7.479  0.6952  0.5717  0.7466
  266MOL0     C35791   1.696   7.374   7.393 -0.4282 -0.4662 -0.1631
  266MOL0     N35792   1.580   7.303   7.362  0.7707  0.4492  0.2347
  266MOL0     C35793   1.499   7.328   7.255 -0.3752 -0.6816  0.3759
  266MOL0     C35794   1.401   7.233   7.259 -1.1960 -0.6195 -0.5721
  266MOL0     C35795   1.296   7.224   7.160  0.0989  0.2317 -0.1734
  266MOL0     C35796   1.179   7.132   7.204  0.0172 -0.1757  0.5048
  266MOL0     C35797   1.208   6.982   7.192 -0.4143 -0.2568 -0.5582
  266MOL0     C35798   1.078   6.908   7.239  0.1308  0.6140 -0.6064
  266MOL0     O35799   0.968   6.906   7.147 -0.4218  0.9703 -0.1023
  266MOL0     C35800   0.843   6.898   7.197 -0.0413 -0.4315  1.4891
  266MOL0     C35801   0.808   6.833   7.316  0.4582  0.1931  0.2906
  266MOL0     C35802   0.675   6.837   7.364 -0.5819  0.1908 -0.6819
  266MOL0     C35803   0.576   6.901   7.300  0.6905 -0.2932 -0.3690
  266MOL0     C35804   0.436   6.896   7.345 -0.5630 -0.2172  0.0346
  266MOL0     O35805   0.399   6.818   7.452  0.3886 -0.1485  0.0475
  266MOL0     C35806   0.265   6.777   7.472  0.5200  0.0989  0.4933
  266MOL0     C35807   0.174   6.762   7.368 -0.7477 -0.6831 -0.5969
  266MOL0     C35808   0.044   6.720   7.390 -0.0185 -0.2651 -0.1178
  266MOL0     C35809  -0.005   6.697   7.518 -0.3897 -0.1692 -0.9003
  266MOL0     O35810  -0.137   6.654   7.555 -0.9759 -0.3837  0.1880
  266MOL0     C35811  -0.234   6.717   7.471  0.1750  0.4835 -0.8099
  266MOL0     C35812  -0.371   6.709   7.534 -0.8462 -0.3375 -0.0197
  266MOL0     C35813  -0.356   6.708   7.684  0.4208  0.4410  0.0402
  266MOL0     C35814  -0.305   6.845   7.744  0.1017  0.4793  0.6520
  266MOL0     C35815  -0.345   6.862   7.889 -0.0614  0.6329 -0.2175
  266MOL0     C35816  -0.301   7.005   7.935  0.5198 -0.3005 -0.1982
  266MOL0     C35817  -0.157   7.032   7.926  0.1199  0.3122  0.1706
  266MOL0     C35818  -0.119   7.155   8.013 -0.4964  0.0756  0.8142
  266MOL0    Cl35819   0.062   7.165   8.036 -0.0502 -0.0686  0.3847
  266MOL0     C35820   0.078   6.709   7.629 -1.0325  0.7143 -0.3153
  266MOL0     C35821   0.217   6.749   7.603  0.0633  0.6551 -0.3245
  266MOL0     O35822   0.361   6.957   7.271 -0.1328 -0.8468  0.4693
  266MOL0     C35823   0.609   6.969   7.177 -1.0121  1.1368 -0.5670
  266MOL0     C35824   0.745   6.977   7.130  1.0422  0.1390  0.3432
  266MOL0     N35825   1.434   7.151   7.374 -0.8316  0.5818 -0.1683
  266MOL0     N35826   1.542   7.190   7.430  0.2933 -0.7991 -0.7711
  266MOL0     C35827   2.204   7.499   7.052 -0.4120  0.4512  0.3563
  266MOL0     C35828   2.127   7.406   6.981 -0.9843  0.1550 -0.3005
  266MOL0     C35829   1.795   7.179   6.784 -0.2086 -1.1233 -0.1576
  266MOL0     C35830   1.805   7.189   6.643 -1.0879  0.4372 -0.1964
  266MOL0     C35831   1.741   7.105   6.555 -0.1707  0.9945  0.1919
  266MOL0     C35832   1.648   7.018   6.610 -0.8067  0.9526 -0.1707
  266MOL0     O35833   1.574   6.947   6.519  1.5489  0.6142 -0.0700
  266MOL0     C35834   1.630   6.813   6.498  0.4382 -0.7107 -0.6921
  266MOL0     C35835   1.546   6.714   6.411 -1.1902  0.3455 -0.9719
  266MOL0     C35836   1.394   6.699   6.452 -0.5321 -0.5076  1.1809
  266MOL0     C35837   1.318   6.621   6.344 -0.8764  0.1162 -0.2950
  266MOL0     C35838   1.173   6.625   6.349  0.2592 -0.1551  0.0976
  266MOL0     C35839   1.050   6.622   6.343 -1.3870 -0.2445 -0.1162
  266MOL0     C35840   1.627   7.014   6.745 -0.6524 -0.5608  0.1910
  266MOL0     C35841   1.693   7.090   6.836 -0.0180 -0.5215  0.7258
  266MOL0     C35842   1.664   7.080   6.989 -0.9115 -1.2874  0.6787
  266MOL0     H35843   1.998   7.582   6.735 -3.7429 -1.4372  2.3670
  266MOL0     H35844   2.097   7.772   6.874 -0.3491 -1.3048 -0.2605
  266MOL0     H35845   2.384   7.658   7.207  1.8546  0.7163 -1.0406
  266MOL0     H35846   2.354   7.815   7.229 -1.0824  1.8676 -1.4883
  266MOL0     H35847   2.245   7.717   7.398  0.6839 -1.9232  0.0736
  266MOL0     H35848   2.162   7.594   7.320  0.3788  0.5999  1.9353
  266MOL0     H35849   1.987   7.763   7.210  1.3303 -2.3629 -1.5842
  266MOL0     H35850   2.084   7.880   7.308  1.0781 -0.6470  1.5560
  266MOL0     H35851   2.042   7.707   7.510 -0.8122 -3.2193  0.8118
  266MOL0     H35852   1.918   7.812   7.448  2.3472  1.4815  0.1131
  266MOL0     H35853   1.832   7.627   7.300  0.4937  0.1728  0.1647
  266MOL0     H35854   1.943   7.513   7.364  0.5912 -0.0610  0.3810
  266MOL0     H35855   1.842   7.545   7.585  0.2452 -0.4823 -0.7980
  266MOL0     H35856   1.747   7.691   7.529  2.4780  1.0754  0.5030
  266MOL0     H35857   1.585   7.552   7.431 -1.4793 -2.2807  1.4625
  266MOL0     H35858   1.626   7.463   7.570 -3.2629  0.1633 -1.1554
  266MOL0     H35859   1.745   7.387   7.296  1.1497  1.8482  0.8553
  266MOL0     H35860   1.758   7.306   7.452 -0.1397 -0.4904 -0.4925
  266MOL0     H35861   1.517   7.393   7.170 -0.9353 -1.8415 -0.6510
  266MOL0     H35862   1.258   7.327   7.157  3.9709  1.8795  1.3057
  266MOL0     H35863   1.329   7.205   7.058  1.6968  2.9761 -0.2751
  266MOL0     H35864   1.153   7.155   7.308 -2.8204 -2.5673  0.4596
  266MOL0     H35865   1.088   7.158   7.149  0.3779  0.7630  0.3268
  266MOL0     H35866   1.298   6.943   7.241  0.5064 -3.9662 -4.5612
  266MOL0     H35867   1.239   6.957   7.090 -0.5984 -1.6306 -0.2948
  266MOL0     H35868   1.047   6.953   7.334 -1.1668 -4.4852  1.7498
  266MOL0     H35869   1.101   6.807   7.275  0.9769  0.9039 -0.2863
  266MOL0     H35870   0.875   6.782   7.384  0.3193  0.7375  0.8490
  266MOL0     H35871   0.661   6.775   7.452  0.9700  1.7571  0.7432
  266MOL0     H35872   0.197   6.783   7.264  3.0071 -0.1478  0.2105
  266MOL0     H35873  -0.027   6.710   7.309 -1.5956  2.0205  0.8760
  266MOL0     H35874  -0.214   6.823   7.456 -1.5369  1.3119  2.0326
  266MOL0     H35875  -0.228   6.658   7.379  3.6181  2.6206 -2.1788
  266MOL0     H35876  -0.436   6.785   7.490  1.8230  0.3463 -3.2205
  266MOL0     H35877  -0.415   6.611   7.514  1.8886 -1.8520  0.7287
  266MOL0     H35878  -0.455   6.691   7.726 -1.1401  1.6695 -2.8380
  266MOL0     H35879  -0.291   6.625   7.714  0.1417 -0.0761 -0.7728
  266MOL0     H35880  -0.336   6.937   7.694  3.3389  0.9005 -0.8342
  266MOL0     H35881  -0.197   6.840   7.731 -0.1252 -0.7713 -1.1954
  266MOL0     H35882  -0.307   6.778   7.949  1.8264  1.9811  0.5320
  266MOL0     H35883  -0.453   6.844   7.901  0.1043 -1.1299 -1.0633
  266MOL0     H35884  -0.352   7.082   7.876  0.2313  0.5295  1.0795
  266MOL0     H35885  -0.344   7.023   8.034  1.1253 -0.7787  0.1570
  266MOL0     H35886  -0.132   7.048   7.821 -3.0418 -2.4701 -1.1793
  266MOL0     H35887  -0.102   6.945   7.964 -3.1265 -1.9344  0.0839
  266MOL0     H35888  -0.147   7.247   7.961  0.4026  0.1099  0.3681
  266MOL0     H35889  -0.166   7.145   8.111 -0.3346 -2.3337  0.6985
  266MOL0     H35890   0.038   6.679   7.725 -0.6604  1.1449 -0.0204
  266MOL0     H35891   0.290   6.756   7.684 -1.8366 -4.2053  2.1854
  266MOL0     H35892   0.527   7.005   7.116 -0.9393  1.6600 -0.3574
  266MOL0     H35893   0.767   7.036   7.041  1.4647 -0.1570  0.2460
  266MOL0     H35894   2.269   7.481   7.137  0.4293 -3.1758 -0.8502
  266MOL0     H35895   2.127   7.303   7.017  1.6723  1.3076  3.7416
  266MOL0     H35896   1.883   7.259   6.613  0.5740  0.5547  3.7282
  266MOL0     H35897   1.746   7.121   6.448 -1.7498 -0.1564 -0.1019
  266MOL0     H35898   1.649   6.753   6.587  2.4849 -1.7155 -1.7428
  266MOL0     H35899   1.729   6.817   6.452  0.2873 -1.3870 -1.0824
  266MOL0     H35900   1.603   6.621   6.405  0.0559  0.7916  2.0688
  266MOL0     H35901   1.538   6.754   6.310  0.2291 -1.2055 -1.7514
  266MOL0     H35902   1.333   6.790   6.458 -0.2806 -0.1193 -1.1522
  266MOL0     H35903   1.386   6.642   6.545 -0.9032 -3.5593 -0.5718
  266MOL0     H35904   1.355   6.648   6.245  0.9014 -0.6401  0.1113
  266MOL0     H35905   1.345   6.515   6.348 -0.6704  0.1185 -1.2937
  266MOL0     H35906   0.944   6.611   6.330 -1.8374 -0.8884  3.1063
  266MOL0     H35907   1.558   6.940   6.784 -1.6932 -0.1095 -0.7206
  266MOL0     H35908   1.559   7.051   6.999 -1.1903 -3.7584 -5.4863
  266MOL0     H35909   1.735   7.016   7.043  0.7903  0.7787  1.0011
  266MOL0     H35910   1.664   7.182   7.028  0.1167 -0.3841 -1.5145
  267MOL0     O35911   6.031   3.329   7.139 -0.0331  0.9937 -0.5516
  267MOL0     C35912   5.909   3.359   7.164  0.1580 -0.0194  0.1395
  267MOL0     O35913   5.835   3.474   7.125  0.6724 -0.2064  0.2349
  267MOL0     C35914   5.846   3.586   7.202  0.1278 -0.3906 -0.2219
  267MOL0     C35915   5.734   3.654   7.228  0.4588 -0.1103  0.0463
  267MOL0     C35916   5.742   3.786   7.273 -0.1973  0.5478  0.1419
  267MOL0     C35917   5.860   3.837   7.329  0.5986 -0.0860 -0.6915
  267MOL0     O35918   5.855   3.960   7.395 -0.4676 -1.0282  0.1994
  267MOL0     C35919   5.964   4.044   7.344  0.6297 -1.0487 -0.2935
  267MOL0     C35920   5.959   4.186   7.397  0.6514  0.2463 -0.7192
  267MOL0     C35921   5.973   4.176   7.554 -0.5776  0.1256 -0.0153
  267MOL0     C35922   6.091   4.090   7.606 -0.7527  0.0932  0.7263
  267MOL0     C35923   6.133   4.118   7.750  0.0662 -0.1597  0.0822
  267MOL0     C35924   6.004   4.099   7.849  0.1094 -0.3391  0.4439
  267MOL0     C35925   6.043   4.131   7.997  0.4679  0.2267  0.4307
  267MOL0     C35926   6.092   4.279   8.029  0.1112 -0.6057  0.4328
  267MOL0     N35927   5.975   4.371   8.019  1.0588  0.7283  1.9535
  267MOL0     C35928   5.849   4.337   8.057  0.2908  0.6318  0.5125
  267MOL0     C35929   5.766   4.417   7.980 -0.2316 -0.1396 -0.5728
  267MOL0     C35930   5.622   4.429   7.972 -0.3703  0.7142  0.1166
  267MOL0     C35931   5.555   4.358   7.866 -0.5296  0.6928  0.4143
  267MOL0     C35932   5.558   4.206   7.868  0.3046 -0.1007  0.1990
  267MOL0     C35933   5.499   4.141   7.736 -0.2042 -1.2772 -0.1766
  267MOL0     O35934   5.459   4.009   7.770 -0.4370 -0.8897 -0.4538
  267MOL0     C35935   5.548   3.909   7.747  0.3757  0.5648 -0.3241
  267MOL0     C35936   5.512   3.784   7.810 -0.1132 -0.0340 -0.1544
  267MOL0     C35937   5.581   3.659   7.786 -0.0689 -0.3901  0.1131
  267MOL0     C35938   5.690   3.664   7.706  0.3942  0.1457 -1.0036
  267MOL0     C35939   5.766   3.541   7.690 -0.4903 -0.0522 -0.6176
  267MOL0     O35940   5.888   3.560   7.635  0.2247 -0.3423 -0.5186
  267MOL0     C35941   5.984   3.461   7.651 -0.7389 -0.5573  0.4952
  267MOL0     C35942   6.101   3.491   7.583 -0.3779  0.8261  0.9423
  267MOL0     C35943   6.219   3.422   7.605  0.0789  0.2091  0.6090
  267MOL0     C35944   6.216   3.314   7.689 -0.3045  0.0018 -1.2497
  267MOL0     O35945   6.323   3.234   7.702 -0.1877  0.2036 -0.2371
  267MOL0     C35946   6.400   3.223   7.824 -0.3983  0.1132 -0.0583
  267MOL0     C35947   6.540   3.179   7.781  0.1125  0.6473  0.3059
  267MOL0     C35948   6.652   3.133   7.880 -0.0199  0.3347  0.5335
  267MOL0     C35949   6.684   3.247   7.985  0.0005 -0.2926 -0.2609
  267MOL0     C35950   6.681   3.199   8.132  0.1650 -0.0271  0.6225
  267MOL0     C35951   6.538   3.137   8.166  0.8605 -0.1402  0.5733
  267MOL0     C35952   6.434   3.254   8.177  0.2951  0.5244 -0.6165
  267MOL0     C35953   6.315   3.201   8.254  0.2058 -0.5424  0.8693
  267MOL0    Cl35954   6.228   3.064   8.165  0.1886 -0.3564  0.2757
  267MOL0     C35955   6.103   3.274   7.747  0.2690  0.2693 -0.1480
  267MOL0     C35956   5.989   3.350   7.732 -0.3544 -0.7117  0.0747
  267MOL0     O35957   5.714   3.427   7.705  0.3400 -0.2280  0.0326
  267MOL0     C35958   5.740   3.792   7.667  0.8072  0.6689  0.4864
  267MOL0     C35959   5.666   3.911   7.687  0.5672 -0.9543  0.3426
  267MOL0     N35960   5.848   4.493   7.889 -0.1158 -0.2842 -0.4016
  267MOL0     N35961   5.968   4.454   7.912  1.0738 -1.0080  0.2507
  267MOL0     C35962   5.973   3.765   7.314 -0.3686  0.8774 -0.5027
  267MOL0     C35963   5.970   3.634   7.249 -0.4434  0.1732  0.0225
  267MOL0     C35964   5.836   3.263   7.241 -0.6808 -1.0508  0.7433
  267MOL0     C35965   5.818   3.292   7.380  1.0588 -0.8209 -0.9798
  267MOL0     C35966   5.755   3.198   7.467 -0.4192 -0.1650 -0.1930
  267MOL0     C35967   5.735   3.065   7.417  0.7552 -0.6827 -0.2369
  267MOL0     O35968   5.702   2.956   7.490  0.3123  0.2531  0.0238
  267MOL0     C35969   5.706   2.950   7.633  0.3276  1.0361 -0.0623
  267MOL0     C35970   5.848   2.952   7.693 -0.1991  0.2487 -0.5980
  267MOL0     C35971   5.842   2.895   7.830 -0.1776  0.5687 -0.0419
  267MOL0     C35972   5.968   2.932   7.917  0.5297  0.4308  0.1149
  267MOL0     C35973   5.953   2.879   8.059  0.8012 -0.6288  0.6264
  267MOL0     C35974   5.969   2.835   8.172 -0.3520  0.0372 -0.1019
  267MOL0     C35975   5.768   3.037   7.282  0.8537 -0.4237  0.3804
  267MOL0     C35976   5.810   3.133   7.191  0.8406 -1.5273  0.1793
  267MOL0     C35977   5.828   3.092   7.044  0.4422 -0.3404 -0.0307
  267MOL0     H35978   5.633   3.615   7.223 -0.9722  3.1747  0.4804
  267MOL0     H35979   5.657   3.854   7.279  0.0865  1.0026 -0.7710
  267MOL0     H35980   6.064   4.011   7.374  0.9977  2.7618  3.6604
  267MOL0     H35981   5.964   4.039   7.235 -1.1503 -3.4261 -0.2664
  267MOL0     H35982   5.861   4.227   7.368 -0.3086  0.2391  2.2587
  267MOL0     H35983   6.040   4.243   7.350  2.2366 -0.2572  1.2719
  267MOL0     H35984   5.879   4.138   7.597 -1.4928 -0.5936 -2.4678
  267MOL0     H35985   5.989   4.279   7.586 -0.4347  0.4677 -1.1318
  267MOL0     H35986   6.055   3.987   7.604 -0.7252  0.0959  0.0609
  267MOL0     H35987   6.179   4.106   7.543 -1.1027  0.8635  0.4216
  267MOL0     H35988   6.214   4.049   7.775  0.4759  0.0511 -0.6606
  267MOL0     H35989   6.176   4.218   7.762 -0.0025 -0.3974  3.0874
  267MOL0     H35990   5.924   4.169   7.822  1.7756  0.8989 -1.5934
  267MOL0     H35991   5.955   4.003   7.830 -2.9553  1.2568 -0.5778
  267MOL0     H35992   6.129   4.065   8.013  0.8653  0.8587  0.9517
  267MOL0     H35993   5.952   4.101   8.049 -0.2867 -0.2174 -1.0997
  267MOL0     H35994   6.130   4.277   8.131  2.6728  1.1931 -0.4008
  267MOL0     H35995   6.167   4.306   7.955 -0.8179 -2.5860 -1.3408
  267MOL0     H35996   5.816   4.262   8.129  2.8845 -0.0777  1.0808
  267MOL0     H35997   5.573   4.393   8.062 -1.1856 -1.8210 -1.2366
  267MOL0     H35998   5.600   4.535   7.957 -0.4282  0.6509 -0.2643
  267MOL0     H35999   5.452   4.391   7.848 -1.1952 -1.4420  0.0147
  267MOL0     H36000   5.600   4.382   7.769 -0.5752 -1.0244 -0.0700
  267MOL0     H36001   5.483   4.171   7.939  0.0790  0.8931  0.4627
  267MOL0     H36002   5.655   4.159   7.889  0.2222 -0.4748 -0.2367
  267MOL0     H36003   5.564   4.150   7.649 -1.5568 -0.6975 -1.1716
  267MOL0     H36004   5.406   4.190   7.705  0.5688 -0.4025 -1.1719
  267MOL0     H36005   5.419   3.791   7.865  1.6484 -0.2722  3.0616
  267MOL0     H36006   5.545   3.566   7.827  1.0736 -0.9806 -0.1605
  267MOL0     H36007   6.105   3.580   7.521 -2.0459 -0.0843 -0.5408
  267MOL0     H36008   6.311   3.442   7.551 -1.1106 -2.3854 -2.7582
  267MOL0     H36009   6.425   3.319   7.870  2.5534 -1.7455  2.6176
  267MOL0     H36010   6.359   3.155   7.898  1.5994  0.9371  1.9077
  267MOL0     H36011   6.526   3.097   7.710  1.5372  1.1148 -0.5388
  267MOL0     H36012   6.586   3.262   7.728 -0.7001  0.0045 -1.5007
  267MOL0     H36013   6.632   3.037   7.928  2.0628  0.3878  1.5969
  267MOL0     H36014   6.744   3.112   7.826 -1.3450 -0.7628 -1.4372
  267MOL0     H36015   6.615   3.332   7.984 -0.1523 -0.4004 -1.8535
  267MOL0     H36016   6.780   3.288   7.956  0.0871 -1.3593 -1.5609
  267MOL0     H36017   6.715   3.271   8.207  0.8913 -1.6725  1.9628
  267MOL0     H36018   6.759   3.122   8.141 -0.5965 -0.6638  2.1392
  267MOL0     H36019   6.514   3.071   8.083 -3.9896  3.2531 -1.1725
  267MOL0     H36020   6.542   3.071   8.254  3.2081 -4.1117 -2.2164
  267MOL0     H36021   6.406   3.296   8.080 -1.1287 -0.0856 -0.5083
  267MOL0     H36022   6.475   3.334   8.238 -3.5971  1.2664  1.3536
  267MOL0     H36023   6.354   3.170   8.351 -0.1253 -0.4065  1.0445
  267MOL0     H36024   6.245   3.279   8.283  0.1796  0.0343 -0.6182
  267MOL0     H36025   6.102   3.173   7.786 -0.8227 -0.5098 -2.0560
  267MOL0     H36026   5.902   3.302   7.776  0.6827 -2.1499  0.6597
  267MOL0     H36027   5.827   3.798   7.602 -0.0127 -1.7616 -0.9663
  267MOL0     H36028   5.721   3.996   7.647  2.2668 -2.7281 -1.2288
  267MOL0     H36029   6.069   3.807   7.342  0.7014 -0.2190 -2.3277
  267MOL0     H36030   6.062   3.577   7.244 -0.9971 -0.7281 -0.2144
  267MOL0     H36031   5.849   3.391   7.412  0.0442  0.1692 -2.8830
  267MOL0     H36032   5.724   3.217   7.569 -0.4877  1.8574 -0.5521
  267MOL0     H36033   5.656   2.858   7.665  2.1924 -0.3623 -0.9404
  267MOL0     H36034   5.640   3.029   7.669  0.0163  1.2417 -1.0620
  267MOL0     H36035   5.882   3.056   7.695 -0.4582  0.3799  2.6767
  267MOL0     H36036   5.908   2.889   7.626  2.0225  1.4426  0.1574
  267MOL0     H36037   5.821   2.788   7.826 -4.5102  1.2500 -0.2192
  267MOL0     H36038   5.759   2.938   7.886 -1.2243 -2.2509  0.7565
  267MOL0     H36039   6.061   2.900   7.869 -0.0700 -2.4256  0.6433
  267MOL0     H36040   5.963   3.041   7.926 -5.2698  0.4863  0.1229
  267MOL0     H36041   5.963   2.794   8.271 -1.5603 -2.1993 -1.0263
  267MOL0     H36042   5.740   2.939   7.243 -0.6350  1.6148 -4.3654
  267MOL0     H36043   5.756   3.142   6.978 -2.1046  0.8618  3.3816
  267MOL0     H36044   5.922   3.141   7.016 -0.0472  1.5247  1.3966
  267MOL0     H36045   5.834   2.983   7.037  0.2122 -0.2513 -2.4505
  268MOL0     O36046  10.652   5.062   5.419  0.7192 -0.2646  0.2673
  268MOL0     C36047  10.669   5.126   5.312 -0.2588  0.3010  0.0080
  268MOL0     O36048  10.778   5.118   5.247 -0.9892  0.6181 -0.1320
  268MOL0     C36049  10.884   5.038   5.296 -0.1275 -0.5686  0.1908
  268MOL0     C36050  10.858   4.903   5.318  0.5689  0.0050  0.3347
  268MOL0     C36051  10.966   4.829   5.370 -0.1617  0.2035 -0.5240
  268MOL0     C36052  11.088   4.893   5.405  0.6030 -0.2418  0.1953
  268MOL0     O36053  11.191   4.821   5.443 -0.9174 -1.0821  0.2536
  268MOL0     C36054  11.211   4.813   5.589  0.5178 -0.8420 -0.0552
  268MOL0     C36055  11.333   4.905   5.629  0.3215 -0.5649 -0.4665
  268MOL0     C36056  11.447   4.926   5.525 -0.3022 -0.6068  0.1741
  268MOL0     C36057  11.504   5.064   5.543  0.6646  0.3931  0.9770
  268MOL0     C36058  11.592   5.080   5.677 -1.2187 -0.7269 -0.5556
  268MOL0     C36059  11.694   5.189   5.672  0.0925 -0.3194 -0.4219
  268MOL0     C36060  11.708   5.260   5.812 -0.0174  1.0243 -0.0064
  268MOL0     C36061  11.808   5.367   5.820  0.1130  0.3686 -0.0494
  268MOL0     N36062  11.846   5.409   5.960 -0.5337  0.6886  0.2456
  268MOL0     C36063  11.768   5.465   6.059  0.0267  0.2937 -0.5291
  268MOL0     C36064  11.849   5.467   6.166  0.1746 -0.4888 -0.7291
  268MOL0     C36065  11.794   5.532   6.299  0.0597  0.4345 -0.2684
  268MOL0     C36066  11.774   5.686   6.270  0.1172  0.2777  0.3969
  268MOL0     C36067  11.784   5.768   6.394 -0.2251 -0.1635  0.0594
  268MOL0     C36068  11.791   5.914   6.360  0.7764 -0.4807 -1.0881
  268MOL0     O36069  11.662   5.943   6.311 -0.3127 -1.0745  0.4935
  268MOL0     C36070  11.637   6.065   6.255  0.6368  0.1700  1.2291
  268MOL0     C36071  11.516   6.118   6.285  0.4264  0.3673  0.1448
  268MOL0     C36072  11.475   6.247   6.242 -0.8493  0.1738 -0.5115
  268MOL0     C36073  11.575   6.323   6.169 -0.4463  0.1595  0.1771
  268MOL0     C36074  11.539   6.459   6.115 -0.4556  0.6746  0.0188
  268MOL0     O36075  11.416   6.510   6.135  1.1861  1.1293 -0.4187
  268MOL0     C36076  11.388   6.624   6.065 -0.0342 -0.1724  0.4387
  268MOL0     C36077  11.443   6.752   6.082 -0.4492 -0.3536  0.7439
  268MOL0     C36078  11.403   6.865   6.003 -0.5879  0.4965  0.1676
  268MOL0     C36079  11.290   6.852   5.910 -0.2056  0.2998 -0.0778
  268MOL0     O36080  11.239   6.942   5.820  0.4884  0.0819 -0.1768
  268MOL0     C36081  11.301   7.068   5.805 -0.0286  0.1462 -0.4268
  268MOL0     C36082  11.199   7.166   5.738  0.7359 -0.8430 -0.8879
  268MOL0     C36083  11.209   7.310   5.786 -0.5425  0.2988 -0.3950
  268MOL0     C36084  11.087   7.393   5.772 -0.8515 -0.1507 -0.2668
  268MOL0     C36085  11.095   7.440   5.621 -0.1077  0.0600  0.4104
  268MOL0     C36086  10.989   7.545   5.604  0.1929 -0.2961  1.2218
  268MOL0     C36087  11.003   7.609   5.455  0.0352  0.7464 -0.3016
  268MOL0     C36088  10.947   7.749   5.454 -0.3708 -0.5268  0.6031
  268MOL0    Cl36089  11.024   7.845   5.581  0.0165 -0.0070  0.0793
  268MOL0     C36090  11.236   6.725   5.901  0.8293  0.1756 -0.1898
  268MOL0     C36091  11.288   6.613   5.971 -0.2730  0.6861 -0.6113
  268MOL0     O36092  11.625   6.521   6.062 -0.0860  0.0443 -0.8114
  268MOL0     C36093  11.699   6.264   6.134  0.2163  0.2249 -0.1488
  268MOL0     C36094  11.729   6.134   6.178 -0.1807  0.3544  1.1191
  268MOL0     N36095  11.979   5.436   6.137 -0.1276 -0.1568 -0.6250
  268MOL0     N36096  11.970   5.397   6.011 -0.5298 -0.9995 -0.2092
  268MOL0     C36097  11.113   5.023   5.372 -0.6099 -0.8552 -0.8308
  268MOL0     C36098  11.011   5.093   5.309 -0.1507  0.3818 -0.8131
  268MOL0     C36099  10.558   5.206   5.255  0.0054  0.2157 -0.5986
  268MOL0     C36100  10.580   5.304   5.162  0.5913 -0.0825  1.0071
  268MOL0     C36101  10.478   5.359   5.088 -1.8686 -0.9490 -0.1177
  268MOL0     C36102  10.352   5.321   5.088  0.9324 -0.1892 -0.6225
  268MOL0     O36103  10.269   5.363   4.988 -0.3151  0.3874 -0.9260
  268MOL0     C36104  10.135   5.403   5.030  0.4380 -0.4703  0.6490
  268MOL0     C36105  10.050   5.448   4.906 -0.8829 -0.0236 -0.9134
  268MOL0     C36106  10.090   5.372   4.773 -0.8350  0.5419 -0.3131
  268MOL0     C36107  10.018   5.431   4.651 -0.0231 -0.6112 -0.6928
  268MOL0     C36108  10.038   5.348   4.536 -0.5993 -0.2453 -0.2710
  268MOL0     C36109  10.073   5.273   4.451 -0.3554  0.5334  0.1760
  268MOL0     C36110  10.322   5.230   5.195  0.1330 -0.4798 -0.3046
  268MOL0     C36111  10.425   5.177   5.273  1.2502  0.2947  0.3640
  268MOL0     C36112  10.374   5.059   5.359  0.2854 -0.3840 -0.5897
  268MOL0     H36113  10.765   4.863   5.280  0.8761  0.6573 -1.2138
  268MOL0     H36114  10.969   4.721   5.378  1.4712  0.0089 -2.8808
  268MOL0     H36115  11.123   4.849   5.643 -1.1543 -4.4251 -0.0748
  268MOL0     H36116  11.228   4.709   5.621  1.3766 -1.3921 -2.1116
  268MOL0     H36117  11.379   4.866   5.721 -0.2258 -0.4857 -0.1559
  268MOL0     H36118  11.288   5.001   5.655 -1.4934 -1.1094 -1.4582
  268MOL0     H36119  11.405   4.918   5.424  0.7602  0.5561 -0.3888
  268MOL0     H36120  11.522   4.849   5.544 -2.3897 -2.7104  0.4351
  268MOL0     H36121  11.577   5.068   5.462  2.1223 -4.4292  1.7276
  268MOL0     H36122  11.440   5.151   5.530  0.6742  0.0803 -1.8518
  268MOL0     H36123  11.527   5.084   5.765 -0.6781 -0.5846 -0.1559
  268MOL0     H36124  11.651   4.988   5.686 -0.2640 -0.3932 -2.7282
  268MOL0     H36125  11.785   5.134   5.647  1.4387  1.7102 -0.1761
  268MOL0     H36126  11.667   5.255   5.589 -4.0090 -0.0206  0.9178
  268MOL0     H36127  11.750   5.183   5.878  1.1286  2.3264  0.8489
  268MOL0     H36128  11.613   5.293   5.853  0.0289  2.5442 -1.0289
  268MOL0     H36129  11.896   5.337   5.762 -0.3385  0.6679 -0.9008
  268MOL0     H36130  11.771   5.455   5.767 -1.3534 -0.3544 -0.2898
  268MOL0     H36131  11.666   5.502   6.055  0.2682  0.8840 -1.6784
  268MOL0     H36132  11.704   5.482   6.338  0.2937  0.6268  0.5437
  268MOL0     H36133  11.877   5.519   6.369  0.0266  2.2282  0.1682
  268MOL0     H36134  11.845   5.727   6.198  1.9607 -2.4978  0.4744
  268MOL0     H36135  11.674   5.700   6.229 -0.7020 -1.7467  1.5578
  268MOL0     H36136  11.880   5.750   6.443  0.5826 -0.9935 -1.7698
  268MOL0     H36137  11.699   5.742   6.460  2.2670  0.3862  3.8096
  268MOL0     H36138  11.882   5.927   6.301  2.7677 -1.0650  1.6138
  268MOL0     H36139  11.793   5.975   6.451 -2.2017 -0.6771 -0.7749
  268MOL0     H36140  11.442   6.058   6.336 -1.7976  1.0581 -2.0695
  268MOL0     H36141  11.376   6.283   6.269  0.4143  3.9433 -0.2476
  268MOL0     H36142  11.525   6.761   6.152 -1.9737 -0.4317  2.6415
  268MOL0     H36143  11.460   6.955   6.017 -1.3344  0.9592  0.2792
  268MOL0     H36144  11.346   7.099   5.899 -1.0609 -1.3385  0.6106
  268MOL0     H36145  11.388   7.062   5.739  2.3487 -2.3872  2.6086
  268MOL0     H36146  11.215   7.168   5.629  1.0752  0.0526 -0.8370
  268MOL0     H36147  11.100   7.121   5.743  0.5705 -0.4083 -0.1128
  268MOL0     H36148  11.249   7.310   5.887  2.5420 -1.1116 -1.4678
  268MOL0     H36149  11.289   7.354   5.725  3.1834 -1.2298  2.9898
  268MOL0     H36150  11.083   7.483   5.834  0.8337  0.9725 -1.6742
  268MOL0     H36151  10.999   7.336   5.801 -0.8370  1.9236  4.7915
  268MOL0     H36152  11.081   7.357   5.551 -0.0813 -1.7442  2.4248
  268MOL0     H36153  11.190   7.491   5.606 -0.3726  0.5026  0.2349
  268MOL0     H36154  10.887   7.504   5.605 -0.6846  1.7795  2.2590
  268MOL0     H36155  11.002   7.626   5.676  0.9242 -0.4168  1.2331
  268MOL0     H36156  10.965   7.548   5.373  3.6481  0.4081 -1.9134
  268MOL0     H36157  11.107   7.634   5.433 -0.3782  0.6364 -2.6232
  268MOL0     H36158  10.959   7.782   5.350  0.7075  2.9979  1.7210
  268MOL0     H36159  10.839   7.740   5.467 -0.6233 -1.8687 -1.7999
  268MOL0     H36160  11.152   6.702   5.835  0.0068 -0.4735  1.0331
  268MOL0     H36161  11.257   6.511   5.951  1.6055 -0.4417  1.7442
  268MOL0     H36162  11.783   6.321   6.094  1.6148 -1.9785 -0.5180
  268MOL0     H36163  11.824   6.084   6.161  1.0227  2.2581  1.9274
  268MOL0     H36164  11.207   5.075   5.392 -1.8987  1.5964 -0.7253
  268MOL0     H36165  11.026   5.199   5.295 -1.6076  1.2606  3.0806
  268MOL0     H36166  10.679   5.348   5.160 -0.0308  1.3679 -1.2459
  268MOL0     H36167  10.511   5.433   5.015 -2.5149  1.5548  1.9852
  268MOL0     H36168  10.134   5.485   5.103 -0.0424  0.7071 -0.6473
  268MOL0     H36169  10.082   5.322   5.081  0.6794 -0.9736  0.1062
  268MOL0     H36170  10.079   5.553   4.898  3.5470 -0.7680  1.9620
  268MOL0     H36171   9.942   5.433   4.913 -1.2015  1.7005 -1.5456
  268MOL0     H36172  10.053   5.270   4.784  0.9371  0.0340  1.4786
  268MOL0     H36173  10.198   5.363   4.762 -1.1324 -0.6206 -2.8119
  268MOL0     H36174   9.914   5.442   4.681  0.4430  5.3559 -0.0720
  268MOL0     H36175  10.039   5.536   4.626  2.0606 -1.4541 -2.8514
  268MOL0     H36176  10.100   5.192   4.386 -2.8320 -0.4656  0.2714
  268MOL0     H36177  10.216   5.207   5.203 -0.3481  1.0926 -1.4649
  268MOL0     H36178  10.405   4.968   5.306  0.3315  0.0714 -1.3703
  268MOL0     H36179  10.411   5.056   5.462  0.8808 -2.5784 -0.8198
  268MOL0     H36180  10.265   5.068   5.361  0.4036  1.6014 -0.9087
  269MOL0     O36181   7.251   0.244   4.094 -0.2452 -0.4283  0.4449
  269MOL0     C36182   7.329   0.162   4.139 -0.6252 -0.2536 -0.0607
  269MOL0     O36183   7.287   0.051   4.199  0.0272  0.4224  0.7398
  269MOL0     C36184   7.156   0.017   4.220 -0.8263 -0.6993 -0.4750
  269MOL0     C36185   7.126  -0.041   4.341  0.8726 -0.0437 -0.3623
  269MOL0     C36186   6.994  -0.095   4.365 -1.0272  0.0901 -0.6426
  269MOL0     C36187   6.891  -0.059   4.273 -0.3026  1.0979  0.8722
  269MOL0     O36188   6.761  -0.104   4.292  0.4859 -0.0189 -0.7399
  269MOL0     C36189   6.709  -0.081   4.420 -0.2223  0.1055  0.7299
  269MOL0     C36190   6.557  -0.062   4.412  0.2928  0.5073 -0.3321
  269MOL0     C36191   6.513   0.074   4.365  0.2400 -0.3848  0.0166
  269MOL0     C36192   6.554   0.131   4.234 -0.0096  0.3811  0.3558
  269MOL0     C36193   6.454   0.223   4.167  0.3344 -0.2029 -0.5463
  269MOL0     C36194   6.327   0.162   4.106 -0.6980 -0.3676 -0.6192
  269MOL0     C36195   6.291   0.223   3.974 -0.3358  0.0028  0.5307
  269MOL0     C36196   6.144   0.204   3.929  0.0236  0.4393  0.4486
  269MOL0     N36197   6.038   0.239   4.021  0.6643  0.6097 -0.7295
  269MOL0     C36198   5.945   0.139   4.060  0.2657 -0.0923  0.2703
  269MOL0     C36199   5.878   0.205   4.165 -0.0764  0.5736  1.1956
  269MOL0     C36200   5.767   0.157   4.242 -1.2972  0.1703  0.3638
  269MOL0     C36201   5.652   0.134   4.144 -0.1504 -0.4705  0.5533
  269MOL0     C36202   5.522   0.085   4.210  1.1089  0.0635  0.3950
  269MOL0     C36203   5.416   0.025   4.122  0.5769 -0.7495  0.6753
  269MOL0     O36204   5.346   0.118   4.043  0.1098 -0.0944 -0.3060
  269MOL0     C36205   5.256   0.073   3.955  0.0897  0.6006 -0.0296
  269MOL0     C36206   5.235  -0.074   3.931 -0.7638 -0.1753 -0.1142
  269MOL0     C36207   5.164  -0.112   3.818 -0.1675 -0.7984 -0.8373
  269MOL0     C36208   5.097  -0.024   3.735  0.2258  0.4748  0.0950
  269MOL0     C36209   5.028  -0.070   3.608  0.1836 -0.2922  0.1492
  269MOL0     O36210   4.938   0.014   3.553 -0.3975 -0.3483 -0.8754
  269MOL0     C36211   4.872  -0.023   3.445  0.1178 -0.2041  1.0502
  269MOL0     C36212   4.830  -0.149   3.426  0.2193 -0.7575 -0.6945
  269MOL0     C36213   4.758  -0.180   3.318 -0.8225  0.3389  0.4001
  269MOL0     C36214   4.739  -0.086   3.213  0.7134 -0.0914 -0.2162
  269MOL0     O36215   4.669  -0.135   3.105 -0.1185 -0.6309  0.5327
  269MOL0     C36216   4.734  -0.121   2.972  0.3523 -0.1049 -0.0836
  269MOL0     C36217   4.868  -0.191   2.961 -0.9675  0.0110 -0.2614
  269MOL0     C36218   4.932  -0.176   2.819 -0.3351 -0.3496 -0.0438
  269MOL0     C36219   5.070  -0.238   2.814  0.6699 -0.9286 -0.2434
  269MOL0     C36220   5.124  -0.231   2.670 -0.2634  0.1264  0.4812
  269MOL0     C36221   5.247  -0.327   2.656 -0.1071  0.1645 -0.3355
  269MOL0     C36222   5.294  -0.328   2.509 -0.7610 -0.3560  0.3623
  269MOL0     C36223   5.199  -0.373   2.401  0.9910  0.5467  0.7835
  269MOL0    Cl36224   5.124  -0.533   2.444  0.4765 -0.2059 -0.0248
  269MOL0     C36225   4.789   0.039   3.227 -0.1885 -0.1047  0.3119
  269MOL0     C36226   4.846   0.073   3.344 -0.5552  0.5011 -0.2682
  269MOL0     O36227   5.070  -0.166   3.547  0.3540 -0.0518  0.0699
  269MOL0     C36228   5.096   0.115   3.772  0.0744  0.0190 -0.8630
  269MOL0     C36229   5.178   0.160   3.881 -0.1318 -0.4345  0.6375
  269MOL0     N36230   5.916   0.335   4.163  0.1747 -0.3895  0.4584
  269MOL0     N36231   6.023   0.353   4.097  0.6431 -0.8325  0.2124
  269MOL0     C36232   6.915   0.015   4.160  0.2332  0.2615 -0.0669
  269MOL0     C36233   7.051   0.051   4.128 -0.3239 -0.1680 -0.3612
  269MOL0     C36234   7.477   0.175   4.117 -0.1989  0.2050 -1.0043
  269MOL0     C36235   7.522   0.082   4.026 -0.1776  0.0489  0.8879
  269MOL0     C36236   7.656   0.096   3.984  0.9908  0.6735  0.1434
  269MOL0     C36237   7.732   0.201   4.024 -0.1517 -0.1790 -0.9085
  269MOL0     O36238   7.859   0.223   3.971  0.5044  0.3947  0.7288
  269MOL0     C36239   7.925   0.349   4.008 -0.5227  0.3200  0.6534
  269MOL0     C36240   8.067   0.381   3.957  0.7624  0.3297  0.5382
  269MOL0     C36241   8.060   0.433   3.821  0.0428  1.6420  0.3724
  269MOL0     C36242   8.199   0.477   3.774  0.1489 -0.1648  0.4960
  269MOL0     C36243   8.247   0.581   3.865 -0.7339  0.4675 -0.1290
  269MOL0     C36244   8.274   0.681   3.931 -1.2694 -0.3244  0.6798
  269MOL0     C36245   7.679   0.296   4.121 -0.1019  0.4042  0.3283
  269MOL0     C36246   7.552   0.281   4.164  1.0468 -0.5727  0.3343
  269MOL0     C36247   7.499   0.373   4.272  0.0233 -0.0940 -0.2555
  269MOL0     H36248   7.204  -0.058   4.415 -0.3380 -0.8334  0.7577
  269MOL0     H36249   6.985  -0.162   4.450 -0.8257 -2.0414 -2.2002
  269MOL0     H36250   6.724  -0.171   4.481  0.0628  0.4684  1.2033
  269MOL0     H36251   6.750   0.008   4.468 -0.8410  1.7881 -1.6970
  269MOL0     H36252   6.510  -0.073   4.510  0.0930 -0.1395 -0.4930
  269MOL0     H36253   6.504  -0.136   4.352 -2.5343  2.8428 -0.9402
  269MOL0     H36254   6.543   0.141   4.446  2.1387 -3.0002  1.6337
  269MOL0     H36255   6.403   0.065   4.363  0.3254 -2.4793 -2.5562
  269MOL0     H36256   6.629   0.206   4.259 -0.2253  0.6755  0.1305
  269MOL0     H36257   6.588   0.059   4.160 -1.2807  0.3714 -0.2460
  269MOL0     H36258   6.423   0.298   4.241  1.5470  0.5755 -0.8069
  269MOL0     H36259   6.510   0.285   4.096 -1.0068  0.8291 -0.7686
  269MOL0     H36260   6.338   0.053   4.104  2.1271 -0.1959  0.4622
  269MOL0     H36261   6.243   0.175   4.174 -2.5327 -1.9500 -2.4708
  269MOL0     H36262   6.361   0.175   3.904 -0.5494  1.5754 -0.8149
  269MOL0     H36263   6.316   0.329   3.975 -0.7236  0.0934  0.7421
  269MOL0     H36264   6.127   0.268   3.841  2.7433 -0.5218 -0.9142
  269MOL0     H36265   6.130   0.101   3.896 -0.2745  0.4456  0.5519
  269MOL0     H36266   5.929   0.041   4.016 -2.9801  0.8627 -0.9492
  269MOL0     H36267   5.802   0.063   4.286 -1.8633 -1.2647 -2.0497
  269MOL0     H36268   5.728   0.236   4.307 -2.0011  0.2844 -0.1914
  269MOL0     H36269   5.635   0.233   4.102  0.2405  0.3489  2.2213
  269MOL0     H36270   5.683   0.060   4.070  1.8492 -0.5425  1.4009
  269MOL0     H36271   5.481   0.156   4.282  1.5764  1.1907 -0.4290
  269MOL0     H36272   5.551   0.002   4.276  1.4196 -1.8434 -1.9899
  269MOL0     H36273   5.347  -0.013   4.198  1.5723 -1.5537  1.1939
  269MOL0     H36274   5.455  -0.057   4.061  0.3674 -0.1980 -0.2235
  269MOL0     H36275   5.270  -0.148   4.002 -0.6891  0.7074  0.8028
  269MOL0     H36276   5.168  -0.218   3.795 -1.8100 -0.8181 -1.1322
  269MOL0     H36277   4.835  -0.220   3.508  0.6777  1.0795  0.9551
  269MOL0     H36278   4.723  -0.280   3.296  2.4968 -0.7320 -0.4876
  269MOL0     H36279   4.665  -0.175   2.906 -0.2841  1.1793 -0.5002
  269MOL0     H36280   4.738  -0.014   2.949 -0.7069 -0.1527 -0.5839
  269MOL0     H36281   4.938  -0.150   3.035  1.1464 -1.2517 -1.4480
  269MOL0     H36282   4.858  -0.298   2.981 -2.6649  0.2284  0.1968
  269MOL0     H36283   4.869  -0.214   2.739 -0.4132  1.5315 -0.9410
  269MOL0     H36284   4.949  -0.072   2.791 -0.3372 -0.8181 -1.9024
  269MOL0     H36285   5.076  -0.341   2.852  2.5486 -2.0267 -3.1901
  269MOL0     H36286   5.145  -0.187   2.876  1.1437 -2.6861  0.7244
  269MOL0     H36287   5.154  -0.132   2.635  1.2971 -1.7290 -4.3147
  269MOL0     H36288   5.046  -0.261   2.599 -0.2165 -0.0771  0.5144
  269MOL0     H36289   5.334  -0.289   2.709 -0.1507  0.0059 -0.1483
  269MOL0     H36290   5.213  -0.429   2.680 -3.4354  0.9474 -1.2310
  269MOL0     H36291   5.386  -0.386   2.499  2.1967  3.7766  0.8168
  269MOL0     H36292   5.317  -0.224   2.485 -0.4298 -0.3823  0.5642
  269MOL0     H36293   5.134  -0.285   2.392  1.8300  1.3400  2.0843
  269MOL0     H36294   5.258  -0.381   2.310  2.2514 -1.3236  1.7083
  269MOL0     H36295   4.792   0.114   3.148  1.4973 -2.9612 -2.6007
  269MOL0     H36296   4.894   0.169   3.358 -0.6458  0.7807 -1.7386
  269MOL0     H36297   5.037   0.190   3.721 -2.1712 -1.8249 -1.1871
  269MOL0     H36298   5.194   0.265   3.901 -1.1308  0.2612 -1.7818
  269MOL0     H36299   6.848   0.054   4.084  1.8173  0.0512 -1.6441
  269MOL0     H36300   7.080   0.109   4.042 -1.8162  0.3948 -0.5155
  269MOL0     H36301   7.474   0.001   3.972 -0.1711 -0.5742  1.8023
  269MOL0     H36302   7.690   0.026   3.909  3.0820  1.3019  0.4582
  269MOL0     H36303   7.944   0.354   4.115  0.8006 -2.5920  0.6717
  269MOL0     H36304   7.871   0.441   3.987  0.3859  0.7065 -0.0473
  269MOL0     H36305   8.117   0.285   3.944  0.7432  0.6722 -3.0089
  269MOL0     H36306   8.122   0.444   4.027  0.7542 -0.5954  1.3990
  269MOL0     H36307   7.989   0.515   3.810 -2.3449 -0.4619 -0.8496
  269MOL0     H36308   8.021   0.353   3.758  1.0704  2.0666 -0.8342
  269MOL0     H36309   8.265   0.390   3.779  3.5714  2.2486  0.6649
  269MOL0     H36310   8.199   0.517   3.672  0.2958  1.5546  1.1387
  269MOL0     H36311   8.302   0.771   3.982 -2.7693 -0.5677  2.0092
  269MOL0     H36312   7.739   0.377   4.160  0.0032  0.9154 -0.8622
  269MOL0     H36313   7.400   0.409   4.241 -0.9511 -4.5873 -3.4753
  269MOL0     H36314   7.484   0.305   4.357  1.5073  2.3400  2.1024
  269MOL0     H36315   7.575   0.448   4.292 -0.9034  1.8927 -3.4430
  270MOL0     O36316   8.143   8.612   6.428  0.2811 -1.1069  0.1608
  270MOL0     C36317   8.043   8.610   6.356 -1.2254 -0.2393  0.5935
  270MOL0     O36318   7.974   8.720   6.315 -0.4923 -0.2307  0.2809
  270MOL0     C36319   8.009   8.849   6.347  0.4607 -0.5288 -0.0641
  270MOL0     C36320   8.130   8.911   6.375  0.5703 -0.5521 -0.7700
  270MOL0     C36321   8.138   9.046   6.388 -0.2774  0.0708  0.2746
  270MOL0     C36322   8.025   9.128   6.411  0.8653 -0.2252  0.4711
  270MOL0     O36323   8.043   9.251   6.466 -0.0618  0.2853  0.7429
  270MOL0     C36324   7.951   9.291   6.575  0.8897  0.0541  1.0452
  270MOL0     C36325   8.013   9.411   6.627  0.7421 -0.1598  0.1619
  270MOL0     C36326   7.903   9.493   6.716 -1.0052  0.1111  1.8879
  270MOL0     C36327   7.853   9.443   6.853 -0.1778 -0.3955 -0.2970
  270MOL0     C36328   7.794   9.303   6.867  0.9927  0.8232  0.6905
  270MOL0     C36329   7.721   9.274   6.995 -0.2640 -0.7034  1.3164
  270MOL0     C36330   7.624   9.146   6.982  0.2708  0.2908 -0.3659
  270MOL0     C36331   7.567   9.104   7.119  0.2402 -0.0166  0.3645
  270MOL0     N36332   7.667   9.039   7.210  0.4926 -0.1438 -0.5382
  270MOL0     C36333   7.771   8.959   7.174 -0.5788  0.3822 -0.9268
  270MOL0     C36334   7.866   8.976   7.269  0.6221  0.1734 -0.3791
  270MOL0     C36335   7.978   8.883   7.300 -0.0222  0.0338  0.1761
  270MOL0     C36336   8.114   8.933   7.271  0.0090  0.3657  0.1682
  270MOL0     C36337   8.219   8.824   7.303 -0.4213 -0.3356  0.3081
  270MOL0     C36338   8.346   8.838   7.216 -0.7323 -0.7681  0.3751
  270MOL0     O36339   8.377   8.977   7.215  0.2306 -0.1034 -1.1429
  270MOL0     C36340   8.471   9.021   7.133  1.0866 -0.1245  0.0898
  270MOL0     C36341   8.573   8.947   7.069 -0.4498  0.1938  0.5564
  270MOL0     C36342   8.670   9.005   6.991 -0.4185  0.6055  0.1955
  270MOL0     C36343   8.679   9.147   6.988  0.3970  0.4155  0.4427
  270MOL0     C36344   8.803   9.202   6.936 -0.3453 -0.2007 -0.3895
  270MOL0     O36345   8.920   9.126   6.954  0.3953 -0.1328  0.6097
  270MOL0     C36346   9.030   9.157   6.886  0.1660  0.5513 -0.4578
  270MOL0     C36347   9.148   9.145   6.959  0.7728  0.4382  0.0946
  270MOL0     C36348   9.268   9.170   6.898 -0.1436 -0.6796  0.4694
  270MOL0     C36349   9.277   9.190   6.758  0.0920 -0.9580  1.1450
  270MOL0     O36350   9.398   9.216   6.690 -0.0761 -0.9266  0.5102
  270MOL0     C36351   9.491   9.291   6.772 -0.1672 -0.1914  0.6577
  270MOL0     C36352   9.593   9.338   6.674 -0.7762  0.5209  0.2973
  270MOL0     C36353   9.682   9.225   6.618  0.1775  0.1222  0.3612
  270MOL0     C36354   9.737   9.251   6.474  0.0105 -0.3998 -0.9784
  270MOL0     C36355   9.862   9.179   6.426  1.1326  0.0467 -0.5503
  270MOL0     C36356   9.863   9.167   6.273 -0.0674  0.0209  0.7728
  270MOL0     C36357  10.001   9.125   6.211  0.4381  0.5531  0.2955
  270MOL0     C36358   9.979   9.055   6.077 -0.4185 -0.3600 -0.5257
  270MOL0    Cl36359   9.884   9.155   5.966 -0.3701  0.4311 -0.4239
  270MOL0     C36360   9.155   9.197   6.686  0.5451  0.6734  0.5835
  270MOL0     C36361   9.032   9.185   6.749 -0.4070 -0.3154  0.1996
  270MOL0     O36362   8.806   9.312   6.875  0.1755 -0.2646 -0.0281
  270MOL0     C36363   8.574   9.221   7.046 -1.2419  0.0019  0.3131
  270MOL0     C36364   8.470   9.157   7.119 -0.0813 -0.3021  0.5159
  270MOL0     N36365   7.829   9.092   7.342  0.0197 -0.2961 -0.6814
  270MOL0     N36366   7.712   9.122   7.305 -0.5792 -0.6502 -0.5840
  270MOL0     C36367   7.902   9.070   6.397  0.0051  0.3396 -0.4442
  270MOL0     C36368   7.898   8.936   6.361  0.6432  0.3602  0.1284
  270MOL0     C36369   7.999   8.462   6.341  0.1574 -0.3273 -0.2008
  270MOL0     C36370   8.095   8.362   6.361 -0.1785  0.3203 -1.3575
  270MOL0     C36371   8.057   8.220   6.368 -0.3038 -0.7458  0.7243
  270MOL0     C36372   7.922   8.185   6.357 -0.1172 -0.3435 -0.0439
  270MOL0     O36373   7.895   8.054   6.366  0.2775  0.5830 -0.1362
  270MOL0     C36374   7.756   8.014   6.342  0.2555  0.3460  0.2582
  270MOL0     C36375   7.725   7.873   6.372 -0.0405 -0.5421  0.4672
  270MOL0     C36376   7.580   7.849   6.354  0.3260 -0.2201 -0.4510
  270MOL0     C36377   7.533   7.715   6.416 -0.2560 -0.3830 -0.4253
  270MOL0     C36378   7.417   7.734   6.514  0.1770  0.1428 -0.9282
  270MOL0     C36379   7.310   7.766   6.578  0.4321 -0.4931  0.6825
  270MOL0     C36380   7.835   8.289   6.310  0.3503  0.1128 -1.0999
  270MOL0     C36381   7.871   8.431   6.304 -0.8609  1.5088  0.0818
  270MOL0     C36382   7.758   8.532   6.271 -0.9270  0.2806 -1.4401
  270MOL0     H36383   8.224   8.858   6.387  0.3772 -0.7896 -0.2548
  270MOL0     H36384   8.239   9.082   6.404  0.1982 -1.8430  1.7981
  270MOL0     H36385   7.851   9.303   6.532  0.8015 -1.0459  0.9080
  270MOL0     H36386   7.947   9.219   6.658 -1.1450  1.0032  1.8285
  270MOL0     H36387   8.041   9.476   6.544  3.5514 -2.1137 -0.5189
  270MOL0     H36388   8.096   9.379   6.690  1.4143  0.7059 -0.2681
  270MOL0     H36389   7.819   9.512   6.647  1.5662  1.4443 -1.1364
  270MOL0     H36390   7.946   9.593   6.729 -2.7208  0.9618  1.3914
  270MOL0     H36391   7.942   9.468   6.911  1.0303  2.6232 -3.1082
  270MOL0     H36392   7.776   9.514   6.883 -0.5076 -0.7442 -0.3209
  270MOL0     H36393   7.714   9.293   6.793 -1.3864 -4.0914  3.4126
  270MOL0     H36394   7.865   9.221   6.861 -1.1307 -1.3527  2.9235
  270MOL0     H36395   7.792   9.260   7.076  3.3120  0.2079 -1.4156
  270MOL0     H36396   7.667   9.367   7.018  0.2498 -0.5511  1.9125
  270MOL0     H36397   7.672   9.058   6.940  4.4547 -0.7562  5.3698
  270MOL0     H36398   7.535   9.178   6.927  0.3091  0.5641 -0.2719
  270MOL0     H36399   7.535   9.186   7.184  1.6968  0.9467 -0.0823
  270MOL0     H36400   7.480   9.043   7.094 -0.5557  2.1634 -2.8504
  270MOL0     H36401   7.781   8.877   7.104 -3.0978 -1.1586  0.3750
  270MOL0     H36402   7.980   8.873   7.409 -0.1122 -2.2037  0.0107
  270MOL0     H36403   7.964   8.784   7.256  1.3845  0.6078 -1.6616
  270MOL0     H36404   8.132   8.963   7.167 -0.7828 -0.1736 -0.1415
  270MOL0     H36405   8.134   9.023   7.329  1.9184 -0.7450  1.3392
  270MOL0     H36406   8.186   8.721   7.292  0.3377 -0.3603 -2.3663
  270MOL0     H36407   8.249   8.832   7.408  1.6155 -0.7192 -0.2026
  270MOL0     H36408   8.334   8.796   7.116 -1.1905  2.8691 -1.2376
  270MOL0     H36409   8.425   8.790   7.274 -2.2363 -1.7995  1.6929
  270MOL0     H36410   8.562   8.840   7.081 -1.2276 -0.2722 -3.1823
  270MOL0     H36411   8.745   8.948   6.937 -0.7577  0.1187  0.2420
  270MOL0     H36412   9.141   9.124   7.065 -2.4979  3.1771  0.5897
  270MOL0     H36413   9.353   9.162   6.965  0.2365  0.8768  0.2173
  270MOL0     H36414   9.452   9.378   6.825  0.3327 -0.0283  0.7648
  270MOL0     H36415   9.531   9.216   6.841  2.0617 -0.5451 -0.9210
  270MOL0     H36416   9.561   9.410   6.598 -0.5489  3.2221  2.5976
  270MOL0     H36417   9.666   9.396   6.731 -1.0216  1.3021 -0.1622
  270MOL0     H36418   9.763   9.217   6.691  2.8438  2.3149 -2.1188
  270MOL0     H36419   9.627   9.130   6.623 -1.1102  0.6914 -1.8397
  270MOL0     H36420   9.759   9.358   6.477 -2.2278  0.1001  0.6806
  270MOL0     H36421   9.653   9.229   6.407 -0.7118 -1.1445  0.1310
  270MOL0     H36422   9.864   9.075   6.461  1.3466  0.1674 -0.1984
  270MOL0     H36423   9.953   9.233   6.452  1.0091 -0.0519  0.1034
  270MOL0     H36424   9.778   9.103   6.250  0.7267 -0.9015  0.3439
  270MOL0     H36425   9.837   9.266   6.234  0.2676  0.1673  0.9184
  270MOL0     H36426  10.043   9.046   6.274  0.3494  1.3037  1.3105
  270MOL0     H36427  10.073   9.206   6.197  1.6508 -0.6080 -0.4213
  270MOL0     H36428  10.079   9.047   6.034 -0.4983  0.7387 -0.9566
  270MOL0     H36429   9.934   8.956   6.075 -0.5729 -0.3380 -3.5513
  270MOL0     H36430   9.159   9.215   6.580  2.7327 -4.6685 -0.6048
  270MOL0     H36431   8.944   9.180   6.685 -0.5447 -1.1282  0.4460
  270MOL0     H36432   8.549   9.327   7.041 -0.4919  0.5504  4.3741
  270MOL0     H36433   8.400   9.224   7.169 -0.9689 -2.3563  2.1720
  270MOL0     H36434   7.813   9.132   6.397  3.2422  5.5614 -1.5268
  270MOL0     H36435   7.810   8.877   6.338  1.7830 -2.0227  1.5263
  270MOL0     H36436   8.192   8.386   6.404 -0.9918 -1.3100  1.7201
  270MOL0     H36437   8.136   8.148   6.386  1.7210  0.6758 -1.8044
  270MOL0     H36438   7.744   8.025   6.234 -0.7808 -1.1122  0.2063
  270MOL0     H36439   7.688   8.079   6.398 -1.0211 -1.5247  0.9821
  270MOL0     H36440   7.761   7.836   6.468 -0.6075 -0.6695  0.6319
  270MOL0     H36441   7.776   7.807   6.300  2.0678  2.6891 -1.2297
  270MOL0     H36442   7.543   7.837   6.252 -0.4092 -1.6081 -0.0508
  270MOL0     H36443   7.527   7.932   6.404  0.4258  1.6349 -3.1986
  270MOL0     H36444   7.504   7.643   6.339  4.1032 -2.1121 -0.7337
  270MOL0     H36445   7.622   7.673   6.466 -1.2967 -1.3317  0.6952
  270MOL0     H36446   7.220   7.798   6.626 -2.4388 -0.6996 -3.9579
  270MOL0     H36447   7.732   8.268   6.284  0.8911 -0.8782 -2.5908
  270MOL0     H36448   7.791   8.601   6.193  0.7518 -0.8570 -1.8082
  270MOL0     H36449   7.667   8.474   6.250 -1.2133  0.8667 -1.8461
  270MOL0     H36450   7.735   8.582   6.365 -1.8480 -1.7536 -0.5062
  271MOL0     O36451  10.788   9.257   2.295 -0.1066 -0.0474  0.3647
  271MOL0     C36452  10.815   9.381   2.285 -0.5876  1.0453 -0.5094
  271MOL0     O36453  10.930   9.431   2.232  0.1644  0.6415  0.1242
  271MOL0     C36454  11.032   9.351   2.187  0.4252 -0.0810  0.2298
  271MOL0     C36455  11.122   9.298   2.276  0.1725  0.3574 -0.4646
  271MOL0     C36456  11.222   9.219   2.222  0.2852  0.4150  0.5872
  271MOL0     C36457  11.225   9.188   2.085 -0.7839  0.7618 -0.4984
  271MOL0     O36458  11.309   9.105   2.013  0.2401  0.0525  0.2499
  271MOL0     C36459  11.412   9.030   2.074  0.9648  0.2393 -0.6802
  271MOL0     C36460  11.528   9.129   2.123  0.9551  0.0638 -0.6513
  271MOL0     C36461  11.658   9.058   2.086  0.2079  0.2053 -0.0257
  271MOL0     C36462  11.684   8.931   2.174 -0.2634  0.0761 -0.5732
  271MOL0     C36463  11.652   8.796   2.092 -0.6874 -0.7567  0.3115
  271MOL0     C36464  11.750   8.688   2.110 -1.2293  0.4653 -0.0131
  271MOL0     C36465  11.802   8.605   1.985  0.6320 -0.3760 -0.1147
  271MOL0     C36466  11.891   8.695   1.906 -0.2919 -0.2038 -0.9447
  271MOL0     N36467  11.937   8.638   1.781 -0.0818  0.8346  0.1613
  271MOL0     C36468  11.953   8.501   1.746  0.5854  0.0291  0.6731
  271MOL0     C36469  12.003   8.493   1.614  0.6537 -1.2540  0.5226
  271MOL0     C36470  12.045   8.368   1.547  0.7421  0.5768  0.0919
  271MOL0     C36471  12.195   8.345   1.555  1.2832  0.5531 -0.4402
  271MOL0     C36472  12.275   8.447   1.489  0.4835  0.1532  0.4524
  271MOL0     C36473  12.309   8.417   1.343  0.0470  0.0105  0.2490
  271MOL0     O36474  12.403   8.301   1.338  1.1999  0.2427  0.3202
  271MOL0     C36475  12.449   8.264   1.213 -1.3376  0.1196 -0.2358
  271MOL0     C36476  12.566   8.177   1.219 -0.2266 -0.6037  1.0383
  271MOL0     C36477  12.620   8.133   1.095  0.7640 -0.2786 -1.0473
  271MOL0     C36478  12.573   8.168   0.967 -0.6733  0.0627  0.0313
  271MOL0     C36479  12.614   8.102   0.849 -0.2554  0.6037  0.8410
  271MOL0     O36480  12.585   8.165   0.732  0.1766  0.5133  0.4917
  271MOL0     C36481  12.622   8.102   0.613 -1.0698 -0.3822 -0.6413
  271MOL0     C36482  12.722   8.155   0.531 -0.0540  1.0895 -0.1041
  271MOL0     C36483  12.743   8.095   0.401  0.4820  0.3219 -0.4801
  271MOL0     C36484  12.674   7.981   0.362  0.4282 -0.5574 -1.1481
  271MOL0     O36485  12.722   7.933   0.244 -0.1011  0.4237  0.5564
  271MOL0     C36486  12.619   7.857   0.168 -0.2185  0.2040  0.0110
  271MOL0     C36487  12.687   7.772   0.052  0.5577  0.3355  1.0752
  271MOL0     C36488  12.779   7.659   0.092  0.8638  0.7372  0.3625
  271MOL0     C36489  12.718   7.527   0.114  0.6054  0.5548  0.3982
  271MOL0     C36490  12.616   7.510   0.235  0.3640 -0.3858 -0.5533
  271MOL0     C36491  12.692   7.551   0.359 -0.1737  0.4696  0.1353
  271MOL0     C36492  12.600   7.537   0.478 -0.3897 -0.7513  0.9007
  271MOL0     C36493  12.663   7.584   0.602  0.2508 -0.4641 -0.0758
  271MOL0    Cl36494  12.554   7.563   0.744 -0.2262  0.0693 -0.2376
  271MOL0     C36495  12.579   7.932   0.456 -1.4024 -0.3128 -0.0146
  271MOL0     C36496  12.562   7.985   0.576  0.2802  0.6687 -0.1153
  271MOL0     O36497  12.684   7.999   0.862  0.2011  0.4374 -0.9177
  271MOL0     C36498  12.479   8.269   0.957  0.7586  0.5766  0.0339
  271MOL0     C36499  12.424   8.315   1.083 -0.0363 -0.6903  0.2432
  271MOL0     N36500  11.995   8.624   1.564  0.0374 -1.1147 -0.3309
  271MOL0     N36501  11.970   8.702   1.669  0.0662  0.2553 -0.0104
  271MOL0     C36502  11.135   9.248   1.999  0.1653 -0.7318 -0.4452
  271MOL0     C36503  11.032   9.327   2.049 -0.4106  0.4460  0.4870
  271MOL0     C36504  10.711   9.467   2.331  0.4144 -0.7621  0.4081
  271MOL0     C36505  10.589   9.404   2.390 -1.6009  0.0948 -0.0486
  271MOL0     C36506  10.480   9.473   2.422  0.0759 -0.8232  0.1203
  271MOL0     C36507  10.480   9.611   2.401  0.2236 -0.1718 -0.1701
  271MOL0     O36508  10.372   9.677   2.434  0.3884 -0.6821 -0.0251
  271MOL0     C36509  10.351   9.815   2.397 -0.9389 -0.4130  0.4549
  271MOL0     C36510  10.216   9.868   2.439 -1.0414 -0.0731 -0.4682
  271MOL0     C36511  10.175   9.999   2.370  0.8737 -0.3422 -0.8197
  271MOL0     C36512  10.254  10.124   2.413  0.1121  0.1330  1.4436
  271MOL0     C36513  10.231  10.161   2.551 -0.1930  0.8645 -0.9013
  271MOL0     C36514  10.210  10.205   2.662 -0.0682 -0.0191 -0.1516
  271MOL0     C36515  10.593   9.674   2.356 -0.2740 -0.6204 -0.6768
  271MOL0     C36516  10.715   9.605   2.328 -0.0364 -0.5700  0.2430
  271MOL0     C36517  10.845   9.694   2.314  0.7170 -0.3791 -0.7007
  271MOL0     H36518  11.098   9.322   2.379 -0.0538 -0.2279 -0.3769
  271MOL0     H36519  11.299   9.170   2.282  2.7565  0.5523 -2.2336
  271MOL0     H36520  11.377   8.967   2.156  1.5065  0.5087 -0.2323
  271MOL0     H36521  11.461   8.971   1.996  1.1523 -0.5918  0.0536
  271MOL0     H36522  11.512   9.157   2.227 -3.2386  0.8472 -1.3273
  271MOL0     H36523  11.515   9.222   2.067 -2.4706  0.1856  0.1226
  271MOL0     H36524  11.744   9.125   2.095 -0.5008  0.9301  1.7137
  271MOL0     H36525  11.655   9.036   1.978  0.7229 -0.4236  0.0817
  271MOL0     H36526  11.790   8.920   2.200  0.0682 -0.6000 -2.0898
  271MOL0     H36527  11.616   8.939   2.258 -2.6404 -3.8176 -1.8662
  271MOL0     H36528  11.555   8.754   2.120 -1.1700  0.5732  0.7024
  271MOL0     H36529  11.651   8.818   1.985  1.4890 -2.9704 -0.2746
  271MOL0     H36530  11.829   8.711   2.182 -1.8847  0.4576  0.7202
  271MOL0     H36531  11.690   8.613   2.163 -0.6845 -1.3488 -1.8537
  271MOL0     H36532  11.711   8.576   1.931 -0.6327  2.6401  0.2045
  271MOL0     H36533  11.846   8.509   2.014 -1.9983 -1.4983  0.4662
  271MOL0     H36534  11.851   8.796   1.893  0.8180  0.5372  1.0081
  271MOL0     H36535  11.983   8.706   1.964  0.0275  0.3442 -1.5446
  271MOL0     H36536  11.926   8.413   1.804 -0.5502  0.6070  1.0556
  271MOL0     H36537  11.990   8.281   1.584 -1.5559  1.4146 -1.1494
  271MOL0     H36538  12.014   8.377   1.442 -0.3503 -0.9769  0.2528
  271MOL0     H36539  12.215   8.350   1.663  0.0516 -1.7619 -0.0389
  271MOL0     H36540  12.211   8.241   1.523  2.1036  1.9785 -5.5377
  271MOL0     H36541  12.368   8.474   1.541 -0.3928  1.3529  1.4348
  271MOL0     H36542  12.220   8.541   1.485  1.0940  0.4875 -1.9962
  271MOL0     H36543  12.351   8.510   1.302 -1.2134  1.6386  2.4508
  271MOL0     H36544  12.220   8.381   1.290 -0.0564 -0.8244  0.9616
  271MOL0     H36545  12.616   8.143   1.309 -2.0717 -1.2374  1.8787
  271MOL0     H36546  12.701   8.061   1.108  1.8534  0.9927 -0.5555
  271MOL0     H36547  12.774   8.243   0.569  2.4071 -0.6983  0.9691
  271MOL0     H36548  12.816   8.143   0.338  1.5710 -1.0322 -0.3148
  271MOL0     H36549  12.575   7.777   0.228  3.3162 -3.2400 -1.5230
  271MOL0     H36550  12.548   7.922   0.117 -1.5067 -1.5340 -0.4812
  271MOL0     H36551  12.606   7.728  -0.007  1.8177 -2.0205  0.9947
  271MOL0     H36552  12.743   7.840  -0.013  0.7858 -1.3704 -0.5761
  271MOL0     H36553  12.851   7.648   0.010  1.0277  1.5929  0.3827
  271MOL0     H36554  12.837   7.694   0.178 -0.4147  0.9451  1.1785
  271MOL0     H36555  12.806   7.469   0.143  2.0864  3.3628  1.9195
  271MOL0     H36556  12.684   7.505   0.012  0.5796 -0.9566  0.7176
  271MOL0     H36557  12.579   7.407   0.241 -1.7468  0.4088  1.2299
  271MOL0     H36558  12.536   7.582   0.217  1.6800  1.4459  0.5242
  271MOL0     H36559  12.786   7.495   0.365  0.8253  1.5813 -3.0161
  271MOL0     H36560  12.714   7.658   0.360  1.0716  0.2285  0.4778
  271MOL0     H36561  12.571   7.433   0.495  1.5144 -1.3402  0.8530
  271MOL0     H36562  12.504   7.588   0.469  0.0726  0.0006  0.1058
  271MOL0     H36563  12.762   7.536   0.602  1.2445  1.4269 -1.7433
  271MOL0     H36564  12.681   7.692   0.595 -0.0524 -0.4506 -0.7414
  271MOL0     H36565  12.530   7.837   0.437 -0.5436 -0.7042 -0.3309
  271MOL0     H36566  12.484   7.933   0.630  0.5078  2.0379  1.6385
  271MOL0     H36567  12.440   8.311   0.865 -0.0931  1.5480  0.8160
  271MOL0     H36568  12.347   8.389   1.064  1.4102  0.5461 -1.1337
  271MOL0     H36569  11.113   9.223   1.896 -1.1135 -0.4620 -0.2575
  271MOL0     H36570  10.958   9.382   1.992 -0.0559  0.1546 -0.2663
  271MOL0     H36571  10.602   9.304   2.431  2.1157 -0.8456 -2.8968
  271MOL0     H36572  10.398   9.414   2.460  1.8552 -3.3668  0.2210
  271MOL0     H36573  10.363   9.818   2.288  1.6651 -0.0956  0.7015
  271MOL0     H36574  10.435   9.869   2.442 -0.0340 -2.1177  0.8951
  271MOL0     H36575  10.227   9.894   2.545  0.3989  5.5807 -1.6686
  271MOL0     H36576  10.138   9.792   2.442  1.4172 -2.7785  1.0756
  271MOL0     H36577  10.076  10.029   2.405  1.2817 -0.3566  0.4106
  271MOL0     H36578  10.184   9.997   2.261  1.7112  1.8702 -0.8346
  271MOL0     H36579  10.358  10.095   2.402  0.7443  1.9490  2.2700
  271MOL0     H36580  10.233  10.204   2.341  1.0660 -0.1053  0.8888
  271MOL0     H36581  10.194  10.245   2.760  0.1822 -0.2601 -0.0074
  271MOL0     H36582  10.596   9.782   2.352  2.2744 -0.6216 -0.6234
  271MOL0     H36583  10.860   9.696   2.206 -1.7640  0.4031 -1.1008
  271MOL0     H36584  10.829   9.796   2.350 -1.3482  0.0935 -2.6995
  271MOL0     H36585  10.935   9.642   2.349 -0.1343 -1.5007 -0.1068
  272MOL0     O36586   9.828   3.712  10.314 -0.0594 -0.1565 -0.2137
  272MOL0     C36587   9.839   3.587  10.323  0.1592  0.1789 -0.6685
  272MOL0     O36588   9.944   3.527  10.389 -0.7160 -0.1004 -0.6521
  272MOL0     C36589  10.018   3.616  10.466 -0.3618  0.2113  0.3913
  272MOL0     C36590   9.998   3.618  10.601 -0.0447  0.0593 -0.1204
  272MOL0     C36591  10.084   3.704  10.682  0.2919 -0.0797  0.3028
  272MOL0     C36592  10.171   3.797  10.625 -0.8714  0.1168 -0.0984
  272MOL0     O36593  10.258   3.874  10.707 -0.3361 -0.0707  0.4290
  272MOL0     C36594  10.258   4.010  10.662  0.3867 -0.4361  0.4891
  272MOL0     C36595  10.292   4.112  10.774 -0.4887 -0.8057 -0.3378
  272MOL0     C36596  10.165   4.162  10.847  0.9141 -0.1229  0.0696
  272MOL0     C36597  10.136   4.088  10.970 -0.5821  1.4233  0.4452
  272MOL0     C36598  10.017   4.142  11.052  0.0159 -0.1299 -0.3933
  272MOL0     C36599   9.968   4.037  11.151 -0.0298 -0.5258 -0.4962
  272MOL0     C36600   9.867   4.106  11.247 -0.1545 -0.4359 -0.4749
  272MOL0     C36601   9.753   4.010  11.268  0.3607 -0.8083  0.6593
  272MOL0     N36602   9.674   3.976  11.141 -0.1820 -0.9162 -1.2592
  272MOL0     C36603   9.666   4.054  11.027 -0.3988 -0.3344 -0.6367
  272MOL0     C36604   9.594   3.985  10.934 -0.4332  1.6088  0.4686
  272MOL0     C36605   9.560   4.023  10.788  0.2125 -0.0138 -0.4272
  272MOL0     C36606   9.679   4.018  10.699  0.4660  0.7225  0.4020
  272MOL0     C36607   9.633   4.014  10.556  0.4148 -0.0906 -0.3409
  272MOL0     C36608   9.742   4.039  10.451 -0.0960 -0.2473 -0.2226
  272MOL0     O36609   9.788   4.173  10.454 -1.2863 -0.3835 -0.5708
  272MOL0     C36610   9.915   4.213  10.410 -0.4512  0.6432 -0.2667
  272MOL0     C36611  10.025   4.125  10.400 -0.0910 -0.8353  0.5040
  272MOL0     C36612  10.150   4.192  10.379 -0.3510  0.4764  1.2417
  272MOL0     C36613  10.167   4.327  10.348  1.2622 -0.4292 -1.2751
  272MOL0     C36614  10.296   4.394  10.358 -0.7645 -1.3721 -0.5014
  272MOL0     O36615  10.394   4.320  10.424 -0.4169 -0.2312  0.5651
  272MOL0     C36616  10.492   4.408  10.480  0.5103 -0.6218  0.2423
  272MOL0     C36617  10.456   4.503  10.586 -0.6365 -0.1670  0.2082
  272MOL0     C36618  10.547   4.602  10.620  0.1267 -0.0772 -0.9270
  272MOL0     C36619  10.668   4.623  10.550 -0.5762 -0.3939 -0.1578
  272MOL0     O36620  10.756   4.725  10.568 -0.5282 -0.8277  0.2406
  272MOL0     C36621  10.714   4.856  10.630  0.5026 -0.5244  0.5384
  272MOL0     C36622  10.804   4.978  10.603 -0.2563  0.4455 -0.2841
  272MOL0     C36623  10.749   5.097  10.675  0.3686  1.1288  0.1365
  272MOL0     C36624  10.857   5.207  10.695  0.6288 -0.3644 -0.0259
  272MOL0     C36625  10.817   5.322  10.796  0.0583  0.3401  0.2495
  272MOL0     C36626  10.938   5.419  10.804  0.6020 -0.2166  0.3731
  272MOL0     C36627  10.904   5.551  10.859  0.2818  0.3367  0.4356
  272MOL0     C36628  10.884   5.540  11.009 -0.1868 -0.7997 -0.6360
  272MOL0    Cl36629  10.824   5.703  11.054 -0.2190 -0.6078 -0.6840
  272MOL0     C36630  10.698   4.533  10.443  0.8295  0.2927 -0.1150
  272MOL0     C36631  10.611   4.418  10.417 -1.1895  0.1378 -0.1746
  272MOL0     O36632  10.312   4.506  10.306  0.3067  0.1110  0.1885
  272MOL0     C36633  10.047   4.396  10.328  0.2993  0.3464  0.7839
  272MOL0     C36634   9.923   4.343  10.365  0.2277  0.5265  0.7239
  272MOL0     N36635   9.551   3.863  10.993 -0.0472 -0.0170 -0.3893
  272MOL0     N36636   9.599   3.863  11.123  0.3584 -0.3621  0.1213
  272MOL0     C36637  10.181   3.800  10.488  0.9025  0.0141 -0.2526
  272MOL0     C36638  10.108   3.708  10.412  0.6451 -0.4284  0.6504
  272MOL0     C36639   9.761   3.501  10.244  0.5445 -0.1875  0.0238
  272MOL0     C36640   9.776   3.358  10.252  0.1040 -0.1207 -0.5951
  272MOL0     C36641   9.715   3.263  10.169  0.4134  0.2467  0.1099
  272MOL0     C36642   9.607   3.305  10.089 -0.1887 -0.2821 -0.0177
  272MOL0     O36643   9.519   3.228  10.019  0.4170  0.8579  0.3030
  272MOL0     C36644   9.547   3.083  10.016 -0.2135  0.4676  0.1532
  272MOL0     C36645   9.648   3.051   9.908 -0.2759 -0.3564  0.1494
  272MOL0     C36646   9.638   2.908   9.842  1.2049 -0.7907 -0.5048
  272MOL0     C36647   9.660   2.789   9.931 -0.6646 -0.0486 -1.1931
  272MOL0     C36648   9.776   2.793  10.031  0.2337  1.6339  0.0224
  272MOL0     C36649   9.861   2.803  10.119  0.2492 -1.0262 -0.0283
  272MOL0     C36650   9.580   3.441  10.079  0.2562 -0.1703 -0.0048
  272MOL0     C36651   9.656   3.545  10.152 -0.6002  1.2076  0.9498
  272MOL0     C36652   9.619   3.689  10.119 -0.8672 -0.2905  0.6812
  272MOL0     H36653   9.919   3.563  10.650 -3.1907  3.6017 -0.7714
  272MOL0     H36654  10.061   3.718  10.787 -0.9092 -4.6460  0.8817
  272MOL0     H36655  10.332   4.016  10.581 -1.9754  1.2050 -1.7475
  272MOL0     H36656  10.168   4.046  10.610  0.2955  0.8990  1.5064
  272MOL0     H36657  10.333   4.200  10.723  1.4300 -1.0900  0.6380
  272MOL0     H36658  10.358   4.081  10.855  2.7686  1.5276 -1.8708
  272MOL0     H36659  10.076   4.148  10.785  1.2712 -0.1961 -0.4324
  272MOL0     H36660  10.182   4.266  10.874  0.3622  0.0238 -0.1333
  272MOL0     H36661  10.112   3.986  10.940 -2.2295  2.4526 -1.9606
  272MOL0     H36662  10.225   4.094  11.034 -2.4971 -1.3092  3.7474
  272MOL0     H36663  10.046   4.229  11.111 -0.9899 -1.4090  2.1354
  272MOL0     H36664   9.930   4.162  10.988  0.6220  0.9274 -0.9073
  272MOL0     H36665   9.931   3.941  11.115  0.7136 -1.5525  1.3187
  272MOL0     H36666  10.045   4.003  11.220 -1.0224  0.0051  0.9388
  272MOL0     H36667   9.840   4.209  11.222  0.7498  0.5376  2.2558
  272MOL0     H36668   9.914   4.111  11.345 -1.5581  0.0540  0.1899
  272MOL0     H36669   9.789   3.923  11.324  0.9364 -0.6641  0.5224
  272MOL0     H36670   9.676   4.061  11.326 -1.6212 -1.9784 -0.8334
  272MOL0     H36671   9.705   4.154  11.015  0.9654 -0.7199  0.2801
  272MOL0     H36672   9.480   3.954  10.760 -0.2071  1.5839 -3.5436
  272MOL0     H36673   9.523   4.125  10.782 -1.0221 -0.4458 -0.2859
  272MOL0     H36674   9.756   4.094  10.708  3.8724 -2.0451 -2.2334
  272MOL0     H36675   9.724   3.921  10.723 -0.9623  0.2845  1.4685
  272MOL0     H36676   9.568   4.097  10.527  1.7306  0.9039 -0.5281
  272MOL0     H36677   9.586   3.917  10.538 -1.4781  0.7517 -0.2346
  272MOL0     H36678   9.702   4.012  10.353  0.2580  0.6579 -0.6292
  272MOL0     H36679   9.835   3.986  10.472  2.7613  4.6036  0.9477
  272MOL0     H36680  10.026   4.018  10.421  0.7929 -1.1995 -1.1289
  272MOL0     H36681  10.238   4.129  10.372 -0.2971  0.7330 -3.3907
  272MOL0     H36682  10.360   4.510  10.636  1.4518  0.6393  4.5945
  272MOL0     H36683  10.523   4.665  10.705 -0.8082  0.2047 -1.3925
  272MOL0     H36684  10.615   4.888  10.597  1.3293  0.3573 -1.2612
  272MOL0     H36685  10.707   4.845  10.738 -1.5580 -0.4395  0.4521
  272MOL0     H36686  10.906   4.957  10.638 -0.6963 -0.0092  0.7739
  272MOL0     H36687  10.820   4.983  10.495  3.1954  2.1475  0.1683
  272MOL0     H36688  10.670   5.138  10.611 -0.9409 -0.6848  0.5294
  272MOL0     H36689  10.705   5.072  10.771  1.1298  2.3523  0.8316
  272MOL0     H36690  10.879   5.245  10.595  3.7731 -2.2738 -0.1801
  272MOL0     H36691  10.949   5.159  10.728 -0.6528 -4.7355 -2.0964
  272MOL0     H36692  10.798   5.272  10.891 -2.3331 -0.4431 -0.5937
  272MOL0     H36693  10.732   5.372  10.748  0.7619 -0.5929 -2.1369
  272MOL0     H36694  11.020   5.372  10.859 -0.2702 -1.7636  0.3997
  272MOL0     H36695  10.954   5.440  10.697  0.7276 -1.2844  0.1751
  272MOL0     H36696  10.807   5.585  10.822 -1.1905 -1.4197  2.4314
  272MOL0     H36697  10.994   5.613  10.857  0.0742  0.7464 -2.9121
  272MOL0     H36698  10.818   5.466  11.053 -1.1091  1.8046  2.7801
  272MOL0     H36699  10.982   5.519  11.053 -0.6139  1.0923  1.4170
  272MOL0     H36700  10.787   4.547  10.383  2.5410 -1.7947  1.7311
  272MOL0     H36701  10.629   4.340  10.344 -3.2253 -1.9171  1.3479
  272MOL0     H36702  10.048   4.494  10.281  1.3590  0.3552  0.8013
  272MOL0     H36703   9.841   4.414  10.375  0.3442  0.3165  4.1889
  272MOL0     H36704  10.240   3.866  10.426 -2.6804  1.9613 -1.9100
  272MOL0     H36705  10.109   3.714  10.304 -1.1043  2.4800  0.6929
  272MOL0     H36706   9.836   3.308  10.328 -0.7836  0.1338  0.2972
  272MOL0     H36707   9.742   3.159  10.180 -1.6525 -0.4088 -0.5570
  272MOL0     H36708   9.459   3.019  10.007  2.9583 -4.2034 -1.4532
  272MOL0     H36709   9.584   3.058  10.116 -1.3961  1.4819  0.8792
  272MOL0     H36710   9.736   3.075   9.968 -0.5620  2.0919 -0.3064
  272MOL0     H36711   9.635   3.119   9.823  1.2868 -0.8529 -0.5200
  272MOL0     H36712   9.726   2.916   9.777 -0.8994  0.8341 -3.3671
  272MOL0     H36713   9.540   2.909   9.793 -1.4161 -0.2634  4.2181
  272MOL0     H36714   9.576   2.773  10.000  0.2173 -2.6384 -0.5993
  272MOL0     H36715   9.677   2.703   9.866  0.7241  0.4383 -1.4928
  272MOL0     H36716   9.926   2.825  10.201 -0.3086 -0.7057  0.3415
  272MOL0     H36717   9.507   3.481  10.010 -0.9841 -1.4939  0.4912
  272MOL0     H36718   9.690   3.738  10.051  0.2940 -2.4058  0.2821
  272MOL0     H36719   9.517   3.698  10.081 -1.0701 -2.4989  0.6114
  272MOL0     H36720   9.616   3.743  10.214  1.4642 -0.7453  1.0794
  273MOL0     O36721   4.677   4.478   3.135 -0.1524  0.1966 -0.1396
  273MOL0     C36722   4.764   4.408   3.189 -0.7726 -0.1267 -0.2750
  273MOL0     O36723   4.881   4.377   3.129  0.2933 -0.2601  0.1513
  273MOL0     C36724   4.903   4.434   3.000  0.6146  0.3249 -0.2552
  273MOL0     C36725   4.810   4.436   2.893 -0.1349 -0.3742 -0.1758
  273MOL0     C36726   4.849   4.491   2.768  0.6129 -0.8435 -0.1327
  273MOL0     C36727   4.975   4.541   2.738  0.6801  0.1481 -0.2874
  273MOL0     O36728   5.005   4.581   2.612 -0.5780 -1.2612  0.0017
  273MOL0     C36729   5.128   4.650   2.585  0.5554 -0.0186  0.2820
  273MOL0     C36730   5.113   4.713   2.447  1.0743  1.3002 -0.1883
  273MOL0     C36731   5.221   4.821   2.410  1.2789 -0.2060  0.2060
  273MOL0     C36732   5.174   4.885   2.278  0.6673 -0.2693 -0.2534
  273MOL0     C36733   5.299   4.960   2.220  0.2469  0.6147  0.3436
  273MOL0     C36734   5.265   5.055   2.101  0.4250  0.5470  0.5347
  273MOL0     C36735   5.397   5.132   2.058  1.0455  0.4855  0.4147
  273MOL0     C36736   5.371   5.207   1.933 -1.0943  0.4128 -0.2729
  273MOL0     N36737   5.498   5.272   1.891 -0.8591  0.1304  0.4102
  273MOL0     C36738   5.564   5.380   1.940  0.6468 -0.1210  0.9195
  273MOL0     C36739   5.674   5.398   1.856  0.8707  0.2470 -0.6388
  273MOL0     C36740   5.783   5.500   1.869  0.3582 -0.3675  0.1563
  273MOL0     C36741   5.917   5.433   1.901  0.4105  0.1769  0.6151
  273MOL0     C36742   6.044   5.503   1.847  0.2165 -0.8906  0.2396
  273MOL0     C36743   6.068   5.647   1.882  0.5280  0.6433  0.2616
  273MOL0     O36744   5.998   5.730   1.792  0.5526 -0.3004 -0.2653
  273MOL0     C36745   6.071   5.810   1.703  0.7134 -0.2491  0.5326
  273MOL0     C36746   6.169   5.775   1.621 -0.1375  0.4911 -0.5876
  273MOL0     C36747   6.243   5.871   1.545  0.6610 -0.4530  0.1615
  273MOL0     C36748   6.208   6.003   1.561  0.1834 -0.6045  0.1171
  273MOL0     C36749   6.291   6.106   1.483 -0.3208  0.0965  0.3773
  273MOL0     O36750   6.243   6.234   1.474  0.8982 -0.0089  0.1536
  273MOL0     C36751   6.318   6.335   1.431 -0.5832  0.0026  0.6292
  273MOL0     C36752   6.343   6.369   1.298  0.3782 -1.2793 -0.4645
  273MOL0     C36753   6.436   6.470   1.262  0.5303 -0.0024 -1.4096
  273MOL0     C36754   6.523   6.529   1.357 -0.7261  0.7003 -0.6343
  273MOL0     O36755   6.612   6.624   1.344 -0.7381 -0.0904  0.3005
  273MOL0     C36756   6.652   6.677   1.211  1.0689 -0.6607  0.1947
  273MOL0     C36757   6.765   6.781   1.226  0.3145 -0.6775 -0.2515
  273MOL0     C36758   6.851   6.749   1.346  0.0725 -0.7412 -0.7065
  273MOL0     C36759   6.960   6.860   1.369  0.3501 -0.1745  0.0910
  273MOL0     C36760   6.893   6.995   1.404 -0.3472  0.8757 -0.8051
  273MOL0     C36761   6.991   7.109   1.444  0.9305 -0.1236  0.2364
  273MOL0     C36762   7.093   7.145   1.329 -0.0013 -0.4627  0.2211
  273MOL0     C36763   7.039   7.169   1.184  0.3372 -0.2154  0.1120
  273MOL0    Cl36764   6.909   7.279   1.172  0.6519 -0.1300 -0.3117
  273MOL0     C36765   6.497   6.492   1.492  0.4818  0.3554  0.1943
  273MOL0     C36766   6.401   6.406   1.520 -0.6729 -0.0080 -0.4586
  273MOL0     O36767   6.391   6.074   1.429 -0.4495 -0.2430  0.5780
  273MOL0     C36768   6.110   6.039   1.651  0.2392 -0.5982 -0.0998
  273MOL0     C36769   6.047   5.941   1.726 -0.6406 -0.1576 -0.0310
  273MOL0     N36770   5.670   5.297   1.764  0.2451 -0.1331  0.2329
  273MOL0     N36771   5.573   5.216   1.792  0.5626  0.1401 -0.0005
  273MOL0     C36772   5.066   4.532   2.841 -0.6547 -0.4160 -0.3738
  273MOL0     C36773   5.035   4.474   2.967 -0.5089  0.9042 -0.7461
  273MOL0     C36774   4.731   4.358   3.328 -0.0853  0.1378  0.7572
  273MOL0     C36775   4.803   4.246   3.375 -0.0985  0.2722  0.6556
  273MOL0     C36776   4.761   4.169   3.485 -0.1827 -0.0612 -0.3888
  273MOL0     C36777   4.643   4.205   3.552  1.1009  0.1297 -0.1695
  273MOL0     O36778   4.614   4.135   3.665 -0.0297  0.1784 -0.5802
  273MOL0     C36779   4.478   4.123   3.704  0.7176 -0.1878 -0.0634
  273MOL0     C36780   4.442   3.981   3.741 -0.1436 -0.4262  0.0630
  273MOL0     C36781   4.444   3.877   3.616 -0.1126 -0.1047 -0.8480
  273MOL0     C36782   4.298   3.821   3.604  0.2040  0.6222 -0.4999
  273MOL0     C36783   4.263   3.759   3.472 -0.9585 -0.6766  0.5959
  273MOL0     C36784   4.223   3.748   3.359 -0.2139  0.0930  0.2522
  273MOL0     C36785   4.582   4.331   3.520 -0.7631 -0.2627  0.3215
  273MOL0     C36786   4.614   4.394   3.405  0.3512 -0.2064  0.3918
  273MOL0     C36787   4.543   4.537   3.384  0.6659  0.0465  0.5505
  273MOL0     H36788   4.711   4.393   2.909 -0.2625 -1.5098 -3.3542
  273MOL0     H36789   4.780   4.482   2.686  3.3142 -0.9360 -2.5447
  273MOL0     H36790   5.145   4.731   2.657  3.2553  1.7212 -2.0515
  273MOL0     H36791   5.210   4.577   2.590 -2.0307 -3.0469  1.4178
  273MOL0     H36792   5.007   4.741   2.435 -0.0592 -2.2472  0.3604
  273MOL0     H36793   5.131   4.633   2.375  0.2903  1.1854 -0.2715
  273MOL0     H36794   5.313   4.763   2.406  1.1142 -0.4694  0.1693
  273MOL0     H36795   5.213   4.890   2.495 -3.0324 -0.3081  0.1237
  273MOL0     H36796   5.150   4.806   2.206 -1.9594  0.0243  0.1959
  273MOL0     H36797   5.083   4.945   2.288  0.9458  0.4133 -1.5677
  273MOL0     H36798   5.340   5.020   2.301 -1.5026  2.1943  0.1240
  273MOL0     H36799   5.372   4.891   2.176  0.3656  1.8195 -1.4580
  273MOL0     H36800   5.225   4.991   2.022 -1.9200  2.1204  0.3444
  273MOL0     H36801   5.190   5.129   2.132 -3.3595 -2.0507 -1.4938
  273MOL0     H36802   5.483   5.065   2.051  0.9406  0.4103 -0.2272
  273MOL0     H36803   5.425   5.208   2.132  2.6254 -0.3191  0.6948
  273MOL0     H36804   5.351   5.137   1.851 -0.9719 -1.3274  1.1217
  273MOL0     H36805   5.289   5.277   1.948 -1.1219  0.8363 -2.1351
  273MOL0     H36806   5.528   5.460   2.005  0.3643  1.0209 -0.5854
  273MOL0     H36807   5.797   5.555   1.775 -0.8097  2.6403  1.6435
  273MOL0     H36808   5.756   5.575   1.943  1.4247 -1.1251  1.3598
  273MOL0     H36809   5.930   5.413   2.008 -0.5152  0.8367  0.8664
  273MOL0     H36810   5.931   5.332   1.862  0.3627  0.4914 -0.2483
  273MOL0     H36811   6.060   5.491   1.740  1.5876 -3.0714  0.6173
  273MOL0     H36812   6.125   5.450   1.897 -0.4489 -1.2477  0.9801
  273MOL0     H36813   6.175   5.668   1.882  1.0594 -1.8142  0.9787
  273MOL0     H36814   6.048   5.671   1.988 -3.4991  6.1220 -1.2297
  273MOL0     H36815   6.197   5.670   1.629 -3.0060 -0.3108 -0.1437
  273MOL0     H36816   6.323   5.837   1.480  0.6298  1.6212 -1.0377
  273MOL0     H36817   6.294   6.316   1.217 -0.6617 -1.5612  0.3236
  273MOL0     H36818   6.445   6.485   1.155 -0.3187 -4.0458 -2.2438
  273MOL0     H36819   6.678   6.587   1.155 -0.8581 -0.7016 -0.7208
  273MOL0     H36820   6.567   6.728   1.162  1.3320  1.0525  1.4288
  273MOL0     H36821   6.825   6.770   1.135  1.7227 -2.1652  0.7819
  273MOL0     H36822   6.728   6.884   1.228  1.6232 -0.1293 -1.7347
  273MOL0     H36823   6.793   6.744   1.438 -0.8775 -0.5198 -1.2788
  273MOL0     H36824   6.886   6.645   1.341  1.7310 -0.9591  6.0963
  273MOL0     H36825   7.025   6.876   1.282  1.9693  2.2202  1.6370
  273MOL0     H36826   7.033   6.825   1.442  1.1787 -1.2584 -1.1987
  273MOL0     H36827   6.834   6.967   1.491 -0.4112  0.1902 -1.0646
  273MOL0     H36828   6.816   7.033   1.335 -1.7012 -0.8696 -0.3289
  273MOL0     H36829   6.932   7.196   1.473 -0.7448 -1.4675  1.0684
  273MOL0     H36830   7.064   7.074   1.518  0.4177  1.1638  1.3849
  273MOL0     H36831   7.172   7.070   1.321  0.1801 -0.5787  2.5496
  273MOL0     H36832   7.139   7.236   1.368  0.6618 -0.4898 -0.4754
  273MOL0     H36833   7.124   7.211   1.129 -1.2894  2.0754 -0.8014
  273MOL0     H36834   7.005   7.075   1.140  0.7795 -0.0095 -0.6922
  273MOL0     H36835   6.543   6.542   1.576  0.4169 -0.2161  0.5767
  273MOL0     H36836   6.397   6.361   1.618 -1.9551 -0.2751 -0.6175
  273MOL0     H36837   6.105   6.146   1.668  1.5712 -0.3613 -1.0070
  273MOL0     H36838   5.986   5.965   1.813  2.2697  1.5354  1.6853
  273MOL0     H36839   5.169   4.564   2.825 -0.0162 -2.1615  0.1017
  273MOL0     H36840   5.106   4.459   3.048 -2.2521 -1.7476  0.4218
  273MOL0     H36841   4.894   4.220   3.322 -0.8878  3.8406 -3.0102
  273MOL0     H36842   4.825   4.093   3.530 -3.0138 -1.4630  1.5477
  273MOL0     H36843   4.420   4.171   3.624  2.8096  1.0845 -0.9130
  273MOL0     H36844   4.450   4.197   3.779 -1.0440  1.0846 -1.8680
  273MOL0     H36845   4.350   3.965   3.799 -1.1814  1.9515 -0.8043
  273MOL0     H36846   4.523   3.952   3.808 -0.3465 -1.5796 -0.1645
  273MOL0     H36847   4.515   3.803   3.652 -1.4637 -1.2711 -0.4809
  273MOL0     H36848   4.482   3.928   3.527  5.8872 -1.9350  0.2361
  273MOL0     H36849   4.281   3.745   3.681  0.0189 -0.1517 -1.2778
  273MOL0     H36850   4.235   3.905   3.633 -0.8700 -0.1968 -0.3933
  273MOL0     H36851   4.181   3.748   3.260  1.7130  1.2343 -0.6057
  273MOL0     H36852   4.503   4.370   3.583 -2.5253 -0.5301 -1.6508
  273MOL0     H36853   4.492   4.572   3.475 -0.6590 -0.5259  0.0546
  273MOL0     H36854   4.615   4.618   3.373 -0.2406  1.0334  1.6031
  273MOL0     H36855   4.472   4.539   3.300  1.6753  1.0669 -0.3023
  274MOL0     O36856   7.806   4.854  10.439  0.1115  0.2396 -0.0669
  274MOL0     C36857   7.766   4.745  10.386 -0.5719 -0.4461 -0.5089
  274MOL0     O36858   7.797   4.706  10.262 -0.1512 -0.3283 -0.1273
  274MOL0     C36859   7.889   4.772  10.188  0.4024  0.4842 -0.0367
  274MOL0     C36860   8.020   4.770  10.218 -0.2685  0.1904  0.7473
  274MOL0     C36861   8.112   4.819  10.131  0.1190  0.8497 -1.0024
  274MOL0     C36862   8.074   4.878  10.014 -0.0738  0.0354  0.5238
  274MOL0     O36863   8.158   4.936   9.921  0.5900 -0.4513  0.3088
  274MOL0     C36864   8.295   4.954   9.957 -1.0054  0.3545 -0.1428
  274MOL0     C36865   8.362   5.056   9.859  0.1621  0.4691 -0.7108
  274MOL0     C36866   8.336   5.032   9.706 -0.0130  0.1453 -0.4064
  274MOL0     C36867   8.414   4.901   9.660  0.1867  0.0520 -0.1234
  274MOL0     C36868   8.462   4.914   9.510  0.3141  0.9607 -0.2872
  274MOL0     C36869   8.497   4.783   9.439  0.3894 -0.2824  0.2729
  274MOL0     C36870   8.530   4.776   9.287  0.4149 -0.0433  0.8134
  274MOL0     C36871   8.657   4.861   9.250  0.1289  0.4992 -0.4235
  274MOL0     N36872   8.674   4.862   9.110 -0.5285  0.6772  0.4885
  274MOL0     C36873   8.748   4.774   9.040 -0.3212  0.9574  0.1545
  274MOL0     C36874   8.728   4.797   8.906 -0.8821 -0.1862 -0.3654
  274MOL0     C36875   8.805   4.737   8.787 -0.9784 -0.0628 -0.0020
  274MOL0     C36876   8.843   4.835   8.671 -0.1889  0.4571  0.4336
  274MOL0     C36877   8.953   4.933   8.697  0.3589  0.2051  0.1113
  274MOL0     C36878   8.982   5.015   8.571 -0.9353 -0.4333 -0.7202
  274MOL0     O36879   9.038   4.934   8.466  0.4417  0.3245  0.8221
  274MOL0     C36880   8.997   4.973   8.341 -0.1652  0.6717 -0.7983
  274MOL0     C36881   8.954   5.104   8.294 -0.2726  0.2878 -0.1509
  274MOL0     C36882   8.908   5.123   8.162 -0.0696 -0.2160 -0.2428
  274MOL0     C36883   8.915   5.010   8.075  0.5080 -0.3651  0.4908
  274MOL0     C36884   8.895   5.034   7.926 -0.4175 -1.1026  0.0260
  274MOL0     O36885   8.929   4.934   7.842  0.2655 -0.3465  1.0800
  274MOL0     C36886   8.937   4.952   7.705 -0.3734 -0.2148  0.5476
  274MOL0     C36887   9.047   4.897   7.639  0.4554 -1.0837 -0.5893
  274MOL0     C36888   9.066   4.916   7.504 -0.0588  0.0815 -0.1120
  274MOL0     C36889   8.981   4.997   7.424 -0.2830 -1.3853 -0.0967
  274MOL0     O36890   8.996   5.025   7.293 -0.0311 -0.3659  0.6526
  274MOL0     C36891   9.113   4.981   7.215  0.8702 -1.2960  0.4832
  274MOL0     C36892   9.113   5.020   7.067 -0.1301 -0.4386  0.0934
  274MOL0     C36893   9.018   4.940   6.977 -0.0700 -0.6609  0.0467
  274MOL0     C36894   8.873   4.979   7.003  0.1707 -0.0883 -0.3926
  274MOL0     C36895   8.775   4.889   6.931  0.4129  0.8256  0.1695
  274MOL0     C36896   8.635   4.917   6.969 -0.4527 -0.1467 -0.6295
  274MOL0     C36897   8.530   4.812   6.917 -0.3817 -0.0797  0.1839
  274MOL0     C36898   8.401   4.820   7.001 -0.1185 -0.0283  0.1268
  274MOL0    Cl36899   8.282   4.695   6.937 -0.6622  0.3463 -0.5923
  274MOL0     C36900   8.875   5.050   7.491  0.9342 -0.3542 -0.5481
  274MOL0     C36901   8.854   5.030   7.630  0.9435  0.0557 -0.2265
  274MOL0     O36902   8.863   5.155   7.894  0.7419  0.3418  0.2432
  274MOL0     C36903   8.941   4.880   8.121  0.4584 -1.1666 -0.6344
  274MOL0     C36904   8.969   4.864   8.257  0.1092 -0.2893  0.9722
  274MOL0     N36905   8.651   4.914   8.895 -0.0040 -0.9004 -1.0386
  274MOL0     N36906   8.616   4.946   9.020  0.6601 -0.3106  0.0947
  274MOL0     C36907   7.939   4.877   9.980 -0.7272  0.2608  0.1755
  274MOL0     C36908   7.853   4.812  10.064 -0.3673 -0.6474  0.4691
  274MOL0     C36909   7.710   4.641  10.477  0.1444 -0.1812  0.0096
  274MOL0     C36910   7.710   4.664  10.622 -0.3254  0.2945  0.2053
  274MOL0     C36911   7.672   4.567  10.716 -0.0161  0.2743  0.4924
  274MOL0     C36912   7.638   4.444  10.674 -0.8185 -0.7061 -0.2438
  274MOL0     O36913   7.608   4.353  10.773 -0.5686 -0.0899 -0.3232
  274MOL0     C36914   7.600   4.218  10.738  0.8122 -0.5088 -0.1114
  274MOL0     C36915   7.556   4.140  10.862 -0.6264 -0.7610  0.3571
  274MOL0     C36916   7.576   3.996  10.842  0.6524 -0.0664  0.3073
  274MOL0     C36917   7.701   3.941  10.893  0.0878 -0.4666  0.0059
  274MOL0     C36918   7.709   3.938  11.040  0.6049  0.1230  0.1307
  274MOL0     C36919   7.690   3.932  11.159  0.6845 -0.6779  0.3676
  274MOL0     C36920   7.627   4.415  10.535  0.6922  0.0416  1.6961
  274MOL0     C36921   7.660   4.513  10.434 -0.5462  0.1511  0.4429
  274MOL0     C36922   7.641   4.480  10.289  0.0067 -0.7240  0.8051
  274MOL0     H36923   8.048   4.717  10.308  1.7023 -0.9324 -0.4577
  274MOL0     H36924   8.218   4.804  10.148 -0.3788 -0.4407  1.5599
  274MOL0     H36925   8.319   4.982  10.060  0.2184 -0.0711 -0.2950
  274MOL0     H36926   8.343   4.857   9.939 -0.8920  0.7301 -2.0071
  274MOL0     H36927   8.469   5.053   9.880  0.1138  0.7476 -0.4114
  274MOL0     H36928   8.322   5.151   9.897 -3.3334 -1.0992 -0.0984
  274MOL0     H36929   8.370   5.113   9.641  0.3990 -0.2545 -0.6967
  274MOL0     H36930   8.232   5.001   9.690 -0.5926  1.5222  0.5631
  274MOL0     H36931   8.505   4.888   9.720  1.5225  2.4677 -1.4501
  274MOL0     H36932   8.340   4.825   9.684 -1.6098  2.1561  1.4327
  274MOL0     H36933   8.385   4.969   9.455  0.1332  2.1153  1.0604
  274MOL0     H36934   8.557   4.969   9.514 -0.4381  2.3845 -1.2544
  274MOL0     H36935   8.583   4.735   9.487  1.8729 -0.2766 -2.1999
  274MOL0     H36936   8.405   4.723   9.438 -1.9669  3.0325 -1.9392
  274MOL0     H36937   8.439   4.815   9.239 -0.2757 -1.1766  1.1431
  274MOL0     H36938   8.541   4.674   9.249 -0.0319  0.4051 -0.5911
  274MOL0     H36939   8.629   4.963   9.278 -2.2414 -1.0481  3.7519
  274MOL0     H36940   8.748   4.836   9.306  0.9047 -0.3716 -1.9756
  274MOL0     H36941   8.785   4.679   9.076 -0.9997 -0.2103 -2.0269
  274MOL0     H36942   8.890   4.681   8.828 -1.0897 -0.1137  0.1577
  274MOL0     H36943   8.732   4.667   8.746  0.7435 -0.4127 -2.6648
  274MOL0     H36944   8.875   4.768   8.590 -0.6191  3.1578 -2.1451
  274MOL0     H36945   8.755   4.888   8.631 -1.9175 -1.3144  1.6698
  274MOL0     H36946   9.040   4.892   8.749 -1.1589  0.8846  3.4348
  274MOL0     H36947   8.921   5.010   8.767 -1.3749 -3.2337  3.5116
  274MOL0     H36948   9.058   5.088   8.600  0.4489 -1.3517 -1.8671
  274MOL0     H36949   8.898   5.075   8.533  0.0647  1.6421  0.2134
  274MOL0     H36950   8.955   5.190   8.360  3.1001  1.1849 -1.2028
  274MOL0     H36951   8.866   5.221   8.142 -1.3786 -0.6114  0.4774
  274MOL0     H36952   9.122   4.841   7.694  1.3942  1.4388  0.8762
  274MOL0     H36953   9.153   4.882   7.449  0.7203  1.8247 -0.0146
  274MOL0     H36954   9.205   5.019   7.260  1.1105  0.0141 -1.0324
  274MOL0     H36955   9.095   4.873   7.209 -0.6897 -0.9695 -2.5098
  274MOL0     H36956   9.085   5.125   7.053  0.4294 -0.2479  0.3851
  274MOL0     H36957   9.216   5.008   7.032  0.1434  0.2071  0.6261
  274MOL0     H36958   9.041   4.973   6.876  1.6303  5.1428  1.9294
  274MOL0     H36959   9.038   4.832   6.976 -0.2158 -0.6853 -0.3483
  274MOL0     H36960   8.870   5.088   6.988  0.2988 -0.0290 -0.0066
  274MOL0     H36961   8.859   4.954   7.109  0.3763 -1.0616 -0.5918
  274MOL0     H36962   8.794   4.784   6.957  1.4395  1.1750  0.8993
  274MOL0     H36963   8.786   4.909   6.824 -0.2148  3.3054  0.5031
  274MOL0     H36964   8.618   4.927   7.077  0.7708  0.8233 -0.5108
  274MOL0     H36965   8.600   5.017   6.942 -0.1797 -0.0415 -0.5915
  274MOL0     H36966   8.562   4.709   6.932  3.5541  1.2738  2.7889
  274MOL0     H36967   8.517   4.827   6.810 -1.2692  0.0881  0.3032
  274MOL0     H36968   8.427   4.806   7.106 -0.1898  0.0813  0.1590
  274MOL0     H36969   8.353   4.915   6.976 -0.2401  0.0375  0.6141
  274MOL0     H36970   8.808   5.112   7.432 -2.5666 -1.3561  2.0420
  274MOL0     H36971   8.760   5.062   7.673  1.5277  0.4690  0.7778
  274MOL0     H36972   8.934   4.791   8.059 -2.8637 -0.1473 -1.9793
  274MOL0     H36973   8.977   4.763   8.295 -1.5330 -0.4385  1.0034
  274MOL0     H36974   7.919   4.899   9.876 -1.5405  1.3293  0.5260
  274MOL0     H36975   7.757   4.788  10.019 -0.5645 -0.0191  0.5463
  274MOL0     H36976   7.729   4.765  10.657 -0.7668  0.6019 -0.4057
  274MOL0     H36977   7.675   4.576  10.824  0.7889 -1.0102  0.5976
  274MOL0     H36978   7.692   4.176  10.696 -1.3242 -2.2676 -3.5723
  274MOL0     H36979   7.514   4.200  10.673 -1.0000  1.9215  1.4414
  274MOL0     H36980   7.451   4.158  10.887 -0.0436  0.0223  2.4790
  274MOL0     H36981   7.602   4.170  10.956 -4.4474 -3.1938  3.3031
  274MOL0     H36982   7.573   3.964  10.737  0.3498  1.6761 -0.2365
  274MOL0     H36983   7.502   3.938  10.897 -0.7758  0.6742 -0.7779
  274MOL0     H36984   7.725   3.847  10.843 -1.5630 -0.8888 -0.0620
  274MOL0     H36985   7.774   4.018  10.866 -0.3214  0.0664  0.3946
  274MOL0     H36986   7.670   3.932  11.264  0.8415  3.0117  0.5243
  274MOL0     H36987   7.603   4.314  10.503  1.6267  0.3638 -0.1201
  274MOL0     H36988   7.577   4.392  10.275 -3.1854  1.5391  0.0671
  274MOL0     H36989   7.580   4.554  10.237  2.1748  1.2448  0.9090
  274MOL0     H36990   7.733   4.471  10.231 -0.3841 -3.0199  0.4377
  275MOL0     O36991   4.231   2.358   0.905  0.5417 -0.5627 -0.2118
  275MOL0     C36992   4.353   2.384   0.915 -0.0754  0.0909  1.6992
  275MOL0     O36993   4.409   2.442   1.015  0.2415 -0.2579 -0.0417
  275MOL0     C36994   4.321   2.518   1.095  0.2302  0.9179 -0.7154
  275MOL0     C36995   4.327   2.515   1.238 -0.4750  1.3182 -0.4174
  275MOL0     C36996   4.243   2.591   1.325  0.2961  0.3245  0.5167
  275MOL0     C36997   4.151   2.677   1.267  0.2358 -0.4341 -0.2640
  275MOL0     O36998   4.074   2.748   1.359 -0.0306  0.2110 -0.9740
  275MOL0     C36999   3.977   2.843   1.313 -0.4654  0.7919  0.1967
  275MOL0     C37000   3.919   2.923   1.431  0.4954  0.2593 -0.0149
  275MOL0     C37001   3.869   2.840   1.548  0.4361 -0.0659 -0.0293
  275MOL0     C37002   3.779   2.919   1.639  0.0678  0.7550 -0.0014
  275MOL0     C37003   3.727   2.834   1.753  0.7070 -0.3153 -0.3163
  275MOL0     C37004   3.831   2.806   1.852 -0.1070  1.1130 -0.3253
  275MOL0     C37005   3.777   2.719   1.975  1.0693 -0.2264 -0.0498
  275MOL0     C37006   3.692   2.805   2.069 -1.0812 -0.1469 -0.0065
  275MOL0     N37007   3.676   2.740   2.193  0.5174 -0.8078  0.3686
  275MOL0     C37008   3.610   2.614   2.209  0.1298 -0.6107 -0.2842
  275MOL0     C37009   3.609   2.596   2.341 -0.2674 -0.0486  0.7705
  275MOL0     C37010   3.548   2.478   2.414  0.1975  0.6127 -0.8675
  275MOL0     C37011   3.650   2.399   2.501 -0.3889 -0.1041  0.2690
  275MOL0     C37012   3.757   2.315   2.427 -0.2232 -0.8115 -0.3125
  275MOL0     C37013   3.723   2.178   2.382  0.2151  0.2334 -0.0568
  275MOL0     O37014   3.605   2.173   2.299 -0.4410 -0.0625  0.0201
  275MOL0     C37015   3.613   2.229   2.174 -0.3509  0.6979 -0.2665
  275MOL0     C37016   3.491   2.263   2.113  0.2127  0.8771 -0.0841
  275MOL0     C37017   3.478   2.309   1.983  0.3415 -0.7259  0.1666
  275MOL0     C37018   3.599   2.334   1.911 -0.3272 -0.3512 -0.2695
  275MOL0     C37019   3.594   2.384   1.779  0.3065 -0.4542  0.3222
  275MOL0     O37020   3.482   2.366   1.702 -0.8990 -0.5812 -0.4015
  275MOL0     C37021   3.483   2.389   1.561 -0.6794  0.3160  0.5566
  275MOL0     C37022   3.596   2.409   1.472  0.2078 -0.8475 -0.9302
  275MOL0     C37023   3.571   2.447   1.341 -0.0903  1.0038 -0.4561
  275MOL0     C37024   3.449   2.426   1.284 -0.4923  1.0632 -0.0876
  275MOL0     O37025   3.430   2.453   1.146  0.8354  1.0265 -0.4158
  275MOL0     C37026   3.334   2.374   1.077 -0.6424  0.1420 -0.0908
  275MOL0     C37027   3.363   2.373   0.932  0.6504 -0.0736  0.1389
  275MOL0     C37028   3.497   2.338   0.892 -0.7389 -0.3446 -0.6386
  275MOL0     C37029   3.559   2.218   0.958  0.7900 -0.0359 -0.4185
  275MOL0     C37030   3.686   2.167   0.888 -0.5889 -0.1435  0.0400
  275MOL0     C37031   3.761   2.056   0.966 -0.3021 -0.5048  1.2222
  275MOL0     C37032   3.863   2.123   1.049  0.1963  0.2101 -0.5286
  275MOL0     C37033   3.829   2.167   1.186  0.8052  0.2053 -0.5056
  275MOL0    Cl37034   3.769   2.048   1.301  0.0349 -0.0706 -0.3460
  275MOL0     C37035   3.339   2.390   1.364  0.4422  0.6664  0.6244
  275MOL0     C37036   3.361   2.377   1.501  0.6180  0.5178  0.0894
  275MOL0     O37037   3.696   2.452   1.744 -0.1894  0.5564 -0.7683
  275MOL0     C37038   3.721   2.290   1.964 -0.5810  0.1918  1.0002
  275MOL0     C37039   3.732   2.244   2.094 -0.3224  0.6027 -0.0105
  275MOL0     N37040   3.659   2.712   2.406  0.4776  0.5558 -1.7875
  275MOL0     N37041   3.705   2.799   2.311 -0.8297 -0.6608 -1.1004
  275MOL0     C37042   4.146   2.694   1.128  0.5639  0.9144 -0.4054
  275MOL0     C37043   4.234   2.612   1.040  0.4011 -0.0633  0.2725
  275MOL0     C37044   4.451   2.318   0.818 -1.0036  0.1593  0.5557
  275MOL0     C37045   4.584   2.297   0.850  0.0068  0.3591 -0.4049
  275MOL0     C37046   4.672   2.220   0.781  0.0047 -0.4391  0.2357
  275MOL0     C37047   4.634   2.164   0.653  0.5085 -0.2590 -0.5726
  275MOL0     O37048   4.715   2.084   0.572 -0.0699 -0.8732 -0.0901
  275MOL0     C37049   4.834   2.036   0.639  0.1813  0.3442 -0.3246
  275MOL0     C37050   4.916   1.974   0.527  0.3647 -0.4506  0.6037
  275MOL0     C37051   5.027   1.880   0.585  0.3602 -0.9712 -0.8500
  275MOL0     C37052   5.084   1.781   0.481 -0.7363 -0.2045  0.6619
  275MOL0     C37053   5.216   1.717   0.520 -1.0714  0.1873  0.4508
  275MOL0     C37054   5.333   1.679   0.537 -0.6752 -0.1104 -0.5199
  275MOL0     C37055   4.505   2.198   0.609 -0.2722 -0.1724 -0.3536
  275MOL0     C37056   4.417   2.277   0.690  0.2452 -0.1371  1.0772
  275MOL0     C37057   4.283   2.316   0.619 -0.5788 -1.0842 -0.2621
  275MOL0     H37058   4.391   2.440   1.284 -3.2282  0.3069  2.1468
  275MOL0     H37059   4.230   2.587   1.433 -4.8710  3.0526  0.3059
  275MOL0     H37060   4.023   2.928   1.262 -0.3742  0.7045  0.1312
  275MOL0     H37061   3.898   2.799   1.252 -1.2936  2.1399  0.2636
  275MOL0     H37062   3.833   2.985   1.404 -1.8267 -1.5170  2.6973
  275MOL0     H37063   3.999   2.992   1.458  0.3025  0.8419 -0.8807
  275MOL0     H37064   3.962   2.815   1.599  1.4361  1.3582 -1.0993
  275MOL0     H37065   3.816   2.749   1.518 -0.2807 -0.1464  1.3887
  275MOL0     H37066   3.835   3.000   1.687  0.5414  0.9005 -0.7714
  275MOL0     H37067   3.696   2.949   1.574  0.6894 -1.3403 -1.8938
  275MOL0     H37068   3.646   2.895   1.795  1.8620  1.7715 -0.9897
  275MOL0     H37069   3.670   2.744   1.726 -1.3410 -0.1694  3.0388
  275MOL0     H37070   3.911   2.751   1.803 -0.3820 -2.4052  2.7174
  275MOL0     H37071   3.872   2.898   1.893  3.1459 -0.4630  0.2162
  275MOL0     H37072   3.859   2.678   2.034  0.1074 -0.9396  0.8311
  275MOL0     H37073   3.726   2.627   1.943  1.7767 -0.8882  0.6782
  275MOL0     H37074   3.742   2.902   2.078 -1.7006  0.3595 -1.5911
  275MOL0     H37075   3.592   2.816   2.025  0.1695  0.3559 -3.0086
  275MOL0     H37076   3.570   2.545   2.135  2.0311 -2.0660 -0.0361
  275MOL0     H37077   3.472   2.521   2.480  0.5734 -1.8480  1.3628
  275MOL0     H37078   3.495   2.413   2.343 -0.8735 -1.3529  1.5720
  275MOL0     H37079   3.697   2.470   2.570  2.2904  0.1235 -1.6438
  275MOL0     H37080   3.594   2.336   2.570 -0.8307  0.4397  0.4139
  275MOL0     H37081   3.837   2.309   2.501 -1.5017 -0.7374  1.1329
  275MOL0     H37082   3.789   2.372   2.339 -2.1363  0.5729 -0.1787
  275MOL0     H37083   3.711   2.117   2.471 -0.3642  1.4786  0.7478
  275MOL0     H37084   3.820   2.150   2.340 -0.2150 -0.1719 -0.8118
  275MOL0     H37085   3.397   2.252   2.166 -0.6566 -2.0442 -1.9708
  275MOL0     H37086   3.376   2.317   1.948  0.5108  2.2368  0.0377
  275MOL0     H37087   3.696   2.413   1.514  0.3165  2.3121 -1.2523
  275MOL0     H37088   3.653   2.465   1.272 -0.7346 -1.9542 -2.1503
  275MOL0     H37089   3.334   2.273   1.120  1.4729 -0.7584 -1.9903
  275MOL0     H37090   3.239   2.428   1.080  0.9517  3.1523  0.7458
  275MOL0     H37091   3.293   2.300   0.891  0.3358  0.7505 -0.8273
  275MOL0     H37092   3.335   2.470   0.890 -1.5659  0.6712  3.0397
  275MOL0     H37093   3.513   2.313   0.786  0.6005 -1.4231 -0.2093
  275MOL0     H37094   3.554   2.429   0.914 -1.2589  0.3271 -1.9378
  275MOL0     H37095   3.480   2.143   0.946 -1.0513  1.6241  0.7743
  275MOL0     H37096   3.569   2.237   1.065  3.6253  1.0167 -0.7862
  275MOL0     H37097   3.750   2.254   0.875  0.2354 -1.1278 -3.8063
  275MOL0     H37098   3.656   2.121   0.793 -0.2110 -2.9315  1.1782
  275MOL0     H37099   3.695   1.987   1.020 -1.2272 -0.4310  0.2160
  275MOL0     H37100   3.811   1.997   0.888 -3.0357 -0.2435 -0.8748
  275MOL0     H37101   3.907   2.209   0.998  0.7806 -0.1856 -0.7068
  275MOL0     H37102   3.940   2.047   1.067  2.4435  2.5335  0.2021
  275MOL0     H37103   3.923   2.207   1.224  1.1075 -0.8544 -0.1014
  275MOL0     H37104   3.746   2.238   1.178 -0.8080 -1.6484 -1.1913
  275MOL0     H37105   3.244   2.384   1.313  0.7255  0.3694  0.1314
  275MOL0     H37106   3.268   2.358   1.553  0.4590 -4.7178 -1.5306
  275MOL0     H37107   3.811   2.283   1.904 -0.8983 -1.2180  0.6374
  275MOL0     H37108   3.830   2.222   2.136  0.9536 -0.2676 -3.1509
  275MOL0     H37109   4.085   2.770   1.081  1.6566  2.1840  0.1588
  275MOL0     H37110   4.233   2.640   0.935 -1.4310 -1.7894 -0.2395
  275MOL0     H37111   4.624   2.336   0.943  1.0986  2.5591 -1.7093
  275MOL0     H37112   4.771   2.207   0.823 -0.6854 -2.7634  1.3407
  275MOL0     H37113   4.818   1.964   0.719  1.6760  0.6534  0.2783
  275MOL0     H37114   4.893   2.115   0.686 -2.3520  1.4012  1.2826
  275MOL0     H37115   4.960   2.049   0.461 -2.4314  1.6479  0.9380
  275MOL0     H37116   4.862   1.909   0.458 -0.7338 -0.1459  1.1510
  275MOL0     H37117   4.985   1.818   0.664 -2.0728 -2.2471 -2.9829
  275MOL0     H37118   5.107   1.941   0.627  0.0551 -0.9634 -0.2786
  275MOL0     H37119   5.013   1.698   0.472  0.5672 -1.2269 -0.7614
  275MOL0     H37120   5.100   1.828   0.383 -1.0769  4.1589  2.4561
  275MOL0     H37121   5.437   1.662   0.558 -0.7258 -0.0905 -0.2468
  275MOL0     H37122   4.474   2.141   0.522  0.8611 -1.3452 -0.0351
  275MOL0     H37123   4.203   2.274   0.679 -1.1160  1.9355  1.3388
  275MOL0     H37124   4.253   2.421   0.626  3.4430  0.3893 -1.9517
  275MOL0     H37125   4.273   2.280   0.516  0.0309 -0.2999 -0.6097
  276MOL0     O37126   0.797  10.952   4.173  0.1149 -0.2059  0.1833
  276MOL0     C37127   0.881  10.911   4.255  0.6713  0.0591  0.1078
  276MOL0     O37128   1.003  10.858   4.217  0.4972  0.1748 -0.2704
  276MOL0     C37129   1.031  10.876   4.082  0.0061  0.1811 -0.5433
  276MOL0     C37130   1.030  10.770   4.000 -0.3111  0.5728 -0.3885
  276MOL0     C37131   1.081  10.776   3.880  0.3631  0.0911 -0.4952
  276MOL0     C37132   1.125  10.896   3.822 -0.3794 -0.0187  0.8445
  276MOL0     O37133   1.170  10.889   3.692 -0.7015  0.1699  0.5618
  276MOL0     C37134   1.240  11.002   3.635 -1.3218 -0.1621 -0.2593
  276MOL0     C37135   1.155  11.111   3.555 -0.1848 -0.1703  0.1546
  276MOL0     C37136   1.236  11.204   3.468  0.3940 -0.3006 -0.9107
  276MOL0     C37137   1.296  11.146   3.345  0.5901  0.1699 -0.8670
  276MOL0     C37138   1.384  11.251   3.265  0.3178  0.4553  0.4923
  276MOL0     C37139   1.492  11.178   3.187  0.1370  1.1614  0.1541
  276MOL0     C37140   1.426  11.114   3.059 -0.0191  0.2239  0.7814
  276MOL0     C37141   1.531  11.050   2.970 -0.4633 -0.1804 -0.8001
  276MOL0     N37142   1.610  11.144   2.893 -0.6012 -0.6756  0.0484
  276MOL0     C37143   1.731  11.214   2.928  0.7601  0.0839 -0.6172
  276MOL0     C37144   1.744  11.301   2.828  0.8444  0.1338  0.5372
  276MOL0     C37145   1.860  11.398   2.818  0.7902 -0.6556 -0.6258
  276MOL0     C37146   1.835  11.523   2.720  0.9217  0.5311  0.2318
  276MOL0     C37147   1.965  11.585   2.688  0.2949  1.2188  0.2783
  276MOL0     C37148   1.967  11.729   2.731  0.5899 -0.0338 -0.9477
  276MOL0     O37149   1.876  11.797   2.639  0.0033  0.7201  0.2781
  276MOL0     C37150   1.821  11.916   2.670 -0.2066 -0.1047 -0.9823
  276MOL0     C37151   1.907  12.033   2.705 -0.2555  0.3842  0.2200
  276MOL0     C37152   1.854  12.156   2.729 -0.0744  0.1926  0.2793
  276MOL0     C37153   1.708  12.176   2.727  0.4955 -0.2027 -0.0925
  276MOL0     C37154   1.647  12.305   2.763 -0.2347 -0.4370 -0.7476
  276MOL0     O37155   1.740  12.397   2.818 -0.3066  0.4230  0.1479
  276MOL0     C37156   1.697  12.516   2.840  0.2321 -0.2566 -0.0011
  276MOL0     C37157   1.712  12.637   2.760  0.1124 -0.8752 -0.6940
  276MOL0     C37158   1.667  12.763   2.812  1.4134  0.6228 -0.3247
  276MOL0     C37159   1.605  12.768   2.945  0.2795  0.5627 -0.1163
  276MOL0     O37160   1.547  12.881   3.000 -0.9580  0.8613  0.0699
  276MOL0     C37161   1.497  12.980   2.923 -0.1644 -0.1089 -0.6941
  276MOL0     C37162   1.368  12.937   2.847 -0.0186 -0.1813 -0.4911
  276MOL0     C37163   1.298  13.078   2.811  0.0136 -0.5968 -0.1775
  276MOL0     C37164   1.183  13.048   2.706  0.9035  0.1070  0.1816
  276MOL0     C37165   1.130  13.174   2.651 -0.2858 -0.3595 -0.0266
  276MOL0     C37166   1.026  13.149   2.549 -0.0897  0.5208 -0.4607
  276MOL0     C37167   0.969  13.275   2.487  0.5817  0.6475 -0.5361
  276MOL0     C37168   0.986  13.285   2.335  0.4956  0.1002  0.5104
  276MOL0    Cl37169   0.904  13.155   2.245 -0.0311 -0.0391 -0.1999
  276MOL0     C37170   1.606  12.655   3.025 -0.4387 -0.4102  0.6761
  276MOL0     C37171   1.647  12.534   2.971 -0.1549  0.1891  0.1678
  276MOL0     O37172   1.526  12.319   2.765 -0.4130  0.1883  0.2365
  276MOL0     C37173   1.626  12.055   2.697 -0.4159 -0.4917 -0.0434
  276MOL0     C37174   1.684  11.935   2.668 -0.4216  0.1234  0.5418
  276MOL0     N37175   1.650  11.282   2.724 -0.3590  0.1222 -0.8878
  276MOL0     N37176   1.572  11.191   2.768  0.1467  1.1572 -0.1591
  276MOL0     C37177   1.125  11.011   3.904 -0.7344  0.4172  0.3516
  276MOL0     C37178   1.080  11.002   4.036 -0.0619  0.3545  0.7622
  276MOL0     C37179   0.845  10.885   4.403 -0.2711 -0.4497  0.6835
  276MOL0     C37180   0.883  10.763   4.461  0.4637  0.5425 -0.1956
  276MOL0     C37181   0.832  10.725   4.593 -0.2811  0.4732  0.2186
  276MOL0     C37182   0.747  10.814   4.660 -0.4489 -1.0954  0.2411
  276MOL0     O37183   0.688  10.790   4.788 -0.6402  0.4664  0.5018
  276MOL0     C37184   0.753  10.864   4.887  0.5408 -0.0575  0.5535
  276MOL0     C37185   0.768  10.776   5.008 -0.6973 -0.2758  0.3870
  276MOL0     C37186   0.642  10.762   5.099 -0.0315  0.2700 -0.4669
  276MOL0     C37187   0.674  10.732   5.254  0.8909 -1.1968  0.4892
  276MOL0     C37188   0.560  10.700   5.336 -0.3507  0.9397  0.1616
  276MOL0     C37189   0.469  10.665   5.404  0.5923  1.3887  0.9364
  276MOL0     C37190   0.718  10.941   4.604 -0.2599  1.0398 -0.3147
  276MOL0     C37191   0.760  10.974   4.473  0.8642  0.5837  0.0359
  276MOL0     C37192   0.687  11.100   4.413 -0.1607  0.1905 -0.3131
  276MOL0     H37193   0.995  10.671   4.029  0.1788  0.5011 -0.0403
  276MOL0     H37194   1.098  10.680   3.832  0.3329  0.0520 -0.4284
  276MOL0     H37195   1.301  11.052   3.712  1.7867 -2.5504 -0.9475
  276MOL0     H37196   1.320  10.970   3.567 -0.6305  0.6289  0.1555
  276MOL0     H37197   1.100  11.178   3.622  2.6880 -0.1755  2.7558
  276MOL0     H37198   1.083  11.063   3.488  0.8387 -1.6282  0.0569
  276MOL0     H37199   1.316  11.246   3.530 -0.4073 -4.1160  3.1797
  276MOL0     H37200   1.171  11.289   3.447 -2.1486 -0.9707  3.2935
  276MOL0     H37201   1.348  11.053   3.371 -2.3975 -1.8993 -1.7377
  276MOL0     H37202   1.212  11.117   3.282  0.7755 -3.4835  0.3320
  276MOL0     H37203   1.320  11.314   3.204 -2.3001  0.0028  2.5759
  276MOL0     H37204   1.425  11.313   3.345 -1.0297 -0.4006  1.9075
  276MOL0     H37205   1.561  11.256   3.155  0.0109  0.0494 -3.1156
  276MOL0     H37206   1.546  11.111   3.255  1.2324  1.8977  0.0273
  276MOL0     H37207   1.385  11.190   2.991  1.3646 -1.0263 -1.5543
  276MOL0     H37208   1.361  11.028   3.076 -1.2303  0.7372 -0.9562
  276MOL0     H37209   1.593  10.979   3.025  0.7147  1.1934 -0.3093
  276MOL0     H37210   1.481  10.977   2.906 -2.8702 -0.0104  0.7690
  276MOL0     H37211   1.775  11.186   3.024 -2.4713 -1.4513  0.5856
  276MOL0     H37212   1.864  11.433   2.922  0.0158  1.5521 -1.2912
  276MOL0     H37213   1.958  11.352   2.802 -0.5418 -3.7040 -0.7233
  276MOL0     H37214   1.793  11.487   2.625  1.6572  3.0847 -1.1682
  276MOL0     H37215   1.767  11.595   2.768  1.0489 -1.3566  3.4855
  276MOL0     H37216   1.985  11.572   2.581  1.9897  4.0740  0.1675
  276MOL0     H37217   2.049  11.528   2.729 -0.7586 -0.8303 -0.2647
  276MOL0     H37218   2.063  11.781   2.722  1.5982 -1.4180  1.1174
  276MOL0     H37219   1.923  11.733   2.831  0.4346 -1.5579 -0.9308
  276MOL0     H37220   2.012  12.009   2.702 -0.8522 -2.6201 -2.8088
  276MOL0     H37221   1.920  12.240   2.750  1.1092 -0.5834 -0.2338
  276MOL0     H37222   1.766  12.631   2.666  1.7449 -2.4210  0.2808
  276MOL0     H37223   1.691  12.854   2.757  4.1816 -0.3427 -0.8668
  276MOL0     H37224   1.479  13.059   2.997  3.7215 -0.0735  0.4527
  276MOL0     H37225   1.572  13.016   2.852 -1.7139 -2.7579 -3.9705
  276MOL0     H37226   1.392  12.873   2.761 -0.8483 -3.2500  1.3887
  276MOL0     H37227   1.311  12.883   2.923  2.0547 -0.7103  0.7712
  276MOL0     H37228   1.259  13.138   2.894 -0.1686  1.5817 -1.7289
  276MOL0     H37229   1.366  13.150   2.765 -2.5355  1.4943 -0.9465
  276MOL0     H37230   1.099  13.000   2.758 -0.7831  0.1503 -2.3313
  276MOL0     H37231   1.221  12.967   2.644  1.1652 -1.3703  2.1781
  276MOL0     H37232   1.215  13.228   2.608 -0.4756 -1.0876 -1.3658
  276MOL0     H37233   1.090  13.223   2.741 -1.3814 -4.3923  1.8951
  276MOL0     H37234   1.067  13.088   2.468 -1.5652 -0.9613 -0.1656
  276MOL0     H37235   0.941  13.091   2.588  0.5255 -0.2235 -0.1922
  276MOL0     H37236   1.033  13.353   2.529  1.2900 -0.9696  1.6160
  276MOL0     H37237   0.863  13.292   2.509 -0.0958  2.6081 -4.4908
  276MOL0     H37238   0.949  13.380   2.294  0.7698 -0.1241 -0.2703
  276MOL0     H37239   1.090  13.277   2.300  0.3672  0.8939 -0.0992
  276MOL0     H37240   1.574  12.672   3.128  0.2589  0.0541  0.8171
  276MOL0     H37241   1.636  12.444   3.031  0.8005 -0.2371 -0.2745
  276MOL0     H37242   1.518  12.070   2.701 -0.3786 -0.3551  0.6712
  276MOL0     H37243   1.619  11.854   2.634 -2.0157  2.3454 -2.2334
  276MOL0     H37244   1.162  11.108   3.871  0.7647  0.3821  1.8372
  276MOL0     H37245   1.074  11.088   4.102 -2.3886 -0.1428  1.2923
  276MOL0     H37246   0.935  10.693   4.398  1.3715 -0.3377  1.4679
  276MOL0     H37247   0.850  10.627   4.634 -2.6205 -1.2343 -2.4694
  276MOL0     H37248   0.686  10.946   4.914  0.5688 -0.0508  0.6035
  276MOL0     H37249   0.845  10.908   4.847  0.6839 -0.8367  0.0084
  276MOL0     H37250   0.852  10.813   5.068 -0.5878  0.7186 -0.3578
  276MOL0     H37251   0.790  10.676   4.969  3.0706  0.4952  0.1903
  276MOL0     H37252   0.566  10.692   5.063 -2.5043 -1.0790  5.9651
  276MOL0     H37253   0.603  10.864   5.102  1.1032  0.6930  0.7187
  276MOL0     H37254   0.748  10.653   5.272  0.4545 -1.7747 -0.1644
  276MOL0     H37255   0.729  10.817   5.296 -0.1862 -1.1663  1.8950
  276MOL0     H37256   0.401  10.636   5.481 -0.4068 -2.3499 -1.0780
  276MOL0     H37257   0.646  11.007   4.650  0.5913  2.8358 -1.4587
  276MOL0     H37258   0.587  11.068   4.382 -1.3374 -0.1135  3.3302
  276MOL0     H37259   0.687  11.181   4.487 -0.1782  1.8792 -2.0716
  276MOL0     H37260   0.746  11.143   4.331 -0.7283  2.3467  0.3214
  277MOL0     O37261   8.929   1.570   7.843 -0.5409 -0.0292  0.2968
  277MOL0     C37262   9.054   1.546   7.823 -0.3379  0.4715  0.2052
  277MOL0     O37263   9.149   1.531   7.920 -0.7168 -0.2284  0.5399
  277MOL0     C37264   9.105   1.557   8.048  0.7586  0.6184  0.0484
  277MOL0     C37265   9.070   1.688   8.084 -0.6538 -0.1704  0.1676
  277MOL0     C37266   9.014   1.719   8.207 -0.6948  1.0588 -0.6379
  277MOL0     C37267   9.000   1.612   8.299  0.4429 -0.4376  0.5408
  277MOL0     O37268   8.927   1.645   8.415  0.6168  0.3147 -0.0512
  277MOL0     C37269   8.920   1.544   8.521 -0.2051  0.2833  0.3256
  277MOL0     C37270   8.840   1.604   8.633  0.5625  0.6664 -0.2694
  277MOL0     C37271   8.870   1.554   8.778  0.1400 -0.9879  1.4999
  277MOL0     C37272   8.831   1.402   8.808  0.0641  0.0753 -0.5809
  277MOL0     C37273   8.864   1.353   8.953  0.1114 -0.4868  0.7668
  277MOL0     C37274   8.840   1.203   8.968  0.6217  0.5437  0.4110
  277MOL0     C37275   8.874   1.143   9.111 -0.5170 -0.8243  0.0354
  277MOL0     C37276   9.014   1.170   9.154  0.2541 -0.0530  0.1765
  277MOL0     N37277   9.032   1.098   9.277  0.1826  0.4456 -0.2730
  277MOL0     C37278   9.096   0.984   9.284 -0.7210  0.4992 -0.5991
  277MOL0     C37279   9.125   0.968   9.411  0.4545  0.3939  0.1158
  277MOL0     C37280   9.188   0.852   9.474  0.3093  0.1094  0.5643
  277MOL0     C37281   9.091   0.756   9.562 -0.6802  0.1458  0.0522
  277MOL0     C37282   9.032   0.833   9.680 -0.2379 -0.0107  0.3620
  277MOL0     C37283   8.983   0.738   9.797 -0.3274  0.6001 -0.8914
  277MOL0     O37284   8.899   0.645   9.728  0.6416 -0.5071  0.2257
  277MOL0     C37285   8.822   0.560   9.805 -0.1915  0.4237  0.8052
  277MOL0     C37286   8.741   0.474   9.730 -1.0544  1.0054  0.0255
  277MOL0     C37287   8.656   0.385   9.793 -0.3241  0.4190  0.5323
  277MOL0     C37288   8.651   0.382   9.929  0.3513 -0.3661 -1.3465
  277MOL0     C37289   8.563   0.289  10.002  0.2753 -0.0505 -0.6914
  277MOL0     O37290   8.524   0.179   9.934  0.5217  0.1737 -0.1013
  277MOL0     C37291   8.457   0.082  10.007  0.8355 -0.3110 -0.2615
  277MOL0     C37292   8.318   0.073   9.992 -0.3090  0.2389  0.9180
  277MOL0     C37293   8.245  -0.023  10.062  0.7189 -0.3323 -0.0632
  277MOL0     C37294   8.303  -0.115  10.148 -0.6818  0.6279 -0.2343
  277MOL0     O37295   8.229  -0.207  10.222  0.2014 -0.0923 -1.1153
  277MOL0     C37296   8.103  -0.158  10.275  0.2018 -0.7029 -0.5493
  277MOL0     C37297   8.060  -0.240  10.399 -0.5505 -0.4288  0.3925
  277MOL0     C37298   8.038  -0.388  10.361 -0.9022 -0.3337 -1.1374
  277MOL0     C37299   8.032  -0.490  10.475  0.0367  0.1901  0.7626
  277MOL0     C37300   7.932  -0.452  10.586  0.4255 -1.2759  0.7242
  277MOL0     C37301   7.913  -0.551  10.703 -0.7130  1.2974 -0.5058
  277MOL0     C37302   7.829  -0.673  10.655  0.5317  0.4836 -0.3604
  277MOL0     C37303   7.780  -0.763  10.775 -0.9778 -0.2375 -0.1811
  277MOL0    Cl37304   7.934  -0.795  10.854 -0.0350 -0.1089 -0.4002
  277MOL0     C37305   8.448  -0.108  10.160  1.3212 -0.0342 -0.9108
  277MOL0     C37306   8.515  -0.012  10.093  0.4243  0.3317  0.7650
  277MOL0     O37307   8.538   0.317  10.115  1.2719 -0.3289  0.3436
  277MOL0     C37308   8.726   0.472  10.010 -0.6199 -0.5447 -0.0317
  277MOL0     C37309   8.816   0.553   9.939  0.1694 -0.5849 -0.1671
  277MOL0     N37310   9.078   1.074   9.484  0.2895  0.4888 -0.0257
  277MOL0     N37311   9.036   1.160   9.398  0.3959  0.0993  0.0005
  277MOL0     C37312   9.033   1.485   8.264 -0.9771  0.2129  0.0133
  277MOL0     C37313   9.081   1.455   8.139 -0.2710 -0.4667  0.2160
  277MOL0     C37314   9.095   1.545   7.680  0.2706  0.3303  0.2641
  277MOL0     C37315   8.997   1.515   7.585  0.8030  0.3930  0.2886
  277MOL0     C37316   9.022   1.536   7.451 -0.1408  1.0502 -1.2792
  277MOL0     C37317   9.150   1.537   7.401  0.6422  0.9170 -0.7870
  277MOL0     O37318   9.185   1.527   7.269 -0.2445  0.4500  0.2477
  277MOL0     C37319   9.084   1.513   7.164 -0.9254  0.5309 -0.0810
  277MOL0     C37320   9.133   1.549   7.029 -0.0656 -1.4136  0.4870
  277MOL0     C37321   9.214   1.437   6.953 -0.4775 -0.7935 -0.3403
  277MOL0     C37322   9.182   1.437   6.811 -0.4146 -0.0629  0.9485
  277MOL0     C37323   9.247   1.551   6.738 -0.1694 -0.6684  0.0516
  277MOL0     C37324   9.297   1.630   6.665  0.6506  0.3358  0.2459
  277MOL0     C37325   9.253   1.554   7.492  0.3082 -0.2447 -0.4021
  277MOL0     C37326   9.221   1.572   7.625 -0.1763 -0.0833 -0.6462
  277MOL0     C37327   9.338   1.607   7.718  0.1476  1.5550  0.0988
  277MOL0     H37328   9.079   1.761   8.004 -0.6347  0.9381  1.1506
  277MOL0     H37329   8.982   1.817   8.240  1.8609  1.0842  2.1558
  277MOL0     H37330   8.886   1.445   8.491 -0.5674 -0.2629  2.3557
  277MOL0     H37331   9.018   1.514   8.559 -0.2448  2.6540  2.6522
  277MOL0     H37332   8.733   1.586   8.617  0.6330  2.2775 -3.1564
  277MOL0     H37333   8.856   1.712   8.638 -0.6687  0.8193  2.0931
  277MOL0     H37334   8.810   1.609   8.851 -1.4146 -1.2195  0.4404
  277MOL0     H37335   8.978   1.571   8.790  0.4440  2.7553 -3.2891
  277MOL0     H37336   8.726   1.385   8.779 -0.3541  5.6195 -3.8300
  277MOL0     H37337   8.901   1.357   8.737 -0.9226  1.6355 -2.6595
  277MOL0     H37338   8.969   1.372   8.977  0.2068 -1.6575  1.3389
  277MOL0     H37339   8.806   1.422   9.016 -0.2044  0.3470 -0.3986
  277MOL0     H37340   8.743   1.167   8.931  1.9447 -2.1350 -0.7846
  277MOL0     H37341   8.904   1.149   8.898  0.5056  1.5742 -0.5042
  277MOL0     H37342   8.846   1.038   9.102 -1.5325 -0.6793  1.1968
  277MOL0     H37343   8.801   1.181   9.183 -1.7313 -2.2056 -0.4160
  277MOL0     H37344   9.091   1.161   9.077 -1.1244  1.9300 -1.5443
  277MOL0     H37345   9.018   1.277   9.175  0.9311  0.3286 -1.6808
  277MOL0     H37346   9.117   0.912   9.206  1.9397 -0.6270  1.0040
  277MOL0     H37347   9.235   0.795   9.393 -0.9772  1.2865 -1.0794
  277MOL0     H37348   9.272   0.875   9.540 -3.0608 -0.8931  5.7321
  277MOL0     H37349   9.014   0.707   9.501 -1.2716  1.4778 -0.3062
  277MOL0     H37350   9.160   0.679   9.596 -1.1941 -0.8590 -1.0639
  277MOL0     H37351   8.948   0.896   9.649 -0.8833 -0.2816  1.4761
  277MOL0     H37352   9.095   0.908   9.729  1.0717  0.4477 -1.8926
  277MOL0     H37353   8.926   0.785   9.878 -1.6394  1.1504 -2.0894
  277MOL0     H37354   9.065   0.691   9.850 -0.8434  2.1504  1.4688
  277MOL0     H37355   8.759   0.474   9.623 -0.7509 -0.0751  0.0666
  277MOL0     H37356   8.594   0.315   9.738  0.5040  0.1882 -0.1296
  277MOL0     H37357   8.266   0.127   9.914 -1.8710 -0.8185  1.1789
  277MOL0     H37358   8.138  -0.020  10.050  0.6613 -1.2019  0.1570
  277MOL0     H37359   8.129  -0.058  10.311  0.3228 -1.0705  0.4178
  277MOL0     H37360   8.031  -0.145  10.194 -0.8743  1.0306  0.6266
  277MOL0     H37361   8.138  -0.230  10.475 -1.6200  0.2882  1.4569
  277MOL0     H37362   7.967  -0.195  10.436 -1.7048 -2.9503  0.8139
  277MOL0     H37363   7.950  -0.404  10.297 -1.0397 -0.1098 -1.0045
  277MOL0     H37364   8.115  -0.423  10.292 -0.1269 -0.7942 -0.0446
  277MOL0     H37365   8.135  -0.503  10.510 -0.3430  2.9042  3.2913
  277MOL0     H37366   8.000  -0.589  10.441 -1.3617  0.0111  2.4523
  277MOL0     H37367   7.834  -0.425  10.545  0.9482 -1.3615 -0.6152
  277MOL0     H37368   7.967  -0.354  10.619 -3.3590  1.0268 -1.3637
  277MOL0     H37369   8.010  -0.581  10.744 -2.5899 -0.5669  2.9571
  277MOL0     H37370   7.860  -0.506  10.787  3.0642  2.1888  1.6165
  277MOL0     H37371   7.907  -0.725  10.598  1.0746  0.1468  0.6654
  277MOL0     H37372   7.750  -0.641  10.586  0.3463  0.4697 -0.1568
  277MOL0     H37373   7.714  -0.716  10.849 -0.5783  1.3648 -0.8060
  277MOL0     H37374   7.741  -0.857  10.735  2.6377 -3.0556  2.2824
  277MOL0     H37375   8.496  -0.196  10.203  1.3664 -0.7030 -2.2738
  277MOL0     H37376   8.622  -0.000  10.089  0.5113 -0.7284 -1.5801
  277MOL0     H37377   8.725   0.474  10.119  2.8178  2.9375  0.1350
  277MOL0     H37378   8.881   0.620   9.994 -0.2283  0.5204 -0.9748
  277MOL0     H37379   9.017   1.397   8.325  0.7631  0.4695  0.8825
  277MOL0     H37380   9.100   1.352   8.109 -2.4865 -0.7224 -0.5606
  277MOL0     H37381   8.896   1.481   7.606  0.7446 -0.8215 -1.6775
  277MOL0     H37382   8.935   1.514   7.390 -2.4572 -2.8194  2.8045
  277MOL0     H37383   8.997   1.575   7.187 -0.1747  1.0103  1.6089
  277MOL0     H37384   9.051   1.411   7.185  2.6064 -0.6311  0.5006
  277MOL0     H37385   9.202   1.632   7.041 -2.0061  0.6451 -1.4841
  277MOL0     H37386   9.053   1.590   6.965 -0.4013 -0.9826  1.1677
  277MOL0     H37387   9.175   1.342   6.991 -2.8294 -1.0971 -3.1759
  277MOL0     H37388   9.318   1.465   6.971 -0.4881  2.2365 -3.9335
  277MOL0     H37389   9.204   1.339   6.767 -1.1487 -0.5427  1.6318
  277MOL0     H37390   9.074   1.446   6.796 -0.3992 -1.8102 -0.6130
  277MOL0     H37391   9.360   1.705   6.621  0.2826  0.5939  0.1484
  277MOL0     H37392   9.356   1.559   7.459  0.3806  1.8432 -0.0199
  277MOL0     H37393   9.358   1.517   7.775  1.1171  1.1191 -0.8836
  277MOL0     H37394   9.427   1.647   7.669  0.2148  0.6695 -0.5195
  277MOL0     H37395   9.306   1.682   7.791 -0.0806  1.7938 -0.2415
  278MOL0     O37396  10.334  11.484   7.309  0.1893 -0.1396  0.0402
  278MOL0     C37397  10.262  11.520   7.214  0.0961  0.4047 -0.8685
  278MOL0     O37398  10.208  11.440   7.121 -0.1084 -0.7731  0.2302
  278MOL0     C37399  10.249  11.306   7.118  0.3455  0.2632 -0.8287
  278MOL0     C37400  10.164  11.204   7.175  0.1768  0.3788  0.1038
  278MOL0     C37401  10.204  11.067   7.162  0.1800  0.2139 -0.6664
  278MOL0     C37402  10.317  11.028   7.107 -0.2564  1.7380 -1.0128
  278MOL0     O37403  10.353  10.893   7.098  0.3785 -0.0111 -0.2775
  278MOL0     C37404  10.420  10.844   6.977  0.3076  0.6290  1.0091
  278MOL0     C37405  10.570  10.823   6.995  0.3929 -0.9678  0.9512
  278MOL0     C37406  10.632  10.788   6.860  0.2213 -0.4253  0.2241
  278MOL0     C37407  10.780  10.813   6.880  0.0185 -0.8838  0.5236
  278MOL0     C37408  10.869  10.786   6.750  0.6836 -0.8512  0.0763
  278MOL0     C37409  11.008  10.725   6.773  0.3592 -0.3131 -1.0144
  278MOL0     C37410  11.089  10.673   6.655 -1.0277 -0.2042  0.5689
  278MOL0     C37411  11.132  10.798   6.581  0.1127 -0.2529  0.1871
  278MOL0     N37412  11.209  10.762   6.463  0.3811 -0.0781  0.8018
  278MOL0     C37413  11.162  10.722   6.344  0.8466 -0.0908  1.1494
  278MOL0     C37414  11.269  10.685   6.273  0.1834 -0.2786  0.2775
  278MOL0     C37415  11.250  10.633   6.137  1.0971 -0.2803  0.5528
  278MOL0     C37416  11.207  10.740   6.035 -0.7485  0.2002 -0.6377
  278MOL0     C37417  11.305  10.854   6.014  1.0284 -0.7027  0.0773
  278MOL0     C37418  11.455  10.821   6.010  0.1352  0.6531  0.4070
  278MOL0     O37419  11.474  10.726   5.900 -0.2558  0.0365  0.3433
  278MOL0     C37420  11.599  10.672   5.906  0.5769 -0.2175 -0.5259
  278MOL0     C37421  11.625  10.575   5.811 -0.0056 -0.0713  0.5057
  278MOL0     C37422  11.752  10.509   5.793  0.5657 -0.1185  0.2808
  278MOL0     C37423  11.855  10.531   5.882  0.8633  0.1447 -0.4918
  278MOL0     C37424  11.983  10.468   5.857 -0.7939  0.3307 -0.3683
  278MOL0     O37425  11.996  10.353   5.781  0.8185 -0.7266  0.3495
  278MOL0     C37426  12.099  10.261   5.798 -0.4179  0.0206  0.2031
  278MOL0     C37427  12.151  10.191   5.689  0.8055  0.0080 -0.2031
  278MOL0     C37428  12.244  10.088   5.705  0.3004 -0.4054 -0.8441
  278MOL0     C37429  12.291  10.044   5.834 -0.5838  0.0226  1.2418
  278MOL0     O37430  12.378   9.941   5.812 -0.0494  0.0016 -0.4291
  278MOL0     C37431  12.408   9.864   5.934  0.4171  0.2108  0.3385
  278MOL0     C37432  12.528   9.768   5.901 -0.2739  0.3285 -0.5653
  278MOL0     C37433  12.637   9.831   5.820  0.1351  0.1228  0.2087
  278MOL0     C37434  12.639   9.800   5.663  0.0633  0.3121  0.0654
  278MOL0     C37435  12.782   9.816   5.608  0.3058 -0.7037  0.3230
  278MOL0     C37436  12.784   9.786   5.459  0.2554 -0.9193 -0.3655
  278MOL0     C37437  12.920   9.725   5.436  0.2573  0.3140  0.8803
  278MOL0     C37438  12.935   9.717   5.276 -0.1448  0.5414  0.2922
  278MOL0    Cl37439  12.912   9.884   5.189 -0.3878  0.6579 -0.3582
  278MOL0     C37440  12.239  10.119   5.943  0.9586  0.8181  0.5041
  278MOL0     C37441  12.152  10.225   5.921  0.8793  0.1371 -0.2248
  278MOL0     O37442  12.082  10.528   5.897 -0.2593 -0.2449  0.4945
  278MOL0     C37443  11.826  10.625   5.987 -0.7318  0.7417  0.2877
  278MOL0     C37444  11.704  10.689   6.000 -0.9357  0.4522  0.9857
  278MOL0     N37445  11.379  10.717   6.338  0.2358 -0.0472 -0.7373
  278MOL0     N37446  11.338  10.751   6.458 -0.2206  0.3879 -1.4061
  278MOL0     C37447  10.406  11.134   7.065 -0.2693  0.2273 -0.4518
  278MOL0     C37448  10.373  11.269   7.077  0.5665 -0.0828  0.1252
  278MOL0     C37449  10.211  11.659   7.205 -0.4213  0.0959  0.4086
  278MOL0     C37450  10.115  11.703   7.108  0.2389 -0.1459 -0.1541
  278MOL0     C37451  10.060  11.837   7.106 -1.0907 -0.0194 -0.5405
  278MOL0     C37452  10.112  11.934   7.196  0.2082 -0.0258 -0.2209
  278MOL0     O37453  10.062  12.057   7.172 -0.0707  0.1474  0.7347
  278MOL0     C37454  10.168  12.157   7.165  0.1962  0.8857 -0.5465
  278MOL0     C37455  10.125  12.291   7.091 -0.1265 -0.1596  0.0093
  278MOL0     C37456  10.068  12.394   7.188  0.5909 -0.7813 -0.6060
  278MOL0     C37457  10.046  12.537   7.117 -0.5906  0.2490  0.4046
  278MOL0     C37458  10.163  12.623   7.133 -0.2820  0.0693 -0.2599
  278MOL0     C37459  10.244  12.700   7.166  0.0023 -0.0775  0.7616
  278MOL0     C37460  10.225  11.905   7.271 -0.3615 -0.9807  1.0974
  278MOL0     C37461  10.272  11.772   7.282 -0.0510  0.4804 -0.4056
  278MOL0     C37462  10.382  11.758   7.385  0.2247  0.0820  0.5538
  278MOL0     H37463  10.067  11.218   7.222 -0.4382 -0.7552 -0.7577
  278MOL0     H37464  10.128  11.000   7.203 -2.1157  2.3460 -1.2213
  278MOL0     H37465  10.383  10.745   6.949 -0.4523  1.8237 -2.6904
  278MOL0     H37466  10.400  10.909   6.891  1.0361 -1.5239 -0.8944
  278MOL0     H37467  10.587  10.740   7.063 -3.4888 -2.1663  0.7266
  278MOL0     H37468  10.615  10.917   7.029 -1.7780  0.5034  0.0566
  278MOL0     H37469  10.602  10.863   6.787 -0.4976 -1.5643 -0.6987
  278MOL0     H37470  10.612  10.685   6.826 -1.1874 -0.7629  1.9684
  278MOL0     H37471  10.804  10.915   6.912 -1.0278 -0.9962  1.7561
  278MOL0     H37472  10.806  10.752   6.967  0.1874 -0.3802  0.8335
  278MOL0     H37473  10.817  10.714   6.686  2.4124 -1.8515 -0.2510
  278MOL0     H37474  10.878  10.886   6.708  1.2753  0.1118  2.3250
  278MOL0     H37475  11.069  10.800   6.824 -1.2300  0.4746 -0.1945
  278MOL0     H37476  11.002  10.656   6.859 -0.3698  2.5596  1.4002
  278MOL0     H37477  11.028  10.609   6.591  0.8365 -0.8541 -0.6482
  278MOL0     H37478  11.167  10.614   6.704 -1.7695 -0.5942  1.2992
  278MOL0     H37479  11.046  10.859   6.551  0.5518 -0.3326 -1.3176
  278MOL0     H37480  11.201  10.859   6.640  0.9264  1.5669 -2.5048
  278MOL0     H37481  11.059  10.700   6.320  0.3508 -1.0107  3.7792
  278MOL0     H37482  11.337  10.580   6.098 -0.6953 -1.7065 -1.8021
  278MOL0     H37483  11.174  10.554   6.143  2.9659 -2.2709 -0.4691
  278MOL0     H37484  11.192  10.688   5.940 -0.6760 -0.5443 -0.2544
  278MOL0     H37485  11.111  10.780   6.069  0.5913  1.0445  2.5065
  278MOL0     H37486  11.286  10.927   6.094 -0.9841 -0.4201 -0.5942
  278MOL0     H37487  11.266  10.897   5.921  1.0695 -1.3053 -0.2203
  278MOL0     H37488  11.479  10.773   6.105 -0.7031 -4.4257 -1.6348
  278MOL0     H37489  11.507  10.914   5.987 -2.3210  2.7161  2.5708
  278MOL0     H37490  11.540  10.559   5.746 -0.5092 -2.1283  1.5566
  278MOL0     H37491  11.768  10.442   5.710 -2.8194  1.8615 -2.2340
  278MOL0     H37492  12.126  10.211   5.585 -1.4825  1.1049  0.4859
  278MOL0     H37493  12.285  10.049   5.612 -2.4379 -3.1215 -1.1124
  278MOL0     H37494  12.432   9.932   6.017  0.0275  1.5090 -0.5764
  278MOL0     H37495  12.318   9.806   5.957 -0.0245  0.5399 -0.5264
  278MOL0     H37496  12.568   9.722   5.992 -1.7614 -0.8153 -0.4354
  278MOL0     H37497  12.489   9.679   5.851  0.1046 -1.0605  1.4658
  278MOL0     H37498  12.639   9.941   5.820  3.3075  0.2183 -2.7364
  278MOL0     H37499  12.731   9.796   5.863 -0.2501 -2.2713 -0.7500
  278MOL0     H37500  12.573   9.865   5.605 -0.9045 -1.3302 -0.7348
  278MOL0     H37501  12.604   9.700   5.637  0.6683  0.1505 -0.1255
  278MOL0     H37502  12.840   9.738   5.658  1.0067  0.4645  1.3759
  278MOL0     H37503  12.820   9.919   5.614 -2.8286  0.5305  1.0713
  278MOL0     H37504  12.711   9.706   5.441 -1.1760  0.7232 -2.3214
  278MOL0     H37505  12.758   9.874   5.400 -0.1069  0.7885  2.1749
  278MOL0     H37506  12.929   9.623   5.475  0.8770 -0.1322 -0.3731
  278MOL0     H37507  12.999   9.787   5.479  0.3250  1.2880 -0.5753
  278MOL0     H37508  13.036   9.684   5.251  0.5489  1.1920  2.0136
  278MOL0     H37509  12.862   9.647   5.234  1.9112 -0.0246 -2.6128
  278MOL0     H37510  12.271  10.082   6.040  2.5214  0.5855 -0.0641
  278MOL0     H37511  12.090  10.269   5.999 -2.6845 -3.5409 -0.6218
  278MOL0     H37512  11.902  10.645   6.061 -1.7816 -2.2334  2.3842
  278MOL0     H37513  11.693  10.773   6.067  0.0251  0.8461  0.6641
  278MOL0     H37514  10.507  11.129   7.027  0.0209  1.8181  0.0318
  278MOL0     H37515  10.446  11.344   7.049  0.5751 -0.6048 -1.3328
  278MOL0     H37516  10.065  11.628   7.046  0.3329  0.8431 -1.4578
  278MOL0     H37517   9.973  11.870   7.049 -2.4102  0.1225  1.4486
  278MOL0     H37518  10.251  12.110   7.112  0.3653 -0.2858  0.7047
  278MOL0     H37519  10.199  12.180   7.267 -1.4251  3.5101 -0.5470
  278MOL0     H37520  10.047  12.261   7.021  0.2563 -2.7560  0.6025
  278MOL0     H37521  10.210  12.321   7.029  0.2272 -3.9218 -1.5660
  278MOL0     H37522  10.139  12.399   7.271  0.0798  1.2489 -0.2242
  278MOL0     H37523   9.970  12.366   7.226  0.5200  1.4822  1.1095
  278MOL0     H37524  10.033  12.536   7.008  1.1165  2.4833  0.1055
  278MOL0     H37525   9.959  12.592   7.154  0.0639  1.4248  0.2412
  278MOL0     H37526  10.335  12.753   7.187  1.6412 -1.6729 -1.7404
  278MOL0     H37527  10.271  11.976   7.339  0.3081 -0.0606 -0.2729
  278MOL0     H37528  10.413  11.855   7.424  1.9999  0.9821 -2.6532
  278MOL0     H37529  10.348  11.693   7.466  0.4192  1.9036  2.1510
  278MOL0     H37530  10.468  11.711   7.335 -2.2759 -2.8463 -1.3946
  279MOL0     O37531   3.997   8.415   4.560  0.1243 -0.2300  0.1569
  279MOL0     C37532   3.953   8.408   4.675 -0.1088 -0.3549  0.8012
  279MOL0     O37533   3.838   8.350   4.708  0.0691  0.6512  0.0872
  279MOL0     C37534   3.797   8.230   4.647  0.3928  0.7831 -0.0722
  279MOL0     C37535   3.682   8.189   4.707  0.2899  0.1978  0.0566
  279MOL0     C37536   3.605   8.080   4.658 -0.2379 -0.2604 -0.9923
  279MOL0     C37537   3.651   7.997   4.553 -0.3010  0.3261 -0.9351
  279MOL0     O37538   3.574   7.894   4.512 -0.0207 -0.5850  0.1323
  279MOL0     C37539   3.619   7.773   4.529  0.5898 -0.2948 -0.6445
  279MOL0     C37540   3.735   7.721   4.432 -0.8302 -0.1675 -0.7890
  279MOL0     C37541   3.797   7.584   4.473  0.4617 -0.3152 -0.6204
  279MOL0     C37542   3.703   7.459   4.484 -0.3592 -0.6118  0.1047
  279MOL0     C37543   3.673   7.410   4.342  0.4454  0.7010 -0.2047
  279MOL0     C37544   3.580   7.284   4.357  0.2229  0.7758 -0.1121
  279MOL0     C37545   3.528   7.253   4.212 -0.4592  0.2752 -0.1814
  279MOL0     C37546   3.456   7.121   4.190 -0.5668 -0.3013 -0.2861
  279MOL0     N37547   3.327   7.128   4.257 -0.0807 -0.1804  0.5166
  279MOL0     C37548   3.302   7.081   4.380  0.5459 -0.4579 -0.0584
  279MOL0     C37549   3.187   7.146   4.419  0.5515 -0.1562  0.1236
  279MOL0     C37550   3.131   7.158   4.555  0.1724 -0.9413 -0.4994
  279MOL0     C37551   3.228   7.247   4.645 -0.0512  0.3670  0.2696
  279MOL0     C37552   3.167   7.261   4.788 -0.4084 -0.4037 -0.0999
  279MOL0     C37553   3.268   7.294   4.893 -0.0840 -0.9200 -0.4457
  279MOL0     O37554   3.250   7.213   5.015 -0.2312 -0.0744 -0.0518
  279MOL0     C37555   3.333   7.227   5.127  0.6917  0.1614  0.8128
  279MOL0     C37556   3.289   7.155   5.236 -0.1566  0.3700 -0.5682
  279MOL0     C37557   3.355   7.169   5.361 -0.8918 -1.1844 -1.3771
  279MOL0     C37558   3.465   7.248   5.376  0.6273 -0.9920  0.9131
  279MOL0     C37559   3.555   7.242   5.495  0.7699 -0.6151 -0.7131
  279MOL0     O37560   3.667   7.300   5.496 -0.3552  0.3242  0.1727
  279MOL0     C37561   3.734   7.326   5.612 -0.9660  1.0495 -0.0314
  279MOL0     C37562   3.864   7.281   5.635 -0.3273 -0.7188 -0.5169
  279MOL0     C37563   3.929   7.316   5.753 -0.3968 -0.0677  0.9907
  279MOL0     C37564   3.873   7.406   5.844  0.6503  0.3821 -0.7251
  279MOL0     O37565   3.962   7.441   5.947  1.0813 -1.0403  0.5566
  279MOL0     C37566   3.958   7.578   5.999  0.5959 -1.5133  0.7279
  279MOL0     C37567   4.052   7.600   6.116  0.3487  0.7129 -0.5157
  279MOL0     C37568   4.003   7.538   6.251 -0.9451 -0.5731  0.2674
  279MOL0     C37569   3.956   7.396   6.236 -0.4887 -0.1982 -0.9166
  279MOL0     C37570   3.951   7.323   6.369 -0.3336  0.4185  0.2194
  279MOL0     C37571   3.958   7.172   6.352  0.3737  0.1605 -0.2294
  279MOL0     C37572   3.967   7.076   6.474  0.8016 -0.1856  0.3149
  279MOL0     C37573   4.106   7.054   6.531 -0.8416 -0.8462  0.0023
  279MOL0    Cl37574   4.224   6.985   6.406 -0.0423 -0.1585  0.4630
  279MOL0     C37575   3.736   7.460   5.817  0.5304  0.0832  0.1002
  279MOL0     C37576   3.673   7.411   5.699 -0.5947  0.2306 -0.5708
  279MOL0     O37577   3.511   7.179   5.594 -0.1133 -1.1367 -0.0080
  279MOL0     C37578   3.503   7.321   5.260 -0.3661 -0.6257  0.1093
  279MOL0     C37579   3.441   7.312   5.142  0.1948 -0.1904  0.7914
  279MOL0     N37580   3.147   7.212   4.306  0.9578  1.4338 -0.2147
  279MOL0     N37581   3.229   7.206   4.213  0.2241  0.8800  0.2039
  279MOL0     C37582   3.776   8.045   4.500  0.3203  0.9129 -1.0933
  279MOL0     C37583   3.840   8.163   4.539  0.3098  0.3415  0.7053
  279MOL0     C37584   4.023   8.501   4.774 -0.1443 -0.5483  1.2686
  279MOL0     C37585   3.942   8.551   4.880 -0.2882  0.7417  0.0202
  279MOL0     C37586   3.977   8.648   4.976  0.2652  0.1955  0.1921
  279MOL0     C37587   4.104   8.701   4.974 -1.0225 -0.3846  0.1799
  279MOL0     O37588   4.144   8.791   5.070 -0.8677 -0.1697 -0.9416
  279MOL0     C37589   4.164   8.736   5.198  0.3466 -0.0340  0.2241
  279MOL0     C37590   4.174   8.845   5.303  0.2828  0.1240 -0.2232
  279MOL0     C37591   4.054   8.932   5.311  0.0589 -0.3447  0.1411
  279MOL0     C37592   4.054   9.044   5.419  0.0853 -0.3948 -0.6765
  279MOL0     C37593   4.034   8.977   5.549 -0.5959 -0.0725 -0.7901
  279MOL0     C37594   3.996   8.933   5.651 -0.0621 -0.4507  0.4915
  279MOL0     C37595   4.192   8.646   4.884  0.3697 -1.1733 -0.0099
  279MOL0     C37596   4.160   8.552   4.787  0.1188  1.4487  0.8967
  279MOL0     C37597   4.273   8.498   4.700  0.1540 -0.4998 -1.1907
  279MOL0     H37598   3.637   8.260   4.776  1.8767  1.3227  0.0074
  279MOL0     H37599   3.505   8.058   4.693 -1.5780  2.5868 -2.6532
  279MOL0     H37600   3.644   7.770   4.636  2.2019  2.0861 -0.8852
  279MOL0     H37601   3.537   7.701   4.522  2.0548 -1.9043 -2.2355
  279MOL0     H37602   3.828   7.779   4.439  2.0949 -4.5359  3.2005
  279MOL0     H37603   3.697   7.717   4.330  1.7338  0.2434 -1.8473
  279MOL0     H37604   3.849   7.597   4.568  1.5471 -0.6594 -1.1481
  279MOL0     H37605   3.875   7.565   4.399  0.7964 -0.4976 -0.2301
  279MOL0     H37606   3.758   7.386   4.544 -0.8196  0.9479  2.5647
  279MOL0     H37607   3.611   7.473   4.541 -1.4102 -4.3285 -0.3979
  279MOL0     H37608   3.616   7.489   4.291 -2.0562  0.2379  1.6333
  279MOL0     H37609   3.764   7.386   4.287 -0.7652 -1.2328 -1.4714
  279MOL0     H37610   3.626   7.193   4.397 -0.1080 -1.0427 -3.5002
  279MOL0     H37611   3.499   7.305   4.427  2.4174  4.9849  1.5365
  279MOL0     H37612   3.611   7.250   4.141 -1.1412  1.4374 -1.0674
  279MOL0     H37613   3.455   7.331   4.188 -0.2100  0.8238  0.8000
  279MOL0     H37614   3.445   7.111   4.082 -1.0136 -2.8229 -0.0790
  279MOL0     H37615   3.504   7.030   4.227 -0.4911 -0.6853 -1.3212
  279MOL0     H37616   3.385   7.043   4.438  0.5600  0.9803  0.9014
  279MOL0     H37617   3.038   7.215   4.561  1.3022  0.7878  2.0812
  279MOL0     H37618   3.127   7.055   4.593  1.5145 -1.1633 -0.9263
  279MOL0     H37619   3.314   7.180   4.637 -2.6641 -3.2002 -0.2444
  279MOL0     H37620   3.240   7.340   4.587 -0.5471 -0.7627 -1.7364
  279MOL0     H37621   3.122   7.163   4.808  1.6332 -1.2541  0.6040
  279MOL0     H37622   3.091   7.339   4.793 -0.3649 -0.2336 -1.5590
  279MOL0     H37623   3.245   7.398   4.918  1.4558 -1.1456  2.2478
  279MOL0     H37624   3.370   7.291   4.855  0.2901  1.3432  0.2279
  279MOL0     H37625   3.212   7.081   5.219  1.1004 -1.6234  1.7703
  279MOL0     H37626   3.320   7.106   5.442  0.8382 -0.8925 -0.3436
  279MOL0     H37627   3.915   7.221   5.559 -0.9979 -2.6357  0.4819
  279MOL0     H37628   4.030   7.277   5.766  0.2470  2.0652  3.2434
  279MOL0     H37629   3.981   7.647   5.918 -1.2262 -0.9031  0.6734
  279MOL0     H37630   3.853   7.603   6.021  0.7370 -0.7726  0.5831
  279MOL0     H37631   4.152   7.563   6.092 -0.1932 -0.5557 -0.8958
  279MOL0     H37632   4.065   7.706   6.141 -3.0156  1.3068 -0.7325
  279MOL0     H37633   4.097   7.537   6.307 -0.7401  1.2970  0.0246
  279MOL0     H37634   3.926   7.597   6.302  0.9813  1.1692  1.3081
  279MOL0     H37635   4.025   7.349   6.165  0.6505  1.5986 -1.0396
  279MOL0     H37636   3.856   7.393   6.192  0.0638  2.8880 -2.6484
  279MOL0     H37637   3.863   7.353   6.426 -0.1388  0.9913  0.2254
  279MOL0     H37638   4.043   7.358   6.416 -0.0049  1.1963 -0.9673
  279MOL0     H37639   3.858   7.150   6.313  1.2943 -1.7864 -1.6559
  279MOL0     H37640   4.031   7.139   6.278 -2.6594 -3.6933 -1.8820
  279MOL0     H37641   3.939   6.973   6.453  1.1267 -0.0793 -0.7126
  279MOL0     H37642   3.897   7.108   6.552  0.5926 -0.5198  0.2675
  279MOL0     H37643   4.142   7.153   6.561 -1.7804 -0.5879  0.3083
  279MOL0     H37644   4.111   6.981   6.612 -0.5970  0.0594  0.8355
  279MOL0     H37645   3.691   7.531   5.886  1.2156 -0.1933  0.8475
  279MOL0     H37646   3.571   7.438   5.674 -1.0815  0.6276  1.6475
  279MOL0     H37647   3.598   7.375   5.257 -0.2195 -0.9303 -2.0847
  279MOL0     H37648   3.476   7.365   5.054  1.9661 -1.6874  0.5188
  279MOL0     H37649   3.823   7.977   4.429  0.6020  1.2897 -1.2685
  279MOL0     H37650   3.939   8.174   4.495 -1.2773  1.2519 -2.9776
  279MOL0     H37651   3.841   8.512   4.879 -0.2361  0.4217 -3.1951
  279MOL0     H37652   3.904   8.678   5.051 -0.4790  0.8662 -0.7703
  279MOL0     H37653   4.256   8.677   5.195 -1.2581 -2.8737  2.1422
  279MOL0     H37654   4.081   8.672   5.229 -0.9011  1.3545 -0.1695
  279MOL0     H37655   4.264   8.904   5.288 -0.0546  1.1124  1.3989
  279MOL0     H37656   4.176   8.790   5.398  2.1456 -2.2520 -1.5452
  279MOL0     H37657   3.965   8.873   5.332  0.1519 -0.2558  0.8078
  279MOL0     H37658   4.050   8.993   5.220  6.0235  0.2276 -0.1431
  279MOL0     H37659   4.142   9.110   5.414 -0.7843  0.8425 -0.0513
  279MOL0     H37660   3.976   9.116   5.394  2.5147  1.6754 -2.9981
  279MOL0     H37661   3.964   8.874   5.735 -2.3846  2.2765  1.6851
  279MOL0     H37662   4.297   8.675   4.880 -0.7358  4.0898  1.4975
  279MOL0     H37663   4.359   8.458   4.755 -0.6554 -2.3786 -1.2292
  279MOL0     H37664   4.240   8.421   4.631 -2.2128 -0.0328 -0.6588
  279MOL0     H37665   4.315   8.580   4.640 -1.9913  1.9508  0.4211
  280MOL0     O37666  11.416   2.176   3.061  0.0555  0.4370 -0.2934
  280MOL0     C37667  11.328   2.090   3.047 -0.3333 -0.7160  0.7350
  280MOL0     O37668  11.306   2.020   2.928 -0.5200  0.5506  0.1611
  280MOL0     C37669  11.410   2.024   2.832 -0.5135 -0.5436  0.4543
  280MOL0     C37670  11.548   1.993   2.865 -0.3614  0.3827  0.7449
  280MOL0     C37671  11.648   1.992   2.768 -0.4778 -0.1778 -0.6231
  280MOL0     C37672  11.621   2.036   2.639  0.6912 -0.5265  0.2821
  280MOL0     O37673  11.719   2.035   2.533  0.4614  0.6116  0.3211
  280MOL0     C37674  11.853   2.081   2.564  0.4024  0.3285 -0.0863
  280MOL0     C37675  11.945   2.098   2.442  0.3199  0.1313  0.1275
  280MOL0     C37676  12.089   2.102   2.506  0.0947  0.3838  0.2291
  280MOL0     C37677  12.189   2.132   2.394 -1.0017  0.0129  0.0831
  280MOL0     C37678  12.331   2.138   2.451  0.4870  0.2911 -0.3994
  280MOL0     C37679  12.420   2.201   2.352  0.1792  1.1193  0.2528
  280MOL0     C37680  12.546   2.235   2.433 -1.3833 -0.1620 -0.4440
  280MOL0     C37681  12.653   2.294   2.340  0.4941 -0.2500  0.5776
  280MOL0     N37682  12.781   2.302   2.407 -0.0278 -0.1044 -0.1102
  280MOL0     C37683  12.807   2.355   2.529  0.2836  0.2789 -0.1265
  280MOL0     C37684  12.932   2.325   2.570  0.9768 -1.1755  0.1267
  280MOL0     C37685  12.990   2.385   2.698  0.1423 -0.0673 -1.4931
  280MOL0     C37686  13.079   2.500   2.639 -0.4220 -0.3645  0.0782
  280MOL0     C37687  13.121   2.589   2.751 -0.2347 -0.1023 -0.0239
  280MOL0     C37688  13.172   2.731   2.714 -0.0697 -0.3579 -0.4122
  280MOL0     O37689  13.308   2.708   2.654  0.3692 -1.4401  0.0772
  280MOL0     C37690  13.352   2.808   2.567  0.2002  0.1662 -0.2644
  280MOL0     C37691  13.295   2.937   2.547  0.4158  0.3312 -0.5923
  280MOL0     C37692  13.347   3.016   2.437  0.1614 -0.0931 -0.8227
  280MOL0     C37693  13.457   2.978   2.358  0.8570 -0.4872  1.0739
  280MOL0     C37694  13.501   3.064   2.245  0.1151  0.1063  1.6599
  280MOL0     O37695  13.592   2.994   2.168  0.1096 -0.8227  0.7580
  280MOL0     C37696  13.658   3.049   2.067 -0.9954 -0.0808  0.5378
  280MOL0     C37697  13.587   3.107   1.960  0.1574 -0.1450  0.3709
  280MOL0     C37698  13.641   3.189   1.856  0.1113 -0.4181 -0.9833
  280MOL0     C37699  13.784   3.187   1.839  0.0503 -0.5641  0.1342
  280MOL0     O37700  13.839   3.246   1.727 -0.0835  0.1415  0.0901
  280MOL0     C37701  13.980   3.263   1.722 -0.3284  0.0258 -0.3578
  280MOL0     C37702  14.034   3.329   1.595  0.1213  0.7608  0.1087
  280MOL0     C37703  13.987   3.245   1.466  0.9244  0.4181  0.2366
  280MOL0     C37704  14.066   3.289   1.343  0.0644  0.6445 -0.1698
  280MOL0     C37705  14.012   3.227   1.219 -0.1366  0.1906  0.2249
  280MOL0     C37706  14.090   3.273   1.093 -0.4074  1.1338 -0.8372
  280MOL0     C37707  14.093   3.421   1.051 -1.0091  0.5328  0.5197
  280MOL0     C37708  14.135   3.450   0.904 -0.1536  0.4964 -0.1288
  280MOL0    Cl37709  14.310   3.421   0.884  0.1970  0.1062 -0.7621
  280MOL0     C37710  13.859   3.122   1.940  0.1465 -0.4312  0.1169
  280MOL0     C37711  13.802   3.048   2.043  1.1436  0.7380 -0.6618
  280MOL0     O37712  13.465   3.178   2.226 -0.0205  0.3009 -0.0405
  280MOL0     C37713  13.508   2.857   2.389  0.7630  0.6407 -0.4512
  280MOL0     C37714  13.456   2.776   2.489 -0.6108 -0.4611 -0.9533
  280MOL0     N37715  12.982   2.253   2.470 -0.0674 -0.2299  0.6488
  280MOL0     N37716  12.893   2.232   2.372 -0.1608 -0.1269  0.0535
  280MOL0     C37717  11.490   2.069   2.602  0.7520  0.4065  0.0528
  280MOL0     C37718  11.384   2.055   2.699 -0.1490 -0.3410 -0.2197
  280MOL0     C37719  11.229   2.077   3.155 -1.2417 -0.1418 -0.5987
  280MOL0     C37720  11.101   2.064   3.116 -0.0859  0.0030  0.4772
  280MOL0     C37721  11.003   2.061   3.212  0.6043  0.2052 -0.1886
  280MOL0     C37722  11.025   2.069   3.344  0.7007 -0.0992 -0.0110
  280MOL0     O37723  10.905   2.077   3.416 -0.4864  0.6583  0.1554
  280MOL0     C37724  10.920   2.084   3.556  0.1815 -0.1369  0.1754
  280MOL0     C37725  10.788   2.087   3.635 -0.4010  0.2764 -0.2717
  280MOL0     C37726  10.713   1.959   3.613  0.1146 -1.1018 -0.1968
  280MOL0     C37727  10.618   1.979   3.501  0.2571  0.0267  0.1860
  280MOL0     C37728  10.522   1.876   3.489 -0.0331  0.1800 -0.2587
  280MOL0     C37729  10.452   1.783   3.490  0.0446 -0.4780  0.6216
  280MOL0     C37730  11.155   2.078   3.382 -0.2836  0.8005 -0.8357
  280MOL0     C37731  11.264   2.082   3.298  0.0403 -0.2647  0.7802
  280MOL0     C37732  11.407   2.086   3.353 -0.7401 -0.1456  0.2543
  280MOL0     H37733  11.574   1.977   2.970 -0.5575  2.2697  1.1190
  280MOL0     H37734  11.747   1.966   2.804 -0.9249  0.2116  0.9424
  280MOL0     H37735  11.840   2.172   2.623 -0.5431  1.7082 -2.2907
  280MOL0     H37736  11.908   2.015   2.631  1.4412  1.5743  0.3403
  280MOL0     H37737  11.919   2.191   2.389  0.7403  0.1648 -0.0275
  280MOL0     H37738  11.931   2.014   2.374 -1.1048  0.3279  0.1373
  280MOL0     H37739  12.113   2.002   2.543 -4.5120 -1.0497 -0.1176
  280MOL0     H37740  12.102   2.169   2.592  3.8901 -0.5399  0.5500
  280MOL0     H37741  12.174   2.065   2.308 -3.5243  0.8533 -0.2076
  280MOL0     H37742  12.154   2.232   2.369 -2.5244  0.0473  2.1068
  280MOL0     H37743  12.341   2.201   2.539  2.8673 -2.0112  1.1469
  280MOL0     H37744  12.366   2.035   2.468  2.4364  0.9269 -0.3642
  280MOL0     H37745  12.433   2.127   2.272 -3.6180  4.1756 -3.7204
  280MOL0     H37746  12.364   2.283   2.306 -4.6503 -1.2580  1.2035
  280MOL0     H37747  12.579   2.138   2.469 -2.4406 -0.4895 -0.3440
  280MOL0     H37748  12.532   2.306   2.515 -0.7474  1.3506 -1.5774
  280MOL0     H37749  12.662   2.242   2.244  2.8789 -0.8656  1.0717
  280MOL0     H37750  12.634   2.400   2.320 -1.7401 -0.7948 -0.4495
  280MOL0     H37751  12.752   2.441   2.566  1.1923  1.4441 -1.3491
  280MOL0     H37752  12.909   2.418   2.765  0.3897 -1.3185 -0.5526
  280MOL0     H37753  13.063   2.320   2.745  1.6098  1.5333 -1.4640
  280MOL0     H37754  13.170   2.475   2.584  0.0533  2.0735 -0.3493
  280MOL0     H37755  13.018   2.562   2.573 -0.9563 -1.2473 -0.2749
  280MOL0     H37756  13.205   2.557   2.814 -1.2920  2.6071  3.0002
  280MOL0     H37757  13.033   2.594   2.815  1.0018 -3.2347  2.2121
  280MOL0     H37758  13.178   2.796   2.801  0.5454  0.5826 -1.1394
  280MOL0     H37759  13.110   2.785   2.642 -0.6106  0.6806  0.8169
  280MOL0     H37760  13.214   2.977   2.608  0.3255  0.4841 -0.8094
  280MOL0     H37761  13.305   3.114   2.415 -0.5047 -0.2070 -0.1111
  280MOL0     H37762  13.478   3.109   1.963  0.1231 -1.2280  0.0732
  280MOL0     H37763  13.591   3.244   1.777 -1.3027 -1.7953 -1.0880
  280MOL0     H37764  14.013   3.319   1.809 -2.9631 -0.1717  0.8806
  280MOL0     H37765  14.029   3.165   1.726 -0.6356 -0.0959  2.4577
  280MOL0     H37766  13.994   3.431   1.587 -0.4928  0.6879  1.8282
  280MOL0     H37767  14.143   3.334   1.601  0.4458 -2.1471 -1.4836
  280MOL0     H37768  13.992   3.138   1.484  0.2898  0.3444  0.0011
  280MOL0     H37769  13.881   3.273   1.459  0.0453 -2.4082  0.8374
  280MOL0     H37770  14.172   3.266   1.359  0.1556  0.5771 -0.8595
  280MOL0     H37771  14.056   3.397   1.329 -0.5972  0.7540  1.0458
  280MOL0     H37772  13.907   3.249   1.200 -0.1233  3.7602  3.2168
  280MOL0     H37773  14.020   3.120   1.239 -1.2549  0.3277  1.4756
  280MOL0     H37774  14.194   3.238   1.089 -0.5692  0.6063 -0.6070
  280MOL0     H37775  14.055   3.216   1.006  0.3372  1.0230 -1.0710
  280MOL0     H37776  14.154   3.479   1.120 -1.9784  1.0166  0.9836
  280MOL0     H37777  13.990   3.451   1.070 -0.7137  3.5781 -1.9135
  280MOL0     H37778  14.074   3.391   0.836 -1.3353  0.3525  1.0069
  280MOL0     H37779  14.119   3.555   0.877 -0.3370 -0.1692 -2.8940
  280MOL0     H37780  13.967   3.125   1.928  0.0293  0.0941 -0.9862
  280MOL0     H37781  13.863   3.005   2.122  0.7743 -0.0016 -0.7725
  280MOL0     H37782  13.576   2.811   2.318  1.9583  0.6707  0.6476
  280MOL0     H37783  13.488   2.674   2.506 -0.0988  0.1123  1.9750
  280MOL0     H37784  11.462   2.092   2.500  0.4053  1.7279  0.4229
  280MOL0     H37785  11.280   2.068   2.672 -0.4637 -2.9098 -0.4966
  280MOL0     H37786  11.077   2.045   3.012  1.8286 -0.0369 -0.0074
  280MOL0     H37787  10.904   2.031   3.179  1.3685 -1.0813 -1.4044
  280MOL0     H37788  10.967   2.179   3.583  0.9681 -0.2083 -0.8937
  280MOL0     H37789  10.979   1.998   3.588  0.6191 -0.6846 -1.9590
  280MOL0     H37790  10.733   2.175   3.601 -1.5108 -0.4346 -0.3642
  280MOL0     H37791  10.816   2.093   3.740  0.9096  0.3770 -0.6139
  280MOL0     H37792  10.660   1.937   3.707 -2.8183 -1.3856 -1.7935
  280MOL0     H37793  10.773   1.872   3.587 -0.2241 -0.9825 -1.4592
  280MOL0     H37794  10.568   2.075   3.520  2.2548  1.4578 -1.3785
  280MOL0     H37795  10.660   1.985   3.400  5.5287 -0.1086  2.0811
  280MOL0     H37796  10.400   1.689   3.493 -0.3649 -0.2828 -0.2109
  280MOL0     H37797  11.177   2.089   3.488  0.2655 -0.5734 -0.7804
  280MOL0     H37798  11.466   1.996   3.334  1.7368  1.2467  0.8680
  280MOL0     H37799  11.458   2.168   3.301 -0.8094  0.5714  1.2779
  280MOL0     H37800  11.414   2.110   3.460  1.0055  0.2932  0.0814
  281MOL0     O37801   5.703   8.988   8.684 -0.2919  0.5509  0.5503
  281MOL0     C37802   5.692   8.866   8.689 -0.3954  1.0780 -0.1563
  281MOL0     O37803   5.698   8.793   8.576 -0.2657  0.2998 -0.2731
  281MOL0     C37804   5.786   8.825   8.477 -0.1896  0.1769 -0.4142
  281MOL0     C37805   5.738   8.823   8.346  0.2763 -0.1325  0.0859
  281MOL0     C37806   5.816   8.872   8.237  0.1209 -0.6700 -0.7600
  281MOL0     C37807   5.952   8.900   8.259  0.1273 -0.6916 -0.2513
  281MOL0     O37808   6.032   8.938   8.154  0.2154  0.2303 -0.5885
  281MOL0     C37809   6.174   8.925   8.153  0.3813 -0.4476 -0.2486
  281MOL0     C37810   6.216   8.957   8.014 -0.2955 -0.8730 -0.0005
  281MOL0     C37811   6.198   8.841   7.909 -1.1028  0.7923  0.1578
  281MOL0     C37812   6.063   8.845   7.838  1.0226 -0.2604  0.0579
  281MOL0     C37813   6.053   8.734   7.734 -1.0585  0.2196 -0.3224
  281MOL0     C37814   6.145   8.749   7.618 -0.5602 -0.2554 -0.7198
  281MOL0     C37815   6.095   8.666   7.510  0.0111  0.4042  0.0085
  281MOL0     C37816   6.218   8.614   7.421 -0.4271 -0.4660  0.1058
  281MOL0     N37817   6.285   8.730   7.355 -0.2526  0.3357 -0.6587
  281MOL0     C37818   6.220   8.816   7.269  0.0663 -0.2987  0.5744
  281MOL0     C37819   6.310   8.913   7.223  0.0865  0.4308 -0.5764
  281MOL0     C37820   6.294   9.013   7.126 -0.6843 -0.2334  0.7751
  281MOL0     C37821   6.373   8.979   7.004 -0.5041  0.1346  0.4428
  281MOL0     C37822   6.326   8.849   6.943  0.4460  0.8562 -0.7748
  281MOL0     C37823   6.406   8.823   6.821  0.4828  0.2654 -0.3739
  281MOL0     O37824   6.355   8.715   6.746 -1.2381  0.1776 -0.5822
  281MOL0     C37825   6.411   8.598   6.783 -0.5489 -0.0594 -0.2864
  281MOL0     C37826   6.399   8.534   6.911 -0.6699  0.0641  0.0894
  281MOL0     C37827   6.471   8.421   6.944  0.4765 -1.0744 -0.5097
  281MOL0     C37828   6.550   8.354   6.856 -0.0856  0.0175 -0.1886
  281MOL0     C37829   6.636   8.244   6.899  0.7077  0.5356 -0.7318
  281MOL0     O37830   6.589   8.162   6.996  0.1562 -0.9071  0.5583
  281MOL0     C37831   6.639   8.039   6.994 -1.3913 -0.9887  0.2794
  281MOL0     C37832   6.681   7.983   7.118  0.3235  0.2549  0.6058
  281MOL0     C37833   6.731   7.851   7.127 -0.7927  0.5414  0.3807
  281MOL0     C37834   6.728   7.764   7.016 -0.4788 -0.2026 -0.6200
  281MOL0     O37835   6.757   7.624   7.012 -0.1475  0.6910  0.4420
  281MOL0     C37836   6.849   7.561   7.092 -1.5312 -0.4599 -0.4118
  281MOL0     C37837   6.989   7.599   7.041 -0.0656 -0.0987  0.0224
  281MOL0     C37838   7.018   7.562   6.892 -0.0498  0.0885  1.0856
  281MOL0     C37839   7.117   7.445   6.879 -0.8531 -0.7219 -0.3312
  281MOL0     C37840   7.171   7.438   6.733  0.4413 -0.7460 -0.0381
  281MOL0     C37841   7.301   7.353   6.733 -0.0220 -0.4269  0.1742
  281MOL0     C37842   7.330   7.287   6.604  0.6306 -0.4975 -0.2885
  281MOL0     C37843   7.359   7.381   6.490 -0.0105  0.2026  0.3144
  281MOL0    Cl37844   7.384   7.273   6.343 -0.2721 -0.0672 -0.5194
  281MOL0     C37845   6.694   7.818   6.893 -0.7917 -0.8596  0.0033
  281MOL0     C37846   6.641   7.952   6.882 -0.1554  0.0144 -0.5116
  281MOL0     O37847   6.736   8.238   6.838  0.4112  1.5168  1.1838
  281MOL0     C37848   6.573   8.426   6.731 -1.0693  0.4301 -0.0966
  281MOL0     C37849   6.502   8.538   6.695  0.6021 -0.4849 -0.0731
  281MOL0     N37850   6.424   8.891   7.302 -0.2841  0.3555 -0.0970
  281MOL0     N37851   6.405   8.787   7.383  0.5034  0.3242 -0.4705
  281MOL0     C37852   6.008   8.889   8.392 -0.0452  0.4094 -0.2944
  281MOL0     C37853   5.923   8.856   8.496  1.2891 -0.5179  0.6796
  281MOL0     C37854   5.658   8.810   8.820 -0.2579 -0.0247 -0.8823
  281MOL0     C37855   5.673   8.890   8.932  0.9849 -0.0632 -0.5893
  281MOL0     C37856   5.627   8.863   9.055  1.0252  0.4420 -0.1479
  281MOL0     C37857   5.580   8.738   9.082 -0.5843 -0.3984  0.4577
  281MOL0     O37858   5.545   8.706   9.212  0.1109 -0.2413  0.2792
  281MOL0     C37859   5.434   8.784   9.255  0.3883  0.0618  0.4107
  281MOL0     C37860   5.332   8.692   9.325 -0.6637  0.1842 -0.9200
  281MOL0     C37861   5.249   8.778   9.418  0.5084  0.1023  0.7881
  281MOL0     C37862   5.125   8.700   9.469 -0.1985  0.4562  0.1167
  281MOL0     C37863   5.050   8.618   9.380  0.5153  0.1163 -0.0855
  281MOL0     C37864   4.976   8.565   9.296 -0.3956 -0.1553  0.2240
  281MOL0     C37865   5.564   8.648   8.974 -1.0200  0.1425 -0.3318
  281MOL0     C37866   5.594   8.684   8.842 -0.0104  0.2505 -0.4383
  281MOL0     C37867   5.572   8.586   8.734  0.5100 -0.4432 -0.3735
  281MOL0     H37868   5.634   8.797   8.328 -0.1543  0.7852  1.1085
  281MOL0     H37869   5.761   8.889   8.145 -0.7600  0.8934  0.0210
  281MOL0     H37870   6.213   9.010   8.210  0.7908  0.1532 -1.3861
  281MOL0     H37871   6.209   8.833   8.200  1.5738 -0.7243 -1.6069
  281MOL0     H37872   6.321   8.988   8.021 -1.2314  2.4566  1.2062
  281MOL0     H37873   6.170   9.049   7.977 -0.0994 -0.7278  0.1113
  281MOL0     H37874   6.202   8.743   7.957  1.1608  0.8678  0.2146
  281MOL0     H37875   6.281   8.840   7.839 -1.5447 -0.8187 -0.3879
  281MOL0     H37876   5.990   8.842   7.920  0.9318 -2.6712 -0.0605
  281MOL0     H37877   6.048   8.937   7.781  1.6847 -0.0095  0.2695
  281MOL0     H37878   6.069   8.636   7.782 -2.6860  0.0434 -0.0702
  281MOL0     H37879   5.946   8.734   7.714 -2.1611  2.8166  4.0866
  281MOL0     H37880   6.149   8.849   7.573 -1.7316  0.5020  0.7727
  281MOL0     H37881   6.249   8.734   7.648 -0.9966  0.9338  1.5727
  281MOL0     H37882   6.017   8.713   7.449 -0.4707  1.4544  1.3703
  281MOL0     H37883   6.050   8.576   7.552  1.0519 -0.7075 -1.1708
  281MOL0     H37884   6.287   8.562   7.487  1.6853  1.9126 -0.0672
  281MOL0     H37885   6.184   8.553   7.337  2.6387 -5.0127  1.7851
  281MOL0     H37886   6.121   8.808   7.225  0.8200  1.3372 -1.6144
  281MOL0     H37887   6.186   9.024   7.110 -0.4668  0.2925 -0.5163
  281MOL0     H37888   6.340   9.107   7.158 -0.2016 -0.5324  0.9782
  281MOL0     H37889   6.374   9.061   6.932  1.4161  0.0589  0.3382
  281MOL0     H37890   6.475   8.969   7.042  0.0307 -0.1194 -0.9838
  281MOL0     H37891   6.223   8.866   6.908  0.9950  2.5031 -1.7332
  281MOL0     H37892   6.326   8.767   7.015  0.1278  2.4264  1.1243
  281MOL0     H37893   6.510   8.802   6.847  0.2474 -2.4716 -1.3064
  281MOL0     H37894   6.406   8.902   6.745 -2.0453  1.4477  0.7510
  281MOL0     H37895   6.335   8.570   6.991  0.7674 -1.1170  1.8407
  281MOL0     H37896   6.452   8.387   7.045  0.8501  0.8295  0.2461
  281MOL0     H37897   6.666   8.038   7.211  0.5370 -1.3924  1.6653
  281MOL0     H37898   6.767   7.805   7.219  0.2653 -0.9695 -0.7397
  281MOL0     H37899   6.842   7.606   7.191 -1.0252  1.8850 -1.3661
  281MOL0     H37900   6.833   7.453   7.095  1.4785 -1.0015 -0.4103
  281MOL0     H37901   6.977   7.706   7.059 -1.9201 -0.3458  0.4235
  281MOL0     H37902   7.065   7.564   7.112  1.2528  1.8897 -0.3146
  281MOL0     H37903   6.920   7.527   6.856 -1.5767  0.6978  4.3235
  281MOL0     H37904   7.067   7.648   6.846 -0.6115  0.2851  0.8447
  281MOL0     H37905   7.078   7.349   6.913 -1.6941 -1.6974 -3.6768
  281MOL0     H37906   7.202   7.467   6.943 -2.2784 -1.0708  1.7805
  281MOL0     H37907   7.190   7.541   6.703 -3.5695  0.4032  0.7767
  281MOL0     H37908   7.093   7.395   6.671 -0.2516 -2.9534  2.1951
  281MOL0     H37909   7.383   7.416   6.771  2.3223 -2.7223 -0.7629
  281MOL0     H37910   7.302   7.273   6.807 -3.4241  0.7116  1.6216
  281MOL0     H37911   7.244   7.228   6.573 -0.4693  1.2394 -0.7040
  281MOL0     H37912   7.414   7.219   6.621  1.6930  1.3188  2.5044
  281MOL0     H37913   7.269   7.444   6.488  0.8542  1.4974  1.1144
  281MOL0     H37914   7.450   7.438   6.507 -0.5166  1.0070  0.3933
  281MOL0     H37915   6.693   7.760   6.802 -0.0330  0.4755 -0.9004
  281MOL0     H37916   6.599   7.983   6.787 -3.6167 -2.5001  0.0079
  281MOL0     H37917   6.644   8.400   6.653 -1.5183  1.0853 -0.7348
  281MOL0     H37918   6.526   8.578   6.597 -0.3588  1.8045  0.5607
  281MOL0     H37919   6.111   8.917   8.410  0.1148 -0.5095  0.2530
  281MOL0     H37920   5.950   8.853   8.602  0.6043  1.5531  0.9542
  281MOL0     H37921   5.721   8.985   8.909  1.8920 -0.6346 -1.1291
  281MOL0     H37922   5.639   8.935   9.136  1.3988  1.2944 -0.9337
  281MOL0     H37923   5.379   8.824   9.169 -1.6091 -3.6676 -0.2857
  281MOL0     H37924   5.472   8.854   9.329  2.0052  1.8299 -1.9324
  281MOL0     H37925   5.385   8.619   9.387  0.2750  2.0674  0.6439
  281MOL0     H37926   5.285   8.635   9.245 -0.5196 -1.0475 -0.1474
  281MOL0     H37927   5.223   8.873   9.370 -1.0166  0.1005  1.5408
  281MOL0     H37928   5.312   8.806   9.502 -2.8147 -2.4458  4.4968
  281MOL0     H37929   5.155   8.642   9.557 -1.5357  2.2509  1.8500
  281MOL0     H37930   5.054   8.765   9.521 -2.3329  1.0003 -3.1981
  281MOL0     H37931   4.926   8.522   9.211  0.6598 -2.8022  0.8612
  281MOL0     H37932   5.527   8.548   8.993  0.5162 -0.4306 -0.2006
  281MOL0     H37933   5.499   8.623   8.661 -0.5878  1.6195  1.6500
  281MOL0     H37934   5.663   8.571   8.675  0.3516 -2.2229 -0.2136
  281MOL0     H37935   5.532   8.493   8.775  1.3994 -1.0118 -0.7749
  282MOL0     O37936   6.512   5.934   9.624 -0.5812 -0.0156 -0.0053
  282MOL0     C37937   6.567   5.997   9.721 -0.7316  0.5605 -0.2652
  282MOL0     O37938   6.551   6.131   9.742  1.2208  0.0667  0.1700
  282MOL0     C37939   6.457   6.196   9.666  0.7926 -0.2174  0.3795
  282MOL0     C37940   6.326   6.174   9.705  1.1221  0.3036  0.2535
  282MOL0     C37941   6.227   6.228   9.623 -0.6338  0.8305 -0.7614
  282MOL0     C37942   6.239   6.319   9.516  0.2547  1.6604  0.1172
  282MOL0     O37943   6.124   6.378   9.468 -0.1714 -0.0520  0.3569
  282MOL0     C37944   6.139   6.463   9.350 -1.3157 -0.4947  1.6007
  282MOL0     C37945   6.158   6.394   9.218 -0.0335  1.4347 -0.2197
  282MOL0     C37946   6.072   6.266   9.193 -0.1456 -0.0318 -0.4308
  282MOL0     C37947   6.063   6.213   9.049  0.1123  0.1807 -0.2625
  282MOL0     C37948   5.994   6.075   9.043 -0.3700  0.1241  0.1596
  282MOL0     C37949   6.068   5.944   9.088  0.7789  0.6772  0.3548
  282MOL0     C37950   5.982   5.823   9.058  0.3584 -0.1904  0.5692
  282MOL0     C37951   6.026   5.706   9.131  0.8166 -0.5980 -0.1943
  282MOL0     N37952   5.937   5.592   9.110  0.2215  0.4411 -0.1989
  282MOL0     C37953   5.818   5.564   9.164 -0.2785 -0.4669  0.5718
  282MOL0     C37954   5.750   5.468   9.096  0.1377  0.4585 -0.1244
  282MOL0     C37955   5.617   5.406   9.125  1.3368  0.0632 -0.5659
  282MOL0     C37956   5.535   5.343   9.009  0.3430 -0.0003 -0.3449
  282MOL0     C37957   5.487   5.449   8.913 -0.3547  0.3966 -0.8706
  282MOL0     C37958   5.345   5.499   8.940  0.0561  0.3134 -0.5570
  282MOL0     O37959   5.330   5.609   8.863 -0.2731  0.4620  0.6704
  282MOL0     C37960   5.206   5.664   8.828  0.2515 -0.0704 -0.8768
  282MOL0     C37961   5.083   5.644   8.895 -0.3515 -0.4456  0.6505
  282MOL0     C37962   4.967   5.704   8.855 -0.7374 -0.1850  0.5748
  282MOL0     C37963   4.975   5.806   8.756  0.6186 -0.0882 -0.1892
  282MOL0     C37964   4.847   5.872   8.707  0.1386  0.4673  0.3215
  282MOL0     O37965   4.865   5.980   8.612 -0.2804  0.0515  0.3685
  282MOL0     C37966   4.757   6.036   8.565 -0.5186 -0.6995 -0.1288
  282MOL0     C37967   4.674   5.970   8.475  0.5363 -0.2162  0.3869
  282MOL0     C37968   4.558   6.032   8.427  0.3707 -0.8502 -1.1307
  282MOL0     C37969   4.518   6.161   8.489 -0.4705  0.5288  0.5692
  282MOL0     O37970   4.395   6.212   8.473 -0.7370  0.4403 -0.2214
  282MOL0     C37971   4.283   6.124   8.433 -0.1804 -1.2114 -0.1168
  282MOL0     C37972   4.261   6.007   8.526  0.6088 -0.1318 -0.3807
  282MOL0     C37973   4.121   5.958   8.517  0.4222 -0.1905 -0.2327
  282MOL0     C37974   4.103   5.871   8.643 -0.8355  0.1804 -1.2652
  282MOL0     C37975   3.972   5.791   8.641 -0.0098 -0.2097  0.2458
  282MOL0     C37976   3.945   5.699   8.761 -0.5812  0.0778  1.1853
  282MOL0     C37977   3.817   5.611   8.750  0.2707 -0.5065 -0.4602
  282MOL0     C37978   3.841   5.454   8.729 -0.2957 -0.1803  0.5472
  282MOL0    Cl37979   3.681   5.375   8.689  0.6215  0.0874 -0.1951
  282MOL0     C37980   4.609   6.221   8.567 -0.5080  0.1254 -0.2318
  282MOL0     C37981   4.728   6.160   8.606 -0.5374  0.0168  0.5000
  282MOL0     O37982   4.739   5.828   8.748 -0.0829  0.6404 -0.6488
  282MOL0     C37983   5.097   5.832   8.687  0.4033 -0.2275  0.0929
  282MOL0     C37984   5.213   5.749   8.720  0.5236 -0.5280 -0.4087
  282MOL0     N37985   5.849   5.426   9.002  0.6160  0.3928 -0.4406
  282MOL0     N37986   5.953   5.493   9.024 -0.6502  0.1570  0.6399
  282MOL0     C37987   6.371   6.336   9.480 -0.4417 -0.3405 -0.4771
  282MOL0     C37988   6.480   6.279   9.554 -0.1267  0.9940 -0.0336
  282MOL0     C37989   6.662   5.926   9.808 -0.5526  0.2175 -0.0506
  282MOL0     C37990   6.752   6.002   9.879  0.0386 -0.3736 -0.0161
  282MOL0     C37991   6.854   5.961   9.956 -0.2254  0.2620  0.0436
  282MOL0     C37992   6.868   5.818   9.975  0.7362 -0.2106 -0.5586
  282MOL0     O37993   6.957   5.771  10.069  0.6303 -0.0347  0.2550
  282MOL0     C37994   7.075   5.850  10.096  0.1722  0.3654  0.1326
  282MOL0     C37995   7.186   5.759  10.164 -1.0308 -0.1387  0.3942
  282MOL0     C37996   7.251   5.645  10.067  0.1323 -0.0512 -0.4319
  282MOL0     C37997   7.372   5.683   9.983 -0.0107  0.9194 -0.3454
  282MOL0     C37998   7.497   5.666  10.055 -0.0341  0.1492 -0.6871
  282MOL0     C37999   7.597   5.653  10.115 -0.0126 -0.5399  0.9721
  282MOL0     C38000   6.786   5.736   9.903  0.0176  0.3292 -0.0106
  282MOL0     C38001   6.683   5.787   9.820 -0.0630 -0.2817  0.0168
  282MOL0     C38002   6.609   5.690   9.742 -0.3769  0.1226  0.5573
  282MOL0     H38003   6.312   6.120   9.798  1.2866  2.7220  1.7771
  282MOL0     H38004   6.135   6.192   9.668  1.0328  1.4997  3.7436
  282MOL0     H38005   6.047   6.522   9.348  0.6287  2.7854 -0.1957
  282MOL0     H38006   6.228   6.526   9.363 -1.0319 -0.6847  0.6402
  282MOL0     H38007   6.261   6.358   9.220  0.3191  2.4137 -0.3581
  282MOL0     H38008   6.154   6.464   9.134  3.1458  1.8698 -0.1423
  282MOL0     H38009   5.972   6.288   9.232  0.7752 -1.7504  3.3680
  282MOL0     H38010   6.116   6.187   9.254  0.3016 -0.7714 -1.6587
  282MOL0     H38011   6.004   6.277   8.982  1.9853  0.5749 -1.5988
  282MOL0     H38012   6.163   6.200   9.007 -0.5643 -2.0783 -1.3620
  282MOL0     H38013   5.904   6.083   9.105  0.2473 -0.0352  1.0956
  282MOL0     H38014   5.954   6.052   8.944 -0.0341 -0.6321  0.1928
  282MOL0     H38015   6.161   5.933   9.033  1.1127  3.8335  0.1538
  282MOL0     H38016   6.088   5.945   9.196  2.8527  2.7544  0.0339
  282MOL0     H38017   5.994   5.828   8.950  0.3374 -1.3056  0.5092
  282MOL0     H38018   5.878   5.845   9.087 -0.1583  0.0160 -1.3491
  282MOL0     H38019   6.128   5.689   9.097  0.4755  0.0237 -1.6134
  282MOL0     H38020   6.037   5.721   9.239  1.0201 -1.4846 -0.0879
  282MOL0     H38021   5.769   5.628   9.236  0.9155  2.7854 -1.2632
  282MOL0     H38022   5.635   5.322   9.193  0.1351  0.4106  0.2165
  282MOL0     H38023   5.555   5.483   9.172  2.0747  1.1211 -1.2809
  282MOL0     H38024   5.592   5.270   8.951 -1.5315 -2.6062  0.8833
  282MOL0     H38025   5.446   5.286   9.038  1.1650 -1.2177 -0.1125
  282MOL0     H38026   5.474   5.401   8.816 -1.3657 -0.7706 -0.1943
  282MOL0     H38027   5.562   5.528   8.911 -1.0401  1.0481 -2.0739
  282MOL0     H38028   5.333   5.510   9.048  0.4000 -4.9113  0.2909
  282MOL0     H38029   5.267   5.425   8.915 -3.5541  2.2779  3.4956
  282MOL0     H38030   5.072   5.580   8.982  1.3886 -0.5471  0.8459
  282MOL0     H38031   4.873   5.684   8.906 -2.2064 -0.1901 -1.9473
  282MOL0     H38032   4.690   5.870   8.437 -0.8492 -0.3459  0.0942
  282MOL0     H38033   4.500   5.996   8.342  0.0461  0.7691 -1.6436
  282MOL0     H38034   4.197   6.191   8.422  1.6741  1.3042 -0.1711
  282MOL0     H38035   4.301   6.084   8.333 -0.3141 -0.4561 -0.4509
  282MOL0     H38036   4.334   5.927   8.509  0.1946 -0.4049 -0.9278
  282MOL0     H38037   4.277   6.052   8.625 -0.4104  0.5001 -0.4947
  282MOL0     H38038   4.051   6.040   8.495 -1.0944 -1.1244  0.8891
  282MOL0     H38039   4.113   5.888   8.434  0.1156 -0.4831  0.0412
  282MOL0     H38040   4.099   5.929   8.735 -0.6544 -3.0051  0.9186
  282MOL0     H38041   4.183   5.796   8.651 -1.7814 -0.6444  1.7619
  282MOL0     H38042   3.969   5.737   8.546 -2.7248 -0.9281  0.6480
  282MOL0     H38043   3.879   5.849   8.645 -0.4148 -0.4983 -2.6064
  282MOL0     H38044   4.028   5.628   8.771 -0.8853 -0.2163  1.6695
  282MOL0     H38045   3.963   5.750   8.856  3.9220 -2.6903  2.1109
  282MOL0     H38046   3.742   5.646   8.679  1.4424 -1.5838 -2.3290
  282MOL0     H38047   3.776   5.599   8.850  0.1567 -0.9703 -0.5614
  282MOL0     H38048   3.907   5.448   8.643  1.7141  1.9372  1.8168
  282MOL0     H38049   3.883   5.399   8.814  0.3690  0.6936  0.8074
  282MOL0     H38050   4.580   6.322   8.591 -0.0027  0.5392 -1.2879
  282MOL0     H38051   4.792   6.214   8.675  1.1672  0.3420 -1.2266
  282MOL0     H38052   5.089   5.905   8.607 -3.7869  0.4883  0.9702
  282MOL0     H38053   5.307   5.763   8.668  0.8726 -2.4570 -0.3904
  282MOL0     H38054   6.398   6.402   9.398 -0.5488  0.8057  0.3697
  282MOL0     H38055   6.579   6.293   9.513 -0.1651 -0.7837 -0.8475
  282MOL0     H38056   6.732   6.109   9.876 -0.6773 -0.4857  0.6754
  282MOL0     H38057   6.926   6.030   9.998  0.3630 -0.2615 -0.0880
  282MOL0     H38058   7.045   5.921  10.174  2.8195  0.7904  0.8689
  282MOL0     H38059   7.122   5.893  10.007 -0.1454 -0.8167 -0.6172
  282MOL0     H38060   7.135   5.706  10.246 -4.2168  0.1387 -1.2465
  282MOL0     H38061   7.262   5.820  10.213  1.4766 -1.3934 -1.6620
  282MOL0     H38062   7.172   5.621   9.996 -1.4433  0.6132  1.0511
  282MOL0     H38063   7.273   5.551  10.119  1.3748 -1.7044 -3.6972
  282MOL0     H38064   7.372   5.625   9.891  2.0230 -0.8625  0.6921
  282MOL0     H38065   7.377   5.786   9.948 -1.4917  0.9285 -0.6046
  282MOL0     H38066   7.676   5.641  10.187 -0.5361  2.8922  2.2652
  282MOL0     H38067   6.807   5.630   9.908  0.8477  0.4317 -0.9762
  282MOL0     H38068   6.647   5.674   9.641  0.2529 -0.1735  0.8322
  282MOL0     H38069   6.612   5.588   9.783  0.8728 -0.0523  0.0549
  282MOL0     H38070   6.504   5.720   9.737 -0.9464 -1.9600 -1.4370
  283MOL0     O38071   1.353  11.457   1.923 -0.9867 -0.0366  0.4506
  283MOL0     C38072   1.255  11.398   1.968 -0.2730 -0.1197  0.4823
  283MOL0     O38073   1.141  11.363   1.893 -0.0272  0.6089 -0.0504
  283MOL0     C38074   1.142  11.348   1.756 -0.2607  0.3887 -0.5970
  283MOL0     C38075   1.093  11.231   1.695 -0.3495  0.4784 -1.2711
  283MOL0     C38076   1.112  11.208   1.558 -0.8481  1.6025 -0.2235
  283MOL0     C38077   1.192  11.291   1.480  0.4968  0.3686 -0.1338
  283MOL0     O38078   1.214  11.244   1.357 -0.6069  0.6463  0.1164
  283MOL0     C38079   1.291  11.327   1.268 -0.6716  0.3322 -0.2245
  283MOL0     C38080   1.444  11.321   1.292  0.9477 -0.1480  0.1863
  283MOL0     C38081   1.524  11.258   1.175  0.9588  0.4279 -0.2494
  283MOL0     C38082   1.675  11.246   1.199 -0.0771 -0.0490  0.0540
  283MOL0     C38083   1.708  11.132   1.292  0.3660 -0.4312 -0.2950
  283MOL0     C38084   1.847  11.121   1.353 -0.3754 -0.7686 -0.9655
  283MOL0     C38085   1.955  11.174   1.251 -0.2467  1.3955  0.5861
  283MOL0     C38086   2.080  11.076   1.264 -0.0042 -0.2021 -0.6149
  283MOL0     N38087   2.160  11.093   1.389 -0.2050  0.1856  0.1928
  283MOL0     C38088   2.264  11.175   1.397  0.0108  0.2804 -1.1978
  283MOL0     C38089   2.338  11.146   1.509  1.3513 -0.4120 -0.1400
  283MOL0     C38090   2.431  11.232   1.587 -0.1449  0.3358 -0.4629
  283MOL0     C38091   2.405  11.386   1.582 -0.3102 -0.1692 -0.3650
  283MOL0     C38092   2.521  11.466   1.628  0.4429 -0.4970  0.0265
  283MOL0     C38093   2.539  11.473   1.782 -0.2469 -0.5627 -0.0478
  283MOL0     O38094   2.667  11.541   1.806 -0.3595  0.2143  0.9602
  283MOL0     C38095   2.736  11.529   1.924 -0.3625 -0.5985 -0.2663
  283MOL0     C38096   2.863  11.473   1.927 -0.6554 -0.0037 -1.2488
  283MOL0     C38097   2.940  11.478   2.050  0.2018 -0.2288  0.7625
  283MOL0     C38098   2.895  11.560   2.151 -0.4455 -0.5475  0.5692
  283MOL0     C38099   2.983  11.598   2.262 -0.3739 -1.4675 -0.4103
  283MOL0     O38100   2.946  11.720   2.306 -0.6998  0.4964 -0.7114
  283MOL0     C38101   3.018  11.790   2.407  0.8087 -0.6673  0.1058
  283MOL0     C38102   2.949  11.905   2.444  0.1903 -0.8651  0.0908
  283MOL0     C38103   2.998  11.983   2.550 -0.8191  0.6916  0.7515
  283MOL0     C38104   3.117  11.961   2.611 -0.0609 -0.2129  0.7242
  283MOL0     O38105   3.167  12.033   2.715 -0.8197  0.5364 -0.3724
  283MOL0     C38106   3.133  12.177   2.725 -1.2950  0.9577  0.4806
  283MOL0     C38107   3.196  12.228   2.857  0.4454  0.3012  0.2474
  283MOL0     C38108   3.353  12.193   2.884 -0.2280  0.1679 -0.1053
  283MOL0     C38109   3.442  12.281   2.801 -0.2098 -0.2793 -0.0389
  283MOL0     C38110   3.590  12.280   2.837  0.1962  0.1979 -0.8747
  283MOL0     C38111   3.677  12.305   2.715 -0.8779  0.3994  0.3542
  283MOL0     C38112   3.829  12.285   2.740  0.6186 -0.6454  0.4618
  283MOL0     C38113   3.906  12.308   2.607 -0.3605  0.8484 -0.4948
  283MOL0    Cl38114   3.908  12.482   2.564  0.0903  0.1269  0.1601
  283MOL0     C38115   3.177  11.839   2.571  0.1700 -0.1045 -0.2658
  283MOL0     C38116   3.135  11.759   2.466  0.9047  0.2232 -0.3988
  283MOL0     O38117   3.073  11.531   2.304 -0.0108 -0.1996 -0.6340
  283MOL0     C38118   2.761  11.605   2.147  0.0103 -0.1803  0.9008
  283MOL0     C38119   2.679  11.590   2.035  0.0914  0.1928  0.2185
  283MOL0     N38120   2.258  11.038   1.564 -0.4467  0.1551  0.8329
  283MOL0     N38121   2.156  11.012   1.494 -0.3219 -0.1058  0.5793
  283MOL0     C38122   1.227  11.413   1.534 -0.1276  0.0811  0.2960
  283MOL0     C38123   1.203  11.437   1.674  0.3037 -0.1735 -0.0707
  283MOL0     C38124   1.260  11.358   2.112  0.0616 -0.6922  0.3471
  283MOL0     C38125   1.140  11.308   2.169 -0.0950 -0.5241 -0.0189
  283MOL0     C38126   1.117  11.269   2.302 -0.5551 -1.0054  0.0669
  283MOL0     C38127   1.223  11.286   2.383 -0.4581  0.4533 -0.2294
  283MOL0     O38128   1.194  11.257   2.513 -0.6087  0.3024  0.3875
  283MOL0     C38129   1.293  11.190   2.588 -0.0326  0.4805  0.3571
  283MOL0     C38130   1.246  11.072   2.662  0.6748 -0.4292 -0.0194
  283MOL0     C38131   1.152  11.095   2.780  0.5536  0.1296 -0.3710
  283MOL0     C38132   1.014  11.171   2.761 -0.5165  0.7537 -0.4385
  283MOL0     C38133   0.923  11.099   2.671  0.0564 -0.1175 -0.5105
  283MOL0     C38134   0.846  11.056   2.588  0.2432  0.0742  0.0804
  283MOL0     C38135   1.349  11.338   2.335  0.0350 -0.5105 -0.0534
  283MOL0     C38136   1.365  11.377   2.205 -0.5901  0.8154  0.2606
  283MOL0     C38137   1.492  11.451   2.171  0.0672  0.4026  0.0601
  283MOL0     H38138   1.062  11.153   1.764  4.0522 -0.2204  0.3090
  283MOL0     H38139   1.094  11.105   1.529 -3.9329  0.5914  4.2796
  283MOL0     H38140   1.259  11.287   1.171  0.8034  1.8154 -1.3785
  283MOL0     H38141   1.260  11.432   1.273  0.7226  0.7550 -0.1910
  283MOL0     H38142   1.458  11.274   1.390 -2.0570  0.0503  0.8245
  283MOL0     H38143   1.474  11.425   1.309  1.2394 -0.0233 -1.0061
  283MOL0     H38144   1.510  11.313   1.081  1.9286  2.6023  0.8125
  283MOL0     H38145   1.487  11.155   1.167 -3.3207  1.5435  1.9979
  283MOL0     H38146   1.722  11.234   1.101  1.1274 -1.4902  0.7792
  283MOL0     H38147   1.710  11.336   1.250 -2.8616 -0.7817  3.6791
  283MOL0     H38148   1.634  11.137   1.373 -2.1927 -1.2829 -2.4435
  283MOL0     H38149   1.692  11.034   1.246  1.0862 -0.3027 -0.8245
  283MOL0     H38150   1.858  11.189   1.438  3.1080 -0.6039 -1.3712
  283MOL0     H38151   1.874  11.020   1.387 -2.7423 -0.5370  2.0549
  283MOL0     H38152   1.963  11.282   1.266  3.4180  1.0260  2.3479
  283MOL0     H38153   1.926  11.155   1.147  0.6081  0.8967  0.4235
  283MOL0     H38154   2.052  10.972   1.244 -1.4661 -0.0771  0.6583
  283MOL0     H38155   2.137  11.093   1.172  0.4919  1.1460 -0.0877
  283MOL0     H38156   2.289  11.258   1.332 -4.5291  2.4697 -0.5576
  283MOL0     H38157   2.423  11.198   1.691  0.0238  0.6597 -0.3396
  283MOL0     H38158   2.530  11.209   1.547  1.6021  3.6397  1.5271
  283MOL0     H38159   2.368  11.427   1.488 -0.8928 -0.0346 -0.0854
  283MOL0     H38160   2.318  11.403   1.647  0.0114 -1.4731  0.4516
  283MOL0     H38161   2.493  11.562   1.584 -1.0267 -1.1317 -0.4937
  283MOL0     H38162   2.620  11.439   1.591  0.6019 -1.5434  1.1508
  283MOL0     H38163   2.514  11.382   1.837 -1.8271 -1.6951 -2.4755
  283MOL0     H38164   2.462  11.548   1.806 -0.6342 -0.8167 -0.4746
  283MOL0     H38165   2.909  11.423   1.843  0.0035  0.6228 -1.2719
  283MOL0     H38166   3.029  11.416   2.052 -1.3357 -2.7124 -1.1325
  283MOL0     H38167   2.857  11.943   2.401  0.4531  3.6150  2.8371
  283MOL0     H38168   2.937  12.067   2.583 -0.6104  0.5518  1.4990
  283MOL0     H38169   3.173  12.230   2.637 -1.3321  0.3146  0.0697
  283MOL0     H38170   3.027  12.197   2.739 -1.2392  0.0513  2.5327
  283MOL0     H38171   3.174  12.335   2.866 -0.3435  0.0611  1.3629
  283MOL0     H38172   3.139  12.178   2.936  0.6917 -0.7416 -0.2154
  283MOL0     H38173   3.369  12.217   2.990 -3.4053  2.2450  0.0574
  283MOL0     H38174   3.371  12.089   2.857  1.8549  0.0643  1.4559
  283MOL0     H38175   3.402  12.383   2.794  0.4017 -0.0886 -0.9169
  283MOL0     H38176   3.432  12.239   2.701  1.7768 -1.8474  0.3444
  283MOL0     H38177   3.615  12.191   2.895 -1.6502 -0.0047 -0.3214
  283MOL0     H38178   3.607  12.369   2.898 -5.7471  1.7573 -0.8322
  283MOL0     H38179   3.642  12.234   2.639 -1.2682  2.9773 -2.0107
  283MOL0     H38180   3.655  12.402   2.671 -2.3204 -0.1665 -0.2525
  283MOL0     H38181   3.849  12.191   2.791 -2.4733  0.4049  4.1073
  283MOL0     H38182   3.857  12.364   2.810  3.3846 -2.1731  1.2337
  283MOL0     H38183   4.007  12.271   2.626 -1.1406 -2.8490 -2.4398
  283MOL0     H38184   3.863  12.246   2.527 -1.5532  0.0342  0.7155
  283MOL0     H38185   3.275  11.813   2.611 -1.0744 -0.6683  2.7343
  283MOL0     H38186   3.197  11.675   2.434  0.3549  0.9278 -3.6759
  283MOL0     H38187   2.717  11.668   2.223 -3.1285 -0.8261 -0.2597
  283MOL0     H38188   2.580  11.635   2.034  0.5993  1.4909  2.1458
  283MOL0     H38189   1.283  11.486   1.476  1.4872 -1.1863  0.1939
  283MOL0     H38190   1.223  11.532   1.723 -0.9128 -1.1737  2.5489
  283MOL0     H38191   1.051  11.305   2.107  0.4302 -1.4621 -0.7627
  283MOL0     H38192   1.023  11.235   2.344 -1.7214  2.8564  0.9840
  283MOL0     H38193   1.336  11.261   2.660  4.2342 -1.4304  0.0269
  283MOL0     H38194   1.376  11.160   2.523  0.2400  2.1815 -0.1205
  283MOL0     H38195   1.329  11.008   2.695 -0.4242 -1.6155  0.5373
  283MOL0     H38196   1.177  11.015   2.598 -1.1523  3.6492 -2.0077
  283MOL0     H38197   1.209  11.129   2.867 -1.9901 -0.5524  1.6814
  283MOL0     H38198   1.115  10.997   2.810  4.4637 -0.8706  1.8723
  283MOL0     H38199   0.968  11.185   2.859 -3.2395 -0.4664 -1.4511
  283MOL0     H38200   1.040  11.267   2.715  1.9998 -0.1754 -1.1106
  283MOL0     H38201   0.764  11.024   2.527 -0.3275  1.4872  0.0904
  283MOL0     H38202   1.436  11.360   2.396 -0.0931 -2.2590  0.8233
  283MOL0     H38203   1.574  11.440   2.242 -1.1408  1.2409  1.6435
  283MOL0     H38204   1.537  11.422   2.075  3.3630  1.6988  1.0807
  283MOL0     H38205   1.470  11.556   2.151 -0.4721  0.0641 -1.2775
  284MOL0     O38206  10.743   5.920   2.651  0.0888 -0.3514 -0.9219
  284MOL0     C38207  10.670   5.976   2.730  0.6579  0.2136 -0.1751
  284MOL0     O38208  10.574   5.917   2.812 -0.8529 -0.1295  0.1427
  284MOL0     C38209  10.536   5.782   2.797 -0.0562 -0.9302 -0.1138
  284MOL0     C38210  10.543   5.696   2.687  0.3981 -0.0635 -0.2844
  284MOL0     C38211  10.484   5.573   2.702 -0.5808 -0.0682  0.9096
  284MOL0     C38212  10.422   5.521   2.815 -1.2785 -0.4193 -1.3201
  284MOL0     O38213  10.387   5.391   2.809 -0.4042  0.6919  1.0451
  284MOL0     C38214  10.340   5.337   2.932 -0.1627  0.6280 -0.0482
  284MOL0     C38215  10.188   5.362   2.955 -0.2495 -0.5514  0.2806
  284MOL0     C38216  10.090   5.238   2.946 -0.4917 -1.2672 -0.7220
  284MOL0     C38217  10.060   5.175   3.081 -1.0418 -0.1766  0.2950
  284MOL0     C38218  10.194   5.126   3.145 -0.1817  0.6651 -0.0133
  284MOL0     C38219  10.155   5.024   3.243 -0.1546 -0.3408  0.5772
  284MOL0     C38220  10.273   4.981   3.331 -0.0900  0.8166  0.2922
  284MOL0     C38221  10.378   4.914   3.246  0.3339 -0.3122 -0.2680
  284MOL0     N38222  10.339   4.776   3.217 -1.1215 -0.3597 -0.3679
  284MOL0     C38223  10.295   4.722   3.095  1.0252  0.7686 -0.2700
  284MOL0     C38224  10.330   4.595   3.087 -0.3256 -0.5020  0.0758
  284MOL0     C38225  10.315   4.500   2.969 -0.1483 -0.6593 -0.1165
  284MOL0     C38226  10.315   4.348   3.008 -0.0451 -0.2000  0.1614
  284MOL0     C38227  10.178   4.307   3.073  0.2553 -0.8897  0.4511
  284MOL0     C38228  10.203   4.182   3.160  0.6372 -0.1906  0.7041
  284MOL0     O38229  10.078   4.146   3.222  1.1082 -0.1152  0.4436
  284MOL0     C38230  10.070   4.034   3.305 -0.0886 -0.2899  0.2736
  284MOL0     C38231   9.965   4.037   3.399  0.9523 -0.2229 -0.0949
  284MOL0     C38232   9.937   3.930   3.474  0.6493  0.9558 -0.2060
  284MOL0     C38233  10.017   3.819   3.485 -0.6716  0.4950  0.7102
  284MOL0     C38234   9.991   3.705   3.567 -0.8192  0.7312 -0.6331
  284MOL0     O38235   9.914   3.725   3.678  0.2598  0.3780  0.7736
  284MOL0     C38236   9.913   3.634   3.786  0.9877 -0.3234 -0.4564
  284MOL0     C38237   9.924   3.697   3.907 -0.4582 -0.1339  0.4377
  284MOL0     C38238   9.928   3.623   4.029 -0.2807  0.7263 -0.6335
  284MOL0     C38239   9.908   3.484   4.025  0.2529  0.6644 -0.2017
  284MOL0     O38240   9.929   3.405   4.132 -0.4731 -0.8823  0.0822
  284MOL0     C38241   9.947   3.463   4.262  0.4931  0.0447  0.4399
  284MOL0     C38242   9.947   3.344   4.364 -0.0513  0.2003 -0.3827
  284MOL0     C38243  10.022   3.383   4.489  0.1362 -0.9895  0.0943
  284MOL0     C38244   9.930   3.474   4.573  0.1116  0.2669 -0.4035
  284MOL0     C38245  10.007   3.523   4.698 -0.2780 -0.0581  0.3547
  284MOL0     C38246   9.919   3.528   4.822 -0.2444 -0.4403 -0.5736
  284MOL0     C38247   9.933   3.394   4.907  0.4801  0.0800 -0.6858
  284MOL0     C38248   9.831   3.402   5.027 -0.4551 -0.8028  0.7383
  284MOL0    Cl38249   9.870   3.547   5.116  0.1393 -0.0594  0.0837
  284MOL0     C38250   9.897   3.421   3.898  0.3362 -0.5228  0.3179
  284MOL0     C38251   9.896   3.497   3.783 -0.2993  0.0050 -0.9811
  284MOL0     O38252  10.043   3.597   3.543  0.7759  0.8530  0.0142
  284MOL0     C38253  10.126   3.821   3.391  0.1194  0.0240 -0.4048
  284MOL0     C38254  10.149   3.922   3.301  0.4275  0.0456  0.2680
  284MOL0     N38255  10.392   4.565   3.207  0.2272  0.3456 -0.5993
  284MOL0     N38256  10.395   4.672   3.289 -0.1058 -0.0391  1.0968
  284MOL0     C38257  10.424   5.607   2.928  0.2477 -0.0013  0.0614
  284MOL0     C38258  10.469   5.734   2.914  0.2772  0.8338  0.7510
  284MOL0     C38259  10.672   6.126   2.741 -0.4913 -0.3245  0.5058
  284MOL0     C38260  10.592   6.181   2.846  0.2943  0.0158  0.7394
  284MOL0     C38261  10.593   6.317   2.870  0.3861 -0.4175  0.1792
  284MOL0     C38262  10.658   6.407   2.783  0.0098 -0.8414 -0.2771
  284MOL0     O38263  10.638   6.546   2.795  0.3358 -0.2541 -0.0037
  284MOL0     C38264  10.721   6.640   2.726  0.1391  0.0662 -0.2261
  284MOL0     C38265  10.757   6.767   2.807  0.0759 -0.4896  0.5826
  284MOL0     C38266  10.652   6.877   2.827 -0.4907 -0.2853  0.0053
  284MOL0     C38267  10.716   7.011   2.884 -0.1673  0.3651 -0.0950
  284MOL0     C38268  10.611   7.097   2.920 -0.6051 -0.0629  0.5365
  284MOL0     C38269  10.514   7.173   2.931 -0.5992  0.4302 -0.3647
  284MOL0     C38270  10.739   6.349   2.683 -0.0550 -0.5558  0.0195
  284MOL0     C38271  10.749   6.208   2.668 -0.0815 -0.6974  0.4667
  284MOL0     C38272  10.865   6.170   2.574  0.7839  0.0461  0.4773
  284MOL0     H38273  10.598   5.723   2.597  1.2604  1.8095  0.7624
  284MOL0     H38274  10.493   5.503   2.620  2.0783  0.0495  1.0030
  284MOL0     H38275  10.343   5.228   2.938  3.0176  0.6860  2.3579
  284MOL0     H38276  10.397   5.372   3.019 -1.3850 -1.5379  1.7398
  284MOL0     H38277  10.165   5.432   2.874  2.1257  2.1441  1.7298
  284MOL0     H38278  10.170   5.414   3.049 -2.5247 -0.5984 -0.0809
  284MOL0     H38279  10.128   5.165   2.874 -0.1898 -1.9050  0.0686
  284MOL0     H38280  10.005   5.291   2.903 -0.3420 -1.2526 -1.0003
  284MOL0     H38281  10.019   5.248   3.152  1.8269  3.7516 -1.6403
  284MOL0     H38282   9.992   5.091   3.067 -0.9192 -0.7759  2.7874
  284MOL0     H38283  10.264   5.075   3.078 -0.2791  0.0322  0.3576
  284MOL0     H38284  10.247   5.208   3.194  1.7549 -1.0264  0.9166
  284MOL0     H38285  10.093   5.076   3.316 -0.5066  0.9724 -0.6032
  284MOL0     H38286  10.104   4.940   3.195 -1.3128  0.8304 -0.3001
  284MOL0     H38287  10.231   4.914   3.407 -0.1801  0.3768 -0.1362
  284MOL0     H38288  10.303   5.070   3.386 -0.4752  0.6559  0.7701
  284MOL0     H38289  10.399   4.957   3.148 -0.3808  0.4224 -0.1108
  284MOL0     H38290  10.470   4.913   3.305  0.0681  3.0869  0.4402
  284MOL0     H38291  10.263   4.785   3.013 -2.7671 -1.6123 -0.8466
  284MOL0     H38292  10.224   4.529   2.917  1.9994  3.1158 -2.1621
  284MOL0     H38293  10.397   4.524   2.901 -0.7794  2.7333  0.1286
  284MOL0     H38294  10.323   4.290   2.915 -0.9237 -1.2560  0.7224
  284MOL0     H38295  10.397   4.323   3.076 -0.8827 -3.2083  0.1999
  284MOL0     H38296  10.102   4.287   2.997 -0.9682  1.1596  1.0668
  284MOL0     H38297  10.143   4.388   3.138 -0.8393 -0.9488 -0.0579
  284MOL0     H38298  10.285   4.203   3.229  2.0216 -0.4454 -0.8169
  284MOL0     H38299  10.233   4.106   3.087 -2.4820 -3.6729  2.6627
  284MOL0     H38300   9.900   4.123   3.411  1.6897  0.4584 -0.8722
  284MOL0     H38301   9.842   3.933   3.527 -0.9369  2.5810 -2.8426
  284MOL0     H38302   9.922   3.806   3.908  1.0303 -0.0933  1.4844
  284MOL0     H38303   9.941   3.682   4.120  2.8796 -0.6516 -0.0746
  284MOL0     H38304  10.045   3.510   4.267  2.0299 -2.9414  0.6019
  284MOL0     H38305   9.868   3.535   4.284 -1.6425 -1.6894 -1.1260
  284MOL0     H38306   9.842   3.313   4.376  0.4692 -1.3434  0.4216
  284MOL0     H38307   9.998   3.255   4.328 -1.4724  0.4914 -3.4242
  284MOL0     H38308  10.044   3.286   4.535 -0.4124 -1.7988 -1.3053
  284MOL0     H38309  10.115   3.433   4.460  0.8348 -2.7655 -0.8776
  284MOL0     H38310   9.849   3.403   4.590 -0.8340  0.5038 -3.2303
  284MOL0     H38311   9.884   3.558   4.519 -1.4550 -1.0543 -1.2281
  284MOL0     H38312  10.026   3.629   4.681  1.1320 -0.3933 -0.3567
  284MOL0     H38313  10.100   3.474   4.729 -1.3934 -2.2285  0.4773
  284MOL0     H38314   9.954   3.611   4.884  1.1560 -1.0845 -0.4680
  284MOL0     H38315   9.814   3.550   4.799 -1.3339 -3.2381  1.2951
  284MOL0     H38316  10.033   3.397   4.950  1.6984  0.9955 -3.4135
  284MOL0     H38317   9.911   3.308   4.842  1.0071 -1.0424  0.5673
  284MOL0     H38318   9.728   3.415   4.991 -0.8633 -1.7699  1.5112
  284MOL0     H38319   9.857   3.309   5.080  3.6365 -0.5793 -0.5311
  284MOL0     H38320   9.881   3.314   3.907 -0.2770 -0.4748 -0.1948
  284MOL0     H38321   9.884   3.452   3.685  0.7308  2.7089 -2.4620
  284MOL0     H38322  10.190   3.734   3.385 -3.5125 -2.8170 -1.4810
  284MOL0     H38323  10.230   3.907   3.231  2.6635  2.3096  2.1967
  284MOL0     H38324  10.375   5.584   3.023 -0.9433  1.6715 -0.1013
  284MOL0     H38325  10.488   5.796   3.001  1.0075  3.0586 -0.8890
  284MOL0     H38326  10.530   6.124   2.915  0.1184  2.8547  3.1159
  284MOL0     H38327  10.539   6.377   2.942  0.7340 -0.2486  0.3012
  284MOL0     H38328  10.661   6.657   2.636 -1.9673 -1.5564  0.7670
  284MOL0     H38329  10.815   6.587   2.707 -0.0622 -0.2897 -0.2439
  284MOL0     H38330  10.835   6.823   2.754 -1.3546  0.3635 -0.6978
  284MOL0     H38331  10.801   6.736   2.902  3.6311  1.2980 -0.3163
  284MOL0     H38332  10.578   6.847   2.903  2.1293 -3.8205  1.4463
  284MOL0     H38333  10.595   6.907   2.739 -3.4410 -1.8031  1.2405
  284MOL0     H38334  10.790   6.989   2.961  0.6432 -1.7566 -1.3631
  284MOL0     H38335  10.779   7.055   2.806  0.8389  1.2625  1.1844
  284MOL0     H38336  10.431   7.238   2.948 -0.3281  0.9332 -0.9358
  284MOL0     H38337  10.800   6.409   2.618  0.2720 -0.6542  0.2338
  284MOL0     H38338  10.940   6.100   2.612 -0.1220 -0.8525  0.6460
  284MOL0     H38339  10.822   6.133   2.480  0.0732  1.1457  0.3460
  284MOL0     H38340  10.923   6.255   2.534  0.7368  0.3041  0.9501
  285MOL0     O38341   9.697   5.298   9.676  0.2468 -0.3239 -0.3092
  285MOL0     C38342   9.697   5.179   9.715  0.1437 -0.5310  0.3520
  285MOL0     O38343   9.795   5.092   9.681 -0.7504 -0.4512  0.4458
  285MOL0     C38344   9.923   5.131   9.636  0.0742  0.4882 -0.0185
  285MOL0     C38345   9.986   5.259   9.664 -0.1701  0.1225 -0.3012
  285MOL0     C38346  10.122   5.278   9.626 -0.8920  0.6142  0.6117
  285MOL0     C38347  10.199   5.170   9.577  0.7368 -0.1072 -0.7455
  285MOL0     O38348  10.334   5.189   9.567 -0.6087  0.4100  0.0670
  285MOL0     C38349  10.427   5.234   9.677  0.8773  0.5342 -0.2641
  285MOL0     C38350  10.568   5.221   9.614  0.3340  0.8623  0.8053
  285MOL0     C38351  10.598   5.302   9.492 -0.0861  0.0417  0.2068
  285MOL0     C38352  10.734   5.269   9.433 -0.7814 -0.1839 -0.3575
  285MOL0     C38353  10.752   5.322   9.284  0.2741  0.9078 -0.4553
  285MOL0     C38354  10.764   5.483   9.278  0.4422  0.1115  0.2942
  285MOL0     C38355  10.785   5.527   9.130  0.3528  0.6548  0.0579
  285MOL0     C38356  10.896   5.453   9.049  0.3212  0.7328  0.3208
  285MOL0     N38357  11.037   5.463   9.099 -0.1918 -0.3918 -0.3368
  285MOL0     C38358  11.094   5.411   9.221 -0.8405 -0.7991 -0.5831
  285MOL0     C38359  11.227   5.404   9.195 -0.1158 -0.7814  0.3118
  285MOL0     C38360  11.333   5.358   9.290 -0.6058  0.1419  0.0538
  285MOL0     C38361  11.472   5.363   9.223 -0.0353  0.2424 -0.6281
  285MOL0     C38362  11.585   5.326   9.325  0.1281 -0.1764 -0.3671
  285MOL0     C38363  11.702   5.257   9.261 -0.5636 -0.2184 -0.4984
  285MOL0     O38364  11.798   5.210   9.347 -0.2661  0.5585  0.9562
  285MOL0     C38365  11.898   5.138   9.293 -0.5095  0.4390 -0.1603
  285MOL0     C38366  11.991   5.090   9.385 -0.5056  0.0879 -0.4687
  285MOL0     C38367  12.104   5.007   9.352 -0.6110  0.0489 -0.0227
  285MOL0     C38368  12.128   4.976   9.212  0.8782  0.3921  0.1523
  285MOL0     C38369  12.240   4.879   9.174  0.0031  0.3235  0.6099
  285MOL0     O38370  12.264   4.779   9.261 -0.9435 -0.6683  0.0445
  285MOL0     C38371  12.369   4.700   9.248 -1.1120 -0.0348  0.0966
  285MOL0     C38372  12.496   4.736   9.197 -0.4204  0.5355 -0.3968
  285MOL0     C38373  12.606   4.657   9.181  1.8527  0.0549 -0.6153
  285MOL0     C38374  12.592   4.525   9.203 -0.3469  0.2859 -0.4177
  285MOL0     O38375  12.695   4.438   9.174 -0.4668  0.1464 -0.5342
  285MOL0     C38376  12.755   4.406   9.302 -0.7599  0.0077  0.9787
  285MOL0     C38377  12.862   4.304   9.283 -0.5456  0.2011  0.6588
  285MOL0     C38378  12.816   4.178   9.209  0.8755  0.0517 -0.5839
  285MOL0     C38379  12.686   4.112   9.255 -0.7886 -0.5002  0.0859
  285MOL0     C38380  12.678   3.956   9.229 -0.0374 -0.4185  0.1375
  285MOL0     C38381  12.557   3.893   9.291  0.8652  0.5268 -0.7215
  285MOL0     C38382  12.585   3.858   9.445 -0.3867  0.0386 -0.0636
  285MOL0     C38383  12.498   3.732   9.475 -0.2229 -0.3348  0.7178
  285MOL0    Cl38384  12.323   3.762   9.487  0.2728 -0.2521 -0.2188
  285MOL0     C38385  12.468   4.481   9.251 -0.5305 -0.1353 -0.3488
  285MOL0     C38386  12.363   4.566   9.275  0.3906 -0.1219  0.1773
  285MOL0     O38387  12.289   4.892   9.064  0.0868 -0.6404 -0.2210
  285MOL0     C38388  12.043   5.038   9.118 -0.1883 -0.2420  0.4743
  285MOL0     C38389  11.929   5.109   9.157 -0.3094  0.3626  0.6595
  285MOL0     N38390  11.247   5.440   9.064 -0.0005 -0.3757  0.7475
  285MOL0     N38391  11.137   5.485   9.009  0.0092  0.0648 -0.5765
  285MOL0     C38392  10.134   5.049   9.556  0.4768  0.2754  0.2647
  285MOL0     C38393   9.997   5.027   9.577  0.1976 -0.2386  0.2460
  285MOL0     C38394   9.562   5.123   9.757 -0.1142 -0.2437 -0.0557
  285MOL0     C38395   9.455   5.213   9.778  0.8217  0.1013 -0.3332
  285MOL0     C38396   9.330   5.163   9.802 -0.0969 -0.1953 -0.6579
  285MOL0     C38397   9.294   5.032   9.813 -0.8322 -0.3982  0.4407
  285MOL0     O38398   9.167   4.982   9.834 -0.3554 -0.3782 -0.2524
  285MOL0     C38399   9.057   5.069   9.832  0.3354 -0.4726 -0.3297
  285MOL0     C38400   8.919   5.001   9.804 -0.0904  0.2832  0.8694
  285MOL0     C38401   8.875   4.915   9.927  0.2609 -0.7033  0.1026
  285MOL0     C38402   8.767   4.986  10.012  0.1924  0.3636  0.0437
  285MOL0     C38403   8.829   5.082  10.099 -0.0797 -1.2413  0.3440
  285MOL0     C38404   8.889   5.153  10.181 -0.1719 -0.6180  0.0732
  285MOL0     C38405   9.391   4.942   9.794  0.1028 -0.1448 -0.0757
  285MOL0     C38406   9.522   4.982   9.769 -0.8711  0.7011 -0.8386
  285MOL0     C38407   9.632   4.876   9.787  0.6742 -0.1028  0.6078
  285MOL0     H38408   9.932   5.337   9.716  0.0662 -0.2849  0.5865
  285MOL0     H38409  10.173   5.373   9.642  0.2337 -0.0879  1.3073
  285MOL0     H38410  10.413   5.332   9.723 -0.9552 -0.1764  0.7875
  285MOL0     H38411  10.413   5.168   9.764 -2.5218 -0.3390 -1.3196
  285MOL0     H38412  10.591   5.116   9.593  1.1156  1.6860 -3.3637
  285MOL0     H38413  10.628   5.267   9.693  2.1235  2.7124 -1.4856
  285MOL0     H38414  10.574   5.407   9.513 -0.3124  0.1090 -0.3829
  285MOL0     H38415  10.519   5.273   9.422 -1.4483 -0.3187  1.8305
  285MOL0     H38416  10.815   5.311   9.493 -0.0466  1.1147 -2.1762
  285MOL0     H38417  10.758   5.163   9.428  1.3572  0.2979 -1.4627
  285MOL0     H38418  10.834   5.265   9.239 -1.2425 -0.7080 -1.3260
  285MOL0     H38419  10.662   5.291   9.229 -1.4325 -1.3074  3.1591
  285MOL0     H38420  10.678   5.533   9.322  0.1662  2.5375 -2.6259
  285MOL0     H38421  10.852   5.532   9.321  2.1115  2.3337 -4.7907
  285MOL0     H38422  10.807   5.634   9.140 -0.4300  1.2650 -3.3241
  285MOL0     H38423  10.695   5.528   9.068  1.8352  2.1529 -2.2010
  285MOL0     H38424  10.862   5.350   9.037  3.8738 -0.5769  0.3604
  285MOL0     H38425  10.894   5.486   8.945  1.0140 -0.5594 -0.1222
  285MOL0     H38426  11.054   5.372   9.314  1.2124 -1.9744 -0.1324
  285MOL0     H38427  11.334   5.437   9.366 -2.0857  1.3174 -1.0824
  285MOL0     H38428  11.311   5.264   9.341  0.1983  0.4752  1.0674
  285MOL0     H38429  11.477   5.287   9.145 -1.8442 -2.0091  1.2576
  285MOL0     H38430  11.494   5.457   9.172  1.9535 -0.2787 -0.8217
  285MOL0     H38431  11.531   5.255   9.388  2.9173 -1.6550  0.5333
  285MOL0     H38432  11.624   5.413   9.379 -0.0729  0.6119 -1.4557
  285MOL0     H38433  11.735   5.305   9.168 -1.3622  0.1884 -0.5850
  285MOL0     H38434  11.657   5.161   9.232  2.2438 -1.4810 -0.9941
  285MOL0     H38435  11.990   5.110   9.492 -4.4183 -3.0127  0.3080
  285MOL0     H38436  12.174   4.973   9.428  0.6108 -1.1113 -1.6264
  285MOL0     H38437  12.504   4.839   9.164 -0.6769 -0.2468 -3.0625
  285MOL0     H38438  12.708   4.689   9.160  2.2342  1.6908  2.8945
  285MOL0     H38439  12.799   4.499   9.338  0.8172 -0.0821 -0.5846
  285MOL0     H38440  12.685   4.376   9.380 -0.2278  2.7331  2.5993
  285MOL0     H38441  12.948   4.341   9.226 -1.4303 -0.4488 -1.1916
  285MOL0     H38442  12.889   4.285   9.387 -0.8345  0.3420  0.7620
  285MOL0     H38443  12.798   4.201   9.103 -0.7975 -0.1552 -0.3772
  285MOL0     H38444  12.893   4.101   9.222  0.2481 -0.0202  4.6362
  285MOL0     H38445  12.604   4.162   9.202 -1.2602 -1.5799 -0.2157
  285MOL0     H38446  12.673   4.135   9.361 -0.4235  2.5189 -0.4329
  285MOL0     H38447  12.771   3.910   9.265  0.4306  1.0993  0.9778
  285MOL0     H38448  12.664   3.952   9.120 -1.6459  3.3441  0.0425
  285MOL0     H38449  12.480   3.970   9.296  0.1420 -0.2609  0.7052
  285MOL0     H38450  12.515   3.807   9.238 -3.2946  1.3133  0.9716
  285MOL0     H38451  12.560   3.942   9.511  1.0533  0.6427 -0.2606
  285MOL0     H38452  12.692   3.843   9.464 -0.3288  0.7291  0.1798
  285MOL0     H38453  12.518   3.649   9.405 -0.9566 -0.8701  1.1266
  285MOL0     H38454  12.536   3.701   9.573 -2.0659 -0.2832  1.5015
  285MOL0     H38455  12.452   4.375   9.267 -3.1236  0.4625  1.8445
  285MOL0     H38456  12.267   4.533   9.313  1.1099  1.2049  3.4974
  285MOL0     H38457  12.055   5.018   9.012 -2.0269  0.6864  0.0450
  285MOL0     H38458  11.864   5.144   9.077 -0.4851  2.6145  1.7120
  285MOL0     H38459  10.202   4.965   9.541  3.9759  2.8271  0.6655
  285MOL0     H38460   9.954   4.927   9.578  1.7702 -0.9601 -0.6468
  285MOL0     H38461   9.463   5.322   9.773 -2.6427  0.4793 -0.0488
  285MOL0     H38462   9.246   5.230   9.820  1.0970  0.7279  2.0303
  285MOL0     H38463   9.067   5.152   9.763 -0.4497 -0.9633 -1.0481
  285MOL0     H38464   9.058   5.123   9.927  3.0970  3.2417 -2.2263
  285MOL0     H38465   8.943   4.930   9.725 -0.7618  0.4653  0.5043
  285MOL0     H38466   8.843   5.070   9.767 -2.2411 -3.3318 -2.0791
  285MOL0     H38467   8.958   4.885   9.992  0.4301  0.5493  0.5010
  285MOL0     H38468   8.832   4.828   9.877  0.4215 -1.9291  1.9984
  285MOL0     H38469   8.692   5.036   9.950 -1.0995 -1.8593 -0.3074
  285MOL0     H38470   8.717   4.913  10.077  3.2953 -2.2815 -0.2731
  285MOL0     H38471   8.947   5.222  10.240 -2.1780  0.4599  0.8842
  285MOL0     H38472   9.367   4.836   9.795 -1.7960  0.2512 -0.5663
  285MOL0     H38473   9.702   4.870   9.703  1.0122 -1.5267  0.9655
  285MOL0     H38474   9.696   4.908   9.870  3.1925  2.0311 -1.9614
  285MOL0     H38475   9.579   4.780   9.784 -2.0195  1.2244  2.2290
  286MOL0     O38476   4.238   1.646   1.323 -0.5472 -0.5868 -0.4117
  286MOL0     C38477   4.225   1.631   1.201  0.8762 -0.3005 -0.5823
  286MOL0     O38478   4.331   1.611   1.117  0.6554  0.6067 -0.5150
  286MOL0     C38479   4.457   1.588   1.156  0.6770 -0.2269 -0.1191
  286MOL0     C38480   4.525   1.635   1.274  0.2279 -0.0679  0.2876
  286MOL0     C38481   4.653   1.597   1.300 -0.1912  0.0314  0.1816
  286MOL0     C38482   4.719   1.499   1.216  0.0998 -0.5744  0.0030
  286MOL0     O38483   4.855   1.472   1.218 -0.1621 -0.1320 -0.5926
  286MOL0     C38484   4.930   1.479   1.341 -0.9068  0.7481  0.2492
  286MOL0     C38485   5.037   1.368   1.306  0.7631 -0.0701  0.2454
  286MOL0     C38486   4.977   1.231   1.315 -0.3125  0.5649  0.4723
  286MOL0     C38487   4.903   1.188   1.442 -0.0289  0.2489 -0.6457
  286MOL0     C38488   4.907   1.040   1.482  0.0772 -0.0698  0.1856
  286MOL0     C38489   4.844   1.020   1.623  0.1964 -0.0833 -1.3316
  286MOL0     C38490   4.693   1.035   1.646 -0.0739 -0.2627 -0.8186
  286MOL0     C38491   4.653   0.986   1.789  0.6054  0.4897 -0.2904
  286MOL0     N38492   4.507   0.991   1.805  0.0398  0.3615 -0.7294
  286MOL0     C38493   4.436   1.100   1.777  0.2749 -0.1113  1.0760
  286MOL0     C38494   4.307   1.051   1.784 -0.1907 -0.1792  0.1434
  286MOL0     C38495   4.176   1.136   1.762 -0.7669  0.5810  0.3808
  286MOL0     C38496   4.080   1.152   1.882 -0.1157 -0.0543  0.0075
  286MOL0     C38497   3.974   1.270   1.861 -0.0377  0.5338 -0.5307
  286MOL0     C38498   3.879   1.267   1.984  0.0053  0.3667 -0.6440
  286MOL0     O38499   3.784   1.377   1.982 -0.6502  0.1268  0.1713
  286MOL0     C38500   3.653   1.360   2.024  0.2338  0.5744  0.1514
  286MOL0     C38501   3.601   1.248   2.077 -0.6361 -0.1731 -0.8565
  286MOL0     C38502   3.465   1.238   2.111 -0.9919  0.3229  0.3715
  286MOL0     C38503   3.381   1.354   2.088 -0.3495  0.4030  0.6291
  286MOL0     C38504   3.240   1.354   2.126  0.5232 -0.6103 -1.1356
  286MOL0     O38505   3.184   1.238   2.164 -0.9636  0.1337  0.6119
  286MOL0     C38506   3.047   1.253   2.173  0.9694 -0.6495 -0.2900
  286MOL0     C38507   2.966   1.269   2.057  0.1611  0.1704  1.1461
  286MOL0     C38508   2.821   1.266   2.091  0.1093 -0.1920  0.6746
  286MOL0     C38509   2.773   1.271   2.216  0.0310  0.3795  0.2319
  286MOL0     O38510   2.637   1.276   2.230 -0.4490 -0.0171  0.3774
  286MOL0     C38511   2.590   1.399   2.291 -0.4823  0.1305  1.1223
  286MOL0     C38512   2.549   1.495   2.178 -0.2345  0.3057  1.0020
  286MOL0     C38513   2.475   1.621   2.219  1.1255 -0.4152 -0.6817
  286MOL0     C38514   2.453   1.709   2.093 -0.4890  0.1991  0.7449
  286MOL0     C38515   2.379   1.835   2.118 -0.3778  0.0748  0.0392
  286MOL0     C38516   2.229   1.812   2.155 -0.2055  0.7200 -0.4354
  286MOL0     C38517   2.163   1.953   2.174  0.7232  0.3834  0.1956
  286MOL0     C38518   2.010   1.947   2.163  0.0036 -0.1606 -0.6843
  286MOL0    Cl38519   1.920   2.107   2.166 -0.1712 -0.2653  0.0924
  286MOL0     C38520   2.854   1.255   2.327  0.5262  0.7493  0.0848
  286MOL0     C38521   2.992   1.251   2.303 -0.5453 -0.4434 -0.2542
  286MOL0     O38522   3.183   1.463   2.113 -0.3278 -0.6237 -0.2843
  286MOL0     C38523   3.439   1.474   2.030 -0.2791 -0.0328  0.2898
  286MOL0     C38524   3.567   1.466   1.998 -0.7622 -0.2755 -1.2234
  286MOL0     N38525   4.302   0.914   1.820  0.0441 -0.3551 -0.2731
  286MOL0     N38526   4.431   0.883   1.842 -0.0980  0.0947 -0.2724
  286MOL0     C38527   4.649   1.452   1.102 -0.3066 -0.7061 -0.2096
  286MOL0     C38528   4.520   1.495   1.073 -0.2609 -0.5252  0.7765
  286MOL0     C38529   4.082   1.626   1.148 -0.7537  0.8541 -0.8339
  286MOL0     C38530   4.067   1.582   1.013 -0.5866  0.0983  0.1621
  286MOL0     C38531   3.947   1.563   0.951  0.3735  0.4259 -0.6896
  286MOL0     C38532   3.830   1.624   1.013  0.0426  0.2235  0.4061
  286MOL0     O38533   3.715   1.645   0.956  0.9483 -0.6515 -0.6941
  286MOL0     C38534   3.688   1.607   0.817  0.5312 -0.4299 -0.5426
  286MOL0     C38535   3.691   1.734   0.740  0.4535  0.2662 -0.4805
  286MOL0     C38536   3.840   1.752   0.699  0.0719 -0.3094  0.6584
  286MOL0     C38537   3.855   1.831   0.555 -0.2365  0.6970  0.9374
  286MOL0     C38538   3.793   1.968   0.549  0.4422  1.1906 -0.4058
  286MOL0     C38539   3.736   2.070   0.541 -0.3957 -0.2565 -2.2320
  286MOL0     C38540   3.847   1.673   1.152 -0.4020  0.8210  1.2321
  286MOL0     C38541   3.963   1.671   1.213  0.1746 -0.4582 -0.3872
  286MOL0     C38542   3.969   1.750   1.352  0.7388 -0.2547  1.6678
  286MOL0     H38543   4.487   1.712   1.341  1.5078  0.5782  0.3056
  286MOL0     H38544   4.725   1.642   1.367 -0.8042  1.0217  0.2041
  286MOL0     H38545   4.979   1.574   1.364  3.7814 -1.5723  0.9861
  286MOL0     H38546   4.874   1.455   1.432 -1.8848  0.3974 -0.4315
  286MOL0     H38547   5.119   1.384   1.376 -0.8492  0.8767  2.0014
  286MOL0     H38548   5.075   1.384   1.204 -2.5188  1.8776 -0.8581
  286MOL0     H38549   5.070   1.175   1.301 -0.0324  1.1734 -0.1418
  286MOL0     H38550   4.915   1.217   1.225  1.0015  0.2506 -0.4156
  286MOL0     H38551   4.938   1.249   1.526  1.8122  1.2421 -2.0487
  286MOL0     H38552   4.800   1.221   1.426 -1.0441 -2.3288  0.0714
  286MOL0     H38553   4.850   0.975   1.415 -0.4022  0.1474  0.3798
  286MOL0     H38554   5.008   0.998   1.482 -1.0460 -3.0409 -0.7245
  286MOL0     H38555   4.871   0.920   1.657  0.0757  0.9473  2.1165
  286MOL0     H38556   4.881   1.097   1.690  0.9995  0.1063 -1.9807
  286MOL0     H38557   4.634   0.982   1.571 -0.9407 -3.4806  1.8838
  286MOL0     H38558   4.666   1.141   1.637 -1.4683 -0.5900 -0.6341
  286MOL0     H38559   4.699   0.890   1.817  0.1096  0.0211 -1.0498
  286MOL0     H38560   4.701   1.058   1.856  3.7450  0.6171 -2.4489
  286MOL0     H38561   4.478   1.199   1.759 -2.2205  0.9556  0.5654
  286MOL0     H38562   4.208   1.233   1.723  1.7707 -1.3505 -2.9251
  286MOL0     H38563   4.118   1.096   1.678 -0.6094  0.0416  0.5202
  286MOL0     H38564   4.031   1.056   1.901  0.7381 -0.2378  1.4372
  286MOL0     H38565   4.131   1.185   1.973 -2.8268  3.2162  0.5565
  286MOL0     H38566   3.915   1.258   1.770 -1.6261  0.2047  0.4823
  286MOL0     H38567   4.025   1.366   1.863  0.7102  0.1661 -1.5565
  286MOL0     H38568   3.935   1.283   2.077 -0.9722  1.7338 -0.2525
  286MOL0     H38569   3.827   1.171   1.989  0.4352  0.1686  0.2412
  286MOL0     H38570   3.657   1.156   2.096 -0.8785 -0.0171  0.7463
  286MOL0     H38571   3.419   1.144   2.140  0.6838 -0.2496  1.2973
  286MOL0     H38572   3.005   1.266   1.956  1.5539 -0.0268  1.6747
  286MOL0     H38573   2.749   1.262   2.010 -1.0485  0.2800  1.6533
  286MOL0     H38574   2.501   1.376   2.351 -0.7531  2.0722  1.5229
  286MOL0     H38575   2.667   1.445   2.353  0.1251 -0.4943  0.8487
  286MOL0     H38576   2.638   1.522   2.121 -0.6152 -1.9033 -0.7583
  286MOL0     H38577   2.485   1.437   2.111  2.2287 -1.3106 -0.1014
  286MOL0     H38578   2.383   1.592   2.271  1.2373 -0.8558 -0.7252
  286MOL0     H38579   2.528   1.691   2.284  1.5352  1.6673 -3.0930
  286MOL0     H38580   2.402   1.651   2.015 -1.4936 -0.4136  1.8305
  286MOL0     H38581   2.552   1.727   2.050 -0.9093 -0.6466 -0.6271
  286MOL0     H38582   2.391   1.893   2.026 -1.1694 -1.1266 -0.8635
  286MOL0     H38583   2.437   1.874   2.202  1.6583 -3.5821  0.5440
  286MOL0     H38584   2.171   1.754   2.082 -1.2352  0.6231  0.4248
  286MOL0     H38585   2.218   1.761   2.252  0.1222  1.6612  0.1089
  286MOL0     H38586   2.186   2.008   2.082 -3.4943  2.7535  0.2971
  286MOL0     H38587   2.201   2.010   2.260  2.1549  2.4294 -1.6842
  286MOL0     H38588   1.984   1.897   2.069 -0.0808 -2.6253  0.5821
  286MOL0     H38589   1.976   1.887   2.247  0.1866  1.6789  0.7560
  286MOL0     H38590   2.810   1.258   2.425  1.3172  0.8095  0.4494
  286MOL0     H38591   3.065   1.230   2.380 -0.4865 -1.8734 -0.6709
  286MOL0     H38592   3.395   1.572   2.012  0.9618  0.3810 -0.6157
  286MOL0     H38593   3.601   1.547   1.933  1.1599 -2.2827 -2.8839
  286MOL0     H38594   4.710   1.389   1.038 -0.1017  0.2762 -1.0051
  286MOL0     H38595   4.467   1.448   0.991  2.9654 -2.2458 -0.4736
  286MOL0     H38596   4.158   1.567   0.957 -0.6758  1.0971 -0.2688
  286MOL0     H38597   3.945   1.521   0.851  2.0111  4.9215 -2.8848
  286MOL0     H38598   3.593   1.557   0.795  0.1072  0.6964 -1.3614
  286MOL0     H38599   3.754   1.526   0.784 -0.1952 -1.4021  0.3107
  286MOL0     H38600   3.646   1.820   0.791  3.1250  1.9306 -0.7473
  286MOL0     H38601   3.622   1.727   0.656 -1.3936  4.9560  0.3139
  286MOL0     H38602   3.883   1.652   0.685 -4.8416 -2.4747 -1.3773
  286MOL0     H38603   3.885   1.811   0.779  2.4744  0.7607 -1.3620
  286MOL0     H38604   3.961   1.843   0.533 -0.7135  2.0805 -0.7532
  286MOL0     H38605   3.810   1.777   0.471 -2.8740  2.1128  1.3089
  286MOL0     H38606   3.673   2.156   0.534 -1.7156 -1.1958 -2.2242
  286MOL0     H38607   3.756   1.721   1.188 -0.1090  2.3746  0.0175
  286MOL0     H38608   3.868   1.764   1.393 -0.1251 -0.8983 -0.1348
  286MOL0     H38609   4.007   1.675   1.423 -2.6954 -2.3918  1.4901
  286MOL0     H38610   4.032   1.837   1.337 -1.3548  0.7523 -3.0642
  287MOL0     O38611   9.888  10.748   1.578 -0.1318 -1.2346  0.2866
  287MOL0     C38612  10.006  10.775   1.575 -0.9179  0.9339 -0.3949
  287MOL0     O38613  10.072  10.816   1.684 -0.7495  0.3888 -0.0883
  287MOL0     C38614   9.996  10.848   1.796  0.2680  0.8706  0.8339
  287MOL0     C38615   9.951  10.756   1.884 -0.7571 -0.5361  0.5521
  287MOL0     C38616   9.880  10.803   1.992  0.1406 -0.4986  0.3829
  287MOL0     C38617   9.832  10.936   2.003  0.2538  0.6433 -0.4437
  287MOL0     O38618   9.752  10.985   2.103 -0.1963 -0.3366 -0.0166
  287MOL0     C38619   9.644  10.902   2.147  0.2739  1.1798  0.8755
  287MOL0     C38620   9.640  10.898   2.303 -0.0524  0.0438  0.9794
  287MOL0     C38621   9.626  11.033   2.351  0.0829 -0.0550  0.0266
  287MOL0     C38622   9.478  11.084   2.361  0.3900  0.5474 -0.1740
  287MOL0     C38623   9.442  11.191   2.457  0.8486 -0.3392 -0.0368
  287MOL0     C38624   9.522  11.320   2.450  1.1678  0.2641  0.8518
  287MOL0     C38625   9.470  11.410   2.551  0.5030  1.1428 -0.5639
  287MOL0     C38626   9.549  11.533   2.533 -0.1169 -0.5979  0.3061
  287MOL0     N38627   9.552  11.633   2.643 -0.7073 -0.1863 -0.0640
  287MOL0     C38628   9.591  11.767   2.637 -0.0219 -0.3328  0.1981
  287MOL0     C38629   9.560  11.819   2.761 -0.1011 -0.2478 -0.4543
  287MOL0     C38630   9.605  11.952   2.812 -0.9444 -0.7549 -0.7524
  287MOL0     C38631   9.481  12.044   2.855  1.1733  0.0386 -0.5255
  287MOL0     C38632   9.503  12.105   2.996 -0.0738 -0.5639 -0.3642
  287MOL0     C38633   9.362  12.168   3.038  0.1779  0.1403 -0.3815
  287MOL0     O38634   9.332  12.134   3.181 -0.2678  0.1745  0.0664
  287MOL0     C38635   9.300  12.006   3.213 -0.0132 -0.3660  0.1114
  287MOL0     C38636   9.317  11.959   3.346  0.0171  0.1104  0.6007
  287MOL0     C38637   9.325  11.826   3.384 -0.1439  0.5676 -0.1942
  287MOL0     C38638   9.292  11.732   3.283  0.1309 -0.0038 -0.1743
  287MOL0     C38639   9.260  11.595   3.314 -0.2479  0.2665  0.3594
  287MOL0     O38640   9.198  11.512   3.222  0.9936 -0.4281 -0.1036
  287MOL0     C38641   9.175  11.377   3.246 -0.0824 -0.5461  0.3208
  287MOL0     C38642   9.289  11.308   3.279 -0.0210  0.4763  0.0770
  287MOL0     C38643   9.286  11.166   3.293 -0.9374 -0.4411  0.0485
  287MOL0     C38644   9.169  11.102   3.260  0.6079 -0.3797  0.5262
  287MOL0     O38645   9.159  10.964   3.251 -0.2415 -0.2820  0.2466
  287MOL0     C38646   9.218  10.919   3.122 -0.6049 -0.3442 -0.6266
  287MOL0     C38647   9.220  10.769   3.100 -0.1334 -0.6164  0.0548
  287MOL0     C38648   9.083  10.713   3.102  0.3296 -0.2030 -0.8611
  287MOL0     C38649   9.019  10.707   2.961 -0.0110 -0.4330 -0.5242
  287MOL0     C38650   9.081  10.586   2.873 -0.1048  0.0867 -0.5874
  287MOL0     C38651   9.066  10.596   2.716 -0.6277 -0.7265  0.3270
  287MOL0     C38652   8.926  10.575   2.658  0.5612 -0.3875  0.0341
  287MOL0     C38653   8.875  10.436   2.630  0.0953 -0.0043  0.0112
  287MOL0    Cl38654   9.000  10.344   2.554 -0.3228 -0.5411  0.0448
  287MOL0     C38655   9.053  11.177   3.230 -0.1808 -0.1122  0.2415
  287MOL0     C38656   9.051  11.314   3.220  0.2792 -0.4090 -0.4552
  287MOL0     O38657   9.281  11.559   3.435 -0.3241 -0.3899  0.2884
  287MOL0     C38658   9.264  11.773   3.154  0.6645 -0.0729  0.9135
  287MOL0     C38659   9.275  11.908   3.121  0.5786 -0.0581  0.0274
  287MOL0     N38660   9.532  11.713   2.844  0.4664 -0.5183  0.1619
  287MOL0     N38661   9.514  11.606   2.771 -0.0549  0.2927  0.7445
  287MOL0     C38662   9.876  11.030   1.906 -0.3246  0.1888 -0.5377
  287MOL0     C38663   9.954  10.990   1.803 -0.2768 -0.0646  1.3483
  287MOL0     C38664  10.080  10.744   1.444 -0.4589 -0.4973 -0.1840
  287MOL0     C38665  10.215  10.788   1.437 -0.0289  1.0150  0.2301
  287MOL0     C38666  10.298  10.760   1.327 -0.4597 -1.1573 -0.3730
  287MOL0     C38667  10.240  10.712   1.206  0.5149 -0.6157  0.8379
  287MOL0     O38668  10.302  10.706   1.080  0.4392  0.8727  0.1667
  287MOL0     C38669  10.442  10.734   1.074  1.1258 -1.0046  0.4373
  287MOL0     C38670  10.510  10.717   0.934 -0.4313 -0.8069 -0.5701
  287MOL0     C38671  10.656  10.773   0.941  0.4614  0.0773  0.9263
  287MOL0     C38672  10.749  10.724   0.836 -0.2079 -0.4009  0.2555
  287MOL0     C38673  10.891  10.769   0.851 -0.1807  0.2278  0.3676
  287MOL0     C38674  10.995  10.802   0.902  0.5520  0.7313 -0.1195
  287MOL0     C38675  10.110  10.673   1.207  0.8931  0.0138 -0.3229
  287MOL0     C38676  10.035  10.680   1.325  0.0487 -0.7778 -0.7944
  287MOL0     C38677   9.891  10.633   1.316 -0.3375  1.1080 -1.0582
  287MOL0     H38678   9.989  10.657   1.861  3.4859  0.4905  2.2504
  287MOL0     H38679   9.846  10.734   2.068 -0.7984 -1.3982 -0.8264
  287MOL0     H38680   9.551  10.937   2.102 -0.9236 -0.0261  2.2942
  287MOL0     H38681   9.654  10.800   2.111  1.7154  1.6328 -0.0969
  287MOL0     H38682   9.740  10.864   2.330 -0.8439 -3.2563  0.2400
  287MOL0     H38683   9.555  10.842   2.345  0.0972 -1.2360 -0.3169
  287MOL0     H38684   9.672  11.119   2.302 -2.2320  0.6439 -1.0890
  287MOL0     H38685   9.674  11.028   2.449  1.6714  2.0290 -0.5825
  287MOL0     H38686   9.465  11.132   2.264  2.7514 -1.2638 -1.4966
  287MOL0     H38687   9.397  11.013   2.380 -0.4878  1.2398 -1.2197
  287MOL0     H38688   9.333  11.202   2.456  0.3224 -2.7196  4.4056
  287MOL0     H38689   9.467  11.148   2.555 -0.0885  2.5750  1.5962
  287MOL0     H38690   9.628  11.290   2.452  0.4014 -4.5093 -4.0546
  287MOL0     H38691   9.499  11.358   2.350 -1.5889  0.4472  1.4888
  287MOL0     H38692   9.488  11.367   2.650 -2.1680  1.3339  0.0680
  287MOL0     H38693   9.364  11.422   2.527 -0.2083 -2.3936  0.3243
  287MOL0     H38694   9.651  11.498   2.518 -0.0716  0.2125 -1.5865
  287MOL0     H38695   9.522  11.584   2.440  1.6323  0.9261  0.5773
  287MOL0     H38696   9.643  11.816   2.556 -1.0174  0.6972  0.1667
  287MOL0     H38697   9.670  11.920   2.894  2.1010 -0.6336 -2.9183
  287MOL0     H38698   9.668  12.005   2.739  0.6995 -0.6516  0.6773
  287MOL0     H38699   9.467  12.125   2.783  1.3602  0.6649  0.1282
  287MOL0     H38700   9.391  11.982   2.861  0.6564  0.7717 -0.5863
  287MOL0     H38701   9.574  12.188   2.993 -0.6988  0.1126  1.5350
  287MOL0     H38702   9.536  12.020   3.056 -0.6958 -1.6972 -1.5915
  287MOL0     H38703   9.274  12.139   2.979 -0.0889 -0.5993  0.3551
  287MOL0     H38704   9.371  12.277   3.037 -1.3545  0.3267  0.9775
  287MOL0     H38705   9.315  12.033   3.425 -2.1212 -1.2024  1.8653
  287MOL0     H38706   9.335  11.787   3.485 -1.9762 -0.0791 -0.2327
  287MOL0     H38707   9.387  11.355   3.289  0.7638 -1.1711  0.6257
  287MOL0     H38708   9.371  11.106   3.326 -0.2293  1.0551  1.0249
  287MOL0     H38709   9.167  10.967   3.038  1.4511  0.3836 -1.5238
  287MOL0     H38710   9.319  10.960   3.127 -0.8922  0.2049  1.9981
  287MOL0     H38711   9.261  10.753   3.000  1.1823 -0.9820  0.6260
  287MOL0     H38712   9.285  10.722   3.175 -2.0487 -1.7362  1.0814
  287MOL0     H38713   9.095  10.612   3.143  2.0686  0.5087  0.5024
  287MOL0     H38714   9.004  10.760   3.161  0.2215  0.4638 -1.5238
  287MOL0     H38715   9.032  10.805   2.914  1.2796  0.7215  2.0231
  287MOL0     H38716   8.911  10.689   2.957 -0.2342  0.9485 -1.8061
  287MOL0     H38717   9.032  10.494   2.905 -1.9143  0.6922 -1.5018
  287MOL0     H38718   9.190  10.573   2.880 -0.1661  0.2382  0.9796
  287MOL0     H38719   9.085  10.701   2.695 -1.7581 -0.7856 -1.0949
  287MOL0     H38720   9.142  10.530   2.675 -0.1343 -0.1619  0.3257
  287MOL0     H38721   8.927  10.635   2.567 -0.3002  0.5027  0.5896
  287MOL0     H38722   8.852  10.631   2.715  1.2934  1.8079 -1.0475
  287MOL0     H38723   8.846  10.379   2.718 -1.3068 -1.6878 -1.4416
  287MOL0     H38724   8.796  10.441   2.554 -1.9245 -3.0502  1.7194
  287MOL0     H38725   8.961  11.121   3.220 -1.0955  1.6371 -2.1794
  287MOL0     H38726   8.960  11.366   3.194 -0.1479 -0.5060  0.8219
  287MOL0     H38727   9.228  11.705   3.078  0.9933 -1.8590  2.3033
  287MOL0     H38728   9.256  11.928   3.016  1.0450  1.1122  0.1514
  287MOL0     H38729   9.845  11.134   1.906 -2.8729 -0.4650 -2.0207
  287MOL0     H38730   9.977  11.050   1.715 -0.1520 -1.1440  0.6250
  287MOL0     H38731  10.263  10.833   1.524  3.9625  1.2519 -1.8334
  287MOL0     H38732  10.400  10.798   1.331 -0.8287  0.2546 -2.3266
  287MOL0     H38733  10.497  10.692   1.159  0.9031  1.9232  2.1462
  287MOL0     H38734  10.457  10.839   1.097  1.9629 -0.8240 -0.8464
  287MOL0     H38735  10.449  10.761   0.854 -0.5720  0.8616  0.3990
  287MOL0     H38736  10.512  10.609   0.917 -0.9075 -1.5313  3.0318
  287MOL0     H38737  10.691  10.742   1.040  1.8812 -1.7848 -0.1034
  287MOL0     H38738  10.644  10.881   0.931 -2.2594 -0.2858 -0.7370
  287MOL0     H38739  10.756  10.615   0.834  2.5038 -0.3453  1.6383
  287MOL0     H38740  10.711  10.747   0.736  1.0767 -2.0187 -0.6623
  287MOL0     H38741  11.084  10.830   0.954  0.5092  1.0550 -0.2144
  287MOL0     H38742  10.074  10.617   1.121  3.5118 -0.0142 -1.4926
  287MOL0     H38743   9.891  10.556   1.394  3.7352  1.5873 -0.3390
  287MOL0     H38744   9.815  10.711   1.326  0.1605  1.6152 -1.1972
  287MOL0     H38745   9.866  10.604   1.214 -0.1223  1.2164 -1.1414
  288MOL0     O38746   5.634   1.316   4.831 -0.0060 -0.3368  0.2700
  288MOL0     C38747   5.576   1.378   4.920  0.2273 -0.8572 -0.0401
  288MOL0     O38748   5.443   1.371   4.963  0.0542  0.3293  0.2168
  288MOL0     C38749   5.353   1.263   4.944  0.3139 -0.7279  0.3100
  288MOL0     C38750   5.222   1.264   5.001 -0.4056  0.4008 -0.0944
  288MOL0     C38751   5.142   1.146   4.993  0.2807 -0.1615 -1.0384
  288MOL0     C38752   5.173   1.035   4.915  1.3463  0.1219  0.4064
  288MOL0     O38753   5.074   0.936   4.900 -0.9542 -0.2822  0.0938
  288MOL0     C38754   5.131   0.803   4.898  0.0765  0.2542  0.7278
  288MOL0     C38755   5.026   0.689   4.907 -0.1142  0.5425 -0.5476
  288MOL0     C38756   4.961   0.692   5.043  0.0014 -0.4505  0.1694
  288MOL0     C38757   4.869   0.576   5.065 -0.1345 -0.5261 -0.5677
  288MOL0     C38758   4.766   0.608   5.172 -0.5658 -0.7803 -0.4458
  288MOL0     C38759   4.656   0.494   5.180 -0.0616 -0.4918  0.8544
  288MOL0     C38760   4.584   0.451   5.046  0.6033 -0.2727  0.1232
  288MOL0     C38761   4.508   0.572   4.979 -0.5349 -0.1245 -0.1082
  288MOL0     N38762   4.408   0.623   5.063  0.2315 -0.1635 -0.1913
  288MOL0     C38763   4.276   0.582   5.067 -0.0268  1.0737 -0.3447
  288MOL0     C38764   4.207   0.661   5.148 -0.3116  1.1672 -0.0969
  288MOL0     C38765   4.072   0.629   5.208 -0.8576  0.0057  0.0261
  288MOL0     C38766   4.074   0.481   5.271  0.3300 -0.7727 -0.2165
  288MOL0     C38767   3.945   0.430   5.323 -0.5306 -0.1177  0.5747
  288MOL0     C38768   3.951   0.285   5.368  0.8673 -0.5638  0.4029
  288MOL0     O38769   3.847   0.258   5.458  0.0392  0.8744  0.0034
  288MOL0     C38770   3.795   0.124   5.449 -0.0471  0.0722 -0.6875
  288MOL0     C38771   3.849   0.006   5.392  0.3521  0.7894  1.3204
  288MOL0     C38772   3.777  -0.117   5.392  0.6720 -0.6802  0.5051
  288MOL0     C38773   3.652  -0.118   5.454 -0.6579 -0.5989  0.4925
  288MOL0     C38774   3.577  -0.245   5.467 -0.2738  0.5814 -0.9111
  288MOL0     O38775   3.664  -0.345   5.500 -0.6782  0.7864  0.2533
  288MOL0     C38776   3.609  -0.469   5.508  0.0456  0.4207  0.3494
  288MOL0     C38777   3.548  -0.541   5.407 -0.7458  0.1962 -0.5932
  288MOL0     C38778   3.502  -0.673   5.426  0.3600  0.0178  0.8356
  288MOL0     C38779   3.490  -0.727   5.554  0.4800  0.3294 -0.3443
  288MOL0     O38780   3.429  -0.841   5.596  0.6247 -0.2357 -0.6621
  288MOL0     C38781   3.360  -0.915   5.493 -0.9210 -0.1182  0.0730
  288MOL0     C38782   3.293  -1.042   5.560  0.0478 -0.0561 -1.4366
  288MOL0     C38783   3.389  -1.147   5.609  0.5778  0.4510 -0.3402
  288MOL0     C38784   3.482  -1.105   5.724  0.6818 -0.2303 -0.5576
  288MOL0     C38785   3.567  -1.219   5.779  0.0164 -0.3523  0.8443
  288MOL0     C38786   3.516  -1.260   5.922  0.0711 -0.4689 -0.1056
  288MOL0     C38787   3.560  -1.402   5.950 -0.3049  0.6706 -0.5638
  288MOL0     C38788   3.516  -1.452   6.086 -0.5870 -0.4031 -0.3224
  288MOL0    Cl38789   3.619  -1.579   6.166  0.1126 -0.0236 -0.2841
  288MOL0     C38790   3.546  -0.657   5.657 -0.1187 -0.7132 -1.0620
  288MOL0     C38791   3.617  -0.534   5.635 -0.1989  0.4987 -0.0176
  288MOL0     O38792   3.452  -0.255   5.462  0.6071  0.6127  0.1517
  288MOL0     C38793   3.593  -0.004   5.509 -0.1296 -0.4504 -0.5311
  288MOL0     C38794   3.669   0.117   5.510  0.2341  0.6936 -0.2063
  288MOL0     N38795   4.298   0.757   5.193  0.4410  0.4388  0.2833
  288MOL0     N38796   4.414   0.730   5.147 -0.4568  0.1926  0.5209
  288MOL0     C38797   5.291   1.043   4.850 -0.2084  0.0876 -0.2280
  288MOL0     C38798   5.381   1.151   4.866 -1.3891 -0.0511  0.2906
  288MOL0     C38799   5.654   1.491   4.982 -1.0327  0.5037 -0.2751
  288MOL0     C38800   5.594   1.617   4.988 -0.2265  0.6642 -0.7804
  288MOL0     C38801   5.657   1.733   5.043 -1.3215  0.1704  0.0214
  288MOL0     C38802   5.788   1.726   5.078 -0.5092 -0.1672  0.1747
  288MOL0     O38803   5.846   1.848   5.110 -0.7781  0.2236  0.1466
  288MOL0     C38804   5.981   1.854   5.164 -0.1673  0.4614 -0.5017
  288MOL0     C38805   5.984   1.926   5.301  0.5961  0.5199  0.1844
  288MOL0     C38806   5.942   2.072   5.289  0.6394  0.5732  0.2972
  288MOL0     C38807   6.062   2.175   5.254  0.5662 -0.2648  1.0447
  288MOL0     C38808   5.996   2.311   5.247 -0.0020  0.9727 -0.2434
  288MOL0     C38809   5.955   2.423   5.223 -0.1453 -0.7338 -0.5745
  288MOL0     C38810   5.852   1.602   5.058 -0.0203 -0.3537  0.1031
  288MOL0     C38811   5.793   1.486   5.005  0.1651 -0.3349  0.1600
  288MOL0     C38812   5.871   1.354   5.010  0.0077  0.1343  0.0082
  288MOL0     H38813   5.186   1.347   5.061  1.3216 -0.3559  2.1399
  288MOL0     H38814   5.051   1.169   5.047  0.6903 -0.9293  0.0010
  288MOL0     H38815   5.180   0.782   4.802 -1.0435 -2.6755  0.6922
  288MOL0     H38816   5.192   0.793   4.989  0.0144  2.2007  1.0242
  288MOL0     H38817   5.058   0.587   4.884 -4.0811 -0.7174 -1.3420
  288MOL0     H38818   4.954   0.716   4.830 -0.0695  2.1634 -0.0615
  288MOL0     H38819   4.895   0.778   5.046  1.1492  0.4329  0.9841
  288MOL0     H38820   5.037   0.691   5.122  1.4595  0.6147 -1.1487
  288MOL0     H38821   4.820   0.572   4.968  0.4416 -0.9639 -0.8478
  288MOL0     H38822   4.917   0.478   5.077  1.5960  0.2666 -0.7000
  288MOL0     H38823   4.818   0.616   5.268  3.6219  1.9430 -2.6021
  288MOL0     H38824   4.725   0.709   5.158 -0.0764 -0.5303 -0.1116
  288MOL0     H38825   4.717   0.409   5.212  1.6531 -0.6178 -2.2749
  288MOL0     H38826   4.587   0.534   5.254 -0.4546  2.4892 -0.9420
  288MOL0     H38827   4.521   0.367   5.076  0.4045 -0.2407 -0.1984
  288MOL0     H38828   4.651   0.407   4.971  1.4011 -1.0314  1.2469
  288MOL0     H38829   4.579   0.652   4.956 -0.5998  1.1642  3.5525
  288MOL0     H38830   4.455   0.538   4.890 -0.9975 -1.0357  0.5033
  288MOL0     H38831   4.241   0.491   5.020  1.5172  0.5437 -0.5434
  288MOL0     H38832   4.038   0.714   5.268  0.0759  1.0450 -0.8745
  288MOL0     H38833   4.008   0.630   5.120 -0.1355 -0.8848 -0.5267
  288MOL0     H38834   4.093   0.411   5.189 -2.3194 -1.3144 -0.4467
  288MOL0     H38835   4.156   0.483   5.344  1.2417  0.8723 -1.2358
  288MOL0     H38836   3.883   0.443   5.233  0.1621  0.7091  0.2002
  288MOL0     H38837   3.897   0.497   5.394 -1.4800  0.2775 -0.3990
  288MOL0     H38838   4.048   0.279   5.417  1.3474  0.7011 -0.3742
  288MOL0     H38839   3.951   0.219   5.281 -3.5332  1.3706 -1.3519
  288MOL0     H38840   3.947   0.001   5.346 -0.3941  1.2715 -0.3788
  288MOL0     H38841   3.813  -0.195   5.326  3.0866 -2.0801  3.2009
  288MOL0     H38842   3.541  -0.477   5.320  0.1498  5.0989  2.5233
  288MOL0     H38843   3.474  -0.717   5.331 -1.5213  1.4376  0.6780
  288MOL0     H38844   3.287  -0.851   5.444  1.1119  1.4611 -1.0474
  288MOL0     H38845   3.431  -0.955   5.420  1.3793  0.7015  1.7400
  288MOL0     H38846   3.229  -1.001   5.639 -0.3165 -0.4255 -1.5357
  288MOL0     H38847   3.222  -1.081   5.486 -0.3403  0.3061 -1.2596
  288MOL0     H38848   3.325  -1.228   5.642 -2.3970  2.0802 -1.6759
  288MOL0     H38849   3.440  -1.186   5.520 -0.7142 -0.3229 -0.7626
  288MOL0     H38850   3.421  -1.055   5.799  0.8088  1.3921 -1.4896
  288MOL0     H38851   3.551  -1.034   5.677  0.8556 -1.2285 -1.9060
  288MOL0     H38852   3.670  -1.183   5.786  0.0517 -0.6528  2.3167
  288MOL0     H38853   3.565  -1.307   5.714 -0.1158 -0.2206  0.6703
  288MOL0     H38854   3.563  -1.192   5.993 -0.6326  0.6512 -0.6698
  288MOL0     H38855   3.408  -1.248   5.932  0.1644 -0.1327  0.5553
  288MOL0     H38856   3.667  -1.388   5.962 -0.3979  1.4697 -0.6078
  288MOL0     H38857   3.532  -1.472   5.871  4.5560 -2.4860  0.1683
  288MOL0     H38858   3.522  -1.362   6.148  0.6859  2.3652 -4.0667
  288MOL0     H38859   3.409  -1.476   6.087 -0.8903  0.2200 -4.1525
  288MOL0     H38860   3.539  -0.694   5.759 -0.0638 -1.1220 -1.2017
  288MOL0     H38861   3.661  -0.482   5.720  2.9531 -2.5079  0.4116
  288MOL0     H38862   3.501   0.006   5.565  0.0352 -1.6375 -0.0271
  288MOL0     H38863   3.620   0.193   5.571 -0.6251 -1.4189  1.8756
  288MOL0     H38864   5.317   0.956   4.791  1.5214  0.9666 -0.8308
  288MOL0     H38865   5.466   1.151   4.798 -0.3896  3.4837  1.3429
  288MOL0     H38866   5.490   1.620   4.956 -0.1465  5.2572 -1.2988
  288MOL0     H38867   5.597   1.824   5.040  1.2693  2.1276  2.3347
  288MOL0     H38868   6.052   1.905   5.098 -0.9185 -1.8597 -3.3111
  288MOL0     H38869   6.014   1.756   5.198 -0.6408  1.1858  2.3069
  288MOL0     H38870   6.073   1.919   5.363  3.2882 -0.6196 -3.4502
  288MOL0     H38871   5.910   1.878   5.367  0.0911  1.5820  0.4159
  288MOL0     H38872   5.905   2.103   5.387 -2.3394 -0.2507 -0.4488
  288MOL0     H38873   5.867   2.085   5.210  0.8474 -0.6633 -0.1332
  288MOL0     H38874   6.124   2.170   5.344 -2.4464 -0.7357  3.2373
  288MOL0     H38875   6.121   2.142   5.168 -0.5964 -1.7267  0.7717
  288MOL0     H38876   5.900   2.514   5.212  0.6717 -0.2516 -0.7596
  288MOL0     H38877   5.956   1.589   5.085  0.1053 -0.6077 -0.4780
  288MOL0     H38878   5.813   1.271   5.051  3.7097 -2.5470  0.2962
  288MOL0     H38879   5.909   1.321   4.913 -2.3429 -1.7271 -0.3732
  288MOL0     H38880   5.948   1.357   5.087 -1.9598 -0.6431  2.1062
  289MOL0     O38881   6.320   4.877   4.376  0.1754 -0.7152  0.6357
  289MOL0     C38882   6.413   4.862   4.294  1.3112  0.7370 -0.4585
  289MOL0     O38883   6.529   4.929   4.290 -0.5827 -0.3017  0.0866
  289MOL0     C38884   6.546   4.999   4.406 -0.0799  0.7177  0.6620
  289MOL0     C38885   6.598   4.935   4.514 -0.3668  0.3829  0.9015
  289MOL0     C38886   6.611   4.995   4.636  0.6485 -0.2963  0.4045
  289MOL0     C38887   6.564   5.124   4.663 -0.7770  0.3388  0.2938
  289MOL0     O38888   6.553   5.180   4.786  0.2905 -1.1179 -0.1960
  289MOL0     C38889   6.580   5.092   4.891 -0.0491  0.2226 -0.3053
  289MOL0     C38890   6.531   5.165   5.019  0.2268  0.1986 -0.8482
  289MOL0     C38891   6.514   5.076   5.140 -0.8380 -0.2425 -0.1586
  289MOL0     C38892   6.428   5.126   5.247  0.4158 -1.0975 -0.5755
  289MOL0     C38893   6.414   5.054   5.382 -0.3691  0.8770  0.3250
  289MOL0     C38894   6.391   5.151   5.489 -0.5332 -1.1343  0.0243
  289MOL0     C38895   6.245   5.205   5.486  0.0018  0.2462 -0.5376
  289MOL0     C38896   6.225   5.325   5.580 -0.3269  0.6816 -0.0640
  289MOL0     N38897   6.240   5.295   5.727  1.3337  0.6267  0.3645
  289MOL0     C38898   6.146   5.215   5.803  0.3510  0.0322  0.1830
  289MOL0     C38899   6.192   5.223   5.929  1.1082  0.1511  0.4809
  289MOL0     C38900   6.123   5.193   6.062  0.1084 -0.0866 -0.8330
  289MOL0     C38901   6.040   5.317   6.113  0.3920 -0.9018 -0.4722
  289MOL0     C38902   5.939   5.265   6.197  0.4542  0.3267  0.8875
  289MOL0     C38903   5.853   5.387   6.220  0.5172 -0.4006 -0.5450
  289MOL0     O38904   5.717   5.344   6.270  0.8956 -0.0125 -0.6189
  289MOL0     C38905   5.705   5.294   6.397  1.2331  0.0617 -0.0294
  289MOL0     C38906   5.580   5.224   6.428 -0.5774  0.2828 -0.2112
  289MOL0     C38907   5.565   5.176   6.560  0.8680 -0.3520 -0.1179
  289MOL0     C38908   5.655   5.201   6.662 -0.8207 -0.9020  0.1653
  289MOL0     C38909   5.622   5.143   6.797  0.8322  0.5816 -0.0820
  289MOL0     O38910   5.522   5.048   6.810 -0.0290 -0.3947  0.3195
  289MOL0     C38911   5.472   5.021   6.932 -0.1040  0.9728  0.4236
  289MOL0     C38912   5.453   4.886   6.956  0.2597  0.0805 -0.6835
  289MOL0     C38913   5.416   4.832   7.081 -0.5467 -0.4236 -0.6941
  289MOL0     C38914   5.400   4.917   7.189  0.1857  0.9172  0.3954
  289MOL0     O38915   5.390   4.857   7.315 -0.2904 -0.4008 -0.0332
  289MOL0     C38916   5.386   4.934   7.440  0.1452  0.1658  0.2562
  289MOL0     C38917   5.354   4.861   7.571 -0.4068 -0.1998  0.5282
  289MOL0     C38918   5.235   4.749   7.561 -0.2110  0.1005  0.2498
  289MOL0     C38919   5.230   4.651   7.686  0.5503 -0.2307 -0.0095
  289MOL0     C38920   5.092   4.585   7.716  0.2586  0.9271 -0.0904
  289MOL0     C38921   5.040   4.525   7.590  0.0370 -0.2998  0.3560
  289MOL0     C38922   4.919   4.434   7.610 -0.2830 -0.4594 -0.2584
  289MOL0     C38923   4.865   4.377   7.477 -0.0191  0.9554  0.7630
  289MOL0    Cl38924   4.783   4.216   7.499  0.4650 -0.5117 -0.2368
  289MOL0     C38925   5.391   5.056   7.160  0.3068  0.1796  0.4910
  289MOL0     C38926   5.427   5.104   7.025  0.2692 -0.7431  0.4186
  289MOL0     O38927   5.699   5.166   6.893  0.7573  0.7602  0.2999
  289MOL0     C38928   5.772   5.268   6.633  0.8407  0.8655  0.6952
  289MOL0     C38929   5.798   5.308   6.499 -0.1674  0.1650  0.3207
  289MOL0     N38930   6.308   5.292   5.923  0.6263 -0.7037  0.6821
  289MOL0     N38931   6.333   5.344   5.805 -0.4169 -0.1203 -0.4725
  289MOL0     C38932   6.537   5.198   4.549  0.1653  0.0657  0.5004
  289MOL0     C38933   6.521   5.135   4.418  0.2079  0.3998 -0.4908
  289MOL0     C38934   6.386   4.785   4.172  0.5090 -0.2076  0.2437
  289MOL0     C38935   6.477   4.794   4.065  0.6179  0.0421 -0.8781
  289MOL0     C38936   6.438   4.731   3.943 -0.3631 -0.9841 -0.3972
  289MOL0     C38937   6.330   4.647   3.927  0.3860  0.2417 -0.4127
  289MOL0     O38938   6.314   4.578   3.801 -0.7259  0.1709  0.1378
  289MOL0     C38939   6.195   4.492   3.773  0.1570 -0.1586 -0.1004
  289MOL0     C38940   6.068   4.576   3.728  0.5099  0.8820 -0.2351
  289MOL0     C38941   5.970   4.467   3.662  0.1865 -1.0645  1.0159
  289MOL0     C38942   5.842   4.532   3.606  0.1063 -0.5907 -0.9645
  289MOL0     C38943   5.763   4.589   3.714 -0.3209  1.2441  0.8171
  289MOL0     C38944   5.697   4.635   3.803  0.6892 -0.2412 -0.6910
  289MOL0     C38945   6.244   4.631   4.036 -0.2164 -0.7898  0.4298
  289MOL0     C38946   6.278   4.704   4.155  1.1707  0.6836  0.6844
  289MOL0     C38947   6.166   4.674   4.259  0.2342 -0.2902  0.6658
  289MOL0     H38948   6.618   4.830   4.494 -4.2941 -0.6926  1.7594
  289MOL0     H38949   6.671   4.934   4.703  3.2672  1.5111 -0.1119
  289MOL0     H38950   6.514   5.005   4.886 -3.1846  2.4388 -0.1620
  289MOL0     H38951   6.682   5.052   4.888 -0.4861 -0.9401 -0.2720
  289MOL0     H38952   6.427   5.196   5.012  0.0756  0.2523  1.0943
  289MOL0     H38953   6.591   5.254   5.043 -0.3909 -0.1280  2.4795
  289MOL0     H38954   6.612   5.067   5.189 -0.0252 -1.4103 -1.8834
  289MOL0     H38955   6.474   4.979   5.110 -2.0150  0.7039 -1.8104
  289MOL0     H38956   6.455   5.230   5.267 -0.3945 -0.0167 -4.2874
  289MOL0     H38957   6.328   5.119   5.202  0.6786  1.3160 -1.6939
  289MOL0     H38958   6.335   4.979   5.380  0.4905 -0.0838  1.0951
  289MOL0     H38959   6.508   4.999   5.392 -1.5302 -1.0784  0.7779
  289MOL0     H38960   6.406   5.102   5.586  1.2166 -2.8019 -1.0206
  289MOL0     H38961   6.458   5.237   5.484 -1.6220 -0.2293  0.6182
  289MOL0     H38962   6.177   5.129   5.525 -0.0711  1.7857  2.6814
  289MOL0     H38963   6.228   5.232   5.381  1.7666  3.0321 -0.2157
  289MOL0     H38964   6.304   5.399   5.562  1.1032 -0.2222  2.1788
  289MOL0     H38965   6.122   5.362   5.573 -0.8892 -0.2970  2.1324
  289MOL0     H38966   6.055   5.168   5.768  0.3704  0.5835 -0.6615
  289MOL0     H38967   6.057   5.109   6.037 -1.1531  0.5461  0.2561
  289MOL0     H38968   6.193   5.163   6.140 -1.1271 -1.0627 -0.0586
  289MOL0     H38969   6.100   5.384   6.175  1.1236 -0.9139 -1.1409
  289MOL0     H38970   6.000   5.369   6.025  0.4815 -0.2240 -0.1151
  289MOL0     H38971   5.966   5.222   6.294 -0.8650  1.6981  1.8973
  289MOL0     H38972   5.876   5.191   6.146 -0.5654 -0.0284  2.5881
  289MOL0     H38973   5.833   5.440   6.126 -0.4471 -0.3289 -0.3102
  289MOL0     H38974   5.913   5.451   6.285 -0.9470 -0.1370  0.6052
  289MOL0     H38975   5.508   5.192   6.353  1.3113 -2.2738 -1.0677
  289MOL0     H38976   5.469   5.130   6.583 -0.1660  0.3604 -2.6369
  289MOL0     H38977   5.474   4.807   6.884  1.9956 -0.4812  0.3671
  289MOL0     H38978   5.397   4.729   7.109 -3.8422  0.3641  0.4546
  289MOL0     H38979   5.476   4.995   7.453 -0.2802  0.8243  0.1843
  289MOL0     H38980   5.296   4.995   7.426  0.2606  0.7315  1.7352
  289MOL0     H38981   5.444   4.803   7.593  0.3436  1.2545  1.5159
  289MOL0     H38982   5.335   4.932   7.653 -2.2418 -0.4485  0.3683
  289MOL0     H38983   5.142   4.808   7.566 -0.3337  0.0266 -0.8820
  289MOL0     H38984   5.232   4.702   7.463  0.3998  0.7333 -0.0828
  289MOL0     H38985   5.256   4.701   7.779  1.1708 -0.1054 -0.2411
  289MOL0     H38986   5.309   4.575   7.678 -0.8037 -1.9056  1.6869
  289MOL0     H38987   5.029   4.667   7.752 -0.1588 -0.7082  3.2480
  289MOL0     H38988   5.107   4.504   7.788 -1.4782  1.2900  0.7505
  289MOL0     H38989   5.019   4.598   7.511  0.4455 -1.9027 -1.2830
  289MOL0     H38990   5.119   4.459   7.555  1.2312  0.5797  1.3099
  289MOL0     H38991   4.846   4.483   7.676 -1.5357  0.3787 -2.1837
  289MOL0     H38992   4.950   4.355   7.679  0.2885  2.0978  2.6868
  289MOL0     H38993   4.802   4.453   7.429  1.1738  0.8827 -0.9837
  289MOL0     H38994   4.945   4.365   7.404 -2.1780 -0.0303 -1.5609
  289MOL0     H38995   5.369   5.129   7.237  0.4191 -1.2260  1.9083
  289MOL0     H38996   5.432   5.211   7.008  0.1666  0.1215  4.6445
  289MOL0     H38997   5.851   5.294   6.703  2.6236  0.8440 -1.2055
  289MOL0     H38998   5.890   5.364   6.491 -1.5219  2.4688 -0.3543
  289MOL0     H38999   6.524   5.305   4.557 -0.1776  0.1145 -0.5697
  289MOL0     H39000   6.492   5.199   4.336  1.0162  3.1349  1.2242
  289MOL0     H39001   6.566   4.855   4.079 -0.9614  2.6170 -1.4056
  289MOL0     H39002   6.498   4.753   3.855 -0.3042  0.6083 -0.0035
  289MOL0     H39003   6.177   4.441   3.868  1.9651 -1.1871 -0.2510
  289MOL0     H39004   6.224   4.422   3.694 -0.2003  0.7527 -1.0575
  289MOL0     H39005   6.096   4.665   3.671  2.4528  0.4804 -0.0004
  289MOL0     H39006   6.030   4.619   3.822  1.4000  2.1266 -0.4179
  289MOL0     H39007   5.943   4.390   3.734 -1.7628  1.2386  2.9441
  289MOL0     H39008   6.025   4.425   3.577  0.6456 -0.0059  0.7650
  289MOL0     H39009   5.876   4.621   3.552 -1.6851  0.6062 -0.2041
  289MOL0     H39010   5.780   4.462   3.549 -3.6866  0.5393  1.3732
  289MOL0     H39011   5.638   4.666   3.887 -2.2976 -1.9024 -2.0638
  289MOL0     H39012   6.156   4.569   4.032 -0.6579 -0.1164 -0.8762
  289MOL0     H39013   6.109   4.765   4.280 -1.6269 -1.3422  0.3906
  289MOL0     H39014   6.100   4.592   4.231  0.9993 -0.6950  0.0261
  289MOL0     H39015   6.208   4.646   4.356  1.1751 -1.5399 -0.0755
  290MOL0     O39016   0.584   5.735   4.070 -0.3853  0.3436 -1.1908
  290MOL0     C39017   0.647   5.644   4.123  0.2937 -0.8110  0.2217
  290MOL0     O39018   0.786   5.643   4.146 -0.0661  0.3588 -0.7437
  290MOL0     C39019   0.856   5.717   4.054 -0.3890  1.8672 -0.8359
  290MOL0     C39020   0.933   5.643   3.955 -0.1525  0.4583  0.1938
  290MOL0     C39021   1.004   5.719   3.863  0.8450 -0.1391  0.1038
  290MOL0     C39022   1.017   5.854   3.870 -0.1228 -0.8226  0.3330
  290MOL0     O39023   1.084   5.928   3.777  0.0150 -0.0346  0.1650
  290MOL0     C39024   1.199   5.873   3.719 -0.0684  0.5484  0.5195
  290MOL0     C39025   1.261   5.977   3.632 -0.2271  0.2353  0.5493
  290MOL0     C39026   1.363   6.057   3.699  0.4411  0.2751 -1.1025
  290MOL0     C39027   1.420   6.159   3.610 -0.7824 -0.7998 -0.3569
  290MOL0     C39028   1.523   6.252   3.684 -0.7098  0.8114  1.1450
  290MOL0     C39029   1.459   6.342   3.795  0.0172  0.0438 -0.5459
  290MOL0     C39030   1.537   6.473   3.816  0.1420 -0.7682  0.6990
  290MOL0     C39031   1.543   6.581   3.692 -0.2563 -0.7290  0.9818
  290MOL0     N39032   1.408   6.621   3.664  0.5483 -0.3675  0.0746
  290MOL0     C39033   1.333   6.710   3.738  0.1253 -0.2724 -0.1266
  290MOL0     C39034   1.224   6.730   3.662 -0.0459 -0.0124 -0.0316
  290MOL0     C39035   1.098   6.806   3.704  0.0369 -0.0904 -0.7743
  290MOL0     C39036   1.130   6.957   3.702  0.5066 -0.6462 -0.4007
  290MOL0     C39037   1.009   7.049   3.697  0.5274  0.7279  0.5432
  290MOL0     C39038   0.962   7.074   3.840  0.4142 -0.0141  0.1126
  290MOL0     O39039   0.898   6.956   3.897  0.3189 -0.0289 -0.5527
  290MOL0     C39040   0.850   6.946   4.025 -0.6226 -0.1454  1.0049
  290MOL0     C39041   0.766   6.847   4.059 -0.5945  0.3431 -0.0973
  290MOL0     C39042   0.713   6.839   4.193 -0.0649 -0.7043  1.1252
  290MOL0     C39043   0.731   6.941   4.287  0.0289  0.5195  0.1332
  290MOL0     C39044   0.674   6.921   4.426  1.0779 -0.6345  0.3687
  290MOL0     O39045   0.645   6.787   4.451  0.1122 -0.3410  0.0133
  290MOL0     C39046   0.603   6.751   4.578 -0.7582  0.0632 -1.1255
  290MOL0     C39047   0.687   6.745   4.697  0.7058 -0.4575 -0.0755
  290MOL0     C39048   0.622   6.703   4.807  1.0003 -0.0158 -0.7671
  290MOL0     C39049   0.489   6.665   4.818 -0.3505 -0.0056  0.3391
  290MOL0     O39050   0.430   6.616   4.927 -0.0349 -0.0678 -0.8059
  290MOL0     C39051   0.451   6.672   5.050  0.1105 -0.3098  0.2574
  290MOL0     C39052   0.350   6.632   5.151 -0.0833 -0.7705 -1.0178
  290MOL0     C39053   0.206   6.686   5.124 -0.3174 -0.4083 -0.2873
  290MOL0     C39054   0.097   6.608   5.201  1.0043 -0.1611 -0.6756
  290MOL0     C39055   0.091   6.460   5.172  0.7813  0.1164 -0.1588
  290MOL0     C39056  -0.049   6.399   5.206 -0.6817  0.1789 -0.2312
  290MOL0     C39057  -0.089   6.413   5.354 -0.2323  0.4769 -0.4514
  290MOL0     C39058  -0.217   6.350   5.388  0.1940  0.3592  0.5805
  290MOL0    Cl39059  -0.167   6.180   5.400 -0.5005 -0.2868  0.9756
  290MOL0     C39060   0.415   6.669   4.701  0.3445 -0.8311  0.3652
  290MOL0     C39061   0.477   6.716   4.581  0.5925 -0.1435  0.4490
  290MOL0     O39062   0.637   7.022   4.485 -0.3871  0.5575 -0.0509
  290MOL0     C39063   0.796   7.059   4.234 -0.2601  0.2453  0.2172
  290MOL0     C39064   0.863   7.052   4.107 -1.0864 -0.5152 -0.8174
  290MOL0     N39065   1.239   6.663   3.548  0.4078  0.0091  0.0748
  290MOL0     N39066   1.337   6.595   3.555  1.4526  0.9237  0.0606
  290MOL0     C39067   0.947   5.928   3.967 -0.1522 -1.1258  0.0201
  290MOL0     C39068   0.867   5.858   4.055  0.7381 -0.0199 -0.3712
  290MOL0     C39069   0.567   5.532   4.180  0.1802 -0.2818 -0.1919
  290MOL0     C39070   0.637   5.429   4.238 -0.2182  0.5257  1.0078
  290MOL0     C39071   0.577   5.317   4.282 -0.1221 -0.1937  0.6924
  290MOL0     C39072   0.434   5.304   4.264 -1.1526  0.1751 -0.1090
  290MOL0     O39073   0.356   5.189   4.298 -0.0688  0.0237  0.5384
  290MOL0     C39074   0.432   5.072   4.323  0.3439  0.2581  0.7158
  290MOL0     C39075   0.341   4.961   4.373  0.3066  0.9094 -0.1781
  290MOL0     C39076   0.404   4.818   4.369 -0.4645  0.1777 -0.9227
  290MOL0     C39077   0.306   4.704   4.396  0.0515  0.1820  0.0562
  290MOL0     C39078   0.205   4.701   4.303  0.2746 -0.4251  0.1800
  290MOL0     C39079   0.112   4.713   4.222 -1.0007  0.2177  0.0927
  290MOL0     C39080   0.366   5.411   4.214  0.0778  0.2073  0.2578
  290MOL0     C39081   0.423   5.528   4.184 -0.1145  0.1939  0.4563
  290MOL0     C39082   0.326   5.634   4.144 -0.8632 -1.1605  0.5315
  290MOL0     H39083   0.906   5.539   3.938  0.8628  0.1264  0.5096
  290MOL0     H39084   1.039   5.669   3.773  1.9369  0.6805  0.0522
  290MOL0     H39085   1.270   5.852   3.800  0.7729 -1.4248 -0.6673
  290MOL0     H39086   1.192   5.780   3.663  0.0562  0.7034  0.2451
  290MOL0     H39087   1.181   6.036   3.587  0.4046  0.2029 -0.6621
  290MOL0     H39088   1.317   5.935   3.547  1.4920  2.0361  0.7187
  290MOL0     H39089   1.447   6.001   3.741  0.9679  1.1911 -0.9192
  290MOL0     H39090   1.311   6.105   3.783  2.4809 -0.3267  0.5825
  290MOL0     H39091   1.470   6.107   3.528 -2.8888 -2.3074 -0.7687
  290MOL0     H39092   1.342   6.227   3.573  0.9545  1.0529 -0.7962
  290MOL0     H39093   1.603   6.197   3.735  1.7455  2.8861 -0.2370
  290MOL0     H39094   1.579   6.315   3.614  0.0257 -0.9726  0.0451
  290MOL0     H39095   1.358   6.377   3.773  0.1912  0.1112 -1.2773
  290MOL0     H39096   1.457   6.288   3.890 -2.9724 -1.2363 -1.2198
  290MOL0     H39097   1.640   6.439   3.834  0.6840 -0.5735 -1.6413
  290MOL0     H39098   1.487   6.526   3.897 -0.5715  1.2325 -0.9623
  290MOL0     H39099   1.597   6.677   3.700  0.0139 -0.7432 -0.3216
  290MOL0     H39100   1.595   6.525   3.614  0.8394 -3.1500  3.3241
  290MOL0     H39101   1.340   6.744   3.841 -1.8692 -1.5692  0.4892
  290MOL0     H39102   1.014   6.773   3.643  1.9995 -3.5121 -1.9012
  290MOL0     H39103   1.083   6.771   3.807 -0.0808 -0.9848 -1.0813
  290MOL0     H39104   1.192   6.980   3.789 -2.8710 -1.5123  2.4621
  290MOL0     H39105   1.194   6.978   3.616 -0.1706  2.0765 -0.3402
  290MOL0     H39106   0.925   6.987   3.667 -0.0851  1.7959 -0.0220
  290MOL0     H39107   1.009   7.135   3.629  1.1530  0.0456 -0.3342
  290MOL0     H39108   0.897   7.162   3.835 -1.6835 -1.1799  3.6632
  290MOL0     H39109   1.047   7.101   3.904  1.9847 -1.1366 -1.4047
  290MOL0     H39110   0.733   6.769   3.991 -1.6588 -1.7836  2.6479
  290MOL0     H39111   0.660   6.751   4.227 -0.7023 -0.1227  1.6467
  290MOL0     H39112   0.794   6.763   4.693  0.2506  2.8608  0.0116
  290MOL0     H39113   0.689   6.696   4.892  2.1602 -0.3908 -1.6733
  290MOL0     H39114   0.543   6.629   5.091 -1.8366 -2.7391  2.4710
  290MOL0     H39115   0.458   6.781   5.053  0.6746 -0.2786 -1.3465
  290MOL0     H39116   0.334   6.525   5.137 -3.3762 -0.2213 -2.2208
  290MOL0     H39117   0.384   6.653   5.253 -0.3472  2.1032 -1.4409
  290MOL0     H39118   0.190   6.794   5.134 -1.5954 -0.4089 -1.8621
  290MOL0     H39119   0.184   6.674   5.017 -0.3303  0.8582 -0.4542
  290MOL0     H39120   0.004   6.654   5.167  0.1027  0.5980  2.4390
  290MOL0     H39121   0.102   6.617   5.310  0.0057 -1.0051 -0.5453
  290MOL0     H39122   0.169   6.415   5.234  2.8634 -1.1721 -3.4347
  290MOL0     H39123   0.121   6.452   5.067  0.6228  0.4879 -0.2336
  290MOL0     H39124  -0.121   6.458   5.148  1.8162  3.2821 -0.4130
  290MOL0     H39125  -0.052   6.294   5.175 -0.9599 -0.0056  0.4055
  290MOL0     H39126  -0.101   6.516   5.390 -2.2274 -0.0354  0.5225
  290MOL0     H39127  -0.008   6.371   5.414 -2.8048 -3.3186  0.7384
  290MOL0     H39128  -0.261   6.384   5.482  0.2946  0.8233  0.4635
  290MOL0     H39129  -0.296   6.359   5.312 -3.0482 -1.4961  3.4768
  290MOL0     H39130   0.314   6.629   4.706  1.0920 -2.7349  1.7581
  290MOL0     H39131   0.410   6.706   4.496 -0.3134  1.8386  0.8879
  290MOL0     H39132   0.803   7.153   4.288  2.7708 -0.3074  0.9701
  290MOL0     H39133   0.926   7.135   4.076  1.1160 -1.7815 -0.0340
  290MOL0     H39134   0.955   6.036   3.958  1.8721 -1.2418 -0.1048
  290MOL0     H39135   0.806   5.919   4.122  0.3706  1.3168 -1.8642
  290MOL0     H39136   0.745   5.429   4.237 -0.1607 -1.6699 -0.4635
  290MOL0     H39137   0.639   5.236   4.319  0.2263  0.4304  1.4997
  290MOL0     H39138   0.523   5.086   4.381  0.7707  3.3973 -0.5449
  290MOL0     H39139   0.458   5.033   4.224  1.6653 -1.0671  1.5340
  290MOL0     H39140   0.247   4.964   4.316 -1.5342 -0.2312  2.5788
  290MOL0     H39141   0.309   4.968   4.477 -2.3877 -1.5652 -0.7131
  290MOL0     H39142   0.492   4.822   4.434 -0.2815  1.8407 -1.2167
  290MOL0     H39143   0.453   4.804   4.272  1.9179  2.0433 -0.0798
  290MOL0     H39144   0.365   4.612   4.400 -1.1954 -0.6004  2.1491
  290MOL0     H39145   0.269   4.721   4.498 -0.2831 -2.2790  0.4050
  290MOL0     H39146   0.029   4.724   4.155  1.6815  1.7124 -3.3418
  290MOL0     H39147   0.259   5.396   4.204 -0.2547  2.7578 -0.8873
  290MOL0     H39148   0.360   5.738   4.153 -2.2710 -0.2747 -2.7608
  290MOL0     H39149   0.309   5.612   4.038  4.5460 -1.7693 -0.4963
  290MOL0     H39150   0.229   5.640   4.195 -3.5918 -3.1826 -3.7835
  291MOL0     O39151   5.097   3.986   3.627 -0.4278  0.6680 -0.4970
  291MOL0     C39152   5.062   3.932   3.517 -0.7390  0.9810 -0.3238
  291MOL0     O39153   5.078   3.988   3.398 -0.4968  0.5281  1.3592
  291MOL0     C39154   5.147   4.102   3.359 -0.0128  0.0167  0.2882
  291MOL0     C39155   5.215   4.191   3.446  0.1482 -0.4827  0.4606
  291MOL0     C39156   5.257   4.312   3.395  0.2370  0.0679 -0.2591
  291MOL0     C39157   5.246   4.340   3.258  0.1192  0.2534 -0.8592
  291MOL0     O39158   5.310   4.445   3.203 -0.3167  0.1991 -0.3356
  291MOL0     C39159   5.311   4.571   3.277  1.1955 -0.3593  0.4166
  291MOL0     C39160   5.447   4.578   3.334 -0.2665 -0.2191  0.1427
  291MOL0     C39161   5.454   4.677   3.455  0.0419 -0.5866 -0.3231
  291MOL0     C39162   5.459   4.826   3.407 -0.5133  0.1941  0.0375
  291MOL0     C39163   5.488   4.911   3.531 -0.0190 -0.4478 -0.8033
  291MOL0     C39164   5.426   5.050   3.529  0.6260  0.4043 -0.5875
  291MOL0     C39165   5.441   5.127   3.655  0.0976  0.1756 -0.0327
  291MOL0     C39166   5.591   5.182   3.667  0.5894 -1.1840 -0.3718
  291MOL0     N39167   5.603   5.324   3.713 -0.3593  0.9135 -0.6416
  291MOL0     C39168   5.633   5.436   3.633  1.3812  0.9813  0.4395
  291MOL0     C39169   5.662   5.535   3.718 -0.2275 -1.0142 -0.3211
  291MOL0     C39170   5.677   5.678   3.676  0.6757 -0.1325 -0.1895
  291MOL0     C39171   5.538   5.743   3.652  0.4688 -0.4288 -1.4326
  291MOL0     C39172   5.468   5.702   3.522 -0.6872 -1.0008  0.5062
  291MOL0     C39173   5.537   5.773   3.402 -0.4751  0.1006  0.0291
  291MOL0     O39174   5.652   5.703   3.362 -0.4237 -1.2769  0.5371
  291MOL0     C39175   5.653   5.582   3.306 -1.1232  0.0549  1.1372
  291MOL0     C39176   5.775   5.530   3.271 -0.2926 -0.1810 -0.6129
  291MOL0     C39177   5.797   5.393   3.245 -0.0867 -0.0208  0.4443
  291MOL0     C39178   5.692   5.315   3.213  0.8784  0.4333 -0.0199
  291MOL0     C39179   5.718   5.176   3.174 -0.3677 -0.2227  0.4844
  291MOL0     O39180   5.856   5.132   3.174  0.7972 -0.2965  0.2517
  291MOL0     C39181   5.862   4.995   3.188  0.3670 -0.2736  0.5232
  291MOL0     C39182   5.833   4.944   3.315 -0.3476  0.5474  0.5575
  291MOL0     C39183   5.844   4.804   3.325  0.0437  0.2411  0.0744
  291MOL0     C39184   5.878   4.718   3.223  0.6660 -0.5298 -0.7354
  291MOL0     O39185   5.905   4.588   3.258  0.7541  0.1926 -0.0384
  291MOL0     C39186   5.967   4.498   3.171 -0.0020 -0.1636  0.5749
  291MOL0     C39187   6.011   4.372   3.254  0.5132 -0.1435 -0.3181
  291MOL0     C39188   5.901   4.287   3.292  0.4643  0.2400 -1.0355
  291MOL0     C39189   5.953   4.173   3.389 -0.0114  0.2044  0.0579
  291MOL0     C39190   5.840   4.076   3.437 -0.2948 -0.6003 -0.2865
  291MOL0     C39191   5.840   4.055   3.590  0.2956  0.4991  0.1379
  291MOL0     C39192   5.960   3.969   3.659 -0.2408 -0.7064 -0.0949
  291MOL0     C39193   5.998   3.839   3.601 -1.0581  0.0791 -0.1827
  291MOL0    Cl39194   5.868   3.728   3.615  0.0053  0.2023 -0.1430
  291MOL0     C39195   5.892   4.771   3.095 -0.5965  0.9179 -0.2882
  291MOL0     C39196   5.875   4.904   3.076 -0.1915 -0.9298 -0.1640
  291MOL0     O39197   5.621   5.104   3.165  0.2323  0.0396 -0.1717
  291MOL0     C39198   5.564   5.376   3.214 -0.0769  0.5135  0.7958
  291MOL0     C39199   5.546   5.503   3.276 -0.0594 -0.0543  0.1443
  291MOL0     N39200   5.625   5.490   3.839  0.7178 -0.1415 -0.0790
  291MOL0     N39201   5.599   5.362   3.845 -0.4768 -0.4094 -0.2923
  291MOL0     C39202   5.191   4.246   3.178 -0.8413 -0.6943  0.4627
  291MOL0     C39203   5.134   4.134   3.222 -0.4406 -0.8258  0.5744
  291MOL0     C39204   4.984   3.808   3.515 -0.3031  0.6788 -0.5953
  291MOL0     C39205   4.986   3.726   3.398  0.2738  1.3189  0.2672
  291MOL0     C39206   4.903   3.617   3.375  0.1759 -0.3123 -0.6774
  291MOL0     C39207   4.828   3.566   3.477 -0.6527 -0.8111 -1.5795
  291MOL0     O39208   4.752   3.456   3.473  0.4943  0.1931  0.6310
  291MOL0     C39209   4.816   3.335   3.457 -0.4999 -0.8964 -0.2202
  291MOL0     C39210   4.848   3.282   3.595 -0.2727  0.8735  0.2433
  291MOL0     C39211   4.722   3.219   3.646  0.5030  0.2925 -0.1014
  291MOL0     C39212   4.726   3.157   3.787  0.0436  0.0878 -0.0370
  291MOL0     C39213   4.810   3.031   3.807 -0.4996 -0.4094  0.5776
  291MOL0     C39214   4.883   2.938   3.831 -0.8115  0.5402  0.2189
  291MOL0     C39215   4.823   3.642   3.597 -0.1004  0.1139  0.6796
  291MOL0     C39216   4.892   3.763   3.613 -0.8304 -0.6037  0.2847
  291MOL0     C39217   4.865   3.849   3.743 -0.7428 -0.1124  0.8939
  291MOL0     H39218   5.239   4.182   3.552  0.6966  0.7869  0.4619
  291MOL0     H39219   5.301   4.389   3.458 -3.4588  3.1080 -1.0342
  291MOL0     H39220   5.301   4.646   3.198 -1.6581  0.4173  1.3790
  291MOL0     H39221   5.219   4.592   3.333  1.3632  0.7580  0.3108
  291MOL0     H39222   5.527   4.618   3.272  3.0159 -2.1627  2.7671
  291MOL0     H39223   5.466   4.471   3.349 -0.2137 -0.1163  0.8148
  291MOL0     H39224   5.545   4.673   3.516 -0.5510 -0.7298  0.5772
  291MOL0     H39225   5.368   4.657   3.521  2.4237 -1.8870  2.6599
  291MOL0     H39226   5.535   4.833   3.329 -0.1939 -2.6884 -0.0066
  291MOL0     H39227   5.367   4.861   3.359 -0.2103 -3.0379 -3.3305
  291MOL0     H39228   5.444   4.864   3.620  0.0559 -1.3214 -1.2149
  291MOL0     H39229   5.597   4.913   3.544  0.0601  1.4748 -1.4819
  291MOL0     H39230   5.466   5.109   3.446  0.6030  1.3049  0.0289
  291MOL0     H39231   5.321   5.041   3.499  1.0508 -2.1101 -1.5051
  291MOL0     H39232   5.425   5.066   3.745  1.4860  0.7401  0.6412
  291MOL0     H39233   5.370   5.210   3.659  1.3137  1.2979 -1.1399
  291MOL0     H39234   5.650   5.110   3.725 -0.7900  0.3042  3.1846
  291MOL0     H39235   5.629   5.180   3.565  0.5052 -0.6893 -0.4173
  291MOL0     H39236   5.643   5.426   3.525  0.5344  0.8077  0.3671
  291MOL0     H39237   5.738   5.734   3.747  0.3057 -2.2935  1.9553
  291MOL0     H39238   5.741   5.673   3.588  0.0235 -0.7298 -0.6445
  291MOL0     H39239   5.470   5.706   3.729 -1.7473  2.2014 -1.9742
  291MOL0     H39240   5.529   5.851   3.667 -2.3581 -0.9177  1.3666
  291MOL0     H39241   5.363   5.728   3.536 -0.1786  1.5211  0.0726
  291MOL0     H39242   5.471   5.593   3.513  0.9802 -1.0937  1.6417
  291MOL0     H39243   5.578   5.860   3.454  1.0896 -0.4209 -0.2825
  291MOL0     H39244   5.473   5.796   3.317 -1.5898 -1.2099  0.4738
  291MOL0     H39245   5.864   5.591   3.283 -2.7665  3.7429 -0.4869
  291MOL0     H39246   5.902   5.367   3.235  0.1835  0.5987  1.5251
  291MOL0     H39247   5.814   5.021   3.389 -1.7053  0.1962  0.6007
  291MOL0     H39248   5.835   4.770   3.428 -1.1885 -1.5842 -0.5798
  291MOL0     H39249   5.894   4.461   3.098 -1.4659  1.8952  0.9125
  291MOL0     H39250   6.048   4.540   3.112 -2.5520  0.1640 -3.0366
  291MOL0     H39251   6.085   4.316   3.195 -0.0980 -2.6087  1.1166
  291MOL0     H39252   6.061   4.422   3.338 -0.2887 -0.3312  0.2831
  291MOL0     H39253   5.819   4.344   3.337  0.9733 -0.1096  0.3654
  291MOL0     H39254   5.854   4.222   3.217  0.2398 -0.5065 -0.2707
  291MOL0     H39255   6.008   4.224   3.470  4.2326 -0.6626 -1.9789
  291MOL0     H39256   6.030   4.113   3.339 -0.2820  2.6429 -3.6661
  291MOL0     H39257   5.860   3.981   3.387 -0.3177 -0.9570  0.3589
  291MOL0     H39258   5.745   4.118   3.405 -1.2570 -2.7106 -0.3808
  291MOL0     H39259   5.831   4.151   3.643 -0.0881 -0.1823  1.3480
  291MOL0     H39260   5.750   3.997   3.609  0.5881  0.4954  1.6510
  291MOL0     H39261   5.946   3.945   3.765  4.2824 -2.1348  0.3761
  291MOL0     H39262   6.055   4.022   3.664 -1.6657  2.0093  0.1063
  291MOL0     H39263   6.014   3.855   3.494  2.9761 -0.2006  0.2360
  291MOL0     H39264   6.090   3.799   3.645 -0.4148 -1.5525 -2.7287
  291MOL0     H39265   5.911   4.701   3.014  1.9707  0.0778  0.9102
  291MOL0     H39266   5.879   4.960   2.983  1.3775 -1.6553 -0.5620
  291MOL0     H39267   5.473   5.317   3.207 -0.6196  1.2685  1.3534
  291MOL0     H39268   5.452   5.555   3.294  0.1667 -0.3510  2.3648
  291MOL0     H39269   5.188   4.287   3.078 -1.1030 -0.7875  0.4332
  291MOL0     H39270   5.074   4.082   3.149  0.7937 -1.3232 -0.1057
  291MOL0     H39271   5.045   3.740   3.308 -0.0276 -1.7576 -0.5206
  291MOL0     H39272   4.905   3.561   3.283  1.7493 -0.2773 -0.6964
  291MOL0     H39273   4.909   3.356   3.403  1.4120  1.9599  3.6397
  291MOL0     H39274   4.758   3.264   3.398 -1.2008  2.3136 -3.7950
  291MOL0     H39275   4.886   3.362   3.660 -1.0202 -1.5930  4.0259
  291MOL0     H39276   4.931   3.211   3.589 -0.9282  0.1297 -0.0921
  291MOL0     H39277   4.686   3.146   3.573  5.4752 -2.6081 -0.0344
  291MOL0     H39278   4.659   3.308   3.661  1.2010  0.6245  0.9715
  291MOL0     H39279   4.759   3.243   3.846 -0.1225  0.6775 -0.7761
  291MOL0     H39280   4.622   3.133   3.813 -0.4991  3.9128  2.1341
  291MOL0     H39281   4.963   2.872   3.860 -1.6491 -0.2995  0.6561
  291MOL0     H39282   4.761   3.600   3.675  0.3579 -1.2640  0.3342
  291MOL0     H39283   4.882   3.957   3.745 -3.2727  0.4038 -0.7671
  291MOL0     H39284   4.759   3.840   3.768 -1.0928 -1.9986 -0.9581
  291MOL0     H39285   4.919   3.805   3.827 -0.5100 -0.8610  0.3698
  292MOL0     O39286   3.023   2.749   4.529 -0.3395 -0.2045 -0.1805
  292MOL0     C39287   2.952   2.653   4.558 -0.5449 -0.1589 -0.1145
  292MOL0     O39288   2.932   2.551   4.477 -0.2641  0.7309 -0.2412
  292MOL0     C39289   2.967   2.562   4.347  0.6300 -0.2089  0.3223
  292MOL0     C39290   3.102   2.545   4.297 -0.2768  0.2096 -0.3492
  292MOL0     C39291   3.135   2.539   4.162 -0.1360 -0.2934 -1.0285
  292MOL0     C39292   3.041   2.553   4.064  0.1381 -0.6698  0.8138
  292MOL0     O39293   3.065   2.564   3.928 -0.2748 -0.3034  0.0096
  292MOL0     C39294   3.170   2.488   3.865 -0.7850 -0.3427  0.9694
  292MOL0     C39295   3.124   2.336   3.848  0.0894 -0.2556 -0.3690
  292MOL0     C39296   2.991   2.316   3.772  0.9684 -0.3919  0.2289
  292MOL0     C39297   3.006   2.348   3.624  0.3239  0.6812  0.7342
  292MOL0     C39298   2.867   2.347   3.565 -0.0774 -0.3499  0.2984
  292MOL0     C39299   2.777   2.464   3.608 -0.7852  0.7680  0.2531
  292MOL0     C39300   2.762   2.554   3.491 -0.7427 -0.2969  0.2348
  292MOL0     C39301   2.663   2.668   3.500  0.4833  0.4041  0.5690
  292MOL0     N39302   2.670   2.751   3.373 -0.3006 -0.2691 -0.2954
  292MOL0     C39303   2.773   2.834   3.343  1.1132  0.2112  0.4034
  292MOL0     C39304   2.722   2.924   3.255 -0.4616  0.3329  0.2552
  292MOL0     C39305   2.783   3.060   3.206 -0.5884  0.3995  0.5958
  292MOL0     C39306   2.805   3.060   3.057  0.6224 -0.1642  0.7139
  292MOL0     C39307   2.898   3.171   3.018 -0.3669 -0.5585  0.5111
  292MOL0     C39308   3.042   3.121   3.034 -0.8367  0.8927 -0.4060
  292MOL0     O39309   3.136   3.221   2.993 -0.8194 -0.2866  0.6785
  292MOL0     C39310   3.151   3.339   3.057 -0.7238 -0.8384 -0.1026
  292MOL0     C39311   3.094   3.370   3.178 -0.6414 -0.1939  0.9135
  292MOL0     C39312   3.089   3.494   3.235 -0.9333  0.2036  0.2054
  292MOL0     C39313   3.154   3.593   3.164  0.0406 -0.7840  0.1977
  292MOL0     C39314   3.149   3.732   3.211 -0.1282 -0.3204 -0.8852
  292MOL0     O39315   3.111   3.749   3.341  0.1729  0.0129  0.7573
  292MOL0     C39316   3.089   3.878   3.381 -0.1587  0.2903 -0.0820
  292MOL0     C39317   2.957   3.924   3.371  0.5739 -0.4469  0.4819
  292MOL0     C39318   2.923   4.046   3.410  0.7343 -0.4901 -0.9636
  292MOL0     C39319   3.020   4.129   3.485  0.3825 -0.3068  0.9986
  292MOL0     O39320   2.995   4.264   3.522  0.3656  0.5179 -0.5602
  292MOL0     C39321   2.861   4.311   3.538  0.2833 -0.0732  0.2701
  292MOL0     C39322   2.868   4.465   3.574 -0.5540 -0.6078 -0.2084
  292MOL0     C39323   2.949   4.549   3.469 -0.2429  0.9553 -0.5794
  292MOL0     C39324   2.877   4.576   3.339 -0.0640 -0.8216 -0.0586
  292MOL0     C39325   2.961   4.660   3.236  0.5481 -0.1749 -0.3427
  292MOL0     C39326   2.902   4.651   3.098  0.6312 -0.1428 -0.1646
  292MOL0     C39327   2.988   4.701   2.987 -0.2010  0.1788  0.4402
  292MOL0     C39328   3.098   4.607   2.946  0.0738 -0.4606  0.3789
  292MOL0    Cl39329   3.166   4.676   2.803  0.1288 -0.1238  0.2843
  292MOL0     C39330   3.150   4.093   3.500  1.1867 -0.5531  0.3808
  292MOL0     C39331   3.184   3.960   3.449  0.4753  0.0855  0.4834
  292MOL0     O39332   3.169   3.819   3.130 -0.6656  0.3791  0.5666
  292MOL0     C39333   3.223   3.567   3.046  1.0118  0.4231 -0.1616
  292MOL0     C39334   3.216   3.441   2.999 -0.4687 -1.0222 -0.0464
  292MOL0     N39335   2.596   2.883   3.224  0.7626  0.2167 -1.0476
  292MOL0     N39336   2.560   2.779   3.290  0.2000  0.9771 -1.1198
  292MOL0     C39337   2.907   2.556   4.108  0.3888  0.1008 -0.1956
  292MOL0     C39338   2.864   2.555   4.243 -0.8199 -0.0306 -0.7418
  292MOL0     C39339   2.887   2.638   4.689 -0.4445 -0.3805 -0.4937
  292MOL0     C39340   2.812   2.523   4.714 -0.1746 -0.6936 -0.2223
  292MOL0     C39341   2.744   2.498   4.839 -0.7846  0.2427  1.0940
  292MOL0     C39342   2.759   2.590   4.943  0.8415 -0.3688 -0.6031
  292MOL0     O39343   2.713   2.564   5.070 -0.3633  0.1280  0.7055
  292MOL0     C39344   2.693   2.433   5.113  0.1472 -0.3252 -0.0707
  292MOL0     C39345   2.671   2.409   5.269  0.1314 -0.8649  0.9043
  292MOL0     C39346   2.670   2.258   5.291 -1.2479  0.3218 -0.5884
  292MOL0     C39347   2.641   2.233   5.444 -0.1215  0.4615  0.9303
  292MOL0     C39348   2.746   2.286   5.524  0.6164  0.0140  0.2554
  292MOL0     C39349   2.816   2.348   5.598  0.4966  0.0521 -0.3808
  292MOL0     C39350   2.845   2.699   4.927  0.7566  0.6588 -0.3008
  292MOL0     C39351   2.909   2.724   4.804  0.2847  0.2018  0.0182
  292MOL0     C39352   3.011   2.839   4.800  1.0459  0.8490  0.6374
  292MOL0     H39353   3.184   2.530   4.367  0.6854 -1.5663 -1.7783
  292MOL0     H39354   3.239   2.540   4.128 -0.1672  0.8476 -1.1478
  292MOL0     H39355   3.193   2.525   3.765 -0.1984 -1.6909  0.5705
  292MOL0     H39356   3.266   2.491   3.916  0.9504 -0.3781 -2.0533
  292MOL0     H39357   3.105   2.301   3.950  1.0088  0.8274  0.1987
  292MOL0     H39358   3.211   2.299   3.794  1.9149  0.9832  1.5281
  292MOL0     H39359   2.911   2.379   3.812 -0.5384 -2.2359  0.3107
  292MOL0     H39360   2.952   2.214   3.785 -2.3491  0.5734 -0.9950
  292MOL0     H39361   3.052   2.443   3.597 -4.1952  2.9757  0.1104
  292MOL0     H39362   3.054   2.259   3.583  0.0779  0.8606  0.0455
  292MOL0     H39363   2.878   2.341   3.456  0.4850  0.0870  0.3259
  292MOL0     H39364   2.812   2.258   3.595 -0.7682  0.0473  0.2401
  292MOL0     H39365   2.684   2.422   3.648 -0.8031  0.8299  0.2765
  292MOL0     H39366   2.830   2.523   3.684 -1.5319  0.9395  0.6592
  292MOL0     H39367   2.759   2.505   3.393  2.1810 -0.2779  0.0640
  292MOL0     H39368   2.857   2.608   3.498 -2.2148  2.2476  4.5087
  292MOL0     H39369   2.561   2.631   3.512 -0.4697  1.0226 -3.8738
  292MOL0     H39370   2.684   2.734   3.585  0.0330  0.5213  0.5916
  292MOL0     H39371   2.870   2.836   3.392  0.7698  3.1922  1.1639
  292MOL0     H39372   2.723   3.146   3.235 -0.2746  1.3886 -1.4907
  292MOL0     H39373   2.882   3.070   3.253 -0.3051 -2.4857  0.8403
  292MOL0     H39374   2.844   2.965   3.019  0.9363 -1.3109  3.6742
  292MOL0     H39375   2.707   3.059   3.009  1.4140 -1.2910 -0.9886
  292MOL0     H39376   2.874   3.264   3.070  1.5071  1.6389 -2.2643
  292MOL0     H39377   2.879   3.194   2.913 -3.1651 -0.5705  0.9287
  292MOL0     H39378   3.057   3.036   2.968  0.6838  2.5035 -2.2652
  292MOL0     H39379   3.061   3.095   3.139 -0.6757  0.7206 -0.4777
  292MOL0     H39380   3.040   3.287   3.222  0.8904 -2.7995 -1.7471
  292MOL0     H39381   3.030   3.526   3.320 -2.4534 -0.6542 -0.5041
  292MOL0     H39382   2.876   3.871   3.322 -0.5838  0.7571  1.0300
  292MOL0     H39383   2.827   4.090   3.386 -0.4142  0.2017  3.9829
  292MOL0     H39384   2.807   4.308   3.443 -0.2186  2.1900  0.4357
  292MOL0     H39385   2.816   4.253   3.619  2.5974 -1.3367  0.7397
  292MOL0     H39386   2.771   4.515   3.587 -0.2353  0.1878 -0.8119
  292MOL0     H39387   2.918   4.469   3.671 -0.6587 -1.2114 -0.1286
  292MOL0     H39388   2.969   4.640   3.526  1.0294  0.4453 -0.1732
  292MOL0     H39389   3.044   4.498   3.450 -0.8123 -0.2710 -0.1988
  292MOL0     H39390   2.779   4.621   3.354  0.8955  1.0994  0.7549
  292MOL0     H39391   2.860   4.479   3.291 -1.9530 -0.2314 -0.6546
  292MOL0     H39392   3.061   4.617   3.246  0.5696  0.1924  1.4214
  292MOL0     H39393   2.959   4.764   3.270  3.0732 -0.4467  0.9258
  292MOL0     H39394   2.882   4.544   3.088  2.5453 -0.4840 -0.8334
  292MOL0     H39395   2.808   4.706   3.096 -0.7544 -2.3475 -1.6615
  292MOL0     H39396   3.031   4.799   3.009  3.1480 -0.8165 -0.9446
  292MOL0     H39397   2.931   4.721   2.895  3.2759  1.3530 -1.6864
  292MOL0     H39398   3.173   4.590   3.023  0.6784  3.7701  0.9370
  292MOL0     H39399   3.048   4.510   2.931  0.9232 -1.0442  1.2729
  292MOL0     H39400   3.217   4.152   3.561  0.4200 -1.0977  1.8158
  292MOL0     H39401   3.279   3.918   3.481  0.6677  0.9542  1.0955
  292MOL0     H39402   3.273   3.643   2.987 -0.3075  0.5317 -1.2078
  292MOL0     H39403   3.268   3.419   2.906  0.7648 -3.0585  1.0375
  292MOL0     H39404   2.825   2.563   4.037  1.9159  1.2339 -1.9439
  292MOL0     H39405   2.759   2.554   4.268 -0.6387 -3.6857  0.4540
  292MOL0     H39406   2.796   2.452   4.634 -1.4983  0.4649 -1.0399
  292MOL0     H39407   2.698   2.400   4.838 -0.5605  0.1324 -0.7230
  292MOL0     H39408   2.792   2.388   5.098  0.1510 -1.3410  2.4238
  292MOL0     H39409   2.623   2.372   5.054  1.3869 -3.6219  1.5865
  292MOL0     H39410   2.576   2.451   5.300 -0.6499 -1.5950 -0.4070
  292MOL0     H39411   2.747   2.451   5.335 -0.5430 -1.5560  2.1429
  292MOL0     H39412   2.746   2.183   5.267 -2.6671 -0.4330 -3.0540
  292MOL0     H39413   2.585   2.219   5.235 -3.2273  2.0900  1.0350
  292MOL0     H39414   2.539   2.268   5.464 -0.8918 -0.8586 -0.4915
  292MOL0     H39415   2.642   2.125   5.461 -0.6996  0.0575 -1.3301
  292MOL0     H39416   2.880   2.414   5.653  2.1342  0.5637 -2.7717
  292MOL0     H39417   2.877   2.758   5.012  3.5647  0.5047 -1.1440
  292MOL0     H39418   2.992   2.915   4.723 -1.6753  0.7771  1.1537
  292MOL0     H39419   3.000   2.895   4.893 -3.4281 -0.7550  1.3048
  292MOL0     H39420   3.112   2.797   4.797 -0.1218 -2.2522  0.9926
  293MOL0     O39421  10.910   8.780   0.436  0.7127 -0.0591 -0.3997
  293MOL0     C39422  10.871   8.885   0.379 -0.7973 -0.2803 -0.0531
  293MOL0     O39423  10.744   8.925   0.376  0.0759  0.3159  0.4449
  293MOL0     C39424  10.634   8.838   0.397  0.1407 -0.9606  0.7068
  293MOL0     C39425  10.517   8.889   0.455 -0.5020  0.9538  0.3812
  293MOL0     C39426  10.395   8.814   0.452 -0.0443  0.5667  0.1456
  293MOL0     C39427  10.394   8.683   0.404  0.1552 -0.2692 -0.1125
  293MOL0     O39428  10.276   8.616   0.393  0.4285 -0.0247 -0.1956
  293MOL0     C39429  10.272   8.472   0.390  0.8217 -0.3177 -0.3951
  293MOL0     C39430  10.130   8.415   0.394 -0.0469 -0.6126  0.4230
  293MOL0     C39431  10.068   8.444   0.526 -0.3012 -0.1145 -0.2881
  293MOL0     C39432   9.924   8.390   0.525  0.2672  0.0478  0.3607
  293MOL0     C39433   9.823   8.508   0.508 -0.0085 -0.0595 -0.6565
  293MOL0     C39434   9.828   8.559   0.365  0.2652  0.4345  0.0009
  293MOL0     C39435   9.712   8.655   0.346  0.8188  0.5692 -0.0026
  293MOL0     C39436   9.730   8.740   0.220  0.0219 -0.6224 -0.4715
  293MOL0     N39437   9.721   8.671   0.089 -0.7134 -0.3737  1.1490
  293MOL0     C39438   9.811   8.693  -0.013 -0.0874 -0.6181 -0.7581
  293MOL0     C39439   9.757   8.612  -0.108 -0.0225  0.1255  0.0324
  293MOL0     C39440   9.820   8.591  -0.242  0.9567  0.4302  0.4065
  293MOL0     C39441   9.965   8.552  -0.235 -0.0243 -0.3351 -1.0018
  293MOL0     C39442   9.977   8.417  -0.155  0.0859 -0.4274  0.6003
  293MOL0     C39443  10.125   8.382  -0.159 -0.9618  0.7448 -0.3253
  293MOL0     O39444  10.187   8.457  -0.063  0.3745  0.7365  0.0153
  293MOL0     C39445  10.323   8.452  -0.086  0.3254 -0.4337  0.3146
  293MOL0     C39446  10.372   8.563  -0.014 -0.7024 -0.7776 -0.4626
  293MOL0     C39447  10.512   8.588  -0.006  0.5516  0.4350  0.8954
  293MOL0     C39448  10.596   8.494  -0.078  0.3691 -0.1119 -1.1015
  293MOL0     C39449  10.738   8.517  -0.063  1.3745 -0.2082  0.1290
  293MOL0     O39450  10.818   8.441  -0.145 -0.1616  0.0723  0.2924
  293MOL0     C39451  10.949   8.477  -0.146  0.5408 -0.6328  0.5819
  293MOL0     C39452  11.037   8.392  -0.086 -0.3984  0.1001 -0.3791
  293MOL0     C39453  11.171   8.430  -0.062  0.1099  0.4815 -0.3767
  293MOL0     C39454  11.222   8.549  -0.125  0.0267 -0.7112  0.2465
  293MOL0     O39455  11.345   8.605  -0.110 -0.0588 -0.0006  0.1745
  293MOL0     C39456  11.456   8.522  -0.061  1.2186 -0.7790  0.0089
  293MOL0     C39457  11.460   8.516   0.083 -0.0054 -0.4672 -0.5276
  293MOL0     C39458  11.475   8.663   0.140  0.1950  0.5790  0.7431
  293MOL0     C39459  11.444   8.663   0.292  0.2471 -0.2858  0.2306
  293MOL0     C39460  11.457   8.803   0.362 -0.3725 -0.1279 -0.4012
  293MOL0     C39461  11.391   8.809   0.503  0.4293 -0.4694  1.2374
  293MOL0     C39462  11.289   8.920   0.516 -0.8381  0.0760 -0.2637
  293MOL0     C39463  11.278   8.943   0.661  0.4572 -1.2107 -0.3842
  293MOL0    Cl39464  11.156   9.075   0.692 -0.2217 -0.3341 -0.1680
  293MOL0     C39465  11.130   8.629  -0.197  0.4354  0.5674  0.4828
  293MOL0     C39466  10.991   8.602  -0.206 -0.1228 -0.1484  0.8897
  293MOL0     O39467  10.787   8.600   0.011  0.0726  0.5391  0.7820
  293MOL0     C39468  10.547   8.400  -0.168  0.6653  0.0494 -0.3458
  293MOL0     C39469  10.413   8.377  -0.175  1.4660  0.2435  0.2038
  293MOL0     N39470   9.643   8.548  -0.063  0.3713  0.6626 -0.0008
  293MOL0     N39471   9.622   8.589   0.056 -0.0952  0.5429 -0.3988
  293MOL0     C39472  10.517   8.625   0.360  0.2454  0.5222  0.4078
  293MOL0     C39473  10.634   8.704   0.350  0.1853  0.4374  0.0012
  293MOL0     C39474  10.981   8.962   0.324  0.1881 -0.4268  0.0713
  293MOL0     C39475  11.004   9.087   0.381 -1.2297  0.3798  0.3094
  293MOL0     C39476  11.118   9.166   0.343 -0.0031 -0.5776  0.6861
  293MOL0     C39477  11.199   9.128   0.236 -0.6350  0.4604  0.8954
  293MOL0     O39478  11.306   9.202   0.194 -0.3858 -0.4800  0.2921
  293MOL0     C39479  11.363   9.305   0.286 -0.5998  0.7075  0.1382
  293MOL0     C39480  11.487   9.388   0.244 -0.1965 -0.2253 -1.3557
  293MOL0     C39481  11.621   9.309   0.267 -0.2764  0.4929 -0.0366
  293MOL0     C39482  11.637   9.192   0.167  0.5699  0.4095 -0.0159
  293MOL0     C39483  11.634   9.238   0.027 -0.3735  1.5396 -0.2784
  293MOL0     C39484  11.629   9.263  -0.093 -0.2306 -0.4024  0.0823
  293MOL0     C39485  11.170   9.009   0.174 -0.0256 -0.0726  0.9399
  293MOL0     C39486  11.065   8.926   0.220 -0.8700  0.3013  0.3400
  293MOL0     C39487  11.052   8.799   0.161  0.5577  0.2380  0.6763
  293MOL0     H39488  10.511   8.988   0.500 -0.0205  0.0531  2.4932
  293MOL0     H39489  10.302   8.848   0.495  0.1205 -1.4845  2.3858
  293MOL0     H39490  10.326   8.429   0.305  0.9607  1.0035 -1.0081
  293MOL0     H39491  10.324   8.429   0.476  3.7718  0.2434 -1.7517
  293MOL0     H39492  10.121   8.307   0.386 -4.2074 -0.4322  0.4317
  293MOL0     H39493  10.067   8.456   0.313 -1.7890 -2.3968  0.8055
  293MOL0     H39494  10.063   8.553   0.532  1.2682 -0.0489  5.1330
  293MOL0     H39495  10.127   8.408   0.610  1.6340  1.1637 -1.0328
  293MOL0     H39496   9.912   8.307   0.454  2.6838  0.3343 -0.4752
  293MOL0     H39497   9.905   8.360   0.629 -3.2368  2.6504  0.6667
  293MOL0     H39498   9.728   8.460   0.533  0.1140 -0.8247 -1.5721
  293MOL0     H39499   9.849   8.584   0.581  3.3202  1.0392 -2.7387
  293MOL0     H39500   9.923   8.612   0.353  1.0666 -0.3746  2.2519
  293MOL0     H39501   9.834   8.481   0.289  1.2092 -0.3566  0.8479
  293MOL0     H39502   9.695   8.729   0.425  3.3358  0.2876  0.8978
  293MOL0     H39503   9.620   8.598   0.330  0.2651  1.3825  0.2292
  293MOL0     H39504   9.654   8.818   0.229  0.4523 -0.3686  1.5910
  293MOL0     H39505   9.830   8.785   0.211  1.5873 -4.2068 -3.8021
  293MOL0     H39506   9.904   8.750  -0.021  0.0059 -0.9670 -2.6000
  293MOL0     H39507   9.767   8.507  -0.289 -0.6993  0.7835  1.5393
  293MOL0     H39508   9.821   8.685  -0.298  0.9677  0.5360  0.5842
  293MOL0     H39509  10.004   8.543  -0.337 -2.1080  0.1501 -1.8807
  293MOL0     H39510  10.018   8.630  -0.179  0.8904  0.3345 -2.7450
  293MOL0     H39511   9.925   8.337  -0.208  1.3003 -0.2254 -0.9749
  293MOL0     H39512   9.942   8.434  -0.053  0.6883  1.7502  0.4957
  293MOL0     H39513  10.173   8.379  -0.257  0.7772  0.7476  0.4715
  293MOL0     H39514  10.130   8.280  -0.120 -2.6439  0.6642 -0.2859
  293MOL0     H39515  10.311   8.631   0.045  1.3252  0.3531  0.4506
  293MOL0     H39516  10.553   8.664   0.060  0.2167  4.6315 -3.2011
  293MOL0     H39517  10.990   8.299  -0.055 -0.6408  0.6265  0.8895
  293MOL0     H39518  11.226   8.364   0.005 -0.6853 -1.6526 -1.7073
  293MOL0     H39519  11.453   8.424  -0.110 -1.2242 -0.0549 -1.4355
  293MOL0     H39520  11.549   8.572  -0.090  1.5386 -1.1587  0.3669
  293MOL0     H39521  11.373   8.466   0.127  0.6540 -1.1062  0.0752
  293MOL0     H39522  11.545   8.455   0.113  0.1959 -0.3912 -0.9279
  293MOL0     H39523  11.574   8.704   0.123  0.9491 -1.1447  0.7603
  293MOL0     H39524  11.402   8.722   0.083  0.1479 -1.8267 -1.9126
  293MOL0     H39525  11.511   8.601   0.352 -1.1107  0.6992  2.9455
  293MOL0     H39526  11.347   8.618   0.316  0.9267 -2.0346 -0.1779
  293MOL0     H39527  11.404   8.877   0.302  2.0372  1.9399 -0.1551
  293MOL0     H39528  11.562   8.833   0.369 -0.3488 -0.5694  1.9829
  293MOL0     H39529  11.332   8.720   0.524 -3.6308  2.1817  2.2402
  293MOL0     H39530  11.474   8.825   0.572 -0.8592  4.2020  2.0581
  293MOL0     H39531  11.193   8.906   0.466 -0.5776 -0.3543 -0.6570
  293MOL0     H39532  11.341   9.009   0.480 -1.8945 -0.3313 -3.0351
  293MOL0     H39533  11.242   8.849   0.705 -0.2177 -0.1437  1.4472
  293MOL0     H39534  11.379   8.971   0.694 -0.2501  3.0900 -1.3294
  293MOL0     H39535  11.170   8.724  -0.232  1.7854 -1.3895 -4.1478
  293MOL0     H39536  10.931   8.660  -0.276  1.1067  0.8576  0.6347
  293MOL0     H39537  10.619   8.347  -0.229  2.6393  0.1320  1.7846
  293MOL0     H39538  10.367   8.303  -0.240 -3.3215  1.4809  1.7726
  293MOL0     H39539  10.513   8.530   0.308 -2.4045  0.2911  0.8699
  293MOL0     H39540  10.718   8.661   0.296 -0.0545 -0.5110  0.3530
  293MOL0     H39541  10.933   9.118   0.457 -1.0721  1.2424  0.1086
  293MOL0     H39542  11.129   9.259   0.399  1.3662 -0.4621  0.2491
  293MOL0     H39543  11.383   9.237   0.370  1.2076 -0.7601 -1.3757
  293MOL0     H39544  11.292   9.381   0.320  0.5539  0.9397  2.2033
  293MOL0     H39545  11.484   9.471   0.314 -3.0320  1.5403 -3.3165
  293MOL0     H39546  11.478   9.429   0.143 -0.9253  1.6247 -0.5855
  293MOL0     H39547  11.632   9.278   0.371 -1.0196  1.5020  0.3625
  293MOL0     H39548  11.702   9.377   0.241 -0.6107  1.2694  0.9125
  293MOL0     H39549  11.728   9.133   0.178  0.8802 -0.0158 -3.6211
  293MOL0     H39550  11.549   9.129   0.182 -1.0616  2.2097 -1.4201
  293MOL0     H39551  11.635   9.269  -0.200 -0.1584 -0.4019  0.0863
  293MOL0     H39552  11.242   8.976   0.100  1.7213 -2.2737  3.4294
  293MOL0     H39553  11.124   8.794   0.079  0.8111 -0.6999  0.9389
  293MOL0     H39554  11.062   8.721   0.237 -1.5029  0.2606  1.0398
  293MOL0     H39555  10.957   8.786   0.108  0.8010  0.3085  0.2213
  294MOL0     O39556   9.008   0.564   5.813  0.6419  0.3720  0.0093
  294MOL0     C39557   8.995   0.686   5.802  0.0699  0.0567 -0.6848
  294MOL0     O39558   9.043   0.761   5.707 -0.1974  0.4954  0.2046
  294MOL0     C39559   9.114   0.720   5.596  0.4416 -0.1595 -0.7777
  294MOL0     C39560   9.092   0.783   5.479  0.3084  0.0446 -0.2845
  294MOL0     C39561   9.174   0.787   5.367  0.4071  0.9684 -0.2152
  294MOL0     C39562   9.284   0.694   5.363  0.1479 -0.8344 -0.3585
  294MOL0     O39563   9.351   0.665   5.248 -0.6702 -0.4945  0.0372
  294MOL0     C39564   9.288   0.640   5.124 -0.7938  0.3767 -0.6645
  294MOL0     C39565   9.382   0.691   5.019  0.0367  0.4378 -0.0422
  294MOL0     C39566   9.319   0.685   4.882  0.6747 -0.6245 -0.0353
  294MOL0     C39567   9.422   0.734   4.774  0.5229  0.2243  0.1677
  294MOL0     C39568   9.432   0.894   4.769  0.5574  0.4689 -0.2446
  294MOL0     C39569   9.340   0.947   4.660 -0.0357 -0.8187 -0.0352
  294MOL0     C39570   9.363   1.100   4.645 -0.9232  0.5249 -0.5609
  294MOL0     C39571   9.499   1.133   4.571 -0.4588  0.6831  0.7934
  294MOL0     N39572   9.545   1.271   4.587  0.2181  0.1511  0.3899
  294MOL0     C39573   9.559   1.341   4.704 -0.0648  0.7212  0.4927
  294MOL0     C39574   9.621   1.454   4.658 -1.0994  0.7352 -0.7120
  294MOL0     C39575   9.651   1.569   4.751 -0.3825  0.1091  0.0253
  294MOL0     C39576   9.572   1.699   4.725  0.3164 -1.3415 -0.1765
  294MOL0     C39577   9.559   1.752   4.582 -0.3371 -0.1956  0.1520
  294MOL0     C39578   9.692   1.794   4.511 -0.5754 -0.2640 -0.2065
  294MOL0     O39579   9.754   1.912   4.572 -0.0311  0.5484  0.2141
  294MOL0     C39580   9.679   2.020   4.555 -0.0439  0.9081 -1.2302
  294MOL0     C39581   9.637   2.094   4.671 -0.1325  1.1609 -0.4799
  294MOL0     C39582   9.563   2.209   4.661 -0.5036 -0.8893 -0.0886
  294MOL0     C39583   9.523   2.260   4.537  0.1219  0.2747  0.5520
  294MOL0     C39584   9.419   2.368   4.529 -0.2537 -0.6790  0.4538
  294MOL0     O39585   9.357   2.381   4.412  0.1527 -0.9005  0.5806
  294MOL0     C39586   9.310   2.512   4.386  0.3372 -0.2611 -0.0375
  294MOL0     C39587   9.208   2.529   4.292  0.4455 -0.4769  0.6840
  294MOL0     C39588   9.157   2.645   4.248 -0.0487  0.7925  0.1567
  294MOL0     C39589   9.211   2.768   4.294 -0.0191 -0.8966  1.1103
  294MOL0     O39590   9.151   2.883   4.241 -0.0517  0.0819 -0.1128
  294MOL0     C39591   9.225   3.007   4.255  0.2122 -0.0302 -0.7398
  294MOL0     C39592   9.334   3.017   4.144  0.4164  0.1264  0.5459
  294MOL0     C39593   9.388   3.154   4.129  0.0966 -1.3181 -0.0501
  294MOL0     C39594   9.517   3.161   4.047  0.4172 -0.0730 -0.3156
  294MOL0     C39595   9.640   3.141   4.137 -0.0325  0.7004  0.0730
  294MOL0     C39596   9.752   3.063   4.057 -0.1755 -0.8169 -0.4016
  294MOL0     C39597   9.871   3.002   4.143  0.7082  0.0778 -0.5373
  294MOL0     C39598   9.986   2.947   4.054 -0.4037 -0.1047 -0.2323
  294MOL0    Cl39599  10.080   3.090   3.999 -0.0634 -0.3101 -0.3089
  294MOL0     C39600   9.316   2.765   4.387  0.5130  0.7468 -0.2624
  294MOL0     C39601   9.370   2.640   4.430 -1.0425  0.2843 -0.6124
  294MOL0     O39602   9.378   2.410   4.639 -0.2375  0.2484 -0.5318
  294MOL0     C39603   9.578   2.193   4.421  0.1351 -0.4522 -0.3325
  294MOL0     C39604   9.659   2.078   4.437  0.0195  0.0528 -0.1037
  294MOL0     N39605   9.623   1.449   4.517  0.6283 -0.5307  0.2605
  294MOL0     N39606   9.577   1.338   4.474  0.8468  0.8957  0.8578
  294MOL0     C39607   9.302   0.616   5.475 -0.0736  0.4375  0.3255
  294MOL0     C39608   9.220   0.632   5.594 -0.1851  0.1284  0.3973
  294MOL0     C39609   8.916   0.750   5.905 -0.5247  0.5655  0.4954
  294MOL0     C39610   8.963   0.752   6.035  0.2214 -0.9475 -0.6519
  294MOL0     C39611   8.885   0.806   6.141  0.1017 -0.8752 -0.1389
  294MOL0     C39612   8.765   0.869   6.119  0.6837  0.2545 -0.1149
  294MOL0     O39613   8.702   0.930   6.224  0.2822  0.4187 -0.2571
  294MOL0     C39614   8.557   0.941   6.204  0.0731 -0.9011 -1.0903
  294MOL0     C39615   8.494   1.002   6.328 -0.0788  0.4478  0.0325
  294MOL0     C39616   8.537   1.151   6.370 -0.0101 -0.2657 -0.3229
  294MOL0     C39617   8.482   1.203   6.499  0.0894 -0.0908  0.7834
  294MOL0     C39618   8.474   1.096   6.604 -0.4670  0.5444  0.9229
  294MOL0     C39619   8.474   1.010   6.680  0.9419  0.7234 -0.4191
  294MOL0     C39620   8.712   0.857   5.987  0.3693 -0.0257  0.6805
  294MOL0     C39621   8.787   0.804   5.879  0.1193  0.8079  0.2516
  294MOL0     C39622   8.727   0.797   5.744 -0.7337  0.4391 -0.7823
  294MOL0     H39623   9.009   0.854   5.479 -0.0624 -0.3829 -0.0454
  294MOL0     H39624   9.145   0.849   5.283 -1.0806  0.4972 -0.0798
  294MOL0     H39625   9.276   0.532   5.121 -1.8004  0.4296  0.5271
  294MOL0     H39626   9.190   0.688   5.115 -1.4863 -1.0962 -1.1323
  294MOL0     H39627   9.475   0.632   5.018  0.8292  1.5876  1.6717
  294MOL0     H39628   9.400   0.797   5.039 -0.6902  0.2026  2.1293
  294MOL0     H39629   9.229   0.747   4.865 -0.4658 -2.7569 -2.5101
  294MOL0     H39630   9.279   0.586   4.861 -0.9514  0.5239 -2.9716
  294MOL0     H39631   9.522   0.697   4.802 -0.3526 -3.5681 -1.1478
  294MOL0     H39632   9.396   0.693   4.676  1.8725 -2.4179  0.8211
  294MOL0     H39633   9.396   0.932   4.865 -1.4431 -0.2134 -0.6888
  294MOL0     H39634   9.534   0.923   4.743  0.4320  0.4325 -0.7931
  294MOL0     H39635   9.376   0.900   4.568  1.2923  1.2814 -0.6629
  294MOL0     H39636   9.238   0.921   4.691  0.7788 -1.5655  2.2296
  294MOL0     H39637   9.368   1.136   4.749 -1.1907 -0.1971 -0.2957
  294MOL0     H39638   9.282   1.147   4.589 -1.6797 -2.0903 -1.8181
  294MOL0     H39639   9.590   1.078   4.597  1.8697  3.5412 -0.7587
  294MOL0     H39640   9.480   1.099   4.468 -0.5989 -1.3359  1.4292
  294MOL0     H39641   9.529   1.312   4.804 -1.4494 -0.2633 -0.1765
  294MOL0     H39642   9.617   1.527   4.846 -1.5121  0.7432 -0.0926
  294MOL0     H39643   9.756   1.598   4.764 -1.5107  4.9939  0.2257
  294MOL0     H39644   9.470   1.681   4.760  0.7426 -1.5014  1.0193
  294MOL0     H39645   9.607   1.788   4.779  1.7730 -1.5020 -0.8147
  294MOL0     H39646   9.491   1.837   4.582  0.5381  0.5563  1.8641
  294MOL0     H39647   9.506   1.670   4.532 -0.8577 -0.4559  1.1031
  294MOL0     H39648   9.678   1.815   4.404  1.6653  0.6685 -0.3810
  294MOL0     H39649   9.764   1.712   4.513 -1.6731 -1.2421  0.4021
  294MOL0     H39650   9.670   2.058   4.768 -1.4657 -1.1034 -0.7983
  294MOL0     H39651   9.525   2.269   4.744  2.8066  2.3699 -0.6362
  294MOL0     H39652   9.151   2.451   4.242 -0.0557  1.1624 -1.4186
  294MOL0     H39653   9.068   2.644   4.186 -1.3344  0.8674  1.9193
  294MOL0     H39654   9.147   3.083   4.269 -0.7429 -0.9345 -1.0472
  294MOL0     H39655   9.276   3.011   4.352  2.1736 -2.2881 -1.5754
  294MOL0     H39656   9.420   2.951   4.158  1.9432  0.6288 -4.5443
  294MOL0     H39657   9.295   2.992   4.045  1.6722  3.9023 -1.1101
  294MOL0     H39658   9.318   3.230   4.093  2.4627  1.1019  0.1485
  294MOL0     H39659   9.414   3.190   4.229  0.0364  0.4623 -0.6422
  294MOL0     H39660   9.518   3.263   4.006  1.3243  1.0287  2.2384
  294MOL0     H39661   9.515   3.090   3.964  2.0120  0.6206 -0.9819
  294MOL0     H39662   9.612   3.085   4.227  1.6227 -1.8867 -0.8829
  294MOL0     H39663   9.683   3.237   4.166  0.1270  0.5594  0.3106
  294MOL0     H39664   9.713   3.001   3.976  0.2198  0.5751 -1.7255
  294MOL0     H39665   9.793   3.143   3.995 -0.2435  0.1585  0.7688
  294MOL0     H39666   9.818   2.921   4.194 -0.0914 -0.7102 -2.5364
  294MOL0     H39667   9.895   3.071   4.225 -2.3440 -0.1850  0.7181
  294MOL0     H39668  10.056   2.885   4.110  0.2586 -2.5499 -3.4809
  294MOL0     H39669   9.944   2.885   3.975  1.3808 -0.2927 -1.0795
  294MOL0     H39670   9.363   2.851   4.433  0.2882  0.4620  0.5271
  294MOL0     H39671   9.446   2.634   4.508 -1.1666 -0.1557 -0.5250
  294MOL0     H39672   9.550   2.226   4.321 -1.6958  0.0664  0.3176
  294MOL0     H39673   9.702   2.039   4.345 -0.5326 -1.3381  0.2165
  294MOL0     H39674   9.380   0.543   5.458  0.3513  1.6534 -4.0999
  294MOL0     H39675   9.230   0.574   5.686 -1.7907 -1.5929 -0.4388
  294MOL0     H39676   9.061   0.712   6.062  0.2400 -1.0992 -0.9384
  294MOL0     H39677   8.925   0.815   6.242 -2.3959 -0.6047  0.9038
  294MOL0     H39678   8.515   0.841   6.192 -0.0066 -1.0689  0.4239
  294MOL0     H39679   8.531   1.006   6.120 -1.2136 -0.8295 -0.6583
  294MOL0     H39680   8.507   0.930   6.409  1.5088 -1.0767 -1.5119
  294MOL0     H39681   8.387   0.999   6.307 -0.1057 -0.5872  0.2512
  294MOL0     H39682   8.504   1.212   6.286 -0.0036 -0.7463 -0.6789
  294MOL0     H39683   8.646   1.152   6.379 -0.0274 -0.5276 -0.0613
  294MOL0     H39684   8.533   1.295   6.528  1.9144 -0.9443  0.4219
  294MOL0     H39685   8.375   1.226   6.496 -0.0703 -0.8671 -1.2242
  294MOL0     H39686   8.460   0.933   6.754  1.5918  2.1910  1.3004
  294MOL0     H39687   8.617   0.902   5.960  0.1391 -1.7699 -1.7273
  294MOL0     H39688   8.625   0.758   5.746 -0.8249  0.6683 -0.8991
  294MOL0     H39689   8.719   0.895   5.696 -0.4119  1.0383  0.3364
  294MOL0     H39690   8.789   0.737   5.677  0.1911 -0.3845  0.7395
  295MOL0     O39691  10.641   3.100   6.392 -0.6334  1.4219 -0.0922
  295MOL0     C39692  10.624   3.104   6.273 -0.2869  0.5300 -0.4442
  295MOL0     O39693  10.642   3.207   6.187  0.1907 -0.2304 -0.6806
  295MOL0     C39694  10.707   3.317   6.236  0.4134 -0.2051 -1.0853
  295MOL0     C39695  10.820   3.314   6.326 -0.1687 -0.1673  0.3307
  295MOL0     C39696  10.887   3.429   6.374 -0.8232  0.1332  0.5478
  295MOL0     C39697  10.826   3.552   6.342 -0.5889 -0.5092 -0.0626
  295MOL0     O39698  10.865   3.656   6.415  0.4144  0.3596  0.0368
  295MOL0     C39699  10.912   3.774   6.341  0.2111  0.5362  0.1677
  295MOL0     C39700  10.983   3.867   6.447 -1.1613  0.1487 -0.2399
  295MOL0     C39701  11.105   3.941   6.385  0.7863  0.7157  0.1179
  295MOL0     C39702  11.239   3.857   6.409  0.6850 -1.2397  0.6965
  295MOL0     C39703  11.342   3.923   6.325 -0.7579  0.0102  0.2537
  295MOL0     C39704  11.478   3.888   6.374 -0.7507  0.5949 -0.0605
  295MOL0     C39705  11.591   3.922   6.282  0.0601 -0.2169  1.0462
  295MOL0     C39706  11.723   3.858   6.345 -0.5416  0.0921  0.1877
  295MOL0     N39707  11.823   3.865   6.232 -0.5441  0.2043 -1.6395
  295MOL0     C39708  11.953   3.909   6.251  0.4016  1.3730  0.3413
  295MOL0     C39709  12.009   3.897   6.121  0.7645  0.6637 -0.3777
  295MOL0     C39710  12.149   3.935   6.088 -0.2667  0.2252 -0.3067
  295MOL0     C39711  12.168   3.937   5.930  0.7905  0.4569 -0.0096
  295MOL0     C39712  12.319   3.948   5.913  0.0584 -0.1579 -0.7583
  295MOL0     C39713  12.350   4.101   5.898 -0.5352  0.5092 -0.4233
  295MOL0     O39714  12.415   4.155   6.016  0.0255  0.6909  0.0348
  295MOL0     C39715  12.487   4.271   6.015  0.9888  0.2994  0.9979
  295MOL0     C39716  12.607   4.280   6.093  0.4241  0.1713  0.1426
  295MOL0     C39717  12.695   4.388   6.069 -0.3394 -0.5360  0.2231
  295MOL0     C39718  12.663   4.490   5.978 -0.5604 -0.4054  0.0282
  295MOL0     C39719  12.764   4.603   5.957  0.6444 -0.4786 -0.0600
  295MOL0     O39720  12.719   4.709   5.877 -0.2555  0.2166  0.0889
  295MOL0     C39721  12.803   4.783   5.808 -0.9899 -0.8303  0.8189
  295MOL0     C39722  12.786   4.806   5.665  1.3807  0.1749  0.2398
  295MOL0     C39723  12.863   4.903   5.603  0.7205  0.2840 -0.1289
  295MOL0     C39724  12.959   4.979   5.666 -0.7002 -0.0568 -0.3403
  295MOL0     O39725  13.044   5.076   5.613 -0.8223  0.0618  0.1519
  295MOL0     C39726  13.032   5.105   5.475  0.5295  0.4661  0.0792
  295MOL0     C39727  12.915   5.180   5.425  0.3433  0.5449 -0.1610
  295MOL0     C39728  12.948   5.271   5.313  0.3802 -0.8478  1.3516
  295MOL0     C39729  12.872   5.411   5.315 -0.5527 -0.3424  0.1674
  295MOL0     C39730  12.922   5.521   5.219  0.0384  0.3336 -0.6202
  295MOL0     C39731  12.925   5.479   5.076  0.4243  0.3135  0.0366
  295MOL0     C39732  12.792   5.462   5.005  0.1164  0.0631  0.3359
  295MOL0     C39733  12.799   5.406   4.861 -0.3999  0.5267 -0.3413
  295MOL0    Cl39734  12.849   5.229   4.871 -0.1586  0.0289  0.3903
  295MOL0     C39735  12.986   4.950   5.798 -0.4071  0.1047  0.3072
  295MOL0     C39736  12.906   4.859   5.862 -0.4760  0.1930 -0.4561
  295MOL0     O39737  12.872   4.598   6.000  0.4906 -0.8295  0.1607
  295MOL0     C39738  12.534   4.492   5.910 -0.4435  0.0581 -0.7050
  295MOL0     C39739  12.443   4.379   5.930  0.3576 -0.2872  0.1054
  295MOL0     N39740  11.916   3.837   6.040  0.6623 -0.0703  0.3459
  295MOL0     N39741  11.805   3.820   6.106  0.3283  0.0562  0.1414
  295MOL0     C39742  10.701   3.560   6.273 -0.0903 -0.2293 -0.2165
  295MOL0     C39743  10.649   3.437   6.222  0.1076  1.8144 -0.4001
  295MOL0     C39744  10.570   2.986   6.201 -0.1147 -0.0542  0.4469
  295MOL0     C39745  10.602   2.973   6.058 -0.3066 -0.2177 -0.4310
  295MOL0     C39746  10.558   2.857   5.996  0.0754 -0.2202  0.5969
  295MOL0     C39747  10.489   2.760   6.060  1.2662 -0.6166 -0.2279
  295MOL0     O39748  10.429   2.660   5.996  0.3579 -0.0618  0.5820
  295MOL0     C39749  10.448   2.635   5.856  0.0388 -0.0643 -0.6245
  295MOL0     C39750  10.346   2.552   5.802 -0.2088 -0.1315 -0.4210
  295MOL0     C39751  10.357   2.400   5.822  0.1609  0.2341  0.3657
  295MOL0     C39752  10.248   2.323   5.746 -0.0097  0.4622 -0.0272
  295MOL0     C39753  10.123   2.366   5.799  0.9111  0.6551 -0.1898
  295MOL0     C39754  10.016   2.406   5.857 -0.5479  0.2195 -0.0990
  295MOL0     C39755  10.448   2.778   6.193 -0.6595  0.2908  0.3746
  295MOL0     C39756  10.495   2.883   6.264  0.5420 -0.3422 -0.1361
  295MOL0     C39757  10.469   2.885   6.418 -0.2253  0.1167 -0.0923
  295MOL0     H39758  10.866   3.218   6.349 -0.7610 -0.7524 -0.8260
  295MOL0     H39759  10.963   3.421   6.451 -1.8150  2.1628  1.8143
  295MOL0     H39760  10.983   3.749   6.262  2.3547  0.5083  1.9982
  295MOL0     H39761  10.827   3.820   6.291 -0.1307  0.6533  0.8410
  295MOL0     H39762  11.035   3.806   6.522 -0.9471 -0.5444 -0.9306
  295MOL0     H39763  10.921   3.933   6.508  0.2621  1.6851 -0.4126
  295MOL0     H39764  11.115   4.042   6.425 -0.1233  0.5064  0.8969
  295MOL0     H39765  11.080   3.935   6.278  0.7619 -4.7170  0.1414
  295MOL0     H39766  11.272   3.853   6.513 -0.5026 -0.2563  1.1424
  295MOL0     H39767  11.225   3.752   6.381 -1.2522 -1.1871  1.2588
  295MOL0     H39768  11.327   3.900   6.219  2.9060  0.0918 -0.3969
  295MOL0     H39769  11.326   4.030   6.337  1.1737  0.3810 -0.1936
  295MOL0     H39770  11.505   3.932   6.470  2.8635 -1.3088 -0.0528
  295MOL0     H39771  11.475   3.779   6.385  3.0504 -0.1194 -3.5280
  295MOL0     H39772  11.615   4.029   6.288  0.4985 -0.2177 -0.4384
  295MOL0     H39773  11.571   3.878   6.184 -1.0477  3.3684 -0.5155
  295MOL0     H39774  11.757   3.906   6.437  0.7536  0.5620 -0.5108
  295MOL0     H39775  11.697   3.756   6.375  1.3324 -0.4281  0.1602
  295MOL0     H39776  11.997   3.941   6.344 -0.4131  0.3157  1.1140
  295MOL0     H39777  12.176   4.029   6.136  0.7033  0.8053 -1.8966
  295MOL0     H39778  12.200   3.851   6.136 -2.3409 -0.4829  0.7515
  295MOL0     H39779  12.149   3.834   5.897  0.1445  0.8518 -0.8978
  295MOL0     H39780  12.104   4.008   5.878 -0.6028 -1.3988 -0.9463
  295MOL0     H39781  12.341   3.895   5.820 -0.0504  0.8518 -1.3778
  295MOL0     H39782  12.381   3.904   5.991 -0.1084  1.6067  0.4392
  295MOL0     H39783  12.255   4.152   5.878 -1.0906 -0.4187 -0.1794
  295MOL0     H39784  12.415   4.134   5.816 -0.6634  3.7707  0.6558
  295MOL0     H39785  12.635   4.203   6.164  0.9803  1.0706  0.9289
  295MOL0     H39786  12.790   4.386   6.121  0.1516  0.8478 -0.5810
  295MOL0     H39787  12.708   4.756   5.608  1.8457  0.9551 -1.1295
  295MOL0     H39788  12.847   4.919   5.497 -1.1062 -2.1909 -0.3228
  295MOL0     H39789  13.121   5.165   5.456  1.0907 -0.7540 -1.3733
  295MOL0     H39790  13.039   5.016   5.412 -0.0310  0.8944 -0.6095
  295MOL0     H39791  12.833   5.118   5.387  0.4690  0.8302 -0.9043
  295MOL0     H39792  12.880   5.249   5.502  0.8218 -0.9895  1.5120
  295MOL0     H39793  13.054   5.269   5.283  0.1243 -2.7320  0.4155
  295MOL0     H39794  12.902   5.220   5.228  1.7990 -2.9199  1.7479
  295MOL0     H39795  12.872   5.461   5.413  0.2865  2.8124 -1.3106
  295MOL0     H39796  12.767   5.388   5.295 -0.6682 -1.9994  2.2519
  295MOL0     H39797  13.023   5.557   5.243  0.1270  0.2616 -0.8797
  295MOL0     H39798  12.866   5.614   5.230  1.2376  1.5019 -3.5659
  295MOL0     H39799  12.979   5.556   5.019  1.9374 -0.9943 -0.3708
  295MOL0     H39800  12.989   5.392   5.058 -0.7630 -0.9136  1.4780
  295MOL0     H39801  12.748   5.562   5.009 -1.3544 -0.3904 -2.3320
  295MOL0     H39802  12.725   5.406   5.072  2.6273 -1.4955  1.7096
  295MOL0     H39803  12.705   5.403   4.805  1.4691 -3.1242 -3.7419
  295MOL0     H39804  12.871   5.454   4.794 -0.8180  0.7328 -0.6439
  295MOL0     H39805  13.076   4.986   5.847  0.7461 -1.5344 -0.5057
  295MOL0     H39806  12.934   4.849   5.967  4.5530 -0.6062 -1.5868
  295MOL0     H39807  12.493   4.570   5.847  0.9381  0.9370 -0.5652
  295MOL0     H39808  12.341   4.367   5.897  0.6316 -1.1557 -0.4718
  295MOL0     H39809  10.649   3.655   6.260  1.9934  1.0030  0.0337
  295MOL0     H39810  10.551   3.436   6.176 -0.3081 -2.4570  0.1335
  295MOL0     H39811  10.665   3.037   5.997 -1.8426  0.9070 -0.9135
  295MOL0     H39812  10.578   2.835   5.892 -2.4500 -3.6897  0.6893
  295MOL0     H39813  10.551   2.599   5.851  0.7882 -0.2868  6.4950
  295MOL0     H39814  10.439   2.731   5.806 -1.4246 -0.4005 -1.0362
  295MOL0     H39815  10.359   2.560   5.694 -2.2216 -1.9848 -0.8707
  295MOL0     H39816  10.243   2.578   5.828 -0.4492 -3.5146  3.0558
  295MOL0     H39817  10.357   2.367   5.926 -0.8070 -0.3735  0.1847
  295MOL0     H39818  10.456   2.366   5.790  1.1688  3.5451 -0.4649
  295MOL0     H39819  10.243   2.338   5.638  1.4870 -3.4871 -0.8391
  295MOL0     H39820  10.245   2.215   5.763 -2.0813 -0.0401 -2.8702
  295MOL0     H39821   9.928   2.437   5.910 -0.0685 -1.2809  1.7115
  295MOL0     H39822  10.382   2.707   6.242 -1.4704  0.8984  0.2030
  295MOL0     H39823  10.372   2.838   6.440  0.6567 -2.4591 -1.4045
  295MOL0     H39824  10.549   2.841   6.478  1.0767  2.9600  0.4342
  295MOL0     H39825  10.449   2.988   6.451  0.4944  0.6218 -1.1857
  296MOL0     O39826   4.033   2.331  10.576  0.0865 -0.0952  0.4517
  296MOL0     C39827   3.977   2.438  10.561  0.6900 -0.4138  0.3169
  296MOL0     O39828   3.855   2.452  10.505  1.0854  0.1412  0.4735
  296MOL0     C39829   3.781   2.343  10.491  0.7768 -0.0150  0.2491
  296MOL0     C39830   3.680   2.338  10.585  0.5292 -0.5102 -0.6821
  296MOL0     C39831   3.576   2.239  10.582 -0.7519  0.1350 -0.0205
  296MOL0     C39832   3.590   2.139  10.481  0.0168  0.5559  0.5207
  296MOL0     O39833   3.502   2.034  10.478 -0.3215  0.5857  0.2236
  296MOL0     C39834   3.531   1.911  10.413  0.3801  0.4971 -0.0983
  296MOL0     C39835   3.411   1.822  10.425  0.3032  0.5172 -0.0618
  296MOL0     C39836   3.291   1.866  10.343  0.3461  1.0023 -0.3453
  296MOL0     C39837   3.193   1.743  10.339  0.4782  0.3349 -0.4301
  296MOL0     C39838   3.043   1.773  10.322  0.1282  0.2128 -0.2656
  296MOL0     C39839   3.003   1.807  10.181 -0.4657  0.0292  0.4907
  296MOL0     C39840   2.861   1.859  10.164  0.8104 -0.0802  0.4521
  296MOL0     C39841   2.751   1.749  10.144  0.1914  1.2366  0.4444
  296MOL0     N39842   2.759   1.687  10.012  0.2752  0.2261 -0.0702
  296MOL0     C39843   2.640   1.672   9.943 -0.6031 -1.6528 -0.4862
  296MOL0     C39844   2.670   1.634   9.813  0.1200 -1.2514 -0.6959
  296MOL0     C39845   2.585   1.599   9.691  0.5019  0.6304  0.4622
  296MOL0     C39846   2.533   1.457   9.699 -0.4149  0.8739 -0.1927
  296MOL0     C39847   2.425   1.426   9.806 -0.9585 -0.1681 -0.4694
  296MOL0     C39848   2.453   1.305   9.903 -0.7212 -0.4272  0.0032
  296MOL0     O39849   2.549   1.352   9.992  0.1754  0.2532 -0.3451
  296MOL0     C39850   2.520   1.363  10.131  0.0318  0.2958 -0.8419
  296MOL0     C39851   2.619   1.327  10.219  0.2224  0.0984  0.0526
  296MOL0     C39852   2.582   1.310  10.355  1.2058  0.5909 -0.2665
  296MOL0     C39853   2.450   1.336  10.401 -0.3975  0.6617  0.3187
  296MOL0     C39854   2.406   1.327  10.543  0.0873 -1.0834 -1.3606
  296MOL0     O39855   2.293   1.394  10.580  0.5008 -0.0444  0.0212
  296MOL0     C39856   2.243   1.388  10.702  0.6361  0.1068  0.0487
  296MOL0     C39857   2.204   1.507  10.754  0.1269  0.4125 -0.8618
  296MOL0     C39858   2.170   1.500  10.891  0.1114 -0.3026 -0.1699
  296MOL0     C39859   2.158   1.385  10.965 -0.0840  0.7126 -0.0716
  296MOL0     O39860   2.114   1.392  11.092  0.3858 -0.6029 -0.5517
  296MOL0     C39861   2.196   1.446  11.202 -0.2167  0.0301 -0.2641
  296MOL0     C39862   2.108   1.466  11.320 -0.0730  0.4399 -0.0525
  296MOL0     C39863   2.188   1.441  11.453 -0.0714 -0.2959 -0.2702
  296MOL0     C39864   2.264   1.569  11.496 -0.1584 -1.0524 -0.4067
  296MOL0     C39865   2.350   1.543  11.619 -0.2155  0.8634  0.4848
  296MOL0     C39866   2.426   1.672  11.667  1.0978 -0.2550 -0.2575
  296MOL0     C39867   2.461   1.662  11.811  0.3174 -0.2199 -0.0345
  296MOL0     C39868   2.575   1.751  11.846 -0.4473 -0.7686  0.0680
  296MOL0    Cl39869   2.570   1.766  12.029  0.1732  0.1676 -0.1134
  296MOL0     C39870   2.180   1.262  10.897  0.0894  0.0017  0.1815
  296MOL0     C39871   2.231   1.267  10.771 -0.0416  0.4198  0.1860
  296MOL0     O39872   2.482   1.263  10.616 -0.2790 -0.5157  0.2159
  296MOL0     C39873   2.351   1.380  10.307  0.0410 -0.5043 -0.0352
  296MOL0     C39874   2.393   1.393  10.173  0.3462 -0.2378  0.2536
  296MOL0     N39875   2.802   1.638   9.801 -0.5120 -0.3472  0.8380
  296MOL0     N39876   2.858   1.668   9.919  0.4478 -0.4921  0.5590
  296MOL0     C39877   3.689   2.166  10.390 -0.6519  0.1959  0.0722
  296MOL0     C39878   3.789   2.254  10.396 -0.3295 -0.6700  0.0016
  296MOL0     C39879   4.043   2.557  10.608 -0.3622  0.0953  0.6541
  296MOL0     C39880   4.188   2.558  10.608  0.6352  0.4921 -0.2371
  296MOL0     C39881   4.257   2.665  10.658  0.2290 -0.1783 -0.2120
  296MOL0     C39882   4.191   2.787  10.703 -0.2560  0.0666 -0.1904
  296MOL0     O39883   4.258   2.894  10.750  0.6532  0.5793  0.0671
  296MOL0     C39884   4.398   2.896  10.743  0.1056  0.0815 -0.0278
  296MOL0     C39885   4.449   3.036  10.766  0.8082 -0.1556  0.0053
  296MOL0     C39886   4.432   3.141  10.657  0.1758  0.2039  0.5171
  296MOL0     C39887   4.492   3.084  10.530 -0.3559  0.5410  0.0934
  296MOL0     C39888   4.640   3.096  10.539  0.3704  0.1669  0.6208
  296MOL0     C39889   4.758   3.113  10.556 -0.3791  0.0529  0.0953
  296MOL0     C39890   4.053   2.780  10.704  0.4272 -0.5214  0.2651
  296MOL0     C39891   3.980   2.676  10.644  0.0218 -0.0963 -0.3975
  296MOL0     C39892   3.829   2.694  10.654 -0.1478  0.8434  0.8635
  296MOL0     H39893   3.657   2.424  10.647 -2.3846 -0.7577 -1.2998
  296MOL0     H39894   3.495   2.229  10.653  1.0247 -0.3361  2.0144
  296MOL0     H39895   3.548   1.909  10.305 -0.4047  0.4509 -0.2284
  296MOL0     H39896   3.619   1.865  10.460 -0.7554 -1.0859  0.5897
  296MOL0     H39897   3.387   1.801  10.530  0.6270 -1.5925 -0.3687
  296MOL0     H39898   3.436   1.723  10.388  1.2228  1.6304 -2.6506
  296MOL0     H39899   3.316   1.878  10.238 -0.1603  0.0209 -0.5851
  296MOL0     H39900   3.238   1.959  10.368 -1.9056 -0.3155  0.0896
  296MOL0     H39901   3.229   1.682  10.255 -2.1119 -0.3449 -1.1341
  296MOL0     H39902   3.200   1.684  10.431 -0.7965  0.1407 -0.4502
  296MOL0     H39903   2.979   1.686  10.343 -1.2070  0.5181 -2.6763
  296MOL0     H39904   3.019   1.856  10.388 -0.0485 -0.4947  0.5806
  296MOL0     H39905   3.077   1.873  10.135  0.4811 -3.4090 -3.4243
  296MOL0     H39906   3.018   1.709  10.136  3.9446 -0.6636  2.9080
  296MOL0     H39907   2.852   1.914  10.070  1.0323 -2.0007 -0.7540
  296MOL0     H39908   2.826   1.916  10.250 -0.5534 -1.9316  1.1818
  296MOL0     H39909   2.771   1.666  10.212 -1.0975  0.6029  0.0774
  296MOL0     H39910   2.656   1.798  10.166 -0.2404 -0.3923  2.4204
  296MOL0     H39911   2.541   1.692   9.981  0.3782  2.8081  0.3365
  296MOL0     H39912   2.499   1.666   9.694 -0.4569 -0.4242 -1.7435
  296MOL0     H39913   2.645   1.606   9.600 -2.3366  0.6546 -1.5212
  296MOL0     H39914   2.504   1.423   9.599  2.5328 -0.5049 -0.7002
  296MOL0     H39915   2.610   1.382   9.719 -1.1304  0.6474  1.9784
  296MOL0     H39916   2.346   1.403   9.734 -0.1393 -2.1224 -0.8086
  296MOL0     H39917   2.403   1.517   9.863  3.4702 -1.3630  3.7943
  296MOL0     H39918   2.498   1.224   9.845 -2.0774  0.3570 -2.2373
  296MOL0     H39919   2.366   1.265   9.956 -0.8625  0.6948  0.6412
  296MOL0     H39920   2.713   1.310  10.168  0.0792 -1.4982  0.2970
  296MOL0     H39921   2.655   1.277  10.428  1.4661  0.1337 -0.7300
  296MOL0     H39922   2.209   1.594  10.689  1.8285  1.1103  0.1440
  296MOL0     H39923   2.147   1.587  10.951 -0.3946 -1.5844  1.5876
  296MOL0     H39924   2.272   1.370  11.223 -0.1310  0.6802  2.0638
  296MOL0     H39925   2.252   1.531  11.161  0.2564 -0.9965 -1.8401
  296MOL0     H39926   2.053   1.560  11.324 -0.3809  0.2343  0.9763
  296MOL0     H39927   2.031   1.390  11.308 -0.2828  0.1654  2.4294
  296MOL0     H39928   2.121   1.410  11.534  0.7059  2.1935  1.4688
  296MOL0     H39929   2.261   1.361  11.440 -0.8082 -0.8568 -1.0126
  296MOL0     H39930   2.195   1.651  11.515 -1.1832 -2.2844  1.4757
  296MOL0     H39931   2.336   1.610  11.424  2.0350 -2.7228  0.7081
  296MOL0     H39932   2.423   1.468  11.586 -2.0994  0.2494 -2.7054
  296MOL0     H39933   2.273   1.507  11.687 -1.5875 -0.4225 -1.6539
  296MOL0     H39934   2.522   1.682  11.616  1.1366  0.8265  0.0102
  296MOL0     H39935   2.371   1.764  11.648  2.1741  0.5882  0.5819
  296MOL0     H39936   2.487   1.558  11.833  0.0093 -0.1448  0.7406
  296MOL0     H39937   2.376   1.684  11.877 -1.9364  0.2603 -2.9025
  296MOL0     H39938   2.671   1.708  11.817 -1.2086 -1.0725 -2.3037
  296MOL0     H39939   2.553   1.845  11.793 -0.8961 -0.9258 -0.0288
  296MOL0     H39940   2.177   1.167  10.949  3.2566 -0.2200  0.1070
  296MOL0     H39941   2.248   1.172  10.721  1.6930  2.1740 -2.8528
  296MOL0     H39942   2.253   1.404  10.348  1.1401  1.7215  1.4878
  296MOL0     H39943   2.316   1.431  10.106 -0.2962 -1.1713  0.4461
  296MOL0     H39944   3.695   2.102  10.302  0.9666 -1.2673  1.1967
  296MOL0     H39945   3.859   2.281  10.317  1.1741 -2.0166  0.8269
  296MOL0     H39946   4.246   2.475  10.570 -1.1627 -1.3022  0.7296
  296MOL0     H39947   4.364   2.646  10.666 -0.1982 -2.1047  2.3636
  296MOL0     H39948   4.436   2.860  10.647  2.1165 -0.9892  1.1205
  296MOL0     H39949   4.442   2.819  10.806 -0.5159 -0.6103 -0.4149
  296MOL0     H39950   4.553   3.045  10.799 -0.2379  4.2566  3.0853
  296MOL0     H39951   4.392   3.058  10.857 -0.7440 -0.4255 -0.8537
  296MOL0     H39952   4.486   3.230  10.692  1.6716 -0.0638 -0.9662
  296MOL0     H39953   4.326   3.162  10.638 -0.3446 -3.9428 -2.5808
  296MOL0     H39954   4.457   2.986  10.496 -1.5489  0.5167  1.3226
  296MOL0     H39955   4.458   3.147  10.446  0.4802 -0.9019 -1.3909
  296MOL0     H39956   4.863   3.125  10.568 -0.4620  0.7757  0.1748
  296MOL0     H39957   3.989   2.859  10.741 -1.2254 -2.0195  0.7260
  296MOL0     H39958   3.807   2.794  10.691 -1.0743  0.3886  1.5932
  296MOL0     H39959   3.772   2.668  10.565 -3.3797  2.5635  2.2649
  296MOL0     H39960   3.792   2.632  10.737 -2.7759  2.1727  0.7834
  297MOL0     O39961   6.332   3.800   1.291  0.0323 -0.1952  0.5826
  297MOL0     C39962   6.353   3.785   1.412 -0.0907 -0.7873 -0.4133
  297MOL0     O39963   6.388   3.662   1.466 -0.3835  0.6185 -0.9153
  297MOL0     C39964   6.449   3.575   1.379  0.7772 -0.3917  0.2947
  297MOL0     C39965   6.583   3.586   1.343 -1.1748 -0.0381  0.4354
  297MOL0     C39966   6.631   3.496   1.245 -0.1641  0.2317 -0.5738
  297MOL0     C39967   6.557   3.394   1.185 -0.5960  0.4153 -0.0736
  297MOL0     O39968   6.627   3.313   1.090  0.2652  0.4567 -0.0088
  297MOL0     C39969   6.558   3.210   1.009 -0.4566  0.0170  0.6827
  297MOL0     C39970   6.629   3.166   0.893  0.2838 -0.1358 -0.0305
  297MOL0     C39971   6.757   3.099   0.933  0.3343 -0.0494  0.9902
  297MOL0     C39972   6.827   3.056   0.805  0.0292 -0.3684 -0.9457
  297MOL0     C39973   6.943   2.963   0.826 -1.8261  0.0861  0.1508
  297MOL0     C39974   7.033   2.963   0.693  0.2651 -0.1471 -0.9722
  297MOL0     C39975   7.162   2.879   0.702  1.0305 -0.1858 -0.3262
  297MOL0     C39976   7.140   2.735   0.667  0.0175  0.8786  0.3063
  297MOL0     N39977   7.239   2.637   0.714 -0.5753 -0.2193  0.9721
  297MOL0     C39978   7.227   2.586   0.839  0.3290  0.2489  0.9963
  297MOL0     C39979   7.276   2.461   0.827 -0.6912  1.0909  0.2301
  297MOL0     C39980   7.284   2.374   0.954 -0.6784 -0.1570  0.1179
  297MOL0     C39981   7.199   2.247   0.938  0.9393 -0.3435 -0.5833
  297MOL0     C39982   7.235   2.164   1.062 -0.7227 -0.0103 -0.2301
  297MOL0     C39983   7.185   2.018   1.059 -0.6359 -0.7897 -0.1339
  297MOL0     O39984   7.237   1.939   1.166 -0.6415  0.2882 -0.3913
  297MOL0     C39985   7.147   1.917   1.273 -1.2202  0.3171  1.1466
  297MOL0     C39986   7.028   1.980   1.299  0.0523  0.1796 -0.1037
  297MOL0     C39987   6.932   1.928   1.392 -0.4052  0.3996  0.1861
  297MOL0     C39988   6.976   1.826   1.483  0.6062 -0.8011 -0.3919
  297MOL0     C39989   6.880   1.771   1.586  0.5508 -0.5482 -0.3111
  297MOL0     O39990   6.919   1.676   1.666 -0.3599  0.2744 -0.1487
  297MOL0     C39991   6.853   1.640   1.783  0.1403 -0.3581 -0.3787
  297MOL0     C39992   6.713   1.650   1.810  0.4429 -0.3675  0.3481
  297MOL0     C39993   6.660   1.627   1.940 -0.0637  0.1439 -0.9810
  297MOL0     C39994   6.747   1.593   2.048  1.2868  0.0602  0.3143
  297MOL0     O39995   6.713   1.587   2.182 -0.1043  0.3483 -0.5897
  297MOL0     C39996   6.576   1.596   2.226 -0.3106 -0.1686  0.1399
  297MOL0     C39997   6.553   1.620   2.377 -0.2855  0.8918 -0.5460
  297MOL0     C39998   6.574   1.488   2.456 -0.2550 -0.3733 -0.1386
  297MOL0     C39999   6.495   1.360   2.405 -0.0012  0.3321 -1.1940
  297MOL0     C40000   6.529   1.233   2.478 -0.3642  0.2821 -0.5733
  297MOL0     C40001   6.465   1.107   2.422 -0.5368  0.3755 -0.4546
  297MOL0     C40002   6.495   0.970   2.493  0.2321 -0.6099  0.8173
  297MOL0     C40003   6.625   0.914   2.446  0.1125  0.0176  0.9040
  297MOL0    Cl40004   6.580   0.861   2.282  0.0650 -0.1895  0.5093
  297MOL0     C40005   6.881   1.578   2.019  1.2187 -0.4905 -0.7830
  297MOL0     C40006   6.930   1.590   1.890 -0.5743  0.5875  0.2192
  297MOL0     O40007   6.769   1.825   1.590  0.9327  0.3865  0.1622
  297MOL0     C40008   7.107   1.784   1.469  0.3958 -0.9068 -1.0406
  297MOL0     C40009   7.188   1.831   1.364  0.6003  0.1010  0.0913
  297MOL0     N40010   7.340   2.443   0.705  0.0246  1.0258  0.7053
  297MOL0     N40011   7.315   2.546   0.640 -0.7822  0.1033 -0.8672
  297MOL0     C40012   6.418   3.394   1.224  0.6267  0.8289  0.1221
  297MOL0     C40013   6.372   3.484   1.312  0.7245 -0.0887  1.0779
  297MOL0     C40014   6.323   3.895   1.505  0.5644  0.1922  0.1790
  297MOL0     C40015   6.319   3.871   1.642 -0.3108  0.2785 -0.7368
  297MOL0     C40016   6.306   3.975   1.737  0.6975  0.2033 -0.0455
  297MOL0     C40017   6.265   4.102   1.691  0.6155  0.0583 -0.6235
  297MOL0     O40018   6.247   4.193   1.793 -0.1261 -0.4843  0.1658
  297MOL0     C40019   6.124   4.271   1.796 -0.5357  1.1462 -0.8088
  297MOL0     C40020   5.992   4.196   1.785  0.3692 -0.2171 -0.8513
  297MOL0     C40021   5.972   4.103   1.904 -0.2608 -0.2850  0.0855
  297MOL0     C40022   5.833   4.037   1.886  0.0330 -0.0254  0.6152
  297MOL0     C40023   5.822   3.929   1.991  0.2997 -0.3127 -1.0772
  297MOL0     C40024   5.815   3.836   2.066 -0.0744 -0.6335 -0.2261
  297MOL0     C40025   6.263   4.129   1.560  0.3024 -0.4106  0.4670
  297MOL0     C40026   6.301   4.027   1.468  0.5242 -0.0741 -0.9485
  297MOL0     C40027   6.303   4.076   1.321  0.1208 -0.2719  0.4631
  297MOL0     H40028   6.648   3.648   1.404 -1.8000  0.1942  0.8833
  297MOL0     H40029   6.736   3.493   1.221 -0.2892  0.7230 -1.2231
  297MOL0     H40030   6.540   3.119   1.067 -3.2122 -0.9134 -1.4478
  297MOL0     H40031   6.462   3.240   0.967 -1.5752 -3.2649  0.5625
  297MOL0     H40032   6.663   3.241   0.821  0.4983 -0.9053 -0.7496
  297MOL0     H40033   6.553   3.106   0.843 -0.3962  1.1200 -0.5622
  297MOL0     H40034   6.736   3.014   1.000  1.7381 -0.7911  0.5347
  297MOL0     H40035   6.820   3.169   0.988 -0.4993 -0.1110  2.0613
  297MOL0     H40036   6.751   3.010   0.741 -0.8309  1.0457 -0.9913
  297MOL0     H40037   6.861   3.151   0.763  1.4773  1.1159  3.1549
  297MOL0     H40038   7.003   3.000   0.909 -0.4262  3.9764 -2.3443
  297MOL0     H40039   6.908   2.864   0.856  1.2105 -1.3068 -0.6412
  297MOL0     H40040   6.962   2.918   0.623 -1.0546  1.2320 -0.5652
  297MOL0     H40041   7.067   3.061   0.659  0.8224 -0.4286 -1.2396
  297MOL0     H40042   7.203   2.878   0.803  0.2558  1.9428  0.0441
  297MOL0     H40043   7.232   2.929   0.635  1.4381  2.3434  1.8443
  297MOL0     H40044   7.048   2.698   0.713  0.2801 -1.5490 -0.9905
  297MOL0     H40045   7.142   2.724   0.558  0.6131 -0.8570  0.4635
  297MOL0     H40046   7.176   2.624   0.927  2.2893 -1.5831  3.0268
  297MOL0     H40047   7.389   2.346   0.972 -0.2922  0.0325 -1.6589
  297MOL0     H40048   7.252   2.423   1.046  2.9077  0.9392  0.9629
  297MOL0     H40049   7.093   2.270   0.923  0.6424 -1.8397 -0.9778
  297MOL0     H40050   7.242   2.196   0.851 -1.4634  1.5056 -3.0659
  297MOL0     H40051   7.201   2.210   1.155 -0.6667  1.4672 -0.9104
  297MOL0     H40052   7.342   2.151   1.078 -1.0914 -3.7828 -0.0065
  297MOL0     H40053   7.226   1.984   0.963  0.2957  0.5231 -0.2284
  297MOL0     H40054   7.079   2.009   1.032 -1.0429 -3.3929  2.0013
  297MOL0     H40055   6.999   2.062   1.233  1.4188  1.0669  0.3673
  297MOL0     H40056   6.834   1.975   1.395  0.0748  1.7052 -2.2557
  297MOL0     H40057   6.637   1.684   1.741  1.0205 -2.2780 -1.3208
  297MOL0     H40058   6.555   1.647   1.957 -0.2548  2.1141 -3.9048
  297MOL0     H40059   6.540   1.683   2.171 -1.9755 -2.2146 -2.2523
  297MOL0     H40060   6.508   1.515   2.198 -1.3937  0.6422  0.3299
  297MOL0     H40061   6.617   1.704   2.408 -1.5869  1.0842  1.8581
  297MOL0     H40062   6.451   1.658   2.393 -0.5815  1.7209 -3.7844
  297MOL0     H40063   6.681   1.466   2.453 -0.5836 -2.0243 -1.2527
  297MOL0     H40064   6.549   1.497   2.563 -3.2509  0.7263 -0.8356
  297MOL0     H40065   6.507   1.343   2.298 -0.2626 -1.0348 -1.0224
  297MOL0     H40066   6.390   1.377   2.432 -0.3654 -1.9270 -0.9835
  297MOL0     H40067   6.499   1.242   2.582 -0.8855 -0.4005 -0.6601
  297MOL0     H40068   6.637   1.217   2.475 -0.1033  1.8166 -2.9953
  297MOL0     H40069   6.356   1.116   2.420 -0.7820  1.1946  4.1088
  297MOL0     H40070   6.500   1.097   2.319  2.0856  2.1926  0.1533
  297MOL0     H40071   6.422   0.890   2.475  2.4490 -2.1092 -2.3669
  297MOL0     H40072   6.502   0.999   2.599  4.1896  2.4833 -0.0482
  297MOL0     H40073   6.705   0.988   2.441 -0.4408  0.6316  1.0546
  297MOL0     H40074   6.657   0.836   2.516  0.7722  1.1114  1.8568
  297MOL0     H40075   6.947   1.565   2.105 -2.2395  1.4492  2.4497
  297MOL0     H40076   7.026   1.556   1.854 -1.6515 -2.4817 -0.1022
  297MOL0     H40077   7.153   1.720   1.544 -0.3295 -1.5847 -1.1574
  297MOL0     H40078   7.280   1.777   1.343 -0.7375 -2.2322 -0.1995
  297MOL0     H40079   6.348   3.311   1.214 -1.5967  2.4289  1.5362
  297MOL0     H40080   6.267   3.478   1.337  0.2876 -0.6104 -0.7480
  297MOL0     H40081   6.328   3.774   1.690 -0.7224 -0.2388 -1.6807
  297MOL0     H40082   6.317   3.967   1.845  0.5623 -1.4010 -0.1289
  297MOL0     H40083   6.140   4.328   1.703  1.2501 -0.1606 -1.3572
  297MOL0     H40084   6.120   4.341   1.880 -0.1284  0.9794 -0.6499
  297MOL0     H40085   5.983   4.136   1.694 -1.9366  2.0415 -2.2429
  297MOL0     H40086   5.913   4.271   1.778  1.6560  1.4339  0.9743
  297MOL0     H40087   5.970   4.164   1.995  0.4689  0.1075 -0.1566
  297MOL0     H40088   6.054   4.030   1.909  1.0786  1.2040  0.5023
  297MOL0     H40089   5.746   4.099   1.909 -0.8597 -1.8874  2.6102
  297MOL0     H40090   5.822   3.995   1.785 -2.4581  0.7776  0.4797
  297MOL0     H40091   5.791   3.746   2.119 -2.3680  0.9236  1.5698
  297MOL0     H40092   6.258   4.234   1.534 -2.0641 -0.3490  0.9254
  297MOL0     H40093   6.212   4.049   1.266  2.4277 -1.3462 -3.2226
  297MOL0     H40094   6.308   4.185   1.313 -2.5755 -0.1330 -0.3319
  297MOL0     H40095   6.383   4.027   1.266  0.2505  0.6270 -0.1732
  298MOL0     O40096   4.411   0.125   4.983  0.4501 -0.0102  0.2122
  298MOL0     C40097   4.504   0.075   4.919  1.3351  0.1283  0.3230
  298MOL0     O40098   4.592  -0.003   4.981 -1.3097  0.0122  0.0899
  298MOL0     C40099   4.589  -0.004   5.122 -0.1662 -0.9039 -0.4649
  298MOL0     C40100   4.548  -0.115   5.191  0.0403  0.6409  0.2509
  298MOL0     C40101   4.530  -0.122   5.327 -0.4454 -0.4930  0.2267
  298MOL0     C40102   4.567  -0.002   5.407  0.3254  0.5705 -0.0800
  298MOL0     O40103   4.553   0.001   5.545  0.8096 -0.4191  0.1270
  298MOL0     C40104   4.625  -0.103   5.605 -0.0731  0.3429 -0.2473
  298MOL0     C40105   4.738  -0.049   5.687 -1.4268 -0.4571 -0.7449
  298MOL0     C40106   4.698   0.085   5.763  0.6706  0.0908 -0.1792
  298MOL0     C40107   4.550   0.096   5.817  0.9323  0.8820 -0.2339
  298MOL0     C40108   4.533   0.148   5.950 -0.1623  0.0546 -0.6735
  298MOL0     C40109   4.559   0.030   6.051  0.1363 -0.1295 -0.2405
  298MOL0     C40110   4.596   0.082   6.193 -0.8874 -0.0743 -0.9490
  298MOL0     C40111   4.525  -0.010   6.298 -0.2944 -0.4117  0.8980
  298MOL0     N40112   4.558   0.031   6.444  0.2048  0.6000 -1.0861
  298MOL0     C40113   4.527  -0.055   6.548  0.8346  0.5140  0.9277
  298MOL0     C40114   4.592  -0.001   6.652 -1.3590 -0.1764 -0.0295
  298MOL0     C40115   4.571  -0.045   6.794  0.3056  0.7734  0.5201
  298MOL0     C40116   4.636  -0.183   6.830  1.0580 -0.5156  0.2145
  298MOL0     C40117   4.550  -0.302   6.791  0.1532 -1.3302  0.0793
  298MOL0     C40118   4.608  -0.421   6.860 -0.5071 -0.1166  0.7241
  298MOL0     O40119   4.726  -0.478   6.793 -0.4685 -0.1795  0.3387
  298MOL0     C40120   4.775  -0.592   6.838 -0.4139 -0.7520  0.0290
  298MOL0     C40121   4.868  -0.660   6.759  0.2319  0.7118 -0.4116
  298MOL0     C40122   4.928  -0.778   6.807  0.0455  1.3280 -0.4453
  298MOL0     C40123   4.912  -0.826   6.940  0.0769 -0.9186 -0.5902
  298MOL0     C40124   4.950  -0.960   6.977 -1.1649  0.6764  0.1302
  298MOL0     O40125   5.056  -1.016   6.907  0.1620  0.9285  0.5469
  298MOL0     C40126   5.081  -1.155   6.914 -1.4952 -0.9371  0.2834
  298MOL0     C40127   5.224  -1.181   6.890  0.5716  2.0320  0.0921
  298MOL0     C40128   5.247  -1.319   6.876 -0.2126  0.0917 -0.2909
  298MOL0     C40129   5.159  -1.424   6.902  0.3735  0.4229 -0.1735
  298MOL0     O40130   5.203  -1.558   6.871  0.0494 -0.4755  0.1225
  298MOL0     C40131   5.117  -1.668   6.858 -0.3724  0.6726 -0.5068
  298MOL0     C40132   5.131  -1.771   6.979 -0.0381 -0.2187 -0.7865
  298MOL0     C40133   5.029  -1.888   6.966  1.0385  0.1355 -0.1366
  298MOL0     C40134   5.003  -1.974   7.088 -1.1475 -0.1913  0.1617
  298MOL0     C40135   4.914  -1.915   7.198 -0.3462  0.1011  0.5450
  298MOL0     C40136   4.797  -2.017   7.243 -0.3370  1.1725 -0.0205
  298MOL0     C40137   4.866  -2.147   7.283 -0.7686 -0.0968 -0.1129
  298MOL0     C40138   4.765  -2.222   7.380  0.5907  1.1134  0.6803
  298MOL0    Cl40139   4.584  -2.229   7.318  0.1477 -0.2785  0.3842
  298MOL0     C40140   5.033  -1.390   6.950 -0.3095  0.0443  0.3865
  298MOL0     C40141   4.995  -1.255   6.946  0.4892  0.3347 -0.1564
  298MOL0     O40142   4.903  -1.006   7.080  0.4348  0.1189 -0.3060
  298MOL0     C40143   4.802  -0.766   7.008 -0.4382  0.6859 -0.1310
  298MOL0     C40144   4.746  -0.653   6.965  0.0508 -0.7147 -0.6564
  298MOL0     N40145   4.669   0.103   6.617  0.5742  0.0043  0.8690
  298MOL0     N40146   4.643   0.126   6.490  0.0902  0.0696 -0.1330
  298MOL0     C40147   4.607   0.113   5.336 -0.0548  0.5998  0.1624
  298MOL0     C40148   4.621   0.106   5.200 -0.5416 -0.0885  0.2097
  298MOL0     C40149   4.516   0.087   4.769 -0.3101  0.3732  0.8305
  298MOL0     C40150   4.398   0.080   4.695 -0.8469  0.2660 -0.1210
  298MOL0     C40151   4.407   0.111   4.564  0.1904 -0.4770  0.6775
  298MOL0     C40152   4.532   0.132   4.489  0.0510 -0.9523 -1.0283
  298MOL0     O40153   4.550   0.159   4.357  0.5011 -0.0910  0.0792
  298MOL0     C40154   4.437   0.213   4.297  0.1076 -0.4125  0.4343
  298MOL0     C40155   4.457   0.266   4.162  0.7843 -0.5602  0.6586
  298MOL0     C40156   4.556   0.379   4.170  0.4044 -0.3638  0.4116
  298MOL0     C40157   4.575   0.436   4.032  0.2302 -1.0498 -0.1694
  298MOL0     C40158   4.668   0.546   4.040 -0.4935 -1.0151  0.8202
  298MOL0     C40159   4.748   0.642   4.039 -0.1271 -0.3689  0.3979
  298MOL0     C40160   4.652   0.107   4.563  0.2479  0.8083  0.2715
  298MOL0     C40161   4.645   0.080   4.705  0.3509 -0.3120 -0.2178
  298MOL0     C40162   4.780   0.049   4.773  0.1464 -0.0395 -0.4305
  298MOL0     H40163   4.531  -0.204   5.132  2.0348  1.1733 -1.2576
  298MOL0     H40164   4.489  -0.215   5.365 -1.2180  0.4031  1.6739
  298MOL0     H40165   4.562  -0.163   5.671 -0.6930  0.5516 -0.6427
  298MOL0     H40166   4.674  -0.175   5.538  1.7173 -0.2095  1.5553
  298MOL0     H40167   4.829  -0.037   5.627 -0.7041  0.3290  0.4652
  298MOL0     H40168   4.762  -0.125   5.761  1.2287 -0.0166 -1.0699
  298MOL0     H40169   4.704   0.171   5.697  2.0623  1.5691  1.7505
  298MOL0     H40170   4.762   0.099   5.850  1.9266 -0.3778 -1.0053
  298MOL0     H40171   4.493   0.156   5.745  0.8666  0.2934 -0.6851
  298MOL0     H40172   4.502  -0.002   5.826  4.1649 -0.6183  3.1230
  298MOL0     H40173   4.592   0.238   5.970  1.2307  0.2603 -4.8075
  298MOL0     H40174   4.430   0.180   5.964  0.3726  0.8408  2.1376
  298MOL0     H40175   4.471  -0.035   6.054  1.1245 -1.7544 -3.0476
  298MOL0     H40176   4.643  -0.034   6.024 -0.2635 -0.7368 -0.0762
  298MOL0     H40177   4.556   0.184   6.192 -1.1493 -0.1311  0.7777
  298MOL0     H40178   4.701   0.077   6.220 -1.1740  2.2901  0.9494
  298MOL0     H40179   4.416  -0.008   6.290 -0.2999 -0.8538  0.8231
  298MOL0     H40180   4.562  -0.112   6.287 -0.7436 -0.3839 -1.5337
  298MOL0     H40181   4.460  -0.139   6.532  0.0464  0.9567  1.8185
  298MOL0     H40182   4.602   0.033   6.864  1.9717  0.5960  0.0086
  298MOL0     H40183   4.465  -0.067   6.811  0.4584 -2.2752 -1.6433
  298MOL0     H40184   4.731  -0.187   6.775  1.3884  1.2867  0.5835
  298MOL0     H40185   4.657  -0.181   6.937 -1.3481 -2.2447  0.8027
  298MOL0     H40186   4.539  -0.320   6.683 -3.3881  0.9204 -0.0848
  298MOL0     H40187   4.449  -0.278   6.826  1.5618  1.3430  2.6938
  298MOL0     H40188   4.527  -0.491   6.881 -2.2239  2.1584  2.2345
  298MOL0     H40189   4.644  -0.381   6.956  2.8051 -2.1235  0.4606
  298MOL0     H40190   4.887  -0.612   6.663  1.1252  0.7170 -0.2377
  298MOL0     H40191   4.987  -0.846   6.746 -1.6157 -3.1674  2.4548
  298MOL0     H40192   5.303  -1.110   6.866  0.3957  2.1573 -0.1166
  298MOL0     H40193   5.352  -1.339   6.857 -0.6529 -1.2055 -1.5025
  298MOL0     H40194   5.015  -1.630   6.841 -0.8701 -0.4322 -0.0685
  298MOL0     H40195   5.132  -1.721   6.764 -0.3958 -0.2793  0.0216
  298MOL0     H40196   5.229  -1.821   6.978  0.5730  0.8347 -3.9538
  298MOL0     H40197   5.113  -1.708   7.067 -1.3119 -1.1931 -0.3128
  298MOL0     H40198   4.937  -1.855   6.918  0.5239 -1.4019 -0.2391
  298MOL0     H40199   5.082  -1.957   6.899 -0.3190 -2.0852  0.9685
  298MOL0     H40200   5.098  -2.005   7.131 -1.6220 -0.0884  1.3285
  298MOL0     H40201   4.939  -2.057   7.054 -1.8404 -0.0770  1.1426
  298MOL0     H40202   4.864  -1.824   7.163  1.5186 -0.3485 -3.9338
  298MOL0     H40203   4.980  -1.897   7.283 -2.7545  2.8757  2.0052
  298MOL0     H40204   4.739  -1.979   7.327 -0.5322  0.0503  0.3747
  298MOL0     H40205   4.719  -2.021   7.166 -0.7049  1.7506  0.3185
  298MOL0     H40206   4.962  -2.121   7.328 -1.3073 -1.0256  1.6208
  298MOL0     H40207   4.889  -2.215   7.201  1.3982 -0.4960  0.7816
  298MOL0     H40208   4.796  -2.326   7.395 -2.1291  0.2018  0.4695
  298MOL0     H40209   4.744  -2.167   7.472 -0.4921  0.9138  0.5622
  298MOL0     H40210   4.969  -1.474   6.972 -2.0057  0.8836 -1.0837
  298MOL0     H40211   4.889  -1.235   6.963  0.6191 -0.5472  1.9504
  298MOL0     H40212   4.772  -0.803   7.105  2.1663 -1.6463 -0.0848
  298MOL0     H40213   4.679  -0.604   7.034 -0.5324  0.7578 -2.1941
  298MOL0     H40214   4.631   0.200   5.397  1.1174  0.9352 -0.7437
  298MOL0     H40215   4.666   0.193   5.154  2.4661 -1.3541  0.5410
  298MOL0     H40216   4.307   0.046   4.742 -0.6035  3.7782  3.3866
  298MOL0     H40217   4.312   0.119   4.512  1.1240  1.6050 -0.8905
  298MOL0     H40218   4.395   0.293   4.358  1.0788 -0.8209  1.7035
  298MOL0     H40219   4.365   0.133   4.275 -1.1206  1.6454 -4.1486
  298MOL0     H40220   4.359   0.293   4.121  1.5514 -0.1779 -1.0166
  298MOL0     H40221   4.506   0.197   4.094 -0.9896 -0.7596 -0.4923
  298MOL0     H40222   4.647   0.323   4.193 -1.0593 -2.8524  0.5001
  298MOL0     H40223   4.519   0.443   4.250 -2.1678 -1.4986  0.2489
  298MOL0     H40224   4.614   0.362   3.963  0.9569 -1.2071  0.3912
  298MOL0     H40225   4.480   0.471   3.992  0.3747  0.9881  1.0866
  298MOL0     H40226   4.824   0.717   4.050 -0.3156 -0.4661  2.6437
  298MOL0     H40227   4.746   0.107   4.508 -0.2318 -1.4829 -0.6826
  298MOL0     H40228   4.861   0.032   4.702  1.7894  3.1902  0.5026
  298MOL0     H40229   4.807   0.122   4.850 -2.9819  1.2785 -0.4327
  298MOL0     H40230   4.775  -0.048   4.824  2.5375 -0.0228 -0.0641
  299MOL0     O40231   0.427   7.832   7.221  0.2816  0.1935  0.5557
  299MOL0     C40232   0.363   7.905   7.291 -0.5188 -0.6525  0.9408
  299MOL0     O40233   0.407   7.995   7.383 -0.2164  0.1432  0.4364
  299MOL0     C40234   0.534   7.963   7.419 -0.2369  0.0542  0.4245
  299MOL0     C40235   0.645   8.023   7.358  0.7238  0.3517 -0.2156
  299MOL0     C40236   0.770   7.994   7.406  0.0307 -0.1830 -0.4107
  299MOL0     C40237   0.803   7.906   7.509  0.0875  0.4134  0.6662
  299MOL0     O40238   0.934   7.893   7.547  0.5898 -0.1994 -0.1044
  299MOL0     C40239   1.015   8.004   7.595 -0.0063  0.7975 -0.0274
  299MOL0     C40240   1.162   7.982   7.556  1.2137  1.0384 -0.0195
  299MOL0     C40241   1.271   8.066   7.617 -0.0272 -0.1122 -1.5552
  299MOL0     C40242   1.271   8.215   7.585 -0.5974  0.4345  0.1223
  299MOL0     C40243   1.384   8.290   7.660  1.1492 -0.1016 -0.5934
  299MOL0     C40244   1.366   8.448   7.640  0.1069  0.1289  0.4115
  299MOL0     C40245   1.499   8.515   7.677 -0.3919  0.3857  0.8774
  299MOL0     C40246   1.514   8.671   7.651 -0.1830  0.1504  0.1474
  299MOL0     N40247   1.422   8.740   7.747  0.4783  0.0688  0.4967
  299MOL0     C40248   1.416   8.743   7.884  0.3115 -0.5766 -0.1211
  299MOL0     C40249   1.306   8.826   7.912 -0.2504 -0.0126  0.5709
  299MOL0     C40250   1.271   8.882   8.056 -0.4686 -0.1289 -0.0094
  299MOL0     C40251   1.262   9.031   8.079 -0.0283  0.6720  1.1504
  299MOL0     C40252   1.168   9.109   7.982  0.2681 -0.9404 -0.1367
  299MOL0     C40253   1.175   9.255   8.023  1.0925  0.2676  0.5035
  299MOL0     O40254   1.074   9.309   7.938  0.8395  1.2369 -0.5954
  299MOL0     C40255   1.106   9.336   7.810  0.0309 -0.4418  0.6479
  299MOL0     C40256   1.166   9.463   7.783 -0.0938 -0.0415  0.5518
  299MOL0     C40257   1.186   9.499   7.643  0.0271  0.9215  0.1989
  299MOL0     C40258   1.160   9.398   7.540 -0.3249 -0.3678  0.4701
  299MOL0     C40259   1.204   9.418   7.405 -0.0349  0.5477 -0.0960
  299MOL0     O40260   1.212   9.316   7.313  0.1131  0.1596  0.8923
  299MOL0     C40261   1.318   9.317   7.219 -0.4202  0.1653 -0.7129
  299MOL0     C40262   1.441   9.385   7.248 -0.6314 -0.1052  0.7208
  299MOL0     C40263   1.553   9.375   7.164 -0.4380  0.4503 -0.1281
  299MOL0     C40264   1.548   9.308   7.044  0.4257 -1.3007 -0.2168
  299MOL0     O40265   1.648   9.307   6.958  0.4970  0.6698  0.2032
  299MOL0     C40266   1.739   9.192   6.971 -0.3728  0.2290 -0.0931
  299MOL0     C40267   1.897   9.234   6.957  0.5129 -0.0678  0.1280
  299MOL0     C40268   1.935   9.291   7.092  0.1563 -0.8141 -0.2872
  299MOL0     C40269   1.929   9.445   7.071  1.0408 -0.7446 -0.1894
  299MOL0     C40270   1.965   9.522   7.199 -0.1496 -0.1186 -0.7799
  299MOL0     C40271   1.987   9.679   7.161  0.2795  0.1704  0.2255
  299MOL0     C40272   1.855   9.749   7.124 -0.0233  0.9090  0.0061
  299MOL0     C40273   1.866   9.842   7.008 -0.2681 -0.6135  0.1101
  299MOL0    Cl40274   1.890   9.749   6.855  0.3511 -0.1508 -0.5119
  299MOL0     C40275   1.418   9.250   7.004 -0.5356  0.2086 -0.7784
  299MOL0     C40276   1.304   9.246   7.100 -0.7502 -0.5249  0.9882
  299MOL0     O40277   1.240   9.533   7.387  0.6079 -0.4989  0.6221
  299MOL0     C40278   1.097   9.279   7.574  0.3751 -0.4154  0.0093
  299MOL0     C40279   1.064   9.255   7.706 -0.5111  0.2904 -0.6404
  299MOL0     N40280   1.241   8.854   7.788 -0.1843  0.1535  0.5270
  299MOL0     N40281   1.303   8.790   7.702 -0.3746  0.5055 -0.4871
  299MOL0     C40282   0.695   7.831   7.559  0.1306 -0.1094 -0.2177
  299MOL0     C40283   0.560   7.866   7.520 -0.8569  0.7102  0.3277
  299MOL0     C40284   0.218   7.912   7.266  0.5029  0.7757  0.3987
  299MOL0     C40285   0.142   8.020   7.312 -0.2366 -0.0419  0.6781
  299MOL0     C40286   0.006   8.026   7.291  0.4350  0.2552  0.3270
  299MOL0     C40287  -0.058   7.925   7.220 -0.4452  0.3684  0.0075
  299MOL0     O40288  -0.193   7.928   7.185 -0.3363 -0.0329 -0.2887
  299MOL0     C40289  -0.274   8.040   7.204 -0.6813 -0.0681  0.3464
  299MOL0     C40290  -0.347   8.042   7.339  0.6616  0.2107 -0.7733
  299MOL0     C40291  -0.349   8.178   7.411 -0.2621  0.3782 -0.6527
  299MOL0     C40292  -0.442   8.154   7.529  0.9098  0.2466 -0.3109
  299MOL0     C40293  -0.475   8.280   7.590 -0.3388  0.0380  0.3094
  299MOL0     C40294  -0.486   8.392   7.638  0.6454 -0.3851  0.3449
  299MOL0     C40295   0.005   7.819   7.168 -0.7823  1.0217 -0.6476
  299MOL0     C40296   0.144   7.812   7.175 -0.3693  0.2116 -0.4924
  299MOL0     C40297   0.209   7.701   7.087 -0.1767  0.1961  0.7821
  299MOL0     H40298   0.630   8.087   7.271 -0.8073  1.1112  0.5633
  299MOL0     H40299   0.851   8.032   7.344  1.1748 -4.3707 -1.8072
  299MOL0     H40300   0.984   8.107   7.577 -0.5670  1.7684  4.9203
  299MOL0     H40301   1.017   8.003   7.705 -2.3232  0.7228  0.0604
  299MOL0     H40302   1.161   7.989   7.447  1.1623  1.9317  0.0361
  299MOL0     H40303   1.182   7.876   7.577 -4.4502 -0.8293 -1.9974
  299MOL0     H40304   1.366   8.016   7.598  1.1314  1.2047  0.3114
  299MOL0     H40305   1.258   8.068   7.726 -0.4965  0.3100 -1.6136
  299MOL0     H40306   1.281   8.228   7.477  1.7086  0.4156  0.2880
  299MOL0     H40307   1.183   8.265   7.627  0.5270  2.5028  0.1647
  299MOL0     H40308   1.383   8.267   7.767  0.9139  0.0907 -0.5544
  299MOL0     H40309   1.482   8.252   7.630  0.8830  0.2037 -1.9055
  299MOL0     H40310   1.331   8.470   7.539 -2.4975 -0.1542  1.1645
  299MOL0     H40311   1.287   8.490   7.702 -0.0515 -1.3583  1.2749
  299MOL0     H40312   1.564   8.463   7.607 -1.4504 -1.3340  1.1372
  299MOL0     H40313   1.523   8.494   7.782 -2.1133  1.9573  1.6546
  299MOL0     H40314   1.621   8.681   7.669  0.0605 -1.5593 -0.1922
  299MOL0     H40315   1.500   8.696   7.545 -1.0578  0.1054  0.2470
  299MOL0     H40316   1.507   8.722   7.940  1.7141  2.0505 -1.2409
  299MOL0     H40317   1.174   8.851   8.096 -1.3542  3.7382  1.2199
  299MOL0     H40318   1.346   8.841   8.124  0.0116 -1.7978 -1.4574
  299MOL0     H40319   1.227   9.042   8.182  0.7556 -1.6809  1.7158
  299MOL0     H40320   1.362   9.074   8.068  0.1443  0.0547  0.2183
  299MOL0     H40321   1.067   9.069   7.990  0.9459 -2.7386 -0.1895
  299MOL0     H40322   1.212   9.095   7.883 -0.1316 -5.0448  0.0867
  299MOL0     H40323   1.276   9.286   7.993  0.5521 -1.1638 -3.2903
  299MOL0     H40324   1.155   9.263   8.130 -0.0909 -0.3717  0.3486
  299MOL0     H40325   1.186   9.527   7.869 -1.2449 -1.3920  1.8947
  299MOL0     H40326   1.230   9.593   7.613  3.0495 -1.1881 -2.7651
  299MOL0     H40327   1.462   9.430   7.345 -0.0376  0.8040  0.1854
  299MOL0     H40328   1.651   9.420   7.183 -1.1164  2.0431 -0.2300
  299MOL0     H40329   1.722   9.140   7.066  1.2578  0.8002  0.5570
  299MOL0     H40330   1.710   9.124   6.891 -0.2528  1.0050 -0.8135
  299MOL0     H40331   1.944   9.138   6.931 -0.1506 -0.5979  0.8298
  299MOL0     H40332   1.916   9.303   6.875  4.6169 -0.6677  0.3533
  299MOL0     H40333   1.877   9.246   7.173  0.3258 -1.5652 -0.5722
  299MOL0     H40334   2.037   9.260   7.115 -0.1360 -0.5307  1.5020
  299MOL0     H40335   1.832   9.481   7.035  0.8680 -2.5809 -1.6871
  299MOL0     H40336   2.009   9.466   7.000  0.0568  1.8375 -0.6805
  299MOL0     H40337   2.063   9.485   7.231  0.6047  2.5487  0.2510
  299MOL0     H40338   1.900   9.504   7.285 -3.6615  1.1935 -2.9519
  299MOL0     H40339   2.033   9.738   7.241 -1.4558  0.0720  1.3736
  299MOL0     H40340   2.054   9.675   7.075 -1.1502 -2.2772 -0.8943
  299MOL0     H40341   1.814   9.807   7.207 -3.6260  1.9298 -2.2538
  299MOL0     H40342   1.778   9.674   7.102 -0.7046  1.7762 -0.6645
  299MOL0     H40343   1.772   9.895   6.990  1.3734  1.4135 -4.1555
  299MOL0     H40344   1.941   9.922   7.019 -1.0136  0.0611  0.3615
  299MOL0     H40345   1.423   9.177   6.925 -3.3413 -2.9090  1.6111
  299MOL0     H40346   1.214   9.187   7.087 -2.6524  2.4439 -0.5002
  299MOL0     H40347   1.073   9.204   7.500  0.7581 -1.7363  1.1933
  299MOL0     H40348   1.018   9.160   7.732  1.6099 -0.9782 -1.2573
  299MOL0     H40349   0.707   7.751   7.630 -0.5957  0.0949  0.1456
  299MOL0     H40350   0.475   7.821   7.570 -2.1487  2.9837  0.2598
  299MOL0     H40351   0.185   8.099   7.372  1.3464  0.0216 -0.4743
  299MOL0     H40352  -0.035   8.120   7.325  0.0905 -0.2343  1.2973
  299MOL0     H40353  -0.351   8.042   7.126 -1.3889  0.1707  1.0358
  299MOL0     H40354  -0.211   8.127   7.182 -1.1789 -0.1758 -1.7464
  299MOL0     H40355  -0.298   7.965   7.399  0.1806  0.7579  0.3475
  299MOL0     H40356  -0.450   8.019   7.310  0.9942 -0.6331 -1.3464
  299MOL0     H40357  -0.399   8.255   7.352 -0.4811 -0.2498 -1.3116
  299MOL0     H40358  -0.247   8.206   7.436 -0.2785  1.2579 -1.5291
  299MOL0     H40359  -0.537   8.108   7.501 -0.2888  0.7759  2.5177
  299MOL0     H40360  -0.384   8.098   7.602  1.7244 -0.0463 -1.1720
  299MOL0     H40361  -0.477   8.484   7.691  0.7084  0.9202 -1.7773
  299MOL0     H40362  -0.047   7.748   7.103 -0.1733  0.0991 -0.1554
  299MOL0     H40363   0.130   7.665   7.020  0.4262 -1.5457  0.9549
  299MOL0     H40364   0.278   7.752   7.019 -1.1916 -1.6579 -1.8535
  299MOL0     H40365   0.263   7.623   7.141 -0.1609 -0.6250 -0.3718
  300MOL0     O40366   1.145   2.074   4.581 -0.0379  0.1237 -0.8549
  300MOL0     C40367   1.135   2.154   4.491 -0.0297  0.1376 -0.2631
  300MOL0     O40368   1.159   2.287   4.495  0.8654 -0.4036 -0.1709
  300MOL0     C40369   1.201   2.350   4.611  0.2892 -0.4322 -0.0214
  300MOL0     C40370   1.118   2.383   4.718  0.3940  0.7659 -0.5201
  300MOL0     C40371   1.162   2.459   4.831  0.5283  0.6853  0.4732
  300MOL0     C40372   1.298   2.501   4.836  0.6614  0.5474 -0.4647
  300MOL0     O40373   1.331   2.582   4.943  0.7263  0.6519  0.1230
  300MOL0     C40374   1.472   2.585   4.988 -0.1452 -0.3550 -0.4054
  300MOL0     C40375   1.502   2.456   5.058  0.0764  0.3818  0.5916
  300MOL0     C40376   1.649   2.460   5.112  0.1333  0.0452 -0.0488
  300MOL0     C40377   1.656   2.343   5.213 -0.0832 -0.2106 -0.1732
  300MOL0     C40378   1.794   2.306   5.268  0.0614  0.1051  0.3961
  300MOL0     C40379   1.801   2.195   5.369 -0.5318  0.1513 -0.0530
  300MOL0     C40380   1.822   2.071   5.288 -0.1488  0.6082  0.8033
  300MOL0     C40381   1.776   1.947   5.366 -0.4935 -0.0475 -0.1287
  300MOL0     N40382   1.632   1.955   5.400  0.6501  0.4487  0.4330
  300MOL0     C40383   1.541   1.879   5.324 -0.5508 -0.4239 -0.4653
  300MOL0     C40384   1.430   1.881   5.392 -0.1891 -0.0608 -0.1761
  300MOL0     C40385   1.305   1.799   5.367 -0.5342 -0.6403  1.3587
  300MOL0     C40386   1.319   1.653   5.386 -0.7655 -0.1741  0.5332
  300MOL0     C40387   1.194   1.575   5.340 -0.0886  0.6428  0.4981
  300MOL0     C40388   1.194   1.426   5.377 -0.1615 -0.1674 -1.0423
  300MOL0     O40389   1.197   1.433   5.523  0.5155  0.1795 -0.4922
  300MOL0     C40390   1.205   1.317   5.585 -0.3270 -0.0201 -0.6100
  300MOL0     C40391   1.301   1.287   5.689  0.2221 -0.3561 -0.9245
  300MOL0     C40392   1.305   1.158   5.735  0.1151  0.5729  0.6585
  300MOL0     C40393   1.220   1.056   5.682 -0.2222 -0.0672  0.2982
  300MOL0     C40394   1.236   0.908   5.710 -0.5579 -0.1796 -0.4093
  300MOL0     O40395   1.335   0.873   5.807  0.6787  0.0727 -0.1788
  300MOL0     C40396   1.315   0.766   5.894  0.0306  0.5936 -1.0614
  300MOL0     C40397   1.247   0.643   5.870  0.3305  0.0135  0.3945
  300MOL0     C40398   1.217   0.551   5.974 -0.9839 -0.1511  0.8170
  300MOL0     C40399   1.266   0.578   6.102  0.7348  0.4644 -0.7220
  300MOL0     O40400   1.257   0.499   6.219  0.2630  0.4504  0.4667
  300MOL0     C40401   1.149   0.407   6.219 -0.7370  0.1363 -0.0332
  300MOL0     C40402   1.148   0.330   6.349  0.4939  0.9611  0.1828
  300MOL0     C40403   1.050   0.390   6.456 -0.3053 -0.1572  1.2670
  300MOL0     C40404   0.909   0.418   6.396  0.7055  0.0147 -0.8342
  300MOL0     C40405   0.803   0.399   6.509 -0.6845  0.2775 -0.7919
  300MOL0     C40406   0.812   0.488   6.636 -0.3626 -0.3745  0.3865
  300MOL0     C40407   0.703   0.459   6.743  0.0982  0.7111 -0.8765
  300MOL0     C40408   0.720   0.527   6.879 -0.2242  1.1931 -1.3788
  300MOL0    Cl40409   0.666   0.699   6.873 -0.0923 -0.5282 -0.4525
  300MOL0     C40410   1.336   0.694   6.125 -0.0552 -1.0176 -0.1373
  300MOL0     C40411   1.353   0.791   6.028 -0.0423  0.8701  0.1523
  300MOL0     O40412   1.148   0.842   5.672 -0.4158  0.3588 -0.3924
  300MOL0     C40413   1.109   1.095   5.601  0.6636  0.6893 -1.0973
  300MOL0     C40414   1.106   1.221   5.554  0.3056 -0.1643  0.0310
  300MOL0     N40415   1.456   1.956   5.511 -0.2076 -0.1392  0.4315
  300MOL0     N40416   1.578   2.000   5.515  0.7600 -0.1833  1.0825
  300MOL0     C40417   1.380   2.459   4.727  0.0293 -0.6260 -0.0589
  300MOL0     C40418   1.336   2.399   4.620  1.5579 -0.2219  0.0539
  300MOL0     C40419   1.121   2.092   4.367 -0.5668  0.3959  0.1351
  300MOL0     C40420   1.232   2.093   4.279  0.0776 -0.0382  0.5352
  300MOL0     C40421   1.210   2.051   4.145  1.4949  0.8661  0.0307
  300MOL0     C40422   1.087   1.991   4.111 -0.8936 -0.0578 -1.7857
  300MOL0     O40423   1.081   1.935   3.992  0.5365 -0.2939 -0.3930
  300MOL0     C40424   0.977   1.838   3.970 -0.0359 -0.1789  1.0334
  300MOL0     C40425   1.003   1.772   3.842  0.9938 -0.6935  0.5425
  300MOL0     C40426   1.117   1.665   3.847 -0.0056  0.5013 -0.9442
  300MOL0     C40427   1.203   1.675   3.725  0.0152 -0.3149  0.4717
  300MOL0     C40428   1.296   1.788   3.708  0.0802  0.1728 -0.7628
  300MOL0     C40429   1.383   1.869   3.693 -0.6917 -0.4431 -0.1178
  300MOL0     C40430   0.977   1.995   4.195  1.2246  0.1125 -0.1328
  300MOL0     C40431   0.994   2.053   4.321  0.7057  0.5434 -1.0251
  300MOL0     C40432   0.876   2.051   4.408 -0.0878  0.5984  0.1925
  300MOL0     H40433   1.013   2.356   4.706 -0.2942  4.1695 -4.5886
  300MOL0     H40434   1.090   2.456   4.912  1.0032 -4.6293  1.0604
  300MOL0     H40435   1.542   2.612   4.909 -1.6578  1.2885 -1.2467
  300MOL0     H40436   1.472   2.667   5.060 -0.8196 -0.2571 -0.5133
  300MOL0     H40437   1.478   2.376   4.987 -2.6822  0.9137  0.7908
  300MOL0     H40438   1.427   2.442   5.137 -2.5097 -1.4290 -1.9899
  300MOL0     H40439   1.653   2.547   5.177 -5.8501  0.5665  0.1429
  300MOL0     H40440   1.729   2.444   5.038 -0.7369  1.1162 -1.2809
  300MOL0     H40441   1.589   2.357   5.298  0.7666  0.7070  0.3582
  300MOL0     H40442   1.625   2.250   5.164 -0.5543 -0.2487  0.1898
  300MOL0     H40443   1.858   2.281   5.183 -0.0293  1.7977 -0.2072
  300MOL0     H40444   1.826   2.387   5.334 -0.6128 -1.2068  2.4236
  300MOL0     H40445   1.890   2.198   5.432  0.8579  1.1105 -1.9523
  300MOL0     H40446   1.713   2.198   5.435  1.9728  1.1161  3.5066
  300MOL0     H40447   1.930   2.069   5.271 -0.3067  0.0740 -0.1929
  300MOL0     H40448   1.773   2.072   5.190 -1.0724  2.0029  1.2426
  300MOL0     H40449   1.806   1.854   5.316 -1.1934 -0.3342 -0.0265
  300MOL0     H40450   1.827   1.934   5.462 -0.2624 -0.5294 -0.3159
  300MOL0     H40451   1.572   1.829   5.233  1.3580  1.0348 -0.6914
  300MOL0     H40452   1.237   1.839   5.443  1.8793  4.6568  1.1996
  300MOL0     H40453   1.262   1.820   5.268  0.3102 -1.0638  0.8945
  300MOL0     H40454   1.405   1.614   5.331 -0.9430 -0.6734  0.6114
  300MOL0     H40455   1.329   1.643   5.494  2.0849 -0.0609  0.3687
  300MOL0     H40456   1.176   1.575   5.232 -0.7092  4.4291  0.4401
  300MOL0     H40457   1.103   1.622   5.378 -0.0401  1.4665 -0.3480
  300MOL0     H40458   1.276   1.370   5.330 -0.8406 -0.6251 -1.7110
  300MOL0     H40459   1.096   1.381   5.360 -1.3083  0.9125  2.0260
  300MOL0     H40460   1.369   1.363   5.726  1.4239 -1.7490 -0.1482
  300MOL0     H40461   1.375   1.123   5.811  0.4291 -1.3159 -0.4346
  300MOL0     H40462   1.231   0.604   5.770 -4.6882  0.2561  0.8440
  300MOL0     H40463   1.148   0.473   5.944  0.8719 -2.1335  1.4375
  300MOL0     H40464   1.062   0.470   6.198  1.5866  3.8014  0.2533
  300MOL0     H40465   1.160   0.336   6.136 -1.3912  0.4202 -0.3709
  300MOL0     H40466   1.127   0.225   6.330  1.4682  0.7195  0.3848
  300MOL0     H40467   1.245   0.343   6.398 -0.9768  4.5580  2.6087
  300MOL0     H40468   1.048   0.326   6.545  1.0766 -0.6031  0.9959
  300MOL0     H40469   1.096   0.484   6.488 -1.0405  1.7019 -2.5537
  300MOL0     H40470   0.895   0.361   6.304  0.2124 -1.9387  0.3852
  300MOL0     H40471   0.911   0.523   6.366 -1.9651  0.5071  0.4936
  300MOL0     H40472   0.816   0.292   6.527  1.0478  0.2527 -1.9145
  300MOL0     H40473   0.704   0.423   6.468 -0.7004 -1.1381 -1.6242
  300MOL0     H40474   0.909   0.480   6.685  0.3047  0.1828 -0.8016
  300MOL0     H40475   0.788   0.586   6.596 -1.8361 -2.0932 -3.3875
  300MOL0     H40476   0.690   0.351   6.753 -0.3706  0.9076  0.8051
  300MOL0     H40477   0.606   0.491   6.704 -0.7202  0.4697  0.8640
  300MOL0     H40478   0.653   0.472   6.946  1.2280  0.5865 -0.3718
  300MOL0     H40479   0.819   0.512   6.924 -1.7574  1.0674  2.2554
  300MOL0     H40480   1.384   0.716   6.220 -0.8477  0.5279 -0.0575
  300MOL0     H40481   1.397   0.888   6.047  2.5362  0.0878 -1.2743
  300MOL0     H40482   1.037   1.028   5.554  0.4977  0.7170 -0.8816
  300MOL0     H40483   1.026   1.249   5.486  0.6722 -0.0713 -0.3604
  300MOL0     H40484   1.483   2.492   4.719 -0.0916 -0.7049 -3.3740
  300MOL0     H40485   1.403   2.378   4.537  1.0828 -1.8163  0.0380
  300MOL0     H40486   1.325   2.147   4.294  2.2295 -2.6120 -2.2147
  300MOL0     H40487   1.290   2.042   4.072 -0.6505  1.7305 -2.5947
  300MOL0     H40488   0.884   1.896   3.974 -0.2377 -0.4109  0.0826
  300MOL0     H40489   0.978   1.765   4.051 -2.7789  0.7591  2.0304
  300MOL0     H40490   1.021   1.847   3.765 -1.5256  0.4152  0.9652
  300MOL0     H40491   0.911   1.719   3.816 -0.7008  2.2490  0.0890
  300MOL0     H40492   1.077   1.564   3.842  3.3758 -0.9616 -1.0057
  300MOL0     H40493   1.167   1.670   3.944 -1.5319  1.2056 -0.1543
  300MOL0     H40494   1.265   1.586   3.712  2.1225  1.2648 -1.4075
  300MOL0     H40495   1.148   1.686   3.631 -0.3420  0.7981  0.7927
  300MOL0     H40496   1.458   1.946   3.691  1.6773 -2.6181 -1.8686
  300MOL0     H40497   0.879   1.960   4.165  0.5160  2.6237 -0.9789
  300MOL0     H40498   0.841   2.154   4.419 -1.3700  0.5364 -2.5545
  300MOL0     H40499   0.802   1.990   4.356  2.2111 -2.1482 -0.0841
  300MOL0     H40500   0.889   2.001   4.505 -3.7958 -1.0637 -0.0163
  301MOL0     O40501   4.678   6.204  10.934 -0.3643  0.0534  0.3784
  301MOL0     C40502   4.766   6.133  10.990 -0.0813 -0.7719 -0.5467
  301MOL0     O40503   4.819   6.021  10.941  0.3604  0.3521  0.0355
  301MOL0     C40504   4.771   5.971  10.818 -0.6643 -0.1763 -0.1144
  301MOL0     C40505   4.745   6.040  10.695 -0.3814 -0.6546 -0.6185
  301MOL0     C40506   4.708   5.970  10.585 -0.0296  0.3700  0.1570
  301MOL0     C40507   4.707   5.832  10.574 -0.5949  0.2100  0.5118
  301MOL0     O40508   4.657   5.747  10.469  0.0065  1.2596 -0.8444
  301MOL0     C40509   4.717   5.744  10.340 -0.5815  1.2189 -0.3273
  301MOL0     C40510   4.623   5.671  10.232 -0.6165 -0.4715 -0.1450
  301MOL0     C40511   4.660   5.716  10.094 -0.1880 -0.9883 -0.2423
  301MOL0     C40512   4.523   5.743  10.017 -0.4224 -1.0347  0.0634
  301MOL0     C40513   4.545   5.764   9.864 -0.4635  0.3590 -0.5590
  301MOL0     C40514   4.429   5.839   9.788  0.3598 -0.0903  0.5657
  301MOL0     C40515   4.474   5.891   9.654  0.7129 -0.6529 -0.1737
  301MOL0     C40516   4.523   5.783   9.558 -0.0324 -0.1856  0.7603
  301MOL0     N40517   4.427   5.671   9.524  0.2363  0.5478  0.7896
  301MOL0     C40518   4.295   5.684   9.491 -0.2199 -0.3946 -0.7337
  301MOL0     C40519   4.250   5.560   9.472  0.4337 -0.6084  0.6618
  301MOL0     C40520   4.104   5.537   9.449 -0.3934 -0.3951 -0.1240
  301MOL0     C40521   4.080   5.436   9.336 -0.4572 -0.1083  0.6547
  301MOL0     C40522   3.958   5.472   9.250  1.1583  0.3843  0.2617
  301MOL0     C40523   3.828   5.497   9.331  1.4017 -0.1195 -0.1292
  301MOL0     O40524   3.723   5.477   9.234  0.1497 -0.0994  0.0652
  301MOL0     C40525   3.702   5.341   9.194 -1.3046 -0.0796 -0.0629
  301MOL0     C40526   3.604   5.336   9.097  0.5989 -0.2348 -0.7519
  301MOL0     C40527   3.543   5.214   9.062 -0.0299  0.1803  0.2887
  301MOL0     C40528   3.580   5.095   9.119 -0.7363  0.2271 -0.0945
  301MOL0     C40529   3.523   4.971   9.085 -0.1382 -0.0763  0.5076
  301MOL0     O40530   3.562   4.866   9.150  0.9257  0.2501  0.2084
  301MOL0     C40531   3.495   4.743   9.145 -0.5206  0.8722  0.0215
  301MOL0     C40532   3.365   4.718   9.154  0.3496 -0.3982  0.4736
  301MOL0     C40533   3.310   4.587   9.162 -0.0741  0.1492 -1.0472
  301MOL0     C40534   3.393   4.483   9.199 -0.0360  0.1408  0.8797
  301MOL0     O40535   3.355   4.365   9.243 -0.4602 -0.3287 -0.5246
  301MOL0     C40536   3.316   4.355   9.377  0.7640  0.1693 -0.0277
  301MOL0     C40537   3.444   4.337   9.469  0.4827 -0.6082  0.4295
  301MOL0     C40538   3.417   4.306   9.613  0.7744 -1.0924 -2.0226
  301MOL0     C40539   3.292   4.359   9.683  0.6824 -0.0428 -0.5040
  301MOL0     C40540   3.273   4.308   9.830 -0.5294  0.4155  1.1109
  301MOL0     C40541   3.151   4.379   9.891 -0.1757  0.6278 -0.8692
  301MOL0     C40542   3.161   4.383  10.044 -0.2419 -0.5219 -0.5887
  301MOL0     C40543   3.045   4.447  10.125  1.3145  0.2683 -0.5710
  301MOL0    Cl40544   2.889   4.437  10.029 -0.1197 -0.1115  0.1223
  301MOL0     C40545   3.530   4.507   9.196 -1.2645  0.5961  0.9465
  301MOL0     C40546   3.583   4.627   9.158 -0.3950 -0.3316 -0.3438
  301MOL0     O40547   3.427   4.982   9.007  0.2718 -0.1043  0.0491
  301MOL0     C40548   3.675   5.099   9.218  0.8648 -0.5872  0.2440
  301MOL0     C40549   3.738   5.220   9.257 -0.7663 -0.6187 -0.3402
  301MOL0     N40550   4.352   5.472   9.502 -0.3230 -0.1631 -0.6227
  301MOL0     N40551   4.464   5.538   9.509 -0.0480 -0.1129  0.0545
  301MOL0     C40552   4.753   5.763  10.688  0.8192 -0.4337 -0.5538
  301MOL0     C40553   4.765   5.829  10.814 -1.0156 -0.4423 -0.2193
  301MOL0     C40554   4.792   6.179  11.131  1.3510 -0.5679  0.0526
  301MOL0     C40555   4.761   6.308  11.171 -0.2291 -1.1422 -0.2291
  301MOL0     C40556   4.787   6.347  11.302 -0.1103 -0.4263  0.7949
  301MOL0     C40557   4.837   6.262  11.396 -0.6536 -0.1105 -0.2781
  301MOL0     O40558   4.838   6.312  11.522  0.6022  0.6914 -0.3538
  301MOL0     C40559   4.840   6.212  11.628  1.2292  0.6818  0.2831
  301MOL0     C40560   4.712   6.123  11.629 -1.3743 -0.1704  0.5932
  301MOL0     C40561   4.710   6.013  11.738  0.1140  0.5304 -0.6395
  301MOL0     C40562   4.626   5.890  11.686 -0.9477  0.6615 -0.3980
  301MOL0     C40563   4.488   5.927  11.671  0.1733 -0.6243  1.1833
  301MOL0     C40564   4.367   5.934  11.664 -0.3895 -0.8863  0.1093
  301MOL0     C40565   4.874   6.135  11.356 -0.1961 -0.5987  0.1702
  301MOL0     C40566   4.855   6.097  11.222  0.2756  0.4128 -0.2560
  301MOL0     C40567   4.889   5.953  11.197 -0.6061 -0.1094 -0.1456
  301MOL0     H40568   4.753   6.145  10.669 -0.9457 -1.0132 -2.3591
  301MOL0     H40569   4.674   6.024  10.498  0.4396  3.1021  1.5487
  301MOL0     H40570   4.743   5.843  10.303 -1.1445  0.6257 -2.4804
  301MOL0     H40571   4.807   5.681  10.347  0.0177  1.8893 -1.7335
  301MOL0     H40572   4.520   5.693  10.262 -0.9108 -2.7548  0.7394
  301MOL0     H40573   4.629   5.562  10.235  1.6791 -0.3596  0.3650
  301MOL0     H40574   4.725   5.647  10.037  0.4017  0.1532 -0.9984
  301MOL0     H40575   4.716   5.809  10.110 -0.9232 -0.9815  2.7520
  301MOL0     H40576   4.454   5.658  10.025 -1.8522  0.0644 -0.1184
  301MOL0     H40577   4.474   5.821  10.076 -0.1450 -0.7796 -0.0412
  301MOL0     H40578   4.637   5.821   9.846 -0.7525  0.7719 -0.7570
  301MOL0     H40579   4.561   5.666   9.819 -5.3384 -0.8919 -0.0570
  301MOL0     H40580   4.349   5.767   9.773 -0.6453  1.2637 -0.9617
  301MOL0     H40581   4.403   5.931   9.842  0.5321 -1.2943  2.7908
  301MOL0     H40582   4.562   5.956   9.664  1.6557 -1.9332  0.0004
  301MOL0     H40583   4.390   5.948   9.612  0.0716  0.0483  1.9385
  301MOL0     H40584   4.525   5.829   9.458  0.9628 -1.1106  0.3356
  301MOL0     H40585   4.624   5.753   9.586  0.7679  0.6679 -1.0288
  301MOL0     H40586   4.229   5.770   9.493 -2.4813 -2.0531 -0.3949
  301MOL0     H40587   4.066   5.493   9.541  1.0942 -1.0352  0.2066
  301MOL0     H40588   4.053   5.632   9.429  0.4730 -0.3118 -2.2585
  301MOL0     H40589   4.171   5.430   9.276 -0.3491  0.8305  0.6979
  301MOL0     H40590   4.051   5.335   9.367 -1.6081 -0.5879 -1.7511
  301MOL0     H40591   3.962   5.387   9.181  1.3774  1.2149 -0.7780
  301MOL0     H40592   3.977   5.564   9.194  1.1211 -1.0707 -2.2660
  301MOL0     H40593   3.814   5.595   9.378 -5.3168 -1.5214  1.9725
  301MOL0     H40594   3.820   5.430   9.418  0.5408  1.6539  1.2155
  301MOL0     H40595   3.580   5.425   9.040  1.3412 -1.1825 -2.6503
  301MOL0     H40596   3.475   5.197   8.979  0.0712 -1.7321  0.5610
  301MOL0     H40597   3.299   4.805   9.160 -0.8550 -1.3218  1.0479
  301MOL0     H40598   3.205   4.563   9.142  0.0685 -1.5548  0.0262
  301MOL0     H40599   3.268   4.446   9.413 -0.0346 -1.0097  2.0519
  301MOL0     H40600   3.248   4.270   9.389  0.6479 -0.3387 -3.3746
  301MOL0     H40601   3.504   4.258   9.423 -1.8738 -1.5271 -1.3202
  301MOL0     H40602   3.519   4.417   9.466 -1.1045  0.9195 -0.8057
  301MOL0     H40603   3.409   4.197   9.599 -0.8640 -1.2120 -0.4756
  301MOL0     H40604   3.505   4.320   9.677 -0.9030 -1.7891  0.6129
  301MOL0     H40605   3.206   4.328   9.623  1.0737 -5.1616  1.0734
  301MOL0     H40606   3.296   4.468   9.685 -2.2933  0.1267  0.9898
  301MOL0     H40607   3.357   4.333   9.895 -0.1550  0.8711  0.4639
  301MOL0     H40608   3.259   4.200   9.830 -0.8553  0.4545  2.0796
  301MOL0     H40609   3.123   4.477   9.850  2.4096  2.2505  0.9294
  301MOL0     H40610   3.066   4.315   9.867 -0.9637  1.5669 -0.6797
  301MOL0     H40611   3.255   4.427  10.078  0.5152 -4.0940  2.5757
  301MOL0     H40612   3.169   4.279  10.078 -1.8270 -0.8676 -1.2160
  301MOL0     H40613   3.032   4.392  10.218  2.1987 -0.9508 -1.1479
  301MOL0     H40614   3.070   4.553  10.135  1.0400  0.2381  0.5378
  301MOL0     H40615   3.596   4.427   9.226 -0.1828  1.9264  2.2747
  301MOL0     H40616   3.691   4.628   9.151 -0.4670 -0.7778 -1.8102
  301MOL0     H40617   3.713   5.011   9.269  0.0158  0.2617  2.4601
  301MOL0     H40618   3.797   5.235   9.347  1.1333  5.0241 -2.0983
  301MOL0     H40619   4.756   5.657  10.666 -0.7290 -0.0225 -3.0480
  301MOL0     H40620   4.786   5.780  10.909  3.5738  1.5932  0.0868
  301MOL0     H40621   4.703   6.381  11.116  2.6665  3.2104  1.9578
  301MOL0     H40622   4.756   6.448  11.325  2.0961  0.6661 -0.6591
  301MOL0     H40623   4.839   6.269  11.722  0.8457 -1.6522  1.7794
  301MOL0     H40624   4.935   6.157  11.619  0.5265 -0.2173 -3.7512
  301MOL0     H40625   4.704   6.069  11.534  1.0827 -1.4725  1.0350
  301MOL0     H40626   4.619   6.178  11.646 -0.9214  0.6589  0.4271
  301MOL0     H40627   4.662   6.057  11.827  0.7612  2.8336 -1.3529
  301MOL0     H40628   4.815   5.988  11.756  0.3437  1.8764  0.0317
  301MOL0     H40629   4.675   5.831  11.608  2.4518  0.7104  1.4812
  301MOL0     H40630   4.631   5.811  11.761  1.8554 -2.1777 -3.2404
  301MOL0     H40631   4.262   5.955  11.675  0.0910  1.2255  1.2893
  301MOL0     H40632   4.920   6.060  11.420  1.7139 -1.3872 -1.9922
  301MOL0     H40633   4.800   5.905  11.156 -1.6826 -0.0161  1.8983
  301MOL0     H40634   4.973   5.941  11.128  1.3380  3.3122  1.3405
  301MOL0     H40635   4.909   5.908  11.295 -1.3220  2.9858  1.5838
  302MOL0     O40636   5.769   7.394   3.749  0.1030  1.0738  0.2870
  302MOL0     C40637   5.828   7.400   3.853 -0.0227  0.5712 -0.0368
  302MOL0     O40638   5.882   7.296   3.917 -0.2301 -0.8500 -0.5050
  302MOL0     C40639   5.859   7.183   3.855 -0.2123  0.8440 -0.6999
  302MOL0     C40640   5.961   7.131   3.776  0.2650 -0.5565 -0.1590
  302MOL0     C40641   5.947   7.009   3.729 -0.5915  1.2071  0.5318
  302MOL0     C40642   5.846   6.924   3.759  0.7197  0.2610 -0.6051
  302MOL0     O40643   5.847   6.803   3.695  0.6489  1.0012 -0.2240
  302MOL0     C40644   5.769   6.698   3.762  0.1889  0.2955 -0.0709
  302MOL0     C40645   5.632   6.671   3.697  0.1880 -0.1025  0.2045
  302MOL0     C40646   5.659   6.592   3.566 -0.5478  0.7647  0.1230
  302MOL0     C40647   5.627   6.440   3.563  0.1683 -0.0409 -0.0010
  302MOL0     C40648   5.654   6.377   3.424  0.1305  0.0797  0.2643
  302MOL0     C40649   5.555   6.437   3.317 -0.1817  0.0676 -1.1451
  302MOL0     C40650   5.565   6.360   3.184  0.2971 -0.4810 -0.3881
  302MOL0     C40651   5.483   6.423   3.071 -1.1989  0.4224 -0.0646
  302MOL0     N40652   5.521   6.368   2.934 -0.0536 -1.5028  0.1478
  302MOL0     C40653   5.635   6.398   2.859 -0.3968  0.0090 -0.9865
  302MOL0     C40654   5.615   6.348   2.739  0.9380 -0.3428  0.7664
  302MOL0     C40655   5.700   6.355   2.618 -0.0308  0.1000  0.0933
  302MOL0     C40656   5.823   6.264   2.621 -0.5348  0.4788 -0.2499
  302MOL0     C40657   5.786   6.113   2.658 -0.3275  0.8096 -0.3315
  302MOL0     C40658   5.899   6.015   2.651  1.1471 -0.1334  0.8203
  302MOL0     O40659   5.964   6.033   2.525  0.0825 -0.0236 -0.2290
  302MOL0     C40660   6.041   5.924   2.477  0.2078  0.7236  0.5067
  302MOL0     C40661   6.046   5.914   2.334  0.0130  0.1378 -0.8245
  302MOL0     C40662   6.124   5.816   2.276 -0.2758 -0.3438 -0.7133
  302MOL0     C40663   6.197   5.723   2.353  0.4544 -0.0243 -0.2043
  302MOL0     C40664   6.263   5.608   2.288 -0.4045  0.0659  1.9873
  302MOL0     O40665   6.276   5.505   2.375 -0.7399  0.0357  0.5780
  302MOL0     C40666   6.280   5.376   2.327 -0.3828 -0.2358  0.2713
  302MOL0     C40667   6.406   5.314   2.323 -0.3580  1.2440  0.2204
  302MOL0     C40668   6.407   5.182   2.279  0.0007 -0.4335  0.2192
  302MOL0     C40669   6.296   5.115   2.218 -0.5035 -0.3140  0.4318
  302MOL0     O40670   6.306   4.990   2.170 -0.5717  0.5259  0.4966
  302MOL0     C40671   6.213   4.928   2.078  0.1310  0.0814 -0.1317
  302MOL0     C40672   6.252   4.781   2.047 -0.1541 -0.2595 -0.7293
  302MOL0     C40673   6.264   4.696   2.170  0.2467  0.5687  0.1198
  302MOL0     C40674   6.391   4.594   2.169  0.8383 -0.3948 -0.0570
  302MOL0     C40675   6.389   4.475   2.253 -0.2254 -0.0639 -0.4059
  302MOL0     C40676   6.265   4.385   2.243 -0.5103 -0.2573  0.6729
  302MOL0     C40677   6.277   4.245   2.311 -0.1235 -1.5555  0.9696
  302MOL0     C40678   6.139   4.174   2.303 -0.9319 -0.7067  0.5034
  302MOL0    Cl40679   6.042   4.249   2.416  0.0988 -0.1808  0.1319
  302MOL0     C40680   6.172   5.189   2.224  0.1318  0.6801  0.4455
  302MOL0     C40681   6.168   5.314   2.278  0.7583  0.1741 -0.5900
  302MOL0     O40682   6.279   5.603   2.165  0.1162 -0.5189 -0.5206
  302MOL0     C40683   6.181   5.732   2.495  0.0387  0.3690  0.0472
  302MOL0     C40684   6.103   5.822   2.557  0.1921 -0.6411  0.2800
  302MOL0     N40685   5.494   6.276   2.735  0.4292  0.8313 -0.8600
  302MOL0     N40686   5.442   6.300   2.847 -0.3376 -0.7680 -0.6832
  302MOL0     C40687   5.737   6.979   3.840  0.1217  0.3498 -1.3196
  302MOL0     C40688   5.750   7.107   3.895 -0.1064 -1.2875 -0.7214
  302MOL0     C40689   5.793   7.513   3.936  0.4082 -0.6054  0.1550
  302MOL0     C40690   5.724   7.484   4.060 -0.1759  0.2551  0.0710
  302MOL0     C40691   5.664   7.584   4.134  1.5882 -0.2719 -0.0790
  302MOL0     C40692   5.669   7.721   4.096  0.3735  0.0459 -0.3599
  302MOL0     O40693   5.589   7.811   4.155 -0.4050 -1.0850 -0.9582
  302MOL0     C40694   5.480   7.758   4.224 -0.0210 -0.8710 -0.5423
  302MOL0     C40695   5.377   7.874   4.253 -1.2025 -0.0381 -0.3800
  302MOL0     C40696   5.440   8.004   4.310 -0.0911  0.0225 -0.0740
  302MOL0     C40697   5.337   8.110   4.322 -0.3082  0.0650  0.7551
  302MOL0     C40698   5.364   8.191   4.442  0.2566  0.6959 -0.6105
  302MOL0     C40699   5.392   8.257   4.541 -0.9522 -0.0965 -0.5451
  302MOL0     C40700   5.745   7.752   3.990 -1.3439 -0.0051 -0.5309
  302MOL0     C40701   5.804   7.655   3.911 -0.5861 -0.2332  0.3308
  302MOL0     C40702   5.900   7.697   3.798  1.1451  0.3319 -0.0119
  302MOL0     H40703   6.051   7.191   3.769 -0.1195  0.1352  0.6475
  302MOL0     H40704   6.024   6.959   3.671 -0.2419 -0.2590  2.1483
  302MOL0     H40705   5.838   6.613   3.758  0.4008  0.5123 -1.6752
  302MOL0     H40706   5.754   6.718   3.869  2.1823  1.1897  0.0888
  302MOL0     H40707   5.584   6.766   3.672  0.5989  0.4294  1.3669
  302MOL0     H40708   5.562   6.627   3.769  1.2942  0.3371  1.5872
  302MOL0     H40709   5.759   6.623   3.535 -0.7298  1.0667 -0.1682
  302MOL0     H40710   5.598   6.637   3.487  4.0913  3.1055 -2.5584
  302MOL0     H40711   5.681   6.391   3.645 -1.3826 -0.3616  0.8582
  302MOL0     H40712   5.521   6.444   3.589  0.6316 -0.1462  2.0706
  302MOL0     H40713   5.752   6.414   3.391  0.3279 -0.4082  0.3022
  302MOL0     H40714   5.657   6.269   3.441 -0.6844 -0.6014 -3.0471
  302MOL0     H40715   5.452   6.426   3.354 -1.2301  3.7710 -2.5315
  302MOL0     H40716   5.564   6.545   3.306  0.3371  0.3201  1.3085
  302MOL0     H40717   5.530   6.258   3.201  3.9182 -1.5034  2.4011
  302MOL0     H40718   5.670   6.349   3.155  1.0864 -0.4480  2.2482
  302MOL0     H40719   5.377   6.438   3.093 -0.4679  0.4017  4.5148
  302MOL0     H40720   5.529   6.522   3.058 -1.1751  0.3685 -0.3974
  302MOL0     H40721   5.727   6.452   2.884  0.8298 -2.4355  0.1517
  302MOL0     H40722   5.638   6.340   2.529 -1.0233  5.1877 -0.4118
  302MOL0     H40723   5.743   6.456   2.609  3.6214 -1.3312 -0.1999
  302MOL0     H40724   5.854   6.247   2.517 -1.4678 -3.5091 -0.0534
  302MOL0     H40725   5.893   6.310   2.692  0.9211  1.5339 -2.2384
  302MOL0     H40726   5.708   6.085   2.586  0.5563  0.1352 -1.0571
  302MOL0     H40727   5.738   6.109   2.756 -0.5601 -1.4476 -0.4758
  302MOL0     H40728   5.862   5.913   2.660  0.1583 -0.1552 -2.2057
  302MOL0     H40729   5.970   6.037   2.731  1.0847 -0.6676  1.0259
  302MOL0     H40730   5.997   5.998   2.285  0.4210  0.6189 -0.4250
  302MOL0     H40731   6.134   5.794   2.170 -0.4965 -2.0461 -0.4165
  302MOL0     H40732   6.500   5.362   2.348  0.3938  0.0173 -0.2258
  302MOL0     H40733   6.506   5.138   2.280  0.6193  0.6111 -3.4165
  302MOL0     H40734   6.113   4.933   2.121  0.0151 -0.0060 -0.3871
  302MOL0     H40735   6.223   4.967   1.977 -0.0066 -2.2763 -1.1312
  302MOL0     H40736   6.187   4.721   1.981  1.2478 -1.5407 -0.9985
  302MOL0     H40737   6.343   4.791   1.988 -1.4195  0.3876 -2.6954
  302MOL0     H40738   6.283   4.767   2.251  0.0694 -0.8418  1.4494
  302MOL0     H40739   6.170   4.645   2.193 -0.1034  2.4804  3.7814
  302MOL0     H40740   6.483   4.651   2.186 -0.0511  0.2579  3.3639
  302MOL0     H40741   6.393   4.558   2.065 -1.1092 -0.7195 -0.0318
  302MOL0     H40742   6.398   4.490   2.361  2.2506 -4.4662  0.2350
  302MOL0     H40743   6.471   4.412   2.217  0.7878  1.3540 -0.6209
  302MOL0     H40744   6.195   4.445   2.301 -0.5788  0.7060 -0.3715
  302MOL0     H40745   6.237   4.380   2.137  0.1140 -0.6954  0.5289
  302MOL0     H40746   6.302   4.240   2.418  0.1599  0.2471  1.0226
  302MOL0     H40747   6.361   4.198   2.260  1.0518  1.3275  0.0286
  302MOL0     H40748   6.088   4.172   2.206  0.1862 -2.4851 -0.0965
  302MOL0     H40749   6.150   4.067   2.320 -4.3024 -1.1252  0.6911
  302MOL0     H40750   6.079   5.143   2.191 -0.4439  1.7472  0.5557
  302MOL0     H40751   6.075   5.370   2.284  1.0401  0.5009  1.3893
  302MOL0     H40752   6.228   5.663   2.565 -0.8467  0.6783  0.9668
  302MOL0     H40753   6.080   5.819   2.663  0.2207  2.3261  0.4500
  302MOL0     H40754   5.650   6.922   3.870 -1.5123  2.9118 -0.8674
  302MOL0     H40755   5.661   7.144   3.945 -1.8929 -3.3809 -2.1582
  302MOL0     H40756   5.717   7.384   4.102  2.4925  0.7732  1.9740
  302MOL0     H40757   5.615   7.544   4.222  0.5949  1.7918  0.3724
  302MOL0     H40758   5.500   7.722   4.326 -2.0368  2.7787  1.3558
  302MOL0     H40759   5.432   7.673   4.174  0.4541 -1.3762 -0.1544
  302MOL0     H40760   5.294   7.845   4.317 -2.7158  0.4670 -2.0413
  302MOL0     H40761   5.321   7.883   4.159 -0.5040 -2.6058 -1.1368
  302MOL0     H40762   5.524   8.049   4.256 -1.6376  2.8268 -0.3723
  302MOL0     H40763   5.481   7.972   4.406 -0.7568 -0.4904  0.0466
  302MOL0     H40764   5.332   8.169   4.229 -2.1574 -1.0169  0.1115
  302MOL0     H40765   5.237   8.066   4.335 -0.6044  0.6894  0.6630
  302MOL0     H40766   5.421   8.319   4.624 -1.0666 -2.1431  1.0953
  302MOL0     H40767   5.763   7.856   3.965 -2.1465  1.3560  3.7256
  302MOL0     H40768   6.002   7.685   3.837  0.7710  0.7016  1.1346
  302MOL0     H40769   5.875   7.633   3.713  0.4479  2.1816 -1.2540
  302MOL0     H40770   5.875   7.796   3.757  0.8417  0.5807  0.7588
  303MOL0     O40771   0.151   3.819   5.010 -0.2421  0.1726 -0.4436
  303MOL0     C40772   0.102   3.923   5.045 -0.7960 -0.0823 -0.0393
  303MOL0     O40773   0.041   3.942   5.171 -0.2942  0.5482 -0.2577
  303MOL0     C40774   0.048   3.840   5.259  0.3148  0.1030 -0.5415
  303MOL0     C40775   0.160   3.816   5.330  0.1804 -0.2835 -1.2559
  303MOL0     C40776   0.166   3.703   5.423  0.2311 -0.3147 -0.9776
  303MOL0     C40777   0.055   3.612   5.418 -0.3257  0.8629 -0.6350
  303MOL0     O40778   0.058   3.496   5.494 -0.7260 -0.9960 -0.0968
  303MOL0     C40779  -0.054   3.396   5.494  0.6468 -0.1528  0.9359
  303MOL0     C40780  -0.013   3.261   5.555  0.1899 -0.2857 -0.1964
  303MOL0     C40781   0.012   3.256   5.707 -0.0370  0.8047 -0.7908
  303MOL0     C40782   0.162   3.262   5.747 -0.2920  0.2195 -0.1101
  303MOL0     C40783   0.180   3.262   5.900  0.1005 -0.9344 -0.8309
  303MOL0     C40784   0.254   3.139   5.943  0.4623  0.1978 -0.0455
  303MOL0     C40785   0.151   3.029   5.979  0.0216  0.5850  0.5379
  303MOL0     C40786   0.096   2.932   5.863 -0.4988  0.5037  0.0359
  303MOL0     N40787   0.168   2.804   5.868 -0.0396  0.6090 -0.1544
  303MOL0     C40788   0.305   2.792   5.864  0.3721 -0.0930 -0.0041
  303MOL0     C40789   0.344   2.680   5.920  0.2777 -0.0708 -0.5941
  303MOL0     C40790   0.486   2.649   5.949  0.0389 -0.1273  0.2320
  303MOL0     C40791   0.530   2.701   6.088 -0.8417  0.2094  0.3180
  303MOL0     C40792   0.666   2.637   6.125 -0.2635 -1.4674  0.0575
  303MOL0     C40793   0.720   2.687   6.257  0.2915  0.5277 -0.5932
  303MOL0     O40794   0.622   2.684   6.365 -0.2106  1.1488 -0.8248
  303MOL0     C40795   0.637   2.566   6.446  0.0621 -0.8302 -0.5356
  303MOL0     C40796   0.577   2.574   6.566 -0.0784  0.4020 -0.2127
  303MOL0     C40797   0.580   2.474   6.657  0.9783 -0.5488 -0.1953
  303MOL0     C40798   0.655   2.359   6.639  0.1527 -0.3158 -0.2865
  303MOL0     C40799   0.650   2.247   6.734 -0.4432  1.1189  0.8233
  303MOL0     O40800   0.755   2.152   6.730 -0.4862  0.0244 -0.0101
  303MOL0     C40801   0.749   2.031   6.796  0.6132 -0.3405 -0.1710
  303MOL0     C40802   0.823   2.018   6.917  0.3876  0.8584 -0.5251
  303MOL0     C40803   0.804   1.900   6.989 -0.1940  1.3689 -0.3927
  303MOL0     C40804   0.729   1.793   6.937 -0.2296 -0.1877 -0.1341
  303MOL0     O40805   0.735   1.676   7.004 -0.1055 -0.3557  0.0102
  303MOL0     C40806   0.664   1.565   6.961 -0.2104  0.0217  0.0511
  303MOL0     C40807   0.529   1.575   7.035  0.2374  0.1871 -0.3373
  303MOL0     C40808   0.537   1.554   7.187  0.3830  0.5264 -0.2360
  303MOL0     C40809   0.418   1.600   7.267  1.1429  0.5867 -0.4228
  303MOL0     C40810   0.405   1.542   7.416 -0.6547 -0.9706 -1.1134
  303MOL0     C40811   0.285   1.603   7.482 -1.5180 -0.5535  1.1469
  303MOL0     C40812   0.239   1.525   7.608  0.2928 -0.2101 -0.4311
  303MOL0     C40813   0.351   1.531   7.708  0.5222 -0.1957  0.4442
  303MOL0    Cl40814   0.440   1.367   7.708 -0.1703 -0.0888 -0.1075
  303MOL0     C40815   0.652   1.809   6.822 -0.1589  1.0800  0.0167
  303MOL0     C40816   0.661   1.922   6.751 -0.5432 -0.2870  0.0641
  303MOL0     O40817   0.553   2.235   6.813  0.3308 -0.8104 -0.4347
  303MOL0     C40818   0.723   2.356   6.512  0.4957 -0.3448 -1.7730
  303MOL0     C40819   0.719   2.456   6.424 -0.7626 -0.6075  1.0814
  303MOL0     N40820   0.234   2.606   5.945 -0.4708  0.4353  0.5542
  303MOL0     N40821   0.130   2.680   5.911  0.7289  0.1839 -0.2089
  303MOL0     C40822  -0.058   3.633   5.341 -0.3648 -0.3026  0.5837
  303MOL0     C40823  -0.054   3.747   5.256 -0.4602  0.2347 -0.0388
  303MOL0     C40824   0.089   4.038   4.948  0.2246  0.1071 -0.7845
  303MOL0     C40825   0.026   4.161   4.987  1.2281 -0.2460  0.6633
  303MOL0     C40826   0.036   4.276   4.906 -0.4083  0.0956 -0.5777
  303MOL0     C40827   0.075   4.265   4.770  0.6956  0.0993  0.5004
  303MOL0     O40828   0.091   4.378   4.686  0.5178  0.6963 -0.1531
  303MOL0     C40829   0.003   4.491   4.702 -1.3309 -0.7077 -0.4046
  303MOL0     C40830   0.081   4.609   4.774  0.1022 -0.3979  0.6396
  303MOL0     C40831   0.002   4.745   4.801  0.1232  0.2697  0.2252
  303MOL0     C40832  -0.009   4.831   4.665 -0.3747 -0.0684 -1.0543
  303MOL0     C40833  -0.129   4.916   4.679  0.8573 -0.0094  0.5108
  303MOL0     C40834  -0.230   4.991   4.678  1.2843 -0.1563 -0.1854
  303MOL0     C40835   0.119   4.140   4.731 -0.6660  0.0708  0.1261
  303MOL0     C40836   0.141   4.032   4.816  0.6661 -0.0900  0.3747
  303MOL0     C40837   0.212   3.917   4.754  0.3480  0.0506  0.7691
  303MOL0     H40838   0.236   3.892   5.320 -1.5161  1.5158 -1.0756
  303MOL0     H40839   0.254   3.678   5.481 -0.2617 -2.7147 -1.1637
  303MOL0     H40840  -0.143   3.442   5.539  0.2957  2.3710 -1.9743
  303MOL0     H40841  -0.079   3.380   5.389 -0.0813  0.6001  0.9857
  303MOL0     H40842   0.069   3.215   5.498 -0.7451 -0.6392 -1.3002
  303MOL0     H40843  -0.091   3.189   5.527 -0.7916  1.4222 -2.1387
  303MOL0     H40844  -0.037   3.170   5.753 -1.4533  2.1083  0.2622
  303MOL0     H40845  -0.035   3.340   5.759  1.6026  1.8652 -0.9517
  303MOL0     H40846   0.214   3.180   5.696  0.8271  0.7572  0.1374
  303MOL0     H40847   0.201   3.354   5.703  1.4072  0.0709  0.9934
  303MOL0     H40848   0.234   3.353   5.928  0.3398  0.1153 -4.2404
  303MOL0     H40849   0.085   3.277   5.952  0.8810 -1.0336  0.6736
  303MOL0     H40850   0.327   3.101   5.871  0.7291  0.3262  0.1547
  303MOL0     H40851   0.314   3.147   6.034 -0.8157 -0.1055  0.8550
  303MOL0     H40852   0.058   3.073   6.016 -1.6028 -1.5506 -0.7473
  303MOL0     H40853   0.198   2.967   6.057 -0.2532  1.2658  1.2613
  303MOL0     H40854  -0.010   2.918   5.883  0.1290 -1.4029  2.6172
  303MOL0     H40855   0.119   2.979   5.767  2.1688  1.5486  1.0800
  303MOL0     H40856   0.372   2.871   5.834  1.7368  0.0710  3.0875
  303MOL0     H40857   0.505   2.542   5.956  2.1711  0.1520 -0.4407
  303MOL0     H40858   0.550   2.684   5.867  0.1739  0.7627  0.7062
  303MOL0     H40859   0.539   2.810   6.084 -2.3801  0.3167 -0.9341
  303MOL0     H40860   0.454   2.671   6.160 -1.7978  0.1909 -0.6848
  303MOL0     H40861   0.740   2.668   6.051 -2.1581  0.0617 -1.3094
  303MOL0     H40862   0.653   2.529   6.115 -1.3748 -1.2160 -1.4632
  303MOL0     H40863   0.745   2.794   6.253  1.0865  0.3050 -2.2898
  303MOL0     H40864   0.812   2.631   6.277  0.6565  1.7062  1.3105
  303MOL0     H40865   0.514   2.661   6.580  0.6973  0.4623  4.5134
  303MOL0     H40866   0.522   2.480   6.749  1.7175  1.2626  0.1918
  303MOL0     H40867   0.899   2.088   6.950  0.2786  0.1633  1.2800
  303MOL0     H40868   0.876   1.864   7.061  2.0198 -0.9881 -3.4981
  303MOL0     H40869   0.656   1.552   6.853  0.4119 -0.2022  0.0254
  303MOL0     H40870   0.721   1.479   6.997  1.9799  1.5308  0.4050
  303MOL0     H40871   0.481   1.670   7.011 -2.1892 -0.6348  0.9701
  303MOL0     H40872   0.465   1.497   6.995 -1.1720 -0.0487  2.1691
  303MOL0     H40873   0.548   1.448   7.208 -0.8596  0.4952  0.3701
  303MOL0     H40874   0.626   1.606   7.222  2.3264 -0.8444 -2.8061
  303MOL0     H40875   0.330   1.557   7.218  0.0655  1.0822  1.0099
  303MOL0     H40876   0.394   1.707   7.268 -1.8329  0.0093  0.2723
  303MOL0     H40877   0.488   1.578   7.477  1.4456 -3.9932 -1.9170
  303MOL0     H40878   0.412   1.433   7.418 -2.3217 -1.1007 -1.3522
  303MOL0     H40879   0.308   1.708   7.504 -1.9355 -0.4029  0.8709
  303MOL0     H40880   0.208   1.610   7.404  0.2289 -0.4082 -0.6207
  303MOL0     H40881   0.221   1.422   7.579 -1.5950 -0.3344  0.9905
  303MOL0     H40882   0.138   1.559   7.634  0.0878 -0.7226 -0.5513
  303MOL0     H40883   0.433   1.598   7.681 -0.9595  1.5123  0.0201
  303MOL0     H40884   0.306   1.544   7.807 -1.3070 -0.1205 -0.3619
  303MOL0     H40885   0.585   1.735   6.779 -0.9300  2.9395 -2.1500
  303MOL0     H40886   0.596   1.921   6.664 -1.2228 -0.1212  0.5677
  303MOL0     H40887   0.771   2.261   6.486 -1.1233 -2.3627  1.8387
  303MOL0     H40888   0.771   2.437   6.331 -1.4202 -0.6700  0.7235
  303MOL0     H40889  -0.152   3.579   5.334 -1.2616  1.2408  0.2036
  303MOL0     H40890  -0.152   3.764   5.211  0.0206  2.2200 -0.4315
  303MOL0     H40891  -0.012   4.176   5.087 -0.2568  2.8264 -0.2549
  303MOL0     H40892  -0.011   4.370   4.934  1.5560  1.5641 -1.9710
  303MOL0     H40893  -0.089   4.466   4.756 -1.1333  1.2444  0.9399
  303MOL0     H40894  -0.034   4.519   4.602 -0.3322 -1.9444 -1.1576
  303MOL0     H40895   0.169   4.641   4.717 -1.3945  0.3956 -1.3851
  303MOL0     H40896   0.106   4.577   4.875  2.7504  0.2437  0.2557
  303MOL0     H40897   0.066   4.807   4.864  0.9693 -0.2304 -0.1245
  303MOL0     H40898  -0.096   4.731   4.848  1.5050 -0.8811  3.0311
  303MOL0     H40899   0.082   4.891   4.650  0.9840 -2.0797 -1.2980
  303MOL0     H40900  -0.004   4.762   4.581 -0.9406 -3.2605  1.3504
  303MOL0     H40901  -0.323   5.045   4.680  1.1611 -0.3664  1.8197
  303MOL0     H40902   0.157   4.127   4.630 -1.9881  1.7238 -0.6395
  303MOL0     H40903   0.267   3.955   4.668 -0.6471  1.0221  0.5413
  303MOL0     H40904   0.290   3.872   4.815 -0.4027 -1.0846  0.9235
  303MOL0     H40905   0.147   3.836   4.718 -2.6436  1.5732  2.2920
  304MOL0     O40906   3.899   4.833   9.538 -0.3531  0.3662 -0.2187
  304MOL0     C40907   3.964   4.939   9.506 -0.3382  0.5632  0.1482
  304MOL0     O40908   4.004   4.968   9.373 -0.3662  0.0892  0.0845
  304MOL0     C40909   3.998   4.871   9.272  0.0713  0.1518  0.2011
  304MOL0     C40910   3.960   4.916   9.142 -1.2004  0.9164 -0.7454
  304MOL0     C40911   3.948   4.827   9.034  0.8110  0.7221  0.9636
  304MOL0     C40912   3.970   4.684   9.058 -0.0467 -0.5535 -0.1593
  304MOL0     O40913   3.961   4.596   8.952 -0.2761 -0.0534 -0.6086
  304MOL0     C40914   3.875   4.626   8.843  0.2668  0.6702 -1.3220
  304MOL0     C40915   3.869   4.503   8.769  0.5208  0.1142 -0.0997
  304MOL0     C40916   3.771   4.407   8.850 -0.4655  0.6139  0.1672
  304MOL0     C40917   3.731   4.295   8.742 -0.6738 -0.8372 -0.0719
  304MOL0     C40918   3.676   4.172   8.813 -0.0392  0.5405  0.4691
  304MOL0     C40919   3.668   4.048   8.720 -0.4138  0.1992  0.2499
  304MOL0     C40920   3.628   3.927   8.804  0.4027  0.0549 -0.1484
  304MOL0     C40921   3.646   3.788   8.727  0.1739  0.3216 -0.1266
  304MOL0     N40922   3.534   3.759   8.632  0.6458 -0.3079  0.8929
  304MOL0     C40923   3.393   3.788   8.662  0.1028 -0.1400  0.9351
  304MOL0     C40924   3.329   3.757   8.541 -0.7109  0.6910 -1.1509
  304MOL0     C40925   3.180   3.785   8.524 -0.3484  0.2514 -0.3582
  304MOL0     C40926   3.111   3.650   8.541  0.0941  0.4847 -0.2434
  304MOL0     C40927   2.956   3.660   8.574 -0.2407  0.8703 -0.1517
  304MOL0     C40928   2.901   3.530   8.624 -0.3754 -0.3163  0.2793
  304MOL0     O40929   2.902   3.516   8.763  0.3392 -0.7967 -0.5875
  304MOL0     C40930   2.885   3.401   8.831  0.1161 -0.7660 -0.7113
  304MOL0     C40931   2.837   3.279   8.778 -0.4534  0.2774 -0.3916
  304MOL0     C40932   2.812   3.172   8.867  0.1541 -0.1059  0.4576
  304MOL0     C40933   2.834   3.181   9.005 -0.0844  0.2081  0.5787
  304MOL0     C40934   2.817   3.060   9.098 -0.3675 -0.3964 -0.0071
  304MOL0     O40935   2.835   3.080   9.229 -0.6294  0.3968  0.3226
  304MOL0     C40936   2.824   2.972   9.323  0.8450 -0.9924  0.3856
  304MOL0     C40937   2.751   2.852   9.317 -0.5917  0.0885  1.5061
  304MOL0     C40938   2.728   2.780   9.440  0.7776  0.4773  1.0239
  304MOL0     C40939   2.788   2.812   9.566 -0.3045  0.0801  0.4633
  304MOL0     O40940   2.784   2.738   9.683  0.6544  0.3347  0.1113
  304MOL0     C40941   2.712   2.616   9.673  0.5758  0.2566  0.9305
  304MOL0     C40942   2.793   2.510   9.602  0.0844 -0.0222 -0.1112
  304MOL0     C40943   2.851   2.403   9.697  0.0743 -0.2628  0.5812
  304MOL0     C40944   2.976   2.465   9.762  0.1465 -0.2375  0.2589
  304MOL0     C40945   3.114   2.427   9.700  0.0613  0.0686 -0.6209
  304MOL0     C40946   3.236   2.437   9.782 -0.1434 -0.4662  0.5643
  304MOL0     C40947   3.368   2.408   9.711  0.4096  0.1859 -0.5882
  304MOL0     C40948   3.371   2.254   9.693  0.3259  0.4520  0.1282
  304MOL0    Cl40949   3.531   2.219   9.622 -0.1041 -0.3846 -0.0743
  304MOL0     C40950   2.865   2.928   9.572 -0.0953  0.6786 -0.6748
  304MOL0     C40951   2.869   3.013   9.454 -0.4513  0.0844  0.1593
  304MOL0     O40952   2.800   2.954   9.039 -0.7456  0.5607 -0.4101
  304MOL0     C40953   2.893   3.293   9.061  1.1223 -0.5894 -0.7525
  304MOL0     C40954   2.917   3.402   8.965 -0.3831  0.6028 -0.3515
  304MOL0     N40955   3.424   3.722   8.452  0.5026 -0.4492 -1.1265
  304MOL0     N40956   3.541   3.725   8.499 -0.6337  0.2643  0.0676
  304MOL0     C40957   4.016   4.647   9.184 -0.3638 -0.8941 -0.5138
  304MOL0     C40958   4.025   4.739   9.291  0.2100 -0.1881 -0.0199
  304MOL0     C40959   3.989   5.050   9.599 -1.4034 -0.2653  0.0310
  304MOL0     C40960   4.108   5.136   9.579  0.8544  0.6112 -0.9013
  304MOL0     C40961   4.135   5.240   9.664 -0.0994  0.2483 -0.1474
  304MOL0     C40962   4.054   5.263   9.776 -0.4159 -0.0859  0.1946
  304MOL0     O40963   4.087   5.360   9.874  0.1135  0.6806  0.2201
  304MOL0     C40964   4.197   5.448   9.864  0.0340  0.7272 -0.1110
  304MOL0     C40965   4.321   5.368   9.892  0.4945  0.5117 -0.6158
  304MOL0     C40966   4.326   5.282  10.020 -0.0925 -0.3477  0.2299
  304MOL0     C40967   4.424   5.166  10.024  0.3191 -0.0445  0.0493
  304MOL0     C40968   4.396   5.074  10.136  0.7126 -0.6257  0.5669
  304MOL0     C40969   4.377   5.024  10.243 -0.4866  0.1194 -0.4525
  304MOL0     C40970   3.940   5.186   9.797 -0.4705 -0.4029 -0.7028
  304MOL0     C40971   3.903   5.078   9.712  0.8739 -0.5168 -0.0775
  304MOL0     C40972   3.778   4.988   9.739 -0.5686  0.5438  0.3673
  304MOL0     H40973   3.959   5.023   9.130  1.0632  0.8380 -2.0303
  304MOL0     H40974   3.927   4.867   8.936  4.0449  2.6033  0.8532
  304MOL0     H40975   3.773   4.654   8.872 -0.7331 -2.1666 -1.7583
  304MOL0     H40976   3.904   4.703   8.771 -1.8888 -0.2036 -3.2600
  304MOL0     H40977   3.971   4.471   8.749 -0.3417 -2.7707 -0.3529
  304MOL0     H40978   3.831   4.529   8.669  2.8117 -1.4828 -1.4842
  304MOL0     H40979   3.676   4.443   8.891 -1.9445 -1.6383 -0.9981
  304MOL0     H40980   3.829   4.370   8.935 -0.7261  0.7044  0.3858
  304MOL0     H40981   3.659   4.331   8.668  0.0548 -1.1923 -0.9793
  304MOL0     H40982   3.823   4.279   8.685 -0.4755  3.5191 -1.2655
  304MOL0     H40983   3.740   4.142   8.896  2.5501 -0.1614 -1.6430
  304MOL0     H40984   3.580   4.196   8.860 -0.2408 -0.4645  0.5862
  304MOL0     H40985   3.587   4.049   8.647  0.4433 -2.0217 -0.8169
  304MOL0     H40986   3.753   4.024   8.656 -2.4560 -1.1055 -2.1889
  304MOL0     H40987   3.527   3.937   8.844 -0.4270 -3.3546 -1.0717
  304MOL0     H40988   3.691   3.926   8.893 -0.5182  0.3838  0.5220
  304MOL0     H40989   3.743   3.791   8.676  0.2258 -1.7296 -0.2388
  304MOL0     H40990   3.659   3.703   8.795  2.3048 -2.2244 -3.3637
  304MOL0     H40991   3.347   3.816   8.756  3.6809 -1.7821  3.3839
  304MOL0     H40992   3.140   3.855   8.599  1.4662  0.5567  0.3827
  304MOL0     H40993   3.139   3.815   8.427 -1.3777 -0.6663 -0.2320
  304MOL0     H40994   3.123   3.595   8.447 -0.5835  3.4255 -2.1837
  304MOL0     H40995   3.158   3.612   8.632  1.1263 -0.4539 -1.1510
  304MOL0     H40996   2.903   3.692   8.483  1.1777  2.5167 -0.4647
  304MOL0     H40997   2.948   3.734   8.654  0.1108 -1.2689  1.9348
  304MOL0     H40998   2.950   3.443   8.580 -1.4380 -1.0415  0.5192
  304MOL0     H40999   2.798   3.526   8.590 -0.9023  1.6938  1.4706
  304MOL0     H41000   2.819   3.267   8.672 -0.9998  3.7283 -0.8061
  304MOL0     H41001   2.757   3.085   8.832 -1.3590  0.5582  1.0707
  304MOL0     H41002   2.703   2.818   9.226  2.3121  1.2028 -0.5961
  304MOL0     H41003   2.673   2.687   9.426  1.8273  0.0829 -0.8234
  304MOL0     H41004   2.696   2.585   9.777  0.9532 -0.8972  0.6547
  304MOL0     H41005   2.613   2.620   9.626  1.0476  0.6113 -0.0354
  304MOL0     H41006   2.727   2.454   9.536  2.5051 -0.8664 -1.9515
  304MOL0     H41007   2.862   2.556   9.530 -0.1112  2.1309  0.9985
  304MOL0     H41008   2.776   2.378   9.772  1.8459  0.1495  2.5796
  304MOL0     H41009   2.877   2.319   9.632 -2.1269 -0.3085 -0.3423
  304MOL0     H41010   2.983   2.452   9.871 -2.1464  1.0775  0.6318
  304MOL0     H41011   2.976   2.574   9.758  0.0249 -0.2698 -1.8826
  304MOL0     H41012   3.125   2.500   9.619 -0.2137  1.4443  0.5434
  304MOL0     H41013   3.105   2.326   9.657 -2.1586 -0.4989  1.0365
  304MOL0     H41014   3.248   2.534   9.831  4.3777  0.9063 -2.5355
  304MOL0     H41015   3.226   2.375   9.872 -1.6777 -0.2472  0.5654
  304MOL0     H41016   3.457   2.437   9.768  0.0546 -2.7907  1.7264
  304MOL0     H41017   3.376   2.451   9.610 -0.0972 -0.2808 -0.8318
  304MOL0     H41018   3.362   2.195   9.784  0.6244 -1.8660 -1.2799
  304MOL0     H41019   3.296   2.220   9.621  0.1610  1.6474 -0.3029
  304MOL0     H41020   2.927   2.961   9.655 -0.8441  2.4593 -0.7980
  304MOL0     H41021   2.929   3.103   9.469  1.8411 -1.2179 -0.6831
  304MOL0     H41022   2.936   3.300   9.160  1.2109  2.8583 -0.8977
  304MOL0     H41023   2.962   3.488   9.013  1.2266  0.6638 -1.8862
  304MOL0     H41024   4.055   4.548   9.203  4.7005  1.3546  2.8133
  304MOL0     H41025   4.072   4.714   9.386  1.2097 -1.8306 -0.8993
  304MOL0     H41026   4.173   5.120   9.493  1.2940  1.3768 -0.7153
  304MOL0     H41027   4.230   5.282   9.634 -1.4085  1.7571 -2.5467
  304MOL0     H41028   4.184   5.518   9.948 -1.1207 -0.5385  0.7936
  304MOL0     H41029   4.204   5.510   9.774  1.6183  1.1327  0.2506
  304MOL0     H41030   4.400   5.443   9.901  0.4870  0.4895 -0.3304
  304MOL0     H41031   4.354   5.309   9.807  3.1066  1.9478 -0.7079
  304MOL0     H41032   4.224   5.257  10.050  0.6555 -0.6197  2.7166
  304MOL0     H41033   4.358   5.345  10.103  3.9360 -3.6695  1.5411
  304MOL0     H41034   4.439   5.116   9.928 -0.5615 -1.0593  0.4273
  304MOL0     H41035   4.523   5.213  10.028  0.7825 -0.3188 -3.9489
  304MOL0     H41036   4.355   4.962  10.328 -1.5377 -2.0077 -2.1472
  304MOL0     H41037   3.887   5.226   9.883 -0.9879 -0.8865 -0.7911
  304MOL0     H41038   3.718   5.032   9.819 -0.5344 -2.8199  2.4401
  304MOL0     H41039   3.716   4.980   9.649  0.0856  1.4068 -0.1821
  304MOL0     H41040   3.802   4.891   9.783 -0.7268  0.4951  0.3481
  305MOL0     O41041   6.056   0.525  10.146  0.3068 -0.2264  0.3925
  305MOL0     C41042   6.075   0.474  10.036  0.3663  0.1093  0.3999
  305MOL0     O41043   6.070   0.539   9.913 -0.6646 -0.1486  1.2317
  305MOL0     C41044   6.034   0.671   9.891 -1.0314  0.1758  0.7966
  305MOL0     C41045   5.969   0.744   9.985 -0.0289 -0.7403  0.9342
  305MOL0     C41046   5.945   0.882   9.957  0.1718  0.1264  0.2319
  305MOL0     C41047   6.003   0.944   9.843 -0.3902  1.2079  0.1105
  305MOL0     O41048   5.995   1.079   9.837  0.0358 -0.0789 -0.5614
  305MOL0     C41049   6.098   1.161   9.778 -0.6164  0.0548 -1.4197
  305MOL0     C41050   6.062   1.314   9.790 -0.3124  0.8172 -0.2714
  305MOL0     C41051   6.103   1.389   9.666 -0.2764 -0.9431 -0.4252
  305MOL0     C41052   6.113   1.535   9.684 -0.5543  0.6925  0.4954
  305MOL0     C41053   6.235   1.585   9.762 -0.0946 -0.3532  0.4979
  305MOL0     C41054   6.250   1.737   9.751  0.0556  1.3094 -0.3057
  305MOL0     C41055   6.385   1.778   9.785 -0.9519  0.4514  0.5862
  305MOL0     C41056   6.457   1.731   9.910 -0.1684  1.2326  0.5668
  305MOL0     N41057   6.424   1.795  10.038 -0.1616 -0.6134 -0.8159
  305MOL0     C41058   6.358   1.724  10.140  0.7458  0.1576  1.0820
  305MOL0     C41059   6.374   1.787  10.258  0.6710  0.6197 -0.5236
  305MOL0     C41060   6.308   1.751  10.390  1.0860  0.0974 -0.1623
  305MOL0     C41061   6.385   1.641  10.473 -0.4205 -0.5019 -0.5927
  305MOL0     C41062   6.302   1.585  10.586  0.1428  0.7855 -0.0367
  305MOL0     C41063   6.385   1.488  10.676 -0.1120  0.0004 -0.4147
  305MOL0     O41064   6.371   1.350  10.637  0.6347 -0.2554  0.0303
  305MOL0     C41065   6.425   1.248  10.705 -0.2883  0.5378 -0.4410
  305MOL0     C41066   6.500   1.261  10.830  0.2190  0.5990  0.4272
  305MOL0     C41067   6.564   1.150  10.888 -0.2070 -0.1192 -0.3033
  305MOL0     C41068   6.540   1.028  10.829 -0.0478  0.4726  0.1541
  305MOL0     C41069   6.591   0.910  10.901  1.3397 -0.2072 -0.3593
  305MOL0     O41070   6.595   0.920  11.039 -0.2598  0.5017  0.3009
  305MOL0     C41071   6.626   0.804  11.120 -0.3140 -0.0699  0.1094
  305MOL0     C41072   6.541   0.778  11.229 -0.8125 -0.6567  0.0590
  305MOL0     C41073   6.572   0.673  11.314 -0.6883  1.2100 -0.1753
  305MOL0     C41074   6.686   0.590  11.302  0.2192 -0.5272  0.1212
  305MOL0     O41075   6.719   0.489  11.394 -0.3598 -0.6750 -0.1514
  305MOL0     C41076   6.699   0.497  11.535  0.0907  0.2599 -0.1982
  305MOL0     C41077   6.795   0.401  11.596 -0.5715 -0.8512  0.4460
  305MOL0     C41078   6.776   0.254  11.583  0.7465  0.1064  0.5326
  305MOL0     C41079   6.645   0.201  11.641  0.1919 -0.5718  0.0855
  305MOL0     C41080   6.635   0.053  11.648 -0.8337 -0.2539  0.0922
  305MOL0     C41081   6.491   0.008  11.652 -0.3956  0.1272 -0.1892
  305MOL0     C41082   6.478  -0.141  11.603  0.0920  0.1707  0.1526
  305MOL0     C41083   6.343  -0.190  11.651 -0.7793  1.0071 -0.1040
  305MOL0    Cl41084   6.304  -0.354  11.610 -0.0843 -0.1057  0.2191
  305MOL0     C41085   6.769   0.625  11.194  0.0106 -0.4088  0.3450
  305MOL0     C41086   6.745   0.730  11.103  0.1988  0.3191 -0.2678
  305MOL0     O41087   6.625   0.819  10.831 -0.4913  0.3419 -0.1236
  305MOL0     C41088   6.475   1.016  10.702  0.6914 -0.1780  0.4960
  305MOL0     C41089   6.414   1.125  10.643 -0.5077  0.4620 -0.7216
  305MOL0     N41090   6.466   1.893  10.232 -0.2031  0.2786 -0.6181
  305MOL0     N41091   6.497   1.892  10.107 -0.5740 -0.0211  0.2788
  305MOL0     C41092   6.069   0.856   9.749 -0.9468 -0.7934 -0.9400
  305MOL0     C41093   6.082   0.722   9.775 -0.1052 -0.4019  0.3332
  305MOL0     C41094   6.090   0.326  10.024 -0.0355 -0.5307  0.3913
  305MOL0     C41095   6.039   0.264   9.915 -0.9244  0.5428  0.7770
  305MOL0     C41096   6.034   0.122   9.904  0.5057  0.7418 -0.8520
  305MOL0     C41097   6.109   0.046   9.987  0.8277  0.1089  0.6657
  305MOL0     O41098   6.139  -0.079   9.954 -0.1729  0.4303  0.0906
  305MOL0     C41099   6.201  -0.170  10.052  0.6175  1.1515  0.9633
  305MOL0     C41100   6.194  -0.323  10.016  0.0898 -0.5708 -0.7462
  305MOL0     C41101   6.254  -0.356   9.881  0.1285 -0.2969  0.8291
  305MOL0     C41102   6.246  -0.506   9.845 -1.5040 -0.2505  0.2833
  305MOL0     C41103   6.311  -0.592   9.941  0.1606  0.1278  0.6001
  305MOL0     C41104   6.356  -0.665  10.026  0.3107 -1.0323  0.6624
  305MOL0     C41105   6.172   0.114  10.089 -0.2098  0.6531 -0.0867
  305MOL0     C41106   6.151   0.249  10.115 -0.1439  0.5764  0.0588
  305MOL0     C41107   6.210   0.299  10.245 -0.8853 -0.8255  0.0521
  305MOL0     H41108   5.924   0.700  10.073 -0.0275 -3.6016 -0.3954
  305MOL0     H41109   5.874   0.936  10.019 -0.4339  0.0979 -0.4296
  305MOL0     H41110   6.190   1.134   9.830 -1.1944  1.0833  0.2155
  305MOL0     H41111   6.105   1.137   9.671  0.6662  0.7150 -1.4967
  305MOL0     H41112   6.113   1.356   9.878 -0.6652  0.0049  0.3342
  305MOL0     H41113   5.956   1.332   9.808 -0.1330  1.0704  0.5793
  305MOL0     H41114   6.024   1.366   9.593  1.7618 -0.9371 -2.7952
  305MOL0     H41115   6.194   1.343   9.624 -1.4418 -3.2747 -0.5803
  305MOL0     H41116   6.110   1.597   9.594 -0.6220  1.5893  1.1048
  305MOL0     H41117   6.024   1.579   9.730 -1.1784  3.4980 -2.9830
  305MOL0     H41118   6.212   1.569   9.867  2.0672  2.9607  1.6540
  305MOL0     H41119   6.335   1.549   9.735 -0.7069 -2.8241  1.2637
  305MOL0     H41120   6.240   1.772   9.648  0.7188  2.6126  0.0431
  305MOL0     H41121   6.168   1.777   9.812  0.7548 -0.1254  1.6998
  305MOL0     H41122   6.388   1.887   9.793 -2.7246  0.4428  1.7912
  305MOL0     H41123   6.441   1.753   9.694  2.0150 -1.3016  2.6915
  305MOL0     H41124   6.443   1.622   9.906 -1.7383  1.4177  0.3268
  305MOL0     H41125   6.556   1.765   9.882  0.1336  0.1327  0.2478
  305MOL0     H41126   6.292   1.641  10.116  1.1738  0.5399 -1.7341
  305MOL0     H41127   6.287   1.837  10.453 -1.8759  2.4515 -3.9079
  305MOL0     H41128   6.212   1.705  10.369  0.1391  1.7878  0.2913
  305MOL0     H41129   6.417   1.557  10.409 -1.7986  1.6098 -4.4016
  305MOL0     H41130   6.471   1.693  10.516 -2.6540  4.5483 -1.5317
  305MOL0     H41131   6.211   1.536  10.551 -0.4154  2.5747 -1.2342
  305MOL0     H41132   6.273   1.672  10.645 -1.2128  0.4288 -0.1453
  305MOL0     H41133   6.367   1.500  10.783 -0.2238 -2.8686 -0.0406
  305MOL0     H41134   6.490   1.515  10.663 -0.5944  2.2103 -0.1497
  305MOL0     H41135   6.510   1.360  10.873 -1.5932  1.0491 -0.0764
  305MOL0     H41136   6.621   1.177  10.977  0.1341  0.6916 -0.7527
  305MOL0     H41137   6.453   0.839  11.247  1.6916  3.7147 -1.2021
  305MOL0     H41138   6.508   0.653  11.399  1.3751 -2.3569  0.7286
  305MOL0     H41139   6.740   0.592  11.570  2.0720  0.2887 -2.3148
  305MOL0     H41140   6.593   0.492  11.561  0.3144 -0.2053  0.6345
  305MOL0     H41141   6.890   0.429  11.551 -0.2707 -4.4069 -1.5465
  305MOL0     H41142   6.810   0.421  11.702  2.2374 -0.4702  0.0352
  305MOL0     H41143   6.798   0.232  11.478  1.8584  3.1380  0.0227
  305MOL0     H41144   6.856   0.207  11.641 -0.3080  0.4592  2.3474
  305MOL0     H41145   6.566   0.249  11.583 -0.5268  0.4489  1.8022
  305MOL0     H41146   6.638   0.234  11.745  0.8033 -0.3266  0.0534
  305MOL0     H41147   6.690   0.034  11.741  0.4373  1.9564 -0.1158
  305MOL0     H41148   6.674  -0.000  11.561 -0.6855  0.4620 -0.2875
  305MOL0     H41149   6.454   0.007  11.754  0.0172 -3.5232  0.0668
  305MOL0     H41150   6.432   0.078  11.592  3.0414  0.9238 -2.9719
  305MOL0     H41151   6.549  -0.210  11.649  1.5294  1.4359 -0.0942
  305MOL0     H41152   6.487  -0.140  11.494 -3.3168  1.6080 -0.2294
  305MOL0     H41153   6.339  -0.172  11.758 -1.3425  1.0416 -0.1277
  305MOL0     H41154   6.271  -0.121  11.606  0.8286  1.9577 -1.3385
  305MOL0     H41155   6.861   0.573  11.168  1.6124  1.8270  1.2163
  305MOL0     H41156   6.807   0.760  11.019 -0.2272  0.8981 -0.3848
  305MOL0     H41157   6.466   0.923  10.646  2.0797  1.1150 -2.0729
  305MOL0     H41158   6.359   1.118  10.550 -0.1935 -0.3997 -0.8463
  305MOL0     H41159   6.091   0.910   9.658 -3.6327 -1.0835 -1.8513
  305MOL0     H41160   6.134   0.646   9.716  1.7904 -0.2088  1.6840
  305MOL0     H41161   6.001   0.330   9.837  1.0406  0.2214 -0.5366
  305MOL0     H41162   5.983   0.059   9.832  0.3348 -1.0733  0.7632
  305MOL0     H41163   6.147  -0.166  10.147  1.6242 -1.4759  1.7256
  305MOL0     H41164   6.309  -0.149  10.060  1.2537 -1.2151 -0.6043
  305MOL0     H41165   6.091  -0.361  10.008 -0.0988  0.3100 -3.7051
  305MOL0     H41166   6.253  -0.361  10.100 -0.2749  2.4668  1.0426
  305MOL0     H41167   6.356  -0.323   9.858 -0.4794  0.2326 -1.3323
  305MOL0     H41168   6.202  -0.295   9.807 -1.7052  0.4940  2.6721
  305MOL0     H41169   6.139  -0.530   9.837 -0.8046 -3.0530 -2.6102
  305MOL0     H41170   6.262  -0.529   9.740 -3.2770  1.5755 -0.4511
  305MOL0     H41171   6.405  -0.709  10.110 -1.2221 -1.1455  1.5425
  305MOL0     H41172   6.243   0.065  10.155  0.8625  3.7227  1.2638
  305MOL0     H41173   6.243   0.216  10.309 -1.1917  0.3245  1.7691
  305MOL0     H41174   6.303   0.352  10.220  0.7800 -3.7730 -0.4815
  305MOL0     H41175   6.151   0.362  10.311 -0.0273 -3.0344  3.1755
  306MOL0     O41176   4.421   4.850   8.955 -0.3294 -0.1594  0.8813
  306MOL0     C41177   4.401   4.731   8.910  1.1263 -0.2558 -0.2095
  306MOL0     O41178   4.411   4.618   8.984  0.6026 -0.1446 -0.1983
  306MOL0     C41179   4.448   4.637   9.119 -0.6287 -0.6920  0.1323
  306MOL0     C41180   4.365   4.593   9.222  0.0758  0.6396  0.0026
  306MOL0     C41181   4.389   4.611   9.355 -0.3952 -1.0049 -0.3723
  306MOL0     C41182   4.515   4.681   9.391 -1.0174  0.0017 -1.3133
  306MOL0     O41183   4.555   4.711   9.523  0.0110 -1.1138 -0.6125
  306MOL0     C41184   4.463   4.665   9.626  0.3887 -0.3162  0.2255
  306MOL0     C41185   4.523   4.718   9.759  0.2152 -0.3347  0.3433
  306MOL0     C41186   4.439   4.709   9.882  0.8345 -0.9626 -0.2921
  306MOL0     C41187   4.286   4.742   9.851 -0.0030  0.2713 -0.2941
  306MOL0     C41188   4.196   4.741   9.984 -0.6673  0.3240  0.3789
  306MOL0     C41189   4.063   4.790   9.950  0.5026  0.5350  0.2804
  306MOL0     C41190   3.989   4.843  10.073  0.6674 -0.1262  0.0068
  306MOL0     C41191   3.932   4.731  10.166  0.3576 -0.2976 -0.0847
  306MOL0     N41192   3.817   4.665  10.117 -0.0115  0.0224  0.6569
  306MOL0     C41193   3.720   4.735  10.048  0.1891 -0.1395 -0.7181
  306MOL0     C41194   3.629   4.629  10.034  0.6659  0.0165  0.1789
  306MOL0     C41195   3.504   4.629   9.952  0.3919  0.3825  0.2124
  306MOL0     C41196   3.517   4.711   9.820  0.3553 -0.6913 -0.0870
  306MOL0     C41197   3.584   4.642   9.695 -0.1203  0.2774 -0.1581
  306MOL0     C41198   3.720   4.587   9.726 -0.2123 -0.5279 -0.5809
  306MOL0     O41199   3.779   4.523   9.616  0.1352  0.9482  0.4351
  306MOL0     C41200   3.911   4.479   9.609 -0.3304  0.6801  0.8511
  306MOL0     C41201   3.956   4.451   9.479  0.1902  0.5787 -0.2217
  306MOL0     C41202   4.082   4.389   9.461  0.6206  0.0758 -0.1431
  306MOL0     C41203   4.164   4.372   9.571  0.5211  1.4762  0.2556
  306MOL0     C41204   4.289   4.307   9.548 -0.7070 -0.6389  0.4985
  306MOL0     O41205   4.325   4.225   9.445 -0.2279  0.6551 -0.4839
  306MOL0     C41206   4.448   4.148   9.451  0.7502  0.0788  0.9213
  306MOL0     C41207   4.523   4.140   9.339 -0.0894 -0.4088  0.4553
  306MOL0     C41208   4.624   4.051   9.325 -0.9093  0.0181 -0.1677
  306MOL0     C41209   4.664   3.970   9.430 -0.2109 -0.0102  0.0901
  306MOL0     O41210   4.775   3.887   9.435 -0.8632 -0.0379 -0.2828
  306MOL0     C41211   4.852   3.855   9.315 -0.6527 -0.0970 -0.1675
  306MOL0     C41212   4.910   3.718   9.358  0.6322  0.0253  0.3312
  306MOL0     C41213   5.024   3.726   9.461 -0.3413 -0.2594 -0.6915
  306MOL0     C41214   5.154   3.680   9.400 -0.4496 -0.1967  0.7517
  306MOL0     C41215   5.280   3.715   9.490  0.2397 -0.4312  0.1023
  306MOL0     C41216   5.290   3.665   9.637  0.2706  0.4166 -0.0756
  306MOL0     C41217   5.317   3.517   9.649  1.6233  0.3353 -0.0032
  306MOL0     C41218   5.346   3.471   9.799  0.3558 -0.1225 -0.3543
  306MOL0    Cl41219   5.510   3.507   9.845  0.0510 -0.0377  0.1922
  306MOL0     C41220   4.596   3.988   9.556  0.9880 -0.0834 -0.4588
  306MOL0     C41221   4.481   4.074   9.572 -0.3057 -0.3574  0.3579
  306MOL0     O41222   4.363   4.321   9.645 -0.8068  0.0917 -0.2756
  306MOL0     C41223   4.128   4.404   9.703 -0.8804 -0.9309  0.1663
  306MOL0     C41224   4.000   4.464   9.722 -0.1699  1.2353  0.9520
  306MOL0     N41225   3.681   4.512  10.093  0.2754  0.1863  0.4382
  306MOL0     N41226   3.801   4.530  10.126 -0.1689 -0.6241 -0.2726
  306MOL0     C41227   4.597   4.721   9.290  0.0508  1.0052 -0.0412
  306MOL0     C41228   4.568   4.695   9.155  0.1248 -1.0389  0.0875
  306MOL0     C41229   4.359   4.711   8.765 -0.4857  0.0990 -0.2180
  306MOL0     C41230   4.297   4.583   8.736  0.1028  0.5678  0.8850
  306MOL0     C41231   4.265   4.539   8.604 -0.5868 -0.3192  0.0129
  306MOL0     C41232   4.319   4.616   8.494 -0.7368 -0.8140 -0.0028
  306MOL0     O41233   4.321   4.559   8.371  0.2710  0.4418 -0.2310
  306MOL0     C41234   4.395   4.626   8.266  0.5367 -0.5661  0.3064
  306MOL0     C41235   4.545   4.611   8.271  0.6603 -0.1204  0.2234
  306MOL0     C41236   4.578   4.474   8.302  0.7335  1.0737 -0.0856
  306MOL0     C41237   4.720   4.444   8.270 -0.3016  0.1499 -0.1097
  306MOL0     C41238   4.829   4.512   8.339  0.4575 -0.4456 -0.0564
  306MOL0     C41239   4.894   4.602   8.384  0.0912  0.6266 -0.8079
  306MOL0     C41240   4.374   4.743   8.524 -1.1460 -1.1475 -0.7115
  306MOL0     C41241   4.393   4.795   8.655 -0.8347  0.7237  0.5717
  306MOL0     C41242   4.461   4.917   8.673 -0.3874 -0.6252  0.0515
  306MOL0     H41243   4.279   4.533   9.195  0.6303  0.7983 -2.2769
  306MOL0     H41244   4.319   4.571   9.428 -2.2155 -0.1159 -1.5591
  306MOL0     H41245   4.367   4.713   9.604  1.4873  0.6962 -2.7833
  306MOL0     H41246   4.447   4.557   9.630 -2.5034  0.0713  2.7584
  306MOL0     H41247   4.539   4.825   9.743  3.5690 -0.2136  3.2788
  306MOL0     H41248   4.616   4.666   9.784  1.4146  2.0430  1.1466
  306MOL0     H41249   4.464   4.786   9.955  0.6096 -2.5930  1.5703
  306MOL0     H41250   4.454   4.611   9.928  1.5410  0.4275  2.6678
  306MOL0     H41251   4.274   4.832   9.792  1.6905  1.0293  0.4455
  306MOL0     H41252   4.257   4.666   9.778  3.5738  0.9065 -2.6486
  306MOL0     H41253   4.186   4.645  10.036  1.1262  0.9425  2.0187
  306MOL0     H41254   4.242   4.810  10.054 -0.7841  0.6502  0.1340
  306MOL0     H41255   4.066   4.873   9.880 -0.7428 -0.5117 -1.0876
  306MOL0     H41256   3.991   4.717   9.911 -1.4592  2.4221  0.1727
  306MOL0     H41257   3.904   4.904  10.042 -1.5955 -2.7510  0.5918
  306MOL0     H41258   4.064   4.908  10.118  1.7477 -0.9067 -0.6091
  306MOL0     H41259   4.012   4.660  10.190 -1.3571 -1.8281  1.4308
  306MOL0     H41260   3.892   4.768  10.261 -0.2231 -0.6837 -0.1740
  306MOL0     H41261   3.729   4.840  10.025  3.5168 -0.0167  0.5957
  306MOL0     H41262   3.478   4.527   9.922 -1.4778  0.2777  1.9869
  306MOL0     H41263   3.421   4.669  10.011  0.2105  0.7725 -0.3028
  306MOL0     H41264   3.417   4.734   9.782  0.4791  0.1578  0.0704
  306MOL0     H41265   3.560   4.810   9.840 -0.1288 -0.8639  2.1355
  306MOL0     H41266   3.588   4.705   9.606  0.8851 -2.8684 -2.5040
  306MOL0     H41267   3.523   4.560   9.656  0.7909 -0.9934  1.0228
  306MOL0     H41268   3.705   4.510   9.802 -2.3398  0.9193  0.5550
  306MOL0     H41269   3.786   4.671   9.750 -1.7568  0.8471 -0.9532
  306MOL0     H41270   3.893   4.446   9.390  0.4578 -0.0718 -0.3875
  306MOL0     H41271   4.104   4.369   9.357 -1.5095 -1.2503 -0.3987
  306MOL0     H41272   4.507   4.212   9.259 -1.2526 -3.0366 -1.8456
  306MOL0     H41273   4.647   4.019   9.224  2.6818  1.9312 -0.1129
  306MOL0     H41274   4.784   3.841   9.230 -0.2821  2.1907 -0.9147
  306MOL0     H41275   4.924   3.936   9.301  2.0630 -2.1373  1.1308
  306MOL0     H41276   4.838   3.644   9.395  2.8176 -1.5842  1.5619
  306MOL0     H41277   4.926   3.666   9.263  0.5294 -0.2833  0.4814
  306MOL0     H41278   5.041   3.832   9.482 -0.2937  0.5399 -4.2003
  306MOL0     H41279   4.994   3.683   9.557  1.2200  1.7303  0.7884
  306MOL0     H41280   5.161   3.724   9.300 -1.5297  0.4509  0.9415
  306MOL0     H41281   5.164   3.572   9.389 -0.2706 -0.3217  1.9732
  306MOL0     H41282   5.283   3.824   9.491  2.3151 -0.4554  0.5196
  306MOL0     H41283   5.375   3.680   9.448  2.1900 -1.1811  4.5512
  306MOL0     H41284   5.366   3.730   9.682  0.3997  0.2896 -0.1098
  306MOL0     H41285   5.195   3.696   9.683 -0.9983 -3.4816  0.2492
  306MOL0     H41286   5.394   3.473   9.584 -0.9620 -2.0687 -1.7042
  306MOL0     H41287   5.221   3.471   9.622  2.2046 -1.1547  0.3575
  306MOL0     H41288   5.270   3.507   9.868 -0.7737  2.7449 -2.8649
  306MOL0     H41289   5.350   3.362   9.805  0.3830 -0.0607  1.1710
  306MOL0     H41290   4.627   3.929   9.641 -2.1187 -0.0320  0.8327
  306MOL0     H41291   4.430   4.083   9.667 -1.0055 -1.7041  0.1312
  306MOL0     H41292   4.194   4.411   9.789 -0.6971  1.3864 -0.0862
  306MOL0     H41293   3.969   4.506   9.817 -3.3307  1.4641 -0.0524
  306MOL0     H41294   4.694   4.755   9.325  0.6558  0.3192 -0.9893
  306MOL0     H41295   4.629   4.727   9.072 -0.8314  0.6566  0.0082
  306MOL0     H41296   4.291   4.509   8.814  0.4626 -1.5788 -1.0042
  306MOL0     H41297   4.224   4.439   8.593 -1.8774  0.1553  0.3657
  306MOL0     H41298   4.360   4.729   8.263  1.2060 -0.3578 -0.8857
  306MOL0     H41299   4.373   4.581   8.169  0.4495  1.3702 -0.6207
  306MOL0     H41300   4.593   4.680   8.341  2.8595 -0.3814 -0.9354
  306MOL0     H41301   4.586   4.642   8.174 -2.5503 -1.3113 -1.6571
  306MOL0     H41302   4.528   4.400   8.238 -1.3676  2.2176  0.1327
  306MOL0     H41303   4.549   4.431   8.399  0.9069 -3.8858 -1.9549
  306MOL0     H41304   4.739   4.341   8.301  2.6737  0.0101 -1.9863
  306MOL0     H41305   4.734   4.464   8.164  4.9797 -1.0906  0.0766
  306MOL0     H41306   4.940   4.686   8.432 -2.2788  1.1964  0.6265
  306MOL0     H41307   4.405   4.807   8.442 -1.2742  3.7858  2.5862
  306MOL0     H41308   4.547   4.887   8.733  2.7886  1.6929 -2.9551
  306MOL0     H41309   4.495   4.956   8.577 -0.8329 -0.4262 -0.0282
  306MOL0     H41310   4.411   5.006   8.710 -1.0108 -1.0665  0.2952
  307MOL0     O41311   3.204   8.635   8.553 -0.4771  0.5676  0.2476
  307MOL0     C41312   3.154   8.551   8.625 -0.2843  1.0797  0.6261
  307MOL0     O41313   3.186   8.531   8.751  0.4973  0.4748 -0.3782
  307MOL0     C41314   3.256   8.622   8.825  0.0391 -1.1763 -0.3767
  307MOL0     C41315   3.321   8.558   8.935 -0.1172  0.8709  0.7446
  307MOL0     C41316   3.388   8.633   9.032 -0.2283 -0.3428  0.2060
  307MOL0     C41317   3.387   8.775   9.027 -0.1572  0.2586  0.5234
  307MOL0     O41318   3.453   8.856   9.124  0.5625 -0.2188 -0.0450
  307MOL0     C41319   3.417   8.993   9.151  0.5141  0.5263  0.4266
  307MOL0     C41320   3.292   8.992   9.234 -0.5581 -1.1929  0.1617
  307MOL0     C41321   3.318   8.977   9.386  0.0046 -0.4113 -0.2128
  307MOL0     C41322   3.195   9.023   9.462  0.0144 -0.0599  0.7852
  307MOL0     C41323   3.223   8.973   9.608  0.2062 -0.1368  0.0413
  307MOL0     C41324   3.104   8.986   9.696  0.3645  0.1186 -0.8764
  307MOL0     C41325   3.066   9.139   9.732 -0.3167  0.3199  0.1402
  307MOL0     C41326   3.152   9.189   9.840 -0.6782 -0.7682 -0.2259
  307MOL0     N41327   3.095   9.178   9.969 -0.2303 -0.6677  0.1626
  307MOL0     C41328   3.011   9.259  10.032  0.2838 -0.4990  0.5661
  307MOL0     C41329   2.991   9.201  10.153 -0.2318 -1.2508  0.4711
  307MOL0     C41330   2.913   9.263  10.265 -0.0799 -0.0639  0.1088
  307MOL0     C41331   2.768   9.300  10.217 -0.0964 -0.0015 -0.1400
  307MOL0     C41332   2.677   9.339  10.340  0.0065 -0.7221 -0.1118
  307MOL0     C41333   2.716   9.473  10.416  0.2989  0.2568 -0.4935
  307MOL0     O41334   2.624   9.492  10.533 -0.3815 -0.1641  0.0570
  307MOL0     C41335   2.504   9.553  10.516  0.4533 -1.0381  0.0338
  307MOL0     C41336   2.426   9.576  10.633  0.0027  0.2858  1.0539
  307MOL0     C41337   2.306   9.640  10.635 -0.7907  0.1743 -1.2798
  307MOL0     C41338   2.244   9.681  10.516  0.6200 -0.1517 -0.4764
  307MOL0     C41339   2.110   9.745  10.519  0.8781  0.2335  0.8209
  307MOL0     O41340   2.031   9.750  10.627 -0.2216  0.1595  0.1645
  307MOL0     C41341   1.919   9.829  10.623 -0.5578 -0.4393 -0.1854
  307MOL0     C41342   1.810   9.779  10.686 -0.1666 -0.7067  0.6074
  307MOL0     C41343   1.690   9.848  10.684  0.2278 -1.0808 -0.1972
  307MOL0     C41344   1.694   9.987  10.642  0.1848  0.9803 -0.0414
  307MOL0     O41345   1.573  10.052  10.661  0.0901  0.2597 -0.6622
  307MOL0     C41346   1.571  10.177  10.606 -0.0565  0.0397  0.3936
  307MOL0     C41347   1.449  10.258  10.649 -0.5485 -0.4371 -0.1399
  307MOL0     C41348   1.461  10.317  10.792 -0.5752  0.5071 -0.8869
  307MOL0     C41349   1.446  10.209  10.911  0.6715  0.5803 -0.3687
  307MOL0     C41350   1.438  10.270  11.047  0.4553  0.4639  1.3542
  307MOL0     C41351   1.419  10.166  11.147  0.5403 -0.6614 -0.2922
  307MOL0     C41352   1.407  10.222  11.290 -0.1442  0.3831 -0.6260
  307MOL0     C41353   1.411  10.116  11.400 -0.5156  0.8636  0.1640
  307MOL0    Cl41354   1.289   9.995  11.405  0.3181 -0.1692 -0.0548
  307MOL0     C41355   1.815  10.039  10.588 -0.1301 -0.0267 -0.9304
  307MOL0     C41356   1.921   9.960  10.577 -0.5991 -0.3392 -0.5186
  307MOL0     O41357   2.076   9.785  10.410  0.3638 -0.2634 -0.0857
  307MOL0     C41358   2.316   9.667  10.388 -0.6096 -0.9688 -0.9090
  307MOL0     C41359   2.444   9.604  10.396 -0.2686  0.5669 -0.1949
  307MOL0     N41360   3.056   9.083  10.150  0.2238 -0.5782 -0.5483
  307MOL0     N41361   3.123   9.066  10.045 -0.0364  0.5929  1.1690
  307MOL0     C41362   3.302   8.832   8.934 -0.8201 -0.5890  0.1590
  307MOL0     C41363   3.246   8.762   8.824 -0.5577 -0.9452 -0.2328
  307MOL0     C41364   3.067   8.445   8.558 -0.1808 -0.1967 -0.8334
  307MOL0     C41365   3.016   8.346   8.648  0.1742 -0.9282  0.1794
  307MOL0     C41366   2.968   8.223   8.608  0.0440  0.1325 -1.3860
  307MOL0     C41367   2.960   8.195   8.476  0.3362 -0.1246  0.4660
  307MOL0     O41368   2.924   8.066   8.441 -0.2077  0.5366  0.6184
  307MOL0     C41369   2.847   8.059   8.315  0.0412 -0.6500  0.5257
  307MOL0     C41370   2.749   7.945   8.334  0.2426  0.6238  0.5062
  307MOL0     C41371   2.837   7.828   8.289  0.0797  0.0554 -1.0462
  307MOL0     C41372   2.808   7.788   8.142 -0.3980 -0.1018  0.4778
  307MOL0     C41373   2.810   7.889   8.047  0.3137 -0.6361  0.0578
  307MOL0     C41374   2.781   7.973   7.973  0.1195 -0.5063 -0.3284
  307MOL0     C41375   3.011   8.287   8.379 -0.6635 -0.2055 -1.4582
  307MOL0     C41376   3.074   8.404   8.419  0.4235  0.6384  0.2233
  307MOL0     C41377   3.121   8.499   8.309 -0.1634 -0.0787  0.7413
  307MOL0     H41378   3.325   8.452   8.958 -2.0044  0.8687  1.2904
  307MOL0     H41379   3.461   8.580   9.092  0.9431 -0.0885 -0.9505
  307MOL0     H41380   3.501   9.036   9.206  1.7343 -2.9080  1.5058
  307MOL0     H41381   3.382   9.041   9.059 -2.5084 -0.1016  1.1286
  307MOL0     H41382   3.217   8.923   9.192 -2.9259  0.6662  1.1267
  307MOL0     H41383   3.251   9.092   9.217  3.0134  0.2484 -0.7458
  307MOL0     H41384   3.398   9.047   9.410 -1.2164  1.0524 -0.2683
  307MOL0     H41385   3.352   8.875   9.407  1.1814 -0.0959 -0.5223
  307MOL0     H41386   3.178   9.130   9.446 -4.2033 -0.9319 -2.1256
  307MOL0     H41387   3.108   8.975   9.418  1.5860 -2.1882 -0.1499
  307MOL0     H41388   3.242   8.866   9.597  0.9908 -0.3947  2.9410
  307MOL0     H41389   3.311   9.015   9.659 -1.3485  0.6089  2.2891
  307MOL0     H41390   3.023   8.933   9.646  0.4618 -1.8430  0.9321
  307MOL0     H41391   3.128   8.927   9.784 -1.1346 -2.1640 -1.9019
  307MOL0     H41392   2.960   9.154   9.753 -1.3237  0.2925 -4.0709
  307MOL0     H41393   3.065   9.196   9.639 -5.2514 -1.6974 -1.3356
  307MOL0     H41394   3.240   9.124   9.840 -0.2025 -0.2772  3.0860
  307MOL0     H41395   3.171   9.296   9.826 -1.2852 -0.1228  3.1994
  307MOL0     H41396   2.976   9.358  10.007  0.3680 -0.8666 -1.1388
  307MOL0     H41397   2.894   9.203  10.354 -0.3376  0.9062  0.7311
  307MOL0     H41398   2.967   9.350  10.306  2.0337 -0.9872 -0.5725
  307MOL0     H41399   2.774   9.391  10.156 -0.1040  0.4368  0.5100
  307MOL0     H41400   2.712   9.220  10.168 -4.8987  1.6571  1.9740
  307MOL0     H41401   2.665   9.262  10.418 -2.2107 -0.1749  0.1347
  307MOL0     H41402   2.575   9.348  10.301 -1.0280 -2.8601  1.8246
  307MOL0     H41403   2.733   9.544  10.335  1.1334 -2.3031 -2.7150
  307MOL0     H41404   2.817   9.452  10.452  0.6318 -2.7231 -2.7398
  307MOL0     H41405   2.467   9.516  10.714 -2.2887 -3.1634 -0.0981
  307MOL0     H41406   2.240   9.645  10.721 -0.7764 -1.2848 -1.1669
  307MOL0     H41407   1.812   9.683  10.736  3.6663 -0.5764  1.0180
  307MOL0     H41408   1.593   9.819  10.724  0.2067 -0.9747 -0.1716
  307MOL0     H41409   1.663  10.231  10.627 -0.8003  1.2165  0.6973
  307MOL0     H41410   1.557  10.159  10.499 -3.9061 -1.1863  0.9238
  307MOL0     H41411   1.432  10.339  10.578 -0.4627 -0.6289 -0.3843
  307MOL0     H41412   1.358  10.197  10.641 -2.9908  3.0069 -0.6986
  307MOL0     H41413   1.555  10.372  10.797  0.0953 -0.6835  0.2315
  307MOL0     H41414   1.373  10.380  10.806 -2.0863 -1.2647 -1.9944
  307MOL0     H41415   1.540  10.152  10.918  0.2828 -0.1072 -0.6981
  307MOL0     H41416   1.363  10.141  10.890  0.6525  0.8216 -1.0873
  307MOL0     H41417   1.356  10.340  11.028 -1.1319 -1.8596 -1.1319
  307MOL0     H41418   1.529  10.330  11.059 -0.6237  2.2478  1.0148
  307MOL0     H41419   1.337  10.103  11.113  1.3067 -2.6914  1.3612
  307MOL0     H41420   1.507  10.101  11.136  1.1780  0.2450 -0.7516
  307MOL0     H41421   1.314  10.280  11.298  0.0119  0.6731 -0.8559
  307MOL0     H41422   1.488  10.295  11.302  0.1092  0.4799 -2.5774
  307MOL0     H41423   1.509  10.069  11.402 -0.9785 -0.2529 -1.3788
  307MOL0     H41424   1.410  10.174  11.492  0.1252  0.9887  0.0933
  307MOL0     H41425   1.840  10.139  10.554  0.6812  0.4415  0.8978
  307MOL0     H41426   2.003  10.003  10.520 -0.6176 -2.0132 -1.8688
  307MOL0     H41427   2.269   9.697  10.295  2.6243 -3.2009 -3.4870
  307MOL0     H41428   2.476   9.586  10.294 -1.1014 -1.9268 -0.0800
  307MOL0     H41429   3.299   8.939   8.912  2.8301 -0.4547 -0.3625
  307MOL0     H41430   3.189   8.811   8.746  0.6372 -2.1422 -1.9183
  307MOL0     H41431   3.011   8.361   8.756 -3.9244  4.4119 -0.2944
  307MOL0     H41432   2.930   8.153   8.682  0.9239  0.7997 -0.2794
  307MOL0     H41433   2.913   8.045   8.229 -0.6205 -1.9292  0.1884
  307MOL0     H41434   2.782   8.146   8.303  0.1299 -0.5296  0.9187
  307MOL0     H41435   2.654   7.955   8.281 -0.2832 -1.3097  1.0100
  307MOL0     H41436   2.725   7.939   8.440 -0.8086  0.1278  0.2499
  307MOL0     H41437   2.821   7.743   8.356 -1.3641  0.5630 -0.7150
  307MOL0     H41438   2.943   7.843   8.315 -0.1744  1.0244 -0.5157
  307MOL0     H41439   2.879   7.714   8.103 -1.0035  0.5509 -2.0880
  307MOL0     H41440   2.719   7.724   8.146  0.6137 -1.6996 -0.9775
  307MOL0     H41441   2.754   8.054   7.908 -0.5020 -1.0614 -0.7629
  307MOL0     H41442   3.015   8.259   8.274  1.5491 -0.8848 -1.2468
  307MOL0     H41443   3.064   8.592   8.313 -1.3492 -0.7716  0.2451
  307MOL0     H41444   3.227   8.524   8.295 -1.1103  2.9105 -2.8861
  307MOL0     H41445   3.083   8.468   8.211  1.5552 -0.7919  0.2521
  308MOL0     O41446   2.364   6.103   6.885  0.0785 -0.6408 -0.1043
  308MOL0     C41447   2.287   6.204   6.883 -0.4439 -1.2487 -0.0663
  308MOL0     O41448   2.324   6.332   6.864  0.0275 -0.0249 -0.5600
  308MOL0     C41449   2.450   6.362   6.823 -1.0388  0.5161  0.4834
  308MOL0     C41450   2.454   6.440   6.704  0.2164 -0.1929  0.0019
  308MOL0     C41451   2.576   6.470   6.653  0.6554  0.7610  0.8091
  308MOL0     C41452   2.698   6.431   6.712  0.9312  0.4973  0.1175
  308MOL0     O41453   2.826   6.459   6.659 -0.5635 -0.4171 -0.1178
  308MOL0     C41454   2.835   6.574   6.564 -0.1791  0.8329 -1.3625
  308MOL0     C41455   2.982   6.623   6.541  0.9347 -0.1529 -0.2008
  308MOL0     C41456   2.985   6.732   6.435 -0.3600 -0.9160  0.5581
  308MOL0     C41457   3.120   6.815   6.456 -0.1056  0.1356 -0.6042
  308MOL0     C41458   3.152   6.914   6.351  0.3960  0.4720 -0.4686
  308MOL0     C41459   3.101   7.054   6.398 -0.6789  0.1331  1.1071
  308MOL0     C41460   3.153   7.165   6.304  0.0882  0.2726 -0.2000
  308MOL0     C41461   3.084   7.298   6.343  0.1714 -0.5353 -0.0379
  308MOL0     N41462   2.962   7.334   6.268  0.0392 -0.0977  0.3153
  308MOL0     C41463   2.845   7.266   6.268  0.7988  0.1723  0.5420
  308MOL0     C41464   2.778   7.288   6.152  0.3696 -0.6348 -0.9400
  308MOL0     C41465   2.656   7.220   6.109  0.8161 -0.0306 -1.7005
  308MOL0     C41466   2.535   7.290   6.165  0.2983 -0.4173  0.2413
  308MOL0     C41467   2.475   7.407   6.082 -0.0017 -0.2979 -0.1913
  308MOL0     C41468   2.490   7.387   5.919 -0.2165 -0.5445 -0.0363
  308MOL0     O41469   2.446   7.261   5.873 -0.0183  0.2775  0.0356
  308MOL0     C41470   2.320   7.270   5.822  1.1627  0.2636 -0.4720
  308MOL0     C41471   2.283   7.335   5.702 -0.0410 -0.5051 -0.1183
  308MOL0     C41472   2.152   7.349   5.656  0.6584 -0.3310 -0.3739
  308MOL0     C41473   2.043   7.287   5.720 -0.8772 -0.0218 -0.5907
  308MOL0     C41474   1.911   7.277   5.663 -0.4490  0.3975  0.1783
  308MOL0     O41475   1.879   7.384   5.570  0.8977  0.9345  0.3230
  308MOL0     C41476   1.751   7.395   5.529 -0.0406 -0.3267  0.2057
  308MOL0     C41477   1.636   7.413   5.606 -0.7308 -0.0590  0.4482
  308MOL0     C41478   1.504   7.415   5.542 -0.9839  0.1357 -0.7916
  308MOL0     C41479   1.496   7.386   5.406 -0.5706 -0.5668 -0.0696
  308MOL0     O41480   1.380   7.376   5.341  0.4934 -0.2399  0.5815
  308MOL0     C41481   1.364   7.254   5.257 -0.7253 -0.5006 -0.2366
  308MOL0     C41482   1.213   7.243   5.207  0.2963 -0.1259 -0.2833
  308MOL0     C41483   1.109   7.287   5.317 -0.8924 -0.3030 -0.5176
  308MOL0     C41484   1.072   7.439   5.297 -0.4654  0.4407  0.1176
  308MOL0     C41485   0.962   7.475   5.404  0.2656 -0.2842  0.0052
  308MOL0     C41486   0.900   7.607   5.389  0.2089  0.3494  0.4625
  308MOL0     C41487   0.762   7.589   5.330 -0.1425 -0.2318  0.0512
  308MOL0     C41488   0.688   7.719   5.308 -0.0933  0.1289  0.7787
  308MOL0    Cl41489   0.539   7.678   5.212  0.2933  0.3416 -0.2941
  308MOL0     C41490   1.615   7.374   5.332 -0.4227 -0.6361  0.1250
  308MOL0     C41491   1.735   7.381   5.395 -0.0444  0.4564  0.8836
  308MOL0     O41492   1.834   7.193   5.711  0.3560  0.6039  0.5385
  308MOL0     C41493   2.077   7.217   5.837 -0.0703 -0.1355  0.5236
  308MOL0     C41494   2.209   7.220   5.889 -0.5354  0.9839  0.4515
  308MOL0     N41495   2.841   7.393   6.096 -0.3977 -0.0697  1.0702
  308MOL0     N41496   2.959   7.410   6.150  0.5446  0.2745 -0.3038
  308MOL0     C41497   2.686   6.359   6.825 -1.1289  0.4626 -0.4002
  308MOL0     C41498   2.568   6.339   6.888  0.7276 -0.3891 -1.1424
  308MOL0     C41499   2.144   6.186   6.900 -0.7813  0.9248  0.6832
  308MOL0     C41500   2.064   6.283   6.849  1.0538 -0.5551 -0.5676
  308MOL0     C41501   1.926   6.275   6.848  0.4525  0.5875 -0.4688
  308MOL0     C41502   1.859   6.164   6.904 -0.7689 -0.1568  0.6355
  308MOL0     O41503   1.726   6.160   6.930 -0.5578 -0.2806  1.0696
  308MOL0     C41504   1.662   6.038   6.965  0.2418 -0.8234 -0.3555
  308MOL0     C41505   1.515   6.041   6.932  0.4638 -1.0126  0.8167
  308MOL0     C41506   1.451   6.166   6.988 -0.3423  0.8689 -0.4100
  308MOL0     C41507   1.460   6.168   7.149  0.0233  0.3522  0.1194
  308MOL0     C41508   1.393   6.049   7.213 -0.0608 -0.6137  0.5490
  308MOL0     C41509   1.372   5.954   7.285 -0.1246 -0.1909  0.2432
  308MOL0     C41510   1.947   6.065   6.965  0.0579  0.1183 -0.3790
  308MOL0     C41511   2.089   6.074   6.960  0.6787  0.4679 -0.4940
  308MOL0     C41512   2.162   5.961   7.040 -0.5716 -0.7270  0.2785
  308MOL0     H41513   2.362   6.469   6.653 -0.8477 -1.9340  0.8159
  308MOL0     H41514   2.569   6.521   6.557 -2.7092 -2.8278 -1.1566
  308MOL0     H41515   2.794   6.534   6.471 -2.6404  2.0529 -0.8957
  308MOL0     H41516   2.768   6.655   6.594 -2.7769 -1.5125 -0.4057
  308MOL0     H41517   3.036   6.533   6.512 -0.9180 -0.7170 -2.2636
  308MOL0     H41518   3.019   6.662   6.636 -2.4351 -1.6964  1.9188
  308MOL0     H41519   2.907   6.805   6.461  1.3488  0.6755  1.5117
  308MOL0     H41520   2.975   6.688   6.335 -0.8474 -1.4182  0.8220
  308MOL0     H41521   3.112   6.865   6.553 -0.1374 -0.1439 -0.4610
  308MOL0     H41522   3.204   6.748   6.477 -1.7768 -1.4734  1.4362
  308MOL0     H41523   3.261   6.920   6.342  0.7876 -2.4891  0.9560
  308MOL0     H41524   3.106   6.889   6.255  0.1705 -0.3376 -0.1612
  308MOL0     H41525   2.992   7.050   6.394 -0.6838  1.0253 -0.4215
  308MOL0     H41526   3.142   7.072   6.498  1.7355  2.2446 -0.1545
  308MOL0     H41527   3.146   7.147   6.196  0.1134  1.1310 -0.3500
  308MOL0     H41528   3.254   7.192   6.336 -0.3736  1.6158  0.1893
  308MOL0     H41529   3.062   7.292   6.450 -1.9349  1.7138 -0.2468
  308MOL0     H41530   3.158   7.378   6.332  0.9235 -1.1472  0.5141
  308MOL0     H41531   2.805   7.194   6.339  1.3421 -0.1386  0.5407
  308MOL0     H41532   2.652   7.224   5.999  3.8576  0.3964 -1.8670
  308MOL0     H41533   2.662   7.118   6.148 -0.2359  0.1995 -0.8918
  308MOL0     H41534   2.463   7.207   6.171  0.6714 -1.0909 -2.8334
  308MOL0     H41535   2.555   7.327   6.266  0.8594  4.6252 -1.4745
  308MOL0     H41536   2.516   7.504   6.113 -1.6530 -0.2751  2.1773
  308MOL0     H41537   2.367   7.402   6.098  0.3025  0.1386  2.5762
  308MOL0     H41538   2.596   7.393   5.893 -0.7009 -0.4185 -2.1291
  308MOL0     H41539   2.442   7.473   5.873  1.6598  0.2474 -0.6314
  308MOL0     H41540   2.347   7.398   5.641 -2.6734  1.1709 -1.3427
  308MOL0     H41541   2.127   7.392   5.560  0.1738  0.2665  0.0170
  308MOL0     H41542   1.643   7.429   5.713 -1.6608 -0.8923  0.6430
  308MOL0     H41543   1.409   7.429   5.592 -1.2608 -1.7649 -0.6874
  308MOL0     H41544   1.433   7.250   5.173  0.6536  1.3963  0.7231
  308MOL0     H41545   1.397   7.164   5.310 -2.1070 -0.1750  1.2701
  308MOL0     H41546   1.200   7.307   5.118  0.2056  0.0375 -0.1534
  308MOL0     H41547   1.191   7.139   5.180  1.0588 -0.3065 -0.2093
  308MOL0     H41548   1.023   7.219   5.317  2.0773 -4.4212 -1.4302
  308MOL0     H41549   1.160   7.281   5.413 -0.4943  0.7077 -0.6550
  308MOL0     H41550   1.021   7.444   5.200  1.0246 -0.1211 -0.7219
  308MOL0     H41551   1.161   7.503   5.300  1.6311 -2.2447 -0.7245
  308MOL0     H41552   1.014   7.465   5.500  0.8865 -2.3142 -0.4756
  308MOL0     H41553   0.886   7.396   5.405 -1.9933  1.7806 -0.4226
  308MOL0     H41554   0.882   7.662   5.482 -0.1127  0.3214  0.4176
  308MOL0     H41555   0.961   7.676   5.330  1.8420 -0.5470  1.0522
  308MOL0     H41556   0.696   7.533   5.397 -2.5374  0.8658 -1.2865
  308MOL0     H41557   0.764   7.534   5.236 -3.1560  1.3197 -1.0640
  308MOL0     H41558   0.655   7.769   5.399  1.5603 -1.2564  2.2249
  308MOL0     H41559   0.749   7.793   5.257  0.2533  1.0622  2.4701
  308MOL0     H41560   1.614   7.369   5.224 -0.1137  0.6990  0.0462
  308MOL0     H41561   1.815   7.356   5.326 -0.2782 -2.2409  1.4901
  308MOL0     H41562   1.995   7.168   5.888 -0.7779  1.1096  0.6196
  308MOL0     H41563   2.215   7.161   5.980  3.9821  0.5007  0.0584
  308MOL0     H41564   2.774   6.328   6.881  0.1915  3.4878 -0.5827
  308MOL0     H41565   2.565   6.294   6.987  2.8742 -2.0796 -1.7860
  308MOL0     H41566   2.100   6.368   6.792 -1.1296  0.7553 -0.0827
  308MOL0     H41567   1.856   6.348   6.808 -2.3656 -0.8132  1.5535
  308MOL0     H41568   1.669   6.002   7.068 -0.3273 -2.0947 -0.7526
  308MOL0     H41569   1.698   5.956   6.902 -1.7819 -0.7537 -1.7126
  308MOL0     H41570   1.473   5.943   6.958  1.0411 -2.0853 -1.9785
  308MOL0     H41571   1.496   6.050   6.824  2.7033 -1.7989  0.3131
  308MOL0     H41572   1.347   6.163   6.954 -0.7990  1.4924  0.8722
  308MOL0     H41573   1.489   6.262   6.950 -3.8464  2.0877 -1.2568
  308MOL0     H41574   1.565   6.186   7.173  1.1336 -0.6631 -3.4304
  308MOL0     H41575   1.411   6.259   7.187 -1.8524 -0.3744 -0.4389
  308MOL0     H41576   1.351   5.865   7.340 -1.7672 -0.2383 -0.4001
  308MOL0     H41577   1.907   5.974   7.010  0.2326  1.2780  2.3035
  308MOL0     H41578   2.088   5.908   7.100 -0.9093 -0.2553  0.2795
  308MOL0     H41579   2.217   5.899   6.969  0.2269  2.7655 -2.4347
  308MOL0     H41580   2.237   6.003   7.108  0.8622 -2.6816  0.0075
  309MOL0     O41581   4.330   0.812   9.184 -0.0445  0.1869  0.5602
  309MOL0     C41582   4.331   0.760   9.293  0.5485 -0.4067  0.4765
  309MOL0     O41583   4.446   0.736   9.358  0.0260  1.0883  0.0788
  309MOL0     C41584   4.558   0.757   9.292 -0.7980  0.2906 -0.0477
  309MOL0     C41585   4.625   0.657   9.228  0.3642  0.2353 -0.8065
  309MOL0     C41586   4.736   0.685   9.161  0.4204  0.8201 -0.2380
  309MOL0     C41587   4.787   0.814   9.139  1.0142 -0.8644  0.6966
  309MOL0     O41588   4.891   0.841   9.057  0.5343  0.0960  0.2655
  309MOL0     C41589   4.890   0.964   8.977  0.2559 -0.2683  0.6698
  309MOL0     C41590   4.961   0.932   8.841 -0.4756 -0.1792 -0.5660
  309MOL0     C41591   5.108   0.917   8.863  0.0720  0.1578 -0.5426
  309MOL0     C41592   5.192   0.925   8.738 -0.7398 -0.1515  0.3650
  309MOL0     C41593   5.337   0.954   8.774  0.6814 -0.4910  1.1149
  309MOL0     C41594   5.418   0.971   8.648  0.2579 -0.2144  0.8294
  309MOL0     C41595   5.565   0.991   8.702  0.1608  0.5315 -0.0659
  309MOL0     C41596   5.664   1.011   8.586  0.8869  0.5028 -0.7691
  309MOL0     N41597   5.642   1.147   8.527 -0.1837  0.2397 -0.1484
  309MOL0     C41598   5.644   1.266   8.586 -0.4739 -0.7403  0.4630
  309MOL0     C41599   5.623   1.363   8.491 -0.8174 -0.2525 -0.7541
  309MOL0     C41600   5.634   1.516   8.522 -0.3157  0.3660 -0.3114
  309MOL0     C41601   5.522   1.546   8.616  1.0038  0.1630 -0.0719
  309MOL0     C41602   5.382   1.494   8.565  0.3878 -0.6777 -0.4714
  309MOL0     C41603   5.323   1.394   8.650 -0.6810 -0.0317 -0.2559
  309MOL0     O41604   5.194   1.374   8.592  0.1598  0.6579 -0.8934
  309MOL0     C41605   5.085   1.332   8.673  0.6433 -1.1904  0.2105
  309MOL0     C41606   5.109   1.286   8.806 -0.1011  0.0153 -0.0409
  309MOL0     C41607   4.996   1.277   8.882  0.9861 -0.1535  0.0454
  309MOL0     C41608   4.861   1.299   8.836 -0.6771  0.3862 -0.1535
  309MOL0     C41609   4.754   1.295   8.927 -0.2782 -0.6637 -0.0433
  309MOL0     O41610   4.631   1.302   8.867  0.7589  0.1651  0.1262
  309MOL0     C41611   4.528   1.282   8.953 -0.0167 -0.2189 -0.1017
  309MOL0     C41612   4.507   1.154   9.015  0.0658  1.0290 -0.2592
  309MOL0     C41613   4.407   1.132   9.110 -0.1681  0.5800  0.2617
  309MOL0     C41614   4.320   1.235   9.142 -0.2540  0.5524  0.3687
  309MOL0     O41615   4.220   1.224   9.232  0.8064  0.2173  0.6943
  309MOL0     C41616   4.199   1.101   9.306 -0.6063 -0.0736  0.0814
  309MOL0     C41617   4.073   1.122   9.393 -0.3592 -0.4366  0.7169
  309MOL0     C41618   3.946   1.113   9.311  0.3345 -0.0146 -0.5166
  309MOL0     C41619   3.829   1.180   9.385  0.4249  0.3733 -0.0507
  309MOL0     C41620   3.710   1.185   9.296  0.3421  0.1406 -0.4535
  309MOL0     C41621   3.649   1.043   9.274 -0.5552 -0.3175  0.1928
  309MOL0     C41622   3.522   1.037   9.197 -0.5360 -0.0789  0.0911
  309MOL0     C41623   3.467   0.904   9.181  0.0961 -0.2627 -0.1356
  309MOL0    Cl41624   3.409   0.823   9.334 -0.4740  0.1049  0.3583
  309MOL0     C41625   4.344   1.364   9.091 -0.0652  0.1727  0.0886
  309MOL0     C41626   4.447   1.391   8.999  0.3676  0.6603  1.1581
  309MOL0     O41627   4.778   1.286   9.041 -0.4271 -0.3360 -0.9388
  309MOL0     C41628   4.846   1.314   8.699  0.5184  0.2193 -0.9096
  309MOL0     C41629   4.956   1.336   8.618 -0.0842  0.1072  0.4712
  309MOL0     N41630   5.595   1.301   8.368  0.9847  1.3160 -0.2475
  309MOL0     N41631   5.610   1.175   8.397 -0.3914  0.0781  0.7725
  309MOL0     C41632   4.719   0.917   9.208 -0.5428  0.7662  0.1763
  309MOL0     C41633   4.608   0.891   9.284  0.4136  0.5922 -0.4128
  309MOL0     C41634   4.204   0.752   9.375 -0.0367  0.4921 -0.1340
  309MOL0     C41635   4.218   0.740   9.509  0.4123  0.8138 -0.4883
  309MOL0     C41636   4.104   0.758   9.598 -0.4349  0.7716  0.2057
  309MOL0     C41637   3.976   0.767   9.537  0.2546 -0.3770 -0.2048
  309MOL0     O41638   3.883   0.798   9.621 -0.1178  0.3142 -0.1604
  309MOL0     C41639   3.750   0.824   9.578  0.5832  0.3048  0.2196
  309MOL0     C41640   3.655   0.869   9.684 -0.6642 -1.4713  0.5794
  309MOL0     C41641   3.719   0.922   9.812 -0.8886  0.5242  0.2350
  309MOL0     C41642   3.645   1.024   9.903 -0.0066  0.2324  0.1838
  309MOL0     C41643   3.501   1.007   9.883  0.2515  0.5165  0.5941
  309MOL0     C41644   3.387   0.973   9.851  0.2654  1.4299 -0.0763
  309MOL0     C41645   3.966   0.751   9.403  0.2227 -0.7158  0.0792
  309MOL0     C41646   4.076   0.746   9.321 -0.6739  0.2870 -0.3824
  309MOL0     C41647   4.049   0.741   9.172  0.5285 -0.2992  0.8667
  309MOL0     H41648   4.575   0.562   9.214  0.8265  0.2622 -2.9996
  309MOL0     H41649   4.782   0.605   9.103 -1.5277 -2.9496  2.9200
  309MOL0     H41650   4.787   0.998   8.962  0.8391  1.1379 -0.3251
  309MOL0     H41651   4.945   1.046   9.022 -1.0126  1.8667 -1.4532
  309MOL0     H41652   4.953   1.013   8.768  3.1942  0.3889 -0.4978
  309MOL0     H41653   4.911   0.840   8.809  0.9580 -0.9122 -0.7379
  309MOL0     H41654   5.125   0.822   8.914  0.1488  0.3293 -0.2490
  309MOL0     H41655   5.144   0.996   8.930 -0.0268 -0.4627  0.2483
  309MOL0     H41656   5.193   0.824   8.697 -2.0077 -1.1471  2.5962
  309MOL0     H41657   5.138   1.002   8.681 -1.2665 -0.0001  1.0498
  309MOL0     H41658   5.337   1.044   8.836 -0.3088 -0.9389  1.7848
  309MOL0     H41659   5.388   0.876   8.832  2.3549 -1.8489 -1.9307
  309MOL0     H41660   5.414   0.895   8.570  1.1240  0.4200  0.1390
  309MOL0     H41661   5.383   1.065   8.604  2.2295  0.5804  0.8265
  309MOL0     H41662   5.591   0.899   8.755  2.7900  1.0840 -0.2636
  309MOL0     H41663   5.566   1.081   8.764  0.0898 -0.9188  2.1680
  309MOL0     H41664   5.767   0.992   8.619  0.9222 -2.1738 -2.1859
  309MOL0     H41665   5.656   0.930   8.514  0.4961 -1.7598  1.6671
  309MOL0     H41666   5.655   1.290   8.692 -0.5246  0.9616  0.1229
  309MOL0     H41667   5.730   1.543   8.567  0.0336  0.5423 -1.1585
  309MOL0     H41668   5.639   1.557   8.421 -2.5661 -3.2990 -2.1357
  309MOL0     H41669   5.545   1.498   8.711  1.3155 -2.9855 -1.6087
  309MOL0     H41670   5.495   1.649   8.642 -4.6992 -0.2228 -2.8250
  309MOL0     H41671   5.381   1.471   8.458 -1.1639  3.6411 -1.5866
  309MOL0     H41672   5.317   1.581   8.581  2.6236  0.5308  3.4148
  309MOL0     H41673   5.333   1.417   8.756  1.6297  1.2356 -0.6943
  309MOL0     H41674   5.377   1.299   8.648 -2.2169 -0.9481  0.1978
  309MOL0     H41675   5.206   1.283   8.854  1.6378  4.6760 -2.6648
  309MOL0     H41676   5.019   1.270   8.988 -2.9238 -1.0995  1.0039
  309MOL0     H41677   4.567   1.073   8.976 -0.5796  0.9043 -1.0226
  309MOL0     H41678   4.403   1.030   9.146  2.2370 -0.3920 -1.8303
  309MOL0     H41679   4.181   1.019   9.236 -4.3394 -1.2036  2.0987
  309MOL0     H41680   4.285   1.080   9.370  1.9964  1.9491 -2.4524
  309MOL0     H41681   4.077   1.049   9.475  0.2550 -0.3746  0.7453
  309MOL0     H41682   4.080   1.220   9.440  0.4312  0.1535 -0.5830
  309MOL0     H41683   3.964   1.160   9.214 -1.3730 -1.8421 -1.8285
  309MOL0     H41684   3.926   1.005   9.304 -1.3653  0.2021  0.3379
  309MOL0     H41685   3.849   1.282   9.418  1.1669 -0.0935  1.0092
  309MOL0     H41686   3.806   1.134   9.482  1.9447 -1.4562 -0.4946
  309MOL0     H41687   3.745   1.219   9.198 -0.3531  0.1181 -0.7149
  309MOL0     H41688   3.635   1.252   9.337  1.3597  1.2028 -0.2842
  309MOL0     H41689   3.729   0.990   9.221  0.2065  0.9128  0.0559
  309MOL0     H41690   3.629   0.997   9.371  1.5874  1.2258  1.4509
  309MOL0     H41691   3.548   1.079   9.100  0.4829 -0.2683  0.2608
  309MOL0     H41692   3.448   1.105   9.239 -1.4842 -1.5387  0.8526
  309MOL0     H41693   3.382   0.929   9.117  1.0533 -1.9424 -2.1703
  309MOL0     H41694   3.540   0.838   9.133  0.4255 -0.6176  0.8149
  309MOL0     H41695   4.288   1.449   9.128 -0.6491 -0.2951  0.3034
  309MOL0     H41696   4.458   1.493   8.964  2.2829  0.2470  0.4103
  309MOL0     H41697   4.746   1.325   8.660  0.2497  0.0700 -0.2693
  309MOL0     H41698   4.936   1.367   8.516 -2.5538  0.2022  0.9348
  309MOL0     H41699   4.765   1.015   9.210 -0.4637  0.7409 -0.3265
  309MOL0     H41700   4.572   0.975   9.343  1.3141  0.9357 -0.3240
  309MOL0     H41701   4.313   0.754   9.561  0.3982  1.4552 -0.6260
  309MOL0     H41702   4.123   0.771   9.704 -1.5505  2.4005  0.2560
  309MOL0     H41703   3.715   0.738   9.521  0.5531  0.2961  0.2503
  309MOL0     H41704   3.752   0.905   9.504 -1.1798  0.8093  0.6845
  309MOL0     H41705   3.603   0.774   9.702  1.0882 -2.7327 -0.6238
  309MOL0     H41706   3.583   0.936   9.636  0.7515 -1.4221 -1.6554
  309MOL0     H41707   3.809   0.973   9.778 -1.0795  1.3140  0.8805
  309MOL0     H41708   3.742   0.828   9.863 -4.0340 -1.7397 -2.0713
  309MOL0     H41709   3.670   1.010  10.008  1.6559 -0.1350 -0.2260
  309MOL0     H41710   3.679   1.125   9.878 -0.2207  0.4916  0.9372
  309MOL0     H41711   3.284   0.954   9.830  0.2031  2.2130 -0.5130
  309MOL0     H41712   3.865   0.756   9.363 -1.4578 -1.3476  3.8059
  309MOL0     H41713   3.964   0.672   9.174  0.7530 -0.6396  3.7838
  309MOL0     H41714   4.025   0.830   9.114  1.5302 -0.2901  0.4414
  309MOL0     H41715   4.126   0.692   9.112  1.2111  0.9074  0.7270
  310MOL0     O41716   1.171  11.445   0.176  0.2158  0.2250  0.5701
  310MOL0     C41717   1.261  11.436   0.264  0.0798  0.0453 -0.0465
  310MOL0     O41718   1.242  11.416   0.399 -0.3968  0.2493 -0.0537
  310MOL0     C41719   1.117  11.399   0.453  1.5363 -0.8056 -0.4698
  310MOL0     C41720   1.035  11.297   0.407  0.8571 -0.3974 -0.1616
  310MOL0     C41721   0.917  11.275   0.479 -0.5045  1.0094  0.3260
  310MOL0     C41722   0.876  11.357   0.587  0.7208  0.1518  1.0677
  310MOL0     O41723   0.758  11.320   0.653  0.2274  0.0985  0.4759
  310MOL0     C41724   0.695  11.418   0.739 -0.0947 -0.0724 -0.3449
  310MOL0     C41725   0.556  11.390   0.786 -0.8242  0.1085  0.2823
  310MOL0     C41726   0.468  11.503   0.842  0.2613  0.3679  0.0249
  310MOL0     C41727   0.485  11.527   0.996 -0.7101 -0.0239  0.0946
  310MOL0     C41728   0.396  11.635   1.047  0.0549  0.2131  0.0094
  310MOL0     C41729   0.442  11.769   0.994 -0.7020 -0.4730 -0.7048
  310MOL0     C41730   0.375  11.891   1.052 -0.3954  0.1012  0.2804
  310MOL0     C41731   0.404  12.017   0.964 -0.4364  0.9018  0.7418
  310MOL0     N41732   0.544  12.041   0.942  0.5643  0.0646 -0.3265
  310MOL0     C41733   0.626  12.103   1.036 -0.5057 -0.5832 -0.4115
  310MOL0     C41734   0.746  12.106   0.975  0.2523 -0.1297  0.4815
  310MOL0     C41735   0.875  12.170   1.024  0.5040 -0.5678  0.3900
  310MOL0     C41736   0.850  12.318   1.053 -0.3609 -1.3436  1.2325
  310MOL0     C41737   0.789  12.389   0.934  0.2705 -0.4930 -0.0173
  310MOL0     C41738   0.797  12.550   0.941  0.3783 -0.2220 -0.0019
  310MOL0     O41739   0.725  12.629   1.044  0.2934 -0.9530  0.1895
  310MOL0     C41740   0.715  12.579   1.166 -0.1782  0.6435 -0.3524
  310MOL0     C41741   0.606  12.514   1.207  0.2919 -0.1064 -0.4103
  310MOL0     C41742   0.582  12.470   1.339 -0.2591 -0.0957  0.0192
  310MOL0     C41743   0.683  12.494   1.433 -0.1301 -0.2518 -0.9496
  310MOL0     C41744   0.666  12.467   1.575  0.7330  0.8126 -0.7635
  310MOL0     O41745   0.717  12.555   1.673  0.4875  0.3497 -0.0698
  310MOL0     C41746   0.692  12.522   1.798  1.4707  0.3329  0.0441
  310MOL0     C41747   0.579  12.572   1.867  0.8432  0.4830 -0.6712
  310MOL0     C41748   0.545  12.530   2.006  0.4145  0.3362  1.0051
  310MOL0     C41749   0.642  12.447   2.070 -0.2758  0.1985  0.7042
  310MOL0     O41750   0.621  12.385   2.191  0.1690 -0.0867  0.1627
  310MOL0     C41751   0.507  12.436   2.264  0.1433  0.3757  0.8367
  310MOL0     C41752   0.505  12.377   2.411  0.0399  1.1504 -0.1734
  310MOL0     C41753   0.622  12.404   2.507 -0.2545 -0.0106  0.8601
  310MOL0     C41754   0.570  12.438   2.646 -0.1614  0.2776 -0.5703
  310MOL0     C41755   0.683  12.476   2.755  0.1148 -1.0879  0.1089
  310MOL0     C41756   0.620  12.475   2.895  0.4620 -0.4039  0.1193
  310MOL0     C41757   0.730  12.484   3.011  0.0200 -0.4922  0.4756
  310MOL0     C41758   0.671  12.438   3.140  0.5075 -0.7794 -0.1786
  310MOL0    Cl41759   0.794  12.461   3.273  0.3156  0.0528  0.2036
  310MOL0     C41760   0.754  12.400   1.993  0.6056 -0.3263 -0.6773
  310MOL0     C41761   0.773  12.433   1.860  0.1094 -0.8841  0.1057
  310MOL0     O41762   0.582  12.382   1.606  0.1892  0.3514 -0.0262
  310MOL0     C41763   0.805  12.562   1.391  0.3538  0.3193 -0.4280
  310MOL0     C41764   0.814  12.600   1.263 -0.3522 -0.4184 -0.2908
  310MOL0     N41765   0.730  12.043   0.848 -0.7007  0.2643  0.1328
  310MOL0     N41766   0.608  12.001   0.832  0.2262 -0.3081 -0.5614
  310MOL0     C41767   0.961  11.455   0.634  0.3618 -0.2826  0.5714
  310MOL0     C41768   1.086  11.473   0.570  0.5953 -0.5657  0.5306
  310MOL0     C41769   1.404  11.462   0.219  0.8306 -0.0244 -0.1672
  310MOL0     C41770   1.500  11.482   0.319 -0.5243 -0.5870 -0.1389
  310MOL0     C41771   1.631  11.512   0.290 -0.2922  1.6336 -0.3247
  310MOL0     C41772   1.670  11.532   0.153  0.4594 -0.2183  0.1246
  310MOL0     O41773   1.787  11.587   0.112  0.6053 -0.0442 -0.0617
  310MOL0     C41774   1.889  11.613   0.206 -0.0205 -0.6145 -0.0277
  310MOL0     C41775   1.958  11.735   0.160 -0.1197  0.0616 -0.1857
  310MOL0     C41776   2.027  11.725   0.019  0.6530  0.1942 -0.0077
  310MOL0     C41777   1.966  11.829  -0.074 -1.1394  0.8346 -0.0978
  310MOL0     C41778   1.999  11.957  -0.023 -1.1803  0.3431 -0.2876
  310MOL0     C41779   2.024  12.064   0.038  0.3825  0.9941  0.5067
  310MOL0     C41780   1.578  11.512   0.055  0.8617  0.6413  0.2009
  310MOL0     C41781   1.448  11.474   0.081 -0.5172  1.0326  0.5515
  310MOL0     C41782   1.358  11.445  -0.034 -0.0901  0.8083 -0.7515
  310MOL0     H41783   1.057  11.222   0.332  2.3335  1.7731 -2.0171
  310MOL0     H41784   0.852  11.192   0.456  0.5431  0.8466 -2.3442
  310MOL0     H41785   0.746  11.449   0.830 -2.0696  0.1786  0.7382
  310MOL0     H41786   0.694  11.508   0.676  0.1209 -0.0364 -0.2958
  310MOL0     H41787   0.557  11.308   0.858 -2.3547 -0.1076  0.0905
  310MOL0     H41788   0.508  11.356   0.693  0.5614  0.6222 -0.6668
  310MOL0     H41789   0.361  11.482   0.835 -0.0825  0.4463  3.2619
  310MOL0     H41790   0.482  11.595   0.786  2.0945  1.0988  1.5425
  310MOL0     H41791   0.465  11.431   1.044  2.9041 -0.9651  0.0453
  310MOL0     H41792   0.590  11.537   1.027 -0.9255 -1.4565  1.3928
  310MOL0     H41793   0.292  11.612   1.022  0.6858 -0.5019 -2.1836
  310MOL0     H41794   0.397  11.631   1.156  1.7526 -2.0339 -0.0105
  310MOL0     H41795   0.552  11.767   0.996 -0.6562  1.1362  0.7835
  310MOL0     H41796   0.409  11.770   0.890 -0.5749  1.9745 -0.7838
  310MOL0     H41797   0.404  11.913   1.155  0.8666  1.3132 -0.2976
  310MOL0     H41798   0.267  11.875   1.042 -0.3237 -3.7547  3.2317
  310MOL0     H41799   0.362  12.012   0.863 -0.0890 -0.4458  0.6415
  310MOL0     H41800   0.363  12.100   1.022 -1.8523 -0.5222  1.8642
  310MOL0     H41801   0.610  12.157   1.128  2.9073 -0.5352  0.2786
  310MOL0     H41802   0.903  12.125   1.119 -0.6718  1.2931  1.6844
  310MOL0     H41803   0.946  12.145   0.945  4.0512 -0.9732  3.4756
  310MOL0     H41804   0.784  12.332   1.139 -0.3518  1.1253  0.9228
  310MOL0     H41805   0.939  12.372   1.088 -2.5405  1.4919  2.7981
  310MOL0     H41806   0.681  12.375   0.924  0.7124 -3.5180 -1.5393
  310MOL0     H41807   0.843  12.359   0.844  2.3367  1.4526  0.4695
  310MOL0     H41808   0.763  12.571   0.840  0.8947 -0.8959 -0.3246
  310MOL0     H41809   0.904  12.572   0.952  1.2551 -2.4875 -2.9006
  310MOL0     H41810   0.526  12.485   1.139 -1.3753 -0.4087  1.5679
  310MOL0     H41811   0.484  12.435   1.371  0.0329 -1.0571 -0.1187
  310MOL0     H41812   0.513  12.632   1.804 -0.2427  0.2771  0.2403
  310MOL0     H41813   0.451  12.563   2.047 -1.6187  1.1763 -3.6429
  310MOL0     H41814   0.516  12.545   2.255  0.5615  0.1620 -2.2942
  310MOL0     H41815   0.412  12.407   2.220  1.1157  0.2679 -1.3008
  310MOL0     H41816   0.413  12.421   2.451  0.2711  4.0995 -2.5062
  310MOL0     H41817   0.492  12.268   2.409 -2.5072  1.3961 -1.3039
  310MOL0     H41818   0.685  12.314   2.508  2.0374  1.1183 -5.1669
  310MOL0     H41819   0.684  12.483   2.465 -1.1361 -0.7688 -2.0976
  310MOL0     H41820   0.530  12.345   2.687 -1.2607  2.3944  3.7129
  310MOL0     H41821   0.486  12.508   2.653 -1.1418 -1.0026  1.4459
  310MOL0     H41822   0.723  12.575   2.728 -0.7705 -0.6162  0.4607
  310MOL0     H41823   0.763  12.403   2.742 -0.1742 -1.2745 -0.6649
  310MOL0     H41824   0.558  12.565   2.901  2.7409  1.1808  2.5832
  310MOL0     H41825   0.570  12.379   2.912  2.9583 -1.7384  0.4774
  310MOL0     H41826   0.754  12.590   3.008  1.1843 -0.7209 -2.3785
  310MOL0     H41827   0.818  12.425   2.983  1.2613  0.6902  1.7414
  310MOL0     H41828   0.580  12.497   3.157  2.0524  0.8571  3.4530
  310MOL0     H41829   0.647  12.332   3.132  2.4716 -1.3632  1.0817
  310MOL0     H41830   0.818  12.324   2.037 -1.1151 -2.0254 -0.9577
  310MOL0     H41831   0.869  12.412   1.813  1.6865  3.0089  1.2454
  310MOL0     H41832   0.866  12.589   1.477 -1.4345  2.8020  0.1782
  310MOL0     H41833   0.900  12.661   1.236  0.3934  0.0190  2.6903
  310MOL0     H41834   0.926  11.518   0.715  1.3640  0.7157  0.2403
  310MOL0     H41835   1.141  11.558   0.610 -1.8148  0.3808  2.0468
  310MOL0     H41836   1.466  11.455   0.419 -0.2531 -0.1330  0.0800
  310MOL0     H41837   1.698  11.522   0.375 -0.5416 -1.3368  0.3188
  310MOL0     H41838   1.960  11.531   0.216 -1.5694 -1.7795  2.2401
  310MOL0     H41839   1.854  11.629   0.308  1.0116  3.4780 -0.1311
  310MOL0     H41840   2.036  11.745   0.236  0.7978  1.1086 -1.2202
  310MOL0     H41841   1.893  11.821   0.178  0.6390  0.5461  0.2742
  310MOL0     H41842   1.999  11.631  -0.030 -0.2420  0.6683 -0.4223
  310MOL0     H41843   2.135  11.740   0.026  0.6255  0.7729 -0.6190
  310MOL0     H41844   2.011  11.814  -0.172  1.0759  0.4977  0.9080
  310MOL0     H41845   1.859  11.810  -0.086 -0.6595 -3.5332  0.8682
  310MOL0     H41846   2.046  12.157   0.086  0.6587 -0.1768  2.7353
  310MOL0     H41847   1.597  11.522  -0.052  0.7047 -2.5975 -0.2375
  310MOL0     H41848   1.263  11.496  -0.017  1.1349  3.2221 -0.6982
  310MOL0     H41849   1.386  11.496  -0.127 -1.3906 -1.0056 -2.2217
  310MOL0     H41850   1.346  11.336  -0.040 -0.3991  0.6247  1.9361
  311MOL0     O41851   9.598   4.724   6.487 -0.3081 -0.5545 -0.3653
  311MOL0     C41852   9.554   4.774   6.590  1.1146  0.3050 -0.4287
  311MOL0     O41853   9.592   4.895   6.645  0.2208 -0.0059 -0.0575
  311MOL0     C41854   9.682   4.983   6.585 -0.6831  0.9303  0.5102
  311MOL0     C41855   9.766   5.053   6.669 -0.2538  0.7822  0.5618
  311MOL0     C41856   9.866   5.134   6.629  0.7853 -1.3598  0.1928
  311MOL0     C41857   9.888   5.150   6.491  0.0349  0.0225  0.0606
  311MOL0     O41858   9.987   5.241   6.453  0.8010  0.9380 -0.3152
  311MOL0     C41859  10.119   5.185   6.475  0.0804  0.1637 -0.3623
  311MOL0     C41860  10.171   5.077   6.375 -0.5763  0.4444 -0.1063
  311MOL0     C41861  10.111   4.936   6.382 -0.4476  0.3995 -0.2887
  311MOL0     C41862  10.128   4.886   6.531  1.2357 -0.2862  1.2407
  311MOL0     C41863  10.141   4.733   6.530  0.8381  0.8887  0.3261
  311MOL0     C41864  10.006   4.668   6.490  0.1354 -0.0563 -0.1259
  311MOL0     C41865  10.031   4.517   6.477 -0.5143 -0.7066 -0.7421
  311MOL0     C41866   9.893   4.448   6.441 -0.4853 -0.4258  0.1781
  311MOL0     N41867   9.846   4.481   6.305  0.4229  0.5063 -0.6305
  311MOL0     C41868   9.723   4.525   6.274  0.5419  0.2043  0.1250
  311MOL0     C41869   9.713   4.510   6.141 -0.1663 -0.8636  0.3441
  311MOL0     C41870   9.586   4.530   6.062  0.1158  0.0756 -0.3089
  311MOL0     C41871   9.487   4.421   6.078  0.4141  0.6524  0.0379
  311MOL0     C41872   9.498   4.296   5.983 -0.1924 -0.0094 -0.2605
  311MOL0     C41873   9.374   4.201   6.005 -0.4305 -0.2194 -0.4747
  311MOL0     O41874   9.261   4.255   5.944  0.5524  0.4828  0.6594
  311MOL0     C41875   9.131   4.212   5.969 -0.3154  0.6177  1.0575
  311MOL0     C41876   9.103   4.101   6.051 -1.0260 -0.7085  0.0812
  311MOL0     C41877   8.969   4.063   6.062  0.2279  0.6788  0.7374
  311MOL0     C41878   8.871   4.126   5.978  0.1927  0.8735 -0.2210
  311MOL0     C41879   8.725   4.085   5.992  0.0226 -1.0645 -0.0249
  311MOL0     O41880   8.639   4.182   5.949 -0.4257 -0.5465 -0.2722
  311MOL0     C41881   8.499   4.189   5.976 -0.0875  0.3767  0.1534
  311MOL0     C41882   8.435   4.113   6.074  0.0882  0.1061  0.3644
  311MOL0     C41883   8.294   4.098   6.078 -0.1664  0.6949  0.3066
  311MOL0     C41884   8.219   4.166   5.985  0.2714  0.3260  0.1968
  311MOL0     O41885   8.079   4.148   5.984 -0.6491 -0.0968 -0.1914
  311MOL0     C41886   8.006   4.132   5.856  0.1031 -0.4815  0.3449
  311MOL0     C41887   7.940   4.274   5.814 -0.5202  0.1449 -0.3241
  311MOL0     C41888   7.837   4.327   5.926  0.7188  0.2002 -0.0956
  311MOL0     C41889   7.703   4.257   5.928 -0.5211  0.9796  0.0886
  311MOL0     C41890   7.616   4.276   6.052 -0.8769  0.2084 -0.1143
  311MOL0     C41891   7.556   4.411   6.076 -0.6239 -0.2581  0.3261
  311MOL0     C41892   7.489   4.432   6.207 -0.4709 -0.1019  1.3103
  311MOL0     C41893   7.338   4.449   6.196  0.0239  0.1808 -0.2883
  311MOL0    Cl41894   7.262   4.309   6.122  0.0080 -0.5710  0.0029
  311MOL0     C41895   8.284   4.244   5.889 -0.1201 -0.2300 -0.2912
  311MOL0     C41896   8.425   4.257   5.880 -0.1639  0.5649  0.1850
  311MOL0     O41897   8.692   3.989   6.052 -0.0242  0.0509 -0.0688
  311MOL0     C41898   8.898   4.228   5.895 -0.1994 -0.1103 -0.1800
  311MOL0     C41899   9.033   4.273   5.888 -0.6584 -0.2139 -0.0817
  311MOL0     N41900   9.827   4.456   6.089 -0.3954  0.1280 -0.2643
  311MOL0     N41901   9.913   4.457   6.192  0.4221  0.3825 -0.3727
  311MOL0     C41902   9.807   5.077   6.397 -0.7453 -0.8753 -0.1509
  311MOL0     C41903   9.701   4.998   6.442  0.1162 -0.5245  0.2311
  311MOL0     C41904   9.445   4.705   6.665  0.4662  0.0976  0.1256
  311MOL0     C41905   9.415   4.761   6.795 -0.1220 -0.4858  0.8239
  311MOL0     C41906   9.310   4.719   6.877 -0.7333  0.5802  0.1766
  311MOL0     C41907   9.241   4.604   6.838 -0.2842 -0.2132 -0.1639
  311MOL0     O41908   9.147   4.569   6.929 -0.3207  0.7993 -0.5856
  311MOL0     C41909   9.060   4.461   6.898 -0.6191 -0.4329  0.2909
  311MOL0     C41910   8.950   4.525   6.809 -0.1857  0.6282 -0.1908
  311MOL0     C41911   8.809   4.474   6.839  1.1021 -0.0299 -0.4767
  311MOL0     C41912   8.718   4.529   6.732  0.1809 -0.7650  0.8566
  311MOL0     C41913   8.578   4.492   6.747  0.5635  0.5846  0.6569
  311MOL0     C41914   8.462   4.459   6.759 -1.0729 -0.1348 -0.8029
  311MOL0     C41915   9.278   4.546   6.718  0.8659  0.4799 -0.8103
  311MOL0     C41916   9.371   4.593   6.629  0.0141  0.8234  0.7034
  311MOL0     C41917   9.379   4.525   6.495  0.6717  0.0363 -0.3760
  311MOL0     H41918   9.748   5.041   6.776  1.2109 -1.4374  0.6250
  311MOL0     H41919   9.925   5.194   6.697  1.5185 -1.2898 -0.4830
  311MOL0     H41920  10.186   5.271   6.469 -2.0730  1.9757  0.6433
  311MOL0     H41921  10.134   5.155   6.580  1.5714  0.7050 -0.3859
  311MOL0     H41922  10.275   5.062   6.405 -1.5067 -4.4992  1.6613
  311MOL0     H41923  10.163   5.108   6.271  0.0507 -2.1223 -0.9964
  311MOL0     H41924  10.174   4.872   6.320  0.0545  1.7896 -1.2771
  311MOL0     H41925  10.009   4.951   6.347 -0.3912 -0.2410 -0.7258
  311MOL0     H41926  10.211   4.942   6.576 -0.6564  4.3611 -0.4287
  311MOL0     H41927  10.034   4.919   6.576  1.0984  2.3727 -0.7147
  311MOL0     H41928  10.217   4.700   6.460  1.4864  1.8789  0.5395
  311MOL0     H41929  10.165   4.692   6.629 -0.7850 -1.7861 -0.2900
  311MOL0     H41930   9.922   4.683   6.559 -0.7187 -1.5477 -0.7996
  311MOL0     H41931   9.976   4.717   6.397  3.4569  0.3821 -1.1211
  311MOL0     H41932  10.076   4.474   6.567 -3.2144  0.8580  1.5108
  311MOL0     H41933  10.105   4.495   6.399  1.1095 -1.4147  0.9086
  311MOL0     H41934   9.908   4.339   6.441  1.7829 -0.1625 -0.9563
  311MOL0     H41935   9.825   4.482   6.520 -0.7036  1.6944 -0.8678
  311MOL0     H41936   9.633   4.537   6.335  0.5615  0.3024  0.1339
  311MOL0     H41937   9.543   4.619   6.107 -1.8175 -1.6852  1.5642
  311MOL0     H41938   9.612   4.550   5.957  1.4895 -2.0172 -0.4334
  311MOL0     H41939   9.486   4.382   6.180  0.1311  3.1806  1.0524
  311MOL0     H41940   9.393   4.472   6.054  0.2290 -1.5178 -5.2514
  311MOL0     H41941   9.588   4.243   6.015  1.5563  3.2825  0.7890
  311MOL0     H41942   9.503   4.330   5.879  0.2063  1.5082  0.2290
  311MOL0     H41943   9.365   4.170   6.110 -0.3833 -4.6137 -1.6003
  311MOL0     H41944   9.403   4.105   5.963 -1.0291 -1.0291  0.8870
  311MOL0     H41945   9.178   4.045   6.106 -0.3398  0.8536  0.7943
  311MOL0     H41946   8.952   3.984   6.134  0.6356 -1.2127 -1.1583
  311MOL0     H41947   8.499   4.070   6.150  0.0986 -2.4027 -0.9695
  311MOL0     H41948   8.251   4.033   6.153  0.1580  0.3038  0.1574
  311MOL0     H41949   8.061   4.093   5.770  0.2050  2.5402 -1.0735
  311MOL0     H41950   7.926   4.057   5.859 -2.3287  1.8797 -0.5881
  311MOL0     H41951   8.028   4.339   5.819 -1.2083  1.0334  2.8417
  311MOL0     H41952   7.899   4.272   5.713 -1.7261  1.4544  0.1053
  311MOL0     H41953   7.882   4.330   6.026 -0.7182  0.7130  0.5570
  311MOL0     H41954   7.804   4.426   5.895 -2.5258 -0.6916  0.1778
  311MOL0     H41955   7.723   4.150   5.913 -2.0041 -0.3521  5.3500
  311MOL0     H41956   7.636   4.292   5.849 -0.0903  0.4578 -0.5137
  311MOL0     H41957   7.677   4.243   6.136  0.3289  3.1574  0.2916
  311MOL0     H41958   7.529   4.210   6.045  0.8561 -2.3151  0.5743
  311MOL0     H41959   7.639   4.482   6.072 -1.7922  1.4255  3.2230
  311MOL0     H41960   7.486   4.409   5.992  0.4448  0.6012 -0.6175
  311MOL0     H41961   7.531   4.525   6.246 -1.1132  0.0397  1.6723
  311MOL0     H41962   7.501   4.338   6.262 -4.1670 -1.6833 -0.2215
  311MOL0     H41963   7.287   4.462   6.292 -1.5442 -0.9389 -0.9256
  311MOL0     H41964   7.314   4.535   6.134 -3.7616 -1.0287 -0.7134
  311MOL0     H41965   8.237   4.291   5.804  1.9929 -0.2098 -1.5344
  311MOL0     H41966   8.479   4.305   5.800 -0.9154 -0.6412 -1.0826
  311MOL0     H41967   8.821   4.280   5.838 -0.9305  0.1961  1.0641
  311MOL0     H41968   9.062   4.349   5.816  1.7386 -1.9783 -1.1177
  311MOL0     H41969   9.825   5.094   6.291  0.9975 -1.6022 -0.0021
  311MOL0     H41970   9.632   4.949   6.373 -2.3945  0.8857  1.6122
  311MOL0     H41971   9.474   4.837   6.846 -0.1692 -0.2411  0.5205
  311MOL0     H41972   9.287   4.769   6.970  4.4890 -0.9934  2.6838
  311MOL0     H41973   9.014   4.403   6.979 -2.2350 -2.0698 -1.6759
  311MOL0     H41974   9.118   4.390   6.838  0.8868  1.5327 -0.7142
  311MOL0     H41975   8.976   4.510   6.704  1.2715 -0.2172  0.2537
  311MOL0     H41976   8.935   4.633   6.817 -1.1406  0.3473  3.4595
  311MOL0     H41977   8.777   4.515   6.936 -2.4232 -1.7744 -0.7424
  311MOL0     H41978   8.802   4.365   6.842 -0.8862  0.0607  1.5458
  311MOL0     H41979   8.715   4.638   6.735 -0.2445 -0.6167 -1.9248
  311MOL0     H41980   8.753   4.503   6.631 -0.7097 -0.1317  0.3682
  311MOL0     H41981   8.363   4.417   6.769 -0.9095 -0.2143  0.5979
  311MOL0     H41982   9.208   4.472   6.680 -0.5463  1.8692 -1.0476
  311MOL0     H41983   9.407   4.596   6.417 -2.3665 -1.5173 -3.1434
  311MOL0     H41984   9.448   4.441   6.507  0.8166  0.0695 -0.9929
  311MOL0     H41985   9.282   4.480   6.473  0.6553 -1.2809  1.9705
  312MOL0     O41986   8.223   4.753   2.767  0.1660 -0.4419  0.4781
  312MOL0     C41987   8.158   4.780   2.863 -0.0731  0.1380 -0.0878
  312MOL0     O41988   8.033   4.826   2.865  0.0990  0.7810  0.1762
  312MOL0     C41989   7.958   4.794   2.747 -0.0961  0.5863 -0.7833
  312MOL0     C41990   7.892   4.890   2.672  0.5300  0.6053 -0.1754
  312MOL0     C41991   7.816   4.850   2.563  0.0986  0.3372 -0.4343
  312MOL0     C41992   7.797   4.707   2.537  0.6990 -0.5596  0.0510
  312MOL0     O41993   7.726   4.673   2.418  0.0305 -0.1070  0.1317
  312MOL0     C41994   7.661   4.543   2.444  0.6446 -0.4875  0.8544
  312MOL0     C41995   7.543   4.514   2.350 -0.6313  1.8398  0.9242
  312MOL0     C41996   7.583   4.551   2.203 -0.0743  0.0163 -0.5611
  312MOL0     C41997   7.575   4.705   2.167  0.1212  0.2367 -0.3503
  312MOL0     C41998   7.627   4.762   2.035  0.0182  0.6985  0.8445
  312MOL0     C41999   7.756   4.688   1.990 -0.2110 -0.8343 -0.7261
  312MOL0     C42000   7.841   4.777   1.897 -0.1778  0.1820  0.6396
  312MOL0     C42001   7.910   4.892   1.955 -0.6305  0.0307 -0.9204
  312MOL0     N42002   8.007   4.865   2.065 -0.4671 -0.3833 -0.4186
  312MOL0     C42003   7.984   4.847   2.195  0.5092 -0.1808  0.6158
  312MOL0     C42004   8.099   4.799   2.241 -1.6991 -0.4550 -0.2006
  312MOL0     C42005   8.114   4.745   2.388 -0.7263  0.4476  0.7626
  312MOL0     C42006   8.255   4.684   2.412  0.5255  0.1516  0.1286
  312MOL0     C42007   8.370   4.790   2.420  0.6242  0.6701  0.1447
  312MOL0     C42008   8.500   4.719   2.410 -0.6858  0.2029 -0.6295
  312MOL0     O42009   8.533   4.627   2.512  0.8599  0.3889  0.7188
  312MOL0     C42010   8.600   4.509   2.481  0.3620 -0.5274  0.0903
  312MOL0     C42011   8.666   4.482   2.359  0.4285 -0.1209 -0.3545
  312MOL0     C42012   8.727   4.356   2.335 -0.5009 -0.5174 -0.1962
  312MOL0     C42013   8.718   4.251   2.423 -0.2604  0.1163 -0.4452
  312MOL0     C42014   8.754   4.108   2.392 -0.1715 -0.5642 -0.9811
  312MOL0     O42015   8.687   4.017   2.464  0.0566  0.5769  0.0820
  312MOL0     C42016   8.739   3.887   2.475  0.7385 -0.3408  0.1558
  312MOL0     C42017   8.636   3.806   2.513 -0.7355  1.0237 -0.1936
  312MOL0     C42018   8.661   3.665   2.521  0.5559 -1.7085  0.0437
  312MOL0     C42019   8.784   3.616   2.473 -0.5672 -0.2583  0.1617
  312MOL0     O42020   8.806   3.476   2.468  0.5782  0.3446  0.3439
  312MOL0     C42021   8.929   3.422   2.413  0.3930 -0.6602  0.2524
  312MOL0     C42022   8.902   3.271   2.411 -0.1745  0.3423 -0.1595
  312MOL0     C42023   9.023   3.189   2.361  0.7942 -0.3985  0.1669
  312MOL0     C42024   9.026   3.170   2.213 -0.1321  0.8097 -0.7798
  312MOL0     C42025   9.176   3.169   2.169 -0.4921  0.2436 -0.5304
  312MOL0     C42026   9.182   3.107   2.035  1.3820  0.5445 -0.9047
  312MOL0     C42027   9.325   3.114   1.977  0.0432  0.7293  0.5904
  312MOL0     C42028   9.349   2.993   1.878  0.2402  0.8114  0.5295
  312MOL0    Cl42029   9.508   2.967   1.830 -0.1784  0.2168 -0.2162
  312MOL0     C42030   8.889   3.705   2.443  0.2348 -0.6685  0.7763
  312MOL0     C42031   8.872   3.841   2.448  0.6325 -0.2379 -1.0201
  312MOL0     O42032   8.829   4.084   2.298  0.0405  0.2473  0.2802
  312MOL0     C42033   8.641   4.278   2.542 -0.7036 -0.3270 -0.1627
  312MOL0     C42034   8.585   4.402   2.566 -0.9530 -1.0021  0.1030
  312MOL0     N42035   8.202   4.825   2.142  0.3105 -0.2462 -0.1464
  312MOL0     N42036   8.141   4.869   2.036 -0.6148 -0.2361  0.1544
  312MOL0     C42037   7.878   4.616   2.611 -0.2268 -0.4717  0.4453
  312MOL0     C42038   7.944   4.654   2.726  0.4452  0.5605  0.7817
  312MOL0     C42039   8.237   4.762   2.996  0.4894  0.1736 -1.1851
  312MOL0     C42040   8.248   4.870   3.080  1.1978  0.7817  0.0292
  312MOL0     C42041   8.299   4.868   3.204 -0.0681 -0.5402 -0.2935
  312MOL0     C42042   8.363   4.757   3.256 -0.1956 -0.2932  0.0444
  312MOL0     O42043   8.445   4.754   3.371  0.4801 -0.6953  0.2751
  312MOL0     C42044   8.461   4.868   3.448  0.1392  0.3099  0.3576
  312MOL0     C42045   8.492   4.833   3.592 -0.0878 -0.7717 -0.0229
  312MOL0     C42046   8.613   4.741   3.621 -0.4517 -0.3069  0.9218
  312MOL0     C42047   8.657   4.710   3.773  0.2351 -0.0781  0.4088
  312MOL0     C42048   8.622   4.580   3.814 -0.5729  0.1899 -0.1182
  312MOL0     C42049   8.584   4.469   3.856  0.8248 -0.1530 -0.3275
  312MOL0     C42050   8.355   4.644   3.169  0.7968  0.4712 -1.0985
  312MOL0     C42051   8.295   4.646   3.040 -0.1378 -0.6122 -0.5191
  312MOL0     C42052   8.279   4.521   2.958  0.2249  0.2596  0.3472
  312MOL0     H42053   7.901   4.994   2.700  0.1858  0.7807 -0.6913
  312MOL0     H42054   7.775   4.921   2.492 -1.0222 -0.0633 -0.1934
  312MOL0     H42055   7.727   4.459   2.422  1.0695  0.1637 -0.4162
  312MOL0     H42056   7.622   4.543   2.547 -1.7520  2.6136  0.1100
  312MOL0     H42057   7.463   4.584   2.377 -0.8716  1.5181  1.0492
  312MOL0     H42058   7.511   4.410   2.345 -0.8909  1.9790 -0.7964
  312MOL0     H42059   7.514   4.511   2.128 -0.5479 -2.2833  0.9971
  312MOL0     H42060   7.680   4.508   2.178 -0.0936  1.2373 -2.9983
  312MOL0     H42061   7.475   4.740   2.194  1.0830  3.0430 -0.1043
  312MOL0     H42062   7.645   4.759   2.232  2.1929 -1.3385 -1.1550
  312MOL0     H42063   7.555   4.759   1.953  0.9428 -1.4130  0.0434
  312MOL0     H42064   7.653   4.868   2.048  2.9122  0.2293 -0.3843
  312MOL0     H42065   7.814   4.673   2.082 -1.1597  1.1755  0.2541
  312MOL0     H42066   7.741   4.595   1.935  2.6118 -1.4781 -0.5494
  312MOL0     H42067   7.767   4.812   1.825 -0.2810  0.7389  1.0157
  312MOL0     H42068   7.918   4.710   1.858 -0.0860 -0.2152  1.4838
  312MOL0     H42069   7.959   4.947   1.874 -1.0872 -0.0285 -1.2402
  312MOL0     H42070   7.829   4.948   2.003 -0.8141  1.1573 -2.4834
  312MOL0     H42071   7.887   4.850   2.244 -1.0250  0.9805 -2.2249
  312MOL0     H42072   8.093   4.824   2.462 -2.6734  2.2069 -1.4865
  312MOL0     H42073   8.046   4.659   2.400  1.0454 -1.1091  0.0031
  312MOL0     H42074   8.247   4.643   2.513  0.1813  3.9386  1.8284
  312MOL0     H42075   8.269   4.598   2.347  0.3381  0.5991 -0.5164
  312MOL0     H42076   8.357   4.845   2.514 -2.4187  0.4531 -0.0386
  312MOL0     H42077   8.358   4.861   2.338 -5.4724 -0.6129 -0.6273
  312MOL0     H42078   8.583   4.791   2.410  0.0444 -0.5550  1.7034
  312MOL0     H42079   8.490   4.680   2.309 -2.0198 -2.5632  0.4751
  312MOL0     H42080   8.664   4.557   2.281 -1.9019 -2.0568 -2.3604
  312MOL0     H42081   8.793   4.358   2.248  2.3016 -0.4611  1.8079
  312MOL0     H42082   8.533   3.835   2.530 -1.0638  0.4480 -1.1536
  312MOL0     H42083   8.593   3.593   2.565  1.2905 -1.5060  1.5770
  312MOL0     H42084   8.951   3.465   2.315  2.4645  0.6007  1.1856
  312MOL0     H42085   9.014   3.451   2.476  0.7806 -0.3897 -0.3916
  312MOL0     H42086   8.871   3.239   2.511 -0.7590  0.2237 -0.3714
  312MOL0     H42087   8.812   3.233   2.361 -1.6078  1.5534  1.3556
  312MOL0     H42088   9.116   3.245   2.375  2.2470 -2.4289 -0.8701
  312MOL0     H42089   9.027   3.090   2.409  0.3228 -0.3635  0.2858
  312MOL0     H42090   8.977   3.252   2.160  2.1686 -0.8754 -6.1460
  312MOL0     H42091   8.975   3.084   2.170 -2.7873  0.1216  3.2484
  312MOL0     H42092   9.230   3.119   2.250  1.3921  0.3540 -1.6620
  312MOL0     H42093   9.224   3.267   2.158  2.1149 -1.1135 -2.0535
  312MOL0     H42094   9.152   3.004   2.057  0.9157  0.9601  0.5458
  312MOL0     H42095   9.110   3.154   1.968  1.7168  2.1933 -0.1393
  312MOL0     H42096   9.400   3.106   2.056  0.3712  1.3047  0.3473
  312MOL0     H42097   9.345   3.203   1.916  0.2939 -0.8935 -1.8416
  312MOL0     H42098   9.318   2.899   1.924  1.1578  0.6174  0.7692
  312MOL0     H42099   9.283   3.006   1.792 -0.4872 -1.6050  0.6431
  312MOL0     H42100   8.988   3.674   2.411  0.5152 -0.7397  1.6619
  312MOL0     H42101   8.949   3.916   2.438 -0.3829  1.1125  0.7087
  312MOL0     H42102   8.615   4.199   2.612  0.1694 -1.0989 -0.6942
  312MOL0     H42103   8.519   4.409   2.651 -0.1959 -2.9386  0.9068
  312MOL0     H42104   7.876   4.512   2.579 -1.7908  0.4154 -2.6635
  312MOL0     H42105   7.988   4.582   2.793  0.9556  0.3352  0.2166
  312MOL0     H42106   8.195   4.960   3.052 -2.1272  0.2241  3.6799
  312MOL0     H42107   8.309   4.955   3.268  3.6482 -0.7907 -0.2901
  312MOL0     H42108   8.371   4.930   3.446 -0.5808 -0.6903 -1.2096
  312MOL0     H42109   8.530   4.931   3.391  1.3582 -0.7691  0.5877
  312MOL0     H42110   8.407   4.776   3.632  1.2722 -2.4386  0.5736
  312MOL0     H42111   8.499   4.925   3.651  1.1279 -0.9802  0.1862
  312MOL0     H42112   8.698   4.773   3.561 -0.9978  0.2859  0.4621
  312MOL0     H42113   8.590   4.647   3.570 -1.2809  1.0658 -1.3764
  312MOL0     H42114   8.766   4.716   3.768  0.2437  5.0510  1.5481
  312MOL0     H42115   8.634   4.799   3.832 -0.9878  0.2846 -0.5745
  312MOL0     H42116   8.555   4.370   3.883  1.3570 -0.2317 -0.0342
  312MOL0     H42117   8.385   4.547   3.206 -0.0309  0.4620 -0.4139
  312MOL0     H42118   8.285   4.429   3.017 -3.2298 -0.8043 -0.7073
  312MOL0     H42119   8.188   4.524   2.896  0.7087  0.5355 -0.3670
  312MOL0     H42120   8.361   4.516   2.886 -2.8661 -0.4237 -3.4961
  313MOL0     O42121   0.686   5.691   9.808  0.3408  0.0184 -0.1430
  313MOL0     C42122   0.771   5.691   9.896  0.8010  0.5868  0.7332
  313MOL0     O42123   0.780   5.594   9.987  0.3350  0.0137 -0.1523
  313MOL0     C42124   0.724   5.470   9.969  0.8185  0.2859 -0.5202
  313MOL0     C42125   0.650   5.411  10.067 -0.0557 -0.0786 -0.2823
  313MOL0     C42126   0.595   5.285  10.033 -0.2497 -0.3990  0.6489
  313MOL0     C42127   0.616   5.215   9.922  0.1064  0.5504  0.0555
  313MOL0     O42128   0.549   5.097   9.894 -0.1361 -0.3021  0.1788
  313MOL0     C42129   0.626   4.982   9.928  0.2647  0.0929 -0.0722
  313MOL0     C42130   0.521   4.874   9.924 -0.5288 -0.4776  0.8593
  313MOL0     C42131   0.460   4.854   9.779 -0.3628  0.4796  0.5790
  313MOL0     C42132   0.547   4.777   9.675 -0.1512  0.1921 -1.2200
  313MOL0     C42133   0.461   4.701   9.568  0.4085  0.1439  1.2402
  313MOL0     C42134   0.564   4.636   9.473 -0.4003  0.2479 -0.2404
  313MOL0     C42135   0.488   4.555   9.367  0.0098  0.0934 -0.3162
  313MOL0     C42136   0.450   4.658   9.258 -0.0610  1.0561 -0.1233
  313MOL0     N42137   0.325   4.613   9.199  1.4173 -0.0473  0.4521
  313MOL0     C42138   0.297   4.499   9.133  0.0017  0.0033  0.6676
  313MOL0     C42139   0.166   4.518   9.098 -0.3258  0.2699  0.6370
  313MOL0     C42140   0.070   4.417   9.035  0.5606  0.6385 -0.4675
  313MOL0     C42141   0.027   4.464   8.889  0.3734  0.4360  0.7853
  313MOL0     C42142  -0.075   4.370   8.822  0.1912 -1.2543 -0.1498
  313MOL0     C42143  -0.112   4.443   8.690 -0.2580 -0.4281 -0.1911
  313MOL0     O42144  -0.005   4.423   8.587 -0.1076 -0.3253 -0.1105
  313MOL0     C42145  -0.035   4.367   8.464 -0.2369 -0.1526  0.0185
  313MOL0     C42146  -0.144   4.417   8.389 -0.3707  0.2666  0.2342
  313MOL0     C42147  -0.168   4.360   8.266  0.5762  0.0099  0.6906
  313MOL0     C42148  -0.083   4.276   8.198  0.1028  0.4536 -0.0868
  313MOL0     C42149  -0.100   4.251   8.052 -0.3166  1.3740  0.1678
  313MOL0     O42150  -0.194   4.324   7.983  0.2964  0.2165 -0.0225
  313MOL0     C42151  -0.241   4.294   7.860  0.1132  0.7776 -0.7864
  313MOL0     C42152  -0.245   4.161   7.807  0.5894  0.2784  0.4012
  313MOL0     C42153  -0.306   4.132   7.684  0.0185 -0.5276 -0.2142
  313MOL0     C42154  -0.378   4.234   7.617 -0.0176 -0.3739 -0.4276
  313MOL0     O42155  -0.437   4.215   7.493  0.1928 -0.1548  0.3921
  313MOL0     C42156  -0.473   4.088   7.443 -0.7873  0.7313  0.2911
  313MOL0     C42157  -0.591   4.098   7.347 -0.1211 -0.2670 -0.8103
  313MOL0     C42158  -0.566   4.195   7.229  0.3562  0.2972 -0.0791
  313MOL0     C42159  -0.701   4.215   7.149 -1.2425 -0.5255 -0.1182
  313MOL0     C42160  -0.703   4.293   7.028 -0.5879 -0.4817  1.1430
  313MOL0     C42161  -0.826   4.264   6.942 -0.4650 -0.0467  0.3334
  313MOL0     C42162  -0.818   4.356   6.824  1.0033 -0.2008 -0.4138
  313MOL0     C42163  -0.924   4.320   6.720  0.4705 -0.1283  0.1437
  313MOL0    Cl42164  -1.089   4.315   6.788 -0.0853 -0.1597 -0.0830
  313MOL0     C42165  -0.377   4.367   7.674 -0.0758 -0.2328 -0.6819
  313MOL0     C42166  -0.306   4.395   7.796  0.3557 -0.4197  0.1442
  313MOL0     O42167  -0.027   4.159   8.003 -0.2412 -0.3008 -1.2752
  313MOL0     C42168   0.025   4.227   8.275  0.0645 -0.0606 -0.3463
  313MOL0     C42169   0.044   4.266   8.405  0.6623 -0.2771  0.4303
  313MOL0     N42170   0.109   4.633   9.146  0.0461  0.1781 -0.1854
  313MOL0     N42171   0.209   4.690   9.212  0.1156  0.5901  0.4821
  313MOL0     C42172   0.701   5.271   9.827 -0.7627  0.4002  0.3753
  313MOL0     C42173   0.754   5.398   9.853  0.0793  0.2494  0.4311
  313MOL0     C42174   0.869   5.798   9.909 -0.3827 -0.6711  0.1145
  313MOL0     C42175   0.904   5.867   9.786 -0.1555 -0.1945  1.0317
  313MOL0     C42176   0.996   5.978   9.790 -0.0023  0.0264  0.9903
  313MOL0     C42177   1.059   6.012   9.903  0.0596 -0.1291 -1.2080
  313MOL0     O42178   1.142   6.118   9.910  0.6163 -0.4282 -0.4830
  313MOL0     C42179   1.194   6.172   9.790  0.2436  0.2114  0.4799
  313MOL0     C42180   1.314   6.268   9.823  0.5957  0.9536 -0.5646
  313MOL0     C42181   1.355   6.351   9.703  0.3949  0.0172  1.2830
  313MOL0     C42182   1.403   6.276   9.583 -0.0346 -0.6514 -0.1208
  313MOL0     C42183   1.499   6.177   9.617 -0.4646  0.8397  0.3465
  313MOL0     C42184   1.580   6.097   9.650 -0.9091  0.1368 -0.7955
  313MOL0     C42185   1.025   5.951  10.024  0.5919 -1.1267  0.4568
  313MOL0     C42186   0.931   5.838  10.032 -0.0487  0.9183  0.0307
  313MOL0     C42187   0.904   5.787  10.170 -0.0049 -0.3901  0.0958
  313MOL0     H42188   0.645   5.457  10.165  2.4971 -0.7770  0.2585
  313MOL0     H42189   0.539   5.233  10.110 -1.1338  0.1245  0.3725
  313MOL0     H42190   0.703   4.971   9.852 -0.4420 -1.3753 -0.6150
  313MOL0     H42191   0.660   5.002  10.030  0.9554  0.8787 -0.4393
  313MOL0     H42192   0.448   4.888  10.004 -1.0326 -0.6790  0.4534
  313MOL0     H42193   0.574   4.783   9.954  4.7316  1.3575 -1.6979
  313MOL0     H42194   0.421   4.945   9.733 -0.7283  0.7744  1.4522
  313MOL0     H42195   0.374   4.790   9.799 -1.3714  0.2506 -3.5970
  313MOL0     H42196   0.613   4.848   9.625 -3.0760  3.5552 -0.6423
  313MOL0     H42197   0.597   4.697   9.730  1.3370  2.1418  0.4091
  313MOL0     H42198   0.396   4.630   9.621  2.2591 -0.4803  2.7690
  313MOL0     H42199   0.405   4.774   9.509  2.5606  1.5922  0.8825
  313MOL0     H42200   0.631   4.709   9.426 -2.9678  2.4942 -0.7035
  313MOL0     H42201   0.621   4.563   9.531 -2.9278 -0.3169  1.7332
  313MOL0     H42202   0.402   4.500   9.405  1.3337 -1.1443  1.0662
  313MOL0     H42203   0.547   4.474   9.320 -0.0461  0.5355 -1.1769
  313MOL0     H42204   0.432   4.756   9.303 -3.8251  0.5489 -0.1881
  313MOL0     H42205   0.524   4.655   9.178 -0.6349 -0.5832 -0.6439
  313MOL0     H42206   0.355   4.411   9.106 -2.9683 -1.8450 -0.2478
  313MOL0     H42207   0.110   4.315   9.030 -1.7756 -0.4434  1.1142
  313MOL0     H42208  -0.019   4.401   9.097  1.2914  4.1129  1.7858
  313MOL0     H42209  -0.007   4.567   8.900 -0.6728  0.0316  1.4886
  313MOL0     H42210   0.118   4.464   8.827  1.2030  5.6289  1.5753
  313MOL0     H42211  -0.158   4.355   8.891  0.1141 -1.7361 -0.3417
  313MOL0     H42212  -0.026   4.272   8.816 -0.9529 -1.7983 -0.8439
  313MOL0     H42213  -0.131   4.547   8.715  2.5824  0.0421  0.3005
  313MOL0     H42214  -0.208   4.404   8.655 -0.9941 -1.1028  2.4002
  313MOL0     H42215  -0.210   4.496   8.423 -3.8721 -2.6317  0.7758
  313MOL0     H42216  -0.258   4.402   8.222  1.5959  0.2709 -1.2941
  313MOL0     H42217  -0.208   4.081   7.870 -3.8531  0.9338  4.4214
  313MOL0     H42218  -0.308   4.037   7.632 -7.1098 -0.8781 -0.2222
  313MOL0     H42219  -0.393   4.044   7.382 -0.2372  3.4996 -1.1401
  313MOL0     H42220  -0.513   4.022   7.520 -0.0765 -0.4932 -0.3627
  313MOL0     H42221  -0.615   4.004   7.297  1.4829 -1.2982  0.2447
  313MOL0     H42222  -0.676   4.129   7.408  0.2683  0.4817 -0.6441
  313MOL0     H42223  -0.537   4.295   7.264 -0.9569  0.8840 -0.5880
  313MOL0     H42224  -0.488   4.157   7.162 -0.3959 -0.3296 -0.6142
  313MOL0     H42225  -0.762   4.268   7.223  0.3485 -0.3471  1.1319
  313MOL0     H42226  -0.733   4.114   7.121 -1.4943 -0.2459 -0.8777
  313MOL0     H42227  -0.609   4.283   6.973  0.4053 -0.6335  2.8068
  313MOL0     H42228  -0.722   4.398   7.052  1.2500 -0.2295  1.6327
  313MOL0     H42229  -0.814   4.159   6.914  0.0088  0.3439 -1.0534
  313MOL0     H42230  -0.917   4.283   6.999  0.1655  0.6103  1.1555
  313MOL0     H42231  -0.716   4.339   6.789  0.7825 -1.9958 -0.2888
  313MOL0     H42232  -0.811   4.461   6.855 -0.7718  0.3412 -1.7087
  313MOL0     H42233  -0.914   4.386   6.634 -0.8041 -2.4712 -1.9397
  313MOL0     H42234  -0.892   4.223   6.680  0.7978 -0.2488  0.6781
  313MOL0     H42235  -0.413   4.453   7.618  1.1076  0.6581 -0.1141
  313MOL0     H42236  -0.303   4.491   7.847 -0.2845 -0.1664 -0.2793
  313MOL0     H42237   0.091   4.166   8.214  0.2196  0.8349 -1.1061
  313MOL0     H42238   0.130   4.226   8.458  0.0441 -1.3529  0.6408
  313MOL0     H42239   0.720   5.235   9.726  1.3625  0.5756  0.6772
  313MOL0     H42240   0.807   5.457   9.779  0.6517 -0.2929  0.3920
  313MOL0     H42241   0.857   5.831   9.695 -1.7651 -1.6127  2.3539
  313MOL0     H42242   1.033   6.032   9.703  0.0080 -1.6194 -0.0724
  313MOL0     H42243   1.107   6.221   9.744 -0.2212 -1.2396 -0.2444
  313MOL0     H42244   1.223   6.085   9.732 -2.1431  0.0721 -0.6151
  313MOL0     H42245   1.402   6.209   9.851 -0.9826  0.1438  3.5093
  313MOL0     H42246   1.298   6.345   9.900  5.8897  0.8620  1.0393
  313MOL0     H42247   1.441   6.413   9.733  0.3086  1.9441 -1.9679
  313MOL0     H42248   1.283   6.426   9.669  1.3259 -0.6122 -2.5822
  313MOL0     H42249   1.317   6.230   9.535 -0.8597 -1.4386  2.0187
  313MOL0     H42250   1.444   6.342   9.505  1.3807 -2.3961 -0.9161
  313MOL0     H42251   1.637   6.013   9.686  3.0857  1.7928 -2.6681
  313MOL0     H42252   1.060   5.989  10.119  1.4948  1.2378 -0.7381
  313MOL0     H42253   0.964   5.697  10.189  0.1961  0.2826  3.0983
  313MOL0     H42254   0.922   5.864  10.245 -1.1384 -1.1398  1.1875
  313MOL0     H42255   0.796   5.767  10.169 -0.4941  1.7320 -2.6938
  314MOL0     O42256  10.755  10.080   9.700  0.2355  0.6207 -0.6590
  314MOL0     C42257  10.773  10.173   9.627  0.2521 -0.7000  0.6052
  314MOL0     O42258  10.720  10.302   9.633 -0.3989 -0.1165 -0.2546
  314MOL0     C42259  10.675  10.332   9.757  0.6582  0.1242  0.9402
  314MOL0     C42260  10.761  10.391   9.855 -0.5313  0.3152  0.3289
  314MOL0     C42261  10.710  10.413   9.981  0.0116  0.4343 -0.7377
  314MOL0     C42262  10.583  10.370  10.021  0.6214 -0.1690 -0.5446
  314MOL0     O42263  10.544  10.383  10.148  0.3708  0.0347  0.3045
  314MOL0     C42264  10.415  10.356  10.190 -0.2630 -0.0028 -0.3364
  314MOL0     C42265  10.404  10.221  10.257 -0.2487  0.0373 -0.3930
  314MOL0     C42266  10.277  10.210  10.339 -0.3337 -0.1266  0.1887
  314MOL0     C42267  10.229  10.068  10.349  0.5925 -0.6075  0.2105
  314MOL0     C42268  10.148  10.017  10.471 -0.1820  0.9583  0.1714
  314MOL0     C42269  10.147   9.861  10.465  0.4294 -0.0461 -0.5191
  314MOL0     C42270  10.063   9.784  10.567 -0.5604  0.1317  0.3286
  314MOL0     C42271  10.122   9.793  10.699  0.3932  0.4816 -1.3408
  314MOL0     N42272  10.047   9.719  10.794 -0.3195  0.1992  0.1218
  314MOL0     C42273  10.018   9.582  10.786 -0.1333  0.1412  0.0852
  314MOL0     C42274   9.917   9.561  10.876  0.3919  0.2100  1.1865
  314MOL0     C42275   9.872   9.420  10.921 -0.3626 -0.4750 -0.0573
  314MOL0     C42276   9.733   9.379  10.868 -0.1381 -0.4312  0.3520
  314MOL0     C42277   9.711   9.233  10.892  0.1183 -0.4431  0.7239
  314MOL0     C42278   9.779   9.146  10.789 -0.2299  0.3616  0.7028
  314MOL0     O42279   9.738   9.187  10.659  0.3469  0.4228  0.1510
  314MOL0     C42280   9.744   9.094  10.550  0.3981  0.3816 -0.4629
  314MOL0     C42281   9.782   8.958  10.563  0.6261 -0.0859 -0.1721
  314MOL0     C42282   9.784   8.873  10.451 -0.3724 -0.0561  1.1717
  314MOL0     C42283   9.745   8.927  10.326  0.3709  0.5364 -1.0884
  314MOL0     C42284   9.732   8.843  10.210 -0.9041  0.5020 -0.9849
  314MOL0     O42285   9.676   8.906  10.101 -0.2118  0.1864  0.4660
  314MOL0     C42286   9.602   8.840  10.014  0.6289 -0.3719  0.6893
  314MOL0     C42287   9.634   8.856   9.877  0.4762  0.2118  0.1426
  314MOL0     C42288   9.550   8.792   9.778  0.1833 -0.3455 -0.1036
  314MOL0     C42289   9.451   8.713   9.812  0.2066 -0.8641 -0.4885
  314MOL0     O42290   9.362   8.678   9.715 -0.3389  0.5419 -0.1858
  314MOL0     C42291   9.239   8.632   9.763  0.2106 -0.3632 -0.0592
  314MOL0     C42292   9.230   8.482   9.759  0.2378  0.1253  0.4729
  314MOL0     C42293   9.083   8.432   9.786 -0.3429  0.0353 -0.3337
  314MOL0     C42294   9.085   8.280   9.757  0.4097  0.1345  0.0639
  314MOL0     C42295   8.942   8.237   9.799  0.1356 -0.5552  0.4125
  314MOL0     C42296   8.938   8.085   9.798 -0.0469 -0.5105  0.2035
  314MOL0     C42297   8.797   8.032   9.823 -0.0138 -0.5649 -0.0782
  314MOL0     C42298   8.798   7.885   9.823  1.0913 -0.0374 -0.0751
  314MOL0    Cl42299   8.826   7.823   9.642 -0.0666 -0.6551  0.0642
  314MOL0     C42300   9.434   8.689   9.951 -1.2029  0.7618  0.6796
  314MOL0     C42301   9.513   8.736  10.050  0.5134 -0.2142 -0.2742
  314MOL0     O42302   9.751   8.717  10.224  0.5899 -0.3246  0.0462
  314MOL0     C42303   9.700   9.064  10.317  0.3854  0.6072 -0.3399
  314MOL0     C42304   9.698   9.137  10.428  0.0291  0.4280 -0.7043
  314MOL0     N42305   9.887   9.675  10.924  1.1130 -0.0381 -0.6094
  314MOL0     N42306   9.957   9.766  10.870  0.6456  0.7290  0.6527
  314MOL0     C42307  10.503  10.304   9.928 -0.4256 -0.2938  0.0431
  314MOL0     C42308  10.546  10.276   9.799  0.1660  0.2333 -0.1186
  314MOL0     C42309  10.874  10.163   9.513  0.3330 -0.0504  0.3452
  314MOL0     C42310  10.859  10.244   9.407 -0.2882 -0.1795  1.1850
  314MOL0     C42311  10.959  10.261   9.308  0.2460  0.4654  0.1386
  314MOL0     C42312  11.075  10.180   9.306  0.8215  0.7219 -0.0535
  314MOL0     O42313  11.169  10.161   9.208 -0.0781 -0.6007  0.6222
  314MOL0     C42314  11.175  10.250   9.096  0.5086 -0.9104  0.8205
  314MOL0     C42315  11.265  10.202   8.991  0.0846 -0.5102 -0.0171
  314MOL0     C42316  11.406  10.185   9.044 -0.7824 -0.5822 -1.0641
  314MOL0     C42317  11.470  10.315   9.118  0.1795  0.0092  0.4595
  314MOL0     C42318  11.610  10.301   9.121 -0.4574 -0.2805 -0.2591
  314MOL0     C42319  11.729  10.266   9.130  0.1408  0.6601  0.0868
  314MOL0     C42320  11.076  10.079   9.410 -0.8592  0.2539  0.4791
  314MOL0     C42321  10.988  10.075   9.520  0.1810 -1.0116  0.6793
  314MOL0     C42322  11.027   9.996   9.642 -0.6468 -0.7372  0.5310
  314MOL0     H42323  10.864  10.404   9.824 -0.9915 -0.6298 -1.8085
  314MOL0     H42324  10.773  10.466  10.052  1.1654  3.8596 -3.9527
  314MOL0     H42325  10.390  10.426  10.270  1.8857 -1.5534  1.8100
  314MOL0     H42326  10.343  10.365  10.108 -0.4522  1.8386 -0.0202
  314MOL0     H42327  10.475  10.215  10.341 -0.6381 -0.9485 -0.1111
  314MOL0     H42328  10.427  10.130  10.199 -0.2035 -0.6214  0.6286
  314MOL0     H42329  10.198  10.262  10.285  1.1560  1.0257 -0.9906
  314MOL0     H42330  10.305  10.247  10.439  1.3179  0.0657 -0.3152
  314MOL0     H42331  10.167  10.042  10.262 -1.7704 -2.6407  2.3281
  314MOL0     H42332  10.321  10.010  10.337  1.4448  0.2529  2.2349
  314MOL0     H42333  10.199  10.042  10.564 -1.0070  0.6516  0.7259
  314MOL0     H42334  10.052  10.070  10.477 -1.2037 -0.8766  1.2502
  314MOL0     H42335  10.103   9.838  10.368  3.6617  0.3761 -2.2220
  314MOL0     H42336  10.245   9.812  10.461 -1.6487 -5.1001  1.3064
  314MOL0     H42337  10.053   9.680  10.534 -2.5195 -0.2690  1.9382
  314MOL0     H42338   9.961   9.823  10.565 -0.1779  1.1358 -1.6434
  314MOL0     H42339  10.226   9.759  10.698 -0.0549 -1.0271 -0.0710
  314MOL0     H42340  10.121   9.899  10.729  1.2467  0.6656 -1.9006
  314MOL0     H42341  10.080   9.507  10.738 -0.1457  1.4160 -2.0376
  314MOL0     H42342   9.946   9.344  10.893 -1.6375 -2.5287  1.8523
  314MOL0     H42343   9.861   9.427  11.029 -1.5886  3.3626 -0.2840
  314MOL0     H42344   9.656   9.438  10.919  0.7745  0.3402  0.8595
  314MOL0     H42345   9.708   9.417  10.769 -1.9879 -3.8784 -0.6753
  314MOL0     H42346   9.606   9.209  10.871  0.1861  0.0828 -0.3004
  314MOL0     H42347   9.726   9.205  10.996 -1.0879  0.6273  1.2116
  314MOL0     H42348   9.759   9.041  10.812  0.2920 -0.0823 -0.7886
  314MOL0     H42349   9.888   9.157  10.787 -0.0028 -1.3384  1.7962
  314MOL0     H42350   9.808   8.910  10.657 -0.2631 -0.4724 -0.1177
  314MOL0     H42351   9.789   8.764  10.455  0.8298 -0.2068 -1.8706
  314MOL0     H42352   9.709   8.921   9.834  0.5928  0.0690  0.1290
  314MOL0     H42353   9.565   8.808   9.672  0.2598 -1.1183 -0.2102
  314MOL0     H42354   9.208   8.680   9.855  0.3945  1.5835 -0.9643
  314MOL0     H42355   9.159   8.667   9.698 -1.5624 -1.2544  1.5595
  314MOL0     H42356   9.249   8.438   9.661 -2.9986 -2.5990  0.8773
  314MOL0     H42357   9.293   8.434   9.835 -2.6136 -3.0274  1.1103
  314MOL0     H42358   9.053   8.444   9.890  2.7918  0.4957  0.6126
  314MOL0     H42359   9.009   8.491   9.731 -0.4387 -0.8241 -1.1529
  314MOL0     H42360   9.153   8.227   9.825 -0.3741 -0.1818  0.6147
  314MOL0     H42361   9.105   8.264   9.651 -0.6105 -0.4490 -0.0543
  314MOL0     H42362   8.867   8.275   9.730 -0.4911 -0.1638  1.2862
  314MOL0     H42363   8.923   8.271   9.902  0.4637  0.1399  0.2528
  314MOL0     H42364   8.970   8.049   9.700  0.6983  0.3024  0.1390
  314MOL0     H42365   9.000   8.042   9.878 -0.3021 -1.2203  0.0310
  314MOL0     H42366   8.732   8.082   9.751 -0.9384 -1.9585 -0.2530
  314MOL0     H42367   8.747   8.071   9.913  0.4073  1.3060 -0.6188
  314MOL0     H42368   8.877   7.839   9.882 -0.9500 -2.2410  1.1209
  314MOL0     H42369   8.706   7.839   9.860  1.6565 -0.4112  0.8971
  314MOL0     H42370   9.363   8.618   9.991 -2.5128  1.6395 -0.0460
  314MOL0     H42371   9.495   8.714  10.155 -2.9424 -2.3652 -1.1490
  314MOL0     H42372   9.688   9.118  10.223  4.1031  0.1731 -1.2125
  314MOL0     H42373   9.663   9.240  10.430 -2.2690 -0.2822  1.6341
  314MOL0     H42374  10.405  10.261   9.947 -0.2739  0.3735  2.7296
  314MOL0     H42375  10.480  10.228   9.728 -1.4252  2.4800 -0.2995
  314MOL0     H42376  10.775  10.310   9.394  0.1630  0.6876  2.4645
  314MOL0     H42377  10.932  10.340   9.238  3.1875  0.4690 -1.1081
  314MOL0     H42378  11.213  10.346   9.131  0.3821 -1.0802  1.4203
  314MOL0     H42379  11.080  10.269   9.045  0.7733 -2.8459 -0.4959
  314MOL0     H42380  11.277  10.270   8.906  0.8872 -1.7412 -0.9322
  314MOL0     H42381  11.223  10.109   8.953 -0.3372 -0.2644 -0.1514
  314MOL0     H42382  11.456  10.155   8.951 -2.8929 -1.8493 -1.8643
  314MOL0     H42383  11.420  10.107   9.119 -0.3367  1.1313  0.6924
  314MOL0     H42384  11.461  10.397   9.046  1.6634 -0.7970 -0.7006
  314MOL0     H42385  11.421  10.343   9.211 -3.6014  2.2028 -1.9456
  314MOL0     H42386  11.832  10.243   9.148 -0.7786 -3.0355  1.6025
  314MOL0     H42387  11.145   9.995   9.403 -1.7582 -0.7246  2.5367
  314MOL0     H42388  10.954   9.918   9.662 -0.9246 -0.5897  0.1113
  314MOL0     H42389  11.124   9.948   9.631 -1.6583 -3.0096  1.1059
  314MOL0     H42390  11.041  10.077   9.714 -1.2434  2.3481 -2.5169
  315MOL0     O42391   7.374   6.038   6.618 -0.1771  0.1722  0.3497
  315MOL0     C42392   7.321   5.938   6.558 -0.4588 -0.7124  0.0334
  315MOL0     O42393   7.192   5.895   6.594 -0.0084 -0.2037 -0.3269
  315MOL0     C42394   7.138   5.943   6.712 -0.4254 -0.7566 -1.4235
  315MOL0     C42395   7.170   5.887   6.841  0.2488  0.6651  0.8596
  315MOL0     C42396   7.123   5.963   6.951  0.3735  0.0522  0.6153
  315MOL0     C42397   7.063   6.092   6.943 -0.2214 -0.1418 -0.5230
  315MOL0     O42398   7.036   6.170   7.053  0.3790 -0.3016  0.8360
  315MOL0     C42399   7.011   6.109   7.177 -0.8138  0.3434  0.3576
  315MOL0     C42400   6.959   6.221   7.256  0.5194  0.4669 -0.2798
  315MOL0     C42401   6.944   6.170   7.400 -0.2904 -0.1076 -0.0951
  315MOL0     C42402   6.959   6.275   7.514  0.7131 -0.7730 -0.0550
  315MOL0     C42403   6.851   6.376   7.484 -0.4412  0.4393 -0.2511
  315MOL0     C42404   6.877   6.513   7.555 -0.4270 -0.4527 -0.4349
  315MOL0     C42405   6.769   6.613   7.520  0.0066 -0.5650  0.1394
  315MOL0     C42406   6.756   6.727   7.619 -0.0466  0.4512  0.9819
  315MOL0     N42407   6.893   6.796   7.622 -0.6976 -0.0839  0.6894
  315MOL0     C42408   6.969   6.831   7.513  0.1312 -0.7806 -0.7859
  315MOL0     C42409   7.083   6.880   7.568 -0.3927  0.1698 -0.0257
  315MOL0     C42410   7.213   6.897   7.495 -0.8225 -0.1975  0.8436
  315MOL0     C42411   7.296   6.768   7.517 -0.0693  0.7798  0.4454
  315MOL0     C42412   7.398   6.774   7.636  0.4618  0.8693  0.9246
  315MOL0     C42413   7.506   6.891   7.637  0.3838 -0.2129  0.0716
  315MOL0     O42414   7.638   6.834   7.620 -0.2083  0.3267  0.0876
  315MOL0     C42415   7.689   6.789   7.496  0.2927 -0.0364 -0.0514
  315MOL0     C42416   7.800   6.700   7.494  0.6989  0.5829 -0.0196
  315MOL0     C42417   7.861   6.671   7.376 -0.4263  0.1693 -0.5791
  315MOL0     C42418   7.812   6.711   7.248  0.1699 -0.6333  0.4017
  315MOL0     C42419   7.875   6.687   7.124  0.5820  0.0219  1.6781
  315MOL0     O42420   7.820   6.759   7.014  0.2629  0.0539 -0.7410
  315MOL0     C42421   7.865   6.744   6.877 -0.3333  1.0850  0.4891
  315MOL0     C42422   7.783   6.700   6.773  0.4880 -0.5362  0.2047
  315MOL0     C42423   7.834   6.709   6.643 -0.1534 -0.3217 -0.8219
  315MOL0     C42424   7.972   6.744   6.620  0.7495 -0.8783  0.1786
  315MOL0     O42425   8.003   6.762   6.488  0.6369 -0.2300  0.4665
  315MOL0     C42426   8.146   6.768   6.459  0.0051  0.0180 -0.2693
  315MOL0     C42427   8.197   6.909   6.456 -0.7973  0.4316 -0.1942
  315MOL0     C42428   8.342   6.915   6.431  0.4936 -0.3948 -0.3069
  315MOL0     C42429   8.381   7.040   6.360  0.4550  0.4404  1.2638
  315MOL0     C42430   8.543   7.056   6.356  1.0301 -0.1328  0.9649
  315MOL0     C42431   8.618   6.971   6.246  0.1856 -0.7367 -0.7646
  315MOL0     C42432   8.747   6.908   6.288 -0.6024 -0.2104 -0.4810
  315MOL0     C42433   8.864   7.018   6.295  0.3025  0.3376  0.6679
  315MOL0    Cl42434   8.902   7.042   6.132  0.0328 -0.6225  0.0401
  315MOL0     C42435   8.049   6.778   6.734  0.5337 -0.6505  0.9167
  315MOL0     C42436   7.997   6.769   6.856 -0.3546 -0.5653  0.7525
  315MOL0     O42437   7.961   6.597   7.118 -0.2533  0.9750  0.1139
  315MOL0     C42438   7.686   6.782   7.246  0.6908 -0.0810  0.2369
  315MOL0     C42439   7.624   6.828   7.371  0.0648  0.1058  0.0809
  315MOL0     N42440   7.070   6.884   7.715  0.1128  1.5885  0.7707
  315MOL0     N42441   6.961   6.826   7.739  0.2252 -0.0998  0.2883
  315MOL0     C42442   7.042   6.136   6.818 -1.3394 -0.5178  0.0781
  315MOL0     C42443   7.076   6.064   6.699  0.0276  0.1899 -0.0059
  315MOL0     C42444   7.407   5.869   6.452 -0.5453  0.3924  0.1790
  315MOL0     C42445   7.529   5.918   6.409 -0.4933 -0.1384 -0.9421
  315MOL0     C42446   7.621   5.852   6.322 -0.0651 -0.7479  0.1202
  315MOL0     C42447   7.581   5.726   6.276 -0.5259  0.2349  0.0879
  315MOL0     O42448   7.676   5.660   6.201  0.5319  0.2294  0.3354
  315MOL0     C42449   7.630   5.621   6.068  0.3733 -0.1194  1.1838
  315MOL0     C42450   7.735   5.522   6.000  0.5834 -0.6077  0.2338
  315MOL0     C42451   7.708   5.374   6.031 -0.4475  0.3485 -1.2460
  315MOL0     C42452   7.807   5.296   5.946 -0.5843 -0.2050 -0.0822
  315MOL0     C42453   7.786   5.154   5.966 -0.0980  1.0886 -0.1486
  315MOL0     C42454   7.745   5.043   5.986 -0.1301 -0.3612  0.5047
  315MOL0     C42455   7.456   5.672   6.322  0.3547 -0.4448  1.1191
  315MOL0     C42456   7.364   5.748   6.391 -0.3454 -0.0329 -0.6528
  315MOL0     C42457   7.232   5.678   6.421  0.7603  0.6342 -0.0279
  315MOL0     H42458   7.226   5.797   6.861  0.1405  0.4325  0.1450
  315MOL0     H42459   7.139   5.915   7.047 -1.4752  0.1660  1.0022
  315MOL0     H42460   6.944   6.023   7.172 -1.4454  0.8619 -0.5316
  315MOL0     H42461   7.103   6.058   7.207 -0.2857 -2.3685 -4.7057
  315MOL0     H42462   6.859   6.247   7.220  0.3621  2.7968  1.5550
  315MOL0     H42463   7.027   6.307   7.258  1.0998  0.0460 -1.3533
  315MOL0     H42464   7.023   6.097   7.421 -0.5995 -0.5577 -0.4758
  315MOL0     H42465   6.863   6.097   7.402 -0.6806  0.2642 -1.1997
  315MOL0     H42466   6.949   6.211   7.603 -4.0765 -4.7762 -2.8948
  315MOL0     H42467   7.054   6.327   7.504 -0.1272  0.5506 -1.6384
  315MOL0     H42468   6.861   6.406   7.379  0.5322  2.0013  0.2450
  315MOL0     H42469   6.754   6.327   7.497  0.3047 -0.7976  0.9076
  315MOL0     H42470   6.886   6.488   7.661  3.1835 -3.8058 -1.3342
  315MOL0     H42471   6.972   6.552   7.518  1.0435 -1.9430  1.5830
  315MOL0     H42472   6.666   6.576   7.520 -0.7310  1.2257  2.4877
  315MOL0     H42473   6.786   6.662   7.424 -3.4681  0.0639 -0.2917
  315MOL0     H42474   6.685   6.796   7.572  0.8720 -0.8027 -2.6056
  315MOL0     H42475   6.725   6.695   7.718  0.0210  1.5166  1.3629
  315MOL0     H42476   6.962   6.802   7.409  2.3987  0.3490 -1.3284
  315MOL0     H42477   7.187   6.909   7.390 -2.5969  0.5680  1.3347
  315MOL0     H42478   7.265   6.988   7.526 -1.0880 -0.3754  1.8535
  315MOL0     H42479   7.229   6.681   7.519  1.8435 -1.0564 -3.5640
  315MOL0     H42480   7.352   6.740   7.428  0.6967  0.7474  0.9344
  315MOL0     H42481   7.449   6.678   7.647 -1.9499 -0.5330  0.5468
  315MOL0     H42482   7.326   6.786   7.717  0.9295  0.0188  1.4850
  315MOL0     H42483   7.509   6.932   7.738  1.2629 -1.0610  0.4064
  315MOL0     H42484   7.469   6.964   7.564 -1.5251 -1.0878  0.1017
  315MOL0     H42485   7.844   6.662   7.586  0.1938  1.1054  0.4397
  315MOL0     H42486   7.955   6.620   7.393 -0.4716  0.5080  0.8761
  315MOL0     H42487   7.679   6.670   6.787  0.6751 -2.2323 -1.6407
  315MOL0     H42488   7.768   6.692   6.559  1.1757  1.7812 -2.3902
  315MOL0     H42489   8.196   6.706   6.534  0.9501  2.0101  0.8169
  315MOL0     H42490   8.171   6.731   6.359 -1.3794 -0.0193 -0.6197
  315MOL0     H42491   8.153   6.969   6.376  0.5214 -0.2841 -1.5244
  315MOL0     H42492   8.165   6.960   6.547  0.4549  0.4786  0.2353
  315MOL0     H42493   8.382   6.914   6.533 -1.7719 -0.7575  0.6600
  315MOL0     H42494   8.387   6.839   6.366 -0.8061 -3.0781  1.7001
  315MOL0     H42495   8.336   7.127   6.408  2.0016  1.4345  0.9831
  315MOL0     H42496   8.348   7.046   6.256  0.2142  2.9531  1.4244
  315MOL0     H42497   8.592   7.039   6.452  1.6093 -0.9165  0.5429
  315MOL0     H42498   8.564   7.160   6.330  0.5506  0.5060  2.9106
  315MOL0     H42499   8.559   6.891   6.203  1.0916 -0.3691 -2.8338
  315MOL0     H42500   8.635   7.034   6.158 -0.7622  0.1527 -0.3294
  315MOL0     H42501   8.776   6.819   6.230 -0.4982 -4.1365  4.8034
  315MOL0     H42502   8.744   6.859   6.386  4.2768  0.8339  0.4971
  315MOL0     H42503   8.821   7.109   6.336 -1.4311  0.0178 -0.3465
  315MOL0     H42504   8.961   6.992   6.339  1.5217 -0.6228 -2.3214
  315MOL0     H42505   8.148   6.819   6.719  0.5355 -0.7636  0.6070
  315MOL0     H42506   8.069   6.769   6.938  0.2636 -3.6542  0.3486
  315MOL0     H42507   7.631   6.804   7.156 -0.2108 -0.7638  0.6050
  315MOL0     H42508   7.541   6.895   7.388 -0.0043 -0.4223  2.0888
  315MOL0     H42509   6.978   6.223   6.821 -0.6490  0.1812  5.9302
  315MOL0     H42510   7.063   6.103   6.599  1.4305 -1.2636 -0.8047
  315MOL0     H42511   7.572   6.007   6.454 -2.2037  0.5073 -0.5330
  315MOL0     H42512   7.721   5.885   6.295 -0.2881 -0.6386 -0.6091
  315MOL0     H42513   7.632   5.713   6.009 -1.0497 -1.5947 -1.3588
  315MOL0     H42514   7.531   5.574   6.069 -0.1195  0.5504 -2.6252
  315MOL0     H42515   7.833   5.550   6.040  0.5877 -4.0957  3.1184
  315MOL0     H42516   7.713   5.535   5.894 -0.4877 -2.1335  0.2412
  315MOL0     H42517   7.606   5.346   6.003 -1.6936  0.9432  2.2473
  315MOL0     H42518   7.728   5.338   6.132 -1.4103 -0.3207 -1.2772
  315MOL0     H42519   7.792   5.323   5.841 -2.1219  1.0096  0.4015
  315MOL0     H42520   7.908   5.319   5.983 -1.1018  0.7552  0.8130
  315MOL0     H42521   7.707   4.943   5.990  2.1357 -1.3623 -0.7003
  315MOL0     H42522   7.425   5.575   6.283  1.9766 -1.1045  1.3791
  315MOL0     H42523   7.221   5.583   6.368 -0.6401  0.7666 -0.0080
  315MOL0     H42524   7.227   5.653   6.527 -0.8681  0.8487 -0.0362
  315MOL0     H42525   7.143   5.739   6.401 -0.2930 -0.8785 -0.1487
  316MOL0     O42526   8.550   3.361   6.855  0.3192 -0.8830 -0.7445
  316MOL0     C42527   8.645   3.425   6.812  0.3566 -0.5010  0.0490
  316MOL0     O42528   8.678   3.425   6.682  0.0135  0.1663 -0.1267
  316MOL0     C42529   8.608   3.359   6.589 -0.2314  0.1019  0.2176
  316MOL0     C42530   8.483   3.406   6.565 -0.9064  0.0359  1.3488
  316MOL0     C42531   8.418   3.354   6.454 -0.6420 -0.1197  0.0937
  316MOL0     C42532   8.486   3.261   6.375  0.1935  0.0895 -0.3756
  316MOL0     O42533   8.408   3.218   6.265 -0.3485  0.9144 -0.6324
  316MOL0     C42534   8.485   3.226   6.142  0.2109  0.0405  0.7972
  316MOL0     C42535   8.391   3.208   6.022 -1.0249 -0.5203  0.0584
  316MOL0     C42536   8.464   3.205   5.885 -0.1909 -0.8781 -0.7391
  316MOL0     C42537   8.352   3.222   5.783 -1.2357  0.8460  0.7347
  316MOL0     C42538   8.400   3.187   5.639  0.1039  0.1068 -0.4778
  316MOL0     C42539   8.461   3.316   5.572 -0.4997 -0.7694 -0.2069
  316MOL0     C42540   8.411   3.339   5.436 -0.1893  0.0180  0.7907
  316MOL0     C42541   8.267   3.384   5.419  0.6438 -0.7671 -0.5262
  316MOL0     N42542   8.240   3.442   5.285 -0.1141  0.1392  0.0667
  316MOL0     C42543   8.282   3.401   5.157  1.3031 -0.3702  0.3354
  316MOL0     C42544   8.226   3.498   5.073 -0.1236 -0.4513 -0.7440
  316MOL0     C42545   8.231   3.510   4.924  0.1434 -0.2575 -0.0937
  316MOL0     C42546   8.172   3.397   4.846  0.1524  0.7134 -0.3875
  316MOL0     C42547   8.017   3.398   4.850 -0.5338  0.3076  0.6215
  316MOL0     C42548   7.961   3.256   4.853 -0.5256  0.4814 -0.3355
  316MOL0     O42549   7.841   3.243   4.781  1.0063 -0.4706 -0.2533
  316MOL0     C42550   7.786   3.132   4.734  0.3304  0.9095  0.9900
  316MOL0     C42551   7.817   2.998   4.767  0.4409 -0.2754 -0.5521
  316MOL0     C42552   7.742   2.891   4.723 -0.7357 -0.3635 -0.3766
  316MOL0     C42553   7.638   2.904   4.630  0.0996  0.2888  0.4169
  316MOL0     C42554   7.558   2.788   4.571 -0.0905  0.2304 -1.3405
  316MOL0     O42555   7.593   2.661   4.615 -0.4633  0.5830  0.0172
  316MOL0     C42556   7.525   2.544   4.575 -0.2999 -0.3689 -0.7575
  316MOL0     C42557   7.589   2.421   4.596  0.2391 -0.6454  0.8440
  316MOL0     C42558   7.523   2.304   4.565 -0.1030 -0.3235  0.8055
  316MOL0     C42559   7.396   2.300   4.504 -0.8708  0.6298  0.0009
  316MOL0     O42560   7.331   2.184   4.470 -0.2767 -0.5102  0.0473
  316MOL0     C42561   7.236   2.139   4.571 -0.7295  1.5410 -0.2662
  316MOL0     C42562   7.118   2.230   4.622  0.6923  1.6973  0.2576
  316MOL0     C42563   6.994   2.151   4.673 -0.7991 -0.6069  0.0138
  316MOL0     C42564   7.021   2.092   4.812  0.2422  0.5079  0.3634
  316MOL0     C42565   6.921   1.995   4.851  0.6905  0.8864 -0.0827
  316MOL0     C42566   6.908   1.976   5.001 -0.5814 -0.8456 -0.5683
  316MOL0     C42567   6.841   1.842   5.044  0.0115 -0.7749 -0.8479
  316MOL0     C42568   6.835   1.813   5.195 -0.5568 -0.1940  0.5060
  316MOL0    Cl42569   6.993   1.750   5.244 -0.6104 -0.4154 -0.0459
  316MOL0     C42570   7.333   2.424   4.473 -0.4929 -0.1882  1.2052
  316MOL0     C42571   7.396   2.546   4.518  0.6324 -0.3895  0.4456
  316MOL0     O42572   7.465   2.818   4.501  0.2577 -0.3010  0.3961
  316MOL0     C42573   7.615   3.035   4.579  0.2008  0.3142 -0.2842
  316MOL0     C42574   7.681   3.145   4.634  0.5568  0.4851 -1.0321
  316MOL0     N42575   8.162   3.593   5.147  1.3539 -0.0609 -0.6704
  316MOL0     N42576   8.171   3.557   5.268  0.8021 -0.5854 -0.8332
  316MOL0     C42577   8.618   3.214   6.397  1.2614  0.4390 -0.6534
  316MOL0     C42578   8.677   3.263   6.513 -1.0661  0.2964  0.4578
  316MOL0     C42579   8.731   3.517   6.889 -0.3092  0.0885 -0.7526
  316MOL0     C42580   8.799   3.620   6.823  0.0592 -0.0144  0.2787
  316MOL0     C42581   8.879   3.707   6.893  0.0866 -0.2066 -0.9080
  316MOL0     C42582   8.899   3.699   7.035  0.8790 -0.2381 -0.1158
  316MOL0     O42583   8.983   3.787   7.099  0.5320 -0.1759 -0.1007
  316MOL0     C42584   9.008   3.760   7.239 -0.2404  0.1449  0.3312
  316MOL0     C42585   9.107   3.866   7.285  0.6186 -0.4332  0.3504
  316MOL0     C42586   9.122   3.872   7.441  0.7693  0.5041  0.0400
  316MOL0     C42587   9.176   4.005   7.486  0.2109  0.9267  0.0078
  316MOL0     C42588   9.292   4.046   7.408  0.0335 -0.1894 -0.1887
  316MOL0     C42589   9.397   4.072   7.344 -0.0960 -0.2183 -0.3488
  316MOL0     C42590   8.836   3.595   7.098  0.2605 -0.5728 -0.4463
  316MOL0     C42591   8.765   3.497   7.026 -0.0072  0.4033  0.5554
  316MOL0     C42592   8.704   3.381   7.099 -0.1067 -0.1098  0.0741
  316MOL0     H42593   8.439   3.479   6.632 -1.6417  1.5977 -0.6983
  316MOL0     H42594   8.313   3.373   6.439 -1.8213 -1.8466  4.4184
  316MOL0     H42595   8.541   3.320   6.148 -0.4985  0.5256  0.0417
  316MOL0     H42596   8.556   3.144   6.137  2.5672  2.0442 -2.3116
  316MOL0     H42597   8.316   3.287   6.025 -0.2244  0.2370  1.5714
  316MOL0     H42598   8.339   3.115   6.047  0.6148 -1.0507  1.7929
  316MOL0     H42599   8.517   3.109   5.879  2.2568  0.4325 -1.9359
  316MOL0     H42600   8.536   3.286   5.873 -3.1044  2.2820  1.4774
  316MOL0     H42601   8.278   3.148   5.812 -0.9109 -0.1893 -0.9070
  316MOL0     H42602   8.295   3.315   5.782  0.7130  2.1153 -0.1149
  316MOL0     H42603   8.462   3.098   5.626  0.3977  0.1959  0.2739
  316MOL0     H42604   8.312   3.162   5.579  0.0005 -0.3715 -0.1244
  316MOL0     H42605   8.448   3.409   5.627 -1.5880 -0.9958 -0.0623
  316MOL0     H42606   8.570   3.303   5.575  0.0591  2.8994 -0.1243
  316MOL0     H42607   8.428   3.253   5.370  1.5424  3.2259 -3.4432
  316MOL0     H42608   8.484   3.412   5.400  0.1308 -1.0543 -0.8869
  316MOL0     H42609   8.199   3.299   5.427  2.3264 -2.0619  0.8083
  316MOL0     H42610   8.248   3.461   5.495 -0.9968 -1.9977  0.3678
  316MOL0     H42611   8.356   3.330   5.122  0.4699 -0.8450 -0.5089
  316MOL0     H42612   8.178   3.599   4.889  1.9992  0.4618 -1.2460
  316MOL0     H42613   8.336   3.527   4.900  0.6329 -2.5159  0.2143
  316MOL0     H42614   8.209   3.419   4.746  0.2029 -0.4603 -0.6430
  316MOL0     H42615   8.211   3.300   4.878 -0.1570  0.5299 -0.5617
  316MOL0     H42616   7.986   3.450   4.759  1.5656  0.5633  0.0100
  316MOL0     H42617   7.982   3.450   4.941  2.8077  0.1942  2.1037
  316MOL0     H42618   7.956   3.217   4.955  1.4513  1.0338  0.0285
  316MOL0     H42619   8.032   3.186   4.806  0.7664  0.0754  2.0328
  316MOL0     H42620   7.912   2.986   4.819  1.2577 -5.8986 -2.6036
  316MOL0     H42621   7.774   2.796   4.764  0.0919 -1.2342 -2.8385
  316MOL0     H42622   7.697   2.411   4.608  1.0213  4.6589  0.8973
  316MOL0     H42623   7.577   2.210   4.572  0.7128  0.1261  0.6010
  316MOL0     H42624   7.208   2.040   4.533  4.0968 -0.4350  0.6047
  316MOL0     H42625   7.297   2.119   4.660  3.6270  1.3030 -2.9968
  316MOL0     H42626   7.145   2.302   4.699 -0.9157  0.6947  1.8299
  316MOL0     H42627   7.090   2.275   4.526  2.3102 -2.2077 -2.3641
  316MOL0     H42628   6.916   2.227   4.682  2.9200  4.5298 -4.4024
  316MOL0     H42629   6.960   2.072   4.605  2.8512 -4.7052  2.4514
  316MOL0     H42630   7.041   2.166   4.890  0.5423  1.1302 -0.2889
  316MOL0     H42631   7.117   2.039   4.809  0.3909  0.7172  1.2103
  316MOL0     H42632   6.935   1.891   4.821 -4.5716 -0.6472  1.6503
  316MOL0     H42633   6.821   2.022   4.814  0.7530  1.8826  0.4366
  316MOL0     H42634   7.014   1.991   5.027 -1.2841 -0.2367  2.3247
  316MOL0     H42635   6.850   2.058   5.045 -0.4577 -1.8474  1.5670
  316MOL0     H42636   6.902   1.769   4.989  0.3033  0.4086 -2.1430
  316MOL0     H42637   6.740   1.835   5.004 -0.3869 -2.4078  0.3003
  316MOL0     H42638   6.817   1.910   5.243 -0.4217 -0.2063  0.5847
  316MOL0     H42639   6.760   1.738   5.220  0.1218 -0.3720  2.1573
  316MOL0     H42640   7.235   2.425   4.427  0.0975  3.1744 -0.2273
  316MOL0     H42641   7.330   2.631   4.530 -1.7910 -2.1545  0.4536
  316MOL0     H42642   7.539   3.058   4.505  1.3034  0.9512 -1.2445
  316MOL0     H42643   7.642   3.245   4.617 -0.7211 -0.3544 -3.5055
  316MOL0     H42644   8.670   3.152   6.324  5.8445  1.7649  1.1343
  316MOL0     H42645   8.784   3.252   6.525  0.3797  3.1970 -5.7198
  316MOL0     H42646   8.796   3.643   6.717 -0.4465 -1.2062  0.0210
  316MOL0     H42647   8.936   3.783   6.840  0.2579  1.3141  1.3081
  316MOL0     H42648   9.054   3.662   7.248 -0.2354  0.0895 -0.2752
  316MOL0     H42649   8.920   3.758   7.305 -1.8789 -2.1300 -1.7577
  316MOL0     H42650   9.075   3.961   7.240 -1.4341 -1.4184 -0.3900
  316MOL0     H42651   9.206   3.834   7.252  2.5207 -0.4135  5.2362
  316MOL0     H42652   9.189   3.793   7.475  0.2327 -0.4442 -1.0269
  316MOL0     H42653   9.025   3.857   7.489  0.1005 -1.2603 -1.7164
  316MOL0     H42654   9.090   4.072   7.479 -0.2194  0.4876  0.9268
  316MOL0     H42655   9.202   3.980   7.590 -1.1440 -3.2252 -0.5049
  316MOL0     H42656   9.483   4.106   7.290 -0.5339 -1.5112 -1.9456
  316MOL0     H42657   8.847   3.594   7.206  0.5878 -2.3842 -0.4686
  316MOL0     H42658   8.751   3.372   7.197  1.3888  2.0983 -0.3639
  316MOL0     H42659   8.595   3.393   7.104 -0.3949 -1.7181 -1.3662
  316MOL0     H42660   8.736   3.288   7.052  3.0218  0.4499  0.9085
  317MOL0     O42661   0.452   4.045   9.074  0.4081 -0.9527 -0.3231
  317MOL0     C42662   0.378   3.955   9.051  0.2155  0.0489 -0.0242
  317MOL0     O42663   0.309   3.938   8.932  0.2441 -0.1181 -0.7057
  317MOL0     C42664   0.345   4.031   8.845  0.5578 -1.1364 -0.1148
  317MOL0     C42665   0.247   4.125   8.800 -0.6012  0.5568  0.1203
  317MOL0     C42666   0.278   4.223   8.699  0.4532  0.8458  0.5107
  317MOL0     C42667   0.406   4.225   8.648  0.4644  0.6253  0.0683
  317MOL0     O42668   0.418   4.303   8.536  0.4994 -0.9347 -0.6966
  317MOL0     C42669   0.537   4.339   8.470  0.1500 -0.0687  0.4934
  317MOL0     C42670   0.524   4.474   8.409 -0.5394 -0.0648  0.1205
  317MOL0     C42671   0.426   4.483   8.294  0.3565  0.3949 -0.2652
  317MOL0     C42672   0.291   4.545   8.340 -0.4102  0.2782 -0.1076
  317MOL0     C42673   0.204   4.591   8.223  0.3973  0.2173  0.5395
  317MOL0     C42674   0.106   4.708   8.275  0.2957  0.3609  0.4422
  317MOL0     C42675   0.054   4.764   8.139  0.2639  0.2315 -0.8842
  317MOL0     C42676  -0.062   4.860   8.153  0.5433  0.6457 -0.2382
  317MOL0     N42677  -0.193   4.796   8.173  0.2282 -0.6127  0.5097
  317MOL0     C42678  -0.269   4.747   8.073  0.2769  1.0594 -1.0627
  317MOL0     C42679  -0.379   4.687   8.130 -0.8249  0.0887 -1.2214
  317MOL0     C42680  -0.496   4.626   8.073  0.2727  0.2710  0.4968
  317MOL0     C42681  -0.507   4.482   8.118  0.1402 -0.0385  0.3678
  317MOL0     C42682  -0.650   4.440   8.092 -0.0899  0.6783  0.7432
  317MOL0     C42683  -0.679   4.379   7.959 -0.7320 -0.0213  0.0097
  317MOL0     O42684  -0.647   4.246   7.969 -0.0418  0.0707  0.2737
  317MOL0     C42685  -0.686   4.184   7.848 -0.3642  0.0782 -0.5641
  317MOL0     C42686  -0.780   4.234   7.747  0.6249  1.7871 -0.2708
  317MOL0     C42687  -0.812   4.152   7.640 -0.0385  0.5583  0.1666
  317MOL0     C42688  -0.772   4.015   7.636 -0.2051 -0.0578 -0.3452
  317MOL0     C42689  -0.829   3.917   7.531 -0.2673  0.9554 -0.3506
  317MOL0     O42690  -0.783   3.782   7.550  0.3441 -0.1118  0.1822
  317MOL0     C42691  -0.815   3.685   7.464  0.9331  0.6395 -1.0220
  317MOL0     C42692  -0.802   3.552   7.517  0.2316 -0.7207 -0.3850
  317MOL0     C42693  -0.821   3.440   7.437 -0.3052  0.1536 -0.0863
  317MOL0     C42694  -0.844   3.460   7.298  0.6796  0.1713 -0.0342
  317MOL0     O42695  -0.834   3.370   7.200  0.6010 -0.0434 -0.2072
  317MOL0     C42696  -0.794   3.236   7.230  0.2529  0.1854  1.1684
  317MOL0     C42697  -0.823   3.164   7.095 -0.5447  1.0742  0.2791
  317MOL0     C42698  -0.787   3.018   7.101 -0.2748  0.4893  0.3074
  317MOL0     C42699  -0.826   2.941   6.972 -0.2226 -0.4261 -1.3054
  317MOL0     C42700  -0.767   2.802   6.966  0.1420 -0.4816 -0.3986
  317MOL0     C42701  -0.830   2.724   6.848 -0.7775  0.2680  1.0530
  317MOL0     C42702  -0.953   2.658   6.899 -0.3476  0.0994  0.0299
  317MOL0     C42703  -1.021   2.571   6.790 -0.4005 -1.3875  0.7429
  317MOL0    Cl42704  -1.114   2.676   6.686 -0.1897  0.1087 -0.0738
  317MOL0     C42705  -0.885   3.583   7.246  0.2755 -0.7381  0.1800
  317MOL0     C42706  -0.873   3.696   7.329  0.1667 -0.5341  0.4253
  317MOL0     O42707  -0.907   3.955   7.445 -0.1536  0.3444  0.1656
  317MOL0     C42708  -0.690   3.973   7.733 -0.8183  0.4024 -0.1785
  317MOL0     C42709  -0.642   4.052   7.839 -0.5340  0.1618  0.9592
  317MOL0     N42710  -0.352   4.688   8.269  0.1848 -0.2223 -0.2083
  317MOL0     N42711  -0.244   4.753   8.289  0.1270 -0.2003 -0.7245
  317MOL0     C42712   0.503   4.125   8.690 -0.6113 -1.0546  0.3838
  317MOL0     C42713   0.476   4.039   8.787  0.0671 -0.2988  0.2455
  317MOL0     C42714   0.392   3.839   9.145  0.7623  0.3761 -0.3896
  317MOL0     C42715   0.272   3.775   9.188 -0.4937  0.6737  0.5482
  317MOL0     C42716   0.277   3.669   9.273 -0.3367  0.8172  0.2192
  317MOL0     C42717   0.393   3.626   9.334 -1.2778  0.7397  0.8472
  317MOL0     O42718   0.393   3.523   9.423 -0.6015 -0.5573 -0.2630
  317MOL0     C42719   0.511   3.464   9.479 -0.4398 -0.1735  0.7934
  317MOL0     C42720   0.495   3.316   9.506 -0.0240 -0.0632  0.1749
  317MOL0     C42721   0.423   3.303   9.636 -0.7313  0.1322 -0.3608
  317MOL0     C42722   0.412   3.156   9.668 -0.0083 -0.5550 -0.1890
  317MOL0     C42723   0.382   3.138   9.808 -0.2452  0.6857  0.1259
  317MOL0     C42724   0.361   3.113   9.929 -1.2417 -0.1709  0.8476
  317MOL0     C42725   0.511   3.681   9.278  0.1554 -0.4502  0.1788
  317MOL0     C42726   0.509   3.785   9.188  0.2227 -0.4926 -0.3818
  317MOL0     C42727   0.649   3.834   9.151 -0.1660  0.0427 -0.5644
  317MOL0     H42728   0.156   4.141   8.856  0.3921  3.4910  1.1118
  317MOL0     H42729   0.211   4.302   8.668 -0.0381  0.2668  0.0619
  317MOL0     H42730   0.620   4.355   8.539  0.0852  0.1572  0.5172
  317MOL0     H42731   0.571   4.261   8.400  1.3678 -2.2714  3.3568
  317MOL0     H42732   0.624   4.506   8.378 -0.8524 -0.2795 -1.1592
  317MOL0     H42733   0.499   4.545   8.488 -2.1027 -0.9838  0.4954
  317MOL0     H42734   0.402   4.389   8.243 -2.5376  0.9142 -0.0316
  317MOL0     H42735   0.478   4.556   8.231 -0.6598  1.0946 -0.3151
  317MOL0     H42736   0.236   4.472   8.401 -1.3522  0.1954 -1.0258
  317MOL0     H42737   0.310   4.630   8.407  0.2525 -1.7534  2.4439
  317MOL0     H42738   0.260   4.619   8.133  0.4752 -2.1442 -0.2259
  317MOL0     H42739   0.146   4.504   8.192  3.0322 -0.9507 -1.4977
  317MOL0     H42740   0.027   4.661   8.335 -0.0300 -2.2562 -1.8122
  317MOL0     H42741   0.155   4.795   8.320  0.4211 -0.5350  2.0941
  317MOL0     H42742   0.016   4.683   8.076 -1.8863  0.8521 -0.4661
  317MOL0     H42743   0.136   4.814   8.088  0.4359  1.1024  0.2159
  317MOL0     H42744  -0.035   4.927   8.235 -0.8012  1.1519 -0.1870
  317MOL0     H42745  -0.062   4.921   8.062 -1.3102 -0.8987 -1.3512
  317MOL0     H42746  -0.250   4.757   7.966 -7.0348 -0.1539 -3.0074
  317MOL0     H42747  -0.577   4.693   8.105  1.8752  0.9319  3.6832
  317MOL0     H42748  -0.502   4.632   7.964 -6.7113  0.0169  0.4376
  317MOL0     H42749  -0.432   4.414   8.076 -2.0432 -1.2035 -1.9180
  317MOL0     H42750  -0.476   4.498   8.222  1.9396  2.3335 -0.4649
  317MOL0     H42751  -0.717   4.525   8.113 -0.8295 -0.4796  3.6148
  317MOL0     H42752  -0.685   4.361   8.159  1.4128 -1.4546 -0.8654
  317MOL0     H42753  -0.617   4.438   7.890  3.4318 -2.4039  1.3332
  317MOL0     H42754  -0.784   4.399   7.938 -0.0164  0.8928 -3.1822
  317MOL0     H42755  -0.833   4.327   7.763 -0.6922  1.2810 -1.5091
  317MOL0     H42756  -0.892   4.179   7.572 -2.2218  0.2527  2.4784
  317MOL0     H42757  -0.789   3.538   7.624 -0.8545 -2.0558 -0.3985
  317MOL0     H42758  -0.815   3.337   7.469  1.7636 -0.1428 -1.2235
  317MOL0     H42759  -0.693   3.227   7.272  0.6800  1.5073  0.4806
  317MOL0     H42760  -0.859   3.194   7.307  2.2301 -2.1173  1.7336
  317MOL0     H42761  -0.931   3.170   7.078 -0.9628 -0.7782  1.9677
  317MOL0     H42762  -0.766   3.215   7.016 -1.1220  1.6314  0.2081
  317MOL0     H42763  -0.682   3.006   7.129 -0.4734  0.8588  1.2479
  317MOL0     H42764  -0.846   2.973   7.181 -0.6853  2.4508  1.1740
  317MOL0     H42765  -0.794   3.007   6.891 -2.3243  1.4556 -0.6945
  317MOL0     H42766  -0.934   2.931   6.963 -0.2177 -2.0034 -0.1615
  317MOL0     H42767  -0.781   2.748   7.060 -0.5053  0.2311 -0.0786
  317MOL0     H42768  -0.660   2.817   6.945  0.8294 -1.1598  2.2372
  317MOL0     H42769  -0.850   2.796   6.769 -1.9894  3.0203  3.6459
  317MOL0     H42770  -0.753   2.654   6.813  2.0491  2.9631  1.3929
  317MOL0     H42771  -1.029   2.721   6.945 -0.2939  0.1199  0.0893
  317MOL0     H42772  -0.914   2.580   6.965 -3.4220  0.5546  2.6331
  317MOL0     H42773  -0.945   2.516   6.735  0.0742 -1.3062  1.2984
  317MOL0     H42774  -1.077   2.494   6.844 -0.7808 -1.7171 -0.1139
  317MOL0     H42775  -0.919   3.603   7.145 -0.3028 -2.1889  0.0689
  317MOL0     H42776  -0.895   3.792   7.285  0.3027  0.0831  1.6439
  317MOL0     H42777  -0.653   3.875   7.760  3.2001  1.4177 -1.2670
  317MOL0     H42778  -0.559   4.009   7.895 -0.1077 -2.5026 -1.4845
  317MOL0     H42779   0.602   4.116   8.646 -1.2568 -2.4023 -0.8644
  317MOL0     H42780   0.548   3.971   8.832 -2.1010 -2.7750  0.1930
  317MOL0     H42781   0.174   3.810   9.157 -1.4576 -2.0584  0.2425
  317MOL0     H42782   0.185   3.618   9.302 -0.6646  1.2221 -0.1106
  317MOL0     H42783   0.549   3.530   9.558  0.0525 -0.8874  1.1677
  317MOL0     H42784   0.586   3.450   9.401 -0.1446 -1.9524  1.3440
  317MOL0     H42785   0.597   3.277   9.514  0.1200  0.7010  2.9108
  317MOL0     H42786   0.440   3.267   9.425 -1.1587  1.6148 -0.1254
  317MOL0     H42787   0.323   3.347   9.635 -2.0232 -2.6306 -1.5723
  317MOL0     H42788   0.486   3.343   9.716  1.0393  0.3286 -1.8021
  317MOL0     H42789   0.328   3.117   9.610 -1.7993 -1.6421  2.9520
  317MOL0     H42790   0.512   3.112   9.660 -0.4063 -1.7049  0.9832
  317MOL0     H42791   0.339   3.085  10.030  0.3600 -0.7052  1.0801
  317MOL0     H42792   0.614   3.660   9.306  0.1757  1.6284  1.9715
  317MOL0     H42793   0.683   3.919   9.210 -0.1295 -0.2906 -0.1010
  317MOL0     H42794   0.731   3.767   9.176  3.0126  3.5091 -0.8419
  317MOL0     H42795   0.654   3.858   9.044 -1.6156 -1.0741 -0.9210
  318MOL0     O42796   4.558   7.651   8.392  0.3756  0.0288 -0.0882
  318MOL0     C42797   4.472   7.687   8.470 -0.4028 -0.2694 -0.4928
  318MOL0     O42798   4.423   7.618   8.566 -0.5745  0.3197  0.5605
  318MOL0     C42799   4.421   7.483   8.581 -0.9184  0.2725  0.8224
  318MOL0     C42800   4.346   7.437   8.691 -0.1380  0.0975 -0.3595
  318MOL0     C42801   4.347   7.301   8.733 -0.0094  0.8186  0.9940
  318MOL0     C42802   4.420   7.207   8.659 -0.4646  0.8333  0.7704
  318MOL0     O42803   4.426   7.079   8.692  0.3853  0.2106 -0.1349
  318MOL0     C42804   4.420   7.040   8.830 -0.2522 -0.1883 -0.8772
  318MOL0     C42805   4.283   6.988   8.879 -0.3311 -0.2474  0.8824
  318MOL0     C42806   4.289   6.940   9.022  0.4307  0.0512 -0.1448
  318MOL0     C42807   4.323   7.058   9.118  1.0914  0.0161 -0.3822
  318MOL0     C42808   4.259   7.047   9.262  0.7266 -0.4465  1.2901
  318MOL0     C42809   4.291   7.170   9.338 -0.0704 -0.6606 -1.1649
  318MOL0     C42810   4.429   7.182   9.394  1.0614 -0.9350  0.0655
  318MOL0     C42811   4.489   7.074   9.484 -0.7071  0.5509  0.1439
  318MOL0     N42812   4.605   7.002   9.414  0.3823 -0.3120  0.2620
  318MOL0     C42813   4.742   6.990   9.426  0.1706 -0.5901 -0.0057
  318MOL0     C42814   4.783   6.883   9.340  0.2408 -0.4071 -0.7440
  318MOL0     C42815   4.925   6.823   9.331 -0.1275  0.8083 -0.1208
  318MOL0     C42816   4.930   6.667   9.324 -0.5763 -0.1208 -0.9279
  318MOL0     C42817   5.060   6.611   9.385 -0.2818 -0.6492 -1.0413
  318MOL0     C42818   5.064   6.467   9.378 -0.0242  0.4166  0.7077
  318MOL0     O42819   5.113   6.404   9.502 -0.0965  0.3774 -0.2634
  318MOL0     C42820   5.150   6.265   9.507 -0.0834 -1.1182 -0.4988
  318MOL0     C42821   5.096   6.173   9.431  0.1309  0.5729 -0.3272
  318MOL0     C42822   5.130   6.038   9.442  0.1452 -0.4411  0.1795
  318MOL0     C42823   5.225   5.989   9.540 -1.1190 -0.0197  0.5068
  318MOL0     C42824   5.273   5.848   9.539 -0.0928  0.4503 -0.2730
  318MOL0     O42825   5.361   5.802   9.638 -0.5459  0.2681 -0.3676
  318MOL0     C42826   5.417   5.679   9.628 -0.7062 -0.4148 -0.0330
  318MOL0     C42827   5.435   5.607   9.740 -0.5099 -0.3068 -0.5980
  318MOL0     C42828   5.497   5.481   9.734 -0.7863  0.4091 -0.9485
  318MOL0     C42829   5.552   5.429   9.623 -0.3572 -0.0491  0.0142
  318MOL0     O42830   5.603   5.304   9.626  0.1235  0.1261 -0.3889
  318MOL0     C42831   5.702   5.258   9.535 -0.1037  1.1311 -0.8665
  318MOL0     C42832   5.836   5.324   9.571  0.2870  0.1079  0.3516
  318MOL0     C42833   5.945   5.267   9.485  0.1394 -0.2341 -0.4147
  318MOL0     C42834   6.083   5.321   9.524 -0.3652  0.3659  0.5699
  318MOL0     C42835   6.187   5.260   9.425  0.5178  0.3428 -0.4629
  318MOL0     C42836   6.178   5.318   9.287  0.1980 -0.0258  0.1734
  318MOL0     C42837   6.239   5.224   9.170 -0.0183 -0.0829  0.0623
  318MOL0     C42838   6.224   5.279   9.027  0.7473 -1.2895 -0.3245
  318MOL0    Cl42839   6.302   5.434   9.000 -0.1416  0.5364  0.0940
  318MOL0     C42840   5.542   5.512   9.507 -0.2328 -0.4748  0.7892
  318MOL0     C42841   5.476   5.636   9.510 -1.0009  0.1837 -0.0356
  318MOL0     O42842   5.237   5.786   9.440  0.4116 -0.0101 -0.0836
  318MOL0     C42843   5.280   6.086   9.622 -0.1630 -0.0476 -0.1279
  318MOL0     C42844   5.244   6.224   9.606 -0.1857 -0.2499  0.5071
  318MOL0     N42845   4.673   6.849   9.255 -0.5748  0.2449  0.4050
  318MOL0     N42846   4.579   6.913   9.311 -0.0671  0.5646  0.0352
  318MOL0     C42847   4.483   7.241   8.538 -0.0706  0.2554  0.2276
  318MOL0     C42848   4.485   7.386   8.496  0.7126 -0.4244  0.1895
  318MOL0     C42849   4.436   7.828   8.459  0.3324  0.0614 -0.3225
  318MOL0     C42850   4.442   7.877   8.329  0.5535 -0.9581  0.1146
  318MOL0     C42851   4.392   8.005   8.305 -0.3015  0.2919  0.6568
  318MOL0     C42852   4.324   8.084   8.394  1.0403 -0.1184  0.1453
  318MOL0     O42853   4.265   8.203   8.369  0.3981 -0.8657 -0.0445
  318MOL0     C42854   4.351   8.301   8.296  0.4657  0.4907 -0.7942
  318MOL0     C42855   4.439   8.370   8.406  0.0379  0.6498  0.0122
  318MOL0     C42856   4.543   8.448   8.341 -0.8347 -0.1885  0.5855
  318MOL0     C42857   4.635   8.511   8.439  0.9405 -0.1844  0.2652
  318MOL0     C42858   4.750   8.572   8.383 -0.6893 -0.2189 -0.2028
  318MOL0     C42859   4.852   8.635   8.377 -0.1336  1.0490 -0.2926
  318MOL0     C42860   4.321   8.031   8.528  0.7337  0.7595 -0.0860
  318MOL0     C42861   4.375   7.906   8.566 -0.6407  0.4187  0.3193
  318MOL0     C42862   4.367   7.867   8.714 -0.0008  0.9173  0.0847
  318MOL0     H42863   4.295   7.502   8.761 -0.0460 -2.1245  1.9183
  318MOL0     H42864   4.287   7.286   8.822 -1.9807 -0.3118 -0.4625
  318MOL0     H42865   4.498   6.964   8.831  2.7005  2.5995 -0.1681
  318MOL0     H42866   4.457   7.123   8.892 -1.6478  0.6008 -1.0469
  318MOL0     H42867   4.254   6.909   8.810  1.6301 -1.6526  1.5763
  318MOL0     H42868   4.210   7.070   8.876  0.6456  0.6455  0.7258
  318MOL0     H42869   4.361   6.859   9.039 -0.5112 -1.2296 -1.8735
  318MOL0     H42870   4.192   6.899   9.050 -1.1451  3.4097 -0.2876
  318MOL0     H42871   4.432   7.065   9.116  1.4127 -3.1808  0.1925
  318MOL0     H42872   4.296   7.150   9.066  2.2774  0.8210  0.3640
  318MOL0     H42873   4.150   7.038   9.258  0.5920  0.8655 -1.9072
  318MOL0     H42874   4.294   6.950   9.297 -0.4121 -1.1187  0.6407
  318MOL0     H42875   4.275   7.264   9.284 -2.4832  0.1224  0.7073
  318MOL0     H42876   4.221   7.165   9.422 -0.3830 -4.1130 -1.5138
  318MOL0     H42877   4.443   7.272   9.454  1.5711 -1.0652  0.1480
  318MOL0     H42878   4.489   7.187   9.303 -3.2202  0.6143 -2.9701
  318MOL0     H42879   4.530   7.111   9.579  1.5773  1.9823 -1.3046
  318MOL0     H42880   4.421   6.996   9.518  2.3213 -1.1059  2.9903
  318MOL0     H42881   4.809   7.036   9.497 -0.5651 -1.1780  1.0953
  318MOL0     H42882   4.972   6.850   9.236 -1.3576  1.1482 -0.6460
  318MOL0     H42883   4.982   6.862   9.416 -1.1412 -1.9799  1.9803
  318MOL0     H42884   4.846   6.634   9.385  0.3187 -1.5656 -0.4332
  318MOL0     H42885   4.930   6.635   9.220  0.6480  0.3701 -1.0986
  318MOL0     H42886   5.043   6.637   9.490  0.8728 -0.3612 -0.9077
  318MOL0     H42887   5.149   6.672   9.366 -1.7107  2.4195  1.1540
  318MOL0     H42888   5.135   6.427   9.305 -1.5359 -3.4013  1.1074
  318MOL0     H42889   4.960   6.443   9.355 -0.2516  0.9219  1.1978
  318MOL0     H42890   5.010   6.202   9.372  3.0265  0.5289 -5.0981
  318MOL0     H42891   5.071   5.965   9.387 -0.2074 -1.2682  1.5899
  318MOL0     H42892   5.401   5.643   9.836 -3.4108 -2.8309 -0.5435
  318MOL0     H42893   5.502   5.417   9.821  1.4495  1.0512 -0.5439
  318MOL0     H42894   5.719   5.150   9.540  2.6047  1.5375  0.7959
  318MOL0     H42895   5.690   5.277   9.428 -0.2778 -2.0637 -1.5303
  318MOL0     H42896   5.817   5.431   9.562 -0.5225 -0.2178 -3.5226
  318MOL0     H42897   5.860   5.297   9.674  2.4822 -2.1035 -0.6326
  318MOL0     H42898   5.949   5.158   9.488 -1.2929 -0.3333 -1.4754
  318MOL0     H42899   5.924   5.286   9.380 -1.3573  1.4161  0.1389
  318MOL0     H42900   6.101   5.278   9.623 -2.2616 -1.5701  0.1495
  318MOL0     H42901   6.095   5.429   9.517 -1.9586  0.4857 -1.8078
  318MOL0     H42902   6.170   5.152   9.424  1.4061  0.1690 -3.2659
  318MOL0     H42903   6.291   5.268   9.457  1.5973 -4.9610 -1.7408
  318MOL0     H42904   6.081   5.358   9.255  1.4357  1.0423 -2.5848
  318MOL0     H42905   6.240   5.408   9.297  2.1259 -1.5124  3.3232
  318MOL0     H42906   6.193   5.125   9.176  1.7744 -0.8650  2.8224
  318MOL0     H42907   6.346   5.212   9.185  0.1169  0.6988 -0.2168
  318MOL0     H42908   6.275   5.210   8.958  2.5102  1.5072 -1.9950
  318MOL0     H42909   6.119   5.288   9.000  0.6188  2.0778  0.8905
  318MOL0     H42910   5.577   5.468   9.415  1.6425  2.0147  0.1746
  318MOL0     H42911   5.468   5.707   9.428  0.7778  0.9851  0.4193
  318MOL0     H42912   5.353   6.069   9.700  0.7722  1.6332 -0.5845
  318MOL0     H42913   5.292   6.300   9.666 -0.1282 -1.9386  2.7294
  318MOL0     H42914   4.537   7.165   8.483 -2.8136  0.8070 -3.6031
  318MOL0     H42915   4.529   7.419   8.403 -0.8302 -1.4515 -0.9493
  318MOL0     H42916   4.486   7.814   8.252 -2.2266 -2.4299 -0.4230
  318MOL0     H42917   4.415   8.033   8.203  0.1827 -3.6553 -0.4788
  318MOL0     H42918   4.294   8.379   8.246  0.1143  0.0626 -1.0651
  318MOL0     H42919   4.410   8.249   8.221 -0.8866  1.8896 -2.9203
  318MOL0     H42920   4.488   8.304   8.477 -1.5646 -1.3420 -0.6267
  318MOL0     H42921   4.376   8.443   8.457  0.4832 -0.3250  2.0390
  318MOL0     H42922   4.496   8.524   8.277  0.5224  1.0848  1.0563
  318MOL0     H42923   4.604   8.379   8.281  1.0505 -0.7118  2.9583
  318MOL0     H42924   4.576   8.584   8.496 -0.3433 -1.5758  0.8098
  318MOL0     H42925   4.666   8.444   8.520  0.3219  0.6254  1.2056
  318MOL0     H42926   4.943   8.691   8.369 -0.1424  1.3078  1.1636
  318MOL0     H42927   4.296   8.093   8.614  1.0716  0.3098  0.3414
  318MOL0     H42928   4.453   7.802   8.734  1.1568  1.4491 -2.6759
  318MOL0     H42929   4.377   7.960   8.770 -1.2985 -0.4628  2.8099
  318MOL0     H42930   4.276   7.812   8.738  0.7844  0.4926  2.3466
  319MOL0     O42931   5.623  11.380   6.640  0.1094 -0.2190 -0.0276
  319MOL0     C42932   5.614  11.313   6.739 -0.0863  0.9471 -0.0827
  319MOL0     O42933   5.555  11.344   6.859  0.3020  0.0130 -0.1083
  319MOL0     C42934   5.512  11.472   6.883 -0.0327 -1.1697 -1.1341
  319MOL0     C42935   5.539  11.519   7.009  0.3795  0.5114 -0.9397
  319MOL0     C42936   5.508  11.653   7.045 -0.2377 -0.3207 -0.3739
  319MOL0     C42937   5.446  11.741   6.954 -0.9957  0.1832 -0.3705
  319MOL0     O42938   5.425  11.871   6.996  0.6761 -0.0813  0.4513
  319MOL0     C42939   5.331  11.890   7.103  0.4326 -0.1972  0.3729
  319MOL0     C42940   5.222  12.009   7.069 -1.3428 -0.0563 -0.0719
  319MOL0     C42941   5.289  12.148   7.060  0.2050  0.3272  0.1832
  319MOL0     C42942   5.189  12.258   7.048 -0.5876  0.2347 -0.6950
  319MOL0     C42943   5.269  12.389   7.026  0.6594  0.0391 -0.1364
  319MOL0     C42944   5.201  12.521   7.047 -0.3771 -0.1822  0.8076
  319MOL0     C42945   5.305  12.623   7.027 -0.9302 -0.3456 -0.0866
  319MOL0     C42946   5.242  12.758   7.060  0.1864 -0.2580  0.4279
  319MOL0     N42947   5.182  12.833   6.940 -1.2611  0.7474 -0.1640
  319MOL0     C42948   5.245  12.865   6.827  0.1708  1.2163 -0.2486
  319MOL0     C42949   5.159  12.923   6.736 -0.3283 -0.0778 -0.7277
  319MOL0     C42950   5.186  12.993   6.605  0.1116 -0.4177  0.0433
  319MOL0     C42951   5.241  13.139   6.626 -0.2251 -0.5734  0.0246
  319MOL0     C42952   5.279  13.190   6.491  0.3059  0.0409  0.8085
  319MOL0     C42953   5.299  13.339   6.486  0.1046  0.7657  0.4878
  319MOL0     O42954   5.397  13.377   6.580  0.2663  0.1934  0.4277
  319MOL0     C42955   5.416  13.513   6.612  0.3653  0.5802  0.3211
  319MOL0     C42956   5.367  13.619   6.530  0.4170  0.5054  0.5318
  319MOL0     C42957   5.395  13.748   6.547  0.0195 -1.0238  0.6394
  319MOL0     C42958   5.451  13.795   6.673  0.4629 -0.0280  0.4549
  319MOL0     C42959   5.485  13.944   6.688 -0.6426 -1.5075 -0.1001
  319MOL0     O42960   5.429  14.027   6.600 -0.3301 -0.0830  1.2662
  319MOL0     C42961   5.440  14.176   6.603 -0.1648  0.0271 -0.2083
  319MOL0     C42962   5.438  14.245   6.727  0.1343 -1.1972 -0.9089
  319MOL0     C42963   5.449  14.389   6.728 -0.8190 -0.6315 -0.3906
  319MOL0     C42964   5.455  14.459   6.605  0.8291  0.1621  0.4391
  319MOL0     O42965   5.469  14.595   6.591  0.2455  0.7007 -0.4534
  319MOL0     C42966   5.405  14.686   6.688  0.4932 -0.0080  0.3025
  319MOL0     C42967   5.496  14.723   6.805 -0.3138  0.2678 -0.3004
  319MOL0     C42968   5.433  14.824   6.913  0.5147 -0.1234 -0.2503
  319MOL0     C42969   5.485  14.818   7.065 -0.4236 -0.1089 -0.0950
  319MOL0     C42970   5.398  14.878   7.163 -0.4750  0.3467 -1.2587
  319MOL0     C42971   5.449  14.829   7.298  0.3229  0.1054 -0.7108
  319MOL0     C42972   5.367  14.891   7.414 -0.9283  0.0808  0.1279
  319MOL0     C42973   5.435  14.850   7.551  0.0019  1.1862 -0.0235
  319MOL0    Cl42974   5.334  14.910   7.686 -0.6094 -0.0930 -0.6779
  319MOL0     C42975   5.443  14.388   6.490  0.1537 -0.5407  0.1339
  319MOL0     C42976   5.442  14.251   6.481  0.1118  0.1164  0.1323
  319MOL0     O42977   5.570  13.976   6.770  0.6189 -0.0072 -0.5936
  319MOL0     C42978   5.494  13.689   6.762  0.7977 -0.3865 -0.1761
  319MOL0     C42979   5.481  13.556   6.732 -0.2531 -0.5617 -0.0212
  319MOL0     N42980   5.036  12.915   6.803 -0.1495 -0.6515  0.3383
  319MOL0     N42981   5.050  12.862   6.924  0.4670  0.7458 -0.5156
  319MOL0     C42982   5.401  11.687   6.835  0.2617 -0.3123 -0.4117
  319MOL0     C42983   5.436  11.552   6.802 -0.3850 -0.4192  0.5162
  319MOL0     C42984   5.666  11.174   6.733  0.3250  0.6277  0.2452
  319MOL0     C42985   5.680  11.116   6.598 -0.5350 -1.0976  0.0041
  319MOL0     C42986   5.722  10.981   6.579 -0.0126 -1.1047  0.9357
  319MOL0     C42987   5.749  10.901   6.688  0.6897  1.1989 -0.9049
  319MOL0     O42988   5.794  10.768   6.678 -0.2909 -0.2057 -0.7291
  319MOL0     C42989   5.831  10.697   6.560 -0.0266 -0.2699  0.2520
  319MOL0     C42990   5.939  10.594   6.591 -1.3440 -0.4422 -0.1169
  319MOL0     C42991   6.033  10.651   6.698 -0.2773  0.0746  0.4396
  319MOL0     C42992   6.167  10.574   6.706  0.7159  0.4470 -0.2785
  319MOL0     C42993   6.146  10.436   6.751  0.5098 -0.5988 -0.1620
  319MOL0     C42994   6.116  10.328   6.789 -0.1950 -0.2970  1.2919
  319MOL0     C42995   5.743  10.961   6.818 -0.8757  0.7473 -0.2707
  319MOL0     C42996   5.702  11.093   6.842  0.8827  0.2785 -0.7183
  319MOL0     C42997   5.708  11.150   6.986  0.3602  1.0520 -0.0733
  319MOL0     H42998   5.578  11.454   7.087 -0.2197 -1.3325 -2.1072
  319MOL0     H42999   5.532  11.688   7.145 -0.3397 -0.2192 -0.3842
  319MOL0     H43000   5.274  11.799   7.124 -1.2797  0.9001  0.6942
  319MOL0     H43001   5.376  11.914   7.200  2.6976  0.3710 -0.7603
  319MOL0     H43002   5.147  12.010   7.149  2.2870 -2.2918  3.8293
  319MOL0     H43003   5.171  11.975   6.979 -1.8958 -1.3078  0.6777
  319MOL0     H43004   5.360  12.155   6.978  1.0816 -3.6383  0.3746
  319MOL0     H43005   5.346  12.169   7.151  0.9730  2.8223 -0.8024
  319MOL0     H43006   5.126  12.248   6.959 -0.4096 -0.0749 -0.7848
  319MOL0     H43007   5.147  12.265   7.148  2.3092  2.3453  0.5383
  319MOL0     H43008   5.357  12.386   7.090  1.0307 -2.0444 -0.6730
  319MOL0     H43009   5.302  12.381   6.922  2.3452 -1.6940  0.4905
  319MOL0     H43010   5.117  12.530   6.978  1.2036  2.0860 -1.0016
  319MOL0     H43011   5.167  12.520   7.151 -2.3470 -1.3934  0.2076
  319MOL0     H43012   5.370  12.628   6.939 -3.1353 -1.7830 -1.9569
  319MOL0     H43013   5.385  12.603   7.098 -1.0363  0.8333  0.3845
  319MOL0     H43014   5.161  12.748   7.132  2.4169 -0.2288  3.1013
  319MOL0     H43015   5.318  12.818   7.111  0.3938  0.8888 -1.1413
  319MOL0     H43016   5.349  12.839   6.812  0.5868  2.1184  0.9014
  319MOL0     H43017   5.256  12.936   6.544 -2.5345 -2.4783 -1.2551
  319MOL0     H43018   5.091  13.007   6.553  1.3320  0.3971 -2.1129
  319MOL0     H43019   5.161  13.199   6.669 -1.1593 -1.9137  0.2183
  319MOL0     H43020   5.322  13.143   6.698  0.2946 -1.9532 -0.4425
  319MOL0     H43021   5.205  13.158   6.417 -2.2756 -2.9894  4.3295
  319MOL0     H43022   5.375  13.141   6.472  0.1499  0.1596 -0.3211
  319MOL0     H43023   5.200  13.385   6.495 -0.6209 -0.8128  0.8699
  319MOL0     H43024   5.337  13.362   6.386  0.8023  1.4287  0.8960
  319MOL0     H43025   5.311  13.610   6.438  0.1401  5.1576  0.0427
  319MOL0     H43026   5.368  13.815   6.466 -2.2707  0.4129  2.4830
  319MOL0     H43027   5.428  14.189   6.820  1.1315 -0.4348 -0.3201
  319MOL0     H43028   5.435  14.430   6.828  0.8991 -3.1838  1.0158
  319MOL0     H43029   5.371  14.780   6.643 -3.1494  0.7166  3.8918
  319MOL0     H43030   5.306  14.649   6.717 -0.7850  1.2322 -2.1850
  319MOL0     H43031   5.540  14.636   6.854 -0.2786  0.0798 -0.6608
  319MOL0     H43032   5.581  14.773   6.757 -0.9037  2.5046  0.8396
  319MOL0     H43033   5.455  14.924   6.875 -2.4603  0.0358 -1.8211
  319MOL0     H43034   5.325  14.805   6.919 -0.0027  2.7591  1.5474
  319MOL0     H43035   5.590  14.849   7.066 -0.3347 -0.2104 -2.1994
  319MOL0     H43036   5.496  14.711   7.084  1.7221 -0.1328 -1.1886
  319MOL0     H43037   5.298  14.836   7.145 -0.2573 -1.1932  0.7720
  319MOL0     H43038   5.397  14.987   7.155 -2.0407  0.2899 -2.2689
  319MOL0     H43039   5.439  14.720   7.302 -1.5420  0.2001 -1.5766
  319MOL0     H43040   5.556  14.850   7.306  0.3569  0.4479 -1.9500
  319MOL0     H43041   5.263  14.860   7.406 -1.4960  1.7420  0.7298
  319MOL0     H43042   5.379  14.999   7.419 -2.0456  0.2278 -0.0765
  319MOL0     H43043   5.441  14.741   7.555 -1.2703  0.9524 -2.8299
  319MOL0     H43044   5.539  14.885   7.554  0.7945 -0.9552 -0.6530
  319MOL0     H43045   5.438  14.435   6.392  2.6218 -0.3757  0.0104
  319MOL0     H43046   5.438  14.199   6.386  0.2503 -1.2721  0.8752
  319MOL0     H43047   5.537  13.697   6.862  1.2740 -1.8049 -0.2372
  319MOL0     H43048   5.521  13.484   6.802  1.3090 -0.7629 -1.0861
  319MOL0     H43049   5.354  11.750   6.760  2.0928  3.5327  1.4016
  319MOL0     H43050   5.404  11.531   6.701 -1.8830 -0.8036  1.0409
  319MOL0     H43051   5.655  11.164   6.504 -2.3733 -1.8001  0.0855
  319MOL0     H43052   5.715  10.951   6.475 -3.8187  3.0473 -0.3463
  319MOL0     H43053   5.876  10.755   6.479  3.2765 -1.7080  0.8943
  319MOL0     H43054   5.728  10.671   6.532 -0.8746 -0.6075  3.2612
  319MOL0     H43055   5.984  10.571   6.494 -1.0749  2.0174 -0.6432
  319MOL0     H43056   5.906  10.496   6.628 -0.0185 -0.2075  1.8429
  319MOL0     H43057   5.983  10.642   6.795  0.1595 -2.3195  0.4915
  319MOL0     H43058   6.055  10.758   6.685 -0.7433 -0.0682 -2.0936
  319MOL0     H43059   6.231  10.567   6.618  1.0600  1.6314 -0.1363
  319MOL0     H43060   6.233  10.622   6.779  0.2362 -0.9823  1.1690
  319MOL0     H43061   6.096  10.225   6.808  1.8464 -1.2380 -1.0998
  319MOL0     H43062   5.793  10.902   6.895  2.0675  1.5769 -1.4021
  319MOL0     H43063   5.609  11.155   7.032 -1.9656 -0.0731 -4.3607
  319MOL0     H43064   5.767  11.080   7.046 -0.6480  0.8175  0.6595
  319MOL0     H43065   5.753  11.249   6.990 -2.1272  2.2854 -0.7689
  320MOL0     O43066   3.732  10.672   4.087 -0.1607  0.0150 -0.1433
  320MOL0     C43067   3.715  10.677   4.211  0.5058  0.3723  0.4568
  320MOL0     O43068   3.626  10.756   4.275  0.7201 -0.4245  0.5979
  320MOL0     C43069   3.517  10.817   4.207 -0.1411  0.4367  0.6238
  320MOL0     C43070   3.443  10.763   4.103 -0.3509  0.7834  0.2931
  320MOL0     C43071   3.334  10.833   4.047 -0.3384  0.3557 -0.3951
  320MOL0     C43072   3.303  10.962   4.075  0.0841  0.3298  0.8776
  320MOL0     O43073   3.195  11.009   4.008  0.3924  0.0892 -0.1511
  320MOL0     C43074   3.206  11.144   3.992 -0.4886 -0.0697 -0.1594
  320MOL0     C43075   3.121  11.228   4.082 -0.2994  0.1995  0.3422
  320MOL0     C43076   3.101  11.370   4.032 -0.4456  0.5540  0.5287
  320MOL0     C43077   3.009  11.443   4.126  0.5050  0.3244 -0.3866
  320MOL0     C43078   3.011  11.599   4.104  0.3035  0.1132 -0.5874
  320MOL0     C43079   3.133  11.674   4.155  0.5437 -0.1493  0.5323
  320MOL0     C43080   3.150  11.674   4.306  0.5995  0.6068  0.0378
  320MOL0     C43081   3.268  11.597   4.346 -0.0228  0.2731 -0.0436
  320MOL0     N43082   3.278  11.601   4.492  0.9781 -0.5906  0.1754
  320MOL0     C43083   3.186  11.561   4.583  0.2454  0.9110 -0.9220
  320MOL0     C43084   3.244  11.564   4.706  0.6714 -0.6103  0.6091
  320MOL0     C43085   3.167  11.524   4.827 -0.0511 -0.4859 -0.2374
  320MOL0     C43086   3.119  11.645   4.904 -0.0907  0.3175  0.7136
  320MOL0     C43087   2.992  11.611   4.992 -0.4029  0.9222  0.2390
  320MOL0     C43088   2.969  11.738   5.076 -0.5532 -0.2193 -0.1383
  320MOL0     O43089   2.904  11.826   4.978 -0.9034 -0.2295  0.2091
  320MOL0     C43090   2.940  11.966   4.977 -0.1720 -0.2415  0.2942
  320MOL0     C43091   3.073  11.998   4.973  0.0613 -0.1879 -0.2731
  320MOL0     C43092   3.126  12.124   4.967 -0.7711  0.0706  0.1403
  320MOL0     C43093   3.036  12.228   4.976 -0.9463 -0.3753 -1.0167
  320MOL0     C43094   3.089  12.366   4.969  0.0248  0.6004 -0.4581
  320MOL0     O43095   3.222  12.373   4.942 -0.6601 -1.1492  0.1375
  320MOL0     C43096   3.304  12.494   4.942  1.3067 -0.7835  0.0112
  320MOL0     C43097   3.430  12.483   4.876  0.0958 -0.2319 -0.2276
  320MOL0     C43098   3.507  12.598   4.855  0.3865 -0.1613  0.6574
  320MOL0     C43099   3.469  12.727   4.893 -0.4725  0.7371 -0.4673
  320MOL0     O43100   3.541  12.839   4.867  0.1481  0.3951 -1.1060
  320MOL0     C43101   3.627  12.848   4.754  0.2709  0.0713  0.1863
  320MOL0     C43102   3.529  12.888   4.643 -0.0883  1.4140  0.2204
  320MOL0     C43103   3.502  13.046   4.637 -0.7614 -0.4693 -0.2188
  320MOL0     C43104   3.626  13.130   4.693  0.0325 -0.0844 -1.1332
  320MOL0     C43105   3.619  13.282   4.672  0.1771  0.3116  0.4248
  320MOL0     C43106   3.526  13.355   4.769  0.5375 -0.7262 -0.5489
  320MOL0     C43107   3.467  13.488   4.704 -0.0012  0.4911 -0.1353
  320MOL0     C43108   3.345  13.467   4.621  0.3337 -0.4992 -0.2949
  320MOL0    Cl43109   3.314  13.615   4.539 -0.1102  0.0222 -0.3203
  320MOL0     C43110   3.337  12.733   4.953  0.5471  0.0428  0.0375
  320MOL0     C43111   3.256  12.623   4.987  0.7925 -0.1615  0.3666
  320MOL0     O43112   3.009  12.461   4.985  0.2295 -0.0357 -0.0880
  320MOL0     C43113   2.897  12.199   4.977  0.1060  0.0104 -1.1962
  320MOL0     C43114   2.852  12.064   4.975 -0.2671 -0.3517  0.4908
  320MOL0     N43115   3.372  11.620   4.692 -0.1911 -0.3733 -0.2328
  320MOL0     N43116   3.389  11.628   4.564  0.1169 -0.0776 -0.0138
  320MOL0     C43117   3.380  11.026   4.172 -0.6734 -0.5859 -0.2931
  320MOL0     C43118   3.483  10.952   4.233  0.5228 -0.8537  0.1366
  320MOL0     C43119   3.825  10.632   4.301  0.1929  0.3307 -0.5817
  320MOL0     C43120   3.832  10.708   4.426 -0.7398  0.8307 -0.5807
  320MOL0     C43121   3.932  10.669   4.505 -0.3214 -0.4807  0.0707
  320MOL0     C43122   4.027  10.574   4.471  0.9555  0.5064  0.5179
  320MOL0     O43123   4.120  10.545   4.574 -1.1095 -0.3304  0.5066
  320MOL0     C43124   4.250  10.490   4.539 -0.5952  0.1234  0.6168
  320MOL0     C43125   4.348  10.588   4.463 -0.5944 -0.4845 -0.0141
  320MOL0     C43126   4.348  10.727   4.539  0.1245  0.2735  0.6937
  320MOL0     C43127   4.471  10.809   4.493 -0.3181 -0.2519 -0.5259
  320MOL0     C43128   4.452  10.859   4.352 -0.4629  0.1739  0.4657
  320MOL0     C43129   4.451  10.878   4.231  1.0241  0.0377 -0.7869
  320MOL0     C43130   4.019  10.507   4.350 -0.6732  0.3850 -0.1301
  320MOL0     C43131   3.918  10.529   4.270 -0.6303  0.0199 -0.3973
  320MOL0     C43132   3.908  10.438   4.152 -1.5698  0.0410  0.0462
  320MOL0     H43133   3.460  10.666   4.060 -2.9470 -1.0123  2.8844
  320MOL0     H43134   3.276  10.786   3.967  0.3098 -2.0089  0.4565
  320MOL0     H43135   3.311  11.173   3.988  0.1031 -1.4979  2.3577
  320MOL0     H43136   3.157  11.163   3.896 -0.2206 -4.2020 -1.3333
  320MOL0     H43137   3.164  11.224   4.183  0.4818 -0.6625 -0.0061
  320MOL0     H43138   3.026  11.174   4.090  0.1265 -0.8124 -1.0200
  320MOL0     H43139   3.059  11.364   3.931  1.7314 -0.0190 -0.3980
  320MOL0     H43140   3.193  11.429   4.034  1.4233 -1.8967  5.8912
  320MOL0     H43141   2.908  11.404   4.112 -0.6132  2.5809  0.7915
  320MOL0     H43142   3.044  11.427   4.229  0.7156 -1.3853 -0.6916
  320MOL0     H43143   3.016  11.614   3.996 -2.0569 -0.8684 -0.8794
  320MOL0     H43144   2.916  11.636   4.144  0.1747 -1.0779  0.2466
  320MOL0     H43145   3.215  11.624   4.104  2.0721  0.9274  1.8607
  320MOL0     H43146   3.120  11.778   4.124  2.0486  0.2676  1.2369
  320MOL0     H43147   3.057  11.633   4.345  0.1888  0.7213 -0.7933
  320MOL0     H43148   3.162  11.777   4.342  3.2353  0.3673  0.1067
  320MOL0     H43149   3.251  11.491   4.325 -1.8831 -0.2353  3.3631
  320MOL0     H43150   3.358  11.644   4.304  1.5841  0.4575  3.3095
  320MOL0     H43151   3.084  11.532   4.559  0.2148 -0.7718  1.0266
  320MOL0     H43152   3.077  11.466   4.801  0.9168 -2.6780  0.9776
  320MOL0     H43153   3.235  11.467   4.891  2.0634  1.5502 -0.5862
  320MOL0     H43154   3.203  11.683   4.962 -0.6992  0.5618  1.4443
  320MOL0     H43155   3.087  11.715   4.826  0.6275 -2.3501 -2.1833
  320MOL0     H43156   3.021  11.531   5.060  1.0329 -0.2596 -1.6597
  320MOL0     H43157   2.911  11.578   4.928 -0.4826  3.6088 -1.2064
  320MOL0     H43158   3.063  11.772   5.120 -1.6482  0.5983  1.6683
  320MOL0     H43159   2.901  11.732   5.161 -0.9478  1.4020 -0.3188
  320MOL0     H43160   3.139  11.911   4.972 -1.0194 -1.0220 -0.3695
  320MOL0     H43161   3.234  12.134   4.955 -0.3293 -3.2643  0.3552
  320MOL0     H43162   3.461  12.386   4.838 -0.8088  0.0072 -1.6611
  320MOL0     H43163   3.605  12.572   4.816  1.1782  2.8210  0.4761
  320MOL0     H43164   3.710  12.916   4.777  0.1902 -0.5717  2.7464
  320MOL0     H43165   3.669  12.749   4.733 -1.2912 -0.8717  1.2975
  320MOL0     H43166   3.583  12.847   4.557  1.2567  2.1317  0.6952
  320MOL0     H43167   3.431  12.838   4.643  0.2103  0.7141 -2.0427
  320MOL0     H43168   3.469  13.066   4.535  1.3055 -2.3200 -1.3428
  320MOL0     H43169   3.418  13.067   4.705  1.4685  2.4338  1.8973
  320MOL0     H43170   3.714  13.093   4.640 -0.4670 -3.2502  0.0441
  320MOL0     H43171   3.652  13.121   4.799  0.2152  1.5446 -1.0181
  320MOL0     H43172   3.578  13.277   4.571  0.0832 -2.4237  0.5252
  320MOL0     H43173   3.717  13.332   4.674  0.0296  0.7358 -1.4862
  320MOL0     H43174   3.438  13.298   4.800 -0.6959  1.4105  0.0530
  320MOL0     H43175   3.586  13.388   4.855  0.0710  4.9448 -2.0447
  320MOL0     H43176   3.548  13.534   4.646  0.2518 -1.2960 -1.2705
  320MOL0     H43177   3.440  13.559   4.783  2.3889  0.8195  0.4516
  320MOL0     H43178   3.352  13.389   4.544 -0.6198  0.0845 -0.9946
  320MOL0     H43179   3.268  13.436   4.693  1.5450 -0.8332  0.8966
  320MOL0     H43180   3.285  12.826   4.974 -2.1979 -1.3599 -0.1697
  320MOL0     H43181   3.174  12.630   5.058  0.7683 -0.6750  0.3928
  320MOL0     H43182   2.824  12.279   4.970  1.0089  1.0272  0.1864
  320MOL0     H43183   2.745  12.045   4.969 -0.5098  1.2244 -3.2156
  320MOL0     H43184   3.363  11.130   4.199  3.1728 -0.2345  1.3268
  320MOL0     H43185   3.538  11.002   4.312  0.1557 -0.8519  0.3927
  320MOL0     H43186   3.771  10.793   4.453  1.4132  2.5753 -0.9087
  320MOL0     H43187   3.945  10.722   4.599  2.8511 -1.1355  0.1242
  320MOL0     H43188   4.234  10.407   4.470 -2.0289  3.6036 -3.7458
  320MOL0     H43189   4.293  10.462   4.636  0.8450  1.6328  0.4714
  320MOL0     H43190   4.298  10.612   4.368  1.2976 -1.9000 -1.4504
  320MOL0     H43191   4.449  10.549   4.452  0.3249  1.2563  1.6793
  320MOL0     H43192   4.366  10.690   4.640  1.9112 -2.4680 -0.4952
  320MOL0     H43193   4.258  10.788   4.531  0.3293  0.3360 -2.3195
  320MOL0     H43194   4.502  10.898   4.548  2.0842 -2.4763  2.0004
  320MOL0     H43195   4.564  10.752   4.490 -0.6120 -0.9733  1.7496
  320MOL0     H43196   4.472  10.894   4.127  0.8880 -2.4493 -1.2462
  320MOL0     H43197   4.104  10.442   4.335 -0.7242 -0.5707  3.0295
  320MOL0     H43198   3.934  10.337   4.184  2.2818  1.4565  2.0103
  320MOL0     H43199   3.809  10.450   4.108 -1.0560  1.9200 -0.7169
  320MOL0     H43200   3.982  10.471   4.078 -0.6874  2.1303  1.7542
  321MOL0     O43201   2.882   5.789   9.172  0.0396 -0.2280  0.1635
  321MOL0     C43202   2.772   5.799   9.108 -0.8309 -0.6707 -0.3922
  321MOL0     O43203   2.649   5.825   9.162 -0.5333  1.4046 -0.6620
  321MOL0     C43204   2.631   5.827   9.306  0.1103 -0.7851  0.9098
  321MOL0     C43205   2.514   5.888   9.339  0.3150 -0.3002  0.1878
  321MOL0     C43206   2.473   5.921   9.471  0.0926 -0.8713 -0.5434
  321MOL0     C43207   2.567   5.903   9.569 -0.3211  0.0944 -0.1115
  321MOL0     O43208   2.547   5.931   9.698  0.2504 -0.0272 -0.7008
  321MOL0     C43209   2.531   6.073   9.729 -0.2979  0.4935 -0.1998
  321MOL0     C43210   2.560   6.098   9.881  0.0776 -0.4226  1.4622
  321MOL0     C43211   2.706   6.057   9.916  0.2144 -0.1542 -0.4105
  321MOL0     C43212   2.812   6.160   9.873 -0.2200 -0.3159  0.2665
  321MOL0     C43213   2.899   6.114   9.755  0.7372 -0.4255  0.9123
  321MOL0     C43214   3.012   6.022   9.788  0.2358 -0.3911 -0.0767
  321MOL0     C43215   3.103   5.999   9.656 -0.4140  0.5845  1.0041
  321MOL0     C43216   3.038   5.995   9.513  0.0491 -0.3473  0.3086
  321MOL0     N43217   2.992   6.119   9.461 -0.0418  0.3188 -0.2065
  321MOL0     C43218   2.882   6.133   9.379 -0.4396 -0.2892 -0.1818
  321MOL0     C43219   2.901   6.260   9.331  0.7527  0.6370 -0.2761
  321MOL0     C43220   2.809   6.329   9.247 -0.2912 -0.0367  0.7816
  321MOL0     C43221   2.667   6.304   9.290  0.4569  0.1364 -0.5975
  321MOL0     C43222   2.631   6.362   9.432 -0.0473  0.3022  0.7394
  321MOL0     C43223   2.620   6.516   9.439  0.3577 -0.1688  0.4665
  321MOL0     O43224   2.603   6.564   9.576  0.6925  0.5693  0.4191
  321MOL0     C43225   2.719   6.544   9.657  0.9676  0.4033 -0.3224
  321MOL0     C43226   2.712   6.600   9.785  0.0446 -0.0447  0.2018
  321MOL0     C43227   2.823   6.618   9.870 -0.3860  0.3209  0.3852
  321MOL0     C43228   2.945   6.556   9.830  0.1501  0.2589 -0.6217
  321MOL0     C43229   3.068   6.547   9.914 -0.2587 -0.8539 -0.0523
  321MOL0     O43230   3.060   6.589  10.045 -0.3974 -0.1669  0.5798
  321MOL0     C43231   3.183   6.619  10.109  0.2375  0.2777  0.3721
  321MOL0     C43232   3.215   6.748  10.152  0.0208  0.1364  0.1418
  321MOL0     C43233   3.341   6.784  10.212 -0.4121  0.1173 -1.5372
  321MOL0     C43234   3.425   6.684  10.254  0.1116  1.0130 -0.2635
  321MOL0     O43235   3.532   6.716  10.323 -0.0803  0.5804  0.0176
  321MOL0     C43236   3.537   6.665  10.459 -0.2512  0.7158  0.9373
  321MOL0     C43237   3.628   6.748  10.550 -0.8441 -0.2032 -0.2375
  321MOL0     C43238   3.775   6.706  10.544 -0.0373 -0.3445  0.1082
  321MOL0     C43239   3.847   6.755  10.420 -0.0879  0.8429 -0.3376
  321MOL0     C43240   3.988   6.703  10.433 -0.5201  0.6035  0.4034
  321MOL0     C43241   4.062   6.724  10.297 -0.3392  0.2639  0.7046
  321MOL0     C43242   4.206   6.681  10.308  0.1459 -0.1881 -0.0392
  321MOL0     C43243   4.280   6.720  10.425  0.1915  0.2863 -0.1141
  321MOL0    Cl43244   4.267   6.893  10.442 -0.1098 -0.2046 -0.0772
  321MOL0     C43245   3.385   6.557  10.221  0.5028  0.7746  0.1294
  321MOL0     C43246   3.263   6.521  10.156 -0.6475 -0.2885  0.3628
  321MOL0     O43247   3.164   6.498   9.862  0.0092  0.5546  0.7618
  321MOL0     C43248   2.942   6.502   9.703  0.1704  0.4594 -0.3494
  321MOL0     C43249   2.841   6.509   9.612  0.1023  0.2988  0.6103
  321MOL0     N43250   3.022   6.309   9.375  0.9687 -0.1747  0.5419
  321MOL0     N43251   3.071   6.221   9.452  0.1137  0.5909  0.3662
  321MOL0     C43252   2.681   5.828   9.542 -1.0199 -0.1694  0.5492
  321MOL0     C43253   2.722   5.803   9.411 -0.6166  0.1006  0.4485
  321MOL0     C43254   2.775   5.754   8.962 -0.2017  0.4234 -0.2814
  321MOL0     C43255   2.657   5.714   8.908 -0.8618  0.0244 -0.4944
  321MOL0     C43256   2.650   5.676   8.768 -0.2505  0.2322 -0.1668
  321MOL0     C43257   2.751   5.685   8.683 -0.9278  1.4539  0.7128
  321MOL0     O43258   2.739   5.639   8.554 -0.0230 -0.4737 -0.4924
  321MOL0     C43259   2.853   5.594   8.482 -0.8772  0.3094  0.5666
  321MOL0     C43260   2.801   5.520   8.351  1.0245  0.1958 -0.6264
  321MOL0     C43261   2.748   5.628   8.256 -0.3481  0.0480  0.6357
  321MOL0     C43262   2.689   5.557   8.125 -0.2350  0.2092 -1.0715
  321MOL0     C43263   2.654   5.639   8.009  0.2475  0.4206 -0.7239
  321MOL0     C43264   2.621   5.700   7.910  0.3474 -1.1906  0.9471
  321MOL0     C43265   2.876   5.726   8.736 -0.1869 -0.1104 -1.1896
  321MOL0     C43266   2.893   5.761   8.877  0.0850  0.0355 -0.2871
  321MOL0     C43267   3.021   5.826   8.920 -0.3680  0.3409  0.1371
  321MOL0     H43268   2.448   5.914   9.257 -0.1685  3.7246  1.6093
  321MOL0     H43269   2.380   5.973   9.491  0.2113 -0.6976 -0.4362
  321MOL0     H43270   2.599   6.134   9.669 -1.3434  0.8250 -1.0825
  321MOL0     H43271   2.427   6.099   9.706 -0.6909 -1.9291 -1.5550
  321MOL0     H43272   2.486   6.048   9.944  0.8543  0.1218  2.8403
  321MOL0     H43273   2.542   6.204   9.901  1.1915 -0.6906  4.3918
  321MOL0     H43274   2.728   5.963   9.865  0.8153  0.3933 -1.1725
  321MOL0     H43275   2.710   6.042  10.025  0.6088  0.9246 -0.2736
  321MOL0     H43276   2.762   6.250   9.837 -3.5679 -2.1489 -0.1288
  321MOL0     H43277   2.868   6.182   9.964  0.7321  1.4712 -0.6897
  321MOL0     H43278   2.822   6.079   9.685  2.7568 -0.8440 -1.2107
  321MOL0     H43279   2.938   6.203   9.705 -1.2981  1.0695  1.8269
  321MOL0     H43280   3.070   6.066   9.870 -1.2665  1.9998 -0.1932
  321MOL0     H43281   2.972   5.931   9.834  0.9267 -1.5920 -1.7426
  321MOL0     H43282   3.154   5.904   9.674 -1.5122  0.1915  2.1776
  321MOL0     H43283   3.172   6.084   9.652  0.8242 -0.3886 -2.4265
  321MOL0     H43284   3.106   5.945   9.443 -2.3927 -1.6707 -1.2694
  321MOL0     H43285   2.956   5.923   9.509 -0.4633  0.1717  1.2114
  321MOL0     H43286   2.801   6.061   9.378  0.0336 -1.0097  3.1703
  321MOL0     H43287   2.831   6.436   9.252  2.4002 -0.5180  1.0001
  321MOL0     H43288   2.822   6.285   9.147  0.1623 -2.6949  1.9154
  321MOL0     H43289   2.601   6.362   9.224 -2.5552 -0.0918  1.9962
  321MOL0     H43290   2.641   6.199   9.276  1.5163 -0.1995 -0.0999
  321MOL0     H43291   2.704   6.320   9.502  2.1549  0.9897 -1.0379
  321MOL0     H43292   2.531   6.330   9.465 -0.2276 -0.6693 -0.6879
  321MOL0     H43293   2.529   6.540   9.383 -0.3112 -0.2234  1.5021
  321MOL0     H43294   2.708   6.570   9.404 -0.5173  2.9495  2.6980
  321MOL0     H43295   2.613   6.633   9.813 -0.6911 -3.0693  1.5877
  321MOL0     H43296   2.803   6.684   9.954  0.6781 -0.9641  1.7027
  321MOL0     H43297   3.128   6.810  10.133  0.0253  0.1855  0.2882
  321MOL0     H43298   3.368   6.889  10.218 -0.2339 -0.0105  1.4283
  321MOL0     H43299   3.441   6.664  10.511 -0.5288 -3.8169  0.8022
  321MOL0     H43300   3.577   6.563  10.451 -2.2823 -0.0256 -5.2538
  321MOL0     H43301   3.613   6.854  10.530 -1.7032 -0.2510  0.1027
  321MOL0     H43302   3.590   6.725  10.650 -4.1942  0.9293 -1.1302
  321MOL0     H43303   3.826   6.753  10.629 -1.0815 -0.7687  0.9927
  321MOL0     H43304   3.788   6.598  10.559 -0.8754 -0.5974 -0.8189
  321MOL0     H43305   3.843   6.864  10.416  0.3689  0.8544 -0.6253
  321MOL0     H43306   3.809   6.714  10.325 -1.9042  3.7058 -0.9645
  321MOL0     H43307   3.981   6.602  10.474 -0.6839  0.0906 -0.8276
  321MOL0     H43308   4.044   6.766  10.503 -1.7561  0.4634  1.5636
  321MOL0     H43309   4.014   6.655  10.228  0.4163  1.5982 -1.2375
  321MOL0     H43310   4.051   6.830  10.270  1.1217  0.8882  2.3232
  321MOL0     H43311   4.260   6.711  10.218 -1.1337 -0.0789 -0.7965
  321MOL0     H43312   4.216   6.572  10.307  3.4275  0.0140 -0.2755
  321MOL0     H43313   4.235   6.667  10.510 -2.6268  0.3113 -1.4646
  321MOL0     H43314   4.381   6.679  10.415 -0.5019 -0.9310 -3.2597
  321MOL0     H43315   3.446   6.467  10.232 -0.7496 -0.6173 -2.9597
  321MOL0     H43316   3.235   6.416  10.149  2.3686 -1.2148  0.5741
  321MOL0     H43317   3.027   6.446   9.666 -0.1957  0.4458 -1.2021
  321MOL0     H43318   2.866   6.458   9.520  0.5662 -2.6544  2.2385
  321MOL0     H43319   2.737   5.800   9.630 -0.7321  1.7524  1.0017
  321MOL0     H43320   2.817   5.753   9.395 -0.3585  0.2625  1.4067
  321MOL0     H43321   2.574   5.702   8.977 -1.2304  0.8076 -0.7807
  321MOL0     H43322   2.557   5.632   8.734  0.0506  1.7722 -3.3675
  321MOL0     H43323   2.916   5.531   8.545 -0.9693  0.8470  1.2016
  321MOL0     H43324   2.914   5.681   8.458 -2.7461  1.9493  1.5100
  321MOL0     H43325   2.726   5.445   8.378  1.3336  0.5780  1.5209
  321MOL0     H43326   2.879   5.463   8.300 -0.5181 -2.7647  0.0703
  321MOL0     H43327   2.830   5.689   8.218  0.7254 -1.9832 -0.4536
  321MOL0     H43328   2.663   5.681   8.300 -0.7556 -0.2034  0.1613
  321MOL0     H43329   2.765   5.481   8.105 -1.7665 -1.4474 -0.8386
  321MOL0     H43330   2.597   5.500   8.140 -1.1870  1.6950 -1.0182
  321MOL0     H43331   2.593   5.768   7.831 -1.4170 -1.0676  1.6373
  321MOL0     H43332   2.964   5.738   8.673 -0.3829 -0.1036 -1.4647
  321MOL0     H43333   3.075   5.869   8.834  1.1791 -2.4907 -0.4556
  321MOL0     H43334   3.011   5.909   8.989 -1.1340 -0.5865  1.1686
  321MOL0     H43335   3.091   5.751   8.959 -0.1826  1.0671  1.2275
  322MOL0     O43336   4.511   2.462   8.888 -0.8782 -0.8990  0.5858
  322MOL0     C43337   4.496   2.515   8.774  0.6310 -0.0004 -0.2930
  322MOL0     O43338   4.513   2.449   8.646  0.1594 -0.4172  0.0476
  322MOL0     C43339   4.587   2.341   8.652  0.4765 -0.1095 -0.0203
  322MOL0     C43340   4.717   2.338   8.703  0.5021  0.3569  0.2152
  322MOL0     C43341   4.787   2.209   8.708 -0.8667 -0.7400 -0.2152
  322MOL0     C43342   4.732   2.098   8.650 -0.2162 -1.0566  0.4936
  322MOL0     O43343   4.825   1.998   8.637  0.5190  0.6593  1.0270
  322MOL0     C43344   4.783   1.872   8.574 -0.9061  0.4288 -0.0121
  322MOL0     C43345   4.722   1.781   8.675 -0.1437 -0.2715 -0.4209
  322MOL0     C43346   4.816   1.749   8.803  0.2160 -0.4161  0.5065
  322MOL0     C43347   4.740   1.723   8.919 -0.3562  0.4420 -0.0263
  322MOL0     C43348   4.830   1.733   9.043  0.0830 -0.5521 -0.5990
  322MOL0     C43349   4.740   1.693   9.164 -0.4043 -0.1051  0.0890
  322MOL0     C43350   4.804   1.735   9.293  0.3762  0.3588  0.1689
  322MOL0     C43351   4.947   1.687   9.315 -0.6674 -0.4092  0.1981
  322MOL0     N43352   4.989   1.551   9.302  0.3236  0.5292  0.1895
  322MOL0     C43353   4.918   1.433   9.301  0.2007 -0.1786  0.3815
  322MOL0     C43354   5.016   1.335   9.309 -0.8637 -0.9044 -0.7312
  322MOL0     C43355   4.977   1.187   9.310  0.5069  0.4736 -0.5173
  322MOL0     C43356   5.099   1.104   9.276 -0.1035 -0.6070 -0.4798
  322MOL0     C43357   5.192   1.088   9.388 -0.3714  0.7356  0.2526
  322MOL0     C43358   5.321   1.015   9.355 -0.0945 -0.9843  0.5480
  322MOL0     O43359   5.368   1.040   9.218  0.2714  0.2720 -0.1184
  322MOL0     C43360   5.454   1.147   9.188  0.0254  0.1374 -0.5158
  322MOL0     C43361   5.437   1.277   9.237 -0.1324 -0.0857  0.9953
  322MOL0     C43362   5.504   1.383   9.181 -0.8476  0.5288 -0.2995
  322MOL0     C43363   5.568   1.375   9.059  0.8120 -0.7350  0.0420
  322MOL0     C43364   5.622   1.492   8.989  0.0411 -0.3606 -0.1698
  322MOL0     O43365   5.582   1.617   9.035 -0.1582  0.0137 -0.3658
  322MOL0     C43366   5.654   1.725   8.986 -0.8603  0.0704 -0.3874
  322MOL0     C43367   5.599   1.800   8.882  0.7052  0.4918  0.1086
  322MOL0     C43368   5.663   1.914   8.827  0.7433  0.4588 -0.1175
  322MOL0     C43369   5.784   1.951   8.878  1.2188 -0.7929  0.3172
  322MOL0     O43370   5.837   2.064   8.830 -0.3031 -0.3514  0.2087
  322MOL0     C43371   5.977   2.036   8.815  0.5658 -0.0798 -0.4608
  322MOL0     C43372   6.042   2.146   8.722 -0.2385 -0.4892  0.9807
  322MOL0     C43373   5.980   2.163   8.578 -0.7405 -0.0566 -1.0279
  322MOL0     C43374   6.035   2.289   8.519  0.2478 -0.1357 -0.4685
  322MOL0     C43375   5.979   2.303   8.368  0.7013 -0.3552 -0.3826
  322MOL0     C43376   5.998   2.441   8.303 -0.4878  0.3531 -0.1364
  322MOL0     C43377   5.908   2.476   8.182  0.3783 -0.0850  0.1301
  322MOL0     C43378   5.782   2.528   8.232  0.9905 -0.3461  0.0366
  322MOL0    Cl43379   5.708   2.585   8.090 -0.4470 -0.2157  0.4978
  322MOL0     C43380   5.831   1.884   9.001  0.8542  0.9553  0.7264
  322MOL0     C43381   5.774   1.774   9.051  0.2107  0.1145 -0.2874
  322MOL0     O43382   5.696   1.472   8.894 -0.1290  0.0364 -0.1953
  322MOL0     C43383   5.587   1.254   9.007 -1.3490 -0.4279  0.2709
  322MOL0     C43384   5.528   1.142   9.072 -0.1614  0.0739 -0.4583
  322MOL0     N43385   5.142   1.399   9.297 -0.2458  0.1957  0.1024
  322MOL0     N43386   5.125   1.529   9.284 -0.2991  0.0633 -0.0904
  322MOL0     C43387   4.607   2.107   8.595  0.7418  0.3867 -0.2014
  322MOL0     C43388   4.535   2.233   8.592  0.4609  1.1889 -0.5545
  322MOL0     C43389   4.398   2.638   8.765 -0.6770  0.5965  0.6508
  322MOL0     C43390   4.291   2.638   8.673  0.4441  0.0043 -0.0166
  322MOL0     C43391   4.195   2.742   8.674 -0.1928  1.2010  0.3495
  322MOL0     C43392   4.217   2.845   8.757  0.7583 -1.1785 -0.0828
  322MOL0     O43393   4.116   2.942   8.748  0.3519 -0.0051  0.7708
  322MOL0     C43394   4.158   3.078   8.754  0.3898 -0.0041 -0.0242
  322MOL0     C43395   4.043   3.168   8.713  0.1806 -0.3177  0.0653
  322MOL0     C43396   4.010   3.163   8.553  0.6585  0.4693  0.1074
  322MOL0     C43397   3.859   3.196   8.519 -1.0017  0.5533 -0.5598
  322MOL0     C43398   3.841   3.342   8.551 -0.2515  0.2907  1.0589
  322MOL0     C43399   3.824   3.466   8.573  0.3727  0.3888  0.1963
  322MOL0     C43400   4.323   2.846   8.844 -0.2108  1.0015 -1.4663
  322MOL0     C43401   4.415   2.736   8.856 -0.0413 -0.0321 -0.4275
  322MOL0     C43402   4.514   2.731   8.963 -0.3923 -0.0393  0.5689
  322MOL0     H43403   4.764   2.435   8.721 -2.2641  1.5555  1.6544
  322MOL0     H43404   4.881   2.209   8.761 -1.8083  3.8912  1.9934
  322MOL0     H43405   4.726   1.889   8.483 -0.7022  3.5992  0.3446
  322MOL0     H43406   4.880   1.827   8.548 -0.0579 -0.1189  3.5712
  322MOL0     H43407   4.703   1.686   8.623  0.0101  0.2787 -1.5087
  322MOL0     H43408   4.634   1.830   8.718 -0.6612 -3.6545  2.8611
  322MOL0     H43409   4.896   1.823   8.810 -0.4742  0.3575  0.4185
  322MOL0     H43410   4.871   1.655   8.796  0.3589 -0.5812  2.9147
  322MOL0     H43411   4.651   1.787   8.925  0.3418  1.3266  4.3080
  322MOL0     H43412   4.711   1.618   8.920  0.0732  0.2970  1.9480
  322MOL0     H43413   4.919   1.669   9.037  0.0717 -0.4864 -1.6246
  322MOL0     H43414   4.871   1.834   9.038  1.8837 -0.8031  3.8444
  322MOL0     H43415   4.640   1.737   9.164 -0.1035  0.6431  1.2306
  322MOL0     H43416   4.732   1.584   9.167  1.1443 -0.2439  2.7467
  322MOL0     H43417   4.747   1.695   9.377 -0.2368 -0.2898 -0.5494
  322MOL0     H43418   4.796   1.844   9.309  0.0499  0.0103  3.0346
  322MOL0     H43419   5.016   1.747   9.255  0.3763 -0.4860  1.3058
  322MOL0     H43420   4.964   1.706   9.421  1.9305  2.1317 -0.5523
  322MOL0     H43421   4.813   1.412   9.288 -0.0814  1.0064  0.6062
  322MOL0     H43422   4.928   1.154   9.401  0.4419 -2.9370 -1.6190
  322MOL0     H43423   4.898   1.166   9.238  1.2937  0.4150 -1.3934
  322MOL0     H43424   5.073   1.013   9.221 -1.4013  1.0163 -2.7192
  322MOL0     H43425   5.154   1.165   9.204  0.7262 -0.3173  0.3653
  322MOL0     H43426   5.146   1.017   9.458 -0.5927  1.0404  0.4215
  322MOL0     H43427   5.215   1.184   9.433 -0.1616 -0.3334  2.5766
  322MOL0     H43428   5.301   0.909   9.365 -4.2724 -0.3493  0.6361
  322MOL0     H43429   5.403   1.033   9.426 -1.7155 -1.4321  2.6196
  322MOL0     H43430   5.374   1.293   9.323  2.0928  2.1223  2.3462
  322MOL0     H43431   5.487   1.474   9.237  0.7793  0.2776  0.6517
  322MOL0     H43432   5.500   1.767   8.855  0.2406 -0.6866  2.9051
  322MOL0     H43433   5.614   1.975   8.753  1.6668  2.1075  0.5623
  322MOL0     H43434   6.021   2.037   8.915  0.0176  1.0258 -0.2165
  322MOL0     H43435   6.000   1.942   8.764  3.1310  0.4775 -0.4895
  322MOL0     H43436   6.041   2.245   8.769  0.9538  0.4187 -0.8307
  322MOL0     H43437   6.144   2.109   8.717 -0.7294 -1.7203 -2.5346
  322MOL0     H43438   6.004   2.076   8.516 -1.1089  0.2196 -1.5625
  322MOL0     H43439   5.872   2.181   8.571 -0.2350  5.2967  0.2401
  322MOL0     H43440   6.144   2.293   8.527  0.1296  3.5158  1.1747
  322MOL0     H43441   6.009   2.376   8.580  2.9400 -2.1614  4.0951
  322MOL0     H43442   5.871   2.287   8.375  0.6898  0.3039  4.6732
  322MOL0     H43443   6.022   2.229   8.300  1.6713  0.0655 -0.2437
  322MOL0     H43444   5.991   2.515   8.383  2.6750  0.1113  0.4859
  322MOL0     H43445   6.104   2.442   8.275 -0.1033  3.2332  1.0775
  322MOL0     H43446   5.873   2.387   8.128 -2.8079  0.9923  0.2289
  322MOL0     H43447   5.953   2.546   8.112  1.9303  1.2116  2.2992
  322MOL0     H43448   5.729   2.441   8.269  1.5503 -1.5849 -1.9049
  322MOL0     H43449   5.796   2.608   8.306 -0.2518 -0.4357  0.3755
  322MOL0     H43450   5.928   1.913   9.041  0.3562 -0.8444  3.4482
  322MOL0     H43451   5.816   1.727   9.140  0.1557 -0.6389 -0.6538
  322MOL0     H43452   5.648   1.246   8.918 -2.2796  0.2801 -0.4559
  322MOL0     H43453   5.536   1.046   9.022  4.2399 -0.3555  0.6722
  322MOL0     H43454   4.562   2.030   8.533  0.8970  1.1967 -1.3691
  322MOL0     H43455   4.440   2.248   8.542 -0.7808 -1.7084  0.7676
  322MOL0     H43456   4.278   2.560   8.600 -1.0752 -1.2558  1.5076
  322MOL0     H43457   4.109   2.747   8.608 -0.1725  0.0630  0.2149
  322MOL0     H43458   4.248   3.096   8.695 -1.4916 -0.4309 -3.2860
  322MOL0     H43459   4.166   3.098   8.861 -0.0564 -3.0377  0.6565
  322MOL0     H43460   4.045   3.269   8.755 -1.4243  0.5665 -1.8475
  322MOL0     H43461   3.956   3.120   8.758 -0.0451 -0.6581 -0.7257
  322MOL0     H43462   4.035   3.062   8.519  1.9722  1.1155 -0.9057
  322MOL0     H43463   4.078   3.226   8.496 -0.5754  1.0432 -0.7837
  322MOL0     H43464   3.832   3.178   8.414  1.6646  0.1404 -1.2389
  322MOL0     H43465   3.794   3.142   8.589  0.5046 -0.2921  0.2197
  322MOL0     H43466   3.816   3.569   8.600  0.0454  0.4375 -0.0740
  322MOL0     H43467   4.351   2.923   8.915 -0.0327 -0.4552  0.1282
  322MOL0     H43468   4.467   2.681   9.049 -2.4768  1.0839  0.1603
  322MOL0     H43469   4.612   2.685   8.950 -0.2443 -0.0628  1.6428
  322MOL0     H43470   4.541   2.824   9.013  0.1765 -1.7152  3.6862
  323MOL0     O43471   0.977   3.263  10.755  0.2520 -0.4599  1.1215
  323MOL0     C43472   1.088   3.295  10.788  0.0549  0.8797  0.1048
  323MOL0     O43473   1.194   3.232  10.727  0.4644  0.6728 -0.1981
  323MOL0     C43474   1.182   3.128  10.647  0.5879 -0.6389 -0.3610
  323MOL0     C43475   1.214   2.990  10.692  0.1290 -0.4403 -0.4758
  323MOL0     C43476   1.210   2.880  10.600  0.1882  0.1861  0.0383
  323MOL0     C43477   1.168   2.907  10.472  0.0791  0.6380  0.4765
  323MOL0     O43478   1.159   2.808  10.374  0.1141 -0.0387  0.0491
  323MOL0     C43479   1.233   2.680  10.393 -0.0915 -0.1851  0.8949
  323MOL0     C43480   1.391   2.677  10.384  0.3561  0.4612  0.0610
  323MOL0     C43481   1.463   2.795  10.311  1.0811 -0.5775 -0.1784
  323MOL0     C43482   1.450   2.795  10.161 -0.2835  0.5157 -0.5850
  323MOL0     C43483   1.539   2.889  10.083  0.6585 -0.0537  0.5645
  323MOL0     C43484   1.674   2.837  10.039 -0.2656 -0.1534  0.8267
  323MOL0     C43485   1.665   2.717   9.946  0.5698  1.1627 -0.0048
  323MOL0     C43486   1.794   2.659   9.900  0.6674  0.4360 -0.6400
  323MOL0     N43487   1.866   2.573   9.999 -0.0466  0.7203 -0.5156
  323MOL0     C43488   1.811   2.467  10.067  1.2930  0.1354  0.1178
  323MOL0     C43489   1.875   2.465  10.188  1.3163 -0.2757 -0.0053
  323MOL0     C43490   1.822   2.399  10.316 -0.1669  0.8220 -0.8988
  323MOL0     C43491   1.832   2.488  10.444  0.7628 -0.3978 -0.2295
  323MOL0     C43492   1.766   2.620  10.425 -0.4287  0.3395 -0.3449
  323MOL0     C43493   1.745   2.692  10.555 -0.6276 -0.3607  0.0672
  323MOL0     O43494   1.649   2.629  10.636  0.4300  0.2093 -0.8572
  323MOL0     C43495   1.634   2.690  10.756  0.8475  0.3281 -0.3392
  323MOL0     C43496   1.740   2.714  10.848 -0.5320  0.3582 -0.1632
  323MOL0     C43497   1.719   2.792  10.968  0.1363  0.7369  0.8614
  323MOL0     C43498   1.581   2.834  11.000  0.4948 -0.2788  1.1741
  323MOL0     C43499   1.555   2.924  11.105 -0.4613  0.0707  0.2346
  323MOL0     O43500   1.432   2.944  11.145  0.1900  0.3398  0.0721
  323MOL0     C43501   1.407   3.036  11.238 -0.6084 -0.1104 -0.1253
  323MOL0     C43502   1.478   3.157  11.258  0.0048  0.2358  0.6307
  323MOL0     C43503   1.441   3.252  11.349  0.3548  0.2494  0.1414
  323MOL0     C43504   1.339   3.216  11.437 -0.4595 -0.8719  0.3939
  323MOL0     O43505   1.289   3.300  11.535  0.4058  0.4990 -0.7194
  323MOL0     C43506   1.367   3.413  11.569  0.6825  0.3050  0.1147
  323MOL0     C43507   1.300   3.478  11.695  0.0564  0.0309  0.1109
  323MOL0     C43508   1.392   3.598  11.728  0.4101 -0.1941 -1.1136
  323MOL0     C43509   1.340   3.657  11.858 -0.0637  1.2537 -0.5264
  323MOL0     C43510   1.425   3.770  11.917  0.1012  0.5582  0.2198
  323MOL0     C43511   1.564   3.719  11.960 -0.0990 -0.1989 -0.2843
  323MOL0     C43512   1.656   3.828  12.018  0.5257 -0.8931 -0.0569
  323MOL0     C43513   1.791   3.792  12.081  0.3887 -0.0808 -0.2908
  323MOL0    Cl43514   1.761   3.715  12.241 -0.2907 -0.2789  0.3003
  323MOL0     C43515   1.263   3.099  11.415 -0.3719  0.0862  0.4410
  323MOL0     C43516   1.295   3.011  11.318 -0.0846 -0.3224 -0.7013
  323MOL0     O43517   1.658   2.949  11.171 -0.5347 -0.1934  0.2679
  323MOL0     C43518   1.476   2.804  10.917 -0.1290  1.2232  0.4588
  323MOL0     C43519   1.507   2.735  10.792 -0.3781 -0.5105 -0.5285
  323MOL0     N43520   1.980   2.550  10.186  0.4503  0.1197 -0.0134
  323MOL0     N43521   1.972   2.614  10.075  0.0664 -0.2534 -0.1667
  323MOL0     C43522   1.133   3.037  10.430 -0.6834  0.3489 -0.0473
  323MOL0     C43523   1.150   3.143  10.511  0.1428 -0.2317  0.5002
  323MOL0     C43524   1.107   3.383  10.909 -0.0222  0.2009  0.5382
  323MOL0     C43525   1.237   3.380  10.970 -0.0286  0.5633  0.0753
  323MOL0     C43526   1.253   3.457  11.087  0.4192  0.1308 -0.0767
  323MOL0     C43527   1.153   3.534  11.145 -0.3903 -0.5427 -0.8041
  323MOL0     O43528   1.190   3.586  11.268  0.3052 -0.3422  0.4570
  323MOL0     C43529   1.100   3.696  11.309  0.1923 -0.4032  0.2451
  323MOL0     C43530   1.144   3.758  11.435 -0.8580 -1.1177 -0.2943
  323MOL0     C43531   1.019   3.809  11.504  0.2069  0.4040  0.8388
  323MOL0     C43532   1.049   3.900  11.625 -0.1404  0.5739 -0.1897
  323MOL0     C43533   1.105   4.033  11.582  0.4616 -0.8304  0.6795
  323MOL0     C43534   1.162   4.136  11.558 -0.2393 -0.2582  0.2716
  323MOL0     C43535   1.036   3.550  11.081  0.8138 -0.5594  0.0775
  323MOL0     C43536   1.010   3.481  10.961 -0.0259  0.1241 -1.1232
  323MOL0     C43537   0.879   3.500  10.891  0.0446  0.6840  0.9391
  323MOL0     H43538   1.245   2.983  10.795  1.5706  2.3935 -0.6216
  323MOL0     H43539   1.242   2.782  10.634  0.4056  0.5107  0.7793
  323MOL0     H43540   1.214   2.620  10.482  3.0962  0.1608  1.9325
  323MOL0     H43541   1.187   2.623  10.312  1.4277  2.4532 -2.0358
  323MOL0     H43542   1.411   2.582  10.333  0.3382  0.1321  0.6567
  323MOL0     H43543   1.422   2.660  10.487 -5.6158  0.8588  2.3274
  323MOL0     H43544   1.564   2.776  10.348 -0.1472 -0.3857  3.7341
  323MOL0     H43545   1.441   2.897  10.344  2.2953 -0.8637  1.6110
  323MOL0     H43546   1.469   2.691  10.134  0.0879  0.0032  1.5207
  323MOL0     H43547   1.356   2.837  10.123  0.1690  0.0592 -2.3336
  323MOL0     H43548   1.488   2.910   9.988  1.6543 -0.5035 -0.1005
  323MOL0     H43549   1.544   2.987  10.131 -0.0316  0.1995  0.1312
  323MOL0     H43550   1.730   2.916   9.989  0.1637 -0.9417  0.0341
  323MOL0     H43551   1.742   2.807  10.120  0.3689 -1.4535 -0.1446
  323MOL0     H43552   1.603   2.745   9.860  2.0774  1.9191 -0.8935
  323MOL0     H43553   1.621   2.635  10.003 -1.3958  1.6716 -0.7043
  323MOL0     H43554   1.779   2.595   9.813  3.5273  0.8938 -1.5953
  323MOL0     H43555   1.871   2.732   9.876 -0.3915  1.6444 -0.4396
  323MOL0     H43556   1.722   2.412  10.038  1.1437 -0.8936  2.3471
  323MOL0     H43557   1.721   2.358  10.307  0.2848 -0.2396 -1.2323
  323MOL0     H43558   1.883   2.313  10.342  0.0675  0.9090 -1.1681
  323MOL0     H43559   1.797   2.442  10.537 -1.6798 -2.5517 -2.0661
  323MOL0     H43560   1.937   2.510  10.466  0.8736  0.4972 -1.5549
  323MOL0     H43561   1.674   2.612  10.368  0.6257  0.1632 -2.1067
  323MOL0     H43562   1.838   2.675  10.363  0.2932 -1.6440 -1.3597
  323MOL0     H43563   1.709   2.794  10.540  4.0475  1.4794 -0.0361
  323MOL0     H43564   1.838   2.699  10.612  1.3141 -1.8139 -2.6952
  323MOL0     H43565   1.836   2.673  10.818 -2.4023 -1.2575 -4.8950
  323MOL0     H43566   1.795   2.832  11.034 -1.2603  0.0195  3.0116
  323MOL0     H43567   1.565   3.178  11.198  0.2381  0.1841  0.9466
  323MOL0     H43568   1.505   3.336  11.373  0.7586 -0.2604  0.8792
  323MOL0     H43569   1.465   3.385  11.608  0.5611  0.8613  0.8501
  323MOL0     H43570   1.365   3.493  11.494  0.1693  2.5095  2.3346
  323MOL0     H43571   1.198   3.507  11.669  0.7920  1.4711 -1.3413
  323MOL0     H43572   1.301   3.414  11.784  2.5316  2.6544  2.1418
  323MOL0     H43573   1.500   3.579  11.733  0.2287 -1.0363 -0.3328
  323MOL0     H43574   1.383   3.683  11.659 -1.1888  1.1630  0.6740
  323MOL0     H43575   1.332   3.581  11.937 -0.1391  0.2669 -1.4639
  323MOL0     H43576   1.237   3.692  11.843 -0.6721  0.2425  1.0303
  323MOL0     H43577   1.386   3.814  12.009 -0.7851 -0.7567  0.5043
  323MOL0     H43578   1.437   3.850  11.844  0.0103  0.6300  0.2836
  323MOL0     H43579   1.560   3.636  12.031  1.2431  0.7725  0.9921
  323MOL0     H43580   1.611   3.685  11.867  1.0725 -0.0512  0.2268
  323MOL0     H43581   1.601   3.883  12.095  0.2256 -1.3313  0.0484
  323MOL0     H43582   1.673   3.902  11.940 -1.1967  0.8282  1.0958
  323MOL0     H43583   1.843   3.725  12.012  1.0049 -0.9730  0.9909
  323MOL0     H43584   1.851   3.881  12.101 -0.8967  0.3148  2.2902
  323MOL0     H43585   1.178   3.082  11.480 -0.5575  2.3089  0.8731
  323MOL0     H43586   1.240   2.918  11.327 -0.9000  0.2949  1.2338
  323MOL0     H43587   1.375   2.844  10.921 -0.3996  1.0437 -2.3384
  323MOL0     H43588   1.424   2.707  10.727 -1.6193  0.5561  0.5500
  323MOL0     H43589   1.090   3.048  10.331 -1.3622  0.8605  0.2919
  323MOL0     H43590   1.120   3.238  10.466 -2.7199 -0.5348  1.5609
  323MOL0     H43591   1.317   3.312  10.942  0.4433  0.0915  2.3591
  323MOL0     H43592   1.333   3.421  11.151  0.1272  0.0924  0.2695
  323MOL0     H43593   0.994   3.670  11.313  0.0118  0.4211  2.9912
  323MOL0     H43594   1.104   3.776  11.235 -2.1737 -1.2510 -0.8773
  323MOL0     H43595   1.216   3.840  11.428 -0.4922 -0.9069  3.5851
  323MOL0     H43596   1.193   3.679  11.492 -1.6373 -1.1589  0.3419
  323MOL0     H43597   0.961   3.719  11.527 -1.2904  0.8029 -1.1685
  323MOL0     H43598   0.963   3.875  11.438 -1.6929  1.7521  3.6042
  323MOL0     H43599   0.952   3.914  11.673 -1.3333 -1.4830 -1.7902
  323MOL0     H43600   1.119   3.858  11.698 -0.9166 -0.7639 -0.1901
  323MOL0     H43601   1.205   4.227  11.522 -0.6425 -1.2662 -3.1213
  323MOL0     H43602   0.958   3.621  11.110  2.0294  0.0022  2.1801
  323MOL0     H43603   0.889   3.486  10.783 -1.4562 -0.3720  0.9058
  323MOL0     H43604   0.801   3.432  10.926  1.5572 -1.2001  0.8340
  323MOL0     H43605   0.828   3.596  10.901 -1.5560  0.3563 -2.5744
  324MOL0     O43606   4.930   9.278   6.815 -0.3605  0.1227 -0.0488
  324MOL0     C43607   5.020   9.199   6.778 -0.1178 -0.5255  0.2352
  324MOL0     O43608   5.129   9.167   6.845  0.0574  0.0095  0.3945
  324MOL0     C43609   5.121   9.170   6.978 -0.3060 -0.4774 -0.1342
  324MOL0     C43610   5.039   9.084   7.046 -0.2566 -0.1666  0.2149
  324MOL0     C43611   5.041   9.081   7.191  0.5822  0.5320  0.3445
  324MOL0     C43612   5.137   9.158   7.267  0.4068 -0.6423  1.5293
  324MOL0     O43613   5.138   9.158   7.407  0.5340  0.1029  0.7623
  324MOL0     C43614   5.232   9.253   7.482  0.1483 -0.3325 -0.4477
  324MOL0     C43615   5.173   9.245   7.630  0.4305  0.1456  0.0159
  324MOL0     C43616   5.016   9.264   7.644 -0.6690 -0.8715 -0.4099
  324MOL0     C43617   4.962   9.278   7.786  0.7542  0.2559 -0.5261
  324MOL0     C43618   4.815   9.320   7.789  1.0593 -0.0792 -0.2215
  324MOL0     C43619   4.731   9.193   7.765 -0.2143  0.3234  0.8329
  324MOL0     C43620   4.583   9.216   7.781 -0.1433 -0.9833  0.2955
  324MOL0     C43621   4.516   9.080   7.764  1.0053 -0.1703 -0.1908
  324MOL0     N43622   4.390   9.081   7.836  0.1051  1.1919 -0.1509
  324MOL0     C43623   4.268   9.119   7.798  0.5736 -0.2394  0.9678
  324MOL0     C43624   4.174   9.056   7.876  0.2418 -0.7256 -0.4881
  324MOL0     C43625   4.027   9.058   7.854  0.1987 -0.6434 -0.9231
  324MOL0     C43626   3.953   8.922   7.849 -0.0783 -0.2531  0.3414
  324MOL0     C43627   3.964   8.851   7.715 -0.1944  0.4172  0.1928
  324MOL0     C43628   3.889   8.715   7.701 -0.6024  0.4684 -0.0144
  324MOL0     O43629   3.933   8.653   7.580  0.8386  0.6692 -0.0266
  324MOL0     C43630   3.887   8.530   7.546  0.6861  0.0504 -0.3349
  324MOL0     C43631   3.955   8.455   7.445  0.2121  0.0434 -0.7950
  324MOL0     C43632   3.901   8.331   7.394  0.2987 -0.0540 -0.5473
  324MOL0     C43633   3.784   8.273   7.461 -0.6373 -0.9175  0.1022
  324MOL0     C43634   3.724   8.140   7.418 -0.7223 -0.9138 -0.1489
  324MOL0     O43635   3.666   8.072   7.514  0.9922  0.2071  0.0910
  324MOL0     C43636   3.624   7.948   7.501 -0.3310 -0.7144 -0.4947
  324MOL0     C43637   3.537   7.908   7.402  0.0371 -0.1195 -0.5565
  324MOL0     C43638   3.491   7.778   7.374  0.3602 -0.1525 -0.5207
  324MOL0     C43639   3.537   7.669   7.452  0.6944  0.2838  0.0642
  324MOL0     O43640   3.503   7.543   7.403 -0.3851 -0.2654 -0.2990
  324MOL0     C43641   3.578   7.422   7.447  0.7246 -0.2280 -0.4953
  324MOL0     C43642   3.526   7.294   7.381  0.6119 -0.1202  0.0214
  324MOL0     C43643   3.492   7.292   7.227 -1.2159 -0.5223 -0.4671
  324MOL0     C43644   3.618   7.288   7.136  1.8197  0.2088  0.3124
  324MOL0     C43645   3.687   7.148   7.145  0.1971 -0.9991 -0.0711
  324MOL0     C43646   3.799   7.140   7.050  0.7613 -0.5326  0.5489
  324MOL0     C43647   3.909   7.241   7.083 -0.0981 -0.7942 -0.1329
  324MOL0     C43648   4.043   7.209   7.018 -0.2329  0.5665 -0.3518
  324MOL0    Cl43649   4.012   7.176   6.845  0.0544  0.2227 -0.5372
  324MOL0     C43650   3.629   7.708   7.554 -0.6393 -0.3371 -0.9131
  324MOL0     C43651   3.670   7.849   7.587  0.0069  0.1467 -0.0032
  324MOL0     O43652   3.732   8.101   7.301  0.0799 -0.5176  1.0822
  324MOL0     C43653   3.734   8.343   7.575  0.1596  0.3529  0.4995
  324MOL0     C43654   3.784   8.465   7.613  0.1694 -0.4309 -0.3078
  324MOL0     N43655   4.250   8.978   7.963 -1.5440 -0.1098 -0.7002
  324MOL0     N43656   4.374   9.001   7.947 -0.0531  0.0976  0.2494
  324MOL0     C43657   5.224   9.249   7.192  0.0132  0.4270  0.4239
  324MOL0     C43658   5.209   9.256   7.051  0.0948  0.5201 -1.0288
  324MOL0     C43659   5.005   9.115   6.658  0.4379 -0.4914 -0.4009
  324MOL0     C43660   5.047   8.981   6.665 -0.4019 -0.4785 -0.7619
  324MOL0     C43661   5.026   8.890   6.560 -1.2078 -0.7695 -0.2936
  324MOL0     C43662   4.970   8.926   6.446 -0.2053  0.1783  1.0356
  324MOL0     O43663   4.950   8.848   6.340 -0.5871  0.2796  1.2217
  324MOL0     C43664   4.871   8.730   6.370  0.5709  0.0262 -0.5480
  324MOL0     C43665   4.730   8.772   6.415 -0.5352  0.7646 -0.5997
  324MOL0     C43666   4.648   8.648   6.452  0.3365 -1.0609  1.2367
  324MOL0     C43667   4.593   8.585   6.315 -0.2561  0.5065 -0.4247
  324MOL0     C43668   4.693   8.493   6.252 -0.4668  0.1618  0.4713
  324MOL0     C43669   4.778   8.416   6.197  0.5570  1.1021  0.0683
  324MOL0     C43670   4.939   9.065   6.433  0.6715 -0.6066 -0.0020
  324MOL0     C43671   4.942   9.159   6.541  0.3227 -0.3520 -0.7992
  324MOL0     C43672   4.914   9.307   6.515  0.0095 -0.6384  0.9217
  324MOL0     H43673   4.971   9.022   6.989 -0.2982  0.1007 -0.0265
  324MOL0     H43674   4.971   9.021   7.248 -1.2847 -0.8601 -3.1218
  324MOL0     H43675   5.336   9.222   7.473  0.0193 -1.9469  2.4292
  324MOL0     H43676   5.222   9.358   7.455  0.2997 -0.2027 -0.0158
  324MOL0     H43677   5.239   9.319   7.675  0.5187  0.6869 -0.9697
  324MOL0     H43678   5.194   9.147   7.673 -1.4592 -0.7900 -1.0608
  324MOL0     H43679   4.977   9.174   7.596  0.0736 -1.1497 -0.5026
  324MOL0     H43680   4.991   9.350   7.580 -0.6180 -1.0731 -0.7036
  324MOL0     H43681   4.975   9.179   7.831 -1.9228 -0.6149 -1.4640
  324MOL0     H43682   5.021   9.353   7.839  0.5999  2.6837 -3.5384
  324MOL0     H43683   4.780   9.353   7.887 -4.1307 -3.0583 -0.7383
  324MOL0     H43684   4.807   9.408   7.723  1.7201  0.5466  0.5046
  324MOL0     H43685   4.744   9.153   7.664 -4.0411  0.2133  0.2551
  324MOL0     H43686   4.766   9.122   7.842  1.4553  2.6055  2.3143
  324MOL0     H43687   4.542   9.294   7.716  2.1013  0.4425  0.4914
  324MOL0     H43688   4.559   9.255   7.880 -0.8182 -0.2509 -0.1450
  324MOL0     H43689   4.495   9.066   7.657  0.0619  2.0802 -0.3532
  324MOL0     H43690   4.575   8.996   7.803 -1.8876 -2.5076 -0.4650
  324MOL0     H43691   4.238   9.189   7.721 -1.3715 -0.2959  1.6372
  324MOL0     H43692   4.000   9.117   7.942  1.2921 -1.7820  0.2193
  324MOL0     H43693   3.989   9.110   7.765 -0.8301 -0.1622 -0.2176
  324MOL0     H43694   3.991   8.864   7.934  0.2689  0.7825  0.9203
  324MOL0     H43695   3.849   8.954   7.858  0.0299  0.0754  0.4484
  324MOL0     H43696   4.060   8.818   7.675 -2.0502  0.2017 -4.8901
  324MOL0     H43697   3.940   8.925   7.637 -2.1021 -2.6769 -2.4390
  324MOL0     H43698   3.780   8.721   7.693 -0.6602 -1.4382 -1.3935
  324MOL0     H43699   3.912   8.651   7.786 -1.3796  2.5143  1.8273
  324MOL0     H43700   4.051   8.487   7.407  0.6004  0.2501  0.3034
  324MOL0     H43701   3.960   8.265   7.330  1.1828  0.8925 -0.7346
  324MOL0     H43702   3.491   7.993   7.352  2.7568  3.1399  1.9167
  324MOL0     H43703   3.416   7.770   7.296  0.3133  0.6039 -0.5653
  324MOL0     H43704   3.686   7.431   7.434  1.2827 -1.1792  2.5861
  324MOL0     H43705   3.558   7.422   7.555 -2.0504  0.4148 -0.9260
  324MOL0     H43706   3.600   7.217   7.405  1.5292  0.0720 -2.0137
  324MOL0     H43707   3.434   7.267   7.435  1.5352 -0.9579  1.2377
  324MOL0     H43708   3.432   7.202   7.213 -1.0709 -0.2692 -3.1022
  324MOL0     H43709   3.438   7.386   7.219 -0.3813  0.1541  1.2654
  324MOL0     H43710   3.695   7.360   7.165  1.5432  0.3348  0.7566
  324MOL0     H43711   3.588   7.309   7.033  0.1353 -0.5947  0.6012
  324MOL0     H43712   3.612   7.072   7.121 -1.2950 -1.3177  4.6100
  324MOL0     H43713   3.721   7.114   7.243 -1.1745 -4.9899 -0.7903
  324MOL0     H43714   3.833   7.036   7.039  0.7186 -0.3738 -1.4548
  324MOL0     H43715   3.757   7.177   6.956 -2.1108 -0.4198  1.7999
  324MOL0     H43716   3.904   7.254   7.192 -1.1756  0.2787 -0.2826
  324MOL0     H43717   3.889   7.339   7.041 -0.3081 -0.1424  1.4057
  324MOL0     H43718   4.105   7.298   7.031  0.3909  0.2176 -0.8837
  324MOL0     H43719   4.079   7.120   7.070 -1.2849 -1.5715 -3.0390
  324MOL0     H43720   3.668   7.627   7.614 -0.4320  1.4615  1.5323
  324MOL0     H43721   3.749   7.885   7.651  0.3942  1.7223 -1.2791
  324MOL0     H43722   3.657   8.309   7.644 -0.8746  0.8329 -0.3981
  324MOL0     H43723   3.725   8.522   7.685 -0.3575 -2.6457  1.0984
  324MOL0     H43724   5.299   9.299   7.252  1.4578 -2.3276  1.0611
  324MOL0     H43725   5.278   9.323   6.999  0.5164 -0.6753 -2.0766
  324MOL0     H43726   5.095   8.950   6.757  2.2442  0.7114 -1.6457
  324MOL0     H43727   5.061   8.788   6.572 -1.2901 -0.9040 -1.0963
  324MOL0     H43728   4.923   8.671   6.446 -3.1377 -2.9528 -0.0208
  324MOL0     H43729   4.868   8.664   6.282 -0.7175 -1.8046  0.8013
  324MOL0     H43730   4.683   8.824   6.331 -0.9405 -1.5268 -1.8749
  324MOL0     H43731   4.730   8.841   6.500  3.6538  1.3758 -0.8994
  324MOL0     H43732   4.569   8.676   6.523  1.4079  2.9279  1.1037
  324MOL0     H43733   4.717   8.586   6.510  4.1246  0.9516 -0.7298
  324MOL0     H43734   4.510   8.520   6.344  1.4428 -1.4734  0.2602
  324MOL0     H43735   4.552   8.658   6.245 -2.5785 -1.0272 -0.7950
  324MOL0     H43736   4.841   8.347   6.145  0.7221  0.2697  1.3149
  324MOL0     H43737   4.894   9.099   6.340 -0.7861 -2.9675 -0.2287
  324MOL0     H43738   4.896   9.335   6.411 -0.6634 -1.4165  0.8236
  324MOL0     H43739   4.825   9.343   6.567 -0.1493 -0.1214  0.3126
  324MOL0     H43740   4.999   9.368   6.548 -1.3323  0.8514  1.8154
  325MOL0     O43741   2.532   4.996   8.026  0.5146  0.2772 -0.6930
  325MOL0     C43742   2.479   5.045   8.127  0.3368 -0.5093  0.7685
  325MOL0     O43743   2.371   5.132   8.124  0.1772 -0.4209  0.2861
  325MOL0     C43744   2.337   5.191   8.004  0.5350  0.7354  1.0284
  325MOL0     C43745   2.212   5.163   7.946 -0.2242  0.5627  0.0607
  325MOL0     C43746   2.162   5.209   7.821 -1.1571 -1.6878 -0.1131
  325MOL0     C43747   2.248   5.308   7.758  0.3349 -0.0473  0.1505
  325MOL0     O43748   2.204   5.347   7.636  0.1887 -1.1235 -0.3621
  325MOL0     C43749   2.213   5.486   7.604  0.5007  0.0116  0.7433
  325MOL0     C43750   2.129   5.510   7.477 -0.0823 -0.2924  0.0872
  325MOL0     C43751   2.187   5.415   7.363 -0.2071 -0.8705 -0.1531
  325MOL0     C43752   2.105   5.420   7.232  0.6571 -0.2190 -1.1299
  325MOL0     C43753   2.125   5.306   7.125  0.5457  0.4309  0.1210
  325MOL0     C43754   2.030   5.343   7.021 -0.2173  0.0558 -0.2603
  325MOL0     C43755   2.031   5.242   6.901  0.3375  0.2112  0.4242
  325MOL0     C43756   1.926   5.279   6.788  0.2985 -0.5529 -1.0914
  325MOL0     N43757   1.967   5.192   6.673  0.4757  0.1699 -1.0384
  325MOL0     C43758   1.888   5.095   6.610 -0.7039 -0.6641 -0.4378
  325MOL0     C43759   1.960   5.039   6.510 -0.5906 -0.0678  0.2469
  325MOL0     C43760   1.914   4.927   6.427  0.6535 -0.2693  0.4000
  325MOL0     C43761   2.014   4.809   6.434 -0.2551 -0.0769  0.4892
  325MOL0     C43762   2.032   4.758   6.576 -0.3179  0.7449  0.0817
  325MOL0     C43763   2.129   4.652   6.577  0.3006 -0.6168 -0.8871
  325MOL0     O43764   2.256   4.710   6.550  0.3143 -0.0988  0.8224
  325MOL0     C43765   2.362   4.694   6.632 -1.0246 -0.2020  0.3125
  325MOL0     C43766   2.470   4.766   6.593  0.6945 -0.1168  0.1073
  325MOL0     C43767   2.590   4.755   6.660 -0.1046  0.5218 -0.0476
  325MOL0     C43768   2.614   4.664   6.765  0.7758  0.2214  0.0544
  325MOL0     C43769   2.735   4.645   6.845 -1.1144  0.1121 -0.3283
  325MOL0     O43770   2.836   4.722   6.802  0.3498 -0.2699  0.7689
  325MOL0     C43771   2.939   4.760   6.886 -0.5830  0.9868 -0.0072
  325MOL0     C43772   2.984   4.696   7.002 -0.9792 -0.5398 -0.1421
  325MOL0     C43773   3.095   4.751   7.073 -0.3728  0.2016  0.2114
  325MOL0     C43774   3.159   4.869   7.032  0.3149 -0.4447  0.0207
  325MOL0     O43775   3.259   4.900   7.111  0.1975 -0.2352 -0.0072
  325MOL0     C43776   3.331   5.017   7.072 -0.2409 -0.4817  0.2764
  325MOL0     C43777   3.393   5.060   7.203  0.2778 -1.4066 -0.1156
  325MOL0     C43778   3.485   5.181   7.197  0.3561 -1.3186 -0.0631
  325MOL0     C43779   3.529   5.203   7.345  0.4053  0.5905  0.4404
  325MOL0     C43780   3.584   5.347   7.341 -0.8364 -0.9256 -0.3238
  325MOL0     C43781   3.693   5.378   7.460  0.0286  0.3998 -0.1187
  325MOL0     C43782   3.657   5.327   7.604  0.1472 -0.6507 -1.0107
  325MOL0     C43783   3.529   5.387   7.666 -0.7483  0.1739  0.3253
  325MOL0    Cl43784   3.537   5.347   7.836 -0.4047 -0.5551 -0.2331
  325MOL0     C43785   3.123   4.917   6.907 -0.7273  0.4527 -0.9431
  325MOL0     C43786   3.014   4.861   6.833 -0.6106 -0.3641  0.3411
  325MOL0     O43787   2.739   4.564   6.940 -0.3140 -0.4957 -0.7366
  325MOL0     C43788   2.502   4.590   6.805 -0.7656  0.5788 -0.4411
  325MOL0     C43789   2.382   4.598   6.737  1.1777 -0.9649  0.2304
  325MOL0     N43790   2.084   5.088   6.506  0.0698  0.1503 -0.2755
  325MOL0     N43791   2.087   5.184   6.602  0.4632 -0.2560  0.7987
  325MOL0     C43792   2.374   5.339   7.814  0.4254 -0.6375  0.5273
  325MOL0     C43793   2.413   5.282   7.937  0.2149  0.3198  0.1428
  325MOL0     C43794   2.542   5.027   8.257  0.1176 -0.3311  0.8361
  325MOL0     C43795   2.551   5.147   8.335 -0.5257  0.5240  0.1942
  325MOL0     C43796   2.600   5.133   8.463 -0.7393 -0.6205  0.0295
  325MOL0     C43797   2.647   5.008   8.505  0.6490 -0.4388 -0.2696
  325MOL0     O43798   2.717   5.008   8.630  0.1383 -0.1436  0.4522
  325MOL0     C43799   2.743   4.888   8.706 -1.4195  0.0224  0.0876
  325MOL0     C43800   2.620   4.867   8.790  0.7121  0.1237  0.8557
  325MOL0     C43801   2.570   4.981   8.881  0.6647 -1.0846 -0.9216
  325MOL0     C43802   2.432   4.936   8.932 -0.3426 -0.4485 -1.2649
  325MOL0     C43803   2.380   5.011   9.040 -0.1719 -0.3599 -0.1524
  325MOL0     C43804   2.326   5.071   9.124 -1.0918 -0.2784 -0.1456
  325MOL0     C43805   2.624   4.890   8.436 -0.0545 -0.1458  0.5457
  325MOL0     C43806   2.579   4.904   8.306 -0.0093  0.2845 -0.4135
  325MOL0     C43807   2.576   4.778   8.232  0.2400  0.4225  0.0510
  325MOL0     H43808   2.145   5.094   7.997  0.1552 -0.8507 -1.2969
  325MOL0     H43809   2.064   5.183   7.781 -1.6919 -0.2877  0.2237
  325MOL0     H43810   2.167   5.550   7.680  0.2747  2.9418 -1.7070
  325MOL0     H43811   2.319   5.505   7.584  0.9668 -1.7895  1.2398
  325MOL0     H43812   2.147   5.615   7.452  3.2203 -0.9864 -0.9840
  325MOL0     H43813   2.021   5.501   7.494  0.0750 -1.7394  0.5127
  325MOL0     H43814   2.172   5.311   7.394 -4.2359  0.0108  1.4371
  325MOL0     H43815   2.292   5.448   7.362 -1.3445  3.5412  1.9341
  325MOL0     H43816   2.003   5.426   7.271  1.0762  0.3695 -0.0850
  325MOL0     H43817   2.123   5.520   7.193  0.9602  0.2911  0.2744
  325MOL0     H43818   2.231   5.310   7.098  0.3662  1.1544 -0.5188
  325MOL0     H43819   2.093   5.213   7.172 -0.3590  1.5506  1.8285
  325MOL0     H43820   1.929   5.354   7.061  0.2667 -0.4150  1.1491
  325MOL0     H43821   2.058   5.443   6.988 -0.8618  0.3842  0.1698
  325MOL0     H43822   1.996   5.149   6.948 -0.5937 -1.4244 -3.1445
  325MOL0     H43823   2.138   5.232   6.877  0.6550  0.2492  1.7755
  325MOL0     H43824   1.829   5.256   6.833  1.6277 -1.4356  1.5152
  325MOL0     H43825   1.935   5.381   6.749  1.5616 -0.4867 -0.6813
  325MOL0     H43826   1.787   5.071   6.642 -0.0478 -3.5625 -0.2867
  325MOL0     H43827   1.811   4.910   6.459  0.3184  2.0830  0.8210
  325MOL0     H43828   1.914   4.961   6.323 -0.3045  0.7749  0.7220
  325MOL0     H43829   1.973   4.734   6.365  0.2475  1.3248 -1.4145
  325MOL0     H43830   2.108   4.845   6.392  0.7583  0.1988  2.8101
  325MOL0     H43831   1.935   4.716   6.604  0.6092 -1.7584 -0.1262
  325MOL0     H43832   2.063   4.832   6.650  1.2912  0.9978 -0.8117
  325MOL0     H43833   2.108   4.588   6.491  0.9666 -2.1624  0.0372
  325MOL0     H43834   2.118   4.600   6.673 -2.6637 -1.7624 -1.7448
  325MOL0     H43835   2.470   4.839   6.512  2.2182 -2.0032 -1.7139
  325MOL0     H43836   2.667   4.830   6.643 -0.3827  0.9021  0.3586
  325MOL0     H43837   2.945   4.601   7.036  2.3252 -1.0474  2.8834
  325MOL0     H43838   3.137   4.694   7.155 -1.1638  1.5427  1.6163
  325MOL0     H43839   3.401   4.986   6.993  0.5412  0.5490  0.5378
  325MOL0     H43840   3.275   5.099   7.027 -1.4306  0.3774  3.1500
  325MOL0     H43841   3.312   5.091   7.270 -1.4382 -3.1657 -1.2773
  325MOL0     H43842   3.456   4.980   7.242  2.7106  0.1180 -0.6543
  325MOL0     H43843   3.572   5.168   7.132 -0.8417  0.2685 -2.1369
  325MOL0     H43844   3.421   5.260   7.157 -0.1043 -2.0127 -0.7337
  325MOL0     H43845   3.604   5.130   7.376 -0.5817 -0.8986 -0.5410
  325MOL0     H43846   3.443   5.201   7.413  0.2588 -4.2575  0.4541
  325MOL0     H43847   3.500   5.413   7.364  0.5647  2.1664 -3.2573
  325MOL0     H43848   3.612   5.388   7.244  0.9299 -0.1281  0.4752
  325MOL0     H43849   3.782   5.318   7.439 -0.3514  0.0512 -0.7732
  325MOL0     H43850   3.711   5.486   7.462 -2.7248  0.9800 -1.7284
  325MOL0     H43851   3.733   5.354   7.678 -2.1153 -0.6163  1.4184
  325MOL0     H43852   3.640   5.219   7.603 -0.1509 -0.9121  4.2528
  325MOL0     H43853   3.546   5.492   7.639  0.0692  0.0359  0.2693
  325MOL0     H43854   3.445   5.342   7.612 -0.5876  0.0877  0.1476
  325MOL0     H43855   3.175   5.004   6.868  3.4004 -1.4375 -0.1072
  325MOL0     H43856   2.984   4.905   6.738  3.8141  2.5063  0.0033
  325MOL0     H43857   2.505   4.523   6.890  5.9969  0.8377  0.0155
  325MOL0     H43858   2.303   4.526   6.752 -1.1028  1.3473 -0.0777
  325MOL0     H43859   2.451   5.404   7.773 -0.0846 -0.6212 -0.4366
  325MOL0     H43860   2.510   5.315   7.974  1.5847 -1.4084 -1.7126
  325MOL0     H43861   2.506   5.243   8.311 -1.7559 -0.1658 -0.3510
  325MOL0     H43862   2.607   5.222   8.524 -0.6605 -0.1295 -0.6837
  325MOL0     H43863   2.831   4.909   8.767 -1.6355 -3.0814  1.6608
  325MOL0     H43864   2.771   4.797   8.652  1.1062  0.1203  1.1085
  325MOL0     H43865   2.651   4.786   8.857  0.7905 -0.3130  0.2944
  325MOL0     H43866   2.542   4.839   8.718  3.0096 -0.0510 -1.7212
  325MOL0     H43867   2.557   5.076   8.828  0.7886  0.3827  1.5269
  325MOL0     H43868   2.627   4.994   8.973 -1.0018  3.3184 -0.2695
  325MOL0     H43869   2.367   4.946   8.844 -0.1878  0.6328 -1.2736
  325MOL0     H43870   2.440   4.831   8.961  0.4725  0.6853  3.2682
  325MOL0     H43871   2.268   5.136   9.187  0.1210  0.1516  0.5639
  325MOL0     H43872   2.643   4.792   8.479  0.1700 -0.5852 -0.5022
  325MOL0     H43873   2.486   4.771   8.170 -0.2548 -2.4643  0.9686
  325MOL0     H43874   2.665   4.769   8.170 -0.0095 -1.8660 -0.0613
  325MOL0     H43875   2.567   4.695   8.303 -1.6838  0.2550 -0.3188
  326MOL0     O43876   3.434   4.244   6.892 -0.7908  0.5729  0.2357
  326MOL0     C43877   3.368   4.142   6.865 -0.0801  0.7598 -0.3516
  326MOL0     O43878   3.353   4.031   6.953  0.3636  0.1353  0.5072
  326MOL0     C43879   3.399   4.045   7.075 -0.1195  0.2994 -0.3600
  326MOL0     C43880   3.310   4.037   7.185 -0.1607 -0.6332  0.4445
  326MOL0     C43881   3.369   4.033   7.311 -0.8947 -0.0800 -0.3364
  326MOL0     C43882   3.508   4.044   7.334 -0.0564 -0.8984 -0.0945
  326MOL0     O43883   3.543   4.058   7.463  0.4219  0.5788  0.6868
  326MOL0     C43884   3.647   3.972   7.512 -0.0237  0.2695  0.5650
  326MOL0     C43885   3.678   3.987   7.659 -0.4602 -0.0115 -0.0078
  326MOL0     C43886   3.816   3.927   7.672 -1.1689  0.5014  0.2233
  326MOL0     C43887   3.870   3.965   7.810  0.2512 -0.8409 -0.1137
  326MOL0     C43888   3.813   3.875   7.920  0.2610  0.2308  0.2370
  326MOL0     C43889   3.843   3.935   8.057  0.2103 -0.7136  0.4760
  326MOL0     C43890   3.808   3.839   8.169  0.1368  0.7316  0.8027
  326MOL0     C43891   3.844   3.896   8.309  0.2146 -0.0678 -0.8040
  326MOL0     N43892   3.758   4.003   8.341 -0.4161 -0.1538  0.3385
  326MOL0     C43893   3.615   4.008   8.324 -0.1220  0.3694  0.0678
  326MOL0     C43894   3.572   4.129   8.360 -0.0147 -0.1456 -1.0063
  326MOL0     C43895   3.435   4.179   8.352  0.0645  0.4718  0.4847
  326MOL0     C43896   3.395   4.270   8.464 -0.2560 -0.3459  0.2528
  326MOL0     C43897   3.245   4.292   8.476  0.1582 -0.8700  0.0178
  326MOL0     C43898   3.202   4.387   8.593  0.2688  0.7518  0.1514
  326MOL0     O43899   3.191   4.298   8.705 -0.0212 -0.2102 -0.3297
  326MOL0     C43900   3.111   4.331   8.818 -0.1588 -0.1812  0.0529
  326MOL0     C43901   3.067   4.460   8.849 -0.3434  0.3859 -0.1488
  326MOL0     C43902   3.001   4.481   8.970 -0.2221 -1.4257 -0.1677
  326MOL0     C43903   2.979   4.375   9.063 -0.6145 -0.5250 -0.8254
  326MOL0     C43904   2.908   4.405   9.190 -0.0038 -0.3570  0.5052
  326MOL0     O43905   2.899   4.299   9.271  0.6933  0.0357  0.5618
  326MOL0     C43906   2.820   4.304   9.380 -0.5204 -0.2746 -0.0858
  326MOL0     C43907   2.686   4.273   9.364  0.0699 -0.4642  0.0448
  326MOL0     C43908   2.596   4.282   9.472  0.5850  0.7208  0.0856
  326MOL0     C43909   2.641   4.345   9.588 -0.0779  0.0919 -0.3965
  326MOL0     O43910   2.545   4.358   9.690  0.4626 -0.7581 -0.7183
  326MOL0     C43911   2.576   4.455   9.793 -0.5370  0.3792  0.3244
  326MOL0     C43912   2.466   4.452   9.895 -0.6542  0.3509 -0.1241
  326MOL0     C43913   2.496   4.547  10.012 -0.0084  0.3711  0.5063
  326MOL0     C43914   2.373   4.557  10.114 -0.5773  0.0237 -0.1035
  326MOL0     C43915   2.386   4.672  10.217  0.4161 -0.1378  0.3825
  326MOL0     C43916   2.504   4.651  10.309  0.6767 -0.6550 -0.1726
  326MOL0     C43917   2.517   4.756  10.424  0.2661 -0.1392  0.3247
  326MOL0     C43918   2.642   4.737  10.492  0.4244  0.3041  1.0365
  326MOL0    Cl43919   2.606   4.762  10.667  0.6374  0.5024 -0.1920
  326MOL0     C43920   2.773   4.373   9.603 -0.2794  0.4177 -0.9931
  326MOL0     C43921   2.859   4.342   9.508 -0.3722 -0.4980  0.7951
  326MOL0     O43922   2.836   4.506   9.207 -0.3289 -0.3975 -0.4494
  326MOL0     C43923   3.036   4.247   9.030 -0.4638 -1.0601 -0.5254
  326MOL0     C43924   3.101   4.236   8.903 -0.3570  0.7289 -1.2378
  326MOL0     N43925   3.682   4.196   8.404 -0.1014 -0.2489  0.2175
  326MOL0     N43926   3.788   4.125   8.392  0.5232  0.2468  0.7250
  326MOL0     C43927   3.588   4.062   7.225  0.2722  0.3074 -0.1838
  326MOL0     C43928   3.535   4.061   7.097 -0.4299  0.4011  0.2815
  326MOL0     C43929   3.301   4.118   6.731  0.0663 -1.0236  0.1763
  326MOL0     C43930   3.327   4.212   6.630  0.4585  0.7896  0.3418
  326MOL0     C43931   3.272   4.202   6.506 -1.3573 -0.5858 -0.5904
  326MOL0     C43932   3.193   4.095   6.468  0.4477  0.7681 -0.8312
  326MOL0     O43933   3.126   4.066   6.352  0.2254 -0.5251  0.2996
  326MOL0     C43934   3.194   4.088   6.228 -0.0464 -0.3212  0.5577
  326MOL0     C43935   3.104   4.105   6.104 -0.7296 -0.2100 -1.7362
  326MOL0     C43936   2.978   4.190   6.152 -1.0805 -0.2718 -0.9439
  326MOL0     C43937   2.890   4.251   6.038  0.7157  0.4217  0.2346
  326MOL0     C43938   2.958   4.378   5.996  0.3666 -0.3226 -0.3443
  326MOL0     C43939   3.016   4.486   5.980 -0.7051  0.8080  0.0150
  326MOL0     C43940   3.150   4.011   6.571  0.4920 -0.0385 -0.1747
  326MOL0     C43941   3.206   4.016   6.703  0.0802  0.8648 -0.0161
  326MOL0     C43942   3.153   3.914   6.806 -0.3320 -0.0300  0.9854
  326MOL0     H43943   3.202   4.029   7.172 -0.0467 -0.5205 -0.6288
  326MOL0     H43944   3.311   4.015   7.401  0.5898  2.1979  1.2217
  326MOL0     H43945   3.610   3.870   7.498 -1.0028  0.7543 -0.6133
  326MOL0     H43946   3.726   3.988   7.438 -3.5214  2.4983 -3.1559
  326MOL0     H43947   3.598   3.940   7.716 -0.4621  0.1101  0.0922
  326MOL0     H43948   3.686   4.094   7.682  2.1209 -0.1271 -0.0395
  326MOL0     H43949   3.885   3.963   7.594  0.1042 -1.7418  0.2126
  326MOL0     H43950   3.812   3.818   7.659 -0.8616  0.6127 -0.9089
  326MOL0     H43951   3.979   3.954   7.813  0.3957  0.3109 -0.5308
  326MOL0     H43952   3.849   4.067   7.840  1.5747 -1.0742  1.8180
  326MOL0     H43953   3.705   3.875   7.904  0.4624  6.3089 -5.0121
  326MOL0     H43954   3.859   3.776   7.911  1.3914  0.6910  0.7096
  326MOL0     H43955   3.950   3.951   8.073  0.4233 -0.4983 -1.0006
  326MOL0     H43956   3.790   4.030   8.070  0.1026 -0.9641  1.9783
  326MOL0     H43957   3.874   3.753   8.151  0.1514  0.9435 -0.2014
  326MOL0     H43958   3.701   3.813   8.167  0.2620  0.2037  0.8951
  326MOL0     H43959   3.830   3.818   8.384 -0.9156 -2.4225 -3.2776
  326MOL0     H43960   3.948   3.929   8.316 -0.2684  1.1391  2.4327
  326MOL0     H43961   3.546   3.927   8.305  0.8629 -0.3383 -0.5725
  326MOL0     H43962   3.408   4.252   8.275  2.1671  0.1038 -0.6525
  326MOL0     H43963   3.365   4.101   8.320  0.6045  1.5290 -3.8868
  326MOL0     H43964   3.419   4.225   8.561  3.2614 -0.7180 -0.6424
  326MOL0     H43965   3.442   4.369   8.461  3.0059 -1.7985 -1.2387
  326MOL0     H43966   3.187   4.200   8.482 -0.3923 -0.5617 -0.5148
  326MOL0     H43967   3.226   4.359   8.391 -0.0735  0.6204  1.1921
  326MOL0     H43968   3.103   4.424   8.567 -0.4271 -2.5421 -2.7433
  326MOL0     H43969   3.268   4.470   8.618 -1.1437  1.0645  3.3369
  326MOL0     H43970   3.069   4.548   8.786 -1.0503 -0.3681 -1.2639
  326MOL0     H43971   2.965   4.581   8.990 -0.0730 -0.8486 -2.5087
  326MOL0     H43972   2.649   4.253   9.264 -2.9616  1.0514  0.7584
  326MOL0     H43973   2.491   4.258   9.460  0.3097  2.7556 -2.0911
  326MOL0     H43974   2.665   4.416   9.845  0.8562 -0.1810 -2.3146
  326MOL0     H43975   2.582   4.552   9.743 -2.9309  0.6211  0.3988
  326MOL0     H43976   2.378   4.492   9.844 -0.9252  0.4485  0.4261
  326MOL0     H43977   2.455   4.355   9.945  0.0948  1.0746  1.5073
  326MOL0     H43978   2.585   4.504  10.059  0.0529 -1.6989 -1.3442
  326MOL0     H43979   2.504   4.648   9.969 -1.3481 -0.2157 -1.2735
  326MOL0     H43980   2.352   4.467  10.174  0.6767  1.0164  1.9109
  326MOL0     H43981   2.294   4.554  10.039  2.8077 -2.1306 -3.9761
  326MOL0     H43982   2.292   4.680  10.272 -0.0468 -0.6995 -0.3098
  326MOL0     H43983   2.401   4.763  10.159 -0.6262  1.0882  1.9593
  326MOL0     H43984   2.506   4.552  10.355  0.3700 -0.2924  0.6540
  326MOL0     H43985   2.589   4.680  10.247  2.9985  4.5838  4.5821
  326MOL0     H43986   2.435   4.714  10.482  0.5243 -1.2159 -0.0553
  326MOL0     H43987   2.486   4.860  10.410 -3.3133 -0.7881  2.3820
  326MOL0     H43988   2.672   4.632  10.496 -2.5712 -0.6342  1.8324
  326MOL0     H43989   2.719   4.805  10.454 -1.0594  2.0485  1.0175
  326MOL0     H43990   2.831   4.411   9.687  1.4496  2.2235 -2.9095
  326MOL0     H43991   2.966   4.356   9.516 -0.4924  2.2020 -1.0882
  326MOL0     H43992   3.024   4.168   9.104 -2.1017  0.3644  0.8316
  326MOL0     H43993   3.156   4.143   8.889  1.0952  1.4222 -0.2741
  326MOL0     H43994   3.691   4.089   7.243  0.7892 -2.4862  1.7735
  326MOL0     H43995   3.588   4.079   7.004 -0.3412  3.0809  0.7853
  326MOL0     H43996   3.398   4.293   6.641 -0.3221  2.0242 -2.7662
  326MOL0     H43997   3.302   4.278   6.435  0.5482  0.2770  1.0821
  326MOL0     H43998   3.249   3.996   6.208 -1.3931 -0.4500 -3.2824
  326MOL0     H43999   3.264   4.172   6.231 -1.3876  0.8795 -0.2472
  326MOL0     H44000   3.079   4.006   6.066 -0.9368 -0.4452 -1.0211
  326MOL0     H44001   3.156   4.160   6.025  1.9168 -2.0625 -1.4225
  326MOL0     H44002   3.017   4.271   6.214 -0.1698 -0.7129 -0.9216
  326MOL0     H44003   2.923   4.130   6.225  0.6593  0.8675  1.4404
  326MOL0     H44004   2.877   4.183   5.953 -0.3953  2.1858 -1.0704
  326MOL0     H44005   2.798   4.264   6.096  0.3466 -1.0588  0.0392
  326MOL0     H44006   3.070   4.578   5.972  2.7286 -1.1628 -1.6309
  326MOL0     H44007   3.081   3.929   6.552  1.1694 -1.2565  2.2600
  326MOL0     H44008   3.124   3.963   6.899 -0.7223 -2.5845  2.2772
  326MOL0     H44009   3.068   3.859   6.766 -1.5459  2.7329 -0.5815
  326MOL0     H44010   3.234   3.848   6.839  0.1774  0.9224  1.6939
  327MOL0     O44011   7.260   8.729   8.893  0.0920 -0.0942  0.0524
  327MOL0     C44012   7.376   8.731   8.936 -0.4947  0.0788  0.3149
  327MOL0     O44013   7.422   8.670   9.052 -0.0083  0.0871  0.2332
  327MOL0     C44014   7.327   8.606   9.132  0.3452  0.3942  0.2738
  327MOL0     C44015   7.231   8.681   9.200  0.0753  0.6385 -0.1830
  327MOL0     C44016   7.148   8.616   9.298  0.0969 -0.3605  0.7189
  327MOL0     C44017   7.159   8.479   9.308 -0.2418  0.1831 -0.5759
  327MOL0     O44018   7.084   8.398   9.388  0.1038 -0.5869  0.8330
  327MOL0     C44019   7.067   8.434   9.523 -0.2019  0.0432  0.9182
  327MOL0     C44020   6.949   8.359   9.581 -0.4426  0.2208 -1.5094
  327MOL0     C44021   6.950   8.206   9.589  0.4279  0.7774  0.6800
  327MOL0     C44022   6.825   8.155   9.671 -0.2566  0.6167  0.3859
  327MOL0     C44023   6.829   8.008   9.664  0.1726 -0.4276  0.6255
  327MOL0     C44024   6.786   7.955   9.519 -0.4575  0.1414 -0.1085
  327MOL0     C44025   6.761   7.804   9.530  1.3386  0.5107  0.4253
  327MOL0     C44026   6.702   7.734   9.401 -0.2431 -0.7983 -0.9283
  327MOL0     N44027   6.686   7.586   9.430 -0.3068  0.3525 -0.1302
  327MOL0     C44028   6.782   7.486   9.469 -0.0943  0.5040  0.2112
  327MOL0     C44029   6.713   7.382   9.517  0.2354 -0.0953  0.2708
  327MOL0     C44030   6.777   7.257   9.583  0.6302 -0.2237  0.2773
  327MOL0     C44031   6.837   7.300   9.711 -0.9346 -0.2100  0.1625
  327MOL0     C44032   6.731   7.347   9.810  0.6258  0.8377 -0.2633
  327MOL0     C44033   6.731   7.495   9.829  1.0378  0.0225  0.1946
  327MOL0     O44034   6.857   7.543   9.860 -0.3034 -0.4782 -0.0430
  327MOL0     C44035   6.864   7.675   9.917  0.0647 -0.5789  0.5655
  327MOL0     C44036   6.757   7.748   9.980  0.0264 -0.3872 -0.2877
  327MOL0     C44037   6.784   7.860  10.053 -0.2230  0.1408 -0.6141
  327MOL0     C44038   6.914   7.917  10.042  1.1688  0.7241 -0.8010
  327MOL0     C44039   6.930   8.056  10.084 -0.8022 -1.3708  1.0141
  327MOL0     O44040   7.044   8.117  10.059 -0.0038  0.0486  0.5082
  327MOL0     C44041   7.059   8.255  10.081  0.8669  0.0417 -0.3350
  327MOL0     C44042   7.069   8.344   9.978  0.8190 -0.2484 -0.7149
  327MOL0     C44043   7.085   8.479   9.994  0.7646 -0.8276  1.1983
  327MOL0     C44044   7.106   8.534  10.118  0.5606 -0.1699  0.3964
  327MOL0     O44045   7.127   8.666  10.133  0.6873 -0.3936 -0.1471
  327MOL0     C44046   7.027   8.732  10.204  0.3338 -0.2551 -0.0605
  327MOL0     C44047   7.039   8.876  10.160 -0.1663  0.6194  0.5953
  327MOL0     C44048   7.178   8.939  10.199  0.6070 -0.6410 -0.8343
  327MOL0     C44049   7.205   9.088  10.160  0.8388  0.9037  0.1644
  327MOL0     C44050   7.129   9.192  10.235  1.2136 -0.8998  0.2373
  327MOL0     C44051   7.174   9.333  10.193 -0.2668 -0.1629 -0.0710
  327MOL0     C44052   7.106   9.453  10.265  0.0257 -0.2143 -0.1257
  327MOL0     C44053   7.135   9.454  10.413  1.1276 -0.8449  0.0889
  327MOL0    Cl44054   7.299   9.438  10.469 -0.3854  0.2803 -0.4063
  327MOL0     C44055   7.098   8.448  10.224 -0.6525  0.0433 -0.6263
  327MOL0     C44056   7.073   8.305  10.203 -0.7775 -0.6054 -0.5229
  327MOL0     O44057   6.834   8.113  10.133 -0.6350  0.4858 -0.0352
  327MOL0     C44058   7.017   7.845   9.982 -0.3990  0.0779  0.1857
  327MOL0     C44059   6.992   7.731   9.913 -0.4041  0.0700 -0.4211
  327MOL0     N44060   6.579   7.414   9.497  0.5134 -0.0756  0.4487
  327MOL0     N44061   6.567   7.532   9.440  0.5854 -0.2893  0.0650
  327MOL0     C44062   7.236   8.404   9.232 -0.9988 -0.0077  0.3111
  327MOL0     C44063   7.325   8.465   9.144 -0.4623 -0.2914  0.0523
  327MOL0     C44064   7.467   8.786   8.843 -0.1641 -1.1771  0.3601
  327MOL0     C44065   7.599   8.736   8.846 -0.5724  0.6183  0.4040
  327MOL0     C44066   7.699   8.779   8.761 -0.9742  0.5852  0.3941
  327MOL0     C44067   7.673   8.878   8.663 -0.0015  0.0266 -0.0175
  327MOL0     O44068   7.790   8.909   8.589 -0.1628 -0.0299 -0.7492
  327MOL0     C44069   7.800   9.002   8.485 -0.4286 -1.2634  0.1300
  327MOL0     C44070   7.758   8.940   8.345  0.1849 -0.0777 -0.3153
  327MOL0     C44071   7.813   8.997   8.220 -0.2200 -0.3842 -0.9424
  327MOL0     C44072   7.946   8.942   8.185  0.1089  0.7588 -0.8662
  327MOL0     C44073   7.927   8.811   8.117  0.6773  0.0562 -0.3791
  327MOL0     C44074   7.893   8.703   8.075 -0.3296  1.5078  0.2255
  327MOL0     C44075   7.545   8.925   8.659 -0.2588 -0.0260  0.4421
  327MOL0     C44076   7.448   8.882   8.755  0.5956 -1.5667  0.7249
  327MOL0     C44077   7.318   8.969   8.756 -0.2212  0.0494  0.3585
  327MOL0     H44078   7.220   8.789   9.188 -0.5132  0.4546 -1.4207
  327MOL0     H44079   7.077   8.669   9.361 -0.5114 -1.1694  0.7324
  327MOL0     H44080   7.162   8.404   9.568  3.0761  2.0996 -3.8827
  327MOL0     H44081   7.042   8.540   9.533 -0.3048 -0.1346  3.1045
  327MOL0     H44082   6.853   8.391   9.539 -0.1503 -1.2127 -3.3864
  327MOL0     H44083   6.943   8.386   9.687 -1.7454 -3.7949 -0.4221
  327MOL0     H44084   7.036   8.159   9.638  0.1508  1.2218  1.6156
  327MOL0     H44085   6.960   8.160   9.490  3.1515  0.2528  1.1163
  327MOL0     H44086   6.843   8.181   9.776 -3.1072 -0.4436  1.2338
  327MOL0     H44087   6.727   8.193   9.637  0.0332  1.1614  0.1412
  327MOL0     H44088   6.927   7.960   9.677  0.3599 -0.3308 -0.3931
  327MOL0     H44089   6.751   7.974   9.732 -0.0756  0.2184  0.6648
  327MOL0     H44090   6.696   8.011   9.490 -0.2078 -0.1273 -1.4786
  327MOL0     H44091   6.871   7.962   9.450 -0.0122 -1.2348  0.2789
  327MOL0     H44092   6.684   7.797   9.606 -0.8293  1.0276 -1.5947
  327MOL0     H44093   6.846   7.750   9.572 -1.2785 -4.5057 -0.0164
  327MOL0     H44094   6.603   7.778   9.388  0.8050  3.0114  2.0246
  327MOL0     H44095   6.775   7.737   9.320  0.6537  1.0996 -0.1064
  327MOL0     H44096   6.886   7.490   9.438  0.0195 -1.0329  0.3215
  327MOL0     H44097   6.706   7.177   9.601 -2.3544  2.0967 -0.4124
  327MOL0     H44098   6.838   7.221   9.499 -3.1726  2.2307 -4.0012
  327MOL0     H44099   6.896   7.221   9.757  2.1383  0.8899 -1.6161
  327MOL0     H44100   6.913   7.377   9.693  1.2617 -2.1551  0.7534
  327MOL0     H44101   6.738   7.292   9.905  2.7562  1.1820 -0.1921
  327MOL0     H44102   6.630   7.325   9.773  0.5292  3.3714 -1.7040
  327MOL0     H44103   6.659   7.515   9.909  1.9297 -1.0669  1.3055
  327MOL0     H44104   6.698   7.551   9.741 -0.2992  0.2705  0.8184
  327MOL0     H44105   6.659   7.701   9.984  0.4508 -1.2333  2.3778
  327MOL0     H44106   6.707   7.912  10.110  1.4750  1.5004  0.5760
  327MOL0     H44107   7.078   8.307   9.877  1.0426  2.8398 -1.9242
  327MOL0     H44108   7.084   8.542   9.906  0.2439  1.4793  2.7713
  327MOL0     H44109   6.927   8.690  10.195  1.3833 -2.4772 -2.7103
  327MOL0     H44110   7.050   8.726  10.311 -0.1505 -1.0170  0.0072
  327MOL0     H44111   7.032   8.884  10.051  0.7262 -0.4312  0.4373
  327MOL0     H44112   6.962   8.939  10.204 -2.2026 -0.5983 -1.0727
  327MOL0     H44113   7.173   8.940  10.309 -5.0601  1.9033 -0.7250
  327MOL0     H44114   7.262   8.879  10.166  0.7014 -0.9800 -0.0066
  327MOL0     H44115   7.179   9.109  10.056  1.9385  0.8841 -0.1231
  327MOL0     H44116   7.312   9.107  10.169  0.8801  0.2462  1.2075
  327MOL0     H44117   7.141   9.171  10.342  1.3320 -1.4225  0.1228
  327MOL0     H44118   7.022   9.180  10.220  1.2664 -0.4313 -0.5687
  327MOL0     H44119   7.283   9.341  10.203 -0.3235  3.9358 -0.8723
  327MOL0     H44120   7.143   9.329  10.088  0.0196 -1.1540 -0.1270
  327MOL0     H44121   6.998   9.454  10.250  0.3878 -0.9978 -3.6457
  327MOL0     H44122   7.150   9.540  10.214  0.9024 -2.1527 -2.9302
  327MOL0     H44123   7.078   9.535  10.459 -0.9644 -1.7040 -0.8863
  327MOL0     H44124   7.083   9.369  10.457 -1.5532  1.3317  1.4430
  327MOL0     H44125   7.090   8.485  10.326  1.7694 -1.4317  0.1931
  327MOL0     H44126   7.071   8.231  10.281 -2.6523  0.2381  0.2860
  327MOL0     H44127   7.122   7.870   9.984 -0.1809  0.5406 -4.8136
  327MOL0     H44128   7.073   7.673   9.871  0.4744  1.1901 -0.3375
  327MOL0     H44129   7.231   8.298   9.255 -3.0281  0.3560  1.7968
  327MOL0     H44130   7.405   8.414   9.091 -1.5696 -2.1114  0.0598
  327MOL0     H44131   7.624   8.652   8.911 -1.7502  0.8006  1.1328
  327MOL0     H44132   7.795   8.729   8.767 -1.3856 -0.0953  1.7998
  327MOL0     H44133   7.907   9.022   8.496 -0.9772  1.0667  2.1139
  327MOL0     H44134   7.756   9.100   8.508  1.9843 -0.1860  0.3974
  327MOL0     H44135   7.650   8.950   8.335  0.1472 -0.1263  0.0587
  327MOL0     H44136   7.772   8.831   8.346  1.2446  0.0215 -1.3751
  327MOL0     H44137   7.826   9.105   8.228 -0.3890 -0.3288 -1.3988
  327MOL0     H44138   7.736   8.990   8.142 -1.2579  1.0588 -0.1044
  327MOL0     H44139   7.997   8.992   8.102 -1.9853 -1.7955 -3.9685
  327MOL0     H44140   8.010   8.936   8.273 -2.5614 -1.4248  1.1080
  327MOL0     H44141   7.870   8.605   8.039  3.3345  1.0301 -1.3060
  327MOL0     H44142   7.515   8.998   8.585 -2.7176  2.1724  3.3356
  327MOL0     H44143   7.323   9.038   8.671  2.9071 -1.1704 -0.6058
  327MOL0     H44144   7.235   8.900   8.741  0.8289 -1.3418  0.6908
  327MOL0     H44145   7.299   9.027   8.847 -4.9787  2.8644 -2.0383
  328MOL0     O44146   5.674   8.597   1.807  0.3560  0.1196  0.0888
  328MOL0     C44147   5.687   8.481   1.770 -0.4748 -0.2780  1.0144
  328MOL0     O44148   5.696   8.371   1.854  0.1456  0.6656 -0.1095
  328MOL0     C44149   5.664   8.398   1.990  0.4700  0.6256  0.3263
  328MOL0     C44150   5.758   8.355   2.089  0.4702 -0.1106 -0.7375
  328MOL0     C44151   5.728   8.381   2.222 -0.6411  0.4569  0.4732
  328MOL0     C44152   5.609   8.430   2.265  0.3447  0.1795  0.6611
  328MOL0     O44153   5.574   8.467   2.392  0.2214 -0.0469  0.9170
  328MOL0     C44154   5.644   8.581   2.439 -0.0930  0.1639  0.1406
  328MOL0     C44155   5.565   8.650   2.553 -0.0144  0.5066  0.0078
  328MOL0     C44156   5.644   8.765   2.623 -0.7085 -0.1776 -0.6775
  328MOL0     C44157   5.625   8.899   2.544 -0.4156 -0.2072  0.4373
  328MOL0     C44158   5.731   9.000   2.585  0.8384 -0.1903  0.2368
  328MOL0     C44159   5.699   9.145   2.542  0.3569  0.0405 -1.0078
  328MOL0     C44160   5.802   9.243   2.574 -0.4525 -0.7235 -0.1791
  328MOL0     C44161   5.792   9.367   2.496  0.7118 -0.6547 -0.4252
  328MOL0     N44162   5.820   9.352   2.355  0.2582 -0.2187 -0.2153
  328MOL0     C44163   5.950   9.310   2.318 -0.8166 -1.0010  0.1542
  328MOL0     C44164   5.935   9.285   2.184  0.0822 -0.7183  0.7991
  328MOL0     C44165   6.058   9.258   2.092 -0.0242 -0.5854  0.3741
  328MOL0     C44166   6.103   9.108   2.089 -0.4065  0.5618  0.0951
  328MOL0     C44167   5.984   9.010   2.056  0.1345 -0.0897 -0.4932
  328MOL0     C44168   5.933   8.992   1.914  0.4344 -0.8338 -0.9082
  328MOL0     O44169   5.915   9.129   1.862 -0.0253 -0.0022  0.0415
  328MOL0     C44170   5.791   9.157   1.817  0.3927 -0.0223 -0.3649
  328MOL0     C44171   5.722   9.060   1.751  0.5462  0.4172  0.1314
  328MOL0     C44172   5.588   9.072   1.710  0.4648 -0.4595  0.6271
  328MOL0     C44173   5.515   9.191   1.733  0.3721 -0.3055 -0.4866
  328MOL0     C44174   5.369   9.208   1.730  0.4667  0.5332 -1.4813
  328MOL0     O44175   5.313   9.105   1.661 -0.2633  0.1717  0.0863
  328MOL0     C44176   5.211   9.164   1.582 -0.9272  0.1495 -0.5853
  328MOL0     C44177   5.102   9.073   1.543 -0.9363  0.6298 -0.4054
  328MOL0     C44178   4.986   9.107   1.465 -0.8907 -0.0656  0.4741
  328MOL0     C44179   4.996   9.247   1.419  0.1809  0.0521 -0.4840
  328MOL0     O44180   4.904   9.315   1.353 -0.3906 -0.2173 -0.1257
  328MOL0     C44181   4.793   9.243   1.299 -0.1129  0.1015  1.1430
  328MOL0     C44182   4.676   9.339   1.288  0.1241  0.0657 -0.1630
  328MOL0     C44183   4.559   9.259   1.217  0.6462 -1.4922 -1.0634
  328MOL0     C44184   4.455   9.371   1.176  1.6332  0.3635  0.0186
  328MOL0     C44185   4.335   9.308   1.101 -0.5074 -0.1181  0.4877
  328MOL0     C44186   4.255   9.403   1.009  0.5113 -0.2556  0.3683
  328MOL0     C44187   4.138   9.336   0.938 -0.5238  0.6072 -0.3742
  328MOL0     C44188   4.183   9.261   0.815 -0.2186  0.4309 -0.0381
  328MOL0    Cl44189   4.045   9.161   0.765  0.4468  0.1212 -0.0008
  328MOL0     C44190   5.110   9.331   1.434 -0.5427  0.5218  0.1848
  328MOL0     C44191   5.214   9.289   1.517 -1.1266 -0.0463  0.4499
  328MOL0     O44192   5.307   9.299   1.788  1.1315 -0.7888 -0.1128
  328MOL0     C44193   5.592   9.290   1.791 -1.0577 -0.4078 -0.4414
  328MOL0     C44194   5.730   9.275   1.833  0.9037  0.6526  0.3091
  328MOL0     N44195   5.813   9.321   2.144 -0.4844 -0.2600  1.4327
  328MOL0     N44196   5.739   9.348   2.246  0.9952  0.3486  0.0989
  328MOL0     C44197   5.511   8.467   2.167  0.3259 -0.4390 -0.4440
  328MOL0     C44198   5.537   8.446   2.033  0.6096  0.3789 -0.3281
  328MOL0     C44199   5.709   8.441   1.625  0.1092 -0.9210  0.0284
  328MOL0     C44200   5.761   8.311   1.590  1.3687 -1.0163 -0.2133
  328MOL0     C44201   5.790   8.278   1.459  0.1914  0.1776  1.2075
  328MOL0     C44202   5.767   8.357   1.350  0.7160 -0.3547 -0.6394
  328MOL0     O44203   5.789   8.318   1.215 -0.5180 -0.0034 -0.1169
  328MOL0     C44204   5.906   8.385   1.162  0.0112 -0.3463  0.5473
  328MOL0     C44205   5.934   8.333   1.022 -0.1856 -0.4404 -0.2467
  328MOL0     C44206   6.087   8.380   0.984 -0.5874 -0.0117  0.6534
  328MOL0     C44207   6.195   8.298   1.057  0.8120  0.5756 -0.1581
  328MOL0     C44208   6.321   8.338   0.998  0.0536 -0.7699 -0.2593
  328MOL0     C44209   6.433   8.354   0.952  0.8134 -0.5596  0.6022
  328MOL0     C44210   5.719   8.484   1.373  0.2964  0.7187  0.4843
  328MOL0     C44211   5.696   8.526   1.504  0.1590  0.6628 -0.6300
  328MOL0     C44212   5.633   8.664   1.508 -0.2458 -0.2167 -0.0652
  328MOL0     H44213   5.848   8.302   2.060 -0.0014  0.4510 -3.4863
  328MOL0     H44214   5.802   8.342   2.291  0.5339  1.9012  0.0886
  328MOL0     H44215   5.740   8.545   2.476 -0.4511 -1.5147 -0.4772
  328MOL0     H44216   5.660   8.650   2.356 -2.0567 -0.4326 -0.8052
  328MOL0     H44217   5.544   8.577   2.632  1.6524 -1.0990 -0.9687
  328MOL0     H44218   5.471   8.692   2.515 -0.2515 -0.8522 -1.0245
  328MOL0     H44219   5.749   8.736   2.636 -1.8106 -4.5492  0.0635
  328MOL0     H44220   5.621   8.773   2.730 -0.8424 -1.5869 -0.5770
  328MOL0     H44221   5.631   8.872   2.438 -1.6458 -1.6863  0.7093
  328MOL0     H44222   5.522   8.928   2.566 -0.9059 -0.9230 -0.7832
  328MOL0     H44223   5.726   8.998   2.695  0.2455 -1.3621  0.2046
  328MOL0     H44224   5.828   8.966   2.549 -0.2670 -4.4059  0.6860
  328MOL0     H44225   5.688   9.144   2.433 -1.0488  0.7893 -0.9024
  328MOL0     H44226   5.608   9.172   2.597  0.5423 -2.1965  0.5308
  328MOL0     H44227   5.901   9.198   2.561 -0.9849 -2.1146  0.3023
  328MOL0     H44228   5.806   9.277   2.678  2.6339 -1.3786  0.0081
  328MOL0     H44229   5.701   9.423   2.521  2.3191  1.5033  0.9107
  328MOL0     H44230   5.872   9.433   2.529 -0.3662  0.2777  0.4282
  328MOL0     H44231   6.028   9.308   2.393 -0.9622  1.5621  0.4778
  328MOL0     H44232   6.041   9.299   1.992  1.2204  0.3434  0.5210
  328MOL0     H44233   6.143   9.314   2.131  0.4179  1.0716 -2.6679
  328MOL0     H44234   6.180   9.097   2.012  0.7094  1.5642  1.0515
  328MOL0     H44235   6.146   9.078   2.184 -2.8627  0.0843  1.1423
  328MOL0     H44236   5.892   9.051   2.098 -1.1243 -0.4469 -2.7317
  328MOL0     H44237   6.006   8.911   2.098  1.5164  0.7922  0.9730
  328MOL0     H44238   5.838   8.936   1.920 -1.3496  2.1871  1.8291
  328MOL0     H44239   5.994   8.934   1.843  2.1038  0.2435 -0.4020
  328MOL0     H44240   5.774   8.967   1.728 -2.1343 -1.5555  1.4659
  328MOL0     H44241   5.541   8.989   1.657 -0.9333  0.2176  0.7553
  328MOL0     H44242   5.105   8.987   1.609  0.8334  2.5228  2.2068
  328MOL0     H44243   4.906   9.036   1.446  0.3799 -1.7036  0.9687
  328MOL0     H44244   4.824   9.206   1.201 -2.6774 -1.2031  0.7377
  328MOL0     H44245   4.764   9.151   1.350  0.3290 -0.8466 -0.2634
  328MOL0     H44246   4.638   9.356   1.389 -3.6661 -1.2121 -1.1946
  328MOL0     H44247   4.687   9.433   1.233 -0.0830 -0.4756 -1.1542
  328MOL0     H44248   4.593   9.198   1.134  3.7568 -0.0514 -0.9677
  328MOL0     H44249   4.515   9.195   1.295  2.1354 -0.6001  0.5950
  328MOL0     H44250   4.492   9.455   1.117 -2.9288  1.3333 -1.8508
  328MOL0     H44251   4.401   9.418   1.259 -1.8476  3.8094 -3.7474
  328MOL0     H44252   4.268   9.263   1.176 -0.0121 -1.1050  0.3528
  328MOL0     H44253   4.384   9.244   1.028  1.6665  2.7818 -0.7809
  328MOL0     H44254   4.229   9.499   1.054  2.1099  0.8550 -0.9015
  328MOL0     H44255   4.330   9.423   0.931  1.0990 -0.6594  0.8291
  328MOL0     H44256   4.073   9.412   0.894  1.9815  1.6510 -2.5758
  328MOL0     H44257   4.091   9.270   1.011  4.3994 -2.2312  0.7379
  328MOL0     H44258   4.209   9.323   0.729  1.9751  2.2778  1.8306
  328MOL0     H44259   4.267   9.195   0.839 -1.0792 -0.9498 -0.7190
  328MOL0     H44260   5.123   9.425   1.380  2.0403  0.5300  0.7026
  328MOL0     H44261   5.305   9.347   1.528  0.9991 -3.3289  1.8656
  328MOL0     H44262   5.543   9.387   1.796 -2.8217 -1.2364 -1.0400
  328MOL0     H44263   5.789   9.357   1.874  2.7946 -2.4526  4.6587
  328MOL0     H44264   5.419   8.517   2.192  2.3923  2.9416  1.1937
  328MOL0     H44265   5.462   8.466   1.958  0.0460 -2.6105 -0.6765
  328MOL0     H44266   5.761   8.231   1.663  1.8944 -0.8608 -0.0354
  328MOL0     H44267   5.844   8.185   1.443  1.1764  0.8480  0.5657
  328MOL0     H44268   5.990   8.354   1.224  2.2658 -2.0375 -3.0143
  328MOL0     H44269   5.902   8.494   1.154 -1.6054 -0.4443 -0.4068
  328MOL0     H44270   5.862   8.376   0.952 -1.2007  0.5295  1.3151
  328MOL0     H44271   5.911   8.226   1.018 -1.7009 -0.1356 -0.0418
  328MOL0     H44272   6.102   8.488   0.994  0.4997  0.0722 -1.3535
  328MOL0     H44273   6.102   8.349   0.881  0.6301 -1.1866  1.1486
  328MOL0     H44274   6.204   8.323   1.163  0.3106  1.2023 -0.2626
  328MOL0     H44275   6.188   8.190   1.037  2.9172  0.1138  1.3113
  328MOL0     H44276   6.535   8.375   0.925  0.8385  0.4162  1.4117
  328MOL0     H44277   5.694   8.526   1.276  1.1991  1.0681  0.3884
  328MOL0     H44278   5.713   8.736   1.486 -1.8646  1.0379 -2.2546
  328MOL0     H44279   5.569   8.671   1.419 -1.9066 -1.8521  0.9540
  328MOL0     H44280   5.579   8.689   1.600 -1.9388 -1.2636 -0.7307
  329MOL0     O44281   8.712   6.311   7.527 -0.3552  0.7286  0.0547
  329MOL0     C44282   8.755   6.420   7.528  0.5778  0.0642 -0.3131
  329MOL0     O44283   8.867   6.462   7.584  0.7646 -0.2153 -0.4263
  329MOL0     C44284   8.939   6.381   7.661  0.5221  0.8547  0.0640
  329MOL0     C44285   8.892   6.358   7.795  0.4400 -0.4433  0.4552
  329MOL0     C44286   8.955   6.256   7.874 -0.1671 -0.9180 -0.0607
  329MOL0     C44287   9.066   6.184   7.826 -0.3405  0.0139  1.0608
  329MOL0     O44288   9.126   6.095   7.916 -0.0600  0.1841  0.7440
  329MOL0     C44289   9.214   6.001   7.854  0.1068  0.5783 -1.1024
  329MOL0     C44290   9.267   5.896   7.958  0.4934  0.0979 -0.1198
  329MOL0     C44291   9.338   5.943   8.070 -0.3413 -0.1048  0.1928
  329MOL0     C44292   9.424   6.061   8.049 -0.3494  1.1007 -0.5160
  329MOL0     C44293   9.528   6.080   8.160 -0.2919  0.3081 -0.8897
  329MOL0     C44294   9.651   5.984   8.153  0.4823  0.2487 -0.2424
  329MOL0     C44295   9.718   5.988   8.291  0.1030  1.0442  0.0944
  329MOL0     C44296   9.738   5.844   8.344 -0.7560  0.3755 -0.6174
  329MOL0     N44297   9.605   5.774   8.364 -1.6766 -0.6064 -0.1965
  329MOL0     C44298   9.516   5.836   8.458 -0.2063 -0.0302  0.5069
  329MOL0     C44299   9.404   5.757   8.448  1.0154 -0.8327  0.9779
  329MOL0     C44300   9.280   5.796   8.528  0.2296 -0.0217 -0.2659
  329MOL0     C44301   9.200   5.910   8.462  0.5778 -0.2925  0.1954
  329MOL0     C44302   9.095   5.866   8.354 -0.2734 -0.0559 -0.3987
  329MOL0     C44303   9.008   5.987   8.312  0.8759  0.9019 -0.1953
  329MOL0     O44304   8.939   5.959   8.192 -0.5724 -0.4999 -0.5081
  329MOL0     C44305   8.837   6.035   8.153  1.4651 -0.8785  0.3985
  329MOL0     C44306   8.751   5.972   8.062 -0.1983  0.3685 -0.0445
  329MOL0     C44307   8.647   6.042   7.999 -0.7856  0.1701 -0.6648
  329MOL0     C44308   8.621   6.180   8.031 -0.3263 -0.0789 -0.5746
  329MOL0     C44309   8.520   6.259   7.959 -0.8952  0.8880  0.0374
  329MOL0     O44310   8.435   6.185   7.888  0.1967 -0.1006  0.2711
  329MOL0     C44311   8.349   6.247   7.800 -1.0773  0.4134  0.4794
  329MOL0     C44312   8.228   6.280   7.847 -0.0823 -0.2354 -0.6517
  329MOL0     C44313   8.131   6.315   7.761 -0.0677 -0.0387  0.1839
  329MOL0     C44314   8.156   6.336   7.626 -0.1661  0.2495 -0.7937
  329MOL0     O44315   8.051   6.367   7.542 -0.0893 -0.0904 -0.5504
  329MOL0     C44316   8.046   6.306   7.415 -0.0019  0.6963  1.0801
  329MOL0     C44317   7.898   6.291   7.388 -0.1628  0.3451 -0.0324
  329MOL0     C44318   7.854   6.153   7.448  0.0208 -0.3859 -0.7771
  329MOL0     C44319   7.906   6.019   7.393  0.2591 -0.0282 -0.4993
  329MOL0     C44320   7.840   5.891   7.457 -0.1763  0.1231 -0.5934
  329MOL0     C44321   7.700   5.879   7.403  0.0678  1.0379 -0.0604
  329MOL0     C44322   7.625   5.775   7.479  0.3428 -0.1550  0.1917
  329MOL0     C44323   7.491   5.745   7.420 -0.4926  0.6922  0.2867
  329MOL0    Cl44324   7.413   5.614   7.507  0.0972  0.3920  0.2079
  329MOL0     C44325   8.290   6.316   7.580  0.1047 -0.3555  0.1607
  329MOL0     C44326   8.396   6.279   7.673  0.0115 -1.0731  0.0569
  329MOL0     O44327   8.521   6.379   7.964 -0.3612 -0.0740  0.2725
  329MOL0     C44328   8.701   6.233   8.135 -0.4805  0.0501  0.7178
  329MOL0     C44329   8.799   6.164   8.205 -0.2206 -0.6018  0.5504
  329MOL0     N44330   9.440   5.644   8.369  0.4101 -0.7523 -0.0840
  329MOL0     N44331   9.566   5.653   8.327  0.5220 -0.4766 -0.3235
  329MOL0     C44332   9.113   6.222   7.695 -0.2991 -0.5039 -0.7117
  329MOL0     C44333   9.052   6.320   7.620 -0.6979 -0.3078  0.4004
  329MOL0     C44334   8.674   6.532   7.483  0.2379  0.3470  0.7554
  329MOL0     C44335   8.684   6.655   7.546 -0.2250 -0.0900  0.0814
  329MOL0     C44336   8.612   6.769   7.508  0.4875 -0.5359  0.4687
  329MOL0     C44337   8.519   6.758   7.403  0.5686  0.5571 -0.0738
  329MOL0     O44338   8.444   6.866   7.358 -0.1244 -0.0703  0.0317
  329MOL0     C44339   8.309   6.856   7.324 -0.8779 -0.1079  0.0925
  329MOL0     C44340   8.243   6.987   7.359  0.1764 -0.3490 -0.7841
  329MOL0     C44341   8.255   7.033   7.502  0.2128 -0.1495 -0.0567
  329MOL0     C44342   8.223   7.185   7.508  0.1409  0.3167  0.1675
  329MOL0     C44343   8.295   7.243   7.622 -0.2131 -0.3683 -0.4348
  329MOL0     C44344   8.369   7.288   7.718  0.3669 -0.8143 -0.1245
  329MOL0     C44345   8.511   6.642   7.330 -0.5880 -0.8924 -0.4582
  329MOL0     C44346   8.583   6.522   7.370  0.0615 -0.4214 -0.4502
  329MOL0     C44347   8.593   6.392   7.282 -0.3841 -0.2668  0.0059
  329MOL0     H44348   8.805   6.414   7.828  0.7661  0.9093 -0.9007
  329MOL0     H44349   8.930   6.258   7.980  1.3577  0.9736  0.3074
  329MOL0     H44350   9.156   5.948   7.778  0.4137 -0.6164 -0.5172
  329MOL0     H44351   9.304   6.043   7.809 -0.6140 -0.0565 -3.2450
  329MOL0     H44352   9.327   5.827   7.898 -1.9873 -0.1233 -2.6032
  329MOL0     H44353   9.177   5.845   7.994 -0.6700  0.5489 -2.1873
  329MOL0     H44354   9.398   5.859   8.106 -0.3021 -0.7398 -1.2829
  329MOL0     H44355   9.259   5.966   8.141  0.7777  0.2453  1.3756
  329MOL0     H44356   9.474   6.052   7.952  0.6502  3.5964 -0.3086
  329MOL0     H44357   9.365   6.153   8.047 -1.7970  0.2061 -0.2938
  329MOL0     H44358   9.561   6.184   8.165  0.9192 -0.0983 -0.0325
  329MOL0     H44359   9.474   6.053   8.252  2.6931  0.8152  1.1482
  329MOL0     H44360   9.624   5.885   8.116 -0.3025  1.6149 -3.7840
  329MOL0     H44361   9.720   6.022   8.077  1.2433 -3.3285 -1.5304
  329MOL0     H44362   9.661   6.040   8.369 -0.2371 -0.8944  1.2042
  329MOL0     H44363   9.818   6.032   8.284  1.6630 -1.6293  2.9766
  329MOL0     H44364   9.806   5.789   8.278  1.9979  0.5887  1.8472
  329MOL0     H44365   9.783   5.846   8.443 -0.0622  2.7450 -0.9166
  329MOL0     H44366   9.533   5.938   8.492  4.2446 -0.3607 -0.1719
  329MOL0     H44367   9.220   5.704   8.528 -2.8526  1.8274  0.8999
  329MOL0     H44368   9.303   5.827   8.630 -2.4363 -0.1553  0.4511
  329MOL0     H44369   9.140   5.949   8.545 -1.9882 -2.3955 -0.5296
  329MOL0     H44370   9.274   5.985   8.433  0.5893  0.1559  1.3119
  329MOL0     H44371   9.026   5.786   8.383 -0.7107  0.6246  0.4830
  329MOL0     H44372   9.138   5.820   8.265  1.8389  0.2252  0.4350
  329MOL0     H44373   9.075   6.073   8.297 -0.6421  2.4914  1.5825
  329MOL0     H44374   8.950   6.012   8.402  2.1600 -0.3990  1.0525
  329MOL0     H44375   8.771   5.870   8.031  0.4359  0.5514 -0.2578
  329MOL0     H44376   8.582   5.991   7.929  0.3715 -2.4143  0.0062
  329MOL0     H44377   8.191   6.261   7.947 -1.8806 -0.7250 -1.3905
  329MOL0     H44378   8.026   6.324   7.786 -0.2950 -0.5340 -0.5588
  329MOL0     H44379   8.085   6.372   7.337 -1.1035  2.4747  1.9731
  329MOL0     H44380   8.100   6.211   7.411  1.5100  1.5192  1.4360
  329MOL0     H44381   7.841   6.374   7.432 -0.6363  0.8858 -1.5964
  329MOL0     H44382   7.871   6.292   7.282 -1.4117  0.7766  0.2654
  329MOL0     H44383   7.880   6.160   7.554 -0.7328 -2.7917 -0.3821
  329MOL0     H44384   7.745   6.143   7.449 -0.0217 -0.4965  2.3072
  329MOL0     H44385   8.014   6.015   7.405  0.2614  2.2430  0.6962
  329MOL0     H44386   7.888   6.017   7.285  0.1634  0.9617 -0.5107
  329MOL0     H44387   7.840   5.910   7.565 -1.2812  2.5246 -0.9389
  329MOL0     H44388   7.904   5.803   7.448  1.1830  1.0152  0.0227
  329MOL0     H44389   7.647   5.971   7.427 -0.6968  0.3188  1.1087
  329MOL0     H44390   7.696   5.856   7.296 -0.3446  0.0135  0.1588
  329MOL0     H44391   7.608   5.807   7.582  1.9199  1.8072 -0.0972
  329MOL0     H44392   7.677   5.680   7.482 -0.0369 -0.3484  0.9210
  329MOL0     H44393   7.421   5.829   7.419  0.4435  1.5122 -2.3425
  329MOL0     H44394   7.515   5.734   7.314  2.5736  0.5720  0.9048
  329MOL0     H44395   8.311   6.348   7.479 -1.0401 -0.8094 -0.2349
  329MOL0     H44396   8.494   6.251   7.634  1.5187  2.0842  1.2574
  329MOL0     H44397   8.689   6.334   8.173  1.0501  0.6319 -0.3051
  329MOL0     H44398   8.866   6.212   8.276  3.5887 -0.8785 -2.5280
  329MOL0     H44399   9.206   6.198   7.645 -0.0940  1.1920 -1.1729
  329MOL0     H44400   9.090   6.334   7.520 -2.6734 -0.4727 -0.4020
  329MOL0     H44401   8.765   6.668   7.617 -0.1206  1.6058 -0.2821
  329MOL0     H44402   8.628   6.868   7.548 -0.4708 -0.4245  0.6053
  329MOL0     H44403   8.267   6.771   7.378  1.9075 -2.0601 -0.5582
  329MOL0     H44404   8.302   6.839   7.216  0.2524 -2.0945  0.2797
  329MOL0     H44405   8.137   6.994   7.332 -0.0909  2.5180  0.6952
  329MOL0     H44406   8.290   7.065   7.298  0.8382 -0.5149 -0.4995
  329MOL0     H44407   8.351   7.007   7.547 -1.4389 -1.6095  2.9086
  329MOL0     H44408   8.185   6.980   7.567 -0.7084  0.3351 -0.6252
  329MOL0     H44409   8.254   7.235   7.415  0.3545  2.2025  1.1982
  329MOL0     H44410   8.116   7.202   7.494  0.5573  1.5163 -2.0148
  329MOL0     H44411   8.425   7.315   7.805  0.8759 -2.5111  0.1081
  329MOL0     H44412   8.452   6.644   7.240 -2.1071 -0.2371  0.5162
  329MOL0     H44413   8.527   6.319   7.330 -1.6216  0.4398 -0.5575
  329MOL0     H44414   8.563   6.422   7.181  1.2588 -2.5240 -1.2433
  329MOL0     H44415   8.695   6.354   7.271 -0.3415 -0.6516  1.5320
  330MOL0     O44416   3.204   0.300   6.666  0.4251  0.3186  0.3913
  330MOL0     C44417   3.206   0.241   6.771  0.3088  0.1071 -0.8201
  330MOL0     O44418   3.316   0.216   6.854  0.1090  0.8922 -0.0370
  330MOL0     C44419   3.429   0.244   6.787  0.0060  0.5238 -0.5811
  330MOL0     C44420   3.486   0.152   6.690 -0.6476  0.1519 -0.5058
  330MOL0     C44421   3.598   0.192   6.620 -0.2722  0.9903 -0.4228
  330MOL0     C44422   3.662   0.313   6.641 -0.8221  0.0637 -0.1828
  330MOL0     O44423   3.764   0.359   6.562  0.2189  0.6609 -0.1489
  330MOL0     C44424   3.825   0.271   6.468  1.0272  0.1743  0.0645
  330MOL0     C44425   3.917   0.345   6.368 -0.9383  0.1528  1.0296
  330MOL0     C44426   3.840   0.454   6.284 -0.9594  0.8894 -0.2423
  330MOL0     C44427   3.837   0.601   6.345 -0.5000 -0.7865 -0.4177
  330MOL0     C44428   3.786   0.717   6.258 -0.3711  0.2977 -0.1389
  330MOL0     C44429   3.632   0.720   6.220 -0.2469 -0.5176 -0.1498
  330MOL0     C44430   3.610   0.829   6.117 -0.2834  0.7758  0.1399
  330MOL0     C44431   3.688   0.806   5.982  0.7259  0.8913 -0.0699
  330MOL0     N44432   3.653   0.896   5.870 -0.5230 -0.5071  0.1030
  330MOL0     C44433   3.677   1.030   5.854 -0.6752  0.2687 -0.0204
  330MOL0     C44434   3.608   1.071   5.751 -0.1198  0.6736  0.9317
  330MOL0     C44435   3.595   1.204   5.672 -0.6250  0.8225  0.0288
  330MOL0     C44436   3.701   1.302   5.705 -0.2645  0.1033 -1.3189
  330MOL0     C44437   3.717   1.401   5.591  0.0693  0.7244 -0.2023
  330MOL0     C44438   3.833   1.496   5.621 -0.0048 -0.2438  0.1420
  330MOL0     O44439   3.825   1.614   5.534 -0.6490  0.0705  0.3894
  330MOL0     C44440   3.939   1.633   5.455  0.3291  0.2237 -0.2104
  330MOL0     C44441   3.972   1.763   5.435 -0.2785 -0.0468  0.1079
  330MOL0     C44442   4.085   1.799   5.353  0.0954 -0.1140  0.0485
  330MOL0     C44443   4.156   1.697   5.284 -0.0290 -0.6779  0.3025
  330MOL0     C44444   4.268   1.737   5.199 -0.2884 -0.5360 -0.4399
  330MOL0     O44445   4.307   1.875   5.218  0.3136  0.5241  0.3874
  330MOL0     C44446   4.396   1.927   5.131 -0.4376  0.5470  0.4764
  330MOL0     C44447   4.503   1.991   5.187  1.8735 -0.5169 -0.2567
  330MOL0     C44448   4.601   2.050   5.117 -0.1925  0.4470 -0.4436
  330MOL0     C44449   4.583   2.060   4.973 -0.7134 -0.1191 -0.6756
  330MOL0     O44450   4.687   2.112   4.893 -1.1597 -0.0078  0.2950
  330MOL0     C44451   4.729   2.066   4.761  0.7382 -1.2561  0.2588
  330MOL0     C44452   4.849   2.145   4.714 -0.5621  0.4233 -0.1910
  330MOL0     C44453   4.980   2.089   4.768  0.1656 -0.0072  0.8411
  330MOL0     C44454   5.086   2.189   4.740 -0.3536  0.1291 -0.1638
  330MOL0     C44455   5.228   2.119   4.737  0.3488 -0.4332 -0.3347
  330MOL0     C44456   5.253   2.052   4.880 -0.4369 -1.2864  0.4382
  330MOL0     C44457   5.236   2.154   5.001 -0.7414  0.2369 -0.6069
  330MOL0     C44458   5.326   2.274   5.002  0.3197 -0.0821 -0.5156
  330MOL0    Cl44459   5.500   2.243   4.985  0.1224 -0.0415  0.2236
  330MOL0     C44460   4.469   2.000   4.921 -0.1668  0.1225  1.0804
  330MOL0     C44461   4.377   1.923   4.994  0.2035  0.6439  0.2683
  330MOL0     O44462   4.326   1.653   5.138 -0.7318 -0.4835 -0.3579
  330MOL0     C44463   4.122   1.562   5.307 -0.0713  0.4444 -0.9890
  330MOL0     C44464   4.015   1.534   5.389 -0.4322 -0.1643  0.2051
  330MOL0     N44465   3.528   0.968   5.707  0.1937  0.5921 -0.3851
  330MOL0     N44466   3.550   0.866   5.776  0.6564 -0.4354 -0.6841
  330MOL0     C44467   3.603   0.403   6.732  0.0609  0.5975 -0.2932
  330MOL0     C44468   3.492   0.364   6.810 -0.1145 -0.3392 -0.1076
  330MOL0     C44469   3.081   0.168   6.802  0.4273 -0.7477  0.9258
  330MOL0     C44470   3.075   0.030   6.785 -0.2018  0.7155 -0.4295
  330MOL0     C44471   2.953  -0.027   6.798  0.1778  0.7971  0.8209
  330MOL0     C44472   2.833   0.044   6.813 -0.7200  0.5349  0.6998
  330MOL0     O44473   2.716  -0.024   6.802 -0.0981 -0.2557  0.3702
  330MOL0     C44474   2.589   0.048   6.798 -0.8857 -0.1755 -0.0549
  330MOL0     C44475   2.483  -0.066   6.782  0.6591  0.0229 -0.3618
  330MOL0     C44476   2.346  -0.004   6.754 -0.4564  0.0121 -0.4333
  330MOL0     C44477   2.228  -0.085   6.794 -0.7506 -0.2763  1.3434
  330MOL0     C44478   2.220  -0.185   6.683  0.0435  0.5015 -0.3935
  330MOL0     C44479   2.190  -0.275   6.607 -0.1216 -0.4337 -0.4545
  330MOL0     C44480   2.843   0.180   6.818 -1.0004 -0.2512  0.5297
  330MOL0     C44481   2.963   0.253   6.814 -0.0778  0.7442  0.8285
  330MOL0     C44482   2.974   0.399   6.825 -0.1260  0.5158  0.1880
  330MOL0     H44483   3.438   0.056   6.668  0.5557  0.3048 -4.5629
  330MOL0     H44484   3.614   0.121   6.540 -2.4071  0.2032 -0.2200
  330MOL0     H44485   3.887   0.215   6.539  1.5539  2.8403  1.8215
  330MOL0     H44486   3.744   0.219   6.416 -3.0911  3.2721  2.7300
  330MOL0     H44487   3.951   0.257   6.312  0.1614 -0.0168  1.9380
  330MOL0     H44488   3.998   0.392   6.423  1.5432 -3.2722  0.6397
  330MOL0     H44489   3.737   0.421   6.274 -0.2724 -1.6794  0.5923
  330MOL0     H44490   3.888   0.453   6.185  0.1582  0.0359  0.2798
  330MOL0     H44491   3.791   0.609   6.444  3.1171  2.3513  1.2464
  330MOL0     H44492   3.941   0.626   6.369 -0.3968 -0.9884 -0.6558
  330MOL0     H44493   3.799   0.816   6.301 -2.2596  0.4957  0.0426
  330MOL0     H44494   3.846   0.703   6.168 -0.1126  1.9242 -0.2454
  330MOL0     H44495   3.597   0.627   6.175 -2.3435  0.0746  0.1588
  330MOL0     H44496   3.566   0.745   6.304  1.4497 -0.7962  1.3485
  330MOL0     H44497   3.653   0.921   6.158  1.8502 -0.1654  0.1724
  330MOL0     H44498   3.504   0.849   6.100 -0.0139  0.7412 -1.8193
  330MOL0     H44499   3.796   0.805   6.000  0.6267 -1.4520  0.7414
  330MOL0     H44500   3.664   0.709   5.937  0.5758  1.1585 -0.5745
  330MOL0     H44501   3.758   1.076   5.908  0.9434 -4.2245  1.8188
  330MOL0     H44502   3.597   1.189   5.564 -0.5095  1.9677 -0.1401
  330MOL0     H44503   3.497   1.245   5.701 -1.0285 -1.0362  1.4527
  330MOL0     H44504   3.688   1.340   5.807 -1.2946 -1.6646 -0.7365
  330MOL0     H44505   3.801   1.260   5.723 -0.2254  1.5135  3.1015
  330MOL0     H44506   3.625   1.458   5.573  0.1019  0.8533  0.0373
  330MOL0     H44507   3.729   1.342   5.499 -3.8906  1.1079 -1.1635
  330MOL0     H44508   3.928   1.442   5.619 -0.7718 -1.8121  2.3338
  330MOL0     H44509   3.830   1.538   5.722  2.8863  0.2351  0.0941
  330MOL0     H44510   3.931   1.844   5.495  0.7959  2.3590 -2.2044
  330MOL0     H44511   4.119   1.901   5.361  0.1259 -0.2605  3.0973
  330MOL0     H44512   4.517   2.002   5.294  4.9798  0.2473 -0.6395
  330MOL0     H44513   4.684   2.094   5.171 -0.5310  0.0818  0.3903
  330MOL0     H44514   4.750   1.959   4.755  0.2870 -1.4049  1.1996
  330MOL0     H44515   4.645   2.078   4.691 -0.4502 -2.4601  1.4127
  330MOL0     H44516   4.854   2.153   4.605 -1.8283  0.9686 -0.2209
  330MOL0     H44517   4.837   2.246   4.754 -2.7743 -0.3465  1.2258
  330MOL0     H44518   4.969   2.071   4.876  0.0624  1.1130  1.0290
  330MOL0     H44519   5.004   1.999   4.711  0.8913  0.7634 -0.1039
  330MOL0     H44520   5.082   2.270   4.812  1.5319  0.8421 -0.8097
  330MOL0     H44521   5.068   2.242   4.646  1.9488  2.1154  0.4322
  330MOL0     H44522   5.310   2.188   4.716 -0.8684  0.7203 -1.4506
  330MOL0     H44523   5.223   2.040   4.661 -3.1938  0.1957 -0.9132
  330MOL0     H44524   5.178   1.972   4.882 -2.9745  0.9162 -0.6085
  330MOL0     H44525   5.349   2.001   4.887 -0.7446 -1.9000  0.2529
  330MOL0     H44526   5.263   2.094   5.088 -2.0002 -0.8802 -0.9499
  330MOL0     H44527   5.129   2.178   5.007 -1.4613 -2.4993 -1.0200
  330MOL0     H44528   5.303   2.334   4.914  1.7941 -0.1526 -0.9803
  330MOL0     H44529   5.313   2.331   5.094  1.5637  0.1021 -0.4320
  330MOL0     H44530   4.429   2.026   4.823 -0.7399  0.8369  1.4989
  330MOL0     H44531   4.288   1.878   4.951  2.2329 -1.0866 -2.4329
  330MOL0     H44532   4.168   1.477   5.257 -0.9784 -0.8373  0.3037
  330MOL0     H44533   3.966   1.439   5.404 -1.2085  0.4169  1.4897
  330MOL0     H44534   3.636   0.504   6.751 -0.5986  1.0739 -1.5580
  330MOL0     H44535   3.435   0.425   6.879 -4.3595  0.5441 -3.8995
  330MOL0     H44536   3.162  -0.034   6.781  0.0906  0.7537  2.7694
  330MOL0     H44537   2.950  -0.134   6.820  2.1417  0.4479 -0.3620
  330MOL0     H44538   2.586   0.131   6.727  0.6247  0.4099  0.5171
  330MOL0     H44539   2.578   0.084   6.900  0.7027  0.7586 -0.1844
  330MOL0     H44540   2.486  -0.135   6.867  2.8879 -1.7555 -1.7502
  330MOL0     H44541   2.501  -0.135   6.699  1.0662 -1.0094  0.5530
  330MOL0     H44542   2.353   0.012   6.646 -5.0991 -1.7702 -1.2175
  330MOL0     H44543   2.334   0.082   6.819  2.2746 -1.2746  2.0014
  330MOL0     H44544   2.246  -0.141   6.886 -3.7727  0.3533  2.4537
  330MOL0     H44545   2.134  -0.031   6.812 -0.1692  0.6808  1.5734
  330MOL0     H44546   2.158  -0.352   6.540  1.9955 -3.6662  1.9685
  330MOL0     H44547   2.749   0.235   6.821 -0.9675 -0.2139  3.2848
  330MOL0     H44548   3.020   0.445   6.737 -1.6435 -0.4002 -1.1487
  330MOL0     H44549   2.874   0.444   6.831 -1.7612 -3.0052  2.7998
  330MOL0     H44550   3.035   0.421   6.914 -0.1437 -0.1519  0.3663
  331MOL0     O44551   1.405   0.116   0.748 -0.0412 -0.2195 -0.2817
  331MOL0     C44552   1.354   0.024   0.818  0.3226 -1.1430  0.7112
  331MOL0     O44553   1.407  -0.102   0.827 -0.0039 -0.3227 -0.3910
  331MOL0     C44554   1.518  -0.139   0.761  0.7280  0.4089 -0.2297
  331MOL0     C44555   1.507  -0.199   0.629 -0.6030  0.4826 -0.3067
  331MOL0     C44556   1.625  -0.225   0.557  0.1209  0.3415 -0.2096
  331MOL0     C44557   1.752  -0.208   0.612 -0.9126  0.3973 -0.6499
  331MOL0     O44558   1.876  -0.223   0.557 -0.3847 -0.3493  0.8496
  331MOL0     C44559   1.875  -0.310   0.440  0.1785  0.5368  0.1496
  331MOL0     C44560   1.987  -0.414   0.450 -0.4670  0.1556  0.1319
  331MOL0     C44561   2.124  -0.355   0.488 -0.3895  0.1823 -0.1230
  331MOL0     C44562   2.234  -0.459   0.486 -0.4103  0.1270 -0.0997
  331MOL0     C44563   2.286  -0.493   0.338  0.0988  0.3434 -0.0456
  331MOL0     C44564   2.441  -0.483   0.317 -0.3480 -1.0581 -0.0341
  331MOL0     C44565   2.515  -0.560   0.428  0.0537 -1.4593 -0.6290
  331MOL0     C44566   2.661  -0.493   0.439  0.0506  0.9575  0.5248
  331MOL0     N44567   2.732  -0.495   0.310 -0.0149 -0.3710  0.5830
  331MOL0     C44568   2.744  -0.600   0.231  0.1153 -0.1757  1.2704
  331MOL0     C44569   2.811  -0.558   0.120  0.4041 -0.5876 -0.0813
  331MOL0     C44570   2.842  -0.638   0.002  1.5247  0.8562 -0.0643
  331MOL0     C44571   2.978  -0.617  -0.073 -0.0995 -0.3987 -0.7446
  331MOL0     C44572   3.094  -0.722  -0.039 -0.7206  0.3308  0.7424
  331MOL0     C44573   3.223  -0.686  -0.110 -0.8154  0.7290  0.0017
  331MOL0     O44574   3.338  -0.757  -0.053  0.4957  0.7046 -0.0674
  331MOL0     C44575   3.461  -0.739  -0.097 -0.7838  0.4594 -0.3429
  331MOL0     C44576   3.558  -0.846  -0.087  0.6168 -0.8407  0.3624
  331MOL0     C44577   3.696  -0.822  -0.107  0.6407  0.6556 -0.0102
  331MOL0     C44578   3.739  -0.696  -0.136  0.0079 -0.6339  0.6344
  331MOL0     C44579   3.886  -0.668  -0.154 -0.0148 -1.1212  1.2004
  331MOL0     O44580   3.930  -0.538  -0.194 -0.3726 -0.4481 -0.3572
  331MOL0     C44581   4.067  -0.519  -0.210  0.5472 -0.8097  0.5146
  331MOL0     C44582   4.146  -0.587  -0.309 -0.0291 -0.6296  0.7847
  331MOL0     C44583   4.289  -0.570  -0.302 -0.6684 -0.6888 -0.1942
  331MOL0     C44584   4.341  -0.495  -0.203 -0.0280 -0.3386  0.3083
  331MOL0     O44585   4.471  -0.498  -0.177 -1.0116  0.9057  0.5580
  331MOL0     C44586   4.536  -0.447  -0.060 -0.0246 -0.0021 -0.6058
  331MOL0     C44587   4.566  -0.290  -0.076  0.2587 -0.5925 -0.0377
  331MOL0     C44588   4.595  -0.251  -0.227 -0.1937 -0.3032 -0.7136
  331MOL0     C44589   4.693  -0.342  -0.300  0.0662 -0.3732 -1.0328
  331MOL0     C44590   4.742  -0.288  -0.432  0.2491 -0.3661  0.3405
  331MOL0     C44591   4.639  -0.268  -0.538  0.0098 -0.8262  0.1321
  331MOL0     C44592   4.690  -0.180  -0.653  0.7513 -0.3057 -0.0255
  331MOL0     C44593   4.832  -0.213  -0.712  0.6308 -0.2573  0.5139
  331MOL0    Cl44594   4.952  -0.111  -0.630 -0.0582 -0.2301 -0.1187
  331MOL0     C44595   4.258  -0.424  -0.115 -0.2285  0.6223 -1.0225
  331MOL0     C44596   4.120  -0.439  -0.115 -0.2767  0.3067 -1.2132
  331MOL0     O44597   3.957  -0.755  -0.122  0.3077 -1.1960 -0.5880
  331MOL0     C44598   3.648  -0.595  -0.150 -0.7157  0.1254 -0.3606
  331MOL0     C44599   3.514  -0.610  -0.130  0.6026  0.1037 -0.5690
  331MOL0     N44600   2.862  -0.433   0.150  0.0860  0.4804  0.0852
  331MOL0     N44601   2.807  -0.394   0.271  0.2148  0.5692  0.5315
  331MOL0     C44602   1.759  -0.158   0.739  0.4224 -1.0589 -0.3724
  331MOL0     C44603   1.643  -0.110   0.805 -0.5381 -0.4185 -0.2906
  331MOL0     C44604   1.211   0.049   0.881  0.4465  0.3388  0.1774
  331MOL0     C44605   1.137  -0.058   0.942 -0.3200  0.1697 -0.3147
  331MOL0     C44606   1.017  -0.027   1.009  0.1100 -0.0787  0.0053
  331MOL0     C44607   0.964   0.102   1.022 -1.2029  0.0901  0.9810
  331MOL0     O44608   0.852   0.131   1.090  0.4593  0.1274 -0.2093
  331MOL0     C44609   0.811   0.049   1.204  0.6360 -0.4345 -0.8667
  331MOL0     C44610   0.728   0.135   1.300  0.1416 -0.2463  0.6404
  331MOL0     C44611   0.748   0.280   1.287 -0.5790  1.1618  1.2973
  331MOL0     C44612   0.699   0.371   1.401 -0.9418 -0.6091  0.4615
  331MOL0     C44613   0.756   0.512   1.388  0.8506  1.3430  0.1098
  331MOL0     C44614   0.789   0.628   1.360 -0.2786  0.5430 -0.5698
  331MOL0     C44615   1.034   0.201   0.949  0.0200 -0.4600 -0.2571
  331MOL0     C44616   1.157   0.184   0.889 -0.2014  0.5219 -0.0372
  331MOL0     C44617   1.222   0.297   0.817  1.1612 -0.5864 -0.1730
  331MOL0     H44618   1.408  -0.210   0.586 -0.0163 -1.4814 -1.2342
  331MOL0     H44619   1.608  -0.271   0.460 -0.8602 -1.6401  0.8331
  331MOL0     H44620   1.783  -0.369   0.433  0.2494  0.0922  2.2268
  331MOL0     H44621   1.882  -0.251   0.348 -0.8353 -1.6189 -1.4139
  331MOL0     H44622   1.987  -0.474   0.358 -2.5439  0.4591 -0.1123
  331MOL0     H44623   1.971  -0.486   0.531  0.1778 -0.6496 -0.4347
  331MOL0     H44624   2.102  -0.326   0.591  1.1698  0.3860  0.1727
  331MOL0     H44625   2.161  -0.270   0.430 -0.8067 -0.1525 -0.8922
  331MOL0     H44626   2.315  -0.412   0.542 -1.2789 -1.9748  3.1827
  331MOL0     H44627   2.203  -0.549   0.540  1.1065 -1.1461 -1.2504
  331MOL0     H44628   2.257  -0.586   0.288  2.5896 -1.0976  1.0362
  331MOL0     H44629   2.240  -0.418   0.272 -1.3823 -0.3356  0.1675
  331MOL0     H44630   2.469  -0.529   0.222 -0.9366  0.1374 -0.8148
  331MOL0     H44631   2.463  -0.376   0.328 -3.0497 -0.7110  4.5934
  331MOL0     H44632   2.528  -0.665   0.398 -0.5069 -2.2458  1.6671
  331MOL0     H44633   2.464  -0.569   0.524 -1.6838 -1.8569 -1.5270
  331MOL0     H44634   2.648  -0.390   0.472  0.5054  1.0547  0.4109
  331MOL0     H44635   2.725  -0.547   0.509 -0.9350 -0.8412  0.1174
  331MOL0     H44636   2.704  -0.700   0.238 -1.0089  0.2320  0.8830
  331MOL0     H44637   2.846  -0.742   0.036 -0.8701  0.7879  0.1221
  331MOL0     H44638   2.769  -0.622  -0.077  0.4497  0.8242  0.9045
  331MOL0     H44639   2.960  -0.605  -0.180  2.6137  0.8942 -1.1248
  331MOL0     H44640   3.025  -0.523  -0.044 -2.1479  0.5457 -0.2578
  331MOL0     H44641   3.077  -0.824  -0.074  0.4748  0.1182  0.7478
  331MOL0     H44642   3.109  -0.712   0.069  1.0740  4.8268  0.3023
  331MOL0     H44643   3.245  -0.580  -0.098  2.7716  0.3635 -2.0911
  331MOL0     H44644   3.201  -0.706  -0.215 -0.2843  0.4145 -0.0563
  331MOL0     H44645   3.518  -0.937  -0.044 -0.8771  0.0139  0.8849
  331MOL0     H44646   3.764  -0.907  -0.097  0.2065  0.5592  4.5206
  331MOL0     H44647   4.088  -0.634  -0.388  0.4753 -0.8966  0.5658
  331MOL0     H44648   4.364  -0.608  -0.370  1.9707 -0.3689  2.3289
  331MOL0     H44649   4.487  -0.460   0.037  2.0366  0.4873  0.5778
  331MOL0     H44650   4.629  -0.501  -0.039 -0.0328 -0.0341 -0.6527
  331MOL0     H44651   4.482  -0.232  -0.038  1.0555  1.4042 -1.1862
  331MOL0     H44652   4.652  -0.264  -0.014 -0.7710  1.9462  0.4458
  331MOL0     H44653   4.500  -0.263  -0.279  0.5174  0.0967 -2.1607
  331MOL0     H44654   4.630  -0.147  -0.235 -1.6270  0.0501 -4.4103
  331MOL0     H44655   4.657  -0.444  -0.314 -1.6912  0.4899 -3.5451
  331MOL0     H44656   4.781  -0.352  -0.237  1.9270  3.1462 -2.7577
  331MOL0     H44657   4.828  -0.350  -0.458  0.8057  1.6922 -3.4804
  331MOL0     H44658   4.787  -0.191  -0.409  4.1426 -1.6970 -0.8632
  331MOL0     H44659   4.618  -0.366  -0.582 -1.4001 -0.1620 -0.7482
  331MOL0     H44660   4.546  -0.240  -0.488  0.7310 -1.0236  1.6568
  331MOL0     H44661   4.684  -0.074  -0.626  0.7577 -0.4176  0.4243
  331MOL0     H44662   4.613  -0.187  -0.731 -0.5623 -1.4120  1.3015
  331MOL0     H44663   4.843  -0.320  -0.693 -1.0276 -1.1142 -2.6025
  331MOL0     H44664   4.842  -0.198  -0.820  3.2673  3.7164  1.1223
  331MOL0     H44665   4.302  -0.364  -0.036 -2.5284  2.5377 -1.1070
  331MOL0     H44666   4.058  -0.386  -0.044  0.6058  0.3113 -0.4310
  331MOL0     H44667   3.691  -0.504  -0.191  0.3227 -1.0904 -2.1066
  331MOL0     H44668   3.456  -0.519  -0.125  0.3725 -0.1217  2.2797
  331MOL0     H44669   1.862  -0.139   0.768  0.6291 -0.1142 -1.6366
  331MOL0     H44670   1.646  -0.060   0.901  0.2551  1.4749 -1.2484
  331MOL0     H44671   1.167  -0.162   0.949  4.0342  1.2451 -0.1088
  331MOL0     H44672   0.960  -0.115   1.038  1.3956 -1.9990 -2.8098
  331MOL0     H44673   0.900   0.003   1.249  0.1834 -1.2265 -0.7648
  331MOL0     H44674   0.750  -0.035   1.171  1.4702 -1.3788 -0.0634
  331MOL0     H44675   0.736   0.088   1.399 -0.5525 -1.6886  0.0477
  331MOL0     H44676   0.622   0.119   1.277 -0.6616  0.8320  3.1602
  331MOL0     H44677   0.712   0.299   1.186  1.6609 -3.1996 -0.5859
  331MOL0     H44678   0.857   0.291   1.288  0.2297 -3.8995 -0.7981
  331MOL0     H44679   0.593   0.382   1.378 -0.2661  2.0037 -2.0005
  331MOL0     H44680   0.725   0.342   1.503 -0.6740  3.0321  1.5599
  331MOL0     H44681   0.815   0.732   1.354  1.3475  0.1899 -0.1062
  331MOL0     H44682   0.990   0.301   0.948 -0.6195 -0.7012 -2.6435
  331MOL0     H44683   1.173   0.390   0.847 -1.0316 -1.7586  0.0962
  331MOL0     H44684   1.326   0.293   0.849  1.3282 -2.7689 -0.8587
  331MOL0     H44685   1.210   0.287   0.709  1.1539  1.8927 -0.4716
  332MOL0     O44686  11.457   7.167   5.000  0.3093 -0.0472  0.6672
  332MOL0     C44687  11.525   7.221   5.084 -1.0257 -0.0837 -0.0299
  332MOL0     O44688  11.517   7.210   5.223  0.3054  0.0561 -0.5948
  332MOL0     C44689  11.427   7.115   5.276  0.4389  0.0397  0.9989
  332MOL0     C44690  11.461   6.979   5.273 -0.4452  0.2594  0.0163
  332MOL0     C44691  11.371   6.881   5.296  0.3268 -0.4751 -0.0380
  332MOL0     C44692  11.242   6.915   5.330  0.9910 -0.7954  0.8962
  332MOL0     O44693  11.141   6.824   5.336 -0.2147  0.7746  0.6604
  332MOL0     C44694  11.140   6.767   5.470 -0.1485  0.1661  0.7469
  332MOL0     C44695  11.013   6.691   5.499  0.4432 -0.4470 -0.7534
  332MOL0     C44696  10.978   6.582   5.396 -0.6062 -0.5239 -0.0638
  332MOL0     C44697  10.923   6.454   5.470  0.3488 -0.3061  0.5931
  332MOL0     C44698  10.890   6.328   5.393  0.2298 -0.5116 -0.1448
  332MOL0     C44699  10.779   6.250   5.446  0.5374  0.3024  0.1138
  332MOL0     C44700  10.805   6.190   5.585 -0.0092  0.1266 -0.5204
  332MOL0     C44701  10.697   6.111   5.649 -0.2818 -0.6606 -0.3057
  332MOL0     N44702  10.690   5.965   5.625  0.4385 -0.0915  0.6781
  332MOL0     C44703  10.582   5.897   5.575 -0.2665 -0.2115 -0.0531
  332MOL0     C44704  10.595   5.770   5.618 -0.7843 -1.0864 -0.6518
  332MOL0     C44705  10.493   5.657   5.586  0.2283  0.1446  0.0979
  332MOL0     C44706  10.417   5.624   5.712  0.3119 -0.3554 -0.3026
  332MOL0     C44707  10.305   5.723   5.730  0.1140 -0.2118 -0.0062
  332MOL0     C44708  10.230   5.706   5.866  0.3551 -0.6476 -0.0116
  332MOL0     O44709  10.313   5.747   5.977 -0.3953  0.4770 -0.2150
  332MOL0     C44710  10.352   5.876   5.970 -0.3969 -0.1839 -0.4261
  332MOL0     C44711  10.259   5.983   5.976 -0.5684 -0.3814  0.2285
  332MOL0     C44712  10.304   6.122   5.972  0.3410  1.0130  0.4072
  332MOL0     C44713  10.432   6.157   5.961  0.2177 -0.4376 -0.2312
  332MOL0     C44714  10.477   6.289   5.947  0.0777 -0.3312  1.1200
  332MOL0     O44715  10.609   6.302   5.899  0.1619 -0.1016 -0.0809
  332MOL0     C44716  10.663   6.432   5.906  0.0239  0.0135  0.0060
  332MOL0     C44717  10.722   6.484   6.023 -0.5045  0.0270 -0.2103
  332MOL0     C44718  10.777   6.607   6.026 -0.5055 -0.2417  1.2536
  332MOL0     C44719  10.777   6.682   5.906  0.5138  0.4147  0.4115
  332MOL0     O44720  10.820   6.807   5.933  0.1843 -0.0985 -0.0406
  332MOL0     C44721  10.803   6.908   5.842  0.7577 -1.3935  0.2095
  332MOL0     C44722  10.790   7.037   5.924  0.4635 -0.4395  0.1924
  332MOL0     C44723  10.713   7.150   5.854  0.6559  1.2552  0.0540
  332MOL0     C44724  10.734   7.279   5.931 -1.2798 -0.5047 -0.7414
  332MOL0     C44725  10.702   7.403   5.846  0.3047 -0.6556 -0.0944
  332MOL0     C44726  10.668   7.537   5.917 -0.4758  0.5158  0.5906
  332MOL0     C44727  10.625   7.642   5.821 -0.3362  1.0191 -0.2136
  332MOL0     C44728  10.662   7.785   5.861  0.5200  0.0357 -0.3145
  332MOL0    Cl44729  10.542   7.845   5.986 -0.0872  0.3970  0.0208
  332MOL0     C44730  10.735   6.628   5.785 -0.0982 -0.8555 -0.6444
  332MOL0     C44731  10.669   6.500   5.786 -0.5129 -0.1696 -0.1449
  332MOL0     O44732  10.402   6.383   5.962  0.2351 -0.8838  0.1770
  332MOL0     C44733  10.517   6.048   5.958 -0.2714 -0.5615  0.0830
  332MOL0     C44734  10.493   5.914   5.967 -0.2112  0.2937  0.5000
  332MOL0     N44735  10.728   5.752   5.669  0.4999  0.4802  0.5800
  332MOL0     N44736  10.785   5.877   5.655  0.0821  0.0542 -0.1965
  332MOL0     C44737  11.206   7.052   5.344  0.6297 -0.3587  0.1681
  332MOL0     C44738  11.297   7.153   5.316  0.2053  0.3854 -0.3670
  332MOL0     C44739  11.613   7.338   5.024 -1.0388  0.5685  0.0647
  332MOL0     C44740  11.550   7.400   4.914 -0.1388 -1.3497 -0.3724
  332MOL0     C44741  11.606   7.528   4.869 -0.3428  0.6641  0.5306
  332MOL0     C44742  11.733   7.562   4.909 -0.0275  1.0779  0.8439
  332MOL0     O44743  11.830   7.646   4.849  0.8191  0.5176  0.0964
  332MOL0     C44744  11.851   7.771   4.903 -0.0681 -1.4849  0.0306
  332MOL0     C44745  11.772   7.899   4.857  0.0148  0.3873  0.0336
  332MOL0     C44746  11.779   7.930   4.712 -0.3497  0.1071  0.4325
  332MOL0     C44747  11.679   7.847   4.623 -0.6838 -1.3476  0.1995
  332MOL0     C44748  11.539   7.848   4.664  1.6557  0.0806  0.2693
  332MOL0     C44749  11.416   7.844   4.679 -0.0913  0.4937  0.3014
  332MOL0     C44750  11.801   7.488   5.001 -0.8228  0.1805  0.3817
  332MOL0     C44751  11.740   7.385   5.072 -1.0099  0.3069  1.2385
  332MOL0     C44752  11.807   7.331   5.194  0.3366  0.2615 -0.7568
  332MOL0     H44753  11.547   6.952   5.212 -0.6507 -2.2331  0.7475
  332MOL0     H44754  11.387   6.774   5.289  0.9542 -0.3134 -1.3562
  332MOL0     H44755  11.226   6.702   5.491  2.7857  3.3600 -0.5025
  332MOL0     H44756  11.147   6.849   5.542  1.2296 -0.1678  1.0197
  332MOL0     H44757  10.927   6.758   5.488  1.1776  0.1605 -3.5171
  332MOL0     H44758  11.019   6.641   5.596  0.6621  0.4388 -0.2999
  332MOL0     H44759  11.056   6.554   5.325  0.7802 -0.7695  1.4727
  332MOL0     H44760  10.908   6.624   5.324 -2.0724 -2.5387  0.0741
  332MOL0     H44761  10.990   6.424   5.551 -1.1150 -2.4240  1.0646
  332MOL0     H44762  10.831   6.487   5.518 -0.3520 -1.0749 -0.1835
  332MOL0     H44763  10.862   6.354   5.290  0.0978 -2.5971 -0.6759
  332MOL0     H44764  10.983   6.272   5.383  0.2572 -0.3555 -0.8014
  332MOL0     H44765  10.687   6.308   5.435  0.9278  0.5069 -3.4391
  332MOL0     H44766  10.762   6.160   5.387 -1.3186  0.1732  0.7806
  332MOL0     H44767  10.843   6.260   5.660  0.5878 -1.6200  0.8921
  332MOL0     H44768  10.893   6.127   5.573  0.8407  1.0571  0.5864
  332MOL0     H44769  10.711   6.120   5.758  2.3142 -0.4278 -0.5975
  332MOL0     H44770  10.600   6.151   5.619  0.9668  2.2339 -0.8645
  332MOL0     H44771  10.494   5.935   5.525 -0.6477  0.9536  1.4023
  332MOL0     H44772  10.425   5.706   5.515 -0.3177 -0.6692  0.0408
  332MOL0     H44773  10.547   5.575   5.539  1.7886  0.5271  1.1533
  332MOL0     H44774  10.365   5.531   5.686 -0.6347 -0.6298  2.2410
  332MOL0     H44775  10.480   5.598   5.798 -0.0560 -2.9445 -0.7351
  332MOL0     H44776  10.233   5.702   5.650  0.7075 -1.0606 -0.3428
  332MOL0     H44777  10.344   5.822   5.708 -3.4856  1.1864 -0.7744
  332MOL0     H44778  10.206   5.600   5.871 -0.6529 -0.3811  2.0292
  332MOL0     H44779  10.131   5.751   5.872  0.5543 -0.1422 -0.3938
  332MOL0     H44780  10.152   5.965   5.981 -0.5024 -0.5740  1.3477
  332MOL0     H44781  10.231   6.203   5.968 -0.9672  0.0671  2.8896
  332MOL0     H44782  10.717   6.443   6.123 -0.1876  0.9258  0.1875
  332MOL0     H44783  10.815   6.650   6.119 -0.1086  0.4462  0.7853
  332MOL0     H44784  10.887   6.933   5.776 -1.4698 -0.7423 -2.5903
  332MOL0     H44785  10.709   6.902   5.787 -0.2433  0.4509  1.6604
  332MOL0     H44786  10.735   7.012   6.015 -1.8172  1.8946 -0.4177
  332MOL0     H44787  10.890   7.069   5.954 -0.9421  1.9064  2.8690
  332MOL0     H44788  10.750   7.147   5.751 -1.4529 -3.1143 -0.7959
  332MOL0     H44789  10.609   7.117   5.850  1.7468 -3.7101  3.2278
  332MOL0     H44790  10.835   7.286   5.970 -0.1339  0.1341 -3.6137
  332MOL0     H44791  10.667   7.266   6.017  0.0652 -4.3908 -0.0737
  332MOL0     H44792  10.611   7.380   5.789 -0.0409 -1.7160  0.8599
  332MOL0     H44793  10.786   7.419   5.778  0.1184  0.5795 -0.0518
  332MOL0     H44794  10.594   7.514   5.994 -0.5027  4.4954  1.9775
  332MOL0     H44795  10.755   7.579   5.966  1.6251 -3.5797  0.7843
  332MOL0     H44796  10.517   7.634   5.805 -0.3774 -0.0143  0.4945
  332MOL0     H44797  10.681   7.616   5.731  0.4227 -0.1592  0.5798
  332MOL0     H44798  10.764   7.807   5.894  0.1360 -0.8112  1.5956
  332MOL0     H44799  10.646   7.843   5.770 -0.4469 -1.2192 -0.9715
  332MOL0     H44800  10.745   6.685   5.693 -0.1644  1.9842  0.9873
  332MOL0     H44801  10.617   6.458   5.700  2.3818 -0.4079 -1.9008
  332MOL0     H44802  10.624   6.069   5.953 -0.0736 -1.5955 -0.4860
  332MOL0     H44803  10.580   5.850   5.972 -0.9842 -0.7162  1.9851
  332MOL0     H44804  11.102   7.075   5.365  0.5900  0.2933 -0.6988
  332MOL0     H44805  11.276   7.259   5.325  1.8640  0.6712  0.7428
  332MOL0     H44806  11.452   7.371   4.878 -1.5407 -0.4983  2.4527
  332MOL0     H44807  11.553   7.593   4.800 -2.7485 -0.3502  1.2847
  332MOL0     H44808  11.959   7.782   4.891  0.0515 -1.5093  0.9930
  332MOL0     H44809  11.842   7.767   5.012 -1.4556 -2.1179 -0.0958
  332MOL0     H44810  11.809   7.984   4.916 -0.3468  1.1812 -0.8754
  332MOL0     H44811  11.666   7.894   4.882 -0.3702 -4.3268 -1.5689
  332MOL0     H44812  11.880   7.901   4.681 -0.6330 -2.1899  1.4568
  332MOL0     H44813  11.744   8.033   4.696 -3.3890 -0.9049  0.0515
  332MOL0     H44814  11.688   7.896   4.525  3.5735 -1.1010  0.5262
  332MOL0     H44815  11.712   7.746   4.597 -0.1213 -1.0888 -0.1238
  332MOL0     H44816  11.311   7.859   4.692 -0.0763  0.7389  0.1500
  332MOL0     H44817  11.903   7.519   5.024 -0.2252 -1.0287 -0.5778
  332MOL0     H44818  11.763   7.256   5.261  0.1462  1.9036  1.0382
  332MOL0     H44819  11.903   7.284   5.171  1.8437  1.1560  3.0213
  332MOL0     H44820  11.820   7.422   5.253 -2.9539  0.7813 -0.5992
  333MOL0     O44821   9.481  10.366   0.732  0.3174 -0.0330  0.2422
  333MOL0     C44822   9.570  10.431   0.789  1.0189  0.1157  0.0001
  333MOL0     O44823   9.584  10.436   0.928 -0.8123 -0.8911 -0.2698
  333MOL0     C44824   9.475  10.421   1.009 -0.9319 -0.0565 -0.7038
  333MOL0     C44825   9.488  10.356   1.129 -0.0239  0.3765 -0.2060
  333MOL0     C44826   9.388  10.363   1.229  1.1769 -0.1777 -0.5441
  333MOL0     C44827   9.268  10.441   1.197  1.1467  0.0970 -1.2906
  333MOL0     O44828   9.173  10.424   1.299 -0.4621 -1.2058  0.3760
  333MOL0     C44829   9.072  10.524   1.315  0.9241 -0.7145 -0.4845
  333MOL0     C44830   9.135  10.661   1.352 -0.2671 -0.6198 -0.1987
  333MOL0     C44831   9.195  10.653   1.495  0.2235  0.0045  0.8320
  333MOL0     C44832   9.293  10.772   1.502  0.5418  0.8490 -0.3005
  333MOL0     C44833   9.432  10.741   1.450 -0.4047  0.1224  0.0275
  333MOL0     C44834   9.545  10.845   1.467  0.2442  0.4156  0.4053
  333MOL0     C44835   9.538  10.975   1.394 -0.3825 -0.6081 -0.7321
  333MOL0     C44836   9.651  11.062   1.454 -0.5896  0.4232 -0.6301
  333MOL0     N44837   9.654  11.189   1.381  0.3381 -0.3127  0.1750
  333MOL0     C44838   9.662  11.211   1.242 -0.1067 -0.9116  0.4925
  333MOL0     C44839   9.649  11.350   1.226 -0.7415  1.2130 -0.2338
  333MOL0     C44840   9.653  11.409   1.084  0.3257 -0.1917 -0.2565
  333MOL0     C44841   9.521  11.425   1.031  0.2110 -0.3491 -0.2915
  333MOL0     C44842   9.531  11.504   0.896 -0.0930 -0.2879 -1.0024
  333MOL0     C44843   9.599  11.412   0.789  0.1331 -0.4750  0.5543
  333MOL0     O44844   9.612  11.499   0.673 -0.0294 -0.7365 -0.8184
  333MOL0     C44845   9.504  11.527   0.603 -0.3466 -1.0302 -0.2122
  333MOL0     C44846   9.524  11.603   0.487 -1.0168 -0.0577 -0.8225
  333MOL0     C44847   9.429  11.620   0.392  0.4454 -0.7087 -0.0697
  333MOL0     C44848   9.294  11.579   0.418 -0.2820 -0.5989  0.3869
  333MOL0     C44849   9.190  11.603   0.317  0.2182 -0.2345  0.4307
  333MOL0     O44850   9.192  11.723   0.242  0.0828 -0.3909 -0.6452
  333MOL0     C44851   9.115  11.754   0.135  0.4332  0.5576  0.4718
  333MOL0     C44852   9.152  11.860   0.055 -0.4900 -0.4600 -0.7067
  333MOL0     C44853   9.076  11.906  -0.043  0.4857 -0.6006 -0.1472
  333MOL0     C44854   8.957  11.847  -0.076 -0.0643  0.1051 -0.6916
  333MOL0     O44855   8.887  11.902  -0.180 -0.0108  0.0879 -0.2977
  333MOL0     C44856   8.809  12.011  -0.164  1.1168 -0.0858 -0.2044
  333MOL0     C44857   8.687  11.974  -0.068  0.5713 -0.0822 -1.0383
  333MOL0     C44858   8.615  12.105  -0.040  0.1952  0.7075 -0.9855
  333MOL0     C44859   8.552  12.184  -0.162  0.8130 -0.7410 -0.3077
  333MOL0     C44860   8.468  12.295  -0.097  0.1426 -0.5619 -1.0077
  333MOL0     C44861   8.331  12.252  -0.053  0.2345 -0.7922 -0.8526
  333MOL0     C44862   8.236  12.376  -0.040 -0.2506 -0.1341  0.1897
  333MOL0     C44863   8.096  12.359  -0.004 -0.0270  0.2114 -0.3989
  333MOL0    Cl44864   7.991  12.261  -0.125 -0.2029  0.4001  0.2049
  333MOL0     C44865   8.919  11.739   0.006 -0.3544 -0.0639  0.5178
  333MOL0     C44866   8.997  11.697   0.118  0.2333  1.1537  0.0877
  333MOL0     O44867   9.124  11.498   0.290  0.0323 -0.0815 -0.4013
  333MOL0     C44868   9.270  11.505   0.529  0.6100 -0.8149  0.2503
  333MOL0     C44869   9.373  11.484   0.618  0.1900  0.6476 -0.7609
  333MOL0     N44870   9.636  11.402   1.352 -0.3050 -0.6546 -0.0669
  333MOL0     N44871   9.638  11.308   1.435 -0.0733 -1.2554  1.1172
  333MOL0     C44872   9.251  10.500   1.077 -0.2773 -0.0176 -0.1768
  333MOL0     C44873   9.355  10.482   0.983  0.7266 -0.4183  0.7880
  333MOL0     C44874   9.678  10.504   0.722 -0.4537 -0.2026 -0.0046
  333MOL0     C44875   9.686  10.644   0.747  0.6486 -0.2758 -0.0301
  333MOL0     C44876   9.792  10.714   0.687  0.0627 -0.3601  0.3304
  333MOL0     C44877   9.872  10.654   0.590  0.4489 -0.7193  0.6166
  333MOL0     O44878   9.952  10.737   0.515  0.0413 -0.3401 -0.7963
  333MOL0     C44879   9.951  10.722   0.373  0.8317 -0.2296  0.2637
  333MOL0     C44880   9.979  10.850   0.303 -0.1119  0.2299 -0.2972
  333MOL0     C44881  10.117  10.901   0.351 -0.4643 -1.1437 -0.0305
  333MOL0     C44882  10.171  11.030   0.280  0.0952  0.4296  0.4505
  333MOL0     C44883  10.317  11.052   0.273 -0.0191 -0.6536 -1.1659
  333MOL0     C44884  10.435  11.055   0.273 -0.7361 -0.4908  0.2174
  333MOL0     C44885   9.849  10.519   0.558 -0.5266  0.5815  0.3693
  333MOL0     C44886   9.756  10.434   0.624 -0.1472 -0.2306 -0.1205
  333MOL0     C44887   9.765  10.293   0.582  1.0924 -0.4114 -0.0211
  333MOL0     H44888   9.582  10.301   1.139 -1.1648 -1.5735  0.3874
  333MOL0     H44889   9.392  10.307   1.321  1.9931  0.3220 -0.2718
  333MOL0     H44890   9.007  10.530   1.227 -0.3019 -1.6096  0.3147
  333MOL0     H44891   9.001  10.483   1.388  1.2216  2.1702  1.6056
  333MOL0     H44892   9.064  10.744   1.359  2.1087  1.3960  2.2748
  333MOL0     H44893   9.204  10.689   1.273 -0.3490 -0.7589 -0.3196
  333MOL0     H44894   9.250  10.559   1.506  0.5745 -0.0177 -0.8419
  333MOL0     H44895   9.115  10.664   1.569 -0.2747  1.7246  0.0914
  333MOL0     H44896   9.242  10.845   1.438 -1.3268 -1.0657 -1.1108
  333MOL0     H44897   9.295  10.789   1.610  0.9175  0.8515 -0.3078
  333MOL0     H44898   9.462  10.658   1.515  0.6844  1.5265  1.4347
  333MOL0     H44899   9.434  10.698   1.350  0.8526 -1.0922  0.5439
  333MOL0     H44900   9.557  10.867   1.574 -1.2318  1.0901  0.4554
  333MOL0     H44901   9.634  10.787   1.439 -0.1939  0.0349 -0.2351
  333MOL0     H44902   9.450  11.038   1.413  0.3113  0.0449  0.3817
  333MOL0     H44903   9.541  10.952   1.287 -0.6143  2.0106 -1.3849
  333MOL0     H44904   9.636  11.078   1.561 -2.2086 -0.0651 -0.7487
  333MOL0     H44905   9.752  11.021   1.447  0.5295  2.2588  2.5934
  333MOL0     H44906   9.675  11.138   1.163  1.5790  0.2184 -0.3271
  333MOL0     H44907   9.705  11.505   1.085 -2.2383  1.3715 -2.0837
  333MOL0     H44908   9.711  11.332   1.033  1.3983  0.0256  0.6162
  333MOL0     H44909   9.467  11.333   1.007 -1.4745  0.5713 -0.1845
  333MOL0     H44910   9.465  11.478   1.108  1.8689  2.3368 -0.7923
  333MOL0     H44911   9.592  11.594   0.903  1.3125 -1.2012 -1.2345
  333MOL0     H44912   9.428  11.527   0.864  0.4419  2.2825 -1.0760
  333MOL0     H44913   9.538  11.321   0.779  1.7933 -1.4115 -2.5041
  333MOL0     H44914   9.702  11.386   0.813  1.0216  1.1160 -1.2630
  333MOL0     H44915   9.625  11.636   0.465 -0.8277 -1.9689 -3.3104
  333MOL0     H44916   9.441  11.677   0.300  1.3300 -2.2505 -0.9636
  333MOL0     H44917   9.246  11.912   0.072 -0.0453 -0.1833 -3.5627
  333MOL0     H44918   9.103  11.990  -0.106  2.7952 -2.3704 -1.7107
  333MOL0     H44919   8.874  12.081  -0.111  0.6061  0.1858  0.0729
  333MOL0     H44920   8.777  12.051  -0.261  0.3556  0.8916  0.4254
  333MOL0     H44921   8.629  11.901  -0.126  2.2488  0.5553 -3.7221
  333MOL0     H44922   8.714  11.927   0.027 -1.7129  2.6258  1.1484
  333MOL0     H44923   8.530  12.074   0.021  1.3576 -2.6227 -0.8412
  333MOL0     H44924   8.683  12.171   0.014  1.2873 -2.7438  2.2898
  333MOL0     H44925   8.491  12.125  -0.231 -1.2676 -1.4676  2.0240
  333MOL0     H44926   8.638  12.228  -0.212 -1.0487  4.1183  0.1637
  333MOL0     H44927   8.445  12.374  -0.170 -0.8528  2.3140  2.1513
  333MOL0     H44928   8.519  12.340  -0.011  1.9318 -0.2420 -2.1847
  333MOL0     H44929   8.284  12.189  -0.129  0.9485 -0.5239 -1.5296
  333MOL0     H44930   8.334  12.206   0.047  1.4246  1.7061  0.3626
  333MOL0     H44931   8.243  12.430  -0.135  2.0273 -0.3670  0.1713
  333MOL0     H44932   8.263  12.449   0.037 -1.0664 -0.8212  1.1586
  333MOL0     H44933   8.079  12.325   0.099  2.5534  1.3076  0.4783
  333MOL0     H44934   8.046  12.456  -0.001  0.1214  0.3912 -2.5890
  333MOL0     H44935   8.829  11.687  -0.027 -1.9457  4.6010 -3.7627
  333MOL0     H44936   8.950  11.613   0.169 -1.6219  0.4209 -2.5975
  333MOL0     H44937   9.170  11.466   0.546  0.7934 -1.9807 -1.1644
  333MOL0     H44938   9.361  11.415   0.701 -1.1979  1.5506 -0.1762
  333MOL0     H44939   9.162  10.555   1.048  0.4187  0.1095 -2.2567
  333MOL0     H44940   9.338  10.531   0.888 -1.6110  0.8365  1.7766
  333MOL0     H44941   9.626  10.681   0.830 -0.0775  0.6678 -0.9509
  333MOL0     H44942   9.811  10.816   0.721  3.3449 -0.5594 -0.5889
  333MOL0     H44943   9.860  10.672   0.340  1.2243 -3.2276  3.1630
  333MOL0     H44944  10.029  10.653   0.339  1.5341  0.1139  1.1413
  333MOL0     H44945   9.907  10.928   0.330 -1.6254 -0.8233 -1.1163
  333MOL0     H44946   9.985  10.833   0.195  2.4255  0.5146 -0.2616
  333MOL0     H44947  10.186  10.817   0.336 -1.6335 -1.6879 -2.9451
  333MOL0     H44948  10.103  10.928   0.456  0.3552 -0.1844 -0.1450
  333MOL0     H44949  10.138  11.038   0.176 -1.8677  0.8985  1.0771
  333MOL0     H44950  10.116  11.110   0.330  0.8899  0.2605  1.6476
  333MOL0     H44951  10.540  11.035   0.284 -0.4925  0.2000 -0.7333
  333MOL0     H44952   9.903  10.479   0.472 -2.6315  1.3747 -1.4132
  333MOL0     H44953   9.871  10.277   0.601  0.6843 -1.1673  1.8640
  333MOL0     H44954   9.699  10.233   0.645 -1.4124  0.2795 -1.8154
  333MOL0     H44955   9.752  10.267   0.476  0.5759  1.1971 -0.3816
  334MOL0     O44956   5.171   3.244   0.349 -0.1498  0.2681 -0.4374
  334MOL0     C44957   5.055   3.265   0.367  0.4911 -0.5251 -0.8002
  334MOL0     O44958   4.958   3.171   0.334  0.5402 -0.0767 -0.1770
  334MOL0     C44959   5.001   3.049   0.305  0.5236 -0.1765 -0.4230
  334MOL0     C44960   4.963   2.940   0.381  0.3660 -0.3186 -0.2691
  334MOL0     C44961   5.011   2.815   0.346  0.4008 -0.8973  0.7713
  334MOL0     C44962   5.107   2.796   0.243  0.1331  0.0559 -0.0135
  334MOL0     O44963   5.170   2.677   0.209  1.2480  0.0239  0.3512
  334MOL0     C44964   5.099   2.558   0.203  0.2770 -0.1792 -0.2086
  334MOL0     C44965   5.180   2.456   0.120  0.6857 -0.5134  0.5588
  334MOL0     C44966   5.243   2.528  -0.004 -0.5620  0.0779  1.2680
  334MOL0     C44967   5.296   2.422  -0.103  0.8947 -0.9865 -0.2098
  334MOL0     C44968   5.282   2.448  -0.248 -0.0962  0.0710  0.2307
  334MOL0     C44969   5.317   2.592  -0.286  0.1737 -0.6473 -0.0305
  334MOL0     C44970   5.350   2.605  -0.435 -0.1139 -0.0320  0.0146
  334MOL0     C44971   5.220   2.592  -0.516 -0.2829  0.9129 -0.8086
  334MOL0     N44972   5.262   2.619  -0.656  0.6659  1.1770  0.5383
  334MOL0     C44973   5.223   2.729  -0.725  0.2406 -0.1419 -0.0350
  334MOL0     C44974   5.241   2.709  -0.858  0.5709  1.0099  0.3722
  334MOL0     C44975   5.157   2.765  -0.971 -0.8382 -0.6111  0.4876
  334MOL0     C44976   5.181   2.917  -0.986 -0.8906 -0.1263 -0.0433
  334MOL0     C44977   5.091   2.972  -1.089  0.2701 -0.1066  0.0676
  334MOL0     C44978   5.094   3.127  -1.082  0.1626 -0.2303  0.5313
  334MOL0     O44979   5.002   3.170  -1.176 -0.7043 -0.3231  0.2841
  334MOL0     C44980   5.022   3.172  -1.308  0.1866 -0.1202  0.5213
  334MOL0     C44981   4.905   3.147  -1.388 -0.1384 -0.5584 -0.6027
  334MOL0     C44982   4.913   3.131  -1.529 -0.0748  0.0586  0.5788
  334MOL0     C44983   5.035   3.144  -1.593  0.1178  0.1113 -0.6068
  334MOL0     C44984   5.045   3.139  -1.739 -0.8588 -0.2709  0.1627
  334MOL0     O44985   4.926   3.129  -1.796  0.5389 -0.6972 -0.0111
  334MOL0     C44986   4.929   3.150  -1.928  0.8874  0.5451  0.9048
  334MOL0     C44987   4.951   3.272  -1.983 -0.3233 -0.0020 -0.5092
  334MOL0     C44988   4.950   3.299  -2.118 -0.4837  0.2570 -0.2706
  334MOL0     C44989   4.916   3.192  -2.208 -0.1783 -0.3331  1.3459
  334MOL0     O44990   4.892   3.193  -2.345 -0.3628  0.3084  0.3986
  334MOL0     C44991   4.924   3.310  -2.419  0.4451 -0.0182 -0.3986
  334MOL0     C44992   4.825   3.419  -2.405  0.2511 -0.1084 -0.1053
  334MOL0     C44993   4.858   3.538  -2.492  0.1431 -0.0944  0.2886
  334MOL0     C44994   4.764   3.540  -2.618 -0.8352 -1.5735  0.1498
  334MOL0     C44995   4.815   3.635  -2.728  0.4738 -0.5134 -0.1395
  334MOL0     C44996   4.695   3.664  -2.824  0.0836 -0.6017  0.4294
  334MOL0     C44997   4.579   3.754  -2.772  0.1216  0.7623 -1.0358
  334MOL0     C44998   4.604   3.848  -2.660  1.3426 -0.2356  0.2113
  334MOL0    Cl44999   4.438   3.928  -2.644 -0.3205  0.3361 -0.1983
  334MOL0     C45000   4.884   3.069  -2.155 -0.0560  0.3285 -0.2461
  334MOL0     C45001   4.897   3.046  -2.014  0.3575  0.0908 -0.4211
  334MOL0     O45002   5.152   3.162  -1.794 -0.9170 -0.7082  0.8482
  334MOL0     C45003   5.156   3.170  -1.514 -0.4621 -1.0901 -0.1371
  334MOL0     C45004   5.147   3.182  -1.372 -0.1269  0.5696  0.5302
  334MOL0     N45005   5.307   2.582  -0.862  0.4269  0.5438  0.3716
  334MOL0     N45006   5.321   2.538  -0.741 -0.6741 -0.3549 -0.0464
  334MOL0     C45007   5.144   2.907   0.167 -0.3627  0.0322  0.8615
  334MOL0     C45008   5.082   3.027   0.193  0.2932  0.1576 -0.6890
  334MOL0     C45009   5.021   3.400   0.418  0.0767  0.2925 -0.8730
  334MOL0     C45010   4.887   3.437   0.405 -0.1840  0.3898 -0.1085
  334MOL0     C45011   4.853   3.573   0.446 -0.2873  0.2757  0.7502
  334MOL0     C45012   4.942   3.668   0.497 -0.2957  0.2350  0.4100
  334MOL0     O45013   4.902   3.796   0.524 -0.5766 -0.2737  0.1372
  334MOL0     C45014   4.929   3.840   0.664  0.7238 -0.6384 -0.0791
  334MOL0     C45015   4.892   3.739   0.773  0.5366  0.0654 -0.5941
  334MOL0     C45016   4.920   3.789   0.912  0.1014  0.9440  0.5133
  334MOL0     C45017   5.057   3.742   0.968 -0.1279 -0.6606 -0.5825
  334MOL0     C45018   5.169   3.776   0.879 -0.2469 -0.0106  0.0129
  334MOL0     C45019   5.275   3.820   0.835  0.0664  0.3701  0.7396
  334MOL0     C45020   5.074   3.627   0.502 -0.1728  0.5914 -0.6649
  334MOL0     C45021   5.117   3.492   0.467 -0.0997  1.2704  0.0261
  334MOL0     C45022   5.264   3.471   0.480 -0.2523 -0.6612 -0.7779
  334MOL0     H45023   4.899   2.954   0.468 -1.4746  0.8841 -1.7288
  334MOL0     H45024   4.980   2.730   0.406  2.4203 -1.7829  0.6390
  334MOL0     H45025   5.078   2.518   0.303 -2.0085 -2.8371 -1.6037
  334MOL0     H45026   5.002   2.575   0.156 -0.6168 -3.4394  0.2263
  334MOL0     H45027   5.117   2.372   0.087  1.7943 -0.9285 -0.5801
  334MOL0     H45028   5.258   2.414   0.184 -0.2219  0.4968  2.4070
  334MOL0     H45029   5.318   2.600   0.030 -1.6555  1.7312  0.3332
  334MOL0     H45030   5.173   2.594  -0.056  1.6033  0.9779 -0.6701
  334MOL0     H45031   5.404   2.423  -0.084  1.0977 -0.5445 -1.3235
  334MOL0     H45032   5.254   2.324  -0.078 -3.4004  0.1228 -2.2037
  334MOL0     H45033   5.351   2.375  -0.291  1.5750 -0.6513  3.7805
  334MOL0     H45034   5.182   2.413  -0.275 -0.8330  1.7955  0.5792
  334MOL0     H45035   5.236   2.660  -0.259  2.1564  2.1853 -0.7602
  334MOL0     H45036   5.396   2.630  -0.222 -0.3219 -0.2072  0.3273
  334MOL0     H45037   5.438   2.553  -0.474 -0.2681 -0.8386  0.7131
  334MOL0     H45038   5.384   2.708  -0.450 -1.8016  0.2497 -2.5187
  334MOL0     H45039   5.176   2.493  -0.499 -0.8675  1.7667  4.6142
  334MOL0     H45040   5.140   2.657  -0.479 -0.2640 -0.9463  3.1105
  334MOL0     H45041   5.161   2.798  -0.669  2.1379 -0.5571  2.7551
  334MOL0     H45042   5.182   2.714  -1.064  1.7985 -1.4519  1.5621
  334MOL0     H45043   5.055   2.730  -0.952 -0.5380 -1.6363  0.2602
  334MOL0     H45044   5.169   2.975  -0.893 -2.4809  0.9995 -0.8960
  334MOL0     H45045   5.283   2.936  -1.020 -1.4330  1.4100 -0.9325
  334MOL0     H45046   4.990   2.930  -1.077  1.0466 -1.7575  1.2203
  334MOL0     H45047   5.120   2.939  -1.189 -0.6344  0.9170 -0.5502
  334MOL0     H45048   5.195   3.167  -1.094 -0.6620  1.9790  0.5914
  334MOL0     H45049   5.064   3.159  -0.981 -1.5873  2.4472 -0.7306
  334MOL0     H45050   4.810   3.127  -1.341 -0.2089 -2.5290 -1.5058
  334MOL0     H45051   4.821   3.121  -1.586  0.7841 -1.0302 -0.6596
  334MOL0     H45052   4.983   3.350  -1.915  1.2417 -0.1505 -1.0335
  334MOL0     H45053   4.970   3.400  -2.152  0.4181  0.1742 -0.0154
  334MOL0     H45054   5.023   3.355  -2.400  1.3165 -1.7388 -0.6952
  334MOL0     H45055   4.928   3.278  -2.523 -0.4852  0.5393 -0.6139
  334MOL0     H45056   4.723   3.383  -2.424  1.0306 -1.1682 -2.6722
  334MOL0     H45057   4.830   3.445  -2.299 -0.1461 -1.5381  0.2765
  334MOL0     H45058   4.833   3.625  -2.430  2.9704 -0.4623  2.1235
  334MOL0     H45059   4.965   3.540  -2.515  0.4168  2.5404  1.3932
  334MOL0     H45060   4.674   3.584  -2.576  0.8310  1.8322  0.4555
  334MOL0     H45061   4.750   3.441  -2.664 -0.6577 -0.8156 -1.6314
  334MOL0     H45062   4.909   3.600  -2.772  0.6219 -0.4869  0.1502
  334MOL0     H45063   4.840   3.731  -2.680  0.3783  0.4052 -1.8309
  334MOL0     H45064   4.734   3.725  -2.906 -1.2714  1.3962  1.1863
  334MOL0     H45065   4.641   3.575  -2.859  2.3352 -1.6974 -0.4818
  334MOL0     H45066   4.513   3.677  -2.732 -1.6558  2.2135 -1.0859
  334MOL0     H45067   4.546   3.804  -2.863 -1.0694  0.0587 -0.9963
  334MOL0     H45068   4.645   3.794  -2.575 -0.2442 -1.1564  0.4322
  334MOL0     H45069   4.688   3.911  -2.693  1.0914 -0.3034 -0.5827
  334MOL0     H45070   4.870   2.992  -2.230  0.2092 -4.8430  4.4130
  334MOL0     H45071   4.912   2.943  -1.982  1.1494  0.2858 -0.1283
  334MOL0     H45072   5.253   3.162  -1.563 -0.5078 -2.1492 -0.0785
  334MOL0     H45073   5.244   3.192  -1.324 -0.6604  2.0195  1.3844
  334MOL0     H45074   5.217   2.904   0.087 -0.4573  2.4391  0.6062
  334MOL0     H45075   5.115   3.115   0.138  0.6206  0.1243 -0.5437
  334MOL0     H45076   4.816   3.363   0.370 -2.4408  1.9602  0.8986
  334MOL0     H45077   4.755   3.616   0.428  0.5836  3.5159  2.8688
  334MOL0     H45078   4.872   3.933   0.672 -1.2620 -1.9504  3.2558
  334MOL0     H45079   5.035   3.865   0.676  0.2437  2.4365 -1.2691
  334MOL0     H45080   4.942   3.642   0.765  0.2743 -0.4815  2.8976
  334MOL0     H45081   4.787   3.711   0.762  0.8865 -1.7122  0.1583
  334MOL0     H45082   4.854   3.749   0.990  1.5321 -1.9016  0.3926
  334MOL0     H45083   4.922   3.899   0.918  0.9681  0.9363  0.5121
  334MOL0     H45084   5.078   3.782   1.067  1.3384 -1.4542 -0.5484
  334MOL0     H45085   5.063   3.633   0.977 -0.2961 -0.6924 -0.8421
  334MOL0     H45086   5.363   3.849   0.780 -0.1556  1.5938  1.0003
  334MOL0     H45087   5.157   3.687   0.537  2.6440 -3.7624  0.9512
  334MOL0     H45088   5.326   3.461   0.390  3.3041 -2.4891  1.6594
  334MOL0     H45089   5.307   3.552   0.538 -1.7297 -1.8557  2.2136
  334MOL0     H45090   5.288   3.383   0.540  0.9574  0.9689  1.2383
  335MOL0     O45091   5.172   6.627   2.314  0.1288 -0.7535 -0.5236
  335MOL0     C45092   5.063   6.683   2.348 -0.3388 -0.7040  0.8569
  335MOL0     O45093   5.033   6.749   2.469 -0.8782  0.3868 -0.1159
  335MOL0     C45094   5.108   6.745   2.585 -0.1430 -0.2127 -0.5060
  335MOL0     C45095   5.074   6.832   2.696  0.2298  0.4510  0.7212
  335MOL0     C45096   5.134   6.828   2.821 -0.2091  0.6095 -0.2196
  335MOL0     C45097   5.244   6.734   2.847 -0.7412 -0.2352  0.5033
  335MOL0     O45098   5.334   6.742   2.961  0.5613 -0.0979  0.1251
  335MOL0     C45099   5.262   6.767   3.083  0.2072  0.3777 -0.9941
  335MOL0     C45100   5.363   6.782   3.208 -0.7223 -0.2502  0.7571
  335MOL0     C45101   5.303   6.784   3.355 -0.0869 -0.4904  0.1659
  335MOL0     C45102   5.244   6.647   3.391  0.3437 -0.8838 -0.0064
  335MOL0     C45103   5.265   6.600   3.531 -0.0458  0.5476  0.7071
  335MOL0     C45104   5.218   6.456   3.549 -1.1563 -0.1748 -0.6627
  335MOL0     C45105   5.213   6.405   3.695  0.1160  0.1248 -0.9714
  335MOL0     C45106   5.199   6.258   3.696 -0.1527 -0.2277  0.5211
  335MOL0     N45107   5.323   6.189   3.697 -0.3027 -0.2200  0.4149
  335MOL0     C45108   5.398   6.150   3.805 -0.2883 -0.8365 -0.0195
  335MOL0     C45109   5.516   6.106   3.748 -0.6365 -0.4313 -0.5265
  335MOL0     C45110   5.639   6.075   3.828 -0.1529  0.2394 -0.1626
  335MOL0     C45111   5.622   6.009   3.963  0.7576 -0.7176 -0.9719
  335MOL0     C45112   5.752   5.963   4.028  0.0436  1.1569  0.4218
  335MOL0     C45113   5.754   5.880   4.145  0.3519  0.1187 -0.4640
  335MOL0     O45114   5.730   5.742   4.103 -0.6308  0.0991  0.3172
  335MOL0     C45115   5.761   5.643   4.189  0.0380  0.8197 -0.1887
  335MOL0     C45116   5.757   5.516   4.138  0.1717 -0.4803  0.9593
  335MOL0     C45117   5.746   5.408   4.216  0.1232  1.2872  0.6664
  335MOL0     C45118   5.754   5.424   4.357  0.0160 -0.3489  0.4423
  335MOL0     C45119   5.765   5.312   4.453  0.4670 -1.1088  1.0281
  335MOL0     O45120   5.738   5.333   4.585  0.0881 -0.0717  0.7017
  335MOL0     C45121   5.738   5.227   4.663  0.7009 -0.4795 -0.4817
  335MOL0     C45122   5.811   5.112   4.672  0.1639 -0.3052  0.0984
  335MOL0     C45123   5.795   5.009   4.769  0.1824 -1.2275  0.3429
  335MOL0     C45124   5.693   5.022   4.866  0.6894 -0.4320 -0.2906
  335MOL0     O45125   5.667   4.929   4.964  1.1244  0.0792 -0.8696
  335MOL0     C45126   5.751   4.814   4.969 -0.0594 -0.1148  0.1901
  335MOL0     C45127   5.698   4.730   5.093  0.0825 -0.4553 -0.1599
  335MOL0     C45128   5.775   4.594   5.128 -0.1753 -0.8215  0.0012
  335MOL0     C45129   5.771   4.495   5.000  0.3017  1.0013 -0.0432
  335MOL0     C45130   5.745   4.348   5.038 -0.4696 -0.5283  0.3060
  335MOL0     C45131   5.847   4.287   5.139 -0.5611 -0.1931 -0.0858
  335MOL0     C45132   5.792   4.143   5.179  0.2507  0.3423  0.8750
  335MOL0     C45133   5.648   4.126   5.241  0.1301  0.4207  0.5116
  335MOL0    Cl45134   5.616   4.200   5.400 -0.1002  0.4655 -0.1247
  335MOL0     C45135   5.628   5.144   4.869  0.4337 -0.2314  0.6148
  335MOL0     C45136   5.646   5.243   4.767 -1.1382  0.1070 -0.3538
  335MOL0     O45137   5.802   5.210   4.400 -0.1864  0.5260  0.5598
  335MOL0     C45138   5.757   5.549   4.414  0.4518 -0.5402  0.4222
  335MOL0     C45139   5.755   5.658   4.327  0.1967  0.1671  0.3675
  335MOL0     N45140   5.509   6.124   3.606 -0.1727  1.1593  0.0349
  335MOL0     N45141   5.391   6.158   3.580  0.1564 -0.2635 -0.1542
  335MOL0     C45142   5.288   6.655   2.740  0.2373 -1.0698 -0.6958
  335MOL0     C45143   5.215   6.664   2.618 -0.5147 -0.8170  0.9969
  335MOL0     C45144   4.975   6.712   2.228 -0.5671  0.7655  0.4284
  335MOL0     C45145   5.042   6.719   2.101 -0.6707  0.5918 -0.3525
  335MOL0     C45146   4.967   6.746   1.983  0.2700  0.0288  1.1938
  335MOL0     C45147   4.832   6.769   1.994  0.3987 -0.6530 -0.7713
  335MOL0     O45148   4.744   6.787   1.885  0.6031 -0.2997  0.4067
  335MOL0     C45149   4.705   6.670   1.819  0.1736 -0.3354 -0.6575
  335MOL0     C45150   4.625   6.571   1.902  0.0214 -0.0248 -0.6905
  335MOL0     C45151   4.595   6.454   1.819  0.3720 -0.3121 -0.5973
  335MOL0     C45152   4.519   6.350   1.904  0.4983 -0.3357  0.1056
  335MOL0     C45153   4.517   6.219   1.833 -0.6256  0.0347 -0.0846
  335MOL0     C45154   4.511   6.130   1.750 -0.1331  0.1191  0.1224
  335MOL0     C45155   4.764   6.760   2.119  0.5015 -0.2673 -0.2827
  335MOL0     C45156   4.835   6.730   2.237  0.2760  0.7094  0.5977
  335MOL0     C45157   4.750   6.722   2.361  0.5621  0.5659  0.7770
  335MOL0     H45158   4.987   6.897   2.698  0.8742  1.3153  1.3690
  335MOL0     H45159   5.092   6.883   2.904 -2.7668 -1.6854  0.1209
  335MOL0     H45160   5.208   6.861   3.070 -1.3226 -0.5336 -1.6179
  335MOL0     H45161   5.190   6.686   3.097 -1.2089  1.5615 -1.2135
  335MOL0     H45162   5.422   6.874   3.207  0.0765 -0.6207  3.4978
  335MOL0     H45163   5.432   6.697   3.201 -0.6485 -0.5831  3.7925
  335MOL0     H45164   5.220   6.854   3.370  0.6014  0.2043  0.8256
  335MOL0     H45165   5.373   6.810   3.436 -2.0927  0.9859  1.5301
  335MOL0     H45166   5.136   6.648   3.370  0.5857  1.7864 -1.5793
  335MOL0     H45167   5.294   6.576   3.324 -0.2602 -0.1859 -1.2385
  335MOL0     H45168   5.371   6.592   3.557  0.4547  0.4717 -1.2213
  335MOL0     H45169   5.211   6.660   3.605 -1.5441 -0.3717  0.3917
  335MOL0     H45170   5.123   6.446   3.495 -1.2824 -0.4195 -0.3971
  335MOL0     H45171   5.289   6.397   3.491  0.0733 -0.2117  0.8396
  335MOL0     H45172   5.113   6.433   3.729 -0.4200 -1.9555 -0.7047
  335MOL0     H45173   5.289   6.442   3.765  2.6672 -2.7281 -2.0344
  335MOL0     H45174   5.147   6.240   3.791 -1.1502  2.2357  0.5211
  335MOL0     H45175   5.138   6.229   3.610  1.6997 -3.4836  0.1388
  335MOL0     H45176   5.373   6.165   3.910  0.2189  2.9767 -0.3068
  335MOL0     H45177   5.705   6.014   3.766  0.9475 -0.3723  1.5457
  335MOL0     H45178   5.683   6.173   3.850 -2.0459  0.7634  1.5556
  335MOL0     H45179   5.565   6.079   4.024 -1.5011 -2.8212 -0.5355
  335MOL0     H45180   5.565   5.915   3.959 -0.5052  0.0090 -0.5067
  335MOL0     H45181   5.799   6.054   4.066 -0.0181  1.0950  0.6515
  335MOL0     H45182   5.814   5.922   3.949 -1.0811  0.8341 -0.3218
  335MOL0     H45183   5.681   5.921   4.215  3.1231 -1.7940  4.0130
  335MOL0     H45184   5.848   5.897   4.199 -0.4301  1.2785  0.5767
  335MOL0     H45185   5.754   5.500   4.031 -0.9708 -0.4698  0.9761
  335MOL0     H45186   5.743   5.313   4.164  2.7938  1.7233 -0.4541
  335MOL0     H45187   5.894   5.093   4.605  2.3968 -1.0929  2.8853
  335MOL0     H45188   5.873   4.934   4.760  0.8299 -0.7036  1.4760
  335MOL0     H45189   5.732   4.748   4.884 -0.2999 -1.8744  1.5571
  335MOL0     H45190   5.854   4.843   4.993  0.6684 -2.4099  0.0163
  335MOL0     H45191   5.708   4.795   5.181  2.7241 -0.3864 -0.4284
  335MOL0     H45192   5.591   4.712   5.079  0.5744 -5.0549  0.6669
  335MOL0     H45193   5.871   4.643   5.147 -0.5115 -0.6449  1.3117
  335MOL0     H45194   5.750   4.550   5.225  1.0905  0.2418  0.8592
  335MOL0     H45195   5.871   4.495   4.955 -0.1366 -0.9998 -1.1563
  335MOL0     H45196   5.694   4.524   4.928 -0.3131  0.5186  0.4067
  335MOL0     H45197   5.756   4.290   4.946 -2.0103  2.3786 -1.8746
  335MOL0     H45198   5.649   4.350   5.091  0.7870  5.3740  3.2004
  335MOL0     H45199   5.947   4.276   5.097 -0.1439  2.1252  0.1971
  335MOL0     H45200   5.851   4.356   5.223 -0.0706 -2.5708  1.9744
  335MOL0     H45201   5.855   4.087   5.249 -1.3703 -0.2792  1.9013
  335MOL0     H45202   5.789   4.095   5.081  0.2107  2.3959 -0.1846
  335MOL0     H45203   5.562   4.163   5.184  0.1981  0.4152  0.4050
  335MOL0     H45204   5.629   4.021   5.262 -0.9145  0.3857 -0.5073
  335MOL0     H45205   5.544   5.150   4.938 -1.7769 -2.0035 -1.7050
  335MOL0     H45206   5.580   5.329   4.772  0.2376  1.2189 -0.6882
  335MOL0     H45207   5.764   5.561   4.521  0.8328 -0.0745  0.3467
  335MOL0     H45208   5.738   5.756   4.372 -1.7123 -0.8278  1.9851
  335MOL0     H45209   5.373   6.588   2.751  1.1303  0.1879  0.3939
  335MOL0     H45210   5.246   6.603   2.534  0.7062  2.5886 -1.2602
  335MOL0     H45211   5.149   6.733   2.086 -0.9615  0.6990 -2.5019
  335MOL0     H45212   5.016   6.740   1.886  3.5239 -2.2493  2.8086
  335MOL0     H45213   4.794   6.620   1.780  1.0797  1.3746 -0.8762
  335MOL0     H45214   4.643   6.690   1.730 -0.3671  0.0670 -0.1943
  335MOL0     H45215   4.525   6.605   1.931 -0.2410  0.0700 -1.6588
  335MOL0     H45216   4.682   6.544   1.991 -1.9387 -2.9072 -0.1928
  335MOL0     H45217   4.689   6.410   1.782  0.7004 -0.2405  0.1360
  335MOL0     H45218   4.528   6.482   1.737 -0.4159 -1.7845 -0.4813
  335MOL0     H45219   4.557   6.344   2.006 -0.6615  2.6454  0.8265
  335MOL0     H45220   4.421   6.390   1.932  1.4145  1.1403  1.3438
  335MOL0     H45221   4.521   6.065   1.665  2.3716  2.4253 -1.5184
  335MOL0     H45222   4.656   6.766   2.132  0.3173  3.2035 -2.1158
  335MOL0     H45223   4.762   6.634   2.424  0.6601  0.8683  1.1817
  335MOL0     H45224   4.775   6.802   2.431  0.4366  0.5063  0.8904
  335MOL0     H45225   4.644   6.740   2.337  0.0294 -2.2965  0.6252
  336MOL0     O45226   8.753   8.817   3.156  0.8791 -0.4618  0.1684
  336MOL0     C45227   8.763   8.820   3.275 -0.1449 -0.0199  0.2892
  336MOL0     O45228   8.882   8.804   3.351 -0.0007 -0.5296 -0.4982
  336MOL0     C45229   8.997   8.771   3.277  0.9643  0.3112 -0.5701
  336MOL0     C45230   9.056   8.876   3.218 -0.3244  1.0883  0.2847
  336MOL0     C45231   9.178   8.863   3.150 -0.3565 -0.3077  0.2558
  336MOL0     C45232   9.228   8.738   3.125  0.7113  0.8965 -0.7411
  336MOL0     O45233   9.338   8.721   3.043  0.4396  0.2762 -0.6357
  336MOL0     C45234   9.306   8.662   2.919 -0.0033  0.0243 -0.2471
  336MOL0     C45235   9.430   8.667   2.828  0.1857  0.3792 -0.5523
  336MOL0     C45236   9.499   8.800   2.827  0.7190  1.3618  0.1459
  336MOL0     C45237   9.610   8.810   2.728  1.0790  1.0807 -0.6551
  336MOL0     C45238   9.723   8.912   2.743  0.6395  1.2022 -0.0944
  336MOL0     C45239   9.658   9.050   2.727 -0.3801  0.6558 -0.5181
  336MOL0     C45240   9.774   9.156   2.730  0.1808 -1.0761 -0.4861
  336MOL0     C45241   9.878   9.149   2.613  0.8137 -0.5814 -0.7774
  336MOL0     N45242   9.853   9.248   2.506  0.3068 -1.0150  0.5702
  336MOL0     C45243   9.792   9.228   2.384 -0.3843 -0.1015  0.0661
  336MOL0     C45244   9.841   9.318   2.296 -0.4831  0.4120 -0.7094
  336MOL0     C45245   9.809   9.326   2.153  0.2042 -0.3515 -1.0190
  336MOL0     C45246   9.664   9.405   2.145 -0.0652  0.1736  0.2029
  336MOL0     C45247   9.628   9.407   1.996  1.4305 -0.6164 -0.0941
  336MOL0     C45248   9.491   9.473   1.972 -0.3115  0.5315 -0.8920
  336MOL0     O45249   9.487   9.547   1.858  0.8609  0.0033  0.1491
  336MOL0     C45250   9.533   9.491   1.742  0.5691  0.2582  0.7461
  336MOL0     C45251   9.572   9.572   1.633  0.1418  1.1534  1.1490
  336MOL0     C45252   9.604   9.525   1.508 -0.2769 -1.1884 -0.0144
  336MOL0     C45253   9.613   9.389   1.489  0.0017 -0.2934 -0.6844
  336MOL0     C45254   9.649   9.340   1.346  0.6730  0.4296 -0.0848
  336MOL0     O45255   9.689   9.436   1.259  0.0420  0.7187 -0.6639
  336MOL0     C45256   9.746   9.403   1.142  0.5500 -0.5787  0.2869
  336MOL0     C45257   9.870   9.337   1.134 -1.1441 -0.4840  0.2211
  336MOL0     C45258   9.930   9.307   1.010 -0.3695  0.9160  0.2074
  336MOL0     C45259   9.863   9.355   0.891  0.2476  0.7754  0.4630
  336MOL0     O45260   9.912   9.345   0.761 -0.2773 -0.7828 -0.3209
  336MOL0     C45261  10.021   9.262   0.730 -0.1485  1.2067 -1.3015
  336MOL0     C45262  10.047   9.289   0.587 -0.2585 -0.3338  0.9507
  336MOL0     C45263  10.125   9.419   0.575 -0.4748  0.2579 -0.1192
  336MOL0     C45264  10.164   9.461   0.432 -0.5758  0.5279  0.0767
  336MOL0     C45265  10.269   9.569   0.430  0.9837  0.5827  0.4889
  336MOL0     C45266  10.282   9.635   0.289  0.8271  0.2837  1.1981
  336MOL0     C45267  10.399   9.727   0.297  0.4486 -0.8157  0.3741
  336MOL0     C45268  10.539   9.665   0.283 -1.0009 -1.1831 -0.1966
  336MOL0    Cl45269  10.581   9.637   0.120  0.5440 -0.8478 -0.2521
  336MOL0     C45270   9.744   9.400   0.896  0.1141  0.8958 -0.5488
  336MOL0     C45271   9.678   9.439   1.020 -0.0218  1.2115  0.4947
  336MOL0     O45272   9.638   9.226   1.320 -0.0606  0.1804  0.7594
  336MOL0     C45273   9.569   9.302   1.588 -0.4744 -0.2923 -0.0778
  336MOL0     C45274   9.529   9.354   1.713  0.5313  1.1546 -0.2220
  336MOL0     N45275   9.917   9.402   2.382 -0.5407  0.5171 -0.0173
  336MOL0     N45276   9.923   9.362   2.503 -0.3233  0.3392 -0.8615
  336MOL0     C45277   9.176   8.629   3.194 -0.4371 -0.2417 -0.1126
  336MOL0     C45278   9.062   8.642   3.278  1.1103  0.2046  0.3861
  336MOL0     C45279   8.637   8.861   3.356 -1.3753 -0.5791 -0.2413
  336MOL0     C45280   8.552   8.959   3.307  0.3417 -1.1017 -0.4999
  336MOL0     C45281   8.420   8.992   3.364 -0.1725  0.1562  1.6569
  336MOL0     C45282   8.380   8.923   3.478 -0.2044  0.0769 -0.4008
  336MOL0     O45283   8.268   8.945   3.552 -1.1032  0.2044 -0.2542
  336MOL0     C45284   8.151   8.966   3.484  0.2970  0.5428 -0.2392
  336MOL0     C45285   8.043   9.055   3.571  0.3746  0.9365 -0.4132
  336MOL0     C45286   8.063   9.213   3.560 -0.8648  0.0749  0.6476
  336MOL0     C45287   8.016   9.276   3.427 -0.5235  0.4731 -0.6452
  336MOL0     C45288   8.125   9.282   3.333  0.6243 -0.2690  1.0246
  336MOL0     C45289   8.212   9.287   3.246 -0.8466 -0.6886 -0.3846
  336MOL0     C45290   8.467   8.825   3.538 -0.1793  0.0245 -0.1630
  336MOL0     C45291   8.601   8.797   3.484  0.6624  0.8099  0.4810
  336MOL0     C45292   8.694   8.699   3.551 -0.6146 -0.0047 -0.1397
  336MOL0     H45293   9.024   8.979   3.221  1.1491  1.5288  2.3706
  336MOL0     H45294   9.215   8.960   3.118 -3.3144  1.6654  2.2389
  336MOL0     H45295   9.276   8.560   2.944  0.2213  0.1756  0.6562
  336MOL0     H45296   9.212   8.700   2.876  0.9859  0.3377 -2.2287
  336MOL0     H45297   9.384   8.645   2.731 -2.8135  3.0235  0.1037
  336MOL0     H45298   9.497   8.587   2.859 -3.8132 -3.1980 -0.2345
  336MOL0     H45299   9.549   8.820   2.922  0.7671 -2.1333  0.9896
  336MOL0     H45300   9.420   8.870   2.800 -1.8812 -0.5718  2.2517
  336MOL0     H45301   9.678   8.726   2.746 -0.6069 -0.2000 -0.0987
  336MOL0     H45302   9.565   8.808   2.628 -0.1781  2.2390 -0.1483
  336MOL0     H45303   9.774   8.905   2.839  1.6262  3.7720 -0.3650
  336MOL0     H45304   9.790   8.889   2.660 -1.5653 -0.1830 -1.6170
  336MOL0     H45305   9.601   9.056   2.634 -5.4453 -0.6958  2.1285
  336MOL0     H45306   9.586   9.070   2.807 -1.7269 -2.6645 -0.7389
  336MOL0     H45307   9.821   9.143   2.828 -1.5880  0.9136  0.7049
  336MOL0     H45308   9.735   9.258   2.734  2.4950 -0.1629  0.8036
  336MOL0     H45309   9.978   9.159   2.655 -1.2437 -0.7048  5.0462
  336MOL0     H45310   9.847   9.056   2.565  1.8221 -1.5843  0.4704
  336MOL0     H45311   9.728   9.146   2.353 -0.6327 -0.0748  0.5041
  336MOL0     H45312   9.872   9.394   2.094 -0.4339  2.8995  1.6713
  336MOL0     H45313   9.806   9.223   2.117  2.7824 -2.0012  2.7940
  336MOL0     H45314   9.586   9.357   2.205 -0.0657  0.0301  0.0852
  336MOL0     H45315   9.681   9.508   2.179  0.8006 -0.0096  0.3671
  336MOL0     H45316   9.625   9.308   1.949 -0.8791  0.4897 -2.5305
  336MOL0     H45317   9.700   9.478   1.954  1.6237  1.0824  2.8290
  336MOL0     H45318   9.457   9.548   2.045 -4.3398 -2.0656  0.2492
  336MOL0     H45319   9.404   9.408   1.984  0.5654 -0.6050 -0.5574
  336MOL0     H45320   9.576   9.680   1.643 -2.3596  1.4399 -0.1274
  336MOL0     H45321   9.630   9.599   1.433  0.7725  0.1806  1.6286
  336MOL0     H45322   9.926   9.311   1.222 -0.1342  0.1553 -0.2165
  336MOL0     H45323  10.024   9.255   0.995 -0.4273  1.4056 -2.3081
  336MOL0     H45324  10.110   9.275   0.792 -2.0623  0.2310  1.8791
  336MOL0     H45325   9.987   9.159   0.744 -2.4513  1.8777 -1.6049
  336MOL0     H45326  10.103   9.214   0.531 -2.7304  0.5483 -3.0959
  336MOL0     H45327   9.954   9.296   0.531  1.5783 -1.4019 -2.5576
  336MOL0     H45328  10.058   9.494   0.619 -1.2839 -1.3640  1.5784
  336MOL0     H45329  10.215   9.416   0.638  0.5144  0.5552 -1.4859
  336MOL0     H45330  10.071   9.475   0.375  0.0213  0.4600 -0.9400
  336MOL0     H45331  10.223   9.385   0.380  0.8643 -0.1388  2.5403
  336MOL0     H45332  10.363   9.517   0.454 -0.3072 -2.8364 -1.2186
  336MOL0     H45333  10.251   9.644   0.508  2.0044  1.4564 -0.0943
  336MOL0     H45334  10.301   9.553   0.220  0.2395 -0.1708  1.5576
  336MOL0     H45335  10.192   9.690   0.259 -1.0107 -1.2921  3.4214
  336MOL0     H45336  10.398   9.792   0.385  3.5418 -0.2455  0.0958
  336MOL0     H45337  10.390   9.799   0.215  1.9460  1.1926  1.8544
  336MOL0     H45338  10.610   9.741   0.316  1.5934 -3.4551 -0.1454
  336MOL0     H45339  10.555   9.575   0.344  1.3324  0.3736  1.6992
  336MOL0     H45340   9.688   9.424   0.805 -0.6774  1.3547  0.0436
  336MOL0     H45341   9.577   9.480   1.020 -1.5299 -2.1411  0.2723
  336MOL0     H45342   9.563   9.196   1.566  1.4164  0.1208 -3.1176
  336MOL0     H45343   9.490   9.278   1.780 -1.0917  1.1469 -1.1318
  336MOL0     H45344   9.230   8.534   3.198  1.4847  0.7598 -1.1191
  336MOL0     H45345   9.025   8.560   3.339  0.0028 -0.4496 -1.1089
  336MOL0     H45346   8.568   9.013   3.214 -2.4757  0.9115  0.0389
  336MOL0     H45347   8.366   9.073   3.316 -1.2998 -0.4567  1.8583
  336MOL0     H45348   8.124   8.863   3.463 -0.0681  0.1344  1.9355
  336MOL0     H45349   8.158   9.025   3.392 -2.2479  0.3349 -0.6277
  336MOL0     H45350   8.054   9.023   3.675 -1.5329 -1.6353 -0.8970
  336MOL0     H45351   7.950   9.014   3.530  1.1623 -2.3960  0.8023
  336MOL0     H45352   8.164   9.234   3.597  0.4874 -2.4065 -1.2943
  336MOL0     H45353   7.997   9.263   3.631 -0.6690  1.1825  0.0721
  336MOL0     H45354   7.930   9.222   3.386  0.3066 -0.9937 -0.5360
  336MOL0     H45355   7.983   9.377   3.452  1.9794  1.0616  0.5793
  336MOL0     H45356   8.287   9.306   3.173  0.2315  0.2839  0.9114
  336MOL0     H45357   8.441   8.776   3.632 -1.8068  3.1093  1.1450
  336MOL0     H45358   8.667   8.685   3.657  0.3970  1.6196  0.3563
  336MOL0     H45359   8.717   8.611   3.491  1.4724  1.5395 -1.7361
  336MOL0     H45360   8.789   8.747   3.573 -0.9783  1.8688 -2.3315
  337MOL0     O45361   1.907   1.322   3.436 -0.4421  0.1449  1.2822
  337MOL0     C45362   1.950   1.383   3.534 -0.0112  0.2210 -0.0789
  337MOL0     O45363   2.048   1.335   3.623  0.3573 -0.5562  0.4801
  337MOL0     C45364   2.080   1.209   3.631 -0.0757  0.6858  0.7787
  337MOL0     C45365   2.176   1.150   3.546 -0.4435  0.0787  0.3808
  337MOL0     C45366   2.220   1.011   3.551 -0.1294 -0.2632 -0.6930
  337MOL0     C45367   2.168   0.932   3.652 -0.3093 -0.3514  1.1118
  337MOL0     O45368   2.210   0.801   3.645 -0.5915 -0.0446 -0.5075
  337MOL0     C45369   2.165   0.708   3.748  0.8253 -0.6829 -0.0367
  337MOL0     C45370   2.260   0.588   3.758 -0.3167  0.3720 -1.5507
  337MOL0     C45371   2.226   0.502   3.884  0.8464  0.8677  0.0132
  337MOL0     C45372   2.341   0.404   3.924  0.3518  0.4278 -0.0646
  337MOL0     C45373   2.306   0.342   4.066 -0.8495  0.3560 -0.1984
  337MOL0     C45374   2.417   0.251   4.120 -0.5944  0.2904  0.3359
  337MOL0     C45375   2.379   0.176   4.241 -0.3397  0.2880  0.2672
  337MOL0     C45376   2.487   0.096   4.321 -0.7129  0.5147 -0.6033
  337MOL0     N45377   2.536  -0.023   4.245  0.2630 -0.1793 -0.0097
  337MOL0     C45378   2.498  -0.157   4.267  0.3274 -0.5986  0.4590
  337MOL0     C45379   2.598  -0.235   4.217  0.9502  0.0556  0.8739
  337MOL0     C45380   2.617  -0.387   4.227 -0.4514  0.1584  0.1398
  337MOL0     C45381   2.762  -0.431   4.207  0.3313  0.5216  0.0629
  337MOL0     C45382   2.784  -0.568   4.260  0.3894 -0.2219  0.0874
  337MOL0     C45383   2.935  -0.606   4.266  0.2298  0.7942  0.7336
  337MOL0     O45384   2.960  -0.741   4.315 -0.1472 -0.2691  0.4022
  337MOL0     C45385   3.076  -0.776   4.372  0.3947  0.7912 -0.5206
  337MOL0     C45386   3.088  -0.909   4.434  0.6457  0.5813  0.4440
  337MOL0     C45387   3.209  -0.950   4.492 -0.5268 -0.6049  0.0726
  337MOL0     C45388   3.327  -0.871   4.493  0.5234 -0.9283  0.0002
  337MOL0     C45389   3.450  -0.930   4.545  0.2780  0.3372 -0.2003
  337MOL0     O45390   3.451  -1.058   4.594 -0.2863 -0.5705 -0.2127
  337MOL0     C45391   3.556  -1.101   4.666 -0.4269  0.4955 -0.4463
  337MOL0     C45392   3.690  -1.075   4.643  0.6894 -1.1252 -0.5996
  337MOL0     C45393   3.790  -1.132   4.716 -0.3550 -1.0550  0.6136
  337MOL0     C45394   3.758  -1.210   4.825 -0.6689  0.0582  0.1786
  337MOL0     O45395   3.862  -1.253   4.903  0.0475  0.5236  0.7534
  337MOL0     C45396   3.852  -1.216   5.040  0.2695 -0.1899 -0.3084
  337MOL0     C45397   3.981  -1.264   5.095 -0.8937 -0.3308 -0.4948
  337MOL0     C45398   3.986  -1.263   5.249 -0.3415 -0.0259  0.2326
  337MOL0     C45399   4.112  -1.338   5.300 -0.2585 -0.3091 -0.3131
  337MOL0     C45400   4.126  -1.324   5.454  0.2421 -0.5992  0.6985
  337MOL0     C45401   4.033  -1.418   5.525  0.0267  0.6815  0.4828
  337MOL0     C45402   4.073  -1.427   5.674 -0.6576 -0.1654  0.0011
  337MOL0     C45403   4.019  -1.553   5.749  0.2244  0.1754 -0.0463
  337MOL0    Cl45404   4.107  -1.591   5.911  0.1133 -0.0028  0.9193
  337MOL0     C45405   3.627  -1.243   4.853  0.1733 -0.6848  1.1920
  337MOL0     C45406   3.520  -1.188   4.774 -0.3026 -0.6159 -0.6250
  337MOL0     O45407   3.545  -0.855   4.554  1.4283 -0.1826 -0.5916
  337MOL0     C45408   3.312  -0.743   4.439 -0.6264 -0.7881 -0.4240
  337MOL0     C45409   3.188  -0.699   4.381 -0.3829  0.5415 -0.9730
  337MOL0     N45410   2.684  -0.151   4.148 -0.9688 -0.6513 -0.0789
  337MOL0     N45411   2.640  -0.028   4.158 -0.3333  0.3216  0.2791
  337MOL0     C45412   2.071   0.991   3.740 -0.6915 -0.2726 -0.3564
  337MOL0     C45413   2.028   1.123   3.728 -0.5489 -0.1811  0.7314
  337MOL0     C45414   1.897   1.520   3.567  0.8261  0.3004  0.1158
  337MOL0     C45415   1.937   1.586   3.678 -0.8931 -0.1302  0.6323
  337MOL0     C45416   1.892   1.711   3.716 -0.3040 -0.3070 -0.3346
  337MOL0     C45417   1.802   1.785   3.638 -0.1952  0.2899 -0.7966
  337MOL0     O45418   1.772   1.911   3.688  0.0976 -0.0770 -0.2326
  337MOL0     C45419   1.719   2.019   3.600 -0.0161 -0.3986  0.1656
  337MOL0     C45420   1.808   2.060   3.486  0.5267  0.0230  0.2245
  337MOL0     C45421   1.948   2.092   3.541  0.4186  0.5411 -0.2702
  337MOL0     C45422   2.030   2.175   3.445 -0.3985 -1.1360 -0.0688
  337MOL0     C45423   2.050   2.111   3.323 -0.7384 -0.7028 -0.9203
  337MOL0     C45424   2.072   2.064   3.215 -0.5472 -0.6423  0.0167
  337MOL0     C45425   1.756   1.723   3.524 -0.0539 -1.1347 -0.4675
  337MOL0     C45426   1.791   1.589   3.489 -0.5016  0.0417  0.7510
  337MOL0     C45427   1.722   1.532   3.364 -0.3211 -0.6737  0.0252
  337MOL0     H45428   2.219   1.209   3.466 -1.7558  2.8359  1.5707
  337MOL0     H45429   2.296   0.983   3.479  2.3485  0.6279  1.4161
  337MOL0     H45430   2.155   0.774   3.835 -1.3986  1.2977 -1.6677
  337MOL0     H45431   2.062   0.678   3.728  0.0838  2.6821 -2.0336
  337MOL0     H45432   2.367   0.610   3.762 -0.3227  0.7884  3.3583
  337MOL0     H45433   2.251   0.528   3.668  0.0126 -2.0545 -0.0634
  337MOL0     H45434   2.137   0.439   3.879  0.2088  1.6623  1.0408
  337MOL0     H45435   2.191   0.559   3.970 -0.9410 -0.0594 -0.0640
  337MOL0     H45436   2.348   0.333   3.842 -1.3026 -0.2525  0.3269
  337MOL0     H45437   2.436   0.454   3.943 -0.0375  0.4022  2.2714
  337MOL0     H45438   2.289   0.422   4.139  2.6236 -0.9729  2.3042
  337MOL0     H45439   2.222   0.272   4.064 -0.0809 -0.7481  2.5583
  337MOL0     H45440   2.452   0.178   4.046  0.7448  0.7091  0.5276
  337MOL0     H45441   2.503   0.316   4.135 -2.3331  3.1626 -1.3377
  337MOL0     H45442   2.303   0.100   4.220 -0.7291  0.9450 -0.7522
  337MOL0     H45443   2.342   0.253   4.309  0.6578  1.8713 -0.9122
  337MOL0     H45444   2.570   0.158   4.354 -1.2485  0.0743  1.7165
  337MOL0     H45445   2.438   0.066   4.414 -0.3699 -0.6297 -0.7713
  337MOL0     H45446   2.406  -0.192   4.313 -0.9159 -2.7269 -3.2324
  337MOL0     H45447   2.602  -0.412   4.333  0.9944 -1.6778 -0.0271
  337MOL0     H45448   2.541  -0.441   4.170 -0.4883 -2.6310  2.5807
  337MOL0     H45449   2.790  -0.433   4.101  1.0569  0.4666  0.2528
  337MOL0     H45450   2.826  -0.360   4.260 -2.1244  0.8179  2.8983
  337MOL0     H45451   2.724  -0.641   4.206  1.0160 -0.2541 -0.5764
  337MOL0     H45452   2.768  -0.557   4.368  3.5122  2.9688  0.4109
  337MOL0     H45453   2.969  -0.532   4.338 -1.2991  0.5826  1.7140
  337MOL0     H45454   2.982  -0.603   4.167 -0.4787  3.2640  0.4146
  337MOL0     H45455   3.000  -0.973   4.439  1.9246 -1.1806  1.8896
  337MOL0     H45456   3.230  -1.051   4.526  2.0505  0.4649  1.9626
  337MOL0     H45457   3.718  -1.005   4.565 -1.7208 -0.5373 -1.0218
  337MOL0     H45458   3.892  -1.096   4.704  0.8351 -4.2497  0.0484
  337MOL0     H45459   3.844  -1.107   5.033 -0.7386 -0.1719  0.7520
  337MOL0     H45460   3.773  -1.266   5.099 -0.1220  1.0258  0.2269
  337MOL0     H45461   3.991  -1.368   5.061 -1.9499 -0.0321 -1.8090
  337MOL0     H45462   4.057  -1.201   5.048  1.0743 -2.4545 -0.3090
  337MOL0     H45463   3.983  -1.159   5.283 -0.6236 -0.2401  0.8756
  337MOL0     H45464   3.896  -1.309   5.292 -1.6819  0.8130 -1.5378
  337MOL0     H45465   4.202  -1.300   5.252 -0.3076  0.2636  0.0297
  337MOL0     H45466   4.113  -1.441   5.264  3.6483 -0.6492  0.4045
  337MOL0     H45467   4.108  -1.220   5.484 -0.2745 -0.8406  1.2347
  337MOL0     H45468   4.231  -1.349   5.473  0.8383 -0.6990 -2.2156
  337MOL0     H45469   3.930  -1.384   5.511  0.2439  2.6096  2.9458
  337MOL0     H45470   4.054  -1.511   5.472  3.1658  0.6062  1.6414
  337MOL0     H45471   4.054  -1.340   5.737  2.7031  0.1974  0.6871
  337MOL0     H45472   4.180  -1.446   5.684 -1.0356 -1.9818  1.1562
  337MOL0     H45473   3.914  -1.526   5.765  0.3400  1.5363 -1.3876
  337MOL0     H45474   4.014  -1.645   5.689  1.0127 -0.7109  1.1943
  337MOL0     H45475   3.608  -1.316   4.931  0.9624 -3.8331 -1.3243
  337MOL0     H45476   3.416  -1.218   4.784 -0.6720  1.3824  3.6406
  337MOL0     H45477   3.401  -0.684   4.458 -1.0447 -1.1709  3.6723
  337MOL0     H45478   3.173  -0.596   4.348 -1.2258  1.4836  2.0587
  337MOL0     H45479   2.013   0.930   3.809 -0.1380 -0.8173 -0.3658
  337MOL0     H45480   1.947   1.163   3.788  1.1104  3.8426  0.6689
  337MOL0     H45481   2.014   1.542   3.741 -0.5265  2.5068  2.1925
  337MOL0     H45482   1.929   1.761   3.805 -3.0446  0.7846  0.3037
  337MOL0     H45483   1.700   2.100   3.671 -2.0889 -1.3690  0.8028
  337MOL0     H45484   1.620   1.992   3.561 -0.5775  2.0521 -0.2944
  337MOL0     H45485   1.754   2.136   3.428  0.3421  0.6210  1.1569
  337MOL0     H45486   1.826   1.975   3.420 -1.6757 -1.1799  1.0601
  337MOL0     H45487   2.003   1.998   3.537  0.1737  0.4220 -0.9963
  337MOL0     H45488   1.947   2.144   3.638  0.8145  3.3818 -1.6801
  337MOL0     H45489   1.994   2.278   3.440  0.9298 -0.6960 -1.9493
  337MOL0     H45490   2.131   2.189   3.485  0.6885 -0.1295 -2.8843
  337MOL0     H45491   2.110   2.026   3.122 -0.7541 -3.6367  1.0306
  337MOL0     H45492   1.697   1.769   3.446 -1.5804 -1.4195  0.4668
  337MOL0     H45493   1.783   1.489   3.284  0.9509  0.8470  0.1283
  337MOL0     H45494   1.654   1.451   3.394 -3.6617  2.0429  0.4554
  337MOL0     H45495   1.656   1.602   3.312  1.5427 -0.1119 -1.7100
  338MOL0     O45496   2.616   4.860   0.382  0.5483  0.2517 -0.3900
  338MOL0     C45497   2.554   4.957   0.409 -0.2983 -0.8214 -0.5827
  338MOL0     O45498   2.436   4.986   0.359  0.0747 -0.1595  0.1994
  338MOL0     C45499   2.374   4.888   0.284 -0.2208  0.0639 -0.3927
  338MOL0     C45500   2.389   4.874   0.141 -0.4524 -0.1684  0.7197
  338MOL0     C45501   2.328   4.766   0.075 -0.5483  0.2904  0.8825
  338MOL0     C45502   2.242   4.679   0.142 -0.4404 -0.0252 -0.6124
  338MOL0     O45503   2.186   4.576   0.074  0.0797 -0.0350  0.6833
  338MOL0     C45504   2.254   4.460   0.064 -0.2563 -0.3390 -0.1222
  338MOL0     C45505   2.175   4.338   0.126  0.3895 -0.1838  0.3733
  338MOL0     C45506   2.018   4.343   0.098 -0.1053  0.5420 -0.2525
  338MOL0     C45507   1.983   4.325  -0.054  0.5228 -0.6094  0.0710
  338MOL0     C45508   1.840   4.280  -0.072 -0.1897  0.2707  0.8065
  338MOL0     C45509   1.805   4.277  -0.219 -0.3775  0.9038  0.1371
  338MOL0     C45510   1.711   4.161  -0.260  0.7717 -0.3698  0.0877
  338MOL0     C45511   1.574   4.153  -0.178  0.3574 -0.9158 -0.4065
  338MOL0     N45512   1.490   4.261  -0.230 -0.0062 -0.7958 -0.3987
  338MOL0     C45513   1.445   4.373  -0.164  0.3166  0.6379  0.4297
  338MOL0     C45514   1.339   4.421  -0.237  0.6003 -1.0353 -0.2706
  338MOL0     C45515   1.242   4.537  -0.196  0.1222  0.8112 -0.4238
  338MOL0     C45516   1.299   4.668  -0.234 -1.0522  0.2202  0.7086
  338MOL0     C45517   1.209   4.787  -0.181 -0.5095 -2.0657 -0.4440
  338MOL0     C45518   1.199   4.810  -0.028 -0.2469 -0.0934 -1.5531
  338MOL0     O45519   1.153   4.940   0.004  0.4281  0.5078 -0.1545
  338MOL0     C45520   1.154   4.970   0.138  0.9346 -0.4062  0.4618
  338MOL0     C45521   1.044   4.950   0.214  0.9970  0.7436  0.4019
  338MOL0     C45522   1.042   4.988   0.345  0.0524  0.1678  0.2418
  338MOL0     C45523   1.152   5.043   0.407 -0.5811 -0.8254  0.4009
  338MOL0     C45524   1.143   5.088   0.550  0.9929  0.2508 -0.2247
  338MOL0     O45525   1.067   5.008   0.630 -0.7515  0.4895 -0.6595
  338MOL0     C45526   1.075   5.019   0.771 -0.1518 -0.1196  0.3774
  338MOL0     C45527   1.082   4.908   0.851  0.8509 -0.0423  0.4766
  338MOL0     C45528   1.079   4.917   0.991 -0.1182  0.0874  0.4045
  338MOL0     C45529   1.067   5.042   1.051 -0.3059  0.3254 -0.0144
  338MOL0     O45530   1.066   5.047   1.183 -0.5921  0.3031 -0.0152
  338MOL0     C45531   1.186   5.109   1.237  0.2703  0.0696  0.6821
  338MOL0     C45532   1.203   5.050   1.365 -0.2397  0.2346 -0.4825
  338MOL0     C45533   1.336   5.065   1.419  0.7916 -0.6882 -0.4568
  338MOL0     C45534   1.374   5.217   1.438 -0.5822 -0.4923 -0.0747
  338MOL0     C45535   1.516   5.238   1.502 -0.2127 -0.3445  0.3440
  338MOL0     C45536   1.622   5.190   1.405 -1.0265  1.5739 -0.6880
  338MOL0     C45537   1.759   5.231   1.442 -0.4497 -0.3596 -0.1568
  338MOL0     C45538   1.791   5.210   1.589 -0.1479  0.3517 -0.0011
  338MOL0    Cl45539   1.946   5.281   1.628  0.0788  0.1727 -0.2464
  338MOL0     C45540   1.080   5.157   0.975  0.5347 -0.2695  0.2086
  338MOL0     C45541   1.077   5.145   0.831 -0.1901 -0.9214 -1.0600
  338MOL0     O45542   1.222   5.178   0.592  0.1574 -0.1557  0.6020
  338MOL0     C45543   1.273   5.049   0.341 -0.1557 -0.0327 -0.3346
  338MOL0     C45544   1.265   5.027   0.198 -0.2476  0.2229 -0.3310
  338MOL0     N45545   1.320   4.344  -0.345  0.2276 -0.4635  0.0268
  338MOL0     N45546   1.414   4.257  -0.347  0.3529 -0.8117 -0.4295
  338MOL0     C45547   2.229   4.684   0.277 -0.6744 -0.1630  0.1051
  338MOL0     C45548   2.298   4.786   0.348 -0.3389 -0.1400 -0.3561
  338MOL0     C45549   2.606   5.073   0.494 -0.0842  0.2460 -0.3193
  338MOL0     C45550   2.516   5.156   0.554  0.4784 -0.2376 -0.2491
  338MOL0     C45551   2.540   5.268   0.626  0.3976  0.9514 -0.4937
  338MOL0     C45552   2.669   5.292   0.652 -0.2713  0.5791  1.0148
  338MOL0     O45553   2.709   5.404   0.726  0.1004 -0.6311  0.1024
  338MOL0     C45554   2.636   5.454   0.840 -0.1452  0.1402 -0.7092
  338MOL0     C45555   2.718   5.552   0.932 -0.2116  0.1486  0.0339
  338MOL0     C45556   2.857   5.482   0.988  0.8546 -1.2551  0.3725
  338MOL0     C45557   2.843   5.334   1.020  0.2678  0.1045 -0.2010
  338MOL0     C45558   2.767   5.324   1.149  1.3835 -0.2830  0.3457
  338MOL0     C45559   2.703   5.346   1.244 -0.2991 -0.4251 -0.2084
  338MOL0     C45560   2.770   5.214   0.602  0.7502  0.6468  0.3626
  338MOL0     C45561   2.742   5.104   0.520  0.3084 -0.0971 -0.4028
  338MOL0     C45562   2.856   5.023   0.466  0.7879  0.1629  0.8179
  338MOL0     H45563   2.433   4.961   0.094 -1.4837  0.1505  0.3131
  338MOL0     H45564   2.314   4.757  -0.032 -0.7584  0.7768  0.8674
  338MOL0     H45565   2.276   4.456  -0.043  1.4398  1.6940  0.1085
  338MOL0     H45566   2.344   4.466   0.125  0.3047  1.7742 -1.0718
  338MOL0     H45567   2.193   4.321   0.232  1.1491 -1.2448  0.1002
  338MOL0     H45568   2.224   4.245   0.095 -0.9054 -0.9241  0.4508
  338MOL0     H45569   1.984   4.433   0.151 -1.9796  0.6649 -1.5408
  338MOL0     H45570   1.977   4.251   0.142 -1.4742  1.0061 -0.4836
  338MOL0     H45571   2.000   4.415  -0.115  0.7891 -0.7257 -0.0273
  338MOL0     H45572   2.048   4.246  -0.091  3.2157  2.3704 -2.2110
  338MOL0     H45573   1.825   4.183  -0.025  0.4599  0.6760  1.8825
  338MOL0     H45574   1.766   4.344  -0.024  0.5471  2.6015 -0.9732
  338MOL0     H45575   1.755   4.372  -0.238 -2.2782 -0.1958 -0.6333
  338MOL0     H45576   1.895   4.255  -0.278 -0.2073  0.1689  0.6588
  338MOL0     H45577   1.762   4.065  -0.245  3.2959  0.9042  0.2508
  338MOL0     H45578   1.689   4.182  -0.365 -2.5156 -1.1300  0.5060
  338MOL0     H45579   1.527   4.054  -0.188  0.3905 -1.0758  0.8530
  338MOL0     H45580   1.598   4.162  -0.072 -0.2853 -2.2641 -0.1226
  338MOL0     H45581   1.466   4.407  -0.062  0.4098 -0.8677  0.9305
  338MOL0     H45582   1.151   4.521  -0.255 -1.3197 -0.8364  2.0711
  338MOL0     H45583   1.215   4.532  -0.090 -3.2959  0.0493 -1.2041
  338MOL0     H45584   1.405   4.678  -0.207  0.5476  0.3702 -4.5092
  338MOL0     H45585   1.295   4.671  -0.343  3.6295 -1.8146  0.2291
  338MOL0     H45586   1.110   4.770  -0.223 -2.0073  2.2270  0.8360
  338MOL0     H45587   1.250   4.881  -0.219 -2.3790 -0.3591  1.4857
  338MOL0     H45588   1.302   4.805   0.008 -1.0953  0.9110  1.2629
  338MOL0     H45589   1.137   4.732   0.017  1.3081 -0.4634  0.0406
  338MOL0     H45590   0.957   4.904   0.167  0.3135  0.3302  2.0089
  338MOL0     H45591   0.948   4.968   0.396 -0.7767 -0.3933 -1.4163
  338MOL0     H45592   1.071   4.814   0.800 -0.6964  0.8793 -0.9850
  338MOL0     H45593   1.086   4.831   1.056  4.1244  1.1688  1.7701
  338MOL0     H45594   1.267   5.094   1.165 -1.5212 -3.9963 -0.7610
  338MOL0     H45595   1.172   5.216   1.252 -0.8664  0.8481 -4.2489
  338MOL0     H45596   1.136   5.084   1.444  2.0728  1.4090  1.0818
  338MOL0     H45597   1.198   4.941   1.363 -0.0623  0.0635  2.9227
  338MOL0     H45598   1.328   5.021   1.519 -3.5938  1.7447  0.5250
  338MOL0     H45599   1.397   5.018   1.341 -3.0965 -4.5137 -1.5791
  338MOL0     H45600   1.300   5.272   1.497 -0.2401  0.1110 -0.2106
  338MOL0     H45601   1.380   5.274   1.346 -0.8801  0.3702  0.4277
  338MOL0     H45602   1.515   5.180   1.596  1.8663 -3.1528 -1.2251
  338MOL0     H45603   1.521   5.346   1.516  1.7115 -0.1051 -1.7154
  338MOL0     H45604   1.619   5.082   1.388 -2.1142  1.6589 -1.0836
  338MOL0     H45605   1.598   5.230   1.307 -3.5471 -2.1778 -1.8338
  338MOL0     H45606   1.773   5.336   1.416 -0.8589 -0.7910 -2.3279
  338MOL0     H45607   1.825   5.164   1.387  0.8860  0.1087  0.8356
  338MOL0     H45608   1.726   5.270   1.653  2.7914  3.3130  0.4572
  338MOL0     H45609   1.800   5.108   1.628  1.9783  0.7873  0.7482
  338MOL0     H45610   1.071   5.257   1.015  1.0886 -0.4159  0.7028
  338MOL0     H45611   1.082   5.235   0.771  1.1387  0.8972  1.6046
  338MOL0     H45612   1.368   5.091   0.372  0.1560  0.1547 -1.4760
  338MOL0     H45613   1.344   5.049   0.128 -1.4833  0.0936 -1.8077
  338MOL0     H45614   2.166   4.610   0.326 -1.2331 -0.5804 -1.2002
  338MOL0     H45615   2.284   4.814   0.452  0.1889  1.7526 -0.7601
  338MOL0     H45616   2.412   5.136   0.532  0.2838 -0.0705  0.5096
  338MOL0     H45617   2.459   5.331   0.662  1.2071  1.6786  0.0742
  338MOL0     H45618   2.596   5.372   0.900  2.7051 -0.9559 -0.1599
  338MOL0     H45619   2.544   5.503   0.809 -2.8968 -1.2652  4.1656
  338MOL0     H45620   2.656   5.589   1.015 -1.1427  0.6379 -0.8552
  338MOL0     H45621   2.737   5.649   0.886  2.8267 -0.2398  0.2526
  338MOL0     H45622   2.886   5.540   1.076 -0.3557  2.2013 -1.3019
  338MOL0     H45623   2.942   5.494   0.921  1.4529 -1.1053  1.1457
  338MOL0     H45624   2.801   5.278   0.936  1.8170  0.7494 -1.4487
  338MOL0     H45625   2.946   5.301   1.035  0.0271 -0.5142  0.1459
  338MOL0     H45626   2.646   5.350   1.335 -0.3011 -0.9415 -0.1798
  338MOL0     H45627   2.873   5.238   0.625  2.1652 -3.3348 -0.9295
  338MOL0     H45628   2.893   5.058   0.370  0.1337  0.9957  0.8593
  338MOL0     H45629   2.935   5.029   0.541  0.1604  0.4058  1.4781
  338MOL0     H45630   2.826   4.918   0.461 -2.0720  0.9616 -1.8886
  339MOL0     O45631   7.609   9.168   6.191 -0.1821 -0.8772  0.3858
  339MOL0     C45632   7.674   9.117   6.105 -0.9336 -1.0779  1.0169
  339MOL0     O45633   7.767   9.184   6.027  0.6728  0.2646 -0.2221
  339MOL0     C45634   7.789   9.315   6.044  0.1559 -0.9475 -0.0683
  339MOL0     C45635   7.718   9.423   6.000 -0.4173 -0.5648 -0.0093
  339MOL0     C45636   7.748   9.554   6.057 -0.5411 -1.0216 -0.1834
  339MOL0     C45637   7.866   9.569   6.138  1.6807  0.0561  0.5264
  339MOL0     O45638   7.893   9.693   6.189 -0.1609  0.1984  1.1979
  339MOL0     C45639   7.955   9.701   6.315  0.1885 -0.4257 -0.0957
  339MOL0     C45640   7.966   9.855   6.346  0.3004  0.5522  0.2846
  339MOL0     C45641   7.838   9.935   6.351 -0.3988  0.9454 -0.6904
  339MOL0     C45642   7.773   9.918   6.489  1.5009 -0.1602 -0.6556
  339MOL0     C45643   7.652   9.811   6.480 -0.3591  0.7660 -0.6917
  339MOL0     C45644   7.528   9.833   6.399 -0.0589 -0.5359 -0.0183
  339MOL0     C45645   7.528   9.777   6.260 -0.4612  0.4566 -0.9951
  339MOL0     C45646   7.379   9.755   6.217 -1.0556  0.3227 -0.1184
  339MOL0     N45647   7.306   9.661   6.301 -0.1415  0.3954  0.0887
  339MOL0     C45648   7.347   9.530   6.324 -0.9621  0.6570  0.5999
  339MOL0     C45649   7.267   9.488   6.420  0.3138  0.1603  0.4560
  339MOL0     C45650   7.265   9.359   6.503 -0.8005 -0.0426  0.2165
  339MOL0     C45651   7.225   9.231   6.421  0.7161 -0.1620  0.5413
  339MOL0     C45652   7.074   9.206   6.414 -0.5088  0.0644 -0.0594
  339MOL0     C45653   7.038   9.081   6.338 -0.6300  0.4071  0.2798
  339MOL0     O45654   7.091   8.967   6.401 -0.5793 -0.0613 -0.7008
  339MOL0     C45655   7.061   8.850   6.342  0.0459  0.9891  0.1832
  339MOL0     C45656   6.981   8.832   6.227  0.9142  0.4204  0.2649
  339MOL0     C45657   6.969   8.705   6.169 -0.4401  0.9620  0.7117
  339MOL0     C45658   7.011   8.587   6.235 -0.1655 -0.8724  0.7571
  339MOL0     C45659   6.977   8.448   6.196 -0.5372  0.4470 -0.4042
  339MOL0     O45660   6.900   8.435   6.086  0.6762 -0.2047  0.3184
  339MOL0     C45661   6.897   8.314   6.022  0.0329  0.1302 -0.5475
  339MOL0     C45662   6.838   8.200   6.080  0.2846 -0.0757  0.5219
  339MOL0     C45663   6.843   8.067   6.029  0.8283 -0.5712  0.2898
  339MOL0     C45664   6.919   8.052   5.906  0.4909 -0.1388  0.0791
  339MOL0     O45665   6.927   7.928   5.839  0.0407 -0.1737  0.9700
  339MOL0     C45666   6.936   7.811   5.924 -0.0730 -0.6841 -0.1079
  339MOL0     C45667   6.987   7.688   5.836  0.2482  0.0099 -0.8623
  339MOL0     C45668   6.970   7.559   5.917 -0.1239  0.1549 -0.6194
  339MOL0     C45669   7.068   7.455   5.861  0.3634 -0.2886  0.1393
  339MOL0     C45670   7.057   7.332   5.953 -0.1459 -0.4825  0.3436
  339MOL0     C45671   7.176   7.246   5.919 -0.4539  0.9036  0.5550
  339MOL0     C45672   7.138   7.182   5.782 -0.1322  0.4652  0.9271
  339MOL0     C45673   7.233   7.211   5.669  0.0689 -0.8442  0.3411
  339MOL0    Cl45674   7.404   7.140   5.694 -0.4666  0.0803  0.6098
  339MOL0     C45675   6.977   8.165   5.841  0.8080  0.5468 -0.2346
  339MOL0     C45676   6.969   8.295   5.903  0.3492 -0.5318 -0.1045
  339MOL0     O45677   7.024   8.357   6.263 -0.0747 -0.4614 -0.0290
  339MOL0     C45678   7.083   8.600   6.354  1.2592 -0.0057  0.3251
  339MOL0     C45679   7.099   8.729   6.401  0.3066 -1.1575  0.7523
  339MOL0     N45680   7.165   9.585   6.446  0.6563 -0.1372 -0.3152
  339MOL0     N45681   7.197   9.687   6.382 -1.1394 -0.7622  0.3918
  339MOL0     C45682   7.936   9.454   6.179  0.0290  0.4194 -0.0615
  339MOL0     C45683   7.901   9.338   6.132 -0.8560  0.7514  0.3529
  339MOL0     C45684   7.655   8.972   6.072 -0.6613 -0.5635  0.1078
  339MOL0     C45685   7.715   8.914   5.963  1.8628 -0.3305 -0.1701
  339MOL0     C45686   7.708   8.771   5.935 -0.6926 -0.7599  0.5359
  339MOL0     C45687   7.625   8.688   6.014 -0.2694 -0.0001  0.1412
  339MOL0     O45688   7.596   8.556   5.985  0.5816  0.4693  0.2183
  339MOL0     C45689   7.655   8.502   5.871  1.0190 -0.0023 -0.3711
  339MOL0     C45690   7.621   8.362   5.845 -0.0654 -0.5651  0.5459
  339MOL0     C45691   7.663   8.320   5.706  1.1058  0.4052  1.3850
  339MOL0     C45692   7.611   8.181   5.641 -0.1479  0.6127 -0.6370
  339MOL0     C45693   7.672   8.151   5.512  0.0669 -0.4306  0.0437
  339MOL0     C45694   7.702   8.138   5.394 -0.1460 -0.6619  0.2417
  339MOL0     C45695   7.565   8.755   6.117  0.1748  0.5822  0.1414
  339MOL0     C45696   7.574   8.887   6.160  0.6300  0.0488  0.7982
  339MOL0     C45697   7.505   8.931   6.287 -0.1869 -0.9697  0.2696
  339MOL0     H45698   7.644   9.393   5.926 -0.2893  0.2083 -0.4587
  339MOL0     H45699   7.681   9.637   6.035  1.0224  0.5406  0.7495
  339MOL0     H45700   7.916   9.639   6.397  2.0260 -0.8340  0.5189
  339MOL0     H45701   8.062   9.677   6.309  0.3885  0.2742  0.4914
  339MOL0     H45702   8.018   9.908   6.265  0.7578 -1.7865 -1.0386
  339MOL0     H45703   8.028   9.861   6.435  1.9999 -1.6969 -0.6550
  339MOL0     H45704   7.780   9.909   6.263  0.3008 -0.2343 -0.8227
  339MOL0     H45705   7.864  10.040   6.335 -0.7367  0.8023 -2.3135
  339MOL0     H45706   7.841   9.877   6.564  1.2385  0.6958  0.0615
  339MOL0     H45707   7.739  10.019   6.515  0.6648 -1.1505  2.5122
  339MOL0     H45708   7.700   9.717   6.452  1.0045  1.0499  0.5429
  339MOL0     H45709   7.617   9.784   6.580 -1.8692 -1.2600 -1.6928
  339MOL0     H45710   7.445   9.792   6.457 -0.7933 -0.1156 -0.7479
  339MOL0     H45711   7.509   9.941   6.390  0.1584 -0.5525 -0.7260
  339MOL0     H45712   7.578   9.680   6.269 -1.6170 -0.1872 -1.2914
  339MOL0     H45713   7.592   9.838   6.195  1.6841 -1.7042 -1.0433
  339MOL0     H45714   7.340   9.857   6.225  1.0862  1.1748  0.2959
  339MOL0     H45715   7.387   9.721   6.114  1.0928 -0.1932  0.1619
  339MOL0     H45716   7.437   9.475   6.300 -2.1731 -2.3590  2.2677
  339MOL0     H45717   7.369   9.347   6.534 -0.3370 -0.6183 -1.4443
  339MOL0     H45718   7.211   9.369   6.598  0.2896  1.5297  0.7139
  339MOL0     H45719   7.252   9.258   6.318 -1.8082 -1.7290 -0.6182
  339MOL0     H45720   7.288   9.148   6.454  3.6390  0.5271 -2.7683
  339MOL0     H45721   7.022   9.290   6.366  1.0839  1.1228 -0.0214
  339MOL0     H45722   7.036   9.193   6.516 -2.7724 -1.9166 -1.0668
  339MOL0     H45723   7.082   9.095   6.239 -0.9568 -2.5775 -0.3671
  339MOL0     H45724   6.929   9.075   6.328 -0.4520  1.2710 -4.4459
  339MOL0     H45725   6.939   8.914   6.169  1.7280  1.1383  0.6698
  339MOL0     H45726   6.922   8.691   6.072  3.6377 -0.7831 -1.2437
  339MOL0     H45727   6.781   8.214   6.172 -0.5979  1.0790 -0.1851
  339MOL0     H45728   6.794   7.991   6.089 -0.2416  1.1161  1.6226
  339MOL0     H45729   7.002   7.839   6.006  0.1085  2.3510 -1.1740
  339MOL0     H45730   6.838   7.788   5.968  0.2628 -3.4319 -0.5806
  339MOL0     H45731   6.928   7.694   5.744  1.3634  1.2366 -1.5221
  339MOL0     H45732   7.090   7.699   5.801 -0.0985  2.8104 -1.2189
  339MOL0     H45733   6.983   7.584   6.022  1.4888  1.8074 -1.1600
  339MOL0     H45734   6.865   7.529   5.912 -1.0931  2.3648  2.8120
  339MOL0     H45735   7.170   7.488   5.843 -0.8343  2.3926 -2.7527
  339MOL0     H45736   7.041   7.432   5.757  0.7966 -2.8926  0.5337
  339MOL0     H45737   6.964   7.277   5.934  0.6241 -1.4820 -0.7205
  339MOL0     H45738   7.055   7.352   6.060  1.5279  0.5288  0.2202
  339MOL0     H45739   7.260   7.315   5.918  1.2388 -1.0468 -0.1536
  339MOL0     H45740   7.182   7.163   5.991 -2.2290 -0.8187 -1.1379
  339MOL0     H45741   7.039   7.195   5.735 -0.4931 -1.0492  1.1948
  339MOL0     H45742   7.145   7.073   5.795 -4.1313  0.1174  1.4739
  339MOL0     H45743   7.186   7.182   5.574  0.3911  1.5289 -0.6131
  339MOL0     H45744   7.255   7.318   5.668  0.7662 -0.9612  1.4207
  339MOL0     H45745   7.026   8.153   5.745 -2.8616  3.2103 -2.7644
  339MOL0     H45746   7.033   8.369   5.856 -0.1640  0.2829  0.4632
  339MOL0     H45747   7.123   8.512   6.404 -3.0891 -2.5824 -0.1817
  339MOL0     H45748   7.146   8.750   6.496  0.3869 -0.8112  0.6397
  339MOL0     H45749   8.019   9.472   6.248 -1.3535  0.2413  1.7310
  339MOL0     H45750   7.959   9.252   6.163 -2.7410 -0.2264  1.3187
  339MOL0     H45751   7.781   8.974   5.902 -0.8626  2.9517 -0.1464
  339MOL0     H45752   7.754   8.735   5.843 -1.5290  0.7761 -0.5395
  339MOL0     H45753   7.763   8.517   5.870  1.0677 -0.3175 -1.6725
  339MOL0     H45754   7.620   8.561   5.786 -1.7097  1.2061  1.4582
  339MOL0     H45755   7.513   8.347   5.849 -0.6163  1.1072 -3.4981
  339MOL0     H45756   7.665   8.295   5.920  0.5805  0.8618  1.4790
  339MOL0     H45757   7.773   8.321   5.703  1.0808  1.4718  0.2716
  339MOL0     H45758   7.626   8.395   5.635  1.7787 -0.3620  0.1849
  339MOL0     H45759   7.643   8.096   5.701 -0.9458  0.3744 -0.5303
  339MOL0     H45760   7.506   8.171   5.612 -0.3740 -2.2547  0.8662
  339MOL0     H45761   7.720   8.120   5.290 -0.1716  1.9656 -0.2613
  339MOL0     H45762   7.504   8.684   6.174  0.4340  0.1907 -0.0616
  339MOL0     H45763   7.577   8.955   6.365  1.1140 -1.2136 -0.8015
  339MOL0     H45764   7.436   9.010   6.257 -0.0875 -1.3290 -1.0081
  339MOL0     H45765   7.435   8.851   6.314  0.0076 -0.9941  0.7146
  340MOL0     O45766   4.483   3.091   6.334  0.0168 -0.1917  0.1161
  340MOL0     C45767   4.386   3.062   6.271  0.0425 -0.1952  0.0320
  340MOL0     O45768   4.369   2.948   6.200 -0.3304 -0.0988 -0.0007
  340MOL0     C45769   4.469   2.868   6.162 -0.4190  0.0240  0.2948
  340MOL0     C45770   4.470   2.829   6.023 -1.1358 -0.4043  0.5483
  340MOL0     C45771   4.562   2.732   5.979 -0.6785 -1.4755  0.4973
  340MOL0     C45772   4.653   2.664   6.065 -0.5952 -1.0795 -0.7628
  340MOL0     O45773   4.720   2.556   6.025  0.2608  0.9010 -0.3004
  340MOL0     C45774   4.632   2.447   6.004 -0.4331 -1.3196 -0.5392
  340MOL0     C45775   4.725   2.320   6.009 -0.5307 -0.0136  0.7399
  340MOL0     C45776   4.641   2.195   6.003  0.0946 -0.3510 -0.0396
  340MOL0     C45777   4.723   2.073   5.969  0.7487  0.8536  0.2549
  340MOL0     C45778   4.627   1.949   5.994 -0.1970  0.5236  1.1640
  340MOL0     C45779   4.691   1.813   5.965 -0.4319 -0.4872 -0.3431
  340MOL0     C45780   4.597   1.691   5.998  0.5593 -0.0655  0.1068
  340MOL0     C45781   4.484   1.656   5.903  0.1245  0.0277  0.1289
  340MOL0     N45782   4.537   1.603   5.774  0.3518 -0.7053  1.1809
  340MOL0     C45783   4.568   1.683   5.668 -0.6822 -0.3261 -0.6074
  340MOL0     C45784   4.634   1.602   5.583 -0.1174  0.8232  1.1309
  340MOL0     C45785   4.683   1.640   5.440  0.6538  0.3687 -0.6247
  340MOL0     C45786   4.688   1.794   5.418 -0.5142 -0.4890  0.8227
  340MOL0     C45787   4.807   1.865   5.496 -0.3442  0.5888 -0.4925
  340MOL0     C45788   4.807   2.019   5.480 -0.6988  0.2086 -0.1300
  340MOL0     O45789   4.686   2.087   5.520 -0.3123  0.2994 -0.9343
  340MOL0     C45790   4.693   2.227   5.552  0.4124 -0.0242  0.0107
  340MOL0     C45791   4.570   2.298   5.558  1.1979  0.4139  0.0657
  340MOL0     C45792   4.565   2.433   5.604 -0.5975 -0.0073  0.3513
  340MOL0     C45793   4.677   2.513   5.632  0.1474  1.0769 -0.2691
  340MOL0     C45794   4.671   2.665   5.636  0.2203  0.0614  0.4572
  340MOL0     O45795   4.547   2.726   5.634 -0.0590  0.5075  0.3163
  340MOL0     C45796   4.545   2.861   5.606 -0.2086  0.5478 -0.3902
  340MOL0     C45797   4.483   2.914   5.491 -0.7179  0.0650  0.8128
  340MOL0     C45798   4.477   3.046   5.457 -0.4727  0.6268  1.1128
  340MOL0     C45799   4.525   3.136   5.547  0.0444 -0.1825  0.3155
  340MOL0     O45800   4.501   3.272   5.513 -0.0442  0.5204 -0.5291
  340MOL0     C45801   4.537   3.390   5.584  0.3864  0.6837 -0.5912
  340MOL0     C45802   4.459   3.498   5.511  0.2023 -0.3537  0.1824
  340MOL0     C45803   4.468   3.640   5.572 -0.0415  0.1854  0.2961
  340MOL0     C45804   4.367   3.749   5.526 -0.8180  1.0205  0.9439
  340MOL0     C45805   4.226   3.714   5.575 -0.5605  0.1058  1.1943
  340MOL0     C45806   4.133   3.803   5.489 -0.0141  0.3192 -0.0177
  340MOL0     C45807   3.989   3.770   5.523 -0.5737 -0.7127 -0.1215
  340MOL0     C45808   3.906   3.843   5.414  0.9616  0.5809  0.0649
  340MOL0    Cl45809   3.925   4.021   5.408 -0.6170  0.3753 -0.6048
  340MOL0     C45810   4.586   3.095   5.664 -0.0114  1.6910 -0.4789
  340MOL0     C45811   4.601   2.961   5.696  0.3892 -0.5646 -0.2212
  340MOL0     O45812   4.774   2.727   5.641 -0.2137  0.1122 -0.0442
  340MOL0     C45813   4.795   2.439   5.631  0.0977 -0.2681  0.3267
  340MOL0     C45814   4.800   2.296   5.606  0.3855 -0.5212 -0.0207
  340MOL0     N45815   4.645   1.476   5.639 -0.2759  0.3463 -0.2556
  340MOL0     N45816   4.598   1.484   5.758 -0.8962  0.1912  0.4714
  340MOL0     C45817   4.643   2.699   6.204 -0.6313 -0.5300  0.7231
  340MOL0     C45818   4.555   2.800   6.252 -0.2699 -0.4249  0.2906
  340MOL0     C45819   4.273   3.161   6.264  0.4782 -0.7869 -1.0753
  340MOL0     C45820   4.144   3.110   6.221  0.3131 -1.1589 -0.7914
  340MOL0     C45821   4.026   3.187   6.237  0.0700 -0.1563 -0.3624
  340MOL0     C45822   4.034   3.319   6.283  0.2410 -1.4626 -0.8181
  340MOL0     O45823   3.915   3.389   6.322  0.3163 -0.0917  0.0377
  340MOL0     C45824   3.925   3.530   6.338 -0.1112 -0.5948 -1.0681
  340MOL0     C45825   3.800   3.573   6.276 -0.3139  0.8914 -0.2221
  340MOL0     C45826   3.810   3.722   6.233  1.4215  0.0349 -0.2003
  340MOL0     C45827   3.665   3.770   6.212 -0.0648  0.2746  0.2505
  340MOL0     C45828   3.662   3.909   6.162 -0.7273 -0.7853 -0.5464
  340MOL0     C45829   3.637   4.026   6.134 -0.3000 -0.3896 -0.3541
  340MOL0     C45830   4.163   3.368   6.321  0.0360 -0.0542  0.2624
  340MOL0     C45831   4.279   3.295   6.311 -0.1747  0.0006  0.5724
  340MOL0     C45832   4.398   3.359   6.380  0.0047  0.2868 -0.0077
  340MOL0     H45833   4.398   2.874   5.956  2.0171 -0.1592 -2.9806
  340MOL0     H45834   4.568   2.721   5.871 -0.6199  0.8563  0.1986
  340MOL0     H45835   4.552   2.444   6.078 -0.3931  1.1485 -0.3132
  340MOL0     H45836   4.588   2.437   5.904 -2.9076 -2.8141  0.5979
  340MOL0     H45837   4.796   2.308   6.092  2.1754 -1.9291 -1.6576
  340MOL0     H45838   4.781   2.313   5.915  0.4622 -6.4884  1.3304
  340MOL0     H45839   4.566   2.203   5.923  1.7705  0.5008 -1.6233
  340MOL0     H45840   4.585   2.191   6.096  1.9688 -1.8518  1.1052
  340MOL0     H45841   4.758   2.088   5.867  0.4793  0.8708  0.1669
  340MOL0     H45842   4.812   2.073   6.033 -0.1331 -2.7796  1.7464
  340MOL0     H45843   4.587   1.957   6.096 -2.0332 -3.2670  0.9127
  340MOL0     H45844   4.540   1.954   5.929  0.3501 -0.7826  0.2864
  340MOL0     H45845   4.737   1.810   5.866  0.8949 -1.0553  0.2496
  340MOL0     H45846   4.774   1.808   6.036 -0.6004 -1.7634 -0.2095
  340MOL0     H45847   4.566   1.701   6.103  1.1846  0.4363  0.2508
  340MOL0     H45848   4.660   1.602   6.002 -0.3648 -0.7567 -0.2763
  340MOL0     H45849   4.423   1.576   5.945  0.4385 -0.4782 -0.3623
  340MOL0     H45850   4.418   1.742   5.892 -1.4271 -1.2355 -0.8393
  340MOL0     H45851   4.554   1.791   5.661 -0.2873 -0.3074 -1.3036
  340MOL0     H45852   4.784   1.603   5.424  0.9322 -0.1882  1.9738
  340MOL0     H45853   4.623   1.590   5.364 -0.4240 -0.2559  0.5919
  340MOL0     H45854   4.713   1.805   5.312  2.3466 -2.2118  1.1991
  340MOL0     H45855   4.595   1.842   5.448 -0.2604 -0.3231  1.3463
  340MOL0     H45856   4.897   1.829   5.446 -1.1510 -0.5152 -1.2027
  340MOL0     H45857   4.807   1.842   5.603  1.1884  4.0053  0.3683
  340MOL0     H45858   4.815   2.052   5.376 -4.1427 -0.5555 -0.7552
  340MOL0     H45859   4.897   2.044   5.537 -1.6593  1.4869  0.8818
  340MOL0     H45860   4.473   2.249   5.548  0.3378  1.7314  1.4393
  340MOL0     H45861   4.468   2.479   5.618 -1.6340 -0.8315 -3.0293
  340MOL0     H45862   4.431   2.852   5.419 -2.5727  0.0642  2.0818
  340MOL0     H45863   4.428   3.063   5.362 -2.5243  0.8004  2.1364
  340MOL0     H45864   4.502   3.387   5.688 -3.3596  0.4851 -1.7070
  340MOL0     H45865   4.644   3.408   5.571  0.7820  0.5273  2.0209
  340MOL0     H45866   4.507   3.500   5.413 -2.2244  0.1025 -1.0830
  340MOL0     H45867   4.352   3.471   5.510  0.2390 -0.7083  2.1881
  340MOL0     H45868   4.460   3.615   5.679  0.4409 -1.8844 -0.0968
  340MOL0     H45869   4.571   3.670   5.551  0.4593 -0.3561  1.8046
  340MOL0     H45870   4.371   3.761   5.417  0.3410  1.6416  1.0393
  340MOL0     H45871   4.386   3.846   5.573 -3.3689  1.1063  1.9289
  340MOL0     H45872   4.209   3.745   5.678 -0.9907  0.5565  0.9879
  340MOL0     H45873   4.188   3.613   5.554 -1.0709  1.0106 -3.1010
  340MOL0     H45874   4.151   3.909   5.511 -0.4218 -0.3150  4.0390
  340MOL0     H45875   4.154   3.786   5.383  1.4131  3.9812 -0.4615
  340MOL0     H45876   3.964   3.796   5.626 -2.0425 -5.7707  1.0537
  340MOL0     H45877   3.965   3.663   5.520 -0.5598 -0.7008 -1.4973
  340MOL0     H45878   3.929   3.806   5.314  0.8399 -0.5754  0.4446
  340MOL0     H45879   3.803   3.821   5.445 -0.0015  4.7327  0.4044
  340MOL0     H45880   4.629   3.169   5.730  4.2295  1.7638 -2.9251
  340MOL0     H45881   4.651   2.938   5.789  1.9577 -2.0033 -1.3608
  340MOL0     H45882   4.882   2.491   5.672 -1.4329 -0.0840  3.6671
  340MOL0     H45883   4.898   2.255   5.625  0.8321  0.6681  0.3314
  340MOL0     H45884   4.706   2.635   6.265 -0.5715 -0.2096  0.9983
  340MOL0     H45885   4.546   2.830   6.356 -2.4565  3.0101 -0.7048
  340MOL0     H45886   4.129   3.006   6.192  0.8417 -0.8672 -2.1837
  340MOL0     H45887   3.936   3.127   6.230 -0.4673 -0.3318  4.3044
  340MOL0     H45888   4.001   3.566   6.268 -0.5233  1.0424 -0.7058
  340MOL0     H45889   3.932   3.574   6.438 -4.7917  0.2671 -0.9279
  340MOL0     H45890   3.719   3.568   6.349  2.4073 -3.1084  3.0172
  340MOL0     H45891   3.767   3.507   6.196  1.0720  0.6794 -0.6434
  340MOL0     H45892   3.861   3.747   6.139  1.8170 -0.5664 -0.1515
  340MOL0     H45893   3.863   3.783   6.308 -1.7965  1.6399  0.9423
  340MOL0     H45894   3.617   3.711   6.134 -0.3445  2.1511 -1.0667
  340MOL0     H45895   3.611   3.770   6.307 -0.4658  1.2617  0.0391
  340MOL0     H45896   3.619   4.130   6.116  0.8093 -0.3203 -1.2153
  340MOL0     H45897   4.164   3.470   6.359 -2.2402  0.4342 -0.7487
  340MOL0     H45898   4.485   3.304   6.344 -0.7303  0.7936 -2.7633
  340MOL0     H45899   4.410   3.464   6.352 -0.6617  0.4925  0.4432
  340MOL0     H45900   4.389   3.356   6.489  0.6068  2.1727  0.1263
  341MOL0     O45901   0.009   4.737   8.566 -0.5638 -0.4269 -0.0017
  341MOL0     C45902   0.038   4.803   8.662 -0.6856  0.0493 -0.0100
  341MOL0     O45903  -0.016   4.933   8.691  0.1290 -1.0542 -0.1905
  341MOL0     C45904  -0.116   4.989   8.606  0.2974 -0.0690 -0.0025
  341MOL0     C45905  -0.107   5.116   8.566  1.2805 -0.8234  0.3880
  341MOL0     C45906  -0.199   5.172   8.479 -0.1748 -0.1233  0.2054
  341MOL0     C45907  -0.304   5.103   8.430  1.0163 -0.6649  0.2536
  341MOL0     O45908  -0.378   5.151   8.328  0.1928 -0.2129 -0.0974
  341MOL0     C45909  -0.385   5.074   8.214 -0.3051  0.2268  0.0572
  341MOL0     C45910  -0.465   5.151   8.102  0.1469  0.7299 -0.0934
  341MOL0     C45911  -0.496   5.050   7.990  0.6398  0.1424 -0.1323
  341MOL0     C45912  -0.390   5.007   7.896 -0.4920  0.0357  0.6430
  341MOL0     C45913  -0.399   5.105   7.776  0.3189  0.6693 -0.4604
  341MOL0     C45914  -0.292   5.066   7.677  1.4317  0.1321 -0.3552
  341MOL0     C45915  -0.260   5.159   7.554 -0.0119 -1.2952  1.2544
  341MOL0     C45916  -0.382   5.175   7.458  0.1681 -0.2599  0.5942
  341MOL0     N45917  -0.363   5.266   7.345  0.1883  0.1967  0.6212
  341MOL0     C45918  -0.389   5.408   7.343  0.0645 -0.5624 -0.8094
  341MOL0     C45919  -0.355   5.454   7.220 -1.1568  0.1958  0.1046
  341MOL0     C45920  -0.370   5.597   7.163 -0.2522  0.5116 -0.1118
  341MOL0     C45921  -0.236   5.665   7.165  0.3724  0.1525  0.2724
  341MOL0     C45922  -0.220   5.736   7.030  0.4764 -0.9352 -0.7126
  341MOL0     C45923  -0.190   5.654   6.907 -0.4913 -0.0681 -0.1188
  341MOL0     O45924  -0.156   5.746   6.807 -0.5044  0.7004  0.2589
  341MOL0     C45925  -0.157   5.707   6.676 -0.4836 -0.0048 -0.2858
  341MOL0     C45926  -0.233   5.789   6.593  0.2421  0.7350 -0.6111
  341MOL0     C45927  -0.246   5.758   6.455 -0.3536 -0.5718 -0.1235
  341MOL0     C45928  -0.166   5.660   6.400 -0.2584  0.0099 -0.6429
  341MOL0     C45929  -0.176   5.633   6.251 -0.1837  0.7245 -0.4192
  341MOL0     O45930  -0.110   5.517   6.218  0.0813  0.5883  0.0580
  341MOL0     C45931  -0.103   5.494   6.077 -0.2766  1.0670 -0.1974
  341MOL0     C45932  -0.046   5.583   5.990 -0.5761  0.5345 -0.0075
  341MOL0     C45933  -0.043   5.559   5.854  0.1513 -0.2657 -0.1354
  341MOL0     C45934  -0.092   5.444   5.799  0.7407  1.5484  0.3072
  341MOL0     O45935  -0.076   5.423   5.671  0.2803 -0.5333  0.0313
  341MOL0     C45936  -0.195   5.398   5.601  0.6878  0.3999  0.1142
  341MOL0     C45937  -0.182   5.438   5.457 -0.3371 -0.2752  0.4545
  341MOL0     C45938  -0.202   5.594   5.450  0.4452  0.3824  0.2329
  341MOL0     C45939  -0.235   5.651   5.307  0.1879 -0.3713  0.2919
  341MOL0     C45940  -0.278   5.799   5.322 -0.2651  0.1266  0.8738
  341MOL0     C45941  -0.303   5.880   5.193 -0.4731 -0.0286 -0.5323
  341MOL0     C45942  -0.408   5.989   5.211 -0.1259  0.1127 -0.3525
  341MOL0     C45943  -0.430   6.073   5.081  0.4039  0.4962 -0.6471
  341MOL0    Cl45944  -0.591   6.156   5.084 -0.0746  0.2182 -0.0290
  341MOL0     C45945  -0.159   5.354   5.892  0.5382  0.0929  0.2993
  341MOL0     C45946  -0.151   5.370   6.028  0.4329 -0.5663  0.5545
  341MOL0     O45947  -0.243   5.706   6.181  0.0721 -0.4895 -0.1433
  341MOL0     C45948  -0.077   5.585   6.485  0.4650 -0.1141  0.2833
  341MOL0     C45949  -0.084   5.604   6.624 -0.4321  0.3815  0.9309
  341MOL0     N45950  -0.309   5.346   7.152  0.2664  0.1753 -0.0121
  341MOL0     N45951  -0.304   5.235   7.222  1.1483 -0.5882 -0.1906
  341MOL0     C45952  -0.328   4.978   8.486 -0.1587 -0.2765  0.2605
  341MOL0     C45953  -0.229   4.919   8.576  0.3659 -0.1147 -0.0822
  341MOL0     C45954   0.158   4.750   8.736 -0.4796 -0.3605 -0.9692
  341MOL0     C45955   0.233   4.641   8.671  0.1749 -0.8918  0.3612
  341MOL0     C45956   0.355   4.606   8.724 -0.3103  0.0571 -0.0126
  341MOL0     C45957   0.407   4.667   8.839 -0.6436 -0.2006  0.2079
  341MOL0     O45958   0.528   4.627   8.900  0.5618 -0.2286  0.8500
  341MOL0     C45959   0.593   4.517   8.837 -1.2140 -0.2711 -0.1662
  341MOL0     C45960   0.728   4.497   8.914  1.0691  0.3738 -0.2245
  341MOL0     C45961   0.790   4.375   8.854  0.0426  0.1391  0.7816
  341MOL0     C45962   0.930   4.336   8.896 -0.2934  0.7003 -1.3780
  341MOL0     C45963   0.962   4.196   8.874  0.1472 -0.5015 -0.2228
  341MOL0     C45964   0.993   4.076   8.886 -1.1017  0.5176  0.3715
  341MOL0     C45965   0.341   4.783   8.889 -0.1101  0.5806 -0.8963
  341MOL0     C45966   0.214   4.817   8.849 -0.4861  0.0164  0.2431
  341MOL0     C45967   0.140   4.926   8.928  0.2396  0.6349  0.2887
  341MOL0     H45968  -0.022   5.177   8.596  1.7689 -1.3894  0.1771
  341MOL0     H45969  -0.185   5.277   8.455 -2.4036  0.2441  0.2691
  341MOL0     H45970  -0.285   5.066   8.171 -0.3093 -0.6793  0.2108
  341MOL0     H45971  -0.418   4.971   8.230  0.2788  0.2787  1.8001
  341MOL0     H45972  -0.402   5.230   8.059  1.5665 -1.2098 -1.7984
  341MOL0     H45973  -0.552   5.204   8.141  0.2164  0.8582 -0.1099
  341MOL0     H45974  -0.575   5.084   7.923  2.7375 -2.2348 -4.2000
  341MOL0     H45975  -0.540   4.963   8.038  0.7932  0.8146  1.2951
  341MOL0     H45976  -0.290   5.013   7.941 -0.2216  2.3915 -0.1147
  341MOL0     H45977  -0.411   4.910   7.852  1.9839 -0.3934  0.2524
  341MOL0     H45978  -0.496   5.085   7.730 -0.4153  1.5741  0.6661
  341MOL0     H45979  -0.399   5.209   7.807  2.9895  0.8520 -0.8055
  341MOL0     H45980  -0.209   5.050   7.747 -1.7184 -3.0593  3.1180
  341MOL0     H45981  -0.309   4.962   7.646 -1.1753  0.0695  1.0141
  341MOL0     H45982  -0.180   5.123   7.489 -3.2039 -3.9855 -1.5417
  341MOL0     H45983  -0.235   5.258   7.595  1.7213 -1.7948  1.4697
  341MOL0     H45984  -0.424   5.082   7.418  0.1451  0.2766 -0.6940
  341MOL0     H45985  -0.456   5.209   7.531 -0.6333  0.6646 -0.6070
  341MOL0     H45986  -0.425   5.472   7.423 -3.0027 -1.0785 -1.6177
  341MOL0     H45987  -0.405   5.595   7.059  0.1699  0.2470 -0.2520
  341MOL0     H45988  -0.437   5.650   7.231  0.2953  4.4666 -2.3525
  341MOL0     H45989  -0.236   5.741   7.244  1.2410  3.3472 -2.5991
  341MOL0     H45990  -0.146   5.603   7.175 -0.7282 -1.7202 -0.9038
  341MOL0     H45991  -0.138   5.807   7.036  0.7735 -1.2048 -1.5122
  341MOL0     H45992  -0.316   5.785   7.010  1.0416  0.8829  0.7247
  341MOL0     H45993  -0.256   5.571   6.881 -0.2671 -1.4396  3.2355
  341MOL0     H45994  -0.096   5.604   6.932 -0.3771 -0.2439 -0.8861
  341MOL0     H45995  -0.302   5.866   6.628 -0.3618 -0.7887  1.7903
  341MOL0     H45996  -0.314   5.809   6.387 -2.5059 -2.3666  0.5669
  341MOL0     H45997  -0.017   5.679   6.032 -0.5618  0.9835 -1.0098
  341MOL0     H45998  -0.002   5.635   5.788 -1.2696 -0.0003 -0.7703
  341MOL0     H45999  -0.214   5.291   5.607  1.0813  0.3035 -0.3516
  341MOL0     H46000  -0.279   5.446   5.652 -0.1523 -0.6337 -0.2535
  341MOL0     H46001  -0.084   5.413   5.417 -0.5137  0.1520 -0.2519
  341MOL0     H46002  -0.254   5.384   5.395 -0.6069  1.4439 -0.7900
  341MOL0     H46003  -0.290   5.611   5.512 -1.7860 -1.5135 -2.1356
  341MOL0     H46004  -0.113   5.639   5.493  0.1298 -1.7609  3.5143
  341MOL0     H46005  -0.308   5.585   5.260 -0.1646  0.1837  0.0474
  341MOL0     H46006  -0.143   5.647   5.248  1.0166  1.1776  1.4010
  341MOL0     H46007  -0.213   5.856   5.388 -0.5401  0.5686  0.7700
  341MOL0     H46008  -0.379   5.800   5.365 -0.8348  1.6234 -0.3858
  341MOL0     H46009  -0.205   5.923   5.170 -0.6831 -0.3637 -2.1667
  341MOL0     H46010  -0.343   5.818   5.112 -0.1793 -2.0450  0.7803
  341MOL0     H46011  -0.374   6.053   5.293  0.9638 -0.6880 -0.1491
  341MOL0     H46012  -0.498   5.939   5.247  0.9729 -1.6653  0.0826
  341MOL0     H46013  -0.359   6.156   5.073 -0.2585  0.9071 -5.2573
  341MOL0     H46014  -0.413   6.019   4.988  2.6593 -0.0084  0.0111
  341MOL0     H46015  -0.217   5.270   5.855 -1.5029  1.2922  0.6437
  341MOL0     H46016  -0.208   5.308   6.097 -1.5248 -1.9803 -2.1471
  341MOL0     H46017  -0.011   5.507   6.446 -1.1968 -2.0237  1.1166
  341MOL0     H46018  -0.013   5.553   6.688  1.8139  0.6970 -1.1513
  341MOL0     H46019  -0.411   4.912   8.462  0.0249 -1.3268  2.2738
  341MOL0     H46020  -0.247   4.814   8.597  1.8658 -0.7181 -1.6033
  341MOL0     H46021   0.187   4.602   8.581 -4.1345  1.3701  1.3283
  341MOL0     H46022   0.410   4.527   8.674 -1.9394 -1.0921 -0.0897
  341MOL0     H46023   0.620   4.533   8.732  2.7083 -3.2036  0.1725
  341MOL0     H46024   0.529   4.429   8.846 -1.0539 -0.3968 -0.2564
  341MOL0     H46025   0.712   4.477   9.020  1.2569  1.2110 -0.0305
  341MOL0     H46026   0.795   4.584   8.914 -3.5499  4.3726 -2.1022
  341MOL0     H46027   0.777   4.385   8.746 -1.9764  1.5088  1.0960
  341MOL0     H46028   0.728   4.287   8.876 -1.8538  1.3591  0.4834
  341MOL0     H46029   1.009   4.399   8.854  0.1693  2.1005  1.3757
  341MOL0     H46030   0.922   4.335   9.005 -3.6292  0.4110 -1.5358
  341MOL0     H46031   1.023   3.973   8.898 -0.4319  0.7973  1.1651
  341MOL0     H46032   0.385   4.826   8.978  1.2640 -1.1775 -0.6617
  341MOL0     H46033   0.177   4.941   9.029 -3.4701  2.5233  1.5618
  341MOL0     H46034   0.152   5.020   8.874  0.4613 -1.3755 -3.5160
  341MOL0     H46035   0.033   4.907   8.943  0.8710 -2.1245  2.0546
  342MOL0     O46036   9.236   7.379   4.627 -0.3359 -0.1308 -0.4361
  342MOL0     C46037   9.356   7.351   4.618  0.4433  0.0682  0.2023
  342MOL0     O46038   9.409   7.223   4.640 -0.7868  0.2425  0.0360
  342MOL0     C46039   9.335   7.116   4.701  0.5963 -0.8025  1.3841
  342MOL0     C46040   9.199   7.087   4.667  0.3628 -0.7280 -0.1858
  342MOL0     C46041   9.144   6.966   4.710 -0.1238  0.1332 -0.0862
  342MOL0     C46042   9.216   6.880   4.782  0.0528 -0.0401 -0.3283
  342MOL0     O46043   9.163   6.754   4.812 -0.4209 -0.3103 -0.0518
  342MOL0     C46044   9.159   6.713   4.958  0.2431 -0.5167 -1.3819
  342MOL0     C46045   9.123   6.566   4.959  0.3403 -0.5545 -0.4896
  342MOL0     C46046   9.010   6.524   4.866 -0.1122 -0.2342 -0.4277
  342MOL0     C46047   8.941   6.386   4.889 -0.7018 -0.3514  0.3157
  342MOL0     C46048   8.824   6.405   4.990 -0.2108 -0.8761  0.4816
  342MOL0     C46049   8.778   6.263   5.025  0.2552  0.0507 -1.2933
  342MOL0     C46050   8.878   6.171   5.089 -0.3250  0.3737  0.5499
  342MOL0     C46051   8.936   6.234   5.213  0.6141 -0.5153  0.1684
  342MOL0     N46052   9.055   6.173   5.274  0.2579  0.1942  0.1705
  342MOL0     C46053   9.185   6.189   5.235 -0.5710 -0.2502  0.0881
  342MOL0     C46054   9.258   6.122   5.321  0.4606 -0.0663 -0.1321
  342MOL0     C46055   9.402   6.086   5.319  0.3787  0.6788  0.1495
  342MOL0     C46056   9.451   5.998   5.438  0.6409 -0.5938 -0.0204
  342MOL0     C46057   9.578   5.924   5.409 -0.0704  0.3436 -0.3125
  342MOL0     C46058   9.692   6.022   5.424 -0.4981 -0.0561 -0.1716
  342MOL0     O46059   9.722   6.092   5.297  0.0424  0.0225  0.3452
  342MOL0     C46060   9.825   6.035   5.223  0.6775 -0.0082  0.5590
  342MOL0     C46061   9.902   5.923   5.247 -0.4915  0.2336 -0.8147
  342MOL0     C46062  10.008   5.899   5.162 -0.0538 -0.2091  0.0148
  342MOL0     C46063  10.035   5.977   5.048 -1.0289 -0.0976  1.4341
  342MOL0     C46064  10.152   5.945   4.966  0.0626  0.4772  0.2692
  342MOL0     O46065  10.183   5.815   4.957 -0.6576  0.7946 -0.2304
  342MOL0     C46066  10.266   5.778   4.853  0.8523 -0.5304 -0.2593
  342MOL0     C46067  10.222   5.808   4.730 -0.0995  0.1275  1.3243
  342MOL0     C46068  10.292   5.744   4.627 -0.0517  0.0658  0.4799
  342MOL0     C46069  10.398   5.657   4.648  0.3200  0.4456  0.6001
  342MOL0     O46070  10.458   5.593   4.543  0.2620  0.1337 -0.3288
  342MOL0     C46071  10.360   5.535   4.448  0.9784  0.1031 -0.0720
  342MOL0     C46072  10.443   5.463   4.340 -0.8022  0.2357 -0.1870
  342MOL0     C46073  10.377   5.327   4.301 -0.1466  0.8679 -0.4638
  342MOL0     C46074  10.423   5.216   4.399  0.2679  0.3660 -0.3800
  342MOL0     C46075  10.392   5.070   4.355  0.1367 -0.5099 -0.3799
  342MOL0     C46076  10.465   4.979   4.449  0.0100 -0.0590  0.7489
  342MOL0     C46077  10.412   4.841   4.429 -0.5101 -0.0232 -0.5100
  342MOL0     C46078  10.496   4.715   4.469  0.5167  0.6933 -0.0432
  342MOL0    Cl46079  10.669   4.723   4.420 -0.3938  0.0491  0.3456
  342MOL0     C46080  10.434   5.625   4.776 -0.3022  0.0841  0.4685
  342MOL0     C46081  10.371   5.691   4.880 -0.0312  0.0631  0.6884
  342MOL0     O46082  10.215   6.039   4.922 -0.1435 -0.1220  0.2147
  342MOL0     C46083   9.962   6.099   5.033 -1.3725  0.9877 -1.0020
  342MOL0     C46084   9.852   6.116   5.114 -0.1215  0.6508  0.5834
  342MOL0     N46085   9.180   6.073   5.420 -0.5643  0.2137  0.4399
  342MOL0     N46086   9.055   6.100   5.392  0.5054 -0.4043 -0.2229
  342MOL0     C46087   9.344   6.916   4.834 -0.4316  0.4860 -0.2028
  342MOL0     C46088   9.409   7.034   4.783  0.6819  0.9246  0.0216
  342MOL0     C46089   9.455   7.458   4.590 -0.4111  0.1052 -0.5711
  342MOL0     C46090   9.409   7.589   4.549 -0.5944  0.4331 -0.3030
  342MOL0     C46091   9.496   7.696   4.540  0.2523  0.1932  0.9252
  342MOL0     C46092   9.630   7.692   4.567 -0.1481 -0.1561  0.1095
  342MOL0     O46093   9.699   7.808   4.556 -1.1518 -0.5223  0.2413
  342MOL0     C46094   9.842   7.806   4.554 -0.1392 -0.4337 -0.1553
  342MOL0     C46095   9.889   7.947   4.518  0.3910 -0.2397  0.6837
  342MOL0     C46096   9.853   8.038   4.626  0.5320 -0.1244 -0.5644
  342MOL0     C46097   9.755   8.143   4.576  0.0437 -0.5909 -0.5358
  342MOL0     C46098   9.734   8.247   4.675 -0.6964  0.0627 -0.1460
  342MOL0     C46099   9.706   8.328   4.761  0.0701  1.1027  0.7110
  342MOL0     C46100   9.672   7.568   4.609 -0.3152  0.1256 -0.3204
  342MOL0     C46101   9.595   7.452   4.614 -0.2680 -0.6505  0.3164
  342MOL0     C46102   9.664   7.329   4.654 -0.3984  1.2089  0.6062
  342MOL0     H46103   9.144   7.162   4.612  1.5548  0.4701  0.1930
  342MOL0     H46104   9.040   6.937   4.698  0.0225 -0.0017 -1.1853
  342MOL0     H46105   9.253   6.742   5.006 -1.2783  2.6475  0.0650
  342MOL0     H46106   9.089   6.766   5.024 -0.2320 -1.8433 -0.8029
  342MOL0     H46107   9.108   6.544   5.065  1.3234  0.6475 -0.0679
  342MOL0     H46108   9.204   6.504   4.919  1.5827  1.2062 -0.8094
  342MOL0     H46109   9.053   6.524   4.766 -2.6456 -0.8937 -1.5912
  342MOL0     H46110   8.935   6.602   4.855  0.1294 -0.3106 -3.4160
  342MOL0     H46111   8.913   6.346   4.791  2.8216  0.1659 -1.0375
  342MOL0     H46112   9.017   6.322   4.934  0.1724  0.8678  0.6409
  342MOL0     H46113   8.847   6.457   5.083 -2.5551 -2.1056  1.8518
  342MOL0     H46114   8.745   6.467   4.946  0.5819 -0.6709 -0.7177
  342MOL0     H46115   8.701   6.285   5.100  1.5675  2.6346 -0.5690
  342MOL0     H46116   8.730   6.210   4.942 -0.7478 -1.4282  0.1725
  342MOL0     H46117   8.957   6.139   5.019 -2.0910 -3.6558  0.1119
  342MOL0     H46118   8.843   6.072   5.120  2.4871 -1.3827 -1.3145
  342MOL0     H46119   8.958   6.339   5.193 -4.3687  1.0185  1.3027
  342MOL0     H46120   8.847   6.230   5.277 -1.5848 -1.4915 -2.7305
  342MOL0     H46121   9.230   6.244   5.153  0.7526  0.2676  1.1270
  342MOL0     H46122   9.420   6.034   5.225  2.9217  0.4530  0.6810
  342MOL0     H46123   9.452   6.183   5.316 -1.1697  1.5509  1.1261
  342MOL0     H46124   9.458   6.063   5.526  3.1550 -0.4763 -0.2327
  342MOL0     H46125   9.381   5.918   5.463 -0.9894  0.5132 -0.8294
  342MOL0     H46126   9.567   5.874   5.313 -1.5450 -3.1946  1.5123
  342MOL0     H46127   9.592   5.839   5.476 -2.9710 -0.2876 -0.3716
  342MOL0     H46128   9.781   5.972   5.462  0.0482 -0.5512 -2.0045
  342MOL0     H46129   9.670   6.092   5.505  0.3264 -0.7345  0.6461
  342MOL0     H46130   9.879   5.855   5.329 -0.1578 -0.4248 -1.2606
  342MOL0     H46131  10.066   5.810   5.186  1.2914  0.8362  0.7672
  342MOL0     H46132  10.139   5.876   4.717 -0.6872 -0.2077  3.0582
  342MOL0     H46133  10.268   5.770   4.524  2.0358  1.8048  0.3792
  342MOL0     H46134  10.312   5.458   4.508  3.2628 -0.7798  0.7512
  342MOL0     H46135  10.287   5.605   4.405 -1.4777 -1.3328  1.5181
  342MOL0     H46136  10.471   5.526   4.255  0.7736 -0.7104 -0.4116
  342MOL0     H46137  10.545   5.441   4.371 -0.3135 -0.4515 -2.1244
  342MOL0     H46138  10.269   5.337   4.292 -0.4155  0.2584  1.6545
  342MOL0     H46139  10.415   5.298   4.203  1.0303 -0.5262  0.3599
  342MOL0     H46140  10.387   5.237   4.500 -1.0856  0.9301 -0.9512
  342MOL0     H46141  10.526   5.239   4.429  0.5345  0.7950 -1.5768
  342MOL0     H46142  10.420   5.058   4.250  4.3890 -0.4599  0.5839
  342MOL0     H46143  10.285   5.051   4.368 -0.1314  1.4952  0.6804
  342MOL0     H46144  10.572   4.987   4.429 -0.5481  0.1570 -2.7490
  342MOL0     H46145  10.445   5.007   4.553 -0.5481  0.3197  0.5469
  342MOL0     H46146  10.372   4.835   4.328 -3.4884 -2.0221  0.6248
  342MOL0     H46147  10.328   4.823   4.497 -0.9186 -0.5888 -1.1546
  342MOL0     H46148  10.512   4.711   4.578  3.2534  1.3180 -0.3502
  342MOL0     H46149  10.452   4.619   4.439  2.0726 -1.1742  3.0212
  342MOL0     H46150  10.511   5.555   4.808  2.3115  3.2811  1.8060
  342MOL0     H46151  10.383   5.661   4.984  0.6416 -2.1848  0.0204
  342MOL0     H46152   9.996   6.167   4.955  2.4511  0.7172  0.2022
  342MOL0     H46153   9.797   6.209   5.104 -1.1419 -0.0299 -0.4540
  342MOL0     H46154   9.403   6.840   4.885 -0.5591 -0.1904 -1.0467
  342MOL0     H46155   9.512   7.056   4.808  0.6349  0.1560  0.9701
  342MOL0     H46156   9.302   7.598   4.537 -0.9431 -2.8305 -0.5839
  342MOL0     H46157   9.451   7.788   4.504 -2.2045 -1.1640  0.2784
  342MOL0     H46158   9.881   7.748   4.471 -0.7807 -0.2164 -0.6198
  342MOL0     H46159   9.877   7.775   4.653 -0.5496 -0.0502  0.1195
  342MOL0     H46160   9.834   7.961   4.424 -1.4485  2.2218  2.0192
  342MOL0     H46161   9.998   7.933   4.513  0.3834 -0.3503  0.8363
  342MOL0     H46162   9.938   8.092   4.670  0.5966 -1.4099  1.0025
  342MOL0     H46163   9.801   7.997   4.713  1.0430  0.9899  0.2872
  342MOL0     H46164   9.795   8.178   4.481  2.0086  0.9586  0.7744
  342MOL0     H46165   9.656   8.108   4.546  0.6596 -1.0006 -2.1786
  342MOL0     H46166   9.690   8.411   4.827 -1.7572  0.7807  0.7052
  342MOL0     H46167   9.778   7.567   4.634 -0.0611  0.7943 -1.3299
  342MOL0     H46168   9.645   7.240   4.593 -0.6336  1.1529  0.7596
  342MOL0     H46169   9.773   7.343   4.653 -0.0007 -1.3878  0.1510
  342MOL0     H46170   9.625   7.313   4.755 -2.7338  0.2370 -0.3780
  343MOL0     O46171   3.569  10.426   2.318 -0.0108 -0.2336 -0.1592
  343MOL0     C46172   3.557  10.507   2.229 -0.2203 -0.4648 -0.4625
  343MOL0     O46173   3.642  10.613   2.196  0.3032  0.4434 -0.5605
  343MOL0     C46174   3.748  10.641   2.283  0.2544 -0.2090  0.9000
  343MOL0     C46175   3.874  10.649   2.236 -0.0173 -0.3749 -0.1681
  343MOL0     C46176   3.986  10.674   2.312  0.1951  0.3592 -0.3275
  343MOL0     C46177   3.966  10.709   2.446 -0.5785  0.1531  0.7780
  343MOL0     O46178   4.085  10.736   2.511 -0.9379 -0.9027 -0.3443
  343MOL0     C46179   4.081  10.832   2.616  0.8275 -0.3846  0.0705
  343MOL0     C46180   4.211  10.892   2.652  0.2839 -0.9463  1.0574
  343MOL0     C46181   4.311  10.916   2.542 -0.0220  0.4067  0.0864
  343MOL0     C46182   4.279  11.017   2.423 -0.2120  0.0187 -0.1183
  343MOL0     C46183   4.413  11.069   2.359 -0.2082 -0.4544 -0.4689
  343MOL0     C46184   4.396  11.127   2.226  0.2671 -0.2437  0.6730
  343MOL0     C46185   4.404  11.041   2.110 -1.2146 -0.1195  0.7296
  343MOL0     C46186   4.427  11.122   1.979 -0.2194  0.1575  0.0472
  343MOL0     N46187   4.390  11.040   1.854 -0.3880 -0.4431  0.4758
  343MOL0     C46188   4.475  11.013   1.749 -0.5088 -1.3302 -0.3389
  343MOL0     C46189   4.388  10.968   1.650 -0.5251 -0.4117  0.2479
  343MOL0     C46190   4.414  10.932   1.507 -0.3434 -0.3846  0.1148
  343MOL0     C46191   4.454  11.066   1.441  0.4805 -0.3854  1.3265
  343MOL0     C46192   4.392  11.080   1.299 -0.3089 -0.2664  0.9278
  343MOL0     C46193   4.244  11.104   1.302 -0.3458 -0.3189 -0.3163
  343MOL0     O46194   4.206  11.196   1.190 -0.1489  0.2185  0.3283
  343MOL0     C46195   4.095  11.265   1.186 -0.3330  0.2746 -0.0623
  343MOL0     C46196   4.016  11.308   1.294  0.0105  0.0116  1.2281
  343MOL0     C46197   3.898  11.378   1.271 -0.0706 -0.5539 -0.3473
  343MOL0     C46198   3.869  11.424   1.142 -0.0868 -0.2977  0.1307
  343MOL0     C46199   3.744  11.500   1.122 -0.8155 -0.2474 -0.3632
  343MOL0     O46200   3.724  11.556   0.990  0.7723 -0.0316 -0.3220
  343MOL0     C46201   3.601  11.613   0.975 -0.4973 -0.5359 -1.1951
  343MOL0     C46202   3.500  11.541   0.928  0.4361  0.4479  0.3652
  343MOL0     C46203   3.376  11.606   0.903 -0.1457 -0.0417  0.8179
  343MOL0     C46204   3.345  11.729   0.944 -0.6866  0.2474 -0.2936
  343MOL0     O46205   3.218  11.788   0.930 -0.3122 -0.1544  0.5925
  343MOL0     C46206   3.172  11.898   1.016  1.0996  0.0847  0.5552
  343MOL0     C46207   3.202  12.014   0.932 -0.3358 -0.3216  0.0244
  343MOL0     C46208   3.136  12.140   0.974  1.1893 -0.1043 -0.3469
  343MOL0     C46209   2.986  12.144   0.929  0.7101  0.2206  0.9468
  343MOL0     C46210   2.898  12.244   1.007 -0.8512 -0.0269  0.1562
  343MOL0     C46211   2.951  12.389   1.007 -0.4429 -0.1246  0.0977
  343MOL0     C46212   2.875  12.501   1.077 -0.0535 -0.3165  0.2592
  343MOL0     C46213   2.920  12.645   1.046 -0.1200 -0.4183 -0.0683
  343MOL0    Cl46214   2.978  12.712   1.201 -0.3967 -0.4113 -0.0317
  343MOL0     C46215   3.450  11.801   1.014  0.7404 -0.1439  0.3102
  343MOL0     C46216   3.578  11.749   1.021 -0.1824  0.6614 -0.6204
  343MOL0     O46217   3.662  11.509   1.209  0.1299  0.8560 -0.5455
  343MOL0     C46218   3.955  11.390   1.036  0.7089 -0.1389 -0.0092
  343MOL0     C46219   4.063  11.311   1.053  0.2132  0.2694 -0.9159
  343MOL0     N46220   4.258  10.960   1.697  0.0819  0.4004 -0.8396
  343MOL0     N46221   4.260  11.002   1.821 -0.4175 -0.2665 -0.4200
  343MOL0     C46222   3.837  10.717   2.493 -0.4328  0.4155  0.1973
  343MOL0     C46223   3.728  10.676   2.420 -0.4485 -0.3020  0.5983
  343MOL0     C46224   3.450  10.496   2.129  0.1007  0.3179  0.0058
  343MOL0     C46225   3.432  10.603   2.027 -0.8124  0.2105 -0.1748
  343MOL0     C46226   3.333  10.586   1.930 -0.6196  0.0985 -0.1134
  343MOL0     C46227   3.243  10.481   1.943 -0.8000 -0.6669  0.0787
  343MOL0     O46228   3.139  10.468   1.854  0.2199 -0.0389  0.6869
  343MOL0     C46229   3.080  10.577   1.795 -0.7598 -0.4046 -0.0773
  343MOL0     C46230   2.945  10.532   1.744 -0.8392  0.3124 -0.7415
  343MOL0     C46231   2.953  10.433   1.621  0.3271 -0.4020  0.0590
  343MOL0     C46232   2.821  10.351   1.623 -0.4218  0.7221  0.2291
  343MOL0     C46233   2.824  10.228   1.533 -0.1588 -0.5684  0.5057
  343MOL0     C46234   2.827  10.123   1.479 -0.1783 -0.4679  0.2231
  343MOL0     C46235   3.262  10.376   2.024 -0.7570 -0.2149  0.0475
  343MOL0     C46236   3.358  10.384   2.122  0.4075 -0.0203 -0.8440
  343MOL0     C46237   3.358  10.259   2.208  0.5554 -0.7530 -0.9780
  343MOL0     H46238   3.882  10.615   2.133 -0.1860 -0.0427 -0.2930
  343MOL0     H46239   4.086  10.654   2.277  0.3874 -1.0635  0.9423
  343MOL0     H46240   4.028  10.924   2.591 -0.5285 -0.5057  2.2603
  343MOL0     H46241   4.027  10.785   2.698 -3.2346  1.0051 -1.5852
  343MOL0     H46242   4.271  10.828   2.718  2.6593 -0.9333 -0.9288
  343MOL0     H46243   4.202  10.982   2.713  3.5161  0.2569 -0.0312
  343MOL0     H46244   4.345  10.828   2.486  1.4247  1.8849 -1.4761
  343MOL0     H46245   4.406  10.941   2.591  0.4360  1.9427 -1.4971
  343MOL0     H46246   4.213  10.965   2.353  0.2938 -1.9578  0.8173
  343MOL0     H46247   4.236  11.106   2.471 -3.3716 -0.9689 -0.8860
  343MOL0     H46248   4.457  11.145   2.424  2.6910 -0.0643 -2.6526
  343MOL0     H46249   4.491  10.993   2.344 -2.6980 -2.6396 -3.8301
  343MOL0     H46250   4.311  11.197   2.220  1.5578  1.2323 -2.5537
  343MOL0     H46251   4.473  11.203   2.209  1.2212 -0.9669  1.6434
  343MOL0     H46252   4.315  10.983   2.088 -2.1218  1.4158  0.1597
  343MOL0     H46253   4.490  10.976   2.125 -0.6508  0.4534  0.0522
  343MOL0     H46254   4.360  11.208   1.976  1.5178  1.5413 -2.3136
  343MOL0     H46255   4.529  11.159   1.964  2.1954 -5.9894 -1.7925
  343MOL0     H46256   4.575  11.050   1.730 -1.1045  0.3804 -0.3277
  343MOL0     H46257   4.492  10.855   1.509  0.2852  0.1831 -0.9904
  343MOL0     H46258   4.333  10.894   1.445  0.4708 -0.0701 -1.1896
  343MOL0     H46259   4.412  11.150   1.496 -1.7887 -0.0419 -0.7513
  343MOL0     H46260   4.563  11.075   1.432  0.8553 -3.5792  1.6359
  343MOL0     H46261   4.411  10.994   1.234 -1.2204 -1.4405  2.1479
  343MOL0     H46262   4.436  11.172   1.260 -0.7448 -0.2006  0.5898
  343MOL0     H46263   4.227  11.154   1.398  3.9093  3.5631 -1.2097
  343MOL0     H46264   4.191  11.010   1.286  1.8819 -1.2928 -2.6548
  343MOL0     H46265   4.049  11.278   1.393  2.6783 -0.4290  0.2987
  343MOL0     H46266   3.834  11.411   1.353 -1.2702 -0.0802 -1.4453
  343MOL0     H46267   3.511  11.435   0.904  5.1339  1.2686 -2.5176
  343MOL0     H46268   3.293  11.546   0.866  0.0206  1.7971 -2.9822
  343MOL0     H46269   3.066  11.876   1.023  0.4519  0.5146 -4.4961
  343MOL0     H46270   3.221  11.899   1.115 -0.5100 -3.3364  1.5277
  343MOL0     H46271   3.312  12.015   0.923 -0.4047 -0.8341 -1.1397
  343MOL0     H46272   3.167  11.991   0.831 -0.9225  2.8261 -0.5920
  343MOL0     H46273   3.148  12.137   1.083  1.5324  0.7544 -0.3538
  343MOL0     H46274   3.192  12.230   0.945 -0.9044  1.3120 -0.2791
  343MOL0     H46275   2.940  12.045   0.940 -0.5824  0.7928  0.9416
  343MOL0     H46276   2.986  12.182   0.827  1.8578  1.6462  1.4582
  343MOL0     H46277   2.888  12.216   1.113  2.2148  1.1037  0.8383
  343MOL0     H46278   2.795  12.232   0.970 -1.4465 -0.6032  1.8936
  343MOL0     H46279   3.048  12.392   1.058 -0.7798  1.1915  0.7253
  343MOL0     H46280   2.974  12.419   0.905 -2.8726  0.9983 -0.1981
  343MOL0     H46281   2.880  12.478   1.184 -1.0455 -2.8665 -0.1507
  343MOL0     H46282   2.769  12.490   1.049 -1.0669  1.9179  2.8792
  343MOL0     H46283   2.996  12.647   0.968 -1.7505  1.3764 -1.7231
  343MOL0     H46284   2.842  12.708   1.002  0.4428  1.1688  1.1031
  343MOL0     H46285   3.420  11.894   1.062 -3.7821 -1.8894  1.3776
  343MOL0     H46286   3.654  11.800   1.080 -1.3137 -1.1825  2.7366
  343MOL0     H46287   3.938  11.424   0.934  2.3842  0.4876 -0.1178
  343MOL0     H46288   4.113  11.290   0.959 -2.6098  3.8451 -3.5091
  343MOL0     H46289   3.817  10.744   2.596  3.3677  1.1619  0.9000
  343MOL0     H46290   3.640  10.662   2.482 -1.4050 -1.3878 -0.9326
  343MOL0     H46291   3.498  10.690   2.028  0.2080 -0.5439  0.5852
  343MOL0     H46292   3.314  10.660   1.853 -5.5195 -0.9105 -0.1937
  343MOL0     H46293   3.134  10.625   1.713  1.7665 -2.1525  0.4572
  343MOL0     H46294   3.054  10.650   1.872 -1.9789 -0.1017 -0.7490
  343MOL0     H46295   2.899  10.627   1.716  1.8269  0.9807 -3.2663
  343MOL0     H46296   2.888  10.483   1.824 -4.0971 -0.4486 -3.3257
  343MOL0     H46297   3.041  10.368   1.630 -0.7284 -2.0506 -0.9113
  343MOL0     H46298   2.958  10.488   1.526 -1.2104  0.6879  0.5781
  343MOL0     H46299   2.785  10.328   1.724  1.7979 -3.7031  0.2706
  343MOL0     H46300   2.747  10.416   1.577  0.5201 -0.6476 -3.6270
  343MOL0     H46301   2.838  10.033   1.421 -2.1083  2.2253 -4.9735
  343MOL0     H46302   3.197  10.289   2.022 -1.7504  0.3900  2.1507
  343MOL0     H46303   3.462  10.224   2.212  1.7112  2.3206 -1.2503
  343MOL0     H46304   3.319  10.275   2.309 -1.0841 -0.8319 -1.5782
  343MOL0     H46305   3.290  10.186   2.163 -1.5580  1.5217 -1.7403
  344MOL0     O46306   9.685   3.478   5.894  0.5954 -0.6160 -0.4455
  344MOL0     C46307   9.706   3.492   6.015 -0.3002  0.2939 -0.1487
  344MOL0     O46308   9.684   3.609   6.080  0.1793 -0.1721 -0.2136
  344MOL0     C46309   9.640   3.705   5.999 -0.1677  0.1337  0.1648
  344MOL0     C46310   9.744   3.781   5.935  0.3800 -0.7411  0.1345
  344MOL0     C46311   9.717   3.902   5.865  0.4249 -0.4253  0.5673
  344MOL0     C46312   9.580   3.937   5.848  0.1155  0.0178  0.7805
  344MOL0     O46313   9.546   4.047   5.782 -0.6534  0.0210 -0.1139
  344MOL0     C46314   9.516   4.013   5.642 -0.3255 -0.1445  0.1903
  344MOL0     C46315   9.454   4.141   5.569 -0.0055  1.0525 -0.3688
  344MOL0     C46316   9.389   4.127   5.432 -0.3854  0.0994 -0.5193
  344MOL0     C46317   9.242   4.115   5.431  0.3372  0.1806 -0.3286
  344MOL0     C46318   9.174   4.139   5.291 -0.0309 -0.1951 -0.1715
  344MOL0     C46319   9.025   4.110   5.296  0.6807  0.2705 -0.1535
  344MOL0     C46320   8.940   4.151   5.174 -0.0688  0.4190  0.6353
  344MOL0     C46321   8.944   4.313   5.159  0.4338 -0.3137 -0.0050
  344MOL0     N46322   8.871   4.375   5.263 -0.8527 -0.2933  0.0573
  344MOL0     C46323   8.742   4.338   5.299  0.7553 -0.0112 -0.6259
  344MOL0     C46324   8.732   4.372   5.430  0.4121 -0.0920 -0.5844
  344MOL0     C46325   8.613   4.350   5.518  0.3986 -1.1878  0.9290
  344MOL0     C46326   8.491   4.427   5.457  0.2529  0.3944 -0.0622
  344MOL0     C46327   8.374   4.431   5.551  0.6974 -1.2525  0.0034
  344MOL0     C46328   8.263   4.519   5.485 -0.3569 -0.7281 -0.0566
  344MOL0     O46329   8.289   4.660   5.510 -0.8051 -0.2352 -0.4962
  344MOL0     C46330   8.214   4.751   5.433 -0.5468 -0.8309 -0.2062
  344MOL0     C46331   8.258   4.879   5.414 -0.7318 -0.6919  1.6349
  344MOL0     C46332   8.196   4.971   5.331  0.7159 -0.7244 -0.1209
  344MOL0     C46333   8.070   4.932   5.270 -0.3665 -0.1461 -0.3739
  344MOL0     C46334   7.994   5.018   5.180 -1.2961  0.5832 -0.3334
  344MOL0     O46335   7.937   4.955   5.085 -0.3022 -0.1145 -0.1008
  344MOL0     C46336   7.909   4.994   4.961 -0.6708 -1.3177  0.0728
  344MOL0     C46337   7.824   4.916   4.880 -0.4760  0.4648 -0.9653
  344MOL0     C46338   7.778   4.963   4.759  0.5516  0.3267  0.0011
  344MOL0     C46339   7.826   5.092   4.708 -0.1315  0.7670 -0.4026
  344MOL0     O46340   7.793   5.149   4.587  0.1957  0.4959  0.1514
  344MOL0     C46341   7.675   5.114   4.529  0.3129  0.2283  1.4287
  344MOL0     C46342   7.652   5.192   4.406 -0.0396 -0.0078  0.5826
  344MOL0     C46343   7.670   5.346   4.422  0.2073 -0.0459 -0.4234
  344MOL0     C46344   7.649   5.436   4.297 -0.7994 -0.4104  0.2302
  344MOL0     C46345   7.657   5.574   4.350 -0.5370  0.4049 -0.0965
  344MOL0     C46346   7.638   5.667   4.245 -0.1958 -0.1106 -0.4682
  344MOL0     C46347   7.656   5.810   4.308 -0.1802  0.4666  0.2902
  344MOL0     C46348   7.646   5.915   4.202  0.5932 -0.2584 -0.5712
  344MOL0    Cl46349   7.658   6.082   4.263 -0.4675 -0.1495 -0.0162
  344MOL0     C46350   7.928   5.154   4.772 -0.2997  0.0090  0.5732
  344MOL0     C46351   7.969   5.110   4.898  0.5280 -0.2618 -0.0644
  344MOL0     O46352   7.991   5.141   5.193  0.2550 -0.0690 -1.4351
  344MOL0     C46353   8.029   4.803   5.280 -0.4094  0.4663  0.9517
  344MOL0     C46354   8.093   4.710   5.361 -0.0753 -0.0594 -0.4662
  344MOL0     N46355   8.841   4.437   5.468 -0.0084 -0.0729 -0.3870
  344MOL0     N46356   8.918   4.449   5.364  0.5158 -0.7604 -0.4131
  344MOL0     C46357   9.478   3.862   5.907  0.1886  0.9246 -1.2571
  344MOL0     C46358   9.505   3.746   5.977 -0.4118 -0.3621  0.0012
  344MOL0     C46359   9.773   3.383   6.085  1.1322 -0.6261 -0.5024
  344MOL0     C46360   9.852   3.420   6.199  0.1352  0.4230 -0.0333
  344MOL0     C46361   9.906   3.327   6.292  0.1571  0.1698  0.2583
  344MOL0     C46362   9.880   3.182   6.273 -0.2076  0.6356  0.6703
  344MOL0     O46363   9.937   3.091   6.362  1.0250 -0.6767  0.3140
  344MOL0     C46364   9.905   2.955   6.339  0.3834  2.2127 -0.7151
  344MOL0     C46365   9.995   2.872   6.426 -0.0712  0.6826  0.4422
  344MOL0     C46366   9.939   2.863   6.566  0.5365  0.0656  0.5051
  344MOL0     C46367  10.021   2.787   6.673  0.5044  0.3575 -0.0600
  344MOL0     C46368  10.024   2.647   6.640 -0.4638  0.5589  0.6976
  344MOL0     C46369   9.997   2.533   6.601 -0.2397  0.1621  0.0463
  344MOL0     C46370   9.790   3.145   6.166  0.0782 -0.8951 -0.5062
  344MOL0     C46371   9.742   3.244   6.073  1.6252 -0.1266  0.6652
  344MOL0     C46372   9.641   3.196   5.961 -0.3539  0.0110  0.9943
  344MOL0     H46373   9.843   3.744   5.959 -0.9387 -4.7737  0.1241
  344MOL0     H46374   9.796   3.965   5.824 -0.6107  0.5116 -0.0511
  344MOL0     H46375   9.603   3.986   5.581 -0.9787 -1.0907 -0.3451
  344MOL0     H46376   9.437   3.938   5.654  0.9915 -1.3640  1.7534
  344MOL0     H46377   9.539   4.208   5.554 -0.7830  3.1416  3.4278
  344MOL0     H46378   9.392   4.183   5.649  0.0856  0.0042  0.2674
  344MOL0     H46379   9.429   4.043   5.375  0.8404 -1.5592  2.5207
  344MOL0     H46380   9.419   4.219   5.382  0.4379  0.5244  0.7002
  344MOL0     H46381   9.210   4.021   5.477  2.2167 -0.6076 -0.5303
  344MOL0     H46382   9.193   4.182   5.503 -0.6963 -2.9352  2.1295
  344MOL0     H46383   9.193   4.242   5.260  2.9858 -0.6578 -0.1240
  344MOL0     H46384   9.217   4.077   5.211 -0.8166 -3.0021  1.4360
  344MOL0     H46385   9.005   4.003   5.290 -2.3311  0.8231 -4.1773
  344MOL0     H46386   8.986   4.152   5.389  0.1292 -0.3863 -0.0787
  344MOL0     H46387   8.840   4.108   5.187  0.6674 -1.5220  0.1890
  344MOL0     H46388   8.977   4.097   5.086  0.1342  1.7449 -0.1269
  344MOL0     H46389   9.041   4.362   5.161  0.6559 -0.7377 -0.1437
  344MOL0     H46390   8.886   4.340   5.070 -0.0146  0.3299  0.4722
  344MOL0     H46391   8.677   4.281   5.233  1.3508  1.4904 -2.6241
  344MOL0     H46392   8.587   4.244   5.512 -0.2969 -1.0080  0.7109
  344MOL0     H46393   8.629   4.380   5.622 -1.0215 -1.0989  1.1374
  344MOL0     H46394   8.510   4.535   5.455 -2.9649  1.0413 -0.3980
  344MOL0     H46395   8.457   4.386   5.362 -0.8702 -1.9452  1.2870
  344MOL0     H46396   8.412   4.467   5.647 -0.7995 -0.9507  0.4981
  344MOL0     H46397   8.334   4.330   5.560 -4.6257  0.6090  0.3689
  344MOL0     H46398   8.165   4.489   5.523 -1.3150  0.4853 -1.4601
  344MOL0     H46399   8.260   4.505   5.377  2.0887 -1.0710 -0.1460
  344MOL0     H46400   8.354   4.908   5.456  1.0723 -0.7838 -2.0715
  344MOL0     H46401   8.236   5.068   5.304  1.0087 -0.0796  2.4222
  344MOL0     H46402   7.806   4.813   4.908  3.3705 -0.0904 -0.0657
  344MOL0     H46403   7.705   4.906   4.702  0.0006 -0.4358  1.4133
  344MOL0     H46404   7.669   5.009   4.496  0.6968  0.5475  0.2925
  344MOL0     H46405   7.600   5.136   4.604  1.2029  0.4730  2.2690
  344MOL0     H46406   7.718   5.164   4.323  0.7613  1.4978  0.6648
  344MOL0     H46407   7.550   5.168   4.375  0.7420 -4.2582  0.6774
  344MOL0     H46408   7.590   5.375   4.492 -1.1123 -1.2223 -1.3730
  344MOL0     H46409   7.765   5.377   4.466  0.2751  0.0505 -0.6373
  344MOL0     H46410   7.556   5.415   4.245 -0.5624 -0.4112 -0.2010
  344MOL0     H46411   7.728   5.430   4.222 -0.0404  0.4375  0.9301
  344MOL0     H46412   7.754   5.587   4.398 -1.0999 -0.8142  1.4460
  344MOL0     H46413   7.589   5.592   4.433  1.5015  2.8775  1.1926
  344MOL0     H46414   7.714   5.655   4.167  0.2553 -3.4258  0.3252
  344MOL0     H46415   7.537   5.666   4.203 -0.7632 -1.6985  0.8345
  344MOL0     H46416   7.756   5.823   4.351 -0.5728 -3.9731  3.2601
  344MOL0     H46417   7.585   5.817   4.391  1.2007  0.6552  1.4955
  344MOL0     H46418   7.717   5.912   4.120  1.2346 -0.2321 -0.0282
  344MOL0     H46419   7.550   5.900   4.151  1.7152  1.0665 -3.2073
  344MOL0     H46420   7.968   5.242   4.724 -0.9815 -0.4168 -0.8361
  344MOL0     H46421   8.038   5.174   4.953 -1.6841  1.7223  0.5864
  344MOL0     H46422   7.940   4.761   5.233 -0.8637 -0.3118  2.4438
  344MOL0     H46423   8.040   4.619   5.388  1.6792 -0.7058  1.0180
  344MOL0     H46424   9.383   3.912   5.893  1.0584  2.7200 -1.1520
  344MOL0     H46425   9.426   3.691   6.028  0.8304 -1.5810  0.6607
  344MOL0     H46426   9.879   3.524   6.216 -2.0052  0.6408  2.7963
  344MOL0     H46427   9.965   3.354   6.379 -1.1294  5.0191 -0.1030
  344MOL0     H46428   9.924   2.929   6.234 -2.5739  1.4888 -1.1780
  344MOL0     H46429   9.801   2.937   6.369  0.9598  2.5214  1.5842
  344MOL0     H46430  10.096   2.914   6.428  0.0606  0.4420  3.0093
  344MOL0     H46431  10.005   2.770   6.386 -1.0826 -0.5969  3.1578
  344MOL0     H46432   9.836   2.829   6.554  0.0662  1.9872 -1.6239
  344MOL0     H46433   9.930   2.965   6.602  1.2582 -0.1249  1.2630
  344MOL0     H46434  10.123   2.824   6.686  1.3355 -0.7887 -2.7006
  344MOL0     H46435   9.967   2.809   6.766  1.3270  1.0412  0.2693
  344MOL0     H46436   9.984   2.436   6.556 -4.4085  0.1577  0.9350
  344MOL0     H46437   9.756   3.043   6.150  1.3678 -1.1956 -1.5878
  344MOL0     H46438   9.594   3.098   5.976  0.3349 -0.8838 -2.0547
  344MOL0     H46439   9.562   3.272   5.961  0.7969  1.3841 -2.6291
  344MOL0     H46440   9.687   3.194   5.862  0.6874  2.6251  1.3562
  345MOL0     O46441   9.858  11.168   0.901  0.1359 -0.5133 -0.3315
  345MOL0     C46442   9.967  11.192   0.861 -0.5026  0.5327 -0.4524
  345MOL0     O46443  10.002  11.224   0.729  0.1188 -0.1473 -0.4169
  345MOL0     C46444   9.902  11.192   0.636 -0.5786 -0.7932  0.1154
  345MOL0     C46445   9.854  11.303   0.562  0.9353 -0.2797 -0.0877
  345MOL0     C46446   9.754  11.280   0.471  0.0799  0.3633 -0.5823
  345MOL0     C46447   9.700  11.139   0.455  0.3777 -0.4132  0.1945
  345MOL0     O46448   9.607  11.103   0.371 -0.2899 -0.2466 -0.5585
  345MOL0     C46449   9.536  11.211   0.300  0.3773  0.2805 -0.0146
  345MOL0     C46450   9.405  11.157   0.235 -0.9948 -0.1941 -0.1690
  345MOL0     C46451   9.332  11.266   0.171  0.4672  0.0739  0.3867
  345MOL0     C46452   9.377  11.305   0.031 -0.6999 -0.6717  1.2826
  345MOL0     C46453   9.325  11.442  -0.007  1.0302 -0.8405  0.1313
  345MOL0     C46454   9.383  11.529  -0.122 -0.5798 -0.5367  0.1362
  345MOL0     C46455   9.307  11.664  -0.135 -0.3906 -0.0618 -0.5102
  345MOL0     C46456   9.338  11.723  -0.268  0.6321 -0.7259 -0.5811
  345MOL0     N46457   9.479  11.760  -0.291 -0.4612  0.1147  0.0261
  345MOL0     C46458   9.560  11.817  -0.200 -0.1167  0.1254 -0.2207
  345MOL0     C46459   9.674  11.836  -0.266 -0.5769 -0.3487  1.4077
  345MOL0     C46460   9.802  11.911  -0.214 -0.3177  0.1250  0.8563
  345MOL0     C46461   9.795  11.980  -0.078 -0.0491  0.1857  0.0074
  345MOL0     C46462   9.920  12.052  -0.042  0.0431 -0.3439  0.5985
  345MOL0     C46463   9.910  12.120   0.090  0.1635  0.0895 -0.5727
  345MOL0     O46464   9.912  12.021   0.190 -0.2374 -0.2510  0.1096
  345MOL0     C46465   9.913  12.067   0.315  0.7243 -0.4484 -0.6770
  345MOL0     C46466  10.008  12.138   0.383  1.0178  0.1112  0.9316
  345MOL0     C46467  10.001  12.175   0.514 -0.0824  0.2069 -0.8985
  345MOL0     C46468   9.895  12.136   0.593  0.3746  0.2515 -0.9130
  345MOL0     C46469   9.886  12.188   0.734 -0.3688 -0.6991 -0.0033
  345MOL0     O46470  10.003  12.231   0.807  0.4729  0.9493  0.2338
  345MOL0     C46471   9.978  12.242   0.942  1.2605  0.1455 -0.0314
  345MOL0     C46472   9.933  12.365   0.994 -0.1505  1.2480 -0.3803
  345MOL0     C46473   9.925  12.390   1.131  0.6900  0.2210 -0.0176
  345MOL0     C46474   9.947  12.282   1.218 -0.7750  0.5060  0.9371
  345MOL0     O46475   9.924  12.289   1.353  0.1153  0.6784 -0.7755
  345MOL0     C46476   9.983  12.407   1.419  0.1404 -0.0243  1.3929
  345MOL0     C46477  10.008  12.373   1.567  0.3135  0.7420  0.8317
  345MOL0     C46478   9.891  12.306   1.648  0.5109 -0.7261 -0.1100
  345MOL0     C46479   9.943  12.189   1.733 -0.5695 -0.1958  0.7303
  345MOL0     C46480  10.055  12.216   1.846  1.6397  0.7759  0.2314
  345MOL0     C46481  10.002  12.317   1.950 -0.4019 -0.6580  0.1564
  345MOL0     C46482  10.110  12.338   2.053 -0.7351  0.5035 -0.2084
  345MOL0     C46483  10.085  12.449   2.149  0.4514 -0.9863  1.0102
  345MOL0    Cl46484  10.111  12.617   2.082  0.5006 -0.0945 -0.1482
  345MOL0     C46485   9.991  12.157   1.176  0.3326 -0.9790  0.8271
  345MOL0     C46486  10.006  12.141   1.035  0.0929  0.8923 -0.4409
  345MOL0     O46487   9.768  12.188   0.776 -0.7219  0.8386  0.1262
  345MOL0     C46488   9.792  12.060   0.534 -1.0596 -0.4501  0.3288
  345MOL0     C46489   9.806  12.031   0.396  0.0604  0.6167  0.1760
  345MOL0     N46490   9.655  11.801  -0.396  0.2400 -0.3842 -0.8798
  345MOL0     N46491   9.533  11.754  -0.417  0.2699  0.7476  0.1770
  345MOL0     C46492   9.736  11.041   0.551 -0.5059  0.3222  1.2358
  345MOL0     C46493   9.846  11.064   0.632 -0.5072  0.6500 -0.4199
  345MOL0     C46494  10.077  11.193   0.962 -0.4850  0.3819 -0.7789
  345MOL0     C46495  10.188  11.287   0.947  0.3004  0.2216 -0.1020
  345MOL0     C46496  10.281  11.304   1.048 -0.1738  0.2453  0.1361
  345MOL0     C46497  10.285  11.215   1.152 -0.4449 -0.4328  0.1817
  345MOL0     O46498  10.374  11.241   1.262 -0.7916  0.7762 -0.0459
  345MOL0     C46499  10.469  11.347   1.255  1.0234  1.1490 -0.9519
  345MOL0     C46500  10.548  11.357   1.389  0.6419  0.3247  0.5121
  345MOL0     C46501  10.464  11.400   1.506  0.8396 -0.4897 -0.9746
  345MOL0     C46502  10.557  11.466   1.610 -0.4559 -0.6255 -0.2824
  345MOL0     C46503  10.655  11.361   1.664  0.1049 -0.6645  0.0980
  345MOL0     C46504  10.728  11.277   1.708  0.9352  0.8984  0.1191
  345MOL0     C46505  10.191  11.116   1.162 -0.4318 -0.0565  0.1540
  345MOL0     C46506  10.090  11.104   1.071  0.6202 -0.1962 -0.0936
  345MOL0     C46507   9.995  10.995   1.098 -0.4692  0.7006 -0.6495
  345MOL0     H46508   9.888  11.406   0.566 -0.0205  0.0308  3.5673
  345MOL0     H46509   9.713  11.371   0.428 -0.5114 -0.0800 -0.9716
  345MOL0     H46510   9.501  11.285   0.372  0.0703 -1.3626  1.5943
  345MOL0     H46511   9.599  11.259   0.225 -1.0784 -0.0868 -1.5306
  345MOL0     H46512   9.345  11.107   0.311 -0.8115  1.5979  1.2143
  345MOL0     H46513   9.438  11.097   0.149 -0.7815  0.7084 -0.7264
  345MOL0     H46514   9.342  11.341   0.251  3.1431 -1.3992  1.5595
  345MOL0     H46515   9.226  11.240   0.158  0.6442  0.1239 -1.3368
  345MOL0     H46516   9.486  11.313   0.024 -0.8620  0.4027 -1.2894
  345MOL0     H46517   9.340  11.236  -0.045 -0.6370  0.6674 -0.0073
  345MOL0     H46518   9.218  11.434  -0.025  0.8006  2.8057 -1.1663
  345MOL0     H46519   9.351  11.509   0.075  1.4142  2.9196 -2.7641
  345MOL0     H46520   9.490  11.548  -0.114 -0.5207 -1.5557  2.7423
  345MOL0     H46521   9.362  11.468  -0.210 -1.8580 -2.0852  1.4439
  345MOL0     H46522   9.345  11.728  -0.055  0.9440  1.4329 -2.2449
  345MOL0     H46523   9.200  11.646  -0.126 -1.3464  4.9206  1.9442
  345MOL0     H46524   9.314  11.648  -0.344 -1.5000 -1.2621  0.5417
  345MOL0     H46525   9.272  11.810  -0.279 -0.4397 -1.2524  1.1179
  345MOL0     H46526   9.539  11.838  -0.096 -1.3625 -1.1252 -0.1854
  345MOL0     H46527   9.883  11.838  -0.213 -1.3463 -1.1481 -1.1776
  345MOL0     H46528   9.823  11.986  -0.292 -1.2633 -1.8738 -1.4595
  345MOL0     H46529   9.708  12.045  -0.096  0.2586  0.5682 -0.1201
  345MOL0     H46530   9.774  11.906  -0.001  4.7943 -0.1015  1.3704
  345MOL0     H46531   9.932  12.134  -0.114  1.0336  1.9403  3.1914
  345MOL0     H46532  10.002  11.980  -0.032  0.5704  0.0472 -0.7123
  345MOL0     H46533   9.815  12.175   0.097  2.1906  3.7237  1.3572
  345MOL0     H46534   9.987  12.195   0.111  1.9640 -2.2046  1.7769
  345MOL0     H46535  10.096  12.171   0.329  0.1029 -0.2326 -0.8085
  345MOL0     H46536  10.075  12.239   0.560  0.0466  0.2812 -1.2070
  345MOL0     H46537   9.907  12.441   0.921 -0.3932  3.1903  1.6272
  345MOL0     H46538   9.904  12.488   1.173  0.9980 -0.3345  1.4935
  345MOL0     H46539  10.074  12.429   1.361 -0.4811  3.8901  1.6337
  345MOL0     H46540   9.924  12.498   1.408  0.1761 -0.1878 -0.4825
  345MOL0     H46541  10.095  12.307   1.574 -1.0595 -0.9683  4.1326
  345MOL0     H46542  10.035  12.468   1.612  3.1069  0.7977 -0.7575
  345MOL0     H46543   9.826  12.370   1.709  0.7295  0.1482 -0.7686
  345MOL0     H46544   9.819  12.274   1.572 -1.2884  1.7325  0.3958
  345MOL0     H46545   9.993  12.125   1.660 -0.5470  0.1187  0.4680
  345MOL0     H46546   9.851  12.148   1.776 -3.5073  3.9047 -0.9523
  345MOL0     H46547  10.157  12.238   1.813  1.6372 -1.5172 -1.5534
  345MOL0     H46548  10.074  12.121   1.897  2.8825  0.9298  0.0763
  345MOL0     H46549   9.988  12.412   1.897 -4.7891 -0.5653  1.1335
  345MOL0     H46550   9.909  12.283   1.996 -1.2664  1.7140  0.2674
  345MOL0     H46551  10.206  12.353   2.002 -1.6706 -0.6200 -2.3871
  345MOL0     H46552  10.116  12.245   2.110 -4.6936  0.8417  1.0805
  345MOL0     H46553   9.981  12.448   2.183  0.0499  0.3853 -0.0842
  345MOL0     H46554  10.138  12.441   2.244 -3.6166 -2.7219  3.3964
  345MOL0     H46555  10.007  12.066   1.233 -2.0361 -0.8536  1.8042
  345MOL0     H46556  10.044  12.043   1.008  1.0208  0.9111  0.7138
  345MOL0     H46557   9.712  12.023   0.597  0.4694  1.4677  3.6775
  345MOL0     H46558   9.722  11.974   0.359  0.2871 -0.2138  0.8870
  345MOL0     H46559   9.697  10.939   0.546  0.8145 -0.1541 -2.3593
  345MOL0     H46560   9.891  10.990   0.697  0.5266  2.2386  0.7766
  345MOL0     H46561  10.186  11.365   0.872 -0.5504 -1.0110 -1.4143
  345MOL0     H46562  10.355  11.382   1.031  0.8341 -0.3219  1.6520
  345MOL0     H46563  10.429  11.447   1.236 -2.8768  0.8191  3.6137
  345MOL0     H46564  10.540  11.327   1.174 -1.3750  0.7127 -3.0829
  345MOL0     H46565  10.631  11.419   1.355 -0.4526  2.8419  2.1132
  345MOL0     H46566  10.595  11.258   1.398 -1.4757 -0.9128 -1.1398
  345MOL0     H46567  10.404  11.318   1.546  0.4130  0.4396  0.3679
  345MOL0     H46568  10.392  11.472   1.466  2.2295  1.4511 -0.1655
  345MOL0     H46569  10.618  11.550   1.575 -1.4145 -0.4038 -1.4767
  345MOL0     H46570  10.493  11.495   1.694 -0.7151 -1.3307 -0.2263
  345MOL0     H46571  10.798  11.209   1.751  0.7408  0.3427 -0.4263
  345MOL0     H46572  10.207  11.039   1.237  2.9724 -0.3271 -0.6624
  345MOL0     H46573  10.035  10.930   1.175 -2.4120 -2.3398 -2.0245
  345MOL0     H46574   9.906  11.041   1.142  1.4242  3.0291  1.0258
  345MOL0     H46575   9.963  10.935   1.012 -0.3198 -0.0285 -0.2016
  346MOL0     O46576   9.419   0.716   1.987 -0.1726  0.1232  0.5434
  346MOL0     C46577   9.480   0.604   1.994  0.0174 -0.5705  0.0210
  346MOL0     O46578   9.489   0.521   1.896 -0.3317  0.6811  0.2199
  346MOL0     C46579   9.404   0.527   1.791 -0.1469  0.5761  0.2586
  346MOL0     C46580   9.454   0.531   1.663  0.6663 -0.7612 -0.2711
  346MOL0     C46581   9.370   0.542   1.556 -0.1908  0.4707 -0.3231
  346MOL0     C46582   9.232   0.538   1.566 -0.6089  0.1763 -0.6219
  346MOL0     O46583   9.143   0.566   1.468  0.3476  0.6750  0.4342
  346MOL0     C46584   9.194   0.620   1.350  0.0142  1.1756 -0.7233
  346MOL0     C46585   9.221   0.507   1.246  0.4778 -0.7953  0.7777
  346MOL0     C46586   9.286   0.583   1.126 -0.9192 -0.2445  0.9448
  346MOL0     C46587   9.294   0.480   1.014 -0.1292 -0.2302  0.4594
  346MOL0     C46588   9.361   0.525   0.890 -0.3339 -0.4484 -0.5124
  346MOL0     C46589   9.401   0.402   0.803  0.4627 -0.2382  0.5112
  346MOL0     C46590   9.451   0.455   0.679  0.6572  0.7818  1.0358
  346MOL0     C46591   9.338   0.486   0.575 -0.2956 -0.5935  0.7357
  346MOL0     N46592   9.402   0.552   0.458  0.6739  1.0433 -0.0335
  346MOL0     C46593   9.421   0.688   0.440 -0.4518  0.3258  0.9429
  346MOL0     C46594   9.502   0.680   0.330 -0.4202 -0.8344  0.1793
  346MOL0     C46595   9.580   0.801   0.286 -0.3513 -0.2937  0.9850
  346MOL0     C46596   9.484   0.868   0.186 -0.1959 -0.2854 -0.2416
  346MOL0     C46597   9.538   0.992   0.109 -0.0599  0.2157 -0.4826
  346MOL0     C46598   9.673   0.960   0.040  0.4691  0.8513  0.4997
  346MOL0     O46599   9.792   0.947   0.130  0.1529  0.1224 -0.5138
  346MOL0     C46600   9.834   1.059   0.206 -0.3983 -0.6871  1.1558
  346MOL0     C46601   9.935   1.037   0.288  0.2857  0.5411 -0.1587
  346MOL0     C46602   9.988   1.142   0.362 -0.2175 -1.1808 -0.2960
  346MOL0     C46603   9.928   1.272   0.359 -0.2864  0.5132 -0.2910
  346MOL0     C46604   9.984   1.370   0.453 -0.2808 -1.2580 -0.1465
  346MOL0     O46605   9.895   1.451   0.508 -0.1384  0.3890 -0.3530
  346MOL0     C46606   9.922   1.567   0.579  0.7394  0.0717  0.0064
  346MOL0     C46607  10.042   1.642   0.596 -0.0477 -0.1799 -0.1212
  346MOL0     C46608  10.055   1.762   0.677 -0.8232  0.1609 -0.4135
  346MOL0     C46609   9.951   1.786   0.773 -0.2194 -0.0473 -0.6089
  346MOL0     O46610   9.979   1.895   0.852  0.4387  0.4717  0.5157
  346MOL0     C46611   9.938   1.865   0.982  0.4182  0.8959  0.0338
  346MOL0     C46612  10.053   1.826   1.078 -0.4214  0.0151  0.0267
  346MOL0     C46613  10.178   1.908   1.071 -0.5516  0.1225 -0.5910
  346MOL0     C46614  10.152   2.044   1.129 -0.3465  0.7422 -0.0027
  346MOL0     C46615  10.284   2.120   1.101  0.2489 -0.9153 -0.3418
  346MOL0     C46616  10.327   2.158   0.967 -1.8108  0.1533  0.1164
  346MOL0     C46617  10.238   2.269   0.902  0.9698 -0.3859 -0.6194
  346MOL0     C46618  10.326   2.341   0.812 -0.1566  0.4967 -0.3610
  346MOL0    Cl46619  10.227   2.474   0.743  0.2441 -0.6946  0.3093
  346MOL0     C46620   9.834   1.718   0.751  0.4320  0.0852 -0.6262
  346MOL0     C46621   9.818   1.607   0.668  0.8495  1.1344 -0.2001
  346MOL0     O46622  10.098   1.358   0.485 -0.9594  0.0200 -0.3101
  346MOL0     C46623   9.821   1.295   0.276  0.5274 -0.1961  0.3104
  346MOL0     C46624   9.783   1.188   0.190 -0.8139 -0.1971 -0.3332
  346MOL0     N46625   9.505   0.559   0.279  0.2766  0.6961  0.0809
  346MOL0     N46626   9.446   0.473   0.356 -0.2690  0.3605  0.0005
  346MOL0     C46627   9.183   0.527   1.696  0.0340 -0.0707 -0.3939
  346MOL0     C46628   9.267   0.521   1.813 -0.1458 -1.0161 -0.3493
  346MOL0     C46629   9.569   0.574   2.112  0.1205 -0.4795 -0.0130
  346MOL0     C46630   9.660   0.673   2.151  0.2482 -0.6513 -0.5446
  346MOL0     C46631   9.774   0.657   2.229  0.6527 -0.1368  1.0500
  346MOL0     C46632   9.777   0.542   2.307 -0.0255  0.8894 -0.3821
  346MOL0     O46633   9.865   0.519   2.408 -0.0998  0.2655 -0.3390
  346MOL0     C46634   9.921   0.637   2.469 -0.1057  0.3973 -0.3376
  346MOL0     C46635  10.007   0.607   2.592  0.0122 -0.1115 -0.5210
  346MOL0     C46636  10.042   0.735   2.677 -0.8737 -0.0143  0.6808
  346MOL0     C46637  10.109   0.695   2.805 -1.1201  0.8930 -0.0482
  346MOL0     C46638  10.022   0.596   2.883 -0.1275 -0.1952  0.6280
  346MOL0     C46639   9.945   0.524   2.943 -0.4268 -0.3824  0.3790
  346MOL0     C46640   9.688   0.433   2.271 -0.2341  0.4591  0.2476
  346MOL0     C46641   9.590   0.444   2.168 -1.2251 -0.1451 -0.4736
  346MOL0     C46642   9.505   0.327   2.122  0.8033  0.7073  0.3051
  346MOL0     H46643   9.555   0.522   1.625 -0.3721 -0.7799 -3.3081
  346MOL0     H46644   9.417   0.536   1.458 -3.0268  0.5790 -1.7923
  346MOL0     H46645   9.104   0.676   1.322 -4.8032 -1.9358  5.9185
  346MOL0     H46646   9.282   0.682   1.369  0.6363 -0.5927  2.9008
  346MOL0     H46647   9.124   0.461   1.224 -0.2324  1.6124 -1.7406
  346MOL0     H46648   9.281   0.420   1.276  1.5763 -0.6543 -0.8899
  346MOL0     H46649   9.382   0.627   1.152 -2.7332  3.4907  2.0744
  346MOL0     H46650   9.224   0.666   1.090 -1.8181 -1.1996  0.2195
  346MOL0     H46651   9.351   0.391   1.044  1.9938  0.6109 -0.8335
  346MOL0     H46652   9.190   0.461   0.989  0.4977 -2.1376 -0.8996
  346MOL0     H46653   9.307   0.599   0.831 -1.3983 -0.6825  0.1395
  346MOL0     H46654   9.438   0.595   0.926 -1.2890 -0.6509  2.1083
  346MOL0     H46655   9.475   0.344   0.859 -0.1052 -1.1263  0.3689
  346MOL0     H46656   9.305   0.352   0.788 -0.3948  1.6597 -0.7216
  346MOL0     H46657   9.519   0.383   0.632 -1.8286 -1.9014  1.2672
  346MOL0     H46658   9.523   0.537   0.691  1.1866  0.3878  0.5782
  346MOL0     H46659   9.283   0.393   0.561 -0.7799 -1.2785  5.5564
  346MOL0     H46660   9.264   0.554   0.617 -1.4963 -1.8918  0.7752
  346MOL0     H46661   9.409   0.776   0.503  0.6714  0.8598  0.4336
  346MOL0     H46662   9.620   0.874   0.356  0.2539 -1.6611  2.1231
  346MOL0     H46663   9.669   0.768   0.231  0.1363  2.2819  0.1117
  346MOL0     H46664   9.464   0.797   0.106  1.7481 -1.6533  0.4101
  346MOL0     H46665   9.389   0.893   0.233 -1.4010  2.2205 -3.5969
  346MOL0     H46666   9.545   1.083   0.168  0.5427 -0.5344  0.6489
  346MOL0     H46667   9.462   1.010   0.032  0.2951  0.8927 -0.6778
  346MOL0     H46668   9.692   1.042  -0.029 -1.8572 -1.7840 -3.7015
  346MOL0     H46669   9.671   0.867  -0.019  1.1492  1.0730  0.1193
  346MOL0     H46670   9.993   0.945   0.290  0.0753  0.4019  1.8133
  346MOL0     H46671  10.075   1.130   0.425 -1.0675  0.8884  1.4207
  346MOL0     H46672  10.133   1.602   0.555  1.4734 -0.9110  3.6064
  346MOL0     H46673  10.144   1.823   0.674 -0.5757 -0.2214 -0.9650
  346MOL0     H46674   9.874   1.944   1.022  1.5873  0.7790  2.2914
  346MOL0     H46675   9.863   1.785   0.987 -0.8381  2.1039  0.9552
  346MOL0     H46676  10.010   1.825   1.178 -1.1118  0.6138 -0.2484
  346MOL0     H46677  10.087   1.723   1.063 -0.4148 -0.2754  1.8716
  346MOL0     H46678  10.265   1.863   1.121 -1.0254  0.5908  0.7061
  346MOL0     H46679  10.198   1.917   0.964  0.5066  0.3360 -0.3927
  346MOL0     H46680  10.138   2.025   1.236  0.9316  1.7881  0.3858
  346MOL0     H46681  10.062   2.094   1.092 -0.4389  2.9169  2.7712
  346MOL0     H46682  10.365   2.066   1.151  0.9287  0.2153 -0.1884
  346MOL0     H46683  10.267   2.209   1.163  2.2955 -0.2922 -0.5906
  346MOL0     H46684  10.432   2.186   0.971 -0.7675 -3.2372 -0.3569
  346MOL0     H46685  10.330   2.068   0.905  0.8881  0.3194 -0.0965
  346MOL0     H46686  10.183   2.326   0.977 -1.8394  1.0322 -3.5239
  346MOL0     H46687  10.159   2.215   0.848 -0.9307  0.0185  1.6036
  346MOL0     H46688  10.416   2.367   0.868 -0.7004 -1.4096  1.5532
  346MOL0     H46689  10.381   2.279   0.740  0.5889  0.4340  0.2564
  346MOL0     H46690   9.757   1.752   0.820  1.8073 -0.3991  1.2434
  346MOL0     H46691   9.727   1.549   0.675  1.1817  0.8356  2.4437
  346MOL0     H46692   9.774   1.393   0.274  1.4827  0.2589 -0.9007
  346MOL0     H46693   9.701   1.207   0.122 -3.5216 -1.6262  2.2836
  346MOL0     H46694   9.076   0.529   1.708 -0.0540 -2.3829 -0.3687
  346MOL0     H46695   9.214   0.513   1.907  0.3037  1.5098  0.1760
  346MOL0     H46696   9.647   0.763   2.091 -1.6039 -0.6462 -0.2013
  346MOL0     H46697   9.833   0.748   2.230 -0.4616  0.6222  0.8307
  346MOL0     H46698   9.845   0.713   2.490  0.5025  0.7399  0.7150
  346MOL0     H46699   9.982   0.692   2.397 -2.0478  1.2657 -1.4048
  346MOL0     H46700  10.100   0.553   2.570  1.0378 -0.3382  3.6411
  346MOL0     H46701   9.941   0.545   2.652 -1.4964  0.4270 -1.5618
  346MOL0     H46702   9.948   0.789   2.692 -1.3979 -0.8653  0.5068
  346MOL0     H46703  10.121   0.792   2.626 -2.0469  0.1265 -1.0746
  346MOL0     H46704  10.199   0.642   2.775  0.0169  2.2705  0.8153
  346MOL0     H46705  10.134   0.785   2.863  2.4578 -2.6947  4.8564
  346MOL0     H46706   9.874   0.478   3.009 -1.1974  3.1973  2.2768
  346MOL0     H46707   9.690   0.338   2.324  0.2403  0.6316  0.5446
  346MOL0     H46708   9.524   0.243   2.189 -1.3313  1.3314  1.7963
  346MOL0     H46709   9.404   0.354   2.155  0.2239 -0.5322 -0.3527
  346MOL0     H46710   9.509   0.306   2.014 -3.2809  1.3172 -0.1195
  347MOL0     O46711   5.207   2.868   2.566  0.7489  0.4786  0.6646
  347MOL0     C46712   5.196   2.795   2.463  0.2261 -0.1729 -0.3484
  347MOL0     O46713   5.276   2.682   2.437  0.7319 -0.7660 -0.4793
  347MOL0     C46714   5.325   2.605   2.542 -0.0191  0.7457 -0.0203
  347MOL0     C46715   5.451   2.547   2.548 -0.5731  0.1402 -0.0673
  347MOL0     C46716   5.488   2.456   2.642  0.6630 -0.2353 -0.0179
  347MOL0     C46717   5.402   2.427   2.745 -0.1118  0.2627 -0.8767
  347MOL0     O46718   5.460   2.349   2.850 -0.0668 -0.7055 -0.7930
  347MOL0     C46719   5.367   2.284   2.935 -0.0706  0.6821  2.0232
  347MOL0     C46720   5.426   2.176   3.023 -0.4279  1.0172  0.1866
  347MOL0     C46721   5.439   2.034   2.952  1.0823 -0.2327 -0.8358
  347MOL0     C46722   5.541   2.025   2.836  0.2104  0.0195 -0.9210
  347MOL0     C46723   5.671   1.988   2.910 -0.1681  0.6237  0.1317
  347MOL0     C46724   5.796   1.992   2.827 -0.1222 -0.4970 -0.1897
  347MOL0     C46725   5.916   2.050   2.907 -0.2465  0.1852  1.1189
  347MOL0     C46726   5.975   1.928   2.992 -0.8268 -0.3471 -0.5012
  347MOL0     N46727   6.008   1.807   2.925  0.1933 -0.2388  0.5191
  347MOL0     C46728   6.102   1.792   2.828  0.1608 -0.0648  0.9714
  347MOL0     C46729   6.100   1.662   2.796 -0.2509 -0.0986 -0.2853
  347MOL0     C46730   6.210   1.605   2.701  0.3931  0.5013 -0.5551
  347MOL0     C46731   6.237   1.450   2.704  0.5834  0.1232  0.0335
  347MOL0     C46732   6.260   1.394   2.840 -0.0608  0.1568  0.3099
  347MOL0     C46733   6.355   1.477   2.924 -0.1407  1.0010 -0.2457
  347MOL0     O46734   6.469   1.526   2.860  0.2744  0.2125 -0.2976
  347MOL0     C46735   6.582   1.452   2.845 -0.2854  0.8028 -0.0059
  347MOL0     C46736   6.585   1.312   2.869 -0.8460 -0.5641  0.1459
  347MOL0     C46737   6.698   1.239   2.852  0.0415 -0.7500  1.0954
  347MOL0     C46738   6.821   1.304   2.815  1.0778 -0.1773 -1.6949
  347MOL0     C46739   6.946   1.225   2.807  0.1973 -0.2072  0.1383
  347MOL0     O46740   7.044   1.270   2.722 -0.0338  0.3866  0.2662
  347MOL0     C46741   7.166   1.215   2.728 -0.3467  0.0428 -0.3464
  347MOL0     C46742   7.246   1.190   2.845  0.2661  0.1460 -0.0318
  347MOL0     C46743   7.380   1.161   2.839 -0.3166 -0.0049  0.0700
  347MOL0     C46744   7.447   1.144   2.709 -1.0973  0.5855 -0.2321
  347MOL0     O46745   7.578   1.108   2.692  1.1080  0.5242  0.4291
  347MOL0     C46746   7.656   1.041   2.796 -0.3315  0.2729  0.0279
  347MOL0     C46747   7.610   0.896   2.841  0.3006  0.5534 -0.4093
  347MOL0     C46748   7.614   0.788   2.731  1.1584  0.1711  0.2161
  347MOL0     C46749   7.507   0.802   2.623  0.6868 -0.4751  0.0377
  347MOL0     C46750   7.367   0.798   2.675  0.0007 -0.6171 -0.7504
  347MOL0     C46751   7.263   0.805   2.562 -0.5661 -0.3249 -0.7144
  347MOL0     C46752   7.130   0.752   2.606 -0.4541 -0.2434  0.3778
  347MOL0     C46753   7.048   0.707   2.482  0.7554  0.2860 -0.4781
  347MOL0    Cl46754   6.962   0.845   2.426 -1.0737 -0.1191 -0.4633
  347MOL0     C46755   7.370   1.158   2.594 -0.1755  0.1109 -0.4971
  347MOL0     C46756   7.231   1.203   2.600  0.7059 -0.7168 -0.4871
  347MOL0     O46757   6.957   1.145   2.897  0.1233  0.6621 -0.3096
  347MOL0     C46758   6.816   1.446   2.809 -0.7084  0.2041 -0.5701
  347MOL0     C46759   6.700   1.516   2.819 -1.8603  0.2385 -0.0197
  347MOL0     N46760   6.011   1.603   2.880  0.7009  0.6241  0.4651
  347MOL0     N46761   5.946   1.693   2.955  0.4843  0.4010  0.2449
  347MOL0     C46762   5.281   2.497   2.756  0.7059  0.8882  0.1682
  347MOL0     C46763   5.239   2.576   2.648 -0.6507 -0.7387  0.0926
  347MOL0     C46764   5.116   2.846   2.361 -1.6073  0.0206  0.2345
  347MOL0     C46765   5.138   2.984   2.325 -0.1671 -0.4243  0.3696
  347MOL0     C46766   5.060   3.051   2.240  0.0915 -0.6427  0.2712
  347MOL0     C46767   4.954   2.981   2.176  0.3638  0.1737 -0.1166
  347MOL0     O46768   4.866   3.031   2.093  0.7400  0.8592  0.0257
  347MOL0     C46769   4.859   3.170   2.068 -0.1373 -0.2286  1.0882
  347MOL0     C46770   4.823   3.245   2.196 -0.1749 -0.9131 -0.1455
  347MOL0     C46771   4.672   3.282   2.202 -0.5222  0.5045 -0.4488
  347MOL0     C46772   4.641   3.404   2.298 -1.0280 -0.8925  0.2836
  347MOL0     C46773   4.698   3.532   2.242  0.4868 -1.0463 -0.1139
  347MOL0     C46774   4.736   3.628   2.175  0.4359 -0.6332 -0.0004
  347MOL0     C46775   4.944   2.839   2.195  0.7611  0.5390  0.5062
  347MOL0     C46776   5.020   2.771   2.289 -0.1381 -0.0696  0.2629
  347MOL0     C46777   4.983   2.623   2.313  0.1375 -0.2955 -0.4497
  347MOL0     H46778   5.516   2.546   2.461 -1.7412  0.3259 -0.9687
  347MOL0     H46779   5.585   2.406   2.638  0.8399  0.1475 -1.1188
  347MOL0     H46780   5.321   2.359   3.001 -1.2267  2.0946 -0.2455
  347MOL0     H46781   5.286   2.249   2.871  0.5234  0.2753  1.4952
  347MOL0     H46782   5.373   2.149   3.115  0.7153 -1.3920  0.2118
  347MOL0     H46783   5.521   2.201   3.071 -1.3291  0.8839  2.1784
  347MOL0     H46784   5.344   2.010   2.903  0.5178 -0.6231  0.3883
  347MOL0     H46785   5.456   1.968   3.037 -1.1991  0.1061 -0.0284
  347MOL0     H46786   5.515   1.949   2.762 -1.6519 -1.3517  1.0187
  347MOL0     H46787   5.563   2.119   2.785 -0.8146  0.5606 -0.3956
  347MOL0     H46788   5.681   2.049   3.000  0.7931  2.0339 -0.8855
  347MOL0     H46789   5.663   1.883   2.939  0.0363  1.1785  2.3899
  347MOL0     H46790   5.817   1.894   2.783 -0.8928 -1.0303  0.6032
  347MOL0     H46791   5.789   2.049   2.734  1.8644 -0.7510 -0.5403
  347MOL0     H46792   5.892   2.142   2.962  1.9266  1.9268 -0.6054
  347MOL0     H46793   5.988   2.080   2.831  0.8378 -0.1892  1.9769
  347MOL0     H46794   6.063   1.964   3.047  1.9272 -0.9392 -4.1575
  347MOL0     H46795   5.898   1.898   3.064 -2.2046  0.1251 -1.7124
  347MOL0     H46796   6.162   1.871   2.784  4.0797 -3.4413 -0.2706
  347MOL0     H46797   6.183   1.634   2.599  2.2834  0.7572 -1.0253
  347MOL0     H46798   6.305   1.652   2.729  1.4951 -2.9023  2.2877
  347MOL0     H46799   6.155   1.389   2.666 -0.0163  0.2323  1.1300
  347MOL0     H46800   6.326   1.425   2.645 -0.6548 -0.9881 -1.4373
  347MOL0     H46801   6.278   1.287   2.825 -2.4468  0.1348 -3.8183
  347MOL0     H46802   6.168   1.384   2.898  1.4243 -1.1616  2.6119
  347MOL0     H46803   6.378   1.420   3.014 -0.6080 -0.2715 -0.9109
  347MOL0     H46804   6.296   1.562   2.958 -1.8482 -0.3169  0.2334
  347MOL0     H46805   6.489   1.263   2.882 -1.9682  0.6286 -2.9523
  347MOL0     H46806   6.692   1.131   2.860  0.5644 -0.7599  1.4084
  347MOL0     H46807   7.187   1.196   2.936  1.5085  3.5804  0.7019
  347MOL0     H46808   7.420   1.138   2.937  2.9076  3.5208 -0.2039
  347MOL0     H46809   7.752   1.043   2.745 -0.8030 -0.1256 -0.8946
  347MOL0     H46810   7.673   1.106   2.883  0.9277  2.8265 -2.0069
  347MOL0     H46811   7.679   0.874   2.924  0.3125 -0.5086 -0.6845
  347MOL0     H46812   7.512   0.913   2.886  0.9442 -1.7325  2.1558
  347MOL0     H46813   7.712   0.786   2.683  0.4292 -1.6953 -1.3472
  347MOL0     H46814   7.593   0.692   2.781 -0.8606  1.7554  2.6523
  347MOL0     H46815   7.530   0.731   2.544  1.7753  3.1939 -3.2583
  347MOL0     H46816   7.516   0.903   2.583 -2.8080  0.4114  1.1432
  347MOL0     H46817   7.353   0.875   2.751  0.7452 -2.8973  1.8633
  347MOL0     H46818   7.363   0.707   2.735  1.9841 -0.4730 -0.3489
  347MOL0     H46819   7.251   0.897   2.504 -0.8842 -0.7949 -1.4006
  347MOL0     H46820   7.305   0.734   2.491 -1.1082 -1.3017 -0.0741
  347MOL0     H46821   7.082   0.834   2.661  2.5074  1.9528 -0.0616
  347MOL0     H46822   7.149   0.676   2.682  1.2737  1.5489  1.8494
  347MOL0     H46823   7.121   0.659   2.417 -0.1179 -1.3872 -0.2848
  347MOL0     H46824   6.980   0.626   2.513  0.2247  1.2398  0.9731
  347MOL0     H46825   7.410   1.154   2.493  1.0839  1.6175 -0.0870
  347MOL0     H46826   7.178   1.226   2.509  1.0507  0.8937 -0.3095
  347MOL0     H46827   6.905   1.502   2.782 -0.0625 -0.2290  0.6112
  347MOL0     H46828   6.698   1.623   2.800 -2.8627  0.1191 -0.7029
  347MOL0     H46829   5.223   2.479   2.846  0.7762  2.9272  0.6750
  347MOL0     H46830   5.143   2.626   2.651  0.8843  2.6144 -1.0971
  347MOL0     H46831   5.212   3.047   2.374  0.7513 -1.4368  0.3107
  347MOL0     H46832   5.082   3.155   2.217 -0.2939 -0.6569 -0.1952
  347MOL0     H46833   4.792   3.200   1.988  1.6965 -1.3248 -0.9695
  347MOL0     H46834   4.952   3.205   2.021 -1.2411 -0.5615 -1.5228
  347MOL0     H46835   4.888   3.333   2.189  0.1795 -1.2816 -1.9498
  347MOL0     H46836   4.851   3.186   2.284  1.5532 -2.9713 -1.9670
  347MOL0     H46837   4.615   3.196   2.240  3.2160 -0.4521  3.7620
  347MOL0     H46838   4.636   3.302   2.100  0.8758 -1.2203 -1.3390
  347MOL0     H46839   4.533   3.420   2.307 -0.7348  1.0706  0.7130
  347MOL0     H46840   4.680   3.387   2.399  0.3764  1.5809  0.2401
  347MOL0     H46841   4.752   3.716   2.116 -3.2401 -0.5915 -1.1890
  347MOL0     H46842   4.869   2.779   2.144  2.4025 -0.7478 -0.4681
  347MOL0     H46843   5.031   2.546   2.252  0.4910  0.7277 -1.5016
  347MOL0     H46844   5.018   2.609   2.416 -3.2064  1.9873  1.1961
  347MOL0     H46845   4.875   2.617   2.300  0.2721 -0.0851 -1.7497
  348MOL0     O46846   4.915   6.724   3.654  0.3590 -0.1518  0.2369
  348MOL0     C46847   4.902   6.817   3.735 -0.4632 -0.1838 -0.5589
  348MOL0     O46848   4.988   6.850   3.833  0.5105  0.1960  0.0537
  348MOL0     C46849   5.075   6.760   3.882  0.4504  0.2798 -0.1168
  348MOL0     C46850   5.209   6.795   3.859 -0.0521  0.2963  0.2080
  348MOL0     C46851   5.295   6.697   3.908 -0.3242 -0.3246  0.8552
  348MOL0     C46852   5.261   6.578   3.974 -0.0859 -1.0891 -0.0397
  348MOL0     O46853   5.364   6.493   3.998 -0.1012 -0.7207  0.5718
  348MOL0     C46854   5.355   6.410   4.111  0.1461  0.3263  0.0263
  348MOL0     C46855   5.507   6.372   4.148  0.2676  0.2152  0.1753
  348MOL0     C46856   5.534   6.286   4.260  0.5306  0.3947 -0.1392
  348MOL0     C46857   5.489   6.340   4.396 -1.1206 -0.6156  0.1731
  348MOL0     C46858   5.577   6.291   4.511 -0.5278  0.5053 -0.4835
  348MOL0     C46859   5.698   6.383   4.519 -0.4040 -0.4295  0.7271
  348MOL0     C46860   5.776   6.342   4.639 -0.1705 -0.2645 -0.2397
  348MOL0     C46861   5.725   6.412   4.756 -0.1061 -0.7571  0.3903
  348MOL0     N46862   5.707   6.319   4.870  0.2445 -0.0231  1.0299
  348MOL0     C46863   5.615   6.225   4.886  0.1955  0.9695  0.3598
  348MOL0     C46864   5.627   6.170   5.008  0.0543  0.3607  0.5542
  348MOL0     C46865   5.542   6.078   5.094  0.3217  0.2868 -0.5514
  348MOL0     C46866   5.549   5.929   5.065 -0.6263  0.3213 -1.0276
  348MOL0     C46867   5.677   5.858   5.129  0.1959 -0.5727  1.2187
  348MOL0     C46868   5.689   5.865   5.279 -0.1946 -0.1541  0.5206
  348MOL0     O46869   5.597   5.773   5.339  0.6726  0.6977 -0.4611
  348MOL0     C46870   5.567   5.759   5.479  0.0294 -1.0415 -0.6385
  348MOL0     C46871   5.626   5.830   5.581 -0.7452  0.6047  0.4576
  348MOL0     C46872   5.585   5.796   5.711 -0.9915  0.1487 -0.5654
  348MOL0     C46873   5.486   5.702   5.740  0.2549  0.7130 -0.1022
  348MOL0     C46874   5.444   5.681   5.881  0.5233  1.1982 -1.2384
  348MOL0     O46875   5.475   5.779   5.968  0.2950  0.2457 -0.2295
  348MOL0     C46876   5.445   5.758   6.101  0.2419 -0.2784  0.4478
  348MOL0     C46877   5.380   5.863   6.163 -0.4753 -0.8791 -0.0711
  348MOL0     C46878   5.361   5.868   6.300  0.7793  2.0008  0.2469
  348MOL0     C46879   5.425   5.778   6.381 -0.0297 -0.1564 -0.2769
  348MOL0     O46880   5.424   5.798   6.517  0.4636 -0.7361  0.2289
  348MOL0     C46881   5.450   5.688   6.596 -0.2429  0.6784 -0.9703
  348MOL0     C46882   5.426   5.727   6.739  0.0622 -0.3812  0.7696
  348MOL0     C46883   5.482   5.614   6.826 -0.4348  0.2095 -0.7877
  348MOL0     C46884   5.429   5.634   6.968  0.1206  0.1813  0.0253
  348MOL0     C46885   5.466   5.520   7.059  0.6813 -0.0696 -0.8138
  348MOL0     C46886   5.469   5.569   7.205  0.0175 -0.2453  1.0026
  348MOL0     C46887   5.446   5.459   7.312 -0.1446 -0.3103 -0.0571
  348MOL0     C46888   5.529   5.336   7.288 -0.2758  0.1234 -0.1000
  348MOL0    Cl46889   5.528   5.239   7.447  0.2768  0.5515  0.0053
  348MOL0     C46890   5.499   5.669   6.324 -0.2220  0.0875  1.1557
  348MOL0     C46891   5.509   5.659   6.178 -0.7311  0.0392 -1.4941
  348MOL0     O46892   5.366   5.585   5.908  0.0264  0.5347  0.0878
  348MOL0     C46893   5.425   5.644   5.632  0.0041 -1.2002 -0.7250
  348MOL0     C46894   5.459   5.686   5.503 -0.3499 -0.4892  0.1013
  348MOL0     N46895   5.737   6.228   5.055  0.5280 -0.6911  0.1464
  348MOL0     N46896   5.790   6.312   4.973  0.3893  0.0145 -0.2785
  348MOL0     C46897   5.127   6.555   4.006 -0.1716 -0.1446  0.7095
  348MOL0     C46898   5.034   6.646   3.951  0.5302  0.2018 -1.1020
  348MOL0     C46899   4.779   6.906   3.718  0.4571 -0.1642  0.8711
  348MOL0     C46900   4.785   7.038   3.770 -0.6305 -0.0841  0.1195
  348MOL0     C46901   4.664   7.119   3.766 -0.4620  0.3355  1.4162
  348MOL0     C46902   4.547   7.078   3.694 -0.4901 -0.2391 -0.3698
  348MOL0     O46903   4.457   7.173   3.695  0.1036 -0.2124  0.9148
  348MOL0     C46904   4.329   7.154   3.627 -0.1408 -0.5322 -0.4866
  348MOL0     C46905   4.272   7.294   3.603 -0.0232  0.8678  0.2951
  348MOL0     C46906   4.353   7.371   3.489 -0.5131  0.2701 -1.0192
  348MOL0     C46907   4.384   7.297   3.362  0.0744  0.0015 -0.4525
  348MOL0     C46908   4.262   7.245   3.297 -0.0444  0.3196 -0.8485
  348MOL0     C46909   4.164   7.199   3.228  0.1892  0.3598 -0.0920
  348MOL0     C46910   4.546   6.952   3.638  0.6778  0.5765  0.0889
  348MOL0     C46911   4.652   6.862   3.671 -0.6572 -0.6679 -0.1953
  348MOL0     C46912   4.626   6.720   3.623 -0.2478  1.1461 -0.0521
  348MOL0     H46913   5.250   6.876   3.799  1.0935 -2.0218 -2.3800
  348MOL0     H46914   5.394   6.720   3.869 -0.7711 -0.1913 -0.2195
  348MOL0     H46915   5.308   6.460   4.196  0.4183 -0.0389  0.3992
  348MOL0     H46916   5.292   6.325   4.085 -4.0498  3.3040 -0.6318
  348MOL0     H46917   5.550   6.472   4.163 -3.2593  2.0016 -0.5682
  348MOL0     H46918   5.558   6.329   4.061  0.6136  2.4340 -0.8088
  348MOL0     H46919   5.642   6.265   4.261  0.6373  0.1312 -3.8428
  348MOL0     H46920   5.481   6.191   4.252  0.9288  0.0605  1.0603
  348MOL0     H46921   5.495   6.449   4.391  3.1992 -0.1466  5.6974
  348MOL0     H46922   5.389   6.308   4.425 -1.0844  0.1549  1.1900
  348MOL0     H46923   5.516   6.287   4.601  0.9678 -2.8631  0.5680
  348MOL0     H46924   5.607   6.187   4.496 -2.1535 -0.1272  0.4029
  348MOL0     H46925   5.756   6.381   4.427 -3.0033 -0.0938 -1.0349
  348MOL0     H46926   5.662   6.486   4.525 -1.0225 -0.5508 -0.6150
  348MOL0     H46927   5.881   6.371   4.634 -0.0292 -0.9292 -1.3717
  348MOL0     H46928   5.757   6.236   4.657  0.2538 -0.0672  1.6090
  348MOL0     H46929   5.783   6.500   4.786 -1.0934  1.0247 -2.4704
  348MOL0     H46930   5.624   6.448   4.731 -0.6056 -0.7225  2.3016
  348MOL0     H46931   5.532   6.221   4.816  0.7125 -2.6110 -0.2751
  348MOL0     H46932   5.542   6.094   5.202 -3.4572  2.6033 -0.7311
  348MOL0     H46933   5.440   6.114   5.080  0.5797  1.5916  0.6099
  348MOL0     H46934   5.463   5.869   5.095  1.1921 -2.9157 -1.8645
  348MOL0     H46935   5.560   5.911   4.957 -5.8859 -0.3204 -1.7041
  348MOL0     H46936   5.767   5.892   5.076 -0.6098 -1.5221 -0.8389
  348MOL0     H46937   5.666   5.753   5.103  0.0520  0.3245 -3.0197
  348MOL0     H46938   5.674   5.965   5.323 -0.9290  1.6017 -3.3250
  348MOL0     H46939   5.788   5.826   5.305  1.9727  3.2454 -1.7465
  348MOL0     H46940   5.697   5.912   5.572 -2.7857  2.2124 -3.9896
  348MOL0     H46941   5.626   5.855   5.793 -0.7818 -3.9709  2.6726
  348MOL0     H46942   5.351   5.948   6.103  3.0043 -0.4047 -1.3021
  348MOL0     H46943   5.307   5.946   6.352 -3.8065 -0.1683 -0.6812
  348MOL0     H46944   5.385   5.603   6.576 -0.7786  0.2358  2.1508
  348MOL0     H46945   5.548   5.640   6.585 -1.2709 -1.0206 -4.2462
  348MOL0     H46946   5.458   5.827   6.771 -1.7227  0.3729  0.2921
  348MOL0     H46947   5.317   5.730   6.752  0.0382 -1.2214  0.8258
  348MOL0     H46948   5.438   5.518   6.797 -2.1010 -0.4282  3.1682
  348MOL0     H46949   5.590   5.609   6.838 -0.5407 -0.2556  0.0341
  348MOL0     H46950   5.320   5.641   6.957  0.2462  2.5082 -0.0389
  348MOL0     H46951   5.464   5.732   7.000  0.5681 -0.3821  1.2865
  348MOL0     H46952   5.565   5.481   7.033  0.2454  0.5525 -3.7641
  348MOL0     H46953   5.389   5.443   7.055 -0.1969  0.8054 -1.2608
  348MOL0     H46954   5.571   5.605   7.222 -0.0008  0.0287  0.5526
  348MOL0     H46955   5.399   5.651   7.227  0.2085 -0.0873  1.0231
  348MOL0     H46956   5.339   5.436   7.313 -0.5258  1.2329 -1.3143
  348MOL0     H46957   5.475   5.506   7.406 -0.3710 -0.8875  0.3034
  348MOL0     H46958   5.484   5.289   7.201 -4.2603  2.5993  0.3435
  348MOL0     H46959   5.635   5.358   7.268  0.2180 -1.9195  0.0999
  348MOL0     H46960   5.545   5.588   6.379 -1.1253 -2.0268 -1.0621
  348MOL0     H46961   5.568   5.571   6.152  2.0072  1.2213  0.2128
  348MOL0     H46962   5.337   5.580   5.637 -0.4596 -0.5064  1.5109
  348MOL0     H46963   5.414   5.633   5.419  1.2301  1.4021 -2.0464
  348MOL0     H46964   5.092   6.460   4.043 -4.1088  0.5377 -0.7841
  348MOL0     H46965   4.930   6.627   3.974  0.8309  1.1029  1.2623
  348MOL0     H46966   4.874   7.072   3.822  0.2304 -2.5976  0.4318
  348MOL0     H46967   4.665   7.223   3.799  0.4194  1.1943 -1.1097
  348MOL0     H46968   4.263   7.108   3.701 -3.4115  1.9835 -1.5966
  348MOL0     H46969   4.331   7.114   3.525 -1.8279  0.9872 -1.1788
  348MOL0     H46970   4.254   7.336   3.702 -0.4511 -0.9420  1.0231
  348MOL0     H46971   4.166   7.293   3.574 -0.4570 -1.3950  1.6878
  348MOL0     H46972   4.452   7.403   3.523  2.1029 -2.7490 -4.8619
  348MOL0     H46973   4.294   7.457   3.457  1.0007  1.2526 -1.2502
  348MOL0     H46974   4.435   7.354   3.284  1.9072  0.5280  1.0556
  348MOL0     H46975   4.461   7.221   3.382  0.0969 -0.6339 -2.7278
  348MOL0     H46976   4.092   7.161   3.159 -1.6695 -0.7993  2.3275
  348MOL0     H46977   4.457   6.918   3.586 -0.9814  0.7829  2.6212
  348MOL0     H46978   4.519   6.706   3.603 -0.0745  0.4005 -0.5050
  348MOL0     H46979   4.684   6.700   3.532  0.5966  0.7069  0.5716
  348MOL0     H46980   4.652   6.649   3.702 -1.5746 -1.5978 -1.9087
  349MOL0     O46981   3.879   8.587   9.859  0.7656  0.5752 -0.2611
  349MOL0     C46982   3.900   8.648   9.966 -0.1371  0.6590  0.0312
  349MOL0     O46983   3.922   8.584  10.089  0.5624 -0.1121  0.0078
  349MOL0     C46984   3.904   8.444  10.094 -0.5328  0.3305 -0.8179
  349MOL0     C46985   4.016   8.369  10.101  0.7455  0.5005 -0.5693
  349MOL0     C46986   4.012   8.230  10.087 -0.7088  0.6712 -0.0868
  349MOL0     C46987   3.895   8.164  10.082  0.6529 -0.2730  1.4183
  349MOL0     O46988   3.889   8.030  10.075 -0.8548  0.3856  0.0937
  349MOL0     C46989   3.830   7.956  10.182 -1.0544 -0.7317 -0.4875
  349MOL0     C46990   3.823   7.810  10.134  0.1484  0.5654 -0.9034
  349MOL0     C46991   3.854   7.728  10.257 -0.4221  0.2147 -0.9515
  349MOL0     C46992   3.807   7.587  10.246  0.0327  0.6712 -0.0982
  349MOL0     C46993   3.667   7.579  10.309  0.4096 -0.1209 -0.1974
  349MOL0     C46994   3.630   7.435  10.315 -0.8496 -0.1996  0.5300
  349MOL0     C46995   3.487   7.423  10.357  0.7533  0.5436  0.8894
  349MOL0     C46996   3.453   7.276  10.371 -0.3096  0.1371 -0.2307
  349MOL0     N46997   3.464   7.223  10.508 -0.9941 -0.3014 -0.6598
  349MOL0     C46998   3.580   7.176  10.561 -0.4759  0.2460  0.2067
  349MOL0     C46999   3.577   7.188  10.693  0.0229 -1.1664 -0.7940
  349MOL0     C47000   3.691   7.174  10.787  0.4222 -0.9688  0.1998
  349MOL0     C47001   3.804   7.291  10.773 -0.2240  0.5098  0.1445
  349MOL0     C47002   3.748   7.435  10.769  0.2017 -0.1842  0.0998
  349MOL0     C47003   3.850   7.542  10.773 -0.7302 -0.3678  0.4312
  349MOL0     O47004   3.890   7.574  10.639 -0.5456  0.3547 -0.1699
  349MOL0     C47005   4.008   7.639  10.628  1.0451 -0.0173  1.3527
  349MOL0     C47006   4.087   7.635  10.519  1.0648  0.3025  1.2898
  349MOL0     C47007   4.215   7.688  10.504 -0.1609 -0.6386  0.1161
  349MOL0     C47008   4.265   7.758  10.617 -0.3052  0.3591 -0.6530
  349MOL0     C47009   4.406   7.817  10.620  1.1818  0.4967 -0.6344
  349MOL0     O47010   4.475   7.803  10.506  0.3074  0.6107 -0.2005
  349MOL0     C47011   4.583   7.875  10.462  0.3376 -0.3349 -0.0831
  349MOL0     C47012   4.644   7.810  10.354  0.3475 -0.9222  0.0473
  349MOL0     C47013   4.765   7.872  10.308 -0.7895  0.2890 -0.6261
  349MOL0     C47014   4.824   7.988  10.377  0.3321 -0.5021  1.1449
  349MOL0     O47015   4.938   8.041  10.333  1.3947 -0.7761  0.3104
  349MOL0     C47016   5.025   8.128  10.407 -0.1482 -0.3126 -0.0185
  349MOL0     C47017   5.090   8.049  10.527 -0.8802 -0.1156  0.9918
  349MOL0     C47018   5.203   8.132  10.584  0.2043  0.5021 -0.5090
  349MOL0     C47019   5.339   8.068  10.568 -0.2338 -0.2612  0.4884
  349MOL0     C47020   5.444   8.139  10.643  0.0320  0.1797 -0.5745
  349MOL0     C47021   5.446   8.293  10.627 -0.5761  0.0849 -1.1915
  349MOL0     C47022   5.455   8.342  10.486 -0.4991  0.5634  0.6085
  349MOL0     C47023   5.557   8.277  10.391  0.3850  0.1106  0.1671
  349MOL0    Cl47024   5.546   8.364  10.237  0.1326 -0.4806  0.0075
  349MOL0     C47025   4.748   8.049  10.478 -0.0718 -0.0771 -0.9493
  349MOL0     C47026   4.637   7.988  10.525  0.2615  0.1945  0.0107
  349MOL0     O47027   4.454   7.856  10.730  0.2745  0.0846 -0.3288
  349MOL0     C47028   4.191   7.756  10.734  0.0398 -1.4309 -0.2943
  349MOL0     C47029   4.058   7.711  10.734  0.2452 -0.0815  0.8135
  349MOL0     N47030   3.443   7.230  10.723 -0.1250 -0.6801 -0.0813
  349MOL0     N47031   3.380   7.255  10.611  0.9903  0.3724  0.0403
  349MOL0     C47032   3.775   8.233  10.090  0.3638  0.3442  0.2329
  349MOL0     C47033   3.778   8.380  10.095 -0.3529  0.0601  0.0300
  349MOL0     C47034   3.913   8.795   9.964 -0.9183 -0.5223 -0.2326
  349MOL0     C47035   3.914   8.860  10.087  0.6368  0.0939  0.0163
  349MOL0     C47036   3.924   8.999  10.105  0.6873  0.2962 -0.7015
  349MOL0     C47037   3.930   9.083  10.002 -0.0816  0.0828  0.9797
  349MOL0     O47038   3.939   9.221  10.037 -0.0127  1.0546 -0.2053
  349MOL0     C47039   3.967   9.310   9.925  0.1394  0.7573 -0.6981
  349MOL0     C47040   3.908   9.455   9.935  0.1757 -0.4019 -0.0054
  349MOL0     C47041   3.967   9.514  10.069  0.4351 -1.5690  0.5592
  349MOL0     C47042   3.967   9.660  10.056  0.3240  0.3870 -0.1582
  349MOL0     C47043   4.022   9.734  10.178  0.7921  0.8186  0.0445
  349MOL0     C47044   4.066   9.793  10.273  0.8541  0.4556  0.0874
  349MOL0     C47045   3.926   9.024   9.871  0.4666 -1.0318 -0.4738
  349MOL0     C47046   3.919   8.886   9.854 -0.3065  0.5173 -0.4003
  349MOL0     C47047   3.930   8.851   9.708  0.3230  0.1459 -0.7517
  349MOL0     H47048   4.112   8.420  10.108  0.1652  1.5348  0.2081
  349MOL0     H47049   4.098   8.163  10.084 -2.5044 -1.7231 -0.8279
  349MOL0     H47050   3.897   7.955  10.268 -1.7660 -2.3478  0.0833
  349MOL0     H47051   3.733   8.003  10.200  1.3204  4.3643  0.8076
  349MOL0     H47052   3.896   7.800  10.054  2.4466  1.8809  0.9043
  349MOL0     H47053   3.722   7.786  10.099  1.0260 -2.5196 -1.6088
  349MOL0     H47054   3.805   7.765  10.348  1.0770 -0.9717  0.3932
  349MOL0     H47055   3.960   7.719  10.282 -1.0504 -0.8522  1.6681
  349MOL0     H47056   3.792   7.552  10.144  1.0609 -0.5712  0.1563
  349MOL0     H47057   3.870   7.513  10.296 -1.6620 -1.0893 -0.4566
  349MOL0     H47058   3.660   7.606  10.415 -3.1185  1.2537 -0.6372
  349MOL0     H47059   3.588   7.640  10.264  1.6321  2.0793  0.4667
  349MOL0     H47060   3.652   7.389  10.218 -0.3301  2.4777 -0.7149
  349MOL0     H47061   3.693   7.379  10.383 -0.2061  0.1652  0.2469
  349MOL0     H47062   3.427   7.464  10.275  2.4661 -0.3097 -0.8691
  349MOL0     H47063   3.468   7.486  10.445  1.3299  0.2211  1.2556
  349MOL0     H47064   3.350   7.257  10.338 -0.9821  0.1727  1.7187
  349MOL0     H47065   3.516   7.215  10.306  1.2719  1.3682  0.0873
  349MOL0     H47066   3.657   7.163  10.486 -0.8886  1.7214 -0.5098
  349MOL0     H47067   3.646   7.175  10.886 -0.6713 -1.6061 -0.2830
  349MOL0     H47068   3.738   7.078  10.767  2.2570 -0.1635  0.4241
  349MOL0     H47069   3.866   7.274  10.861 -0.9691  0.2917  0.6333
  349MOL0     H47070   3.862   7.281  10.681  2.5620 -1.4759  1.9886
  349MOL0     H47071   3.685   7.452  10.857 -0.3391  1.1159 -0.5143
  349MOL0     H47072   3.680   7.457  10.686  0.9034 -2.3926 -1.1502
  349MOL0     H47073   3.935   7.512  10.835 -0.8252 -2.6442 -0.4460
  349MOL0     H47074   3.796   7.629  10.811  1.3249  1.1193  0.1498
  349MOL0     H47075   4.050   7.572  10.438  1.6929  0.0355  1.2068
  349MOL0     H47076   4.266   7.667  10.411 -2.2627 -1.2401 -0.9711
  349MOL0     H47077   4.595   7.727  10.302  1.4623 -2.1879  0.9399
  349MOL0     H47078   4.810   7.821  10.223 -0.3971 -0.0084 -0.2399
  349MOL0     H47079   5.103   8.169  10.342  0.2922  0.7554  1.1414
  349MOL0     H47080   4.961   8.214  10.430 -2.3964 -1.8256 -0.2519
  349MOL0     H47081   5.009   8.036  10.600 -2.1110 -3.1269 -0.7229
  349MOL0     H47082   5.117   7.953  10.484 -0.9738  0.8102 -1.2690
  349MOL0     H47083   5.200   8.234  10.545  3.0215  1.2469  0.9182
  349MOL0     H47084   5.189   8.140  10.692  5.2730  1.0391  0.3938
  349MOL0     H47085   5.349   8.055  10.460 -1.8023  1.2746  0.1038
  349MOL0     H47086   5.337   7.966  10.606 -2.9019  0.5398  2.9051
  349MOL0     H47087   5.540   8.093  10.623  1.6539  2.4828  1.2779
  349MOL0     H47088   5.416   8.128  10.748  0.4367 -1.2711 -0.5973
  349MOL0     H47089   5.353   8.337  10.664 -0.3748 -0.3468 -0.1189
  349MOL0     H47090   5.527   8.339  10.684 -2.5767 -0.3880  2.2698
  349MOL0     H47091   5.475   8.448  10.498 -3.0837  1.3132 -0.8426
  349MOL0     H47092   5.359   8.322  10.437  0.4779 -2.6556 -0.2424
  349MOL0     H47093   5.659   8.282  10.430  0.5047 -2.0278  0.2779
  349MOL0     H47094   5.528   8.173  10.370 -1.7035  1.0330 -2.0101
  349MOL0     H47095   4.786   8.139  10.526  1.3718  0.0858 -2.2900
  349MOL0     H47096   4.587   8.032  10.611 -0.0763  0.0627 -0.1202
  349MOL0     H47097   4.224   7.813  10.820  2.2530 -2.8962 -0.1142
  349MOL0     H47098   4.009   7.723  10.830 -1.1455 -2.7529  0.5238
  349MOL0     H47099   3.687   8.169  10.090  1.9625 -1.9880  0.3147
  349MOL0     H47100   3.685   8.435  10.096 -1.2131 -1.3313  0.1215
  349MOL0     H47101   3.919   8.804  10.180  1.5175 -1.7917 -1.1100
  349MOL0     H47102   3.930   9.038  10.206  1.9738 -2.7318  0.5137
  349MOL0     H47103   3.919   9.276   9.832 -1.5846  2.3577 -0.4300
  349MOL0     H47104   4.076   9.312   9.910  0.6928  1.1399  2.6787
  349MOL0     H47105   3.799   9.454   9.942  0.1899 -0.8343  0.2554
  349MOL0     H47106   3.944   9.505   9.845 -2.3570  0.0299 -0.8489
  349MOL0     H47107   4.065   9.479  10.102  1.5925  0.4470 -0.5242
  349MOL0     H47108   3.891   9.504  10.146 -0.0642  2.2584  0.7542
  349MOL0     H47109   4.025   9.687   9.967  1.8843 -1.3512  0.2809
  349MOL0     H47110   3.870   9.698  10.023  0.2265 -0.4079 -0.8063
  349MOL0     H47111   4.107   9.839  10.361 -1.5512 -1.6459  2.4763
  349MOL0     H47112   3.902   9.077   9.779 -2.4950 -0.9034  0.2596
  349MOL0     H47113   4.038   8.856   9.693  0.0602  0.9195 -2.7115
  349MOL0     H47114   3.899   8.751   9.676 -0.7670  1.1816 -3.2384
  349MOL0     H47115   3.890   8.928   9.642 -0.8809  0.1244 -0.0771
  350MOL0     O47116   1.007   4.460   0.112  0.2239  0.9304 -0.2461
  350MOL0     C47117   0.896   4.514   0.096  0.6959 -0.2763  0.0355
  350MOL0     O47118   0.824   4.525  -0.017  0.0549 -0.5698  0.1628
  350MOL0     C47119   0.848   4.431  -0.122  0.1117 -0.4249 -0.5753
  350MOL0     C47120   0.837   4.478  -0.250 -0.4746  0.8808  0.2649
  350MOL0     C47121   0.871   4.400  -0.356 -0.6585 -0.3763 -0.1912
  350MOL0     C47122   0.920   4.267  -0.337 -0.5918 -0.0928 -0.0739
  350MOL0     O47123   0.950   4.185  -0.445  0.8318  0.3006  0.4277
  350MOL0     C47124   1.079   4.191  -0.500  0.2400  0.7408  0.2310
  350MOL0     C47125   1.086   4.131  -0.643  0.4153 -0.3733 -0.4208
  350MOL0     C47126   1.022   3.992  -0.664  0.0302  0.9025  0.4462
  350MOL0     C47127   1.068   3.923  -0.794  0.1649  0.6657  0.7725
  350MOL0     C47128   0.991   3.802  -0.824  0.2702 -0.4485  0.7046
  350MOL0     C47129   0.831   3.817  -0.828  0.6304 -0.5821 -0.1461
  350MOL0     C47130   0.792   3.911  -0.955 -0.6056  0.9606  0.3364
  350MOL0     C47131   0.639   3.935  -0.937  0.4856  0.3628 -0.1161
  350MOL0     N47132   0.571   3.981  -1.065 -0.1279  0.4373 -0.1727
  350MOL0     C47133   0.536   3.900  -1.176  0.0278 -0.0639 -0.1942
  350MOL0     C47134   0.482   3.980  -1.273 -0.0153 -0.1266 -0.3443
  350MOL0     C47135   0.424   3.953  -1.412 -0.7989 -0.6081 -0.4197
  350MOL0     C47136   0.273   3.992  -1.414  0.7909  0.4009  0.3348
  350MOL0     C47137   0.238   4.138  -1.375  0.5914  0.1348 -0.3101
  350MOL0     C47138   0.098   4.188  -1.412  0.0805 -0.3358 -0.3933
  350MOL0     O47139   0.003   4.076  -1.426 -0.9221  0.2238 -0.1901
  350MOL0     C47140  -0.107   4.095  -1.501 -1.1355 -0.1879  0.2429
  350MOL0     C47141  -0.162   3.991  -1.569 -0.3435 -0.3817 -0.5031
  350MOL0     C47142  -0.279   4.012  -1.644  0.4023 -0.7056 -1.1819
  350MOL0     C47143  -0.340   4.135  -1.647  0.6029  0.6540  0.9964
  350MOL0     C47144  -0.463   4.152  -1.731  0.3687  0.9824  0.2320
  350MOL0     O47145  -0.483   4.272  -1.778 -0.2939 -0.2585  0.9112
  350MOL0     C47146  -0.593   4.293  -1.852  0.5902  0.6289  0.3324
  350MOL0     C47147  -0.678   4.410  -1.836 -0.0884 -0.0536  0.0144
  350MOL0     C47148  -0.770   4.445  -1.931 -0.0562 -0.5624  0.8077
  350MOL0     C47149  -0.784   4.374  -2.051  0.9948 -0.5446 -0.2773
  350MOL0     O47150  -0.868   4.425  -2.151 -0.7434 -0.0997  0.1596
  350MOL0     C47151  -0.810   4.426  -2.289  0.0058  0.3898  0.1351
  350MOL0     C47152  -0.820   4.555  -2.367 -0.5873 -1.2020  1.0785
  350MOL0     C47153  -0.824   4.554  -2.517 -0.9192  0.6689 -0.0168
  350MOL0     C47154  -0.957   4.502  -2.559 -0.9582  0.1570  0.7274
  350MOL0     C47155  -1.078   4.598  -2.546  0.2874 -0.8619 -0.3018
  350MOL0     C47156  -1.201   4.548  -2.630  0.2841  0.1435  0.0512
  350MOL0     C47157  -1.223   4.408  -2.594  0.5735  0.3149  0.4609
  350MOL0     C47158  -1.373   4.377  -2.635 -1.3825 -0.2416 -0.4639
  350MOL0    Cl47159  -1.405   4.406  -2.808  0.4987  0.2803  0.0756
  350MOL0     C47160  -0.716   4.251  -2.061 -0.6591 -0.2417  0.1846
  350MOL0     C47161  -0.615   4.215  -1.971  0.2795 -0.5428 -0.2177
  350MOL0     O47162  -0.540   4.053  -1.747  0.8640 -0.4822  0.1455
  350MOL0     C47163  -0.293   4.236  -1.569  0.0504 -1.1617 -0.5230
  350MOL0     C47164  -0.179   4.217  -1.493  0.0208 -0.5870  0.4595
  350MOL0     N47165   0.481   4.103  -1.216 -0.1224 -0.3127  1.0081
  350MOL0     N47166   0.527   4.099  -1.102 -0.0929 -0.7143 -0.6140
  350MOL0     C47167   0.924   4.213  -0.210  0.0195  0.0869 -0.2998
  350MOL0     C47168   0.890   4.296  -0.102  0.3336 -0.1885 -0.2817
  350MOL0     C47169   0.844   4.584   0.220  0.2358  0.8409 -1.0030
  350MOL0     C47170   0.759   4.698   0.206  0.5128  0.3879 -0.4909
  350MOL0     C47171   0.714   4.770   0.319  0.2524 -1.0278  0.1272
  350MOL0     C47172   0.737   4.719   0.447 -0.4083 -0.5488  0.1013
  350MOL0     O47173   0.690   4.781   0.552 -0.5210  0.1011  0.4254
  350MOL0     C47174   0.766   4.782   0.675  0.8621 -0.0830  0.7387
  350MOL0     C47175   0.715   4.892   0.760 -1.3589  0.5002 -0.6913
  350MOL0     C47176   0.712   5.025   0.682 -0.2938 -0.1371  0.1543
  350MOL0     C47177   0.726   5.145   0.781 -0.3481  0.7615  0.8538
  350MOL0     C47178   0.598   5.195   0.826 -0.4313 -0.8771 -1.2643
  350MOL0     C47179   0.494   5.220   0.894 -0.0834 -0.5810 -0.1409
  350MOL0     C47180   0.823   4.612   0.461 -0.3672 -0.2109  0.2409
  350MOL0     C47181   0.877   4.545   0.352 -0.2493  0.5246  1.2246
  350MOL0     C47182   0.966   4.425   0.390 -0.4350  0.0254 -0.0738
  350MOL0     H47183   0.808   4.581  -0.270 -2.0684  0.0844 -1.9728
  350MOL0     H47184   0.875   4.436  -0.458 -1.0060 -0.5079 -0.2496
  350MOL0     H47185   1.118   4.292  -0.511  3.5601 -0.6433 -2.6890
  350MOL0     H47186   1.134   4.136  -0.423  0.7250  0.3353 -0.3908
  350MOL0     H47187   1.194   4.119  -0.660  1.0554  0.9444  2.2437
  350MOL0     H47188   1.051   4.195  -0.725 -2.6231  1.1012  1.8412
  350MOL0     H47189   0.914   4.009  -0.670  0.1919  2.9780  2.1032
  350MOL0     H47190   1.043   3.925  -0.581  0.2610 -3.6512 -2.9133
  350MOL0     H47191   1.048   3.998  -0.870 -4.4472 -0.2244  0.8106
  350MOL0     H47192   1.174   3.893  -0.797  0.4676  1.6657 -2.9213
  350MOL0     H47193   1.033   3.770  -0.919  2.0586  1.5810  0.7263
  350MOL0     H47194   1.019   3.726  -0.750  0.4578 -4.0193 -2.6975
  350MOL0     H47195   0.792   3.715  -0.835  0.4096 -0.4882 -0.2987
  350MOL0     H47196   0.787   3.866  -0.741 -2.3349 -2.3784 -0.4906
  350MOL0     H47197   0.817   3.857  -1.047  0.7010  0.3054  1.0646
  350MOL0     H47198   0.854   4.001  -0.954  1.4097 -0.3851  1.2003
  350MOL0     H47199   0.599   3.839  -0.901  4.2559 -1.1011  0.5948
  350MOL0     H47200   0.618   4.008  -0.858 -0.9726 -1.4002  1.2361
  350MOL0     H47201   0.537   3.792  -1.173  2.9872 -0.1253  3.0800
  350MOL0     H47202   0.492   4.000  -1.484 -0.7076  0.0673  0.0948
  350MOL0     H47203   0.427   3.848  -1.440 -1.6572  0.0344 -3.2135
  350MOL0     H47204   0.236   3.977  -1.516 -0.1498  0.5980  0.6322
  350MOL0     H47205   0.225   3.921  -1.346 -1.4673  2.4760  1.0685
  350MOL0     H47206   0.317   4.205  -1.410  0.1690  1.0707  0.4662
  350MOL0     H47207   0.240   4.154  -1.267 -2.6223 -1.7066  0.1674
  350MOL0     H47208   0.108   4.241  -1.507 -1.4815 -0.5873 -0.7352
  350MOL0     H47209   0.075   4.256  -1.330  2.5709  2.2485 -1.6656
  350MOL0     H47210  -0.100   3.903  -1.556 -0.9327 -0.7015  0.2808
  350MOL0     H47211  -0.314   3.931  -1.707 -0.0854 -0.6939 -0.9267
  350MOL0     H47212  -0.662   4.478  -1.754  1.2999 -0.5315  0.1659
  350MOL0     H47213  -0.840   4.528  -1.924 -0.2505 -0.7316  0.8693
  350MOL0     H47214  -0.701   4.416  -2.289 -0.0690 -0.7373  1.2639
  350MOL0     H47215  -0.854   4.340  -2.340  2.0629 -1.1136  0.7453
  350MOL0     H47216  -0.906   4.610  -2.329  0.2608  0.5324  0.5847
  350MOL0     H47217  -0.730   4.617  -2.356 -2.4691  2.0070 -0.1522
  350MOL0     H47218  -0.808   4.653  -2.559 -0.5616  0.9045  0.6602
  350MOL0     H47219  -0.749   4.484  -2.556 -0.1851 -0.8653  3.6717
  350MOL0     H47220  -0.963   4.404  -2.511 -0.9075 -1.1170 -1.6773
  350MOL0     H47221  -0.949   4.473  -2.664 -2.2484  2.5197 -0.0946
  350MOL0     H47222  -1.051   4.699  -2.579 -1.8968 -0.9771 -2.7310
  350MOL0     H47223  -1.108   4.603  -2.441 -3.7536  0.5368 -1.3398
  350MOL0     H47224  -1.285   4.614  -2.608  1.7493  0.8543  4.5508
  350MOL0     H47225  -1.188   4.553  -2.738 -2.9275  0.7261 -0.4046
  350MOL0     H47226  -1.216   4.401  -2.485 -2.6213  0.0835  0.7385
  350MOL0     H47227  -1.151   4.338  -2.636 -0.6194 -1.3260  1.0347
  350MOL0     H47228  -1.394   4.270  -2.620 -1.1249 -0.4751 -1.6292
  350MOL0     H47229  -1.439   4.440  -2.576  1.1231 -1.1521  3.7249
  350MOL0     H47230  -0.745   4.193  -2.148  0.6003 -1.2629  0.4038
  350MOL0     H47231  -0.543   4.137  -1.994 -1.4629 -2.3004 -0.0306
  350MOL0     H47232  -0.336   4.335  -1.560  2.5325 -0.1929  2.0603
  350MOL0     H47233  -0.156   4.293  -1.420 -1.5712 -1.2736  1.7564
  350MOL0     H47234   0.948   4.110  -0.187 -0.3949 -0.3910 -1.8365
  350MOL0     H47235   0.912   4.258  -0.003  1.9308 -0.5298 -0.7436
  350MOL0     H47236   0.742   4.730   0.104 -0.4416 -1.2319 -0.8648
  350MOL0     H47237   0.652   4.859   0.309 -3.0519 -2.9207  1.8372
  350MOL0     H47238   0.872   4.808   0.666  1.0368 -0.7191  0.8747
  350MOL0     H47239   0.766   4.689   0.733  1.6321  0.2915  1.3464
  350MOL0     H47240   0.785   4.896   0.843 -0.6677  1.4934 -1.3111
  350MOL0     H47241   0.613   4.866   0.791 -1.3950  1.5465  0.0868
  350MOL0     H47242   0.627   5.028   0.614  0.3962  1.4921 -0.6929
  350MOL0     H47243   0.800   5.026   0.617  0.6901 -1.2528  1.4137
  350MOL0     H47244   0.800   5.126   0.859  0.6788  1.9882  0.2204
  350MOL0     H47245   0.775   5.227   0.727 -1.5119  0.1941 -1.1463
  350MOL0     H47246   0.402   5.235   0.947  0.7552 -1.9511  1.8081
  350MOL0     H47247   0.848   4.575   0.560  0.8219 -3.6792 -1.2058
  350MOL0     H47248   0.936   4.335   0.335  1.4203 -0.1418 -0.8829
  350MOL0     H47249   1.069   4.445   0.359 -0.3934 -1.0225 -0.6792
  350MOL0     H47250   0.969   4.402   0.497  1.4084  1.9321  0.3601
  351MOL0     O47251   8.591   5.508   2.571 -0.4665  0.5622 -0.2470
  351MOL0     C47252   8.585   5.629   2.582 -0.3175 -0.4458  0.2299
  351MOL0     O47253   8.665   5.721   2.511  0.1308 -0.0094  0.2038
  351MOL0     C47254   8.760   5.657   2.434  0.5972  0.1567 -1.1002
  351MOL0     C47255   8.879   5.599   2.481 -0.4381 -0.0079  0.0905
  351MOL0     C47256   8.975   5.539   2.395  0.3981 -0.7213 -0.3006
  351MOL0     C47257   8.953   5.524   2.256  0.2610 -0.0099 -0.4286
  351MOL0     O47258   9.033   5.454   2.168 -0.2748  0.2462 -0.2175
  351MOL0     C47259   9.133   5.366   2.228  0.3311 -0.6320  0.4224
  351MOL0     C47260   9.215   5.310   2.111  0.7262  0.4725 -0.2037
  351MOL0     C47261   9.274   5.408   2.020 -0.0301  0.8832 -0.0866
  351MOL0     C47262   9.320   5.351   1.893 -0.9082 -0.0631 -0.2466
  351MOL0     C47263   9.211   5.306   1.800  0.4028 -0.3094  0.9073
  351MOL0     C47264   9.279   5.269   1.668 -0.1993  0.8176  1.2098
  351MOL0     C47265   9.173   5.268   1.556  0.1462  1.0575 -1.0910
  351MOL0     C47266   9.214   5.213   1.421  0.0488 -0.4026 -0.2387
  351MOL0     N47267   9.333   5.279   1.351  0.9424 -0.1427 -0.1889
  351MOL0     C47268   9.466   5.272   1.392  0.3163  0.2102  0.4447
  351MOL0     C47269   9.542   5.352   1.309 -0.1672  0.1978 -0.8326
  351MOL0     C47270   9.683   5.396   1.321  0.7057 -0.2880  0.2615
  351MOL0     C47271   9.797   5.289   1.328  1.0249  0.0132  0.1009
  351MOL0     C47272   9.789   5.186   1.211  0.6905 -0.4744  0.7368
  351MOL0     C47273   9.805   5.227   1.066 -1.0012  0.2397  0.5299
  351MOL0     O47274   9.744   5.113   1.000  0.1622  0.0476  0.6818
  351MOL0     C47275   9.717   5.129   0.866 -0.3918 -0.0592  0.0796
  351MOL0     C47276   9.748   5.248   0.799 -0.1146 -0.0882  0.4471
  351MOL0     C47277   9.687   5.272   0.674 -0.3653 -0.2816  0.0493
  351MOL0     C47278   9.610   5.178   0.606  0.4419  0.3695 -0.0276
  351MOL0     C47279   9.553   5.211   0.475  0.4254 -0.5397  0.6676
  351MOL0     O47280   9.462   5.128   0.429  0.2077 -0.2088 -0.0760
  351MOL0     C47281   9.401   5.164   0.314 -0.4264 -0.8313  0.4814
  351MOL0     C47282   9.259   5.194   0.298 -0.4522  0.1038  0.2354
  351MOL0     C47283   9.212   5.204   0.168  0.5359 -0.5617 -0.2647
  351MOL0     C47284   9.286   5.192   0.061 -0.6986 -0.1218  0.4294
  351MOL0     O47285   9.242   5.199  -0.071  0.2126 -0.3699  0.2399
  351MOL0     C47286   9.111   5.147  -0.101  0.5357  0.7435 -0.3982
  351MOL0     C47287   9.009   5.241  -0.165 -0.6735  0.0192  0.2100
  351MOL0     C47288   9.067   5.288  -0.303 -0.4459 -0.0856  0.2456
  351MOL0     C47289   8.958   5.281  -0.406 -0.3671  0.9107 -0.5992
  351MOL0     C47290   8.851   5.388  -0.400 -0.9796 -0.5307  0.9646
  351MOL0     C47291   8.756   5.386  -0.524 -0.1772  0.2485  0.1316
  351MOL0     C47292   8.830   5.403  -0.661 -0.1193  0.5107  0.1954
  351MOL0     C47293   8.822   5.540  -0.720 -0.2291  0.6856  0.0952
  351MOL0    Cl47294   8.639   5.587  -0.722 -0.2266 -0.4130 -0.3020
  351MOL0     C47295   9.427   5.174   0.069  0.6370  0.3839  0.6901
  351MOL0     C47296   9.483   5.161   0.195 -0.2231  0.0453  1.0437
  351MOL0     O47297   9.576   5.318   0.420  0.7167  0.0521  0.3974
  351MOL0     C47298   9.590   5.054   0.673 -0.2138  0.3613  0.2569
  351MOL0     C47299   9.650   5.030   0.792 -0.3481 -0.8345 -0.3557
  351MOL0     N47300   9.461   5.394   1.215  0.3091 -0.3909 -0.1486
  351MOL0     N47301   9.335   5.353   1.240 -0.3288 -0.3083 -0.4145
  351MOL0     C47302   8.841   5.587   2.206 -0.1349  0.0376  0.1832
  351MOL0     C47303   8.754   5.666   2.294  0.2471 -0.0792 -0.6600
  351MOL0     C47304   8.475   5.680   2.674 -0.1063  0.3156 -0.6460
  351MOL0     C47305   8.441   5.595   2.777  0.1892  0.2877  0.3046
  351MOL0     C47306   8.346   5.625   2.865 -0.6640  0.8558  0.3795
  351MOL0     C47307   8.288   5.748   2.867 -0.5442  0.2537  0.3864
  351MOL0     O47308   8.201   5.791   2.966 -0.2584  0.3007  0.1497
  351MOL0     C47309   8.265   5.815   3.089 -0.2916 -0.1714  0.0386
  351MOL0     C47310   8.357   5.936   3.091  0.7827 -0.8015 -0.0367
  351MOL0     C47311   8.435   5.953   3.223  1.0413  0.0421  0.1481
  351MOL0     C47312   8.525   6.073   3.230 -0.8313 -0.6507 -0.1945
  351MOL0     C47313   8.595   6.099   3.361  0.7439  1.5199  0.3196
  351MOL0     C47314   8.680   6.124   3.445  0.0542 -0.5375  0.4747
  351MOL0     C47315   8.313   5.841   2.760 -0.0839  0.4751  0.2523
  351MOL0     C47316   8.412   5.810   2.666  0.4320  0.2706  0.3310
  351MOL0     C47317   8.447   5.924   2.565  1.3476 -0.3208 -0.4471
  351MOL0     H47318   8.894   5.609   2.588  1.0080  0.3641 -0.1262
  351MOL0     H47319   9.064   5.496   2.440 -0.6580 -0.1334  2.6114
  351MOL0     H47320   9.200   5.422   2.294  0.3217 -1.6028  1.2757
  351MOL0     H47321   9.081   5.287   2.284 -1.2581  0.0878  0.0370
  351MOL0     H47322   9.151   5.243   2.053  1.2894  0.9896 -1.4545
  351MOL0     H47323   9.298   5.261   2.163  0.8838  1.4950  0.5434
  351MOL0     H47324   9.356   5.462   2.068 -0.6258  1.2783  0.4912
  351MOL0     H47325   9.198   5.482   1.992  0.6034  0.7111 -2.5402
  351MOL0     H47326   9.385   5.426   1.845 -0.8102  0.4536  0.6701
  351MOL0     H47327   9.384   5.267   1.923 -0.7151  0.7784  1.8671
  351MOL0     H47328   9.144   5.226   1.834 -1.4402  1.0748  0.6532
  351MOL0     H47329   9.139   5.384   1.775  0.8169 -0.9175 -2.8599
  351MOL0     H47330   9.357   5.340   1.640  1.5953 -0.4894  2.5696
  351MOL0     H47331   9.326   5.171   1.684 -2.4647 -0.3362  1.1886
  351MOL0     H47332   9.143   5.370   1.533  0.5104  1.3818 -0.1530
  351MOL0     H47333   9.089   5.212   1.599  1.6055 -0.1074  0.3745
  351MOL0     H47334   9.243   5.110   1.441 -1.1764 -0.9303 -1.0394
  351MOL0     H47335   9.134   5.223   1.347  0.3676 -0.8203 -0.6421
  351MOL0     H47336   9.511   5.225   1.479  3.4529  1.8553 -0.1206
  351MOL0     H47337   9.696   5.460   1.233 -2.3920  1.6289  1.0524
  351MOL0     H47338   9.680   5.461   1.409  0.6745  0.5527 -0.3479
  351MOL0     H47339   9.898   5.331   1.330  0.5504  1.2187  0.1160
  351MOL0     H47340   9.775   5.239   1.422 -1.7466 -0.4810 -0.7103
  351MOL0     H47341   9.693   5.137   1.227  1.1584 -1.2408  1.2734
  351MOL0     H47342   9.866   5.114   1.240  0.5218 -0.5991  0.8693
  351MOL0     H47343   9.909   5.231   1.031 -1.5274  1.0477 -1.0150
  351MOL0     H47344   9.751   5.321   1.050 -0.4545  0.6120  0.8239
  351MOL0     H47345   9.816   5.321   0.841  3.1435 -2.8333  0.3695
  351MOL0     H47346   9.690   5.374   0.636  1.8563 -0.7035 -1.0740
  351MOL0     H47347   9.189   5.214   0.379 -0.7693 -1.2574  0.3154
  351MOL0     H47348   9.108   5.233   0.160  0.9127  1.2997  0.8001
  351MOL0     H47349   9.128   5.059  -0.163  0.2762  1.8118 -2.0235
  351MOL0     H47350   9.056   5.111  -0.013 -2.3124  1.3702 -1.8123
  351MOL0     H47351   8.920   5.181  -0.186 -0.5086 -0.4391  0.8074
  351MOL0     H47352   8.999   5.327  -0.098  3.7384  0.5235  0.4843
  351MOL0     H47353   9.097   5.393  -0.299 -4.6395  1.2692  0.4556
  351MOL0     H47354   9.152   5.225  -0.332 -1.0314 -0.6590 -0.2457
  351MOL0     H47355   8.907   5.186  -0.390 -2.7097  0.9517 -5.7641
  351MOL0     H47356   9.007   5.267  -0.503 -2.4568 -1.0304 -1.4535
  351MOL0     H47357   8.894   5.488  -0.397 -2.3010  0.1642 -0.9698
  351MOL0     H47358   8.783   5.374  -0.315 -0.8886  0.8417  1.2781
  351MOL0     H47359   8.706   5.288  -0.528  0.5755 -0.1100 -0.9077
  351MOL0     H47360   8.676   5.459  -0.507  1.5539  1.8561  1.7559
  351MOL0     H47361   8.801   5.330  -0.737  2.3862 -0.6222  0.2338
  351MOL0     H47362   8.936   5.375  -0.663 -0.4988 -1.0483  0.5068
  351MOL0     H47363   8.881   5.615  -0.667  0.3469  0.1999  0.1489
  351MOL0     H47364   8.850   5.532  -0.825  1.4840  0.0262  0.5825
  351MOL0     H47365   9.498   5.180  -0.013  0.0900  0.5733  0.2297
  351MOL0     H47366   9.592   5.162   0.195 -0.2174  0.2352  0.1523
  351MOL0     H47367   9.513   4.987   0.638 -0.4397 -0.2107  1.7605
  351MOL0     H47368   9.616   4.940   0.842 -1.7229  0.8768  1.9831
  351MOL0     H47369   8.830   5.582   2.098  2.1775  1.8800 -0.2196
  351MOL0     H47370   8.667   5.720   2.259  0.2691  0.3064 -0.1321
  351MOL0     H47371   8.509   5.512   2.794 -0.6888 -1.1925 -2.6526
  351MOL0     H47372   8.313   5.551   2.938 -0.6067 -0.6099 -1.0238
  351MOL0     H47373   8.310   5.723   3.129  2.3727  0.3298 -1.5651
  351MOL0     H47374   8.180   5.846   3.151 -2.4123 -3.0270 -1.2207
  351MOL0     H47375   8.308   6.033   3.082  1.6660 -0.1656  1.5564
  351MOL0     H47376   8.434   5.922   3.015 -0.0034  2.3984 -1.6024
  351MOL0     H47377   8.508   5.872   3.232  3.8756  2.3369 -0.3980
  351MOL0     H47378   8.356   5.962   3.298  1.5791  0.1629  0.7067
  351MOL0     H47379   8.615   6.069   3.167 -0.7427 -1.8756 -0.0107
  351MOL0     H47380   8.462   6.160   3.209 -0.9371  0.5357  4.2052
  351MOL0     H47381   8.760   6.125   3.516  0.5550 -0.6918 -0.0816
  351MOL0     H47382   8.260   5.934   2.745 -2.1404 -0.8075 -1.0862
  351MOL0     H47383   8.369   6.001   2.565  0.4688 -1.0139 -4.1217
  351MOL0     H47384   8.538   5.975   2.597 -0.2361  3.0067 -0.8151
  351MOL0     H47385   8.452   5.897   2.459 -0.4722 -0.8250 -0.4326
  352MOL0     O47386   3.157   0.929  10.217  0.2582 -0.0873  0.2954
  352MOL0     C47387   3.111   0.825  10.268  1.2612  0.2419  0.3453
  352MOL0     O47388   3.165   0.701  10.242 -0.6142  0.1716  0.1774
  352MOL0     C47389   3.302   0.703  10.239  0.3665 -0.0440 -0.2587
  352MOL0     C47390   3.359   0.689  10.370 -0.4604  1.0551  0.5196
  352MOL0     C47391   3.496   0.698  10.383  0.6818 -0.6471 -0.0153
  352MOL0     C47392   3.579   0.741  10.284  0.8668 -0.4082  0.4749
  352MOL0     O47393   3.714   0.766  10.296  0.3355  0.5566  0.3190
  352MOL0     C47394   3.783   0.777  10.420  0.0281 -0.1807  0.2417
  352MOL0     C47395   3.919   0.840  10.380 -0.2047  0.2034 -0.3132
  352MOL0     C47396   4.029   0.809  10.486  0.5132 -0.8310 -0.6569
  352MOL0     C47397   4.158   0.859  10.447  0.5153  0.1461 -0.1466
  352MOL0     C47398   4.268   0.789  10.522 -0.1032 -0.4601 -0.0019
  352MOL0     C47399   4.256   0.781  10.673 -0.2794  0.0702 -0.4875
  352MOL0     C47400   4.269   0.907  10.739  0.4272  0.1350 -0.4396
  352MOL0     C47401   4.390   1.000  10.731  0.6472  0.4081 -0.2385
  352MOL0     N47402   4.514   0.950  10.804  0.7454  0.9800  0.0392
  352MOL0     C47403   4.640   0.990  10.778  0.4602 -0.4358  0.6370
  352MOL0     C47404   4.715   0.905  10.847 -0.5809  0.2020  0.5638
  352MOL0     C47405   4.867   0.902  10.838 -0.2029  0.0382  0.4472
  352MOL0     C47406   4.928   1.030  10.899  0.2119 -0.1342 -0.1103
  352MOL0     C47407   4.929   1.040  11.051 -0.6886  0.1213 -0.4807
  352MOL0     C47408   5.022   1.143  11.110  0.1476  0.3758  1.1738
  352MOL0     O47409   4.956   1.275  11.092  0.5083  0.0068 -0.7849
  352MOL0     C47410   5.034   1.386  11.115  0.7446  0.7701 -0.1158
  352MOL0     C47411   4.969   1.502  11.095  1.4767  0.0448  0.7318
  352MOL0     C47412   5.041   1.627  11.104  1.0574  0.9009 -0.3461
  352MOL0     C47413   5.176   1.630  11.143 -0.1453  0.2030  0.1835
  352MOL0     C47414   5.241   1.760  11.173 -0.4144 -0.2368  0.0811
  352MOL0     O47415   5.384   1.771  11.149  0.1505  0.2210  1.1821
  352MOL0     C47416   5.444   1.892  11.130 -0.1846 -0.7936  0.5211
  352MOL0     C47417   5.376   2.013  11.110  0.6353 -0.2096  0.6224
  352MOL0     C47418   5.449   2.138  11.096 -0.7000 -0.4320 -0.3096
  352MOL0     C47419   5.584   2.139  11.116 -0.2795 -0.3393  0.7482
  352MOL0     O47420   5.636   2.263  11.106 -0.2309 -0.3714 -0.5117
  352MOL0     C47421   5.775   2.280  11.055 -0.2395  0.0976  0.1101
  352MOL0     C47422   5.810   2.429  11.070 -0.6315 -0.2082 -0.0921
  352MOL0     C47423   5.835   2.479  11.218 -0.3332 -0.1340  0.1993
  352MOL0     C47424   5.711   2.520  11.289  0.0250  1.1974  0.0486
  352MOL0     C47425   5.750   2.566  11.436  0.5440 -0.3886  0.2330
  352MOL0     C47426   5.628   2.626  11.511 -0.0637 -0.0183 -1.0072
  352MOL0     C47427   5.643   2.695  11.648  0.0106 -0.5453 -0.4224
  352MOL0     C47428   5.664   2.614  11.774 -0.4893  0.2620 -0.8123
  352MOL0    Cl47429   5.499   2.583  11.859  0.5584  0.1960 -0.1358
  352MOL0     C47430   5.658   2.023  11.146 -0.3681 -0.6703 -1.0961
  352MOL0     C47431   5.584   1.902  11.144 -0.3475  0.9455  0.3421
  352MOL0     O47432   5.162   1.853  11.215  0.6774 -0.2199 -0.4990
  352MOL0     C47433   5.243   1.512  11.167  0.3415 -0.2029 -1.5338
  352MOL0     C47434   5.178   1.389  11.157  0.4010  0.1638  0.2768
  352MOL0     N47435   4.642   0.837  10.937 -0.1815  0.5766 -0.2024
  352MOL0     N47436   4.520   0.843  10.893 -1.0707 -0.0861  0.4992
  352MOL0     C47437   3.525   0.756  10.152  0.6224  0.1998  0.3339
  352MOL0     C47438   3.381   0.743  10.127  0.7664  0.7979 -0.1205
  352MOL0     C47439   2.980   0.841  10.332  0.9246  0.3621 -0.5376
  352MOL0     C47440   2.888   0.742  10.334 -0.6324  0.5713  0.6828
  352MOL0     C47441   2.774   0.743  10.411  1.7402 -0.0402 -0.5168
  352MOL0     C47442   2.742   0.849  10.486  0.6359 -0.1801 -0.4856
  352MOL0     O47443   2.628   0.843  10.564 -0.9526 -0.1356 -1.0693
  352MOL0     C47444   2.534   0.941  10.539  0.0500  0.5638 -0.0137
  352MOL0     C47445   2.459   0.935  10.403 -0.1516  0.5146 -0.1466
  352MOL0     C47446   2.354   0.809  10.407 -0.3784 -1.3512  0.6866
  352MOL0     C47447   2.397   0.693  10.495  0.5291  0.1995 -0.6509
  352MOL0     C47448   2.320   0.571  10.470  0.5407 -0.0875  0.2275
  352MOL0     C47449   2.235   0.485  10.441  0.3304  0.7806 -0.5414
  352MOL0     C47450   2.818   0.965  10.466  0.8687  1.4260  1.1738
  352MOL0     C47451   2.939   0.965  10.398 -0.4125  0.2738 -0.4005
  352MOL0     C47452   3.025   1.091  10.404 -0.3690  0.8043  0.5379
  352MOL0     H47453   3.299   0.675  10.459 -1.9148  0.9101 -0.4432
  352MOL0     H47454   3.526   0.699  10.487  0.5023 -0.5276  0.0355
  352MOL0     H47455   3.727   0.843  10.486 -1.4161 -1.9896  0.9305
  352MOL0     H47456   3.808   0.682  10.468  2.1125  1.5075  2.7625
  352MOL0     H47457   3.909   0.948  10.375  3.3722  0.6527 -0.6590
  352MOL0     H47458   3.958   0.808  10.283  1.1260  1.5267 -0.2488
  352MOL0     H47459   4.039   0.701  10.502 -1.3602 -1.0456 -0.7134
  352MOL0     H47460   4.001   0.860  10.579  1.2526 -0.7102 -0.4952
  352MOL0     H47461   4.172   0.842  10.340  0.3332  1.7782 -0.4562
  352MOL0     H47462   4.166   0.967  10.461  0.5568  0.1821 -0.4490
  352MOL0     H47463   4.257   0.686  10.487 -0.9611 -0.3863  0.0267
  352MOL0     H47464   4.367   0.829  10.499 -1.3655  3.8100  1.0583
  352MOL0     H47465   4.162   0.737  10.709  2.0113 -1.6452  4.2029
  352MOL0     H47466   4.332   0.712  10.711 -0.7347  0.1954  0.7072
  352MOL0     H47467   4.244   0.897  10.845  2.5255  0.4266  0.1446
  352MOL0     H47468   4.179   0.957  10.702  1.1318  3.2504  1.6588
  352MOL0     H47469   4.403   1.025  10.626  1.5196 -1.9291 -0.7573
  352MOL0     H47470   4.359   1.096  10.773 -2.3486  0.9033 -3.1612
  352MOL0     H47471   4.676   1.063  10.706  1.6620 -2.1983 -0.6363
  352MOL0     H47472   4.910   0.817  10.892 -1.7033 -1.2562 -0.3229
  352MOL0     H47473   4.885   0.893  10.730 -3.3317 -3.3467  0.0494
  352MOL0     H47474   5.034   1.024  10.873  0.4695 -0.5085  0.9964
  352MOL0     H47475   4.887   1.118  10.848  2.0109  1.2500  0.7065
  352MOL0     H47476   4.947   0.942  11.096  2.7148  2.4938  4.2110
  352MOL0     H47477   4.830   1.067  11.088  0.6040  1.1144  2.5559
  352MOL0     H47478   5.124   1.133  11.071 -0.5767 -3.4145 -0.2050
  352MOL0     H47479   5.029   1.133  11.219 -4.4816  0.9091  1.7257
  352MOL0     H47480   4.864   1.505  11.071  1.5607  1.0941  0.4439
  352MOL0     H47481   4.976   1.713  11.093  1.5866  1.2662 -0.6035
  352MOL0     H47482   5.268   2.027  11.103  0.6018 -0.2336  1.0601
  352MOL0     H47483   5.394   2.229  11.072 -0.9847 -1.0790 -2.3250
  352MOL0     H47484   5.848   2.228  11.118  2.0333  1.6347 -1.0989
  352MOL0     H47485   5.780   2.242  10.953 -1.4169 -0.4792  0.2587
  352MOL0     H47486   5.895   2.446  11.003  0.0415  0.3547  0.8784
  352MOL0     H47487   5.726   2.488  11.032 -0.8005 -1.0257 -1.0278
  352MOL0     H47488   5.872   2.388  11.267  0.2300 -0.6637 -1.1682
  352MOL0     H47489   5.897   2.569  11.210  0.3733 -0.5756  0.5334
  352MOL0     H47490   5.640   2.439  11.307 -1.3505  2.5550  0.9567
  352MOL0     H47491   5.662   2.590  11.220 -0.6979 -0.6298 -1.3793
  352MOL0     H47492   5.826   2.644  11.426  0.2409  0.2445  2.2973
  352MOL0     H47493   5.792   2.480  11.489  0.6300  0.6344  1.9307
  352MOL0     H47494   5.578   2.697  11.444  1.3106 -1.4816 -3.7518
  352MOL0     H47495   5.555   2.547  11.532 -2.1657  2.3018  1.1144
  352MOL0     H47496   5.554   2.750  11.679  1.6778  0.0466  4.1949
  352MOL0     H47497   5.717   2.775  11.635 -0.6102  0.0441 -0.3643
  352MOL0     H47498   5.710   2.515  11.763  0.2357  0.6554 -1.3997
  352MOL0     H47499   5.735   2.670  11.835  0.6302 -1.1681 -0.7601
  352MOL0     H47500   5.765   2.020  11.163 -0.1559  1.6704 -1.6045
  352MOL0     H47501   5.641   1.814  11.174 -1.4968  0.7488  2.0653
  352MOL0     H47502   5.341   1.525  11.211 -0.3311 -1.5144  0.5030
  352MOL0     H47503   5.234   1.304  11.193 -0.5916 -0.5941  0.0858
  352MOL0     H47504   3.598   0.785  10.077  1.1452 -0.8989  0.3912
  352MOL0     H47505   3.330   0.748  10.032  2.5130 -1.6211 -1.3207
  352MOL0     H47506   2.920   0.655  10.277  1.3361  2.4030 -1.1470
  352MOL0     H47507   2.700   0.665  10.404 -1.7505  3.0769 -1.7161
  352MOL0     H47508   2.577   1.040  10.560 -1.7585  1.2548  0.6621
  352MOL0     H47509   2.456   0.942  10.616  1.1360  1.8852  1.1411
  352MOL0     H47510   2.534   0.931  10.323  0.7541 -1.0438  0.7146
  352MOL0     H47511   2.391   1.019  10.390  0.2101  0.8823  0.3284
  352MOL0     H47512   2.346   0.771  10.305 -1.5167  0.2361  0.1388
  352MOL0     H47513   2.254   0.844  10.433  1.0906  3.5078  0.9517
  352MOL0     H47514   2.501   0.663  10.485  0.7212  0.1204  1.2140
  352MOL0     H47515   2.366   0.723  10.596 -1.0244 -1.7890 -0.4529
  352MOL0     H47516   2.166   0.411  10.409 -0.7971  1.3001  0.5950
  352MOL0     H47517   2.789   1.058  10.516 -0.1451  0.9494  1.4960
  352MOL0     H47518   3.011   1.153  10.315  2.4330  0.1795 -0.4270
  352MOL0     H47519   2.991   1.161  10.481 -1.7543  0.3212  0.4039
  352MOL0     H47520   3.126   1.054  10.418 -0.7953  0.1039  1.9745
  353MOL0     O47521   1.054   8.649   1.628  0.3938  0.3487 -0.4744
  353MOL0     C47522   1.059   8.693   1.511 -0.3506  0.1976 -0.4000
  353MOL0     O47523   1.165   8.658   1.425  0.9807 -0.1309 -0.0026
  353MOL0     C47524   1.239   8.549   1.433  0.1088 -0.0320 -0.1034
  353MOL0     C47525   1.193   8.413   1.468  0.6309 -0.6746 -1.1317
  353MOL0     C47526   1.281   8.299   1.460  0.0220 -0.3938  0.6330
  353MOL0     C47527   1.410   8.321   1.412  0.2758  0.3695  0.0342
  353MOL0     O47528   1.493   8.222   1.423 -0.8110 -0.1916 -0.0741
  353MOL0     C47529   1.557   8.195   1.296  1.2377  0.2157 -0.4904
  353MOL0     C47530   1.571   8.036   1.296 -0.9504 -0.9403  0.5322
  353MOL0     C47531   1.447   7.967   1.239 -0.0020  0.0357  0.5462
  353MOL0     C47532   1.422   7.831   1.301 -0.0559 -0.7761 -0.3869
  353MOL0     C47533   1.516   7.719   1.251  0.3624  0.3214  0.7101
  353MOL0     C47534   1.660   7.717   1.295 -0.6544 -0.0580  0.5803
  353MOL0     C47535   1.731   7.585   1.264  0.2629 -0.1167  0.0355
  353MOL0     C47536   1.761   7.557   1.114 -0.6622 -0.8048 -0.0053
  353MOL0     N47537   1.803   7.417   1.100  0.5200  0.0614 -0.8428
  353MOL0     C47538   1.731   7.305   1.127  0.5184  0.3339  0.2498
  353MOL0     C47539   1.815   7.207   1.102 -0.0942  0.9836  0.1973
  353MOL0     C47540   1.785   7.062   1.123  0.3992  0.3647  0.2335
  353MOL0     C47541   1.784   7.033   1.279 -0.3758 -0.7535  1.0543
  353MOL0     C47542   1.865   6.918   1.309  0.3000 -0.2023 -0.4061
  353MOL0     C47543   1.944   6.945   1.436 -0.8509 -0.2678  0.1147
  353MOL0     O47544   2.032   6.831   1.453  0.3056 -0.5387 -0.1909
  353MOL0     C47545   2.147   6.821   1.376 -0.6738 -0.3032  0.0715
  353MOL0     C47546   2.215   6.706   1.410  0.8050  0.2248  0.4154
  353MOL0     C47547   2.341   6.679   1.356  0.5742 -0.4663 -0.0306
  353MOL0     C47548   2.403   6.777   1.275 -0.6089 -0.3887 -0.2157
  353MOL0     C47549   2.550   6.760   1.233  0.5489 -1.2482  0.2233
  353MOL0     O47550   2.616   6.847   1.149  0.0613  0.7843 -0.2539
  353MOL0     C47551   2.741   6.811   1.098 -0.7019  0.8409 -0.1601
  353MOL0     C47552   2.758   6.696   1.031  1.1976 -0.4413 -0.1195
  353MOL0     C47553   2.876   6.652   0.963  0.3419  0.5488 -0.2417
  353MOL0     C47554   2.995   6.725   0.981 -1.0205 -0.2728 -0.0432
  353MOL0     O47555   3.110   6.667   0.926  0.6927 -0.5226  0.2103
  353MOL0     C47556   3.231   6.731   0.948  0.3984 -0.3216  0.5193
  353MOL0     C47557   3.330   6.683   0.850  0.0039  0.6933 -0.1480
  353MOL0     C47558   3.376   6.536   0.885 -0.4050 -0.4630  0.2026
  353MOL0     C47559   3.473   6.491   0.780  0.5984 -0.4552  1.1752
  353MOL0     C47560   3.547   6.368   0.832 -0.3577  0.4527  0.0959
  353MOL0     C47561   3.622   6.314   0.706  1.3027  0.7155  0.1937
  353MOL0     C47562   3.559   6.198   0.628  0.6377  0.5957  0.0450
  353MOL0     C47563   3.563   6.068   0.707 -0.2307  0.1102 -0.3650
  353MOL0    Cl47564   3.538   5.940   0.589  0.5189  1.1911  0.4682
  353MOL0     C47565   2.986   6.843   1.058 -0.0961  1.1418 -0.0720
  353MOL0     C47566   2.862   6.883   1.123 -0.4028  0.0132  0.0351
  353MOL0     O47567   2.599   6.661   1.289  0.5787 -0.7133  0.1154
  353MOL0     C47568   2.334   6.900   1.239  0.8074 -0.7417 -0.3344
  353MOL0     C47569   2.200   6.919   1.290  0.9791  0.1120  0.7965
  353MOL0     N47570   1.939   7.251   1.064  0.4627  0.2867 -0.4424
  353MOL0     N47571   1.932   7.378   1.065  0.2570 -0.4308 -0.4375
  353MOL0     C47572   1.450   8.451   1.373  0.9372  0.5022  0.2857
  353MOL0     C47573   1.366   8.561   1.381 -0.2293 -0.4336  0.4458
  353MOL0     C47574   0.958   8.790   1.470  0.5977 -0.4459 -0.0964
  353MOL0     C47575   0.974   8.861   1.352  0.7908  0.1292  0.5793
  353MOL0     C47576   0.883   8.956   1.309  0.4058 -0.1371 -0.7145
  353MOL0     C47577   0.771   8.992   1.384 -0.5618 -0.1006 -0.2050
  353MOL0     O47578   0.693   9.098   1.345 -0.4796 -0.4834 -0.2013
  353MOL0     C47579   0.616   9.069   1.236  0.0085  0.1060 -0.6107
  353MOL0     C47580   0.674   9.137   1.112  0.2725 -1.2785 -0.2637
  353MOL0     C47581   0.691   9.290   1.132 -0.6062 -0.1134  0.2936
  353MOL0     C47582   0.638   9.376   1.006  1.1259  0.7902  0.2709
  353MOL0     C47583   0.631   9.521   1.037  0.1568  0.4191  0.2709
  353MOL0     C47584   0.612   9.636   1.069 -0.7649  1.4506  0.1216
  353MOL0     C47585   0.747   8.930   1.505  0.4305  0.1084 -0.5384
  353MOL0     C47586   0.835   8.827   1.554 -1.0778  0.2049 -0.3129
  353MOL0     C47587   0.804   8.761   1.690 -0.4292 -0.0202 -0.2372
  353MOL0     H47588   1.092   8.396   1.505 -2.3795  4.4086 -5.5350
  353MOL0     H47589   1.240   8.207   1.502 -1.1759 -0.0992  0.1168
  353MOL0     H47590   1.492   8.229   1.215  0.0929  1.9591  1.0627
  353MOL0     H47591   1.653   8.248   1.297  2.2474 -1.3097  3.1695
  353MOL0     H47592   1.591   8.004   1.398 -1.3187 -0.1933  0.8465
  353MOL0     H47593   1.663   8.023   1.237 -0.9156  4.6463 -1.1798
  353MOL0     H47594   1.447   7.960   1.130  1.9810  2.1954  0.3411
  353MOL0     H47595   1.361   8.024   1.275 -1.5928 -2.1750  0.4844
  353MOL0     H47596   1.429   7.842   1.409  0.6069 -2.4082 -0.2283
  353MOL0     H47597   1.319   7.797   1.286 -0.5361  0.4406  0.0351
  353MOL0     H47598   1.473   7.619   1.261 -1.8954  1.0217 -1.0039
  353MOL0     H47599   1.503   7.732   1.143  1.3279  0.3420  0.5844
  353MOL0     H47600   1.713   7.802   1.250 -0.3348 -1.5849 -2.1169
  353MOL0     H47601   1.667   7.728   1.404 -3.8278 -0.1674  0.9020
  353MOL0     H47602   1.683   7.498   1.312  0.4337 -1.2033 -1.6792
  353MOL0     H47603   1.830   7.574   1.309 -0.1247 -2.7483  0.4260
  353MOL0     H47604   1.666   7.578   1.065  0.5212  2.2970 -1.1907
  353MOL0     H47605   1.836   7.629   1.081 -1.0316 -0.2494  0.3603
  353MOL0     H47606   1.624   7.302   1.148  0.2201  1.6814 -0.9361
  353MOL0     H47607   1.689   7.039   1.076  0.6094  0.1662 -0.1016
  353MOL0     H47608   1.864   7.001   1.079  1.2521  1.9013 -0.4425
  353MOL0     H47609   1.826   7.127   1.315  0.3370 -1.2867  1.6355
  353MOL0     H47610   1.681   7.027   1.316 -0.7948  3.7259  1.1055
  353MOL0     H47611   1.935   6.896   1.228 -1.3025 -1.9992 -1.4020
  353MOL0     H47612   1.797   6.832   1.312 -0.2992  0.2790  0.1413
  353MOL0     H47613   1.876   6.957   1.520 -1.0341 -1.1328  0.1041
  353MOL0     H47614   1.997   7.037   1.410 -0.1266 -0.7880 -0.2840
  353MOL0     H47615   2.177   6.635   1.483  1.1256 -0.3003  0.0688
  353MOL0     H47616   2.396   6.589   1.384  1.0929 -1.3427 -3.4209
  353MOL0     H47617   2.664   6.644   1.017  1.8387 -1.3079 -1.5005
  353MOL0     H47618   2.865   6.561   0.905  1.2878 -0.2561  0.7973
  353MOL0     H47619   3.219   6.839   0.930  2.3150 -0.0857  0.4749
  353MOL0     H47620   3.264   6.716   1.051  0.9317  0.5577  0.4891
  353MOL0     H47621   3.268   6.674   0.761 -1.6522 -0.5034  1.0564
  353MOL0     H47622   3.412   6.755   0.840 -0.4328  1.1203 -0.6294
  353MOL0     H47623   3.415   6.522   0.986 -0.6213 -2.0525  0.1016
  353MOL0     H47624   3.289   6.472   0.869 -2.1543  1.6500  0.8890
  353MOL0     H47625   3.542   6.573   0.764 -1.0049  1.2099  2.3831
  353MOL0     H47626   3.421   6.463   0.687  3.2497 -4.7008  0.7051
  353MOL0     H47627   3.472   6.294   0.861 -1.0063 -0.4686 -3.4400
  353MOL0     H47628   3.619   6.397   0.910  3.9771 -2.5174 -2.3456
  353MOL0     H47629   3.645   6.399   0.641  2.8816  0.3702  0.2553
  353MOL0     H47630   3.723   6.287   0.738  0.1365 -0.6296  3.1689
  353MOL0     H47631   3.589   6.178   0.525  0.0561  1.0388 -0.2128
  353MOL0     H47632   3.455   6.230   0.616 -0.1357 -0.4148  3.0680
  353MOL0     H47633   3.654   6.047   0.764 -1.0030 -1.5948  0.3152
  353MOL0     H47634   3.485   6.067   0.784 -0.6082 -1.4904 -0.7369
  353MOL0     H47635   3.064   6.918   1.069  1.0737 -0.0829  0.1964
  353MOL0     H47636   2.859   6.973   1.183 -1.3160  1.5223 -2.1416
  353MOL0     H47637   2.385   6.981   1.188  1.2015 -1.2308 -0.7279
  353MOL0     H47638   2.147   7.005   1.249 -1.0000 -2.6478 -3.1520
  353MOL0     H47639   1.547   8.464   1.326  0.7368 -1.5828 -0.8057
  353MOL0     H47640   1.396   8.656   1.340 -0.5330 -0.2428  0.6611
  353MOL0     H47641   1.059   8.833   1.290 -0.5314  0.3366 -1.4060
  353MOL0     H47642   0.916   9.003   1.217  1.7243 -0.6575 -0.5257
  353MOL0     H47643   0.512   9.102   1.250  0.0451 -0.3072  0.7176
  353MOL0     H47644   0.610   8.962   1.214  1.1437 -0.4239  1.4128
  353MOL0     H47645   0.619   9.121   1.018 -0.3562  1.1964 -0.3770
  353MOL0     H47646   0.773   9.095   1.095  2.1126  2.2285  0.9001
  353MOL0     H47647   0.795   9.316   1.154 -1.7861  2.3518  3.9120
  353MOL0     H47648   0.639   9.331   1.219  2.0274 -0.0307  1.9256
  353MOL0     H47649   0.720   9.363   0.935 -0.0733  0.9059 -1.2067
  353MOL0     H47650   0.538   9.350   0.969  1.5043 -1.4642  0.7089
  353MOL0     H47651   0.589   9.733   1.107 -0.4375  1.7134 -0.3410
  353MOL0     H47652   0.663   8.953   1.569  2.0851 -0.8136  2.1553
  353MOL0     H47653   0.710   8.796   1.733  0.2174  3.4962 -1.2940
  353MOL0     H47654   0.820   8.653   1.689  2.7490  0.2770  2.0691
  353MOL0     H47655   0.889   8.786   1.755 -1.0117 -2.3511  1.5177
  354MOL0     O47656   9.740   6.652   7.331 -0.2644  0.3735 -0.1258
  354MOL0     C47657   9.752   6.733   7.234 -0.1015  0.6959 -0.2506
  354MOL0     O47658   9.860   6.815   7.217 -0.4657 -0.2643 -0.6293
  354MOL0     C47659   9.936   6.865   7.322  0.6659  0.6197 -0.5431
  354MOL0     C47660   9.931   6.992   7.371 -0.1107 -0.8782  0.1425
  354MOL0     C47661  10.033   7.023   7.464  0.2777  0.1027  1.0419
  354MOL0     C47662  10.140   6.946   7.510  0.9333  0.0325 -0.3545
  354MOL0     O47663  10.227   6.992   7.602  0.1104  0.0091  0.0286
  354MOL0     C47664  10.282   6.903   7.700  0.4101  0.9542  0.1582
  354MOL0     C47665  10.370   6.993   7.775 -0.5305 -0.7844 -0.2349
  354MOL0     C47666  10.291   7.123   7.837 -0.3691  0.6157  0.5803
  354MOL0     C47667  10.368   7.215   7.931  0.4460  0.1832  1.2040
  354MOL0     C47668  10.494   7.267   7.852  0.2905 -0.7381  0.3355
  354MOL0     C47669  10.568   7.369   7.942  0.4195 -0.5184  0.7210
  354MOL0     C47670  10.696   7.443   7.884  0.9869  0.0682  0.3734
  354MOL0     C47671  10.645   7.570   7.812 -0.4490 -0.1651  0.3758
  354MOL0     N47672  10.591   7.673   7.903 -0.3021  0.7528  0.2521
  354MOL0     C47673  10.652   7.709   8.023  0.3131  0.1859 -0.4719
  354MOL0     C47674  10.562   7.781   8.090  0.0497 -0.0245  0.4173
  354MOL0     C47675  10.565   7.844   8.226  0.6849 -0.1598  0.2686
  354MOL0     C47676  10.631   7.759   8.346 -0.0745 -0.1340  1.6905
  354MOL0     C47677  10.560   7.630   8.358  1.2529 -0.2027 -0.6361
  354MOL0     C47678  10.614   7.555   8.483  1.1262  0.5876  0.6296
  354MOL0     O47679  10.553   7.429   8.506  0.0927  0.6089  0.1266
  354MOL0     C47680  10.601   7.319   8.446 -0.7863  0.3070  1.0838
  354MOL0     C47681  10.710   7.249   8.505 -0.1231 -0.6914 -0.1626
  354MOL0     C47682  10.770   7.138   8.458  0.6043 -0.8203  0.9394
  354MOL0     C47683  10.733   7.095   8.334  0.1095  0.2072  0.7220
  354MOL0     C47684  10.792   6.974   8.268  0.1632 -0.3146 -0.1286
  354MOL0     O47685  10.702   6.890   8.211  0.1338  0.0145 -0.2410
  354MOL0     C47686  10.744   6.787   8.138  0.4104 -0.1197  0.6128
  354MOL0     C47687  10.727   6.779   7.998  0.2050  0.3981  0.3117
  354MOL0     C47688  10.776   6.670   7.921  0.2744 -0.0297 -0.3827
  354MOL0     C47689  10.832   6.564   8.001  0.4714  0.2908 -0.2315
  354MOL0     O47690  10.873   6.451   7.935  0.0120  0.1847 -0.6277
  354MOL0     C47691  11.004   6.460   7.876 -0.5115 -0.2098  1.2029
  354MOL0     C47692  11.063   6.325   7.900 -0.1098  1.0753  0.4331
  354MOL0     C47693  11.056   6.275   8.041 -0.0927 -0.4925 -0.9853
  354MOL0     C47694  11.120   6.144   8.050 -0.2912  0.4855 -0.2360
  354MOL0     C47695  11.169   6.124   8.186  0.0950 -0.1375 -0.4518
  354MOL0     C47696  11.169   5.975   8.238  0.7708 -0.4215 -0.5700
  354MOL0     C47697  11.256   5.873   8.151 -0.9975  0.2198 -0.1482
  354MOL0     C47698  11.411   5.909   8.132 -0.3937  0.3290 -0.8039
  354MOL0    Cl47699  11.482   5.774   8.050 -0.0185 -0.1433  0.5407
  354MOL0     C47700  10.846   6.572   8.136 -0.3775  0.1258  0.3522
  354MOL0     C47701  10.807   6.684   8.204 -0.7669  0.0938  0.1101
  354MOL0     O47702  10.911   6.952   8.291  0.2921 -0.1869  0.5760
  354MOL0     C47703  10.628   7.156   8.264  0.1661 -0.2034 -0.8093
  354MOL0     C47704  10.559   7.273   8.316 -0.0396  0.5437 -0.0176
  354MOL0     N47705  10.443   7.784   8.004 -0.7962 -0.0411 -0.3582
  354MOL0     N47706  10.464   7.718   7.903  1.0385 -0.4443  0.7934
  354MOL0     C47707  10.136   6.812   7.461 -0.0899 -0.2715 -0.7590
  354MOL0     C47708  10.030   6.773   7.371 -0.1587 -0.1143 -0.1463
  354MOL0     C47709   9.645   6.723   7.130 -0.5122  0.2273  1.0851
  354MOL0     C47710   9.614   6.592   7.090 -0.0673 -0.0945 -0.6135
  354MOL0     C47711   9.511   6.571   7.001  0.5745 -0.0934  0.9961
  354MOL0     C47712   9.440   6.680   6.947 -0.0125  1.1302 -0.6500
  354MOL0     O47713   9.333   6.643   6.857 -0.7149  0.0637 -0.1391
  354MOL0     C47714   9.273   6.746   6.778  0.8548  0.3450  1.0017
  354MOL0     C47715   9.365   6.755   6.648  1.0289  0.5353 -0.3871
  354MOL0     C47716   9.304   6.845   6.541 -0.0812 -0.8430 -0.5914
  354MOL0     C47717   9.374   6.828   6.411  0.6261 -0.4563 -0.4522
  354MOL0     C47718   9.514   6.857   6.426  0.6613  0.5720  0.8565
  354MOL0     C47719   9.636   6.858   6.440 -0.8407  1.0500  0.0283
  354MOL0     C47720   9.472   6.812   6.997 -0.7399  0.5104 -0.7549
  354MOL0     C47721   9.577   6.835   7.090  0.6826  0.2383 -0.7236
  354MOL0     C47722   9.598   6.967   7.137 -0.3944 -0.2250 -0.6448
  354MOL0     H47723   9.866   7.072   7.336 -1.7405 -2.2821 -0.1515
  354MOL0     H47724  10.038   7.130   7.477 -1.8842  1.0546 -3.7068
  354MOL0     H47725  10.200   6.865   7.762  2.2248  1.2590  2.9408
  354MOL0     H47726  10.338   6.817   7.661  0.0890  0.9628 -0.3307
  354MOL0     H47727  10.459   7.010   7.714  1.1330  3.5477  2.8880
  354MOL0     H47728  10.405   6.939   7.864 -0.8494 -0.6569 -0.0326
  354MOL0     H47729  10.212   7.075   7.896 -2.1038 -0.2264 -2.2468
  354MOL0     H47730  10.246   7.180   7.755 -0.3541  0.6668  0.6079
  354MOL0     H47731  10.306   7.303   7.952  3.8352  3.0526  0.1561
  354MOL0     H47732  10.399   7.169   8.026 -0.6487  0.3792  1.6770
  354MOL0     H47733  10.564   7.185   7.835  0.0601 -0.9080  0.1979
  354MOL0     H47734  10.472   7.308   7.753  0.5820 -0.1433  0.5133
  354MOL0     H47735  10.494   7.442   7.976  1.0175 -0.8770  2.9138
  354MOL0     H47736  10.601   7.310   8.028  0.4252 -0.2103  0.9334
  354MOL0     H47737  10.758   7.382   7.818  0.6626 -0.2968  0.4060
  354MOL0     H47738  10.760   7.469   7.969  0.6411 -0.6051  0.8412
  354MOL0     H47739  10.730   7.612   7.757 -1.2574 -2.0870 -2.5762
  354MOL0     H47740  10.574   7.554   7.730 -0.1776 -0.8383  0.2683
  354MOL0     H47741  10.753   7.681   8.049 -0.0927 -2.3777 -1.3760
  354MOL0     H47742  10.618   7.940   8.221 -1.9282  1.4113  0.6101
  354MOL0     H47743  10.463   7.869   8.259  1.9532  0.1859  4.6148
  354MOL0     H47744  10.738   7.741   8.336  0.1214  1.5640  0.1223
  354MOL0     H47745  10.610   7.818   8.435 -0.5531  1.4956  0.5493
  354MOL0     H47746  10.598   7.568   8.277  2.5897 -1.3310  0.7771
  354MOL0     H47747  10.451   7.635   8.349  0.7500  0.2490  3.4602
  354MOL0     H47748  10.606   7.620   8.571  1.5807  0.9610  0.4015
  354MOL0     H47749  10.722   7.544   8.467  0.8177  0.5108 -1.6047
  354MOL0     H47750  10.726   7.285   8.606 -2.1961  1.0452 -0.3720
  354MOL0     H47751  10.854   7.090   8.507  3.3172  3.2070  0.7127
  354MOL0     H47752  10.671   6.864   7.961  0.3463 -0.4354 -2.0087
  354MOL0     H47753  10.769   6.667   7.813  0.1826 -1.3121 -0.3665
  354MOL0     H47754  10.996   6.489   7.770  3.6301  2.9755  1.4963
  354MOL0     H47755  11.061   6.541   7.921 -0.2026  0.9095 -1.0228
  354MOL0     H47756  10.997   6.254   7.849 -1.5694  1.5577  1.5709
  354MOL0     H47757  11.167   6.326   7.867 -0.5965  2.3350 -1.2074
  354MOL0     H47758  11.110   6.356   8.092  1.4037 -1.0531 -1.6188
  354MOL0     H47759  10.956   6.280   8.086  0.3836 -0.1263  0.0674
  354MOL0     H47760  11.202   6.126   7.981  2.5121  1.1318  2.6944
  354MOL0     H47761  11.038   6.076   8.024 -1.2103  1.3018  0.4213
  354MOL0     H47762  11.101   6.180   8.249 -0.8067  1.8852 -3.0414
  354MOL0     H47763  11.270   6.165   8.199 -1.0819  2.8090  0.0969
  354MOL0     H47764  11.212   5.987   8.337  0.4691  1.9715 -0.6782
  354MOL0     H47765  11.064   5.948   8.253 -0.2487  2.5973 -1.4875
  354MOL0     H47766  11.209   5.862   8.053 -2.0514 -1.2357  0.4896
  354MOL0     H47767  11.242   5.778   8.202 -2.7912  0.5214 -0.0228
  354MOL0     H47768  11.432   6.009   8.091  2.6542  1.5525  3.0687
  354MOL0     H47769  11.450   5.908   8.234 -0.3330  0.4778 -0.8256
  354MOL0     H47770  10.902   6.489   8.178 -1.3886 -0.9500 -0.3341
  354MOL0     H47771  10.834   6.698   8.308  0.2814 -1.1835  0.0462
  354MOL0     H47772  10.596   7.115   8.169  0.5642  0.4983 -1.2556
  354MOL0     H47773  10.474   7.310   8.259 -0.7729 -1.5972 -0.3873
  354MOL0     H47774  10.212   6.738   7.486 -0.5975 -0.5585 -0.0310
  354MOL0     H47775  10.024   6.669   7.340  0.3756 -0.5669  1.2043
  354MOL0     H47776   9.672   6.511   7.132 -0.3973  0.9227  2.0043
  354MOL0     H47777   9.476   6.477   6.960 -1.6298  0.1137  2.2174
  354MOL0     H47778   9.291   6.846   6.816  1.0954  0.6024  0.2254
  354MOL0     H47779   9.167   6.724   6.761  0.7241  0.2352  1.9278
  354MOL0     H47780   9.378   6.655   6.605  3.1629  0.5908  0.0217
  354MOL0     H47781   9.466   6.792   6.665  1.9858 -0.6696 -2.9649
  354MOL0     H47782   9.316   6.942   6.590  0.3441 -1.6790  1.0430
  354MOL0     H47783   9.196   6.847   6.526 -0.0727  2.9707 -1.1763
  354MOL0     H47784   9.362   6.723   6.382 -0.4479 -1.0333  1.8842
  354MOL0     H47785   9.328   6.891   6.334 -1.9430 -1.7506 -0.1081
  354MOL0     H47786   9.742   6.857   6.452 -0.7886  1.0287 -0.4097
  354MOL0     H47787   9.416   6.901   6.971 -1.9887  0.3492  1.1449
  354MOL0     H47788   9.571   6.970   7.243 -0.6750  4.0615 -0.6406
  354MOL0     H47789   9.704   6.994   7.131 -0.0082 -1.6957 -0.7389
  354MOL0     H47790   9.537   7.040   7.082 -2.4416 -2.8652 -2.1126
  355MOL0     O47791   8.490   7.363  10.809 -0.2305  0.2097  0.3104
  355MOL0     C47792   8.476   7.246  10.770  0.8567 -0.5848  0.0821
  355MOL0     O47793   8.350   7.196  10.747  0.1602  0.1922  0.5342
  355MOL0     C47794   8.254   7.296  10.725 -0.1749 -0.0543 -0.0421
  355MOL0     C47795   8.147   7.322  10.802 -0.1599  0.3160  0.0210
  355MOL0     C47796   8.054   7.427  10.782  0.8731 -0.1692 -0.0960
  355MOL0     C47797   8.066   7.497  10.658  0.5618 -0.3839 -0.5192
  355MOL0     O47798   7.977   7.605  10.629  0.7891 -0.4989 -0.1932
  355MOL0     C47799   7.884   7.649  10.737  0.7828  0.5950 -0.4170
  355MOL0     C47800   7.865   7.800  10.724 -0.9719 -0.0140  0.1484
  355MOL0     C47801   7.747   7.848  10.805 -0.1019 -0.3108  0.3470
  355MOL0     C47802   7.767   7.857  10.951 -0.4065 -0.4380 -0.4429
  355MOL0     C47803   7.643   7.887  11.033  0.3950 -0.1358  0.4008
  355MOL0     C47804   7.592   8.026  11.014  1.0387  0.3336 -0.1875
  355MOL0     C47805   7.455   8.047  11.091  0.8393  0.4695  0.3299
  355MOL0     C47806   7.413   8.197  11.101  0.4263 -0.7364  0.0943
  355MOL0     N47807   7.506   8.277  11.189  0.4589 -0.0925 -0.3997
  355MOL0     C47808   7.492   8.290  11.325 -0.5473  0.1829  0.2267
  355MOL0     C47809   7.596   8.360  11.376  0.7651 -0.2490  0.2067
  355MOL0     C47810   7.640   8.387  11.516  0.3759 -0.4293 -0.1371
  355MOL0     C47811   7.522   8.379  11.617 -0.8120  0.2970  0.2691
  355MOL0     C47812   7.578   8.381  11.761  0.6866 -0.3709 -0.6781
  355MOL0     C47813   7.487   8.301  11.854 -0.5780  0.5860 -0.5934
  355MOL0     O47814   7.540   8.305  11.987 -0.9994 -0.6317  0.1372
  355MOL0     C47815   7.652   8.242  12.036 -0.3301 -0.5585  1.0373
  355MOL0     C47816   7.730   8.154  11.962 -1.0879  0.5716 -0.2129
  355MOL0     C47817   7.850   8.103  12.015 -0.8515  0.1137  0.3653
  355MOL0     C47818   7.893   8.133  12.142  0.1785  0.5898 -0.2018
  355MOL0     C47819   8.014   8.084  12.192  0.2452 -0.1346 -0.0102
  355MOL0     O47820   8.078   8.156  12.297 -0.4533 -0.2540  0.6984
  355MOL0     C47821   8.209   8.114  12.316 -0.3566 -0.1188 -0.0064
  355MOL0     C47822   8.306   8.138  12.215 -1.0371  0.2044 -0.6472
  355MOL0     C47823   8.440   8.130  12.254 -0.3933  1.0284  0.2072
  355MOL0     C47824   8.474   8.067  12.375 -0.7693 -0.6730  0.4617
  355MOL0     O47825   8.611   8.050  12.406  0.3116  0.3030  0.3642
  355MOL0     C47826   8.650   7.950  12.499  0.1761 -0.5295 -0.2831
  355MOL0     C47827   8.802   7.938  12.504 -1.0019 -0.3938 -0.1389
  355MOL0     C47828   8.848   7.819  12.584  0.4959  0.2418  0.9273
  355MOL0     C47829   8.900   7.882  12.716  0.0634  0.3757 -0.4321
  355MOL0     C47830   8.928   7.766  12.817  0.2447 -0.7695  0.0262
  355MOL0     C47831   9.013   7.657  12.750  0.6577 -0.7372  0.4962
  355MOL0     C47832   9.112   7.586  12.845  0.3528 -0.4273 -0.9642
  355MOL0     C47833   9.222   7.668  12.910  0.6262  0.1622 -0.2800
  355MOL0    Cl47834   9.361   7.576  12.931  0.0228  0.5242 -0.1886
  355MOL0     C47835   8.375   8.030  12.469 -0.5108 -0.0844 -0.8461
  355MOL0     C47836   8.242   8.062  12.441 -0.5052 -0.0768  0.3816
  355MOL0     O47837   8.058   7.976  12.143  0.3581 -0.2051  0.5682
  355MOL0     C47838   7.811   8.212  12.217 -0.8447 -0.5794 -0.8504
  355MOL0     C47839   7.700   8.278  12.165 -0.5694  0.8693 -0.4588
  355MOL0     N47840   7.661   8.394  11.256 -0.1484  0.1076 -0.0852
  355MOL0     N47841   7.610   8.346  11.152  0.2925  0.6315  0.5504
  355MOL0     C47842   8.170   7.469  10.573 -0.1788 -0.1969 -0.5621
  355MOL0     C47843   8.267   7.372  10.614  0.2950 -0.1990 -0.0414
  355MOL0     C47844   8.604   7.161  10.768 -0.0168  0.0745  0.7935
  355MOL0     C47845   8.579   7.034  10.721  0.3305 -0.4883 -0.0745
  355MOL0     C47846   8.684   6.937  10.704 -0.7309  0.5451 -0.1559
  355MOL0     C47847   8.817   6.970  10.747  1.3117 -0.2086  0.1184
  355MOL0     O47848   8.925   6.888  10.731  0.6748 -0.3289  0.2521
  355MOL0     C47849   8.969   6.867  10.592  0.9801 -0.2662 -0.7562
  355MOL0     C47850   9.113   6.822  10.584  0.2156 -0.3729 -0.1725
  355MOL0     C47851   9.207   6.931  10.530  0.1842 -0.0061  0.6412
  355MOL0     C47852   9.208   7.065  10.613 -0.1269 -0.3504 -0.2696
  355MOL0     C47853   9.326   7.140  10.557  0.3144 -0.1057  0.1517
  355MOL0     C47854   9.408   7.203  10.493  0.0960 -0.3562 -0.8957
  355MOL0     C47855   8.838   7.104  10.789  0.7425 -0.0256  0.4826
  355MOL0     C47856   8.733   7.196  10.805  0.2503 -0.3275 -0.5646
  355MOL0     C47857   8.774   7.330  10.853  0.6379 -0.2160 -0.2439
  355MOL0     H47858   8.135   7.267  10.895  3.3255 -0.0370  0.3853
  355MOL0     H47859   7.980   7.436  10.860  0.8320  0.4757 -0.2048
  355MOL0     H47860   7.794   7.593  10.712  1.0365 -0.5354  1.0706
  355MOL0     H47861   7.921   7.621  10.836 -1.1396 -1.2404 -0.1537
  355MOL0     H47862   7.835   7.812  10.620 -0.9722 -0.8934  0.0405
  355MOL0     H47863   7.958   7.854  10.740 -1.2783  0.7533 -0.6191
  355MOL0     H47864   7.666   7.785  10.766  1.2425  0.2763 -3.9215
  355MOL0     H47865   7.723   7.950  10.775 -1.5920 -0.6581  0.2572
  355MOL0     H47866   7.806   7.763  10.991 -0.7020 -0.1144  0.6402
  355MOL0     H47867   7.836   7.939  10.972  0.0486 -0.9800  0.1967
  355MOL0     H47868   7.558   7.823  11.008 -0.0591 -0.9691  3.6700
  355MOL0     H47869   7.663   7.870  11.139 -2.1998 -0.4416  0.9172
  355MOL0     H47870   7.664   8.101  11.045  2.7890 -2.7697  4.2841
  355MOL0     H47871   7.577   8.026  10.905  2.8673  0.6494 -0.4555
  355MOL0     H47872   7.468   8.030  11.198 -2.7387  1.9838  1.1453
  355MOL0     H47873   7.374   7.985  11.050 -1.6800  1.4586  3.3908
  355MOL0     H47874   7.384   8.246  11.008 -1.7445  0.5803  1.3680
  355MOL0     H47875   7.312   8.198  11.143  0.8780  0.7219  1.2192
  355MOL0     H47876   7.408   8.251  11.382 -2.1824  3.7295  0.5130
  355MOL0     H47877   7.722   8.320  11.544 -0.1658 -1.1157 -0.1872
  355MOL0     H47878   7.684   8.487  11.503  1.8540 -1.1468 -0.8687
  355MOL0     H47879   7.460   8.468  11.602 -2.2281 -0.7930 -0.6560
  355MOL0     H47880   7.453   8.298  11.592 -1.5526  1.7782 -2.8434
  355MOL0     H47881   7.592   8.485  11.794 -2.0471  0.1362 -0.8734
  355MOL0     H47882   7.675   8.331  11.752  0.4738 -1.2567  1.3921
  355MOL0     H47883   7.483   8.197  11.820 -0.2836  0.5274 -0.4572
  355MOL0     H47884   7.382   8.327  11.841 -0.3779  1.3619 -0.6851
  355MOL0     H47885   7.697   8.121  11.863 -3.9231  2.0526  0.1450
  355MOL0     H47886   7.908   8.039  11.949 -4.0807 -1.0478 -1.5884
  355MOL0     H47887   8.279   8.186  12.122 -1.2364 -0.2839 -0.8452
  355MOL0     H47888   8.525   8.136  12.187 -0.1200  1.9051  0.6214
  355MOL0     H47889   8.604   7.958  12.598 -1.0768 -1.1014 -0.8035
  355MOL0     H47890   8.617   7.856  12.453 -0.9970 -1.3993  2.1397
  355MOL0     H47891   8.834   7.919  12.401 -0.2568 -1.9048  0.3468
  355MOL0     H47892   8.850   8.027  12.545 -0.9279  0.0507 -1.1577
  355MOL0     H47893   8.768   7.744  12.594 -2.9129  3.8293  3.9487
  355MOL0     H47894   8.924   7.769  12.524  0.4533 -1.7036  2.3970
  355MOL0     H47895   8.829   7.953  12.759  0.4466  2.5655 -3.1061
  355MOL0     H47896   8.995   7.937  12.709  3.2911 -4.4228  0.4390
  355MOL0     H47897   8.836   7.712  12.839  0.6424 -1.9375 -1.0672
  355MOL0     H47898   8.972   7.809  12.908 -0.3909 -0.0098 -0.0114
  355MOL0     H47899   8.943   7.588  12.702 -1.6514  2.3945 -1.0647
  355MOL0     H47900   9.083   7.706  12.681  0.8733 -1.9096 -0.1392
  355MOL0     H47901   9.169   7.506  12.796 -0.2976 -1.0994 -0.6365
  355MOL0     H47902   9.050   7.535  12.919  0.8585 -1.8572 -1.4994
  355MOL0     H47903   9.236   7.761  12.853 -3.0319  2.7162  2.4826
  355MOL0     H47904   9.183   7.705  13.005 -0.7458  3.0242 -1.8086
  355MOL0     H47905   8.390   7.971  12.559 -2.4161 -0.8794 -0.9923
  355MOL0     H47906   8.168   8.033  12.515  1.0137 -3.7691  0.6229
  355MOL0     H47907   7.851   8.221  12.317 -0.0783 -0.8363 -1.1264
  355MOL0     H47908   7.632   8.341  12.220 -3.7831  0.4980 -3.6687
  355MOL0     H47909   8.183   7.529  10.483 -0.4750 -0.7630 -0.9939
  355MOL0     H47910   8.344   7.359  10.539 -1.6665 -2.4185 -1.8351
  355MOL0     H47911   8.486   6.984  10.695  1.0603 -2.8806  1.5121
  355MOL0     H47912   8.674   6.835  10.669  1.6493 -0.0977  0.8198
  355MOL0     H47913   8.940   6.960  10.542 -2.1886 -0.5738  0.2938
  355MOL0     H47914   8.899   6.797  10.547 -2.0465  0.7021  2.0188
  355MOL0     H47915   9.116   6.734  10.519  0.2268 -3.3021  3.4286
  355MOL0     H47916   9.156   6.793  10.681  0.0728  0.6464  0.2033
  355MOL0     H47917   9.190   6.950  10.424 -0.0073 -1.2741  0.4327
  355MOL0     H47918   9.308   6.889  10.540 -0.0875 -0.4257  1.7583
  355MOL0     H47919   9.109   7.109  10.595  0.3237  0.6944 -0.2628
  355MOL0     H47920   9.222   7.046  10.720  3.3489  0.3724 -0.4688
  355MOL0     H47921   9.483   7.253  10.435  3.5912 -1.3655  2.3637
  355MOL0     H47922   8.939   7.136  10.810  0.2205  1.3727  0.9437
  355MOL0     H47923   8.713   7.347  10.942  1.5235  0.7723  0.2052
  355MOL0     H47924   8.879   7.326  10.882 -0.0263 -0.9637  2.2797
  355MOL0     H47925   8.767   7.408  10.776 -1.4248 -0.6693 -0.5594
  356MOL0     O47926   8.048   5.776   4.654 -0.5448 -0.8856  0.3644
  356MOL0     C47927   8.048   5.665   4.597 -0.4578  1.3091 -0.5411
  356MOL0     O47928   8.031   5.541   4.663  0.5601 -0.4631 -0.9858
  356MOL0     C47929   8.045   5.526   4.805 -0.1253 -0.4764 -0.0709
  356MOL0     C47930   7.951   5.463   4.884  0.4939 -0.2734  0.3233
  356MOL0     C47931   7.966   5.459   5.021  0.1369 -0.3445 -0.7632
  356MOL0     C47932   8.075   5.528   5.088 -0.3126  0.8686  0.3588
  356MOL0     O47933   8.088   5.544   5.225  0.5467 -0.0394  0.0813
  356MOL0     C47934   7.987   5.480   5.311 -0.3948 -0.5590  0.1346
  356MOL0     C47935   8.034   5.490   5.459  0.5281 -0.1128  0.2172
  356MOL0     C47936   7.952   5.398   5.554 -0.8388 -0.4693 -0.9386
  356MOL0     C47937   7.981   5.245   5.566 -0.8989 -0.4289 -0.9099
  356MOL0     C47938   8.099   5.218   5.664  0.0095 -0.1153 -0.6200
  356MOL0     C47939   8.102   5.068   5.706 -0.4723 -0.9390 -0.6674
  356MOL0     C47940   8.223   5.052   5.795 -0.3733  0.4290  0.1925
  356MOL0     C47941   8.264   4.898   5.812 -0.5677  0.0478 -0.7511
  356MOL0     N47942   8.148   4.828   5.872  0.3930  0.0412 -0.3678
  356MOL0     C47943   8.104   4.819   6.008 -0.1373 -0.4988  0.4708
  356MOL0     C47944   7.988   4.747   6.008  0.5527 -0.2159  0.2286
  356MOL0     C47945   7.904   4.705   6.125 -0.1939 -0.0284  0.6041
  356MOL0     C47946   7.976   4.597   6.202 -0.1372  1.2412  0.2758
  356MOL0     C47947   7.885   4.542   6.315 -0.5697 -0.5250 -0.3319
  356MOL0     C47948   7.958   4.491   6.443 -0.3571 -0.0710 -0.3443
  356MOL0     O47949   8.077   4.430   6.387  0.1036 -0.8119 -0.4843
  356MOL0     C47950   8.200   4.488   6.422 -0.1538 -0.5110 -0.3239
  356MOL0     C47951   8.233   4.580   6.523  0.5734  0.0036  0.2728
  356MOL0     C47952   8.353   4.659   6.528 -0.1077  0.7745  0.1897
  356MOL0     C47953   8.455   4.630   6.432  0.7355  0.0321  0.2636
  356MOL0     C47954   8.576   4.721   6.434 -0.1200 -0.1307 -1.3468
  356MOL0     O47955   8.560   4.846   6.497 -0.2700  1.1072  0.3851
  356MOL0     C47956   8.662   4.935   6.518 -1.3880  0.2745 -0.2814
  356MOL0     C47957   8.638   5.027   6.623  0.4755 -0.3944  0.7737
  356MOL0     C47958   8.738   5.120   6.660 -1.0015  0.0197 -0.1499
  356MOL0     C47959   8.854   5.123   6.587  0.9263 -0.1599 -1.0258
  356MOL0     O47960   8.942   5.224   6.606  0.0279 -0.4721  0.6195
  356MOL0     C47961   8.967   5.287   6.732 -0.4881  0.7497  0.4886
  356MOL0     C47962   9.089   5.368   6.727  0.5744  0.2309 -0.1966
  356MOL0     C47963   9.081   5.484   6.629  0.6107 -0.1291  0.2580
  356MOL0     C47964   9.198   5.583   6.647 -0.1395  0.2220  0.2835
  356MOL0     C47965   9.153   5.716   6.576  0.1673  0.2436  0.3536
  356MOL0     C47966   9.241   5.838   6.575 -0.5455 -0.4951  0.3996
  356MOL0     C47967   9.369   5.810   6.490  0.1354 -0.1512 -0.2638
  356MOL0     C47968   9.461   5.927   6.454  0.2866  0.7508  0.5265
  356MOL0    Cl47969   9.364   6.029   6.344  0.2689  0.2775 -0.0320
  356MOL0     C47970   8.887   5.034   6.487  0.5068  0.5651 -0.1720
  356MOL0     C47971   8.793   4.931   6.459 -0.4975 -0.4681 -1.0909
  356MOL0     O47972   8.680   4.672   6.403 -0.7834 -0.2322  0.3533
  356MOL0     C47973   8.420   4.535   6.329 -1.0409  0.0887  0.2242
  356MOL0     C47974   8.300   4.471   6.323  0.4384 -0.4464  0.2946
  356MOL0     N47975   7.971   4.714   5.877  0.4330  0.4673  0.3404
  356MOL0     N47976   8.059   4.754   5.799  0.4125 -0.6645 -0.1796
  356MOL0     C47977   8.162   5.601   5.007  0.8212  0.2763  0.2201
  356MOL0     C47978   8.143   5.591   4.870 -0.4635 -0.1391 -0.0614
  356MOL0     C47979   8.038   5.651   4.446 -0.0929  1.3723  0.1524
  356MOL0     C47980   8.013   5.519   4.391 -0.2989  0.5390 -0.7465
  356MOL0     C47981   8.017   5.488   4.259  0.7001 -0.3533 -0.3130
  356MOL0     C47982   8.064   5.583   4.173  1.1121 -0.2167  0.2940
  356MOL0     O47983   8.082   5.539   4.045 -0.4754 -0.5250  0.0699
  356MOL0     C47984   7.980   5.568   3.946  0.5324  0.1522 -0.3285
  356MOL0     C47985   8.029   5.676   3.853 -0.3366 -0.2028 -0.0532
  356MOL0     C47986   8.112   5.617   3.741 -0.3913  0.3408  0.9242
  356MOL0     C47987   8.123   5.715   3.624 -0.4007  0.4995 -1.0976
  356MOL0     C47988   8.239   5.701   3.535 -0.7978  0.1620 -0.6027
  356MOL0     C47989   8.333   5.696   3.459 -0.7151  1.1691  0.6033
  356MOL0     C47990   8.070   5.716   4.209  0.3803 -1.0321  0.1285
  356MOL0     C47991   8.060   5.753   4.347 -0.3898  0.3661 -0.5107
  356MOL0     C47992   8.064   5.895   4.387  0.0168 -0.0883 -0.3162
  356MOL0     H47993   7.858   5.437   4.835  0.4125  0.2263  0.2139
  356MOL0     H47994   7.888   5.408   5.077 -0.9419  0.7658 -1.2344
  356MOL0     H47995   7.888   5.524   5.295 -0.8069 -1.6995 -0.5952
  356MOL0     H47996   7.994   5.373   5.289 -0.3860 -0.4169 -0.5507
  356MOL0     H47997   8.035   5.598   5.480  2.0684 -0.6047  3.2193
  356MOL0     H47998   8.136   5.455   5.478  1.2926  0.5975 -2.2066
  356MOL0     H47999   7.852   5.386   5.510 -0.6370 -1.9096 -1.0621
  356MOL0     H48000   7.935   5.448   5.650  0.8360 -3.2460  0.9397
  356MOL0     H48001   7.888   5.198   5.598 -1.1790  0.4035 -0.4681
  356MOL0     H48002   7.996   5.201   5.467 -1.3787 -0.7774 -0.8274
  356MOL0     H48003   8.185   5.248   5.604 -0.2440  0.1693 -0.8439
  356MOL0     H48004   8.084   5.280   5.753  1.5087  1.1094 -1.1902
  356MOL0     H48005   8.011   5.040   5.761 -1.2543 -0.0802 -1.4784
  356MOL0     H48006   8.117   4.997   5.624  3.9217 -1.4044  0.3201
  356MOL0     H48007   8.191   5.091   5.892  1.8692  0.3725  1.0142
  356MOL0     H48008   8.308   5.114   5.765  0.0153 -0.5692 -0.8749
  356MOL0     H48009   8.278   4.861   5.710 -3.1997 -1.4989 -0.6555
  356MOL0     H48010   8.353   4.890   5.875  0.1595  3.9410 -1.0278
  356MOL0     H48011   8.162   4.859   6.092  3.7842 -3.0908 -0.7296
  356MOL0     H48012   7.900   4.803   6.173  2.7736  0.9422 -0.8735
  356MOL0     H48013   7.805   4.665   6.099 -0.4964 -0.3981  2.2418
  356MOL0     H48014   7.987   4.518   6.128 -1.9700 -1.1099  2.3404
  356MOL0     H48015   8.074   4.635   6.234  0.2474  1.1896 -0.7966
  356MOL0     H48016   7.827   4.458   6.273 -1.2004 -1.3527  2.0155
  356MOL0     H48017   7.818   4.621   6.351  0.3021  0.3905 -0.6960
  356MOL0     H48018   7.908   4.413   6.501  2.1899 -2.0612 -0.6498
  356MOL0     H48019   7.979   4.573   6.513 -0.7151 -1.4211  1.4016
  356MOL0     H48020   8.171   4.596   6.611  1.3046 -1.4606  1.0911
  356MOL0     H48021   8.357   4.732   6.608  4.5268  0.3166  0.6602
  356MOL0     H48022   8.537   5.017   6.661 -0.6639 -3.1373 -2.4549
  356MOL0     H48023   8.726   5.194   6.738 -3.6544  0.2460 -0.6838
  356MOL0     H48024   8.887   5.351   6.772  0.5985  1.4691  1.5641
  356MOL0     H48025   8.994   5.214   6.809 -3.6053 -2.1540 -0.8963
  356MOL0     H48026   9.100   5.404   6.829  0.7573 -2.0271  0.6379
  356MOL0     H48027   9.170   5.296   6.709  0.2794 -0.1489 -0.0076
  356MOL0     H48028   9.093   5.439   6.530  0.6837  1.8795 -0.6825
  356MOL0     H48029   8.984   5.533   6.641 -0.3647 -2.3795  2.6311
  356MOL0     H48030   9.287   5.548   6.594 -0.9893  0.8935 -1.6754
  356MOL0     H48031   9.218   5.589   6.755  0.5162 -0.7788  0.2289
  356MOL0     H48032   9.075   5.750   6.645  0.2733 -1.7060  1.5154
  356MOL0     H48033   9.099   5.696   6.483 -1.1385  0.6018  1.0103
  356MOL0     H48034   9.190   5.931   6.548  0.5287 -0.1131 -0.3942
  356MOL0     H48035   9.282   5.843   6.676  2.8796 -0.9043 -0.8205
  356MOL0     H48036   9.329   5.759   6.401 -1.2376  1.6084 -0.7069
  356MOL0     H48037   9.426   5.734   6.545  0.2007 -0.8432 -1.2487
  356MOL0     H48038   9.487   5.972   6.550  0.3293  2.2144 -0.1415
  356MOL0     H48039   9.546   5.892   6.395 -1.3990 -0.0981 -1.5032
  356MOL0     H48040   8.966   5.039   6.413 -0.0361 -1.4213 -0.9577
  356MOL0     H48041   8.828   4.854   6.391 -2.1273 -0.7297 -1.6825
  356MOL0     H48042   8.505   4.511   6.265  0.6019  4.1759  0.5466
  356MOL0     H48043   8.292   4.394   6.246  1.4795  0.9860 -1.3124
  356MOL0     H48044   8.232   5.660   5.067 -0.8679  1.1369  1.4188
  356MOL0     H48045   8.219   5.638   4.807 -1.4166  0.4682 -0.7869
  356MOL0     H48046   7.999   5.437   4.461 -0.6595  1.8869  0.8370
  356MOL0     H48047   7.999   5.385   4.229 -1.1709  0.0484 -0.6768
  356MOL0     H48048   7.898   5.604   4.008  0.5109 -2.3457  1.2658
  356MOL0     H48049   7.954   5.478   3.888 -2.2485  0.3969  0.3988
  356MOL0     H48050   8.087   5.748   3.911 -0.6461  2.1226 -2.3956
  356MOL0     H48051   7.940   5.736   3.828 -0.7584 -1.3433 -1.3919
  356MOL0     H48052   8.079   5.525   3.693  0.9325 -0.7783  2.0914
  356MOL0     H48053   8.216   5.604   3.771  0.8374 -2.9643 -3.7026
  356MOL0     H48054   8.037   5.707   3.557 -0.9133  1.7211 -0.6154
  356MOL0     H48055   8.135   5.817   3.661  4.3526  1.3141 -4.0865
  356MOL0     H48056   8.412   5.679   3.390 -0.6113 -3.1520  1.5493
  356MOL0     H48057   8.109   5.795   4.146 -1.2498  1.5038  2.0917
  356MOL0     H48058   8.157   5.914   4.441  0.0033  2.4581 -1.0665
  356MOL0     H48059   8.058   5.956   4.296 -2.1307  0.2363  0.0010
  356MOL0     H48060   7.982   5.916   4.456  0.4668 -4.1453  1.7586
  357MOL0     O48061   4.529   8.153   2.301  0.4308 -0.5456  0.6275
  357MOL0     C48062   4.544   8.052   2.230  0.9208 -0.1854  0.2622
  357MOL0     O48063   4.611   8.051   2.112  0.6493  1.0127  0.4170
  357MOL0     C48064   4.684   8.161   2.080 -0.3986  0.4650 -0.5009
  357MOL0     C48065   4.669   8.204   1.944  0.3857  0.0125  0.7392
  357MOL0     C48066   4.732   8.317   1.899 -1.0710 -0.3451 -0.7842
  357MOL0     C48067   4.825   8.377   1.991  0.1694  0.0802 -0.3550
  357MOL0     O48068   4.881   8.497   1.964 -0.2158 -0.2674 -0.1495
  357MOL0     C48069   4.892   8.538   1.830 -0.4807  1.2992  0.4560
  357MOL0     C48070   4.974   8.671   1.819  0.0304  0.1126  0.2924
  357MOL0     C48071   5.130   8.661   1.836 -0.1711  0.0449 -0.9254
  357MOL0     C48072   5.203   8.802   1.873 -0.2895  0.0082 -0.3288
  357MOL0     C48073   5.338   8.783   1.948 -0.4950 -0.3759  0.0728
  357MOL0     C48074   5.397   8.920   1.996 -0.1496  1.0570  0.5012
  357MOL0     C48075   5.525   8.898   2.080  0.4937 -0.3726 -0.0254
  357MOL0     C48076   5.553   9.037   2.149 -1.2399 -0.6415 -0.6334
  357MOL0     N48077   5.469   9.082   2.254 -0.1055 -0.7596 -0.2156
  357MOL0     C48078   5.428   9.213   2.261  0.0189 -0.4072  0.4574
  357MOL0     C48079   5.332   9.209   2.354  0.5851  0.9190  0.2731
  357MOL0     C48080   5.251   9.334   2.392 -0.0588 -0.1534  0.7041
  357MOL0     C48081   5.317   9.401   2.512  0.3173  0.8764  0.1865
  357MOL0     C48082   5.314   9.314   2.638 -0.2879  0.9966 -0.3160
  357MOL0     C48083   5.337   9.380   2.775 -1.2758  0.1275 -0.1797
  357MOL0     O48084   5.476   9.409   2.775  0.1592  0.1034  0.1345
  357MOL0     C48085   5.525   9.454   2.893 -0.4483 -0.6457  0.5672
  357MOL0     C48086   5.657   9.478   2.903  0.2682 -0.0558 -0.2762
  357MOL0     C48087   5.722   9.529   3.022  0.1418 -0.0168 -0.0373
  357MOL0     C48088   5.647   9.546   3.144 -0.1463 -0.4675 -0.3721
  357MOL0     C48089   5.708   9.595   3.267 -0.1455  0.0420 -0.7563
  357MOL0     O48090   5.633   9.605   3.377 -0.2949 -0.3041  0.3483
  357MOL0     C48091   5.683   9.671   3.491 -0.6014  0.3688  1.0946
  357MOL0     C48092   5.711   9.807   3.508 -0.3219 -0.8601  0.6712
  357MOL0     C48093   5.760   9.849   3.628 -0.3837 -0.2309 -0.7149
  357MOL0     C48094   5.780   9.761   3.741 -0.4272 -0.2873  0.2902
  357MOL0     O48095   5.838   9.818   3.856 -0.9597  0.5520 -0.2834
  357MOL0     C48096   5.847   9.736   3.969  0.3022 -0.5831 -0.3205
  357MOL0     C48097   5.896   9.811   4.098 -0.1145 -0.8556  0.7881
  357MOL0     C48098   5.798   9.914   4.157 -0.5397 -0.3879 -0.5998
  357MOL0     C48099   5.848   9.969   4.294 -0.7013 -0.3618  1.2944
  357MOL0     C48100   5.751  10.089   4.332 -0.5339  0.4475  1.0385
  357MOL0     C48101   5.787  10.145   4.468 -0.4251  0.2048 -0.0496
  357MOL0     C48102   5.736  10.288   4.492 -0.1897  0.1154 -0.1762
  357MOL0     C48103   5.768  10.361   4.619  0.8580 -0.3519  0.3620
  357MOL0    Cl48104   5.691  10.526   4.608 -0.1281  0.1186  0.2168
  357MOL0     C48105   5.751   9.625   3.723 -0.2654 -0.4796 -0.1889
  357MOL0     C48106   5.704   9.589   3.600  0.3001 -0.1525 -0.6609
  357MOL0     O48107   5.832   9.615   3.260  0.4176 -0.4058 -0.2408
  357MOL0     C48108   5.505   9.520   3.132 -0.1597  0.0935 -0.4180
  357MOL0     C48109   5.450   9.475   3.011  0.2014  0.3977 -0.4869
  357MOL0     N48110   5.322   9.089   2.407  0.0564  0.3189  0.4929
  357MOL0     N48111   5.411   9.006   2.348 -0.3860 -0.7809  0.4259
  357MOL0     C48112   4.842   8.332   2.121 -0.2644  0.8079  0.8883
  357MOL0     C48113   4.778   8.225   2.165  0.4873 -0.0385 -0.0296
  357MOL0     C48114   4.518   7.924   2.298 -0.4087  0.3902 -0.3279
  357MOL0     C48115   4.612   7.826   2.270  0.8599 -0.2927 -0.4535
  357MOL0     C48116   4.617   7.713   2.349  0.4120  0.9083  1.3718
  357MOL0     C48117   4.519   7.673   2.441  0.1485  0.3954  0.2580
  357MOL0     O48118   4.524   7.543   2.483  0.1875  0.7293  0.2929
  357MOL0     C48119   4.401   7.479   2.532  0.1818  0.0929 -0.2726
  357MOL0     C48120   4.429   7.338   2.580  0.4963  0.3101 -0.1798
  357MOL0     C48121   4.300   7.268   2.627  0.0518  0.1822 -0.9573
  357MOL0     C48122   4.240   7.189   2.504  0.2772 -0.9461  0.0234
  357MOL0     C48123   4.290   7.055   2.480 -0.6862 -0.0493  0.5980
  357MOL0     C48124   4.329   6.947   2.463 -0.9420  0.8973 -0.5913
  357MOL0     C48125   4.428   7.775   2.469  0.3347  0.5599 -0.3800
  357MOL0     C48126   4.425   7.896   2.404 -0.6465  0.1964  0.1951
  357MOL0     C48127   4.321   7.997   2.455 -0.8574  0.1143  0.0381
  357MOL0     H48128   4.611   8.146   1.873  1.6343  0.2301 -0.5128
  357MOL0     H48129   4.721   8.339   1.794  1.0598  0.9266 -0.7939
  357MOL0     H48130   4.940   8.461   1.768  1.0763  3.3340 -0.9935
  357MOL0     H48131   4.788   8.558   1.802 -0.9916  0.3536  1.6014
  357MOL0     H48132   4.940   8.736   1.900  0.0365  2.4247 -1.4684
  357MOL0     H48133   4.947   8.713   1.722 -0.5330 -0.3995  0.2221
  357MOL0     H48134   5.188   8.620   1.753  1.5003 -0.6915  0.5278
  357MOL0     H48135   5.144   8.594   1.921 -1.0107  0.2039 -0.6555
  357MOL0     H48136   5.210   8.862   1.781 -2.7655  2.5160  0.9733
  357MOL0     H48137   5.131   8.860   1.930 -1.1193  2.3281 -3.4605
  357MOL0     H48138   5.322   8.710   2.028  2.1436 -1.1881 -0.0380
  357MOL0     H48139   5.417   8.731   1.893  2.7907  0.7720  3.2530
  357MOL0     H48140   5.420   8.975   1.903 -1.2036  2.2780  0.9288
  357MOL0     H48141   5.327   8.985   2.050 -0.9870  2.5130 -2.1517
  357MOL0     H48142   5.606   8.856   2.019  1.1469  1.6220 -0.5894
  357MOL0     H48143   5.493   8.834   2.163 -0.2942  0.0751  0.0236
  357MOL0     H48144   5.652   9.032   2.193 -2.0987  0.2704  1.5617
  357MOL0     H48145   5.563   9.118   2.076  2.1000  0.3490  0.7548
  357MOL0     H48146   5.460   9.301   2.207  1.9949 -0.8064  0.8959
  357MOL0     H48147   5.247   9.401   2.305  1.4392  0.9856  1.4533
  357MOL0     H48148   5.149   9.311   2.422 -0.7410  2.2915  0.4957
  357MOL0     H48149   5.420   9.411   2.475  0.6430  1.6921  1.2538
  357MOL0     H48150   5.267   9.495   2.539 -0.6999  0.6190 -0.7296
  357MOL0     H48151   5.386   9.232   2.624  0.1467  0.6182  3.1854
  357MOL0     H48152   5.212   9.277   2.639 -0.8210  2.3669 -1.1662
  357MOL0     H48153   5.307   9.301   2.845  0.7405 -1.7572 -1.3338
  357MOL0     H48154   5.260   9.458   2.787 -2.3031 -0.8000 -0.5797
  357MOL0     H48155   5.730   9.474   2.824 -0.6448  2.7506 -1.3951
  357MOL0     H48156   5.830   9.543   3.019  0.0540  0.9081  0.6273
  357MOL0     H48157   5.685   9.873   3.426  0.9832  0.3793  1.2171
  357MOL0     H48158   5.788   9.954   3.632 -0.3196 -0.2738  0.4964
  357MOL0     H48159   5.746   9.710   4.001  0.1419 -0.1834 -0.4951
  357MOL0     H48160   5.907   9.648   3.941  2.9880  1.9681 -3.4525
  357MOL0     H48161   5.887   9.731   4.172  2.4134 -2.6597 -0.7136
  357MOL0     H48162   6.000   9.843   4.087 -1.1041  2.1085 -1.4055
  357MOL0     H48163   5.797   9.993   4.082  0.7443 -1.1655 -1.4849
  357MOL0     H48164   5.702   9.867   4.179 -0.9673  2.0233  4.0017
  357MOL0     H48165   5.949  10.010   4.280 -1.9413  2.2008 -1.2612
  357MOL0     H48166   5.848   9.892   4.372 -1.7505  1.2700  2.9895
  357MOL0     H48167   5.649  10.051   4.324 -0.8282  0.8234  2.6118
  357MOL0     H48168   5.771  10.175   4.268 -3.8614  0.7442  0.2187
  357MOL0     H48169   5.734  10.085   4.543 -0.5027 -1.7170 -1.5579
  357MOL0     H48170   5.895  10.139   4.486 -0.4532 -1.3430 -0.3035
  357MOL0     H48171   5.628  10.271   4.499 -0.5502  0.2855 -3.7975
  357MOL0     H48172   5.750  10.350   4.404  0.2852 -1.5128 -1.2949
  357MOL0     H48173   5.721  10.299   4.694  0.0500 -2.8613 -2.0578
  357MOL0     H48174   5.877  10.367   4.631  1.0971  0.4223 -1.7518
  357MOL0     H48175   5.752   9.554   3.806  0.2669  1.1894  1.2901
  357MOL0     H48176   5.675   9.486   3.587  0.4619 -0.3297  0.3471
  357MOL0     H48177   5.425   9.525   3.205 -1.5041  1.7219 -1.9075
  357MOL0     H48178   5.344   9.458   2.996  0.2931 -1.2394  0.4995
  357MOL0     H48179   4.895   8.397   2.189 -1.7791  0.7224  2.1976
  357MOL0     H48180   4.790   8.191   2.268 -2.1987 -2.0750 -0.2651
  357MOL0     H48181   4.677   7.821   2.183  2.8010  0.2415  0.8828
  357MOL0     H48182   4.690   7.638   2.320 -1.1016 -1.4902  3.3106
  357MOL0     H48183   4.329   7.470   2.451  1.3125 -0.0690 -1.2970
  357MOL0     H48184   4.361   7.538   2.615 -0.3196 -0.5013 -0.0834
  357MOL0     H48185   4.511   7.332   2.652  1.7014 -1.6130 -1.6006
  357MOL0     H48186   4.479   7.291   2.495  0.6015 -0.4205  0.2748
  357MOL0     H48187   4.227   7.337   2.670 -1.7087 -2.5514  0.7586
  357MOL0     H48188   4.327   7.190   2.698  3.5808  1.2231 -0.9856
  357MOL0     H48189   4.132   7.180   2.515  0.0537 -0.1410 -1.2975
  357MOL0     H48190   4.252   7.252   2.415 -0.3928  1.2321  1.4027
  357MOL0     H48191   4.364   6.849   2.441  1.9636  0.9363  2.9205
  357MOL0     H48192   4.350   7.766   2.544  1.1486  2.6950  0.8443
  357MOL0     H48193   4.232   7.979   2.395 -1.0044 -1.2368  0.6402
  357MOL0     H48194   4.300   7.990   2.562  2.9294  1.1657  1.0029
  357MOL0     H48195   4.349   8.102   2.437 -0.5740 -0.3913 -3.0163
  358MOL0     O48196   5.389   7.865   4.812 -0.8255  0.5346  0.3064
  358MOL0     C48197   5.495   7.833   4.748  0.6870  0.3711 -0.2378
  358MOL0     O48198   5.495   7.758   4.636  0.0506  0.6229  0.2274
  358MOL0     C48199   5.389   7.676   4.599 -1.0298 -0.4578 -0.8839
  358MOL0     C48200   5.436   7.554   4.559 -0.0480  0.3218  0.0205
  358MOL0     C48201   5.355   7.457   4.516 -0.4462  0.2674  0.8490
  358MOL0     C48202   5.217   7.476   4.514 -0.2295  0.4034 -0.4273
  358MOL0     O48203   5.138   7.377   4.476  0.9205  0.0104  0.3995
  358MOL0     C48204   5.129   7.278   4.572 -0.2681  2.3615  0.5245
  358MOL0     C48205   5.009   7.309   4.657 -0.5539  0.9460 -0.0326
  358MOL0     C48206   4.951   7.181   4.732  0.1232 -0.6543 -0.6828
  358MOL0     C48207   4.872   7.085   4.646  1.0329 -0.1814  0.9691
  358MOL0     C48208   4.828   6.953   4.717 -0.3725 -0.2336 -0.7635
  358MOL0     C48209   4.943   6.862   4.762  0.0373 -0.6478  0.5567
  358MOL0     C48210   4.914   6.709   4.791  0.5052  0.0454  0.1045
  358MOL0     C48211   4.798   6.683   4.892  1.2715 -0.5460  0.1186
  358MOL0     N48212   4.816   6.750   5.016  0.3174 -1.2067  0.1100
  358MOL0     C48213   4.722   6.808   5.094 -0.0852  0.1950  0.5438
  358MOL0     C48214   4.793   6.845   5.202 -0.6649  0.2463  0.2188
  358MOL0     C48215   4.743   6.931   5.316  0.1112 -1.0712  0.0468
  358MOL0     C48216   4.671   7.072   5.272  0.1473  0.7463  0.8570
  358MOL0     C48217   4.624   7.150   5.400  0.0723 -0.2457  1.2955
  358MOL0     C48218   4.724   7.237   5.481  0.5708 -0.8848 -0.3436
  358MOL0     O48219   4.728   7.204   5.619 -0.7389 -0.3491  1.7034
  358MOL0     C48220   4.797   7.283   5.712  0.5712 -0.3060  0.0489
  358MOL0     C48221   4.857   7.404   5.686 -0.5122  0.3359 -0.1125
  358MOL0     C48222   4.912   7.480   5.787  0.3639  1.0736 -0.0496
  358MOL0     C48223   4.926   7.434   5.914  0.5754  0.4663 -0.8109
  358MOL0     C48224   5.009   7.501   6.016 -0.4058  0.1690  0.3626
  358MOL0     O48225   5.009   7.465   6.151  0.3249 -0.9356  0.1019
  358MOL0     C48226   5.092   7.530   6.241 -0.3028 -0.3065 -0.2234
  358MOL0     C48227   5.043   7.609   6.341 -0.0044  0.1837  0.0737
  358MOL0     C48228   5.131   7.674   6.437 -0.9546 -0.2425  0.4361
  358MOL0     C48229   5.276   7.650   6.426  0.4058 -0.8343 -0.6743
  358MOL0     O48230   5.334   7.717   6.537  0.4022  0.0636 -0.3613
  358MOL0     C48231   5.477   7.696   6.539 -0.1546 -0.2484  0.2946
  358MOL0     C48232   5.519   7.751   6.672  0.3811 -0.3963 -0.7745
  358MOL0     C48233   5.667   7.803   6.682  0.1175  0.1932  0.6552
  358MOL0     C48234   5.776   7.702   6.654 -0.3709  0.7172 -0.2718
  358MOL0     C48235   5.750   7.578   6.739 -0.2878  0.5491  0.4433
  358MOL0     C48236   5.887   7.519   6.757  0.2105 -0.0638 -0.7694
  358MOL0     C48237   5.882   7.385   6.837 -0.7222  1.1583 -0.0283
  358MOL0     C48238   5.913   7.424   6.982  0.5421  1.3532  0.1209
  358MOL0    Cl48239   5.933   7.278   7.074 -0.2518  0.0163 -0.2342
  358MOL0     C48240   5.321   7.570   6.317  0.0503  0.0832 -0.4366
  358MOL0     C48241   5.227   7.510   6.232  0.0514 -0.2853 -0.3628
  358MOL0     O48242   5.066   7.596   5.976 -0.5790 -0.3393 -0.2767
  358MOL0     C48243   4.874   7.307   5.947 -0.6378 -0.4519  1.1081
  358MOL0     C48244   4.810   7.235   5.844 -0.2206  0.3203 -0.3688
  358MOL0     N48245   4.934   6.823   5.182  0.6465  0.7723 -0.1022
  358MOL0     N48246   4.942   6.764   5.068  0.6074  0.3494  0.2264
  358MOL0     C48247   5.162   7.596   4.571 -0.6526 -0.6962 -0.1400
  358MOL0     C48248   5.252   7.698   4.608 -0.2369  0.6290  0.4448
  358MOL0     C48249   5.617   7.908   4.776 -0.2290  0.3536  0.1381
  358MOL0     C48250   5.723   7.897   4.689 -0.2368  0.2475  0.4707
  358MOL0     C48251   5.841   7.974   4.710 -0.5594  0.4984 -0.2830
  358MOL0     C48252   5.863   8.047   4.831 -0.1475  0.3314  0.1156
  358MOL0     O48253   5.967   8.124   4.866 -0.4972 -0.0624 -0.1376
  358MOL0     C48254   6.070   8.155   4.773 -1.3628  0.2519 -0.1957
  358MOL0     C48255   6.177   8.036   4.774 -0.4121  0.3496 -0.3316
  358MOL0     C48256   6.287   8.062   4.667  0.6286  0.3803 -0.2361
  358MOL0     C48257   6.403   7.947   4.687  0.0502 -0.3200  0.7808
  358MOL0     C48258   6.340   7.817   4.669 -0.6445 -0.2199  1.2902
  358MOL0     C48259   6.292   7.712   4.631 -0.4375 -0.4558  0.0811
  358MOL0     C48260   5.761   8.045   4.928 -0.1870  0.0886  0.0656
  358MOL0     C48261   5.637   7.978   4.899  0.2237  0.4824  0.6916
  358MOL0     C48262   5.531   8.000   5.007 -0.2202  0.5900 -0.3869
  358MOL0     H48263   5.545   7.551   4.559  0.0279  1.4424 -1.5454
  358MOL0     H48264   5.408   7.368   4.484 -1.1492 -1.6773  4.5422
  358MOL0     H48265   5.108   7.185   4.519  1.0670  2.3650 -0.0362
  358MOL0     H48266   5.219   7.258   4.630 -1.0040  0.0845  0.9539
  358MOL0     H48267   4.928   7.348   4.595 -0.6297  2.5974  1.0244
  358MOL0     H48268   5.036   7.385   4.731 -2.0616 -1.6273  3.4298
  358MOL0     H48269   4.887   7.223   4.810 -1.2781 -0.9258 -1.6609
  358MOL0     H48270   5.029   7.126   4.787 -0.7048  1.1202  2.5389
  358MOL0     H48271   4.783   7.132   4.603 -0.1834 -4.1801 -1.4367
  358MOL0     H48272   4.930   7.059   4.557 -1.5038  0.0056 -0.8594
  358MOL0     H48273   4.757   6.960   4.800  0.8048 -0.8310  0.3414
  358MOL0     H48274   4.778   6.905   4.632 -0.6348  2.6790 -2.3736
  358MOL0     H48275   5.018   6.867   4.683 -0.6607 -1.5270 -0.1841
  358MOL0     H48276   4.979   6.913   4.851 -3.3198 -0.1273  1.7516
  358MOL0     H48277   5.007   6.665   4.828 -0.9246 -2.2569  1.2007
  358MOL0     H48278   4.890   6.652   4.700  1.2279 -3.0906  1.7281
  358MOL0     H48279   4.703   6.721   4.854  0.9179 -0.1210  1.3696
  358MOL0     H48280   4.789   6.576   4.909 -0.6970 -0.7300 -1.6976
  358MOL0     H48281   4.621   6.837   5.068  0.0397 -1.9222 -3.0210
  358MOL0     H48282   4.691   6.866   5.387  2.3614 -2.2003  0.7447
  358MOL0     H48283   4.829   6.960   5.378  1.5743 -2.9330 -1.0143
  358MOL0     H48284   4.729   7.141   5.211 -1.5354  2.6252  1.2964
  358MOL0     H48285   4.583   7.041   5.214  0.9765  0.0866 -0.0889
  358MOL0     H48286   4.581   7.077   5.470 -0.3982 -0.0248  1.2438
  358MOL0     H48287   4.543   7.218   5.370  0.2092 -1.2305 -1.5408
  358MOL0     H48288   4.695   7.342   5.476  0.3339 -0.8282  1.6819
  358MOL0     H48289   4.822   7.227   5.433  0.7537  1.5478 -0.5925
  358MOL0     H48290   4.859   7.442   5.584  1.1150 -1.2948 -0.7518
  358MOL0     H48291   4.949   7.579   5.766 -2.3828  2.1111 -0.4338
  358MOL0     H48292   4.936   7.624   6.351 -0.6717  0.6234 -5.2021
  358MOL0     H48293   5.084   7.730   6.518  0.6893 -0.3109  1.4835
  358MOL0     H48294   5.516   7.595   6.523  0.5802 -0.3835  2.6276
  358MOL0     H48295   5.520   7.755   6.457  1.0028  2.3158  2.5883
  358MOL0     H48296   5.447   7.829   6.699 -1.8038 -3.0617  1.6797
  358MOL0     H48297   5.509   7.677   6.752  2.8463 -1.4994 -1.3916
  358MOL0     H48298   5.685   7.887   6.614  0.2417  0.9252  1.5576
  358MOL0     H48299   5.691   7.836   6.784 -0.8226 -1.3354  1.4004
  358MOL0     H48300   5.865   7.758   6.682 -0.1384  0.5831 -0.7263
  358MOL0     H48301   5.771   7.672   6.549 -0.8033 -1.1523  0.2452
  358MOL0     H48302   5.671   7.517   6.693 -3.6627  4.1031  0.9537
  358MOL0     H48303   5.713   7.600   6.839 -3.9725 -1.8093 -0.2216
  358MOL0     H48304   5.933   7.491   6.662  1.6234  0.0243 -0.1316
  358MOL0     H48305   5.960   7.580   6.810  0.7955  0.4362 -2.1409
  358MOL0     H48306   5.967   7.319   6.815  0.1117  1.3673  2.2534
  358MOL0     H48307   5.782   7.343   6.825  0.3732 -1.2822 -1.4202
  358MOL0     H48308   6.000   7.488   7.001  0.4493  0.9030  2.2921
  358MOL0     H48309   5.820   7.470   7.020  0.7199  3.3647 -1.6731
  358MOL0     H48310   5.423   7.551   6.285 -0.2929 -1.6207 -0.5845
  358MOL0     H48311   5.270   7.442   6.159  1.9429  0.4395  0.0200
  358MOL0     H48312   4.895   7.267   6.046 -1.6568 -4.0437  0.0191
  358MOL0     H48313   4.767   7.142   5.880 -1.3676  1.3704  1.0833
  358MOL0     H48314   5.057   7.621   4.579 -0.1611  1.7595 -0.6217
  358MOL0     H48315   5.224   7.798   4.640  4.4683  1.8799  1.4369
  358MOL0     H48316   5.720   7.850   4.591 -1.1215 -1.3533  1.2278
  358MOL0     H48317   5.917   7.965   4.633  2.7354 -1.7756  2.8820
  358MOL0     H48318   6.119   8.248   4.801  1.1009 -1.1097  0.3537
  358MOL0     H48319   6.031   8.181   4.674 -2.2079 -0.3551 -0.0350
  358MOL0     H48320   6.127   7.941   4.749  2.7467 -1.7950  0.8511
  358MOL0     H48321   6.212   8.014   4.875 -2.3205  0.2857  0.3515
  358MOL0     H48322   6.326   8.162   4.687 -3.6754  2.6447 -1.6499
  358MOL0     H48323   6.249   8.055   4.564  0.6047  4.4880 -0.6913
  358MOL0     H48324   6.491   7.958   4.622 -0.4373  1.8849  0.4113
  358MOL0     H48325   6.446   7.953   4.787  0.2664 -0.3579  0.6913
  358MOL0     H48326   6.254   7.618   4.595  4.4229 -1.6742 -2.8530
  358MOL0     H48327   5.785   8.107   5.013  0.3910 -0.0765  0.0272
  358MOL0     H48328   5.563   8.058   5.094 -1.3406 -0.5059  0.8056
  358MOL0     H48329   5.443   8.054   4.971 -1.0935 -1.2940 -1.2310
  358MOL0     H48330   5.511   7.904   5.056  1.0981  1.6358  2.3776
  359MOL0     O48331   4.468   0.259   9.206  0.8130  0.1328  0.2460
  359MOL0     C48332   4.366   0.309   9.165 -0.1931 -0.3200 -0.3941
  359MOL0     O48333   4.339   0.344   9.036 -0.3335 -0.0377  0.2784
  359MOL0     C48334   4.455   0.368   8.964  0.3042 -0.0126  0.2947
  359MOL0     C48335   4.520   0.263   8.910  0.4180 -0.8060 -0.4691
  359MOL0     C48336   4.644   0.291   8.844 -0.6971  0.2696 -0.4783
  359MOL0     C48337   4.687   0.418   8.820 -1.2701 -0.5300 -0.4060
  359MOL0     O48338   4.809   0.439   8.758  0.7205  0.0243 -0.1036
  359MOL0     C48339   4.836   0.563   8.687  0.0917  0.0345 -0.0954
  359MOL0     C48340   4.989   0.569   8.635 -0.3772 -0.1253  0.0818
  359MOL0     C48341   4.999   0.488   8.505 -0.8011  0.4718  0.8290
  359MOL0     C48342   5.148   0.465   8.464  0.4520 -0.2688 -0.7042
  359MOL0     C48343   5.165   0.361   8.353 -0.0115 -0.0307 -0.3200
  359MOL0     C48344   5.315   0.365   8.305 -0.2558  0.1938  1.2438
  359MOL0     C48345   5.322   0.318   8.156 -1.0472  0.0054 -0.0869
  359MOL0     C48346   5.477   0.303   8.116  0.3658 -0.1441 -0.0469
  359MOL0     N48347   5.500   0.180   8.037 -0.3426  0.0712  0.4590
  359MOL0     C48348   5.607   0.100   8.059 -0.3660  0.5784  0.2928
  359MOL0     C48349   5.602   0.021   7.949  0.3723 -0.0408  0.7412
  359MOL0     C48350   5.696  -0.103   7.922 -1.0319 -0.3446  0.6909
  359MOL0     C48351   5.836  -0.060   7.853 -0.0327  0.9713  0.4736
  359MOL0     C48352   5.820  -0.046   7.695  0.8509 -0.5090 -0.3952
  359MOL0     C48353   5.815   0.102   7.646  0.1199  0.3679 -0.0686
  359MOL0     O48354   5.941   0.164   7.659 -0.3140  0.0273  0.9008
  359MOL0     C48355   5.953   0.263   7.759  0.7175  0.0486  1.0163
  359MOL0     C48356   6.084   0.308   7.763  0.6047  0.2407 -0.0444
  359MOL0     C48357   6.106   0.408   7.858 -0.0700 -0.0854 -0.1379
  359MOL0     C48358   6.006   0.466   7.942 -0.1794  0.9337  0.2743
  359MOL0     C48359   6.041   0.582   8.030  0.2726 -0.4794 -0.4514
  359MOL0     O48360   5.949   0.617   8.121 -0.7621  0.1128 -0.4045
  359MOL0     C48361   5.976   0.717   8.213 -0.7020 -0.2594  1.1396
  359MOL0     C48362   6.098   0.722   8.275 -0.8098  0.1127 -0.9360
  359MOL0     C48363   6.115   0.827   8.370 -0.3389  0.8460  0.6447
  359MOL0     C48364   6.010   0.914   8.405 -0.2745  0.1487 -0.1613
  359MOL0     O48365   6.024   1.019   8.496 -0.7417 -0.3105  0.0343
  359MOL0     C48366   6.162   1.066   8.519  0.0821 -0.3590 -0.2677
  359MOL0     C48367   6.159   1.158   8.638  0.2609  0.5241  0.5541
  359MOL0     C48368   6.102   1.095   8.773 -0.0328 -0.5924 -0.4381
  359MOL0     C48369   5.980   1.167   8.822 -0.0848  0.1184 -0.2269
  359MOL0     C48370   6.043   1.301   8.885 -0.4299  0.2153 -0.0765
  359MOL0     C48371   6.072   1.310   9.039  0.6585 -0.9818  0.4571
  359MOL0     C48372   5.975   1.394   9.121  0.4173  0.5894 -0.6708
  359MOL0     C48373   6.044   1.436   9.253 -0.7899  0.1998 -0.9813
  359MOL0    Cl48374   5.925   1.490   9.362  0.0664 -0.0538  0.0348
  359MOL0     C48375   5.882   0.896   8.348 -0.5512 -0.3308  1.2403
  359MOL0     C48376   5.872   0.810   8.241 -1.4057  0.7445 -0.6119
  359MOL0     O48377   6.155   0.635   8.013 -0.3732 -0.0448 -0.5517
  359MOL0     C48378   5.881   0.413   7.942 -0.3885  0.3608 -0.0814
  359MOL0     C48379   5.855   0.304   7.855 -0.0002  0.1019 -0.5766
  359MOL0     N48380   5.502   0.061   7.860 -0.8704 -0.2249 -0.0844
  359MOL0     N48381   5.451   0.169   7.911  1.1339 -0.4601  0.0975
  359MOL0     C48382   4.610   0.523   8.863 -0.7798 -0.8365  0.4087
  359MOL0     C48383   4.501   0.500   8.952  0.3738  0.4584  0.4125
  359MOL0     C48384   4.250   0.340   9.251 -0.1477  0.2804 -0.5474
  359MOL0     C48385   4.115   0.332   9.202  0.2240  0.0013 -1.0213
  359MOL0     C48386   4.011   0.368   9.288  0.7864  0.2642 -0.4723
  359MOL0     C48387   4.036   0.412   9.421 -0.1508 -0.2709 -0.6861
  359MOL0     O48388   3.935   0.438   9.500 -0.0728  0.8254 -0.1782
  359MOL0     C48389   3.950   0.449   9.643 -1.0376  0.1902 -0.0851
  359MOL0     C48390   3.808   0.416   9.701  0.6250 -0.5231  0.6019
  359MOL0     C48391   3.792   0.451   9.850  0.6986  1.5938  0.2103
  359MOL0     C48392   3.646   0.422   9.910 -0.4831 -0.5524  0.2140
  359MOL0     C48393   3.628   0.281   9.958  0.5846 -0.0041  0.0228
  359MOL0     C48394   3.614   0.166   9.999  0.0795  0.1215  0.7613
  359MOL0     C48395   4.169   0.404   9.467 -0.5206 -0.3012  0.4873
  359MOL0     C48396   4.276   0.379   9.382 -0.1398  0.6698  1.1336
  359MOL0     C48397   4.408   0.391   9.452 -1.2887 -0.0418 -0.6536
  359MOL0     H48398   4.486   0.161   8.927  0.6277 -1.1139 -1.7365
  359MOL0     H48399   4.700   0.211   8.797  0.3336 -1.1515  2.8088
  359MOL0     H48400   4.782   0.575   8.592  1.7936 -1.3048 -1.2961
  359MOL0     H48401   4.828   0.654   8.748  0.7936  0.9964 -1.3802
  359MOL0     H48402   5.051   0.524   8.712  0.3039 -1.4506 -1.1821
  359MOL0     H48403   5.034   0.668   8.626 -1.4480  0.2996 -0.8639
  359MOL0     H48404   4.954   0.540   8.420  4.5813 -0.6406 -3.2990
  359MOL0     H48405   4.947   0.394   8.524 -1.1473 -0.0460 -2.1760
  359MOL0     H48406   5.197   0.561   8.442 -0.6731  0.9297  1.6593
  359MOL0     H48407   5.196   0.419   8.551  1.7100  1.2382 -0.5532
  359MOL0     H48408   5.145   0.261   8.391 -0.6442  0.5941  1.0702
  359MOL0     H48409   5.108   0.372   8.260  1.3922  2.0930 -1.0088
  359MOL0     H48410   5.347   0.470   8.308 -0.1534  0.2435 -0.5338
  359MOL0     H48411   5.360   0.297   8.378 -2.9116 -1.3493  1.5483
  359MOL0     H48412   5.272   0.388   8.089 -0.5800  0.0271 -0.4142
  359MOL0     H48413   5.284   0.216   8.151 -0.5091 -0.1702 -0.6772
  359MOL0     H48414   5.506   0.390   8.056 -0.5294 -0.6202 -1.2125
  359MOL0     H48415   5.535   0.286   8.207 -1.6811 -3.7749  0.7661
  359MOL0     H48416   5.663   0.086   8.152  1.2166  0.4119 -0.6460
  359MOL0     H48417   5.723  -0.151   8.016  4.8888 -0.1665 -0.5288
  359MOL0     H48418   5.643  -0.181   7.866 -1.8241  0.6348  0.0242
  359MOL0     H48419   5.876   0.034   7.892 -0.6924  0.7663  1.7088
  359MOL0     H48420   5.904  -0.141   7.881 -1.1226  0.5163  1.9275
  359MOL0     H48421   5.726  -0.087   7.655  0.3305 -0.6051  0.8976
  359MOL0     H48422   5.911  -0.089   7.652  1.2124  1.1150 -1.3582
  359MOL0     H48423   5.739   0.153   7.707 -0.5104 -0.4591 -0.1572
  359MOL0     H48424   5.791   0.095   7.540  4.5130 -3.8548 -1.1310
  359MOL0     H48425   6.164   0.279   7.695  1.3669 -1.3560  1.4648
  359MOL0     H48426   6.204   0.453   7.851 -0.1437  0.0085 -0.6070
  359MOL0     H48427   6.180   0.651   8.262  0.8167  0.8350  3.4635
  359MOL0     H48428   6.207   0.841   8.426 -0.0117 -0.9123  0.6202
  359MOL0     H48429   6.227   0.981   8.541  1.1478  0.4240 -0.3042
  359MOL0     H48430   6.208   1.109   8.430  2.4926 -0.4046  0.8937
  359MOL0     H48431   6.262   1.191   8.655  0.1133 -0.1423  3.0844
  359MOL0     H48432   6.102   1.247   8.609 -0.5826 -0.0198  0.5209
  359MOL0     H48433   6.080   0.990   8.752  0.1587 -1.1321  1.7591
  359MOL0     H48434   6.167   1.092   8.861 -0.5048 -1.2779 -0.0955
  359MOL0     H48435   5.934   1.116   8.907  2.6225 -0.6455  0.8558
  359MOL0     H48436   5.915   1.181   8.735 -2.0719 -0.9203  1.0163
  359MOL0     H48437   5.962   1.365   8.850 -0.2106 -0.0836 -1.1528
  359MOL0     H48438   6.133   1.334   8.833 -1.1287 -1.0039 -2.1864
  359MOL0     H48439   6.081   1.205   9.068 -1.9183 -2.6070 -3.7392
  359MOL0     H48440   6.174   1.342   9.062  0.1326 -0.1069  1.7102
  359MOL0     H48441   5.877   1.346   9.134  0.0176  1.9484  1.8548
  359MOL0     H48442   5.946   1.489   9.074 -1.4970  1.3233  1.7668
  359MOL0     H48443   6.087   1.346   9.298 -0.9323  0.7361  0.2567
  359MOL0     H48444   6.125   1.510   9.247  0.1447 -0.3919  2.4018
  359MOL0     H48445   5.804   0.971   8.359 -1.6852 -1.2722 -0.0761
  359MOL0     H48446   5.782   0.789   8.184 -0.9440 -2.5185 -0.3128
  359MOL0     H48447   5.803   0.423   8.018 -0.3760 -1.3120  0.1931
  359MOL0     H48448   5.756   0.260   7.865 -1.7645  3.6685 -0.8213
  359MOL0     H48449   4.639   0.623   8.832 -0.8718 -1.2461 -1.1061
  359MOL0     H48450   4.440   0.579   8.994 -0.3739 -0.9293  2.0583
  359MOL0     H48451   4.089   0.315   9.098 -0.9017  2.0994 -1.1215
  359MOL0     H48452   3.907   0.382   9.260  1.5476  1.7226 -2.9149
  359MOL0     H48453   3.991   0.549   9.661 -2.6314  0.6988  0.8581
  359MOL0     H48454   4.027   0.384   9.686 -2.1792 -0.1895  1.4501
  359MOL0     H48455   3.766   0.318   9.674 -1.8442  0.3766  0.8615
  359MOL0     H48456   3.754   0.489   9.640  2.8864  0.1650 -0.6642
  359MOL0     H48457   3.810   0.559   9.848  0.3594  1.6403 -0.3133
  359MOL0     H48458   3.875   0.413   9.910  0.4743  1.0256  0.1709
  359MOL0     H48459   3.633   0.501   9.985 -1.4156  0.2189 -0.7169
  359MOL0     H48460   3.575   0.440   9.828 -4.1481 -3.8362  2.3364
  359MOL0     H48461   3.611   0.066  10.038 -0.6656 -2.6533 -5.3011
  359MOL0     H48462   4.189   0.441   9.568 -2.1913  2.7233 -0.1605
  359MOL0     H48463   4.485   0.445   9.395 -0.1740  1.8145  2.3983
  359MOL0     H48464   4.406   0.442   9.549  1.0609 -1.7853  0.4096
  359MOL0     H48465   4.446   0.290   9.472  0.1659  0.7498  0.7871
  360MOL0     O48466   2.707   4.611   0.978 -0.5458 -0.1547 -0.0783
  360MOL0     C48467   2.719   4.496   0.936 -0.1923 -0.4486  0.3882
  360MOL0     O48468   2.793   4.396   0.988 -0.2000  0.7025 -0.3673
  360MOL0     C48469   2.857   4.427   1.105 -0.6924 -1.0541 -0.7698
  360MOL0     C48470   2.802   4.395   1.231 -0.1258  0.2563 -1.0096
  360MOL0     C48471   2.872   4.415   1.351 -0.1861  0.3084 -1.2177
  360MOL0     C48472   3.001   4.459   1.350 -0.3086 -0.4351  0.1632
  360MOL0     O48473   3.057   4.510   1.467  0.5617 -0.1379  0.2276
  360MOL0     C48474   3.146   4.630   1.453 -1.0723  0.0254 -1.1854
  360MOL0     C48475   3.299   4.595   1.442  0.5153 -0.2266 -0.2907
  360MOL0     C48476   3.397   4.664   1.340  0.6525  0.2438 -0.5600
  360MOL0     C48477   3.529   4.595   1.314 -0.3823  1.1067 -0.0196
  360MOL0     C48478   3.626   4.690   1.233  0.7136 -0.1218  0.4546
  360MOL0     C48479   3.751   4.605   1.212 -0.8159 -0.1530 -0.4639
  360MOL0     C48480   3.878   4.663   1.153 -0.3607  0.7515 -0.1666
  360MOL0     C48481   3.917   4.788   1.228 -0.2643 -0.3649  0.4368
  360MOL0     N48482   3.921   4.778   1.381  0.1350 -0.3325 -0.6577
  360MOL0     C48483   4.035   4.734   1.453 -0.3381 -0.2600  0.5733
  360MOL0     C48484   4.003   4.773   1.575 -0.1801 -0.0007 -0.3732
  360MOL0     C48485   4.081   4.736   1.700  0.3918 -0.4234  0.4501
  360MOL0     C48486   4.202   4.829   1.706 -0.6600 -0.4221 -0.3610
  360MOL0     C48487   4.259   4.811   1.855  0.9302 -0.4328  0.3823
  360MOL0     C48488   4.360   4.917   1.887  0.1566  0.1645  0.1255
  360MOL0     O48489   4.484   4.878   1.814  0.1128 -0.4242  0.2517
  360MOL0     C48490   4.584   4.975   1.823  1.0237 -0.3204  0.4096
  360MOL0     C48491   4.701   4.935   1.768  0.1549  0.1810  0.3128
  360MOL0     C48492   4.809   5.034   1.750  0.1571 -0.4464  0.6771
  360MOL0     C48493   4.814   5.147   1.823 -0.2299 -0.0486  1.0578
  360MOL0     C48494   4.942   5.224   1.817 -0.0821  0.0018  0.8192
  360MOL0     O48495   4.992   5.228   1.692  0.2156 -0.2204  0.0879
  360MOL0     C48496   5.103   5.304   1.659  0.3774 -0.8077 -0.9978
  360MOL0     C48497   5.130   5.442   1.712  0.8260 -0.4320  0.8803
  360MOL0     C48498   5.241   5.514   1.667  0.3939  0.1177  0.7343
  360MOL0     C48499   5.341   5.458   1.586  0.6619  0.8086 -0.5690
  360MOL0     O48500   5.445   5.544   1.561  0.6375 -0.5488 -0.3722
  360MOL0     C48501   5.540   5.506   1.465  0.0427 -0.6028  0.0410
  360MOL0     C48502   5.664   5.579   1.488  0.3986  0.2183 -0.0927
  360MOL0     C48503   5.646   5.729   1.482  0.1595 -0.1411 -0.1540
  360MOL0     C48504   5.754   5.803   1.552  0.0837  0.9708  0.1929
  360MOL0     C48505   5.704   5.943   1.598 -0.0137 -0.2673 -0.9343
  360MOL0     C48506   5.645   5.945   1.744  0.7703 -0.3986  0.2478
  360MOL0     C48507   5.519   5.869   1.785  0.9526 -0.4035 -0.5589
  360MOL0     C48508   5.445   5.929   1.914 -0.5319 -0.2756  0.4576
  360MOL0    Cl48509   5.321   5.814   1.963  0.4604 -0.1848  0.1498
  360MOL0     C48510   5.324   5.322   1.548  0.3258 -0.2113 -0.1106
  360MOL0     C48511   5.209   5.251   1.578 -0.0915 -0.1936  0.0191
  360MOL0     O48512   4.990   5.274   1.914  0.2292 -0.0359 -0.2707
  360MOL0     C48513   4.699   5.181   1.902 -0.1043 -0.1082  0.1094
  360MOL0     C48514   4.584   5.095   1.900  0.6080  0.8676  0.6663
  360MOL0     N48515   3.887   4.839   1.580  0.4257  0.5105  0.7055
  360MOL0     N48516   3.828   4.830   1.471 -0.2694  0.2905 -0.3446
  360MOL0     C48517   3.070   4.477   1.230  0.4365  0.4033  0.0082
  360MOL0     C48518   2.992   4.455   1.111  0.1075 -0.3157  0.6970
  360MOL0     C48519   2.669   4.457   0.805 -0.5478  1.3311  0.0532
  360MOL0     C48520   2.592   4.338   0.797 -0.7411 -0.6306 -1.1809
  360MOL0     C48521   2.551   4.286   0.677  0.1256  0.3542 -0.0164
  360MOL0     C48522   2.584   4.352   0.555  0.5432 -0.1734  0.0508
  360MOL0     O48523   2.554   4.299   0.427 -0.4813 -0.1485 -0.2874
  360MOL0     C48524   2.534   4.158   0.406  0.1653 -0.1498 -0.9686
  360MOL0     C48525   2.514   4.113   0.264 -0.4274 -0.0077  0.0015
  360MOL0     C48526   2.611   4.187   0.166  1.7692 -0.2589 -0.3319
  360MOL0     C48527   2.558   4.166   0.015 -0.7383 -0.4308  0.0764
  360MOL0     C48528   2.682   4.173  -0.062  0.1203  0.0666 -1.0620
  360MOL0     C48529   2.794   4.176  -0.113 -0.4117  1.3660  0.4408
  360MOL0     C48530   2.654   4.464   0.563 -1.1472 -0.9181 -1.2841
  360MOL0     C48531   2.695   4.528   0.689 -0.6934 -0.7761 -0.0094
  360MOL0     C48532   2.792   4.646   0.685  1.2487  1.1211 -0.1821
  360MOL0     H48533   2.702   4.353   1.236  0.1139 -0.2428 -0.0250
  360MOL0     H48534   2.825   4.417   1.448  0.1918 -0.1382 -1.0227
  360MOL0     H48535   3.111   4.690   1.368 -2.9443  1.1740  0.3071
  360MOL0     H48536   3.132   4.687   1.545  2.0663 -2.7238  1.2753
  360MOL0     H48537   3.318   4.488   1.434 -0.4682 -0.3023 -2.4597
  360MOL0     H48538   3.339   4.617   1.541  0.4028 -4.4424  0.8568
  360MOL0     H48539   3.418   4.768   1.369  1.2873  0.1899 -0.8101
  360MOL0     H48540   3.345   4.683   1.246  0.7906  1.6668 -0.3776
  360MOL0     H48541   3.580   4.574   1.409  2.1409  2.1356 -1.0391
  360MOL0     H48542   3.508   4.501   1.263 -0.0362  1.6824 -1.2656
  360MOL0     H48543   3.573   4.701   1.138 -0.0490 -0.0854  0.8745
  360MOL0     H48544   3.628   4.791   1.275  0.1899  0.2718 -0.4477
  360MOL0     H48545   3.775   4.565   1.311 -3.9940 -0.8564  0.1427
  360MOL0     H48546   3.721   4.517   1.154  0.3268 -0.4304 -0.6462
  360MOL0     H48547   3.866   4.699   1.050  1.5655  1.5647 -0.1526
  360MOL0     H48548   3.960   4.590   1.152 -0.5786  0.4281  2.0799
  360MOL0     H48549   4.020   4.809   1.195 -0.6757  0.6635 -0.2615
  360MOL0     H48550   3.853   4.873   1.200 -0.6565  0.5155  3.6490
  360MOL0     H48551   4.114   4.666   1.423  0.1672  0.3991  0.3707
  360MOL0     H48552   4.014   4.766   1.781 -0.4248 -0.4483 -0.2038
  360MOL0     H48553   4.097   4.628   1.713  0.1745 -0.6946 -1.2674
  360MOL0     H48554   4.270   4.803   1.625 -1.5698 -3.1819 -0.3462
  360MOL0     H48555   4.164   4.930   1.691  1.4397  0.1313 -2.4091
  360MOL0     H48556   4.291   4.710   1.885 -0.4086 -2.0354 -3.0755
  360MOL0     H48557   4.168   4.834   1.912 -1.8038  4.2055 -4.8995
  360MOL0     H48558   4.372   4.932   1.995 -4.1443  1.1526  0.6528
  360MOL0     H48559   4.324   5.011   1.844  1.4888  0.0879 -1.2560
  360MOL0     H48560   4.697   4.835   1.727 -2.3858  0.7275 -0.9802
  360MOL0     H48561   4.884   5.002   1.678  1.0326  0.0821  1.3387
  360MOL0     H48562   5.050   5.485   1.772  0.4754  0.4288 -0.1782
  360MOL0     H48563   5.246   5.617   1.701 -1.6409 -0.9895  5.1590
  360MOL0     H48564   5.557   5.398   1.465 -1.4239 -0.8437 -0.1999
  360MOL0     H48565   5.496   5.526   1.367 -2.0724 -4.6472 -0.0518
  360MOL0     H48566   5.693   5.545   1.588 -1.0117 -0.3402  0.1562
  360MOL0     H48567   5.725   5.540   1.406  0.2933  0.7970 -0.4491
  360MOL0     H48568   5.647   5.762   1.378 -4.5088  2.5483  0.3798
  360MOL0     H48569   5.544   5.754   1.515 -0.9619  1.3169 -4.1491
  360MOL0     H48570   5.846   5.820   1.496 -0.3538  3.4019  0.1268
  360MOL0     H48571   5.779   5.757   1.648  0.6478  1.4261  0.2702
  360MOL0     H48572   5.627   5.988   1.535 -0.7194  3.7209  2.3526
  360MOL0     H48573   5.796   6.001   1.598 -0.6202  0.7241 -0.1904
  360MOL0     H48574   5.733   5.912   1.799  0.1275 -0.6452  1.1405
  360MOL0     H48575   5.625   6.050   1.769  1.3096 -0.9154  3.2280
  360MOL0     H48576   5.540   5.764   1.803  0.0866 -0.1301  2.5257
  360MOL0     H48577   5.458   5.883   1.694  0.6706  0.8472 -0.1995
  360MOL0     H48578   5.509   5.929   2.003  0.4310 -3.2781 -0.0988
  360MOL0     H48579   5.409   6.028   1.888 -3.1100 -1.5333 -1.0946
  360MOL0     H48580   5.394   5.278   1.478 -0.1925 -1.5049  0.1579
  360MOL0     H48581   5.199   5.148   1.546  0.0457  0.3346 -1.8459
  360MOL0     H48582   4.706   5.270   1.963  1.0757  0.8838 -1.4222
  360MOL0     H48583   4.506   5.119   1.972  2.4356  0.2752  2.9957
  360MOL0     H48584   3.177   4.495   1.240  0.4841  0.0944  0.0524
  360MOL0     H48585   3.053   4.474   1.023  1.5199 -1.9572  1.2641
  360MOL0     H48586   2.553   4.286   0.884 -1.7403  1.2748 -0.4439
  360MOL0     H48587   2.493   4.197   0.697  1.9521 -0.8485  0.1660
  360MOL0     H48588   2.439   4.129   0.453  0.0403 -2.6528 -2.5582
  360MOL0     H48589   2.605   4.095   0.461  0.2372 -0.2060 -1.1257
  360MOL0     H48590   2.414   4.140   0.228 -1.6739 -2.9706  0.9022
  360MOL0     H48591   2.501   4.005   0.250 -1.9511  0.1604 -0.1345
  360MOL0     H48592   2.713   4.151   0.180  1.5712  0.3021  3.5887
  360MOL0     H48593   2.613   4.293   0.191 -0.4744 -0.4994  1.1712
  360MOL0     H48594   2.533   4.060   0.009  0.5717 -0.8442  1.2945
  360MOL0     H48595   2.476   4.224  -0.029 -0.1322  0.4770  0.1187
  360MOL0     H48596   2.894   4.172  -0.151 -0.3099 -0.7007  0.8143
  360MOL0     H48597   2.670   4.530   0.478 -2.4640 -0.1470 -0.9772
  360MOL0     H48598   2.736   4.739   0.702 -1.0441 -0.0991 -0.6081
  360MOL0     H48599   2.872   4.640   0.759  0.8601 -0.9347  0.1444
  360MOL0     H48600   2.836   4.656   0.586  0.9447 -2.0592 -0.7382
  361MOL0     O48601   4.183   2.555  11.185  0.5379 -0.4688  0.2297
  361MOL0     C48602   4.129   2.651  11.126 -0.0130 -0.3799  1.0085
  361MOL0     O48603   4.017   2.650  11.056  0.5068  0.1944  0.5790
  361MOL0     C48604   3.948   2.521  11.043  0.1260 -0.4454 -0.7100
  361MOL0     C48605   3.845   2.488  11.136  0.6028  0.3893 -0.5116
  361MOL0     C48606   3.770   2.373  11.120  0.0053 -0.2463 -1.2347
  361MOL0     C48607   3.802   2.283  11.017  0.0597  0.4874 -0.0149
  361MOL0     O48608   3.720   2.171  11.019 -0.4334 -0.2683  0.2908
  361MOL0     C48609   3.649   2.153  10.901 -0.7909  0.0850 -0.8905
  361MOL0     C48610   3.561   2.024  10.902 -0.2338 -0.5132 -0.7998
  361MOL0     C48611   3.638   1.903  10.941 -0.3653  0.7026 -0.0392
  361MOL0     C48612   3.724   1.853  10.830 -0.6307 -0.6893 -0.8718
  361MOL0     C48613   3.783   1.723  10.876 -0.6848 -0.2386  0.3770
  361MOL0     C48614   3.860   1.649  10.764 -0.6354 -0.5211  0.3302
  361MOL0     C48615   3.988   1.575  10.804 -0.9509 -0.1483 -0.4608
  361MOL0     C48616   3.958   1.462  10.904 -0.1064 -0.6641 -0.5969
  361MOL0     N48617   4.065   1.371  10.943  0.4934  0.3448  0.2479
  361MOL0     C48618   4.131   1.348  11.062 -0.7864  0.1151 -0.2190
  361MOL0     C48619   4.213   1.233  11.050 -0.2326 -0.1169 -0.9462
  361MOL0     C48620   4.299   1.169  11.159 -0.6196 -0.3140  0.1342
  361MOL0     C48621   4.430   1.127  11.102  0.1678 -0.2994 -0.7902
  361MOL0     C48622   4.517   1.055  11.207  1.2505  0.7893  0.0312
  361MOL0     C48623   4.535   1.132  11.332 -0.4036 -0.5544 -0.0981
  361MOL0     O48624   4.645   1.074  11.393  0.1651 -0.4092 -0.5562
  361MOL0     C48625   4.678   1.108  11.525 -0.5650  0.0950  0.1372
  361MOL0     C48626   4.820   1.109  11.552  0.1524 -0.4440 -0.5829
  361MOL0     C48627   4.855   1.143  11.685  1.1547  0.2213 -0.0606
  361MOL0     C48628   4.767   1.170  11.785 -0.1624  0.0599 -0.7733
  361MOL0     C48629   4.809   1.210  11.922 -0.7047  0.4821 -0.1794
  361MOL0     O48630   4.948   1.243  11.946  0.1101 -0.0703 -0.9179
  361MOL0     C48631   4.992   1.330  12.045  0.0167 -0.5350  0.0166
  361MOL0     C48632   4.907   1.437  12.094 -0.4739  0.5614 -1.1733
  361MOL0     C48633   4.962   1.529  12.189 -0.2884  0.5861  0.6529
  361MOL0     C48634   5.090   1.513  12.248 -0.2290 -0.1103 -0.2100
  361MOL0     O48635   5.132   1.593  12.354 -0.4441  0.1226  0.2491
  361MOL0     C48636   5.027   1.626  12.440  0.0264 -0.1721 -1.1718
  361MOL0     C48637   5.085   1.636  12.579  0.4270  0.3233 -0.2289
  361MOL0     C48638   5.171   1.775  12.582 -1.2903 -0.3461 -0.2269
  361MOL0     C48639   5.175   1.810  12.729 -0.0059  0.4423  0.5567
  361MOL0     C48640   5.256   1.951  12.757  0.3727  0.3317  1.1487
  361MOL0     C48641   5.402   1.964  12.689 -0.5561  0.4373 -0.2032
  361MOL0     C48642   5.484   1.835  12.710 -1.2527  0.0180 -1.5837
  361MOL0     C48643   5.541   1.841  12.854 -0.3412 -1.4096 -0.2069
  361MOL0    Cl48644   5.658   1.970  12.853 -0.4374 -0.2018  0.4648
  361MOL0     C48645   5.165   1.419  12.196 -1.2419 -0.0981 -0.1787
  361MOL0     C48646   5.125   1.336  12.091 -0.0674 -0.5683 -0.5261
  361MOL0     O48647   4.727   1.216  12.010 -0.6793  0.6137 -0.3953
  361MOL0     C48648   4.631   1.158  11.762  0.3109 -0.3825  0.1086
  361MOL0     C48649   4.591   1.128  11.635  0.9437  0.3673 -0.0843
  361MOL0     N48650   4.183   1.186  10.926 -0.1698  0.2677 -0.3469
  361MOL0     N48651   4.095   1.264  10.866  0.2721  0.4509 -0.3804
  361MOL0     C48652   3.908   2.311  10.921 -0.0694  0.5403 -1.1451
  361MOL0     C48653   3.967   2.433  10.933  0.0410 -0.0197  0.2499
  361MOL0     C48654   4.189   2.796  11.135 -0.5152  0.2830 -0.1088
  361MOL0     C48655   4.317   2.811  11.188 -0.1119  0.1843  0.6917
  361MOL0     C48656   4.378   2.933  11.202  0.3093 -0.6406 -0.5044
  361MOL0     C48657   4.308   3.055  11.171 -0.9124 -0.2220  0.5537
  361MOL0     O48658   4.368   3.174  11.171 -0.6770 -0.8361  0.0479
  361MOL0     C48659   4.509   3.174  11.202 -0.3742 -0.4272  0.3077
  361MOL0     C48660   4.551   3.313  11.162 -1.2979  0.4768 -1.5762
  361MOL0     C48661   4.507   3.350  11.012  0.1249  0.0344 -0.5674
  361MOL0     C48662   4.609   3.444  10.936  0.7502  0.0851  0.6196
  361MOL0     C48663   4.608   3.588  10.988 -0.8132  0.1239 -0.4448
  361MOL0     C48664   4.621   3.697  11.037  1.4230  1.3945 -0.3423
  361MOL0     C48665   4.179   3.040  11.113 -0.7341 -0.8017 -0.5592
  361MOL0     C48666   4.114   2.913  11.098 -0.2640  0.2304 -0.4024
  361MOL0     C48667   3.971   2.916  11.042  0.6470 -0.3105 -0.0792
  361MOL0     H48668   3.827   2.556  11.218 -2.9078 -1.0005  0.0604
  361MOL0     H48669   3.692   2.357  11.193  2.3656 -3.9689  0.8302
  361MOL0     H48670   3.593   2.246  10.886 -0.5115  0.7603  1.6734
  361MOL0     H48671   3.726   2.132  10.826  0.7895 -2.0689  1.1720
  361MOL0     H48672   3.509   2.005  10.807 -1.1206 -1.1716 -0.1967
  361MOL0     H48673   3.486   2.045  10.979 -0.3722 -0.9514 -0.8109
  361MOL0     H48674   3.561   1.827  10.959 -3.9800  3.9111 -0.7281
  361MOL0     H48675   3.694   1.916  11.033 -0.2147 -2.6525  0.4843
  361MOL0     H48676   3.659   1.822  10.748 -0.7082 -0.0368 -1.0564
  361MOL0     H48677   3.801   1.922  10.794 -1.0130  0.7542  0.9657
  361MOL0     H48678   3.846   1.732  10.966  0.6233 -0.8195 -0.4457
  361MOL0     H48679   3.698   1.661  10.906  0.8956 -1.9358  1.5905
  361MOL0     H48680   3.784   1.581  10.725 -2.9102  0.9982  1.8611
  361MOL0     H48681   3.874   1.715  10.679  0.1747 -1.2819 -0.1497
  361MOL0     H48682   4.060   1.644  10.851 -1.1035 -0.8666  0.8931
  361MOL0     H48683   4.031   1.530  10.715  0.1172 -2.9850  1.3472
  361MOL0     H48684   3.907   1.498  10.993 -3.3026 -0.4106 -2.3819
  361MOL0     H48685   3.889   1.405  10.840 -0.1286  0.4759 -1.6306
  361MOL0     H48686   4.118   1.412  11.149  1.5576 -1.9774  1.8070
  361MOL0     H48687   4.313   1.240  11.241  2.4850 -1.3478  0.6315
  361MOL0     H48688   4.242   1.087  11.205 -1.4184 -0.5829 -1.3053
  361MOL0     H48689   4.419   1.060  11.015  3.1657 -1.9701 -0.0350
  361MOL0     H48690   4.484   1.216  11.067 -2.2389  1.0474 -1.2853
  361MOL0     H48691   4.618   1.037  11.170  2.3362  1.3162  2.5011
  361MOL0     H48692   4.467   0.963  11.237  3.7605 -1.0774 -1.2000
  361MOL0     H48693   4.456   1.115  11.406 -1.1665 -2.3514 -1.2602
  361MOL0     H48694   4.570   1.235  11.322  1.3112 -1.0823  0.1082
  361MOL0     H48695   4.890   1.102  11.470  0.9689 -0.5048  0.0992
  361MOL0     H48696   4.959   1.129  11.715  1.2942 -1.4412 -1.1690
  361MOL0     H48697   4.816   1.457  12.039 -0.2668  1.4881 -1.1812
  361MOL0     H48698   4.903   1.612  12.226  0.0184  2.1202 -2.0642
  361MOL0     H48699   4.982   1.719  12.404  1.2773 -0.0185 -2.4276
  361MOL0     H48700   4.956   1.543  12.438 -2.8432  2.1283 -3.5905
  361MOL0     H48701   4.992   1.643  12.636  0.8416 -0.1985  0.5379
  361MOL0     H48702   5.154   1.558  12.613 -0.5096 -0.7862 -0.8009
  361MOL0     H48703   5.273   1.753  12.550  0.3092  3.5923  1.5396
  361MOL0     H48704   5.124   1.855  12.524 -3.3962 -2.2582 -1.3266
  361MOL0     H48705   5.219   1.731  12.789  1.2854  0.7938  0.1188
  361MOL0     H48706   5.074   1.822  12.770  0.7141  1.2861  2.1266
  361MOL0     H48707   5.254   1.972  12.864 -2.7581  2.7365  0.7471
  361MOL0     H48708   5.198   2.037  12.724 -1.6154 -0.7972  1.5316
  361MOL0     H48709   5.385   1.971  12.581  1.3620 -0.9311 -0.6421
  361MOL0     H48710   5.462   2.048  12.725 -0.0829  0.4674 -1.0330
  361MOL0     H48711   5.575   1.823  12.651 -0.0087 -1.5447  0.5052
  361MOL0     H48712   5.422   1.748  12.686 -3.8026  1.4930 -0.7107
  361MOL0     H48713   5.464   1.873  12.925 -0.4643 -0.8939 -0.5715
  361MOL0     H48714   5.586   1.745  12.883 -0.6389 -0.8370  2.4250
  361MOL0     H48715   5.268   1.406  12.228 -0.4356  3.1038 -1.0492
  361MOL0     H48716   5.199   1.269  12.049 -0.8975 -1.1588 -1.1012
  361MOL0     H48717   4.557   1.180  11.838  2.9193 -1.6027  3.2893
  361MOL0     H48718   4.485   1.115  11.619  0.2654  1.5912  2.8109
  361MOL0     H48719   3.941   2.245  10.842  1.5921 -0.2451  0.1491
  361MOL0     H48720   4.050   2.458  10.868  1.7117 -2.8153  1.1325
  361MOL0     H48721   4.380   2.729  11.220 -0.7038 -1.1950 -1.4700
  361MOL0     H48722   4.463   2.932  11.269 -1.1210  2.0547  1.5849
  361MOL0     H48723   4.567   3.100  11.146  0.6998  0.8328 -0.2826
  361MOL0     H48724   4.535   3.170  11.308  1.5497  3.3991  0.1498
  361MOL0     H48725   4.660   3.321  11.173 -1.0176 -2.7083 -1.1208
  361MOL0     H48726   4.505   3.380  11.236 -2.2333 -0.1994 -1.5354
  361MOL0     H48727   4.406   3.391  11.023 -1.4302 -3.2929 -1.2548
  361MOL0     H48728   4.502   3.253  10.963 -2.0284 -1.1879  1.8478
  361MOL0     H48729   4.707   3.398  10.953  1.4934  1.7762  1.1624
  361MOL0     H48730   4.591   3.455  10.829  3.2664 -2.2190 -0.1524
  361MOL0     H48731   4.640   3.796  11.072  0.6050  1.1486  0.8621
  361MOL0     H48732   4.122   3.132  11.097 -1.8198 -1.5733 -1.2110
  361MOL0     H48733   3.926   3.015  11.028 -2.1639 -1.6264 -0.8689
  361MOL0     H48734   3.979   2.874  10.942 -0.0474  3.9549 -2.1526
  361MOL0     H48735   3.903   2.864  11.109 -0.2041 -0.7455 -1.2548
  362MOL0     O48736   9.684   7.182   0.660 -0.3660 -0.3622  0.0196
  362MOL0     C48737   9.637   7.171   0.548  0.2189 -1.0034  0.1965
  362MOL0     O48738   9.502   7.163   0.524  0.0618 -0.4692 -0.7635
  362MOL0     C48739   9.403   7.207   0.618 -0.5296 -0.5294  0.7590
  362MOL0     C48740   9.309   7.109   0.656 -0.2958 -0.5958 -0.9720
  362MOL0     C48741   9.221   7.139   0.764  0.9013 -0.7629  0.7482
  362MOL0     C48742   9.215   7.261   0.826 -0.3384 -0.4073 -0.5969
  362MOL0     O48743   9.140   7.280   0.938 -0.2087  0.6122 -0.2012
  362MOL0     C48744   9.046   7.376   0.924  0.3897  1.6294 -0.3888
  362MOL0     C48745   8.936   7.326   1.022  0.0134  0.0511  0.3681
  362MOL0     C48746   8.795   7.381   0.978 -0.1432  0.4286 -0.1446
  362MOL0     C48747   8.698   7.401   1.088  0.7535  0.0781 -1.1180
  362MOL0     C48748   8.553   7.409   1.030 -0.1224  0.5072  0.3494
  362MOL0     C48749   8.514   7.538   0.964 -0.6435  1.0009  0.2253
  362MOL0     C48750   8.362   7.550   0.945 -0.5643 -0.1777 -0.5482
  362MOL0     C48751   8.312   7.616   1.080  1.0950  0.0226 -0.3606
  362MOL0     N48752   8.170   7.659   1.072 -0.8572 -0.2773 -0.6527
  362MOL0     C48753   8.113   7.713   0.969  0.1377 -0.2332  0.9698
  362MOL0     C48754   7.982   7.732   1.012 -0.5171 -0.1125 -0.0229
  362MOL0     C48755   7.874   7.793   0.935  0.2664  0.5037 -0.1301
  362MOL0     C48756   7.729   7.748   0.976  1.1489  0.4551 -0.4225
  362MOL0     C48757   7.707   7.607   0.916 -0.2630  0.3619  0.0523
  362MOL0     C48758   7.781   7.484   0.969 -0.8093  0.2084  0.4191
  362MOL0     O48759   7.694   7.377   0.923 -0.0874 -1.4739 -0.2454
  362MOL0     C48760   7.713   7.255   0.973  0.6905  0.0544  0.3061
  362MOL0     C48761   7.665   7.154   0.889  0.3011 -0.2306  0.5451
  362MOL0     C48762   7.693   7.019   0.925 -0.1530 -0.2012  0.8434
  362MOL0     C48763   7.777   6.989   1.022 -0.6629 -0.6540 -0.3735
  362MOL0     C48764   7.815   6.854   1.045 -0.3541  0.9675 -0.3803
  362MOL0     O48765   7.908   6.825   1.137 -0.3489 -0.0389 -0.5223
  362MOL0     C48766   7.938   6.697   1.167  0.1367  0.1995 -0.3040
  362MOL0     C48767   8.074   6.660   1.178  0.0324  0.3307 -0.6564
  362MOL0     C48768   8.110   6.530   1.225 -0.7193 -0.3497 -0.0142
  362MOL0     C48769   8.007   6.449   1.267  1.0738  0.0547 -0.7967
  362MOL0     O48770   8.029   6.321   1.300 -0.3703  0.3717  0.2559
  362MOL0     C48771   8.159   6.273   1.334 -1.2369  0.5540  0.8995
  362MOL0     C48772   8.176   6.148   1.409  0.5495 -0.2492  0.3476
  362MOL0     C48773   8.327   6.125   1.445  0.6207 -0.0263  0.3543
  362MOL0     C48774   8.355   6.021   1.552 -0.9437 -0.0996  0.0724
  362MOL0     C48775   8.520   6.020   1.571 -0.1347  0.0778  0.2902
  362MOL0     C48776   8.573   5.918   1.681  0.1991 -0.3551 -0.3863
  362MOL0     C48777   8.533   5.982   1.819 -0.1305  0.7774  0.2160
  362MOL0     C48778   8.616   5.929   1.933 -0.0705 -0.2007 -0.4855
  362MOL0    Cl48779   8.546   6.016   2.089 -0.0660  0.2736  0.0011
  362MOL0     C48780   7.875   6.482   1.244  0.6206  0.6902 -0.0719
  362MOL0     C48781   7.837   6.608   1.206  1.3323 -0.9089 -0.1164
  362MOL0     O48782   7.748   6.765   0.991  0.0166  0.5580 -0.1898
  362MOL0     C48783   7.822   7.093   1.103  0.3713 -0.2104  0.2527
  362MOL0     C48784   7.792   7.228   1.086  0.2641  0.2334  0.0611
  362MOL0     N48785   7.964   7.682   1.138  0.1053  0.3028  0.2991
  362MOL0     N48786   8.079   7.632   1.171  0.6666 -0.3724 -0.2681
  362MOL0     C48787   9.305   7.362   0.782  0.2271 -0.0336 -0.7037
  362MOL0     C48788   9.399   7.332   0.685  0.0889  0.3033  1.0260
  362MOL0     C48789   9.717   7.128   0.433 -0.5119 -0.2076 -0.7689
  362MOL0     C48790   9.665   7.037   0.337 -0.1475 -0.8196 -0.4565
  362MOL0     C48791   9.741   7.010   0.227  0.9454  0.5146  0.3193
  362MOL0     C48792   9.867   7.070   0.211  0.5170  0.0183  1.0190
  362MOL0     O48793   9.941   7.043   0.090 -0.5300 -0.1505  0.2571
  362MOL0     C48794   9.875   7.101  -0.024 -0.1017 -0.8213  0.0122
  362MOL0     C48795   9.856   7.006  -0.141 -0.3139  0.0854  0.5625
  362MOL0     C48796   9.985   6.966  -0.210 -0.8235  0.7602 -1.2715
  362MOL0     C48797   9.963   6.848  -0.306 -0.3447 -0.4147 -0.1476
  362MOL0     C48798  10.077   6.807  -0.381 -0.1162  0.5068 -0.2167
  362MOL0     C48799  10.160   6.760  -0.457  0.2583  0.3233 -0.5648
  362MOL0     C48800   9.919   7.153   0.305 -0.2014  0.0911 -0.6296
  362MOL0     C48801   9.842   7.191   0.415  0.4661 -0.0714 -0.9125
  362MOL0     C48802   9.897   7.297   0.507  0.1868 -0.6647  0.1829
  362MOL0     H48803   9.298   7.012   0.610 -0.4079 -0.6530 -0.8261
  362MOL0     H48804   9.154   7.069   0.813  0.6825 -0.8713  0.2934
  362MOL0     H48805   9.092   7.467   0.964  2.0805  1.0454 -0.9512
  362MOL0     H48806   9.001   7.382   0.825 -1.1139 -0.2218  0.1160
  362MOL0     H48807   8.953   7.365   1.122 -2.5088  3.1950 -0.2776
  362MOL0     H48808   8.936   7.216   1.026  1.9012  0.0186  0.0464
  362MOL0     H48809   8.760   7.313   0.900  0.2855  0.0173  0.0100
  362MOL0     H48810   8.811   7.479   0.932  2.0396  1.6035  2.7916
  362MOL0     H48811   8.697   7.304   1.140  0.3660 -0.5796 -2.3290
  362MOL0     H48812   8.729   7.477   1.161  1.2727  0.0461 -1.2954
  362MOL0     H48813   8.526   7.328   0.963  2.0492 -1.8592  2.0907
  362MOL0     H48814   8.489   7.407   1.119 -2.4204 -1.9667 -1.2151
  362MOL0     H48815   8.558   7.626   1.010  0.4284  1.6395 -1.8973
  362MOL0     H48816   8.550   7.529   0.861 -0.7948 -2.0204  0.3368
  362MOL0     H48817   8.305   7.466   0.905  1.5405 -0.5837 -2.9616
  362MOL0     H48818   8.351   7.625   0.867 -1.8146 -0.0216 -0.2518
  362MOL0     H48819   8.317   7.547   1.165 -1.5063 -0.1541 -0.2714
  362MOL0     H48820   8.375   7.701   1.106  0.3020  2.5736 -5.4310
  362MOL0     H48821   8.160   7.740   0.875  2.0850  3.7513  2.8504
  362MOL0     H48822   7.885   7.900   0.951  1.2142  0.3051  0.6648
  362MOL0     H48823   7.890   7.768   0.830  0.7254  0.7388 -0.1196
  362MOL0     H48824   7.711   7.768   1.082  0.9564  2.8501 -0.8465
  362MOL0     H48825   7.660   7.818   0.928  1.0106  1.9644  1.8618
  362MOL0     H48826   7.718   7.617   0.807  2.6310  0.4639  0.2641
  362MOL0     H48827   7.601   7.592   0.938 -0.5515 -0.4346 -1.7024
  362MOL0     H48828   7.790   7.498   1.077  1.5686  1.5649  0.1186
  362MOL0     H48829   7.885   7.472   0.936 -0.8241 -1.4415  0.8697
  362MOL0     H48830   7.593   7.187   0.815 -1.7882 -0.2602  2.4373
  362MOL0     H48831   7.654   6.934   0.870 -1.2178  0.9550 -0.2553
  362MOL0     H48832   8.154   6.732   1.164  1.4389 -0.3501  2.7553
  362MOL0     H48833   8.211   6.489   1.225 -0.2956  0.6560 -0.6707
  362MOL0     H48834   8.214   6.252   1.241 -1.9681  0.3703  0.4989
  362MOL0     H48835   8.206   6.344   1.403 -0.6949  0.8292  0.2637
  362MOL0     H48836   8.125   6.151   1.505  0.4213 -1.2319  0.3209
  362MOL0     H48837   8.130   6.064   1.355 -0.7648 -2.1365  4.0528
  362MOL0     H48838   8.385   6.090   1.359  2.2942 -1.5469  2.0035
  362MOL0     H48839   8.365   6.220   1.484 -3.2161  0.8824  2.4291
  362MOL0     H48840   8.315   5.923   1.527  1.7619 -0.8670 -1.6918
  362MOL0     H48841   8.297   6.046   1.642  0.0380  0.3120  0.6065
  362MOL0     H48842   8.544   6.124   1.598  0.5026 -0.4867  2.0188
  362MOL0     H48843   8.564   5.994   1.475  0.2774  1.4568  0.0802
  362MOL0     H48844   8.526   5.821   1.668  1.6727 -1.1108 -0.3375
  362MOL0     H48845   8.681   5.902   1.670  0.3491 -0.1626  0.6633
  362MOL0     H48846   8.429   5.952   1.825 -0.2923  0.5135 -2.4618
  362MOL0     H48847   8.527   6.091   1.818 -1.7141  0.7131 -0.5756
  362MOL0     H48848   8.602   5.821   1.947 -0.7680  0.2185  2.7859
  362MOL0     H48849   8.721   5.954   1.914  0.1133 -0.2005  0.4670
  362MOL0     H48850   7.809   6.412   1.294  1.2191  1.7557  2.3463
  362MOL0     H48851   7.731   6.630   1.211  0.3096 -4.4568 -2.3541
  362MOL0     H48852   7.885   7.070   1.189  0.9145 -0.8841 -0.3113
  362MOL0     H48853   7.846   7.298   1.149  0.6023  0.8468 -0.8955
  362MOL0     H48854   9.319   7.451   0.842 -0.1135  1.4200 -2.6807
  362MOL0     H48855   9.474   7.403   0.652 -1.2933  0.6362 -1.7435
  362MOL0     H48856   9.567   6.999   0.365 -0.2111  0.9782  2.0986
  362MOL0     H48857   9.703   6.944   0.150 -1.1770 -0.9974  2.5335
  362MOL0     H48858   9.921   7.198  -0.047 -2.3988  0.3059 -0.1238
  362MOL0     H48859   9.771   7.121   0.001  0.2984  1.5431  0.0075
  362MOL0     H48860   9.793   7.055  -0.217  0.0178 -0.4676 -0.0782
  362MOL0     H48861   9.808   6.918  -0.097  1.3137 -0.2484  1.7358
  362MOL0     H48862  10.065   6.946  -0.139 -3.1266  1.6214  1.7903
  362MOL0     H48863  10.018   7.056  -0.263 -0.6567  1.4065 -0.0992
  362MOL0     H48864   9.928   6.762  -0.249 -2.2744  0.5617  0.2425
  362MOL0     H48865   9.866   6.870  -0.353 -0.3672  0.2595  0.1961
  362MOL0     H48866  10.237   6.719  -0.519  0.6874 -1.1607  0.8734
  362MOL0     H48867  10.020   7.189   0.286  0.9607 -1.4952  1.9685
  362MOL0     H48868   9.984   7.353   0.472 -0.3941  2.3130  3.0206
  362MOL0     H48869   9.819   7.374   0.510  0.8168 -0.0443  0.8769
  362MOL0     H48870   9.913   7.267   0.611 -3.4254  2.6475  1.9608
  363MOL0     O48871   4.696   1.747   0.762  0.2317 -0.0128  0.2863
  363MOL0     C48872   4.574   1.754   0.784 -0.2865  0.7723 -0.5753
  363MOL0     O48873   4.483   1.699   0.690 -0.9277  0.3365  0.0908
  363MOL0     C48874   4.525   1.679   0.560  0.3873 -1.0315  0.3462
  363MOL0     C48875   4.561   1.792   0.476  0.7986  0.3801 -0.8538
  363MOL0     C48876   4.612   1.772   0.347  0.3931 -0.1669 -0.0555
  363MOL0     C48877   4.642   1.642   0.301 -0.5247 -0.0379 -0.1763
  363MOL0     O48878   4.723   1.638   0.188 -0.7156  0.1937 -0.7660
  363MOL0     C48879   4.777   1.511   0.155 -0.5980  0.4966 -0.4108
  363MOL0     C48880   4.864   1.534   0.029  0.5549  0.2471 -0.6856
  363MOL0     C48881   4.992   1.619   0.040 -0.1407 -0.1576 -0.2975
  363MOL0     C48882   5.094   1.552   0.130  0.2088 -0.1428 -0.1342
  363MOL0     C48883   5.230   1.629   0.139  0.7910 -0.1772 -0.7818
  363MOL0     C48884   5.307   1.637   0.012 -0.7461  0.0207  0.4986
  363MOL0     C48885   5.455   1.691   0.046 -0.1495 -0.0400 -0.5869
  363MOL0     C48886   5.551   1.581   0.060 -0.7240  0.7166  0.9772
  363MOL0     N48887   5.625   1.563  -0.066 -0.6163 -0.5961  0.5200
  363MOL0     C48888   5.589   1.473  -0.173 -0.7503 -0.5897  0.0814
  363MOL0     C48889   5.704   1.461  -0.248  0.3287  0.6253 -0.5686
  363MOL0     C48890   5.718   1.366  -0.365 -0.0585 -0.5058  1.4764
  363MOL0     C48891   5.614   1.419  -0.483 -0.4310 -1.1216 -0.2456
  363MOL0     C48892   5.621   1.334  -0.614  0.2469 -0.1534 -0.2019
  363MOL0     C48893   5.514   1.397  -0.715  0.3103  0.6874 -0.5790
  363MOL0     O48894   5.375   1.394  -0.657 -0.3153  0.2239  0.5570
  363MOL0     C48895   5.277   1.433  -0.739 -0.3440  0.3243  0.9138
  363MOL0     C48896   5.291   1.529  -0.839  0.2856 -0.3070  0.6536
  363MOL0     C48897   5.180   1.573  -0.913  0.5431  0.4887  0.4151
  363MOL0     C48898   5.053   1.530  -0.876  0.0646  0.4301 -0.2445
  363MOL0     C48899   4.937   1.580  -0.960 -0.8018 -0.5214  0.2646
  363MOL0     O48900   4.954   1.643  -1.080  0.5422  0.0137  0.2418
  363MOL0     C48901   4.839   1.674  -1.146  0.3180  0.0980  0.6812
  363MOL0     C48902   4.740   1.578  -1.185 -0.9352  0.1762  1.0534
  363MOL0     C48903   4.632   1.607  -1.262  0.1655 -0.1386  0.8256
  363MOL0     C48904   4.613   1.732  -1.311  0.1563 -0.9475  0.5193
  363MOL0     O48905   4.507   1.761  -1.396  0.2087 -0.2610  0.2811
  363MOL0     C48906   4.513   1.872  -1.479  0.0770  0.0533  0.2355
  363MOL0     C48907   4.421   1.841  -1.592 -0.4734 -0.9956  0.1134
  363MOL0     C48908   4.274   1.821  -1.557  0.4597 -0.1454  0.4215
  363MOL0     C48909   4.208   1.761  -1.684  0.1312  0.7787  1.2235
  363MOL0     C48910   4.089   1.678  -1.661 -0.3238 -0.2074 -0.2356
  363MOL0     C48911   4.060   1.588  -1.781  0.3712 -0.2023  0.2987
  363MOL0     C48912   3.907   1.553  -1.806 -0.0808 -0.9147 -0.7656
  363MOL0     C48913   3.859   1.448  -1.708  0.5844  0.7337  0.3633
  363MOL0    Cl48914   3.694   1.410  -1.767  0.2623  0.0064 -0.5435
  363MOL0     C48915   4.704   1.838  -1.268  0.0928  0.2304 -0.2514
  363MOL0     C48916   4.817   1.805  -1.190  0.4540  0.1822  0.1162
  363MOL0     O48917   4.830   1.567  -0.905  0.3683  0.1642 -0.7903
  363MOL0     C48918   5.033   1.441  -0.765 -0.4502  0.4416 -0.2643
  363MOL0     C48919   5.150   1.382  -0.708  0.5390 -1.1365 -0.8780
  363MOL0     N48920   5.798   1.541  -0.185  0.3115  0.4252  0.6538
  363MOL0     N48921   5.744   1.601  -0.086  0.3549 -0.5372 -0.5617
  363MOL0     C48922   4.597   1.532   0.377 -0.1320 -0.2272 -0.0065
  363MOL0     C48923   4.539   1.555   0.506  0.0716  0.2119  0.2548
  363MOL0     C48924   4.524   1.825   0.905  0.2793  0.8483 -0.3348
  363MOL0     C48925   4.615   1.855   1.013 -0.0710  0.4522 -0.3103
  363MOL0     C48926   4.580   1.928   1.128  0.1138  0.1260 -0.4172
  363MOL0     C48927   4.450   1.968   1.151 -0.9169  0.1829 -0.3452
  363MOL0     O48928   4.436   2.025   1.274 -0.1677  0.6212 -0.5120
  363MOL0     C48929   4.359   2.143   1.267 -0.3580  0.3600 -0.1855
  363MOL0     C48930   4.218   2.126   1.323  0.5908 -0.5050  0.0159
  363MOL0     C48931   4.233   2.093   1.474  0.3765  0.1442 -0.1547
  363MOL0     C48932   4.098   2.113   1.548 -0.6079  0.2872 -0.0597
  363MOL0     C48933   4.092   2.256   1.589  1.3430 -0.3661 -0.9878
  363MOL0     C48934   4.058   2.371   1.613 -0.7777 -0.5167 -0.0731
  363MOL0     C48935   4.358   1.938   1.050  0.5460 -0.0452 -0.2941
  363MOL0     C48936   4.390   1.887   0.925 -0.1832  0.6028  0.2613
  363MOL0     C48937   4.292   1.878   0.804  0.0687  0.0849 -0.7990
  363MOL0     H48938   4.544   1.891   0.518  1.2149 -0.2627  0.9088
  363MOL0     H48939   4.652   1.850   0.284  0.6038 -1.7675 -2.0101
  363MOL0     H48940   4.846   1.468   0.227  1.8344  0.6953 -2.4935
  363MOL0     H48941   4.702   1.439   0.121  1.6066  0.2567 -5.6750
  363MOL0     H48942   4.810   1.600  -0.040  2.4206  5.0015  1.9344
  363MOL0     H48943   4.882   1.436  -0.016 -1.1738  0.9682 -3.1704
  363MOL0     H48944   4.949   1.714   0.073 -0.2004  0.1617 -1.2660
  363MOL0     H48945   5.039   1.624  -0.058 -1.2051  1.9551 -0.7731
  363MOL0     H48946   5.050   1.542   0.230 -0.4551  1.5601 -0.2369
  363MOL0     H48947   5.111   1.447   0.104 -3.3745 -1.0947  0.8214
  363MOL0     H48948   5.210   1.730   0.173 -2.6727 -0.3263 -2.0113
  363MOL0     H48949   5.286   1.583   0.221 -1.5712  0.5319  1.3469
  363MOL0     H48950   5.310   1.535  -0.029 -2.4668 -1.8680  4.4792
  363MOL0     H48951   5.254   1.713  -0.045 -2.3646  0.6282  2.6625
  363MOL0     H48952   5.457   1.746   0.140 -1.2979 -0.7709 -0.1090
  363MOL0     H48953   5.488   1.756  -0.036  2.1183 -1.8789 -1.2579
  363MOL0     H48954   5.609   1.602   0.150 -1.4151 -0.4248  1.7020
  363MOL0     H48955   5.512   1.481   0.079  3.0713 -0.3741  4.3647
  363MOL0     H48956   5.496   1.419  -0.187 -2.4281  2.2827 -0.6019
  363MOL0     H48957   5.822   1.385  -0.390  0.4096 -2.4512  1.8050
  363MOL0     H48958   5.709   1.258  -0.352  3.4544 -1.4048 -1.8403
  363MOL0     H48959   5.511   1.436  -0.449  0.0122 -1.4930  1.3359
  363MOL0     H48960   5.652   1.522  -0.487  0.0970 -1.1319  2.4201
  363MOL0     H48961   5.591   1.236  -0.577 -2.6660  1.3500  1.8077
  363MOL0     H48962   5.721   1.352  -0.656 -0.2720  3.0115 -0.3771
  363MOL0     H48963   5.511   1.334  -0.804 -1.2706  2.0526 -1.5510
  363MOL0     H48964   5.544   1.501  -0.732  1.6919  0.2670 -0.7408
  363MOL0     H48965   5.383   1.576  -0.872  0.9765 -0.7452  1.8808
  363MOL0     H48966   5.192   1.632  -1.003 -1.6948 -0.3272 -0.5121
  363MOL0     H48967   4.746   1.477  -1.144  2.9987  0.6644  2.0120
  363MOL0     H48968   4.562   1.526  -1.279 -0.4409  0.2742  1.2959
  363MOL0     H48969   4.466   1.959  -1.432 -2.3280 -0.9301 -0.2216
  363MOL0     H48970   4.614   1.904  -1.508  0.2108 -0.7780 -0.2479
  363MOL0     H48971   4.428   1.924  -1.663 -3.1258 -0.7360  0.0644
  363MOL0     H48972   4.469   1.751  -1.632  3.0658 -0.3132  2.3096
  363MOL0     H48973   4.259   1.751  -1.474 -2.4093 -0.5562 -0.3070
  363MOL0     H48974   4.225   1.914  -1.527  1.3800  0.0542  1.3607
  363MOL0     H48975   4.272   1.687  -1.733 -0.2480 -0.0257  1.9275
  363MOL0     H48976   4.191   1.835  -1.763 -3.0727 -2.2959 -1.2789
  363MOL0     H48977   4.007   1.747  -1.640 -2.2104 -1.5069 -2.7282
  363MOL0     H48978   4.104   1.610  -1.576  1.0132 -1.6250 -1.5181
  363MOL0     H48979   4.092   1.642  -1.871  1.1873 -0.6069  0.3312
  363MOL0     H48980   4.122   1.498  -1.785 -1.2298 -1.4114  1.6239
  363MOL0     H48981   3.898   1.513  -1.908  0.9733  3.2135 -2.6922
  363MOL0     H48982   3.845   1.642  -1.818  0.2881 -0.5737 -0.1633
  363MOL0     H48983   3.932   1.368  -1.725  2.6575  2.7091 -0.6039
  363MOL0     H48984   3.848   1.471  -1.601  2.2128  0.9720  0.5017
  363MOL0     H48985   4.676   1.939  -1.297 -0.6200  0.2088  0.3320
  363MOL0     H48986   4.890   1.883  -1.168  3.0735 -2.2269  0.4287
  363MOL0     H48987   4.938   1.393  -0.742  0.4370 -0.6239  1.4043
  363MOL0     H48988   5.133   1.305  -0.634  1.6474 -0.1350  0.4522
  363MOL0     H48989   4.595   1.428   0.346 -2.0560  0.4084 -2.3258
  363MOL0     H48990   4.514   1.467   0.564 -0.7466 -1.1185 -1.9940
  363MOL0     H48991   4.721   1.839   0.994 -0.2391  1.1148 -1.9275
  363MOL0     H48992   4.662   1.943   1.198 -2.6833 -0.2184  3.2639
  363MOL0     H48993   4.349   2.170   1.161  0.0066  0.2350 -0.2504
  363MOL0     H48994   4.414   2.219   1.323  2.0609 -1.4690  0.0653
  363MOL0     H48995   4.188   2.034   1.270  4.7354 -4.0154  3.0270
  363MOL0     H48996   4.146   2.207   1.311  0.3862 -0.2389  2.5884
  363MOL0     H48997   4.313   2.154   1.518  1.7383  0.2597 -2.5743
  363MOL0     H48998   4.258   1.986   1.479  3.1798  0.5004 -3.0126
  363MOL0     H48999   4.013   2.093   1.482  0.1302  1.7120 -1.5189
  363MOL0     H49000   4.098   2.049   1.637 -1.8453  2.3577  1.5230
  363MOL0     H49001   4.050   2.477   1.623 -1.5249 -0.7079  1.7304
  363MOL0     H49002   4.261   1.983   1.063  0.8299 -0.2342  3.4913
  363MOL0     H49003   4.331   1.896   0.704  0.1106 -1.1012 -1.0181
  363MOL0     H49004   4.239   1.782   0.801 -2.8240  1.5408  0.4079
  363MOL0     H49005   4.206   1.943   0.820 -0.9088 -0.9909 -1.5301
  364MOL0     O49006   2.651  10.796   0.846  0.0334  0.6080 -0.7786
  364MOL0     C49007   2.724  10.748   0.931  0.7880 -0.0030 -0.2975
  364MOL0     O49008   2.866  10.756   0.928  0.1577  0.2251  0.6317
  364MOL0     C49009   2.916  10.835   0.816  0.2839  0.6035 -0.3652
  364MOL0     C49010   2.904  10.977   0.817  0.7328 -0.6267 -0.1341
  364MOL0     C49011   2.973  11.047   0.718 -1.0446 -0.6626 -0.8735
  364MOL0     C49012   3.060  10.983   0.635  0.2637 -0.3660  0.5707
  364MOL0     O49013   3.113  11.065   0.539 -0.1487  0.2355  0.1241
  364MOL0     C49014   3.162  11.006   0.419  0.7700  1.2044  0.8828
  364MOL0     C49015   3.229  11.108   0.333  0.3015 -1.0455  0.3040
  364MOL0     C49016   3.377  11.127   0.368 -0.1474  0.1012 -0.1002
  364MOL0     C49017   3.457  11.050   0.253  0.8553 -0.2038  0.6679
  364MOL0     C49018   3.602  11.051   0.283  0.1162 -0.0659 -0.4642
  364MOL0     C49019   3.666  10.910   0.265  0.3330 -0.5183 -1.3361
  364MOL0     C49020   3.801  10.910   0.213 -0.6469  0.2238 -0.6337
  364MOL0     C49021   3.904  11.004   0.288 -0.8474  0.7125  0.3013
  364MOL0     N49022   3.952  10.927   0.410 -0.2653  1.0864 -0.2498
  364MOL0     C49023   3.878  10.898   0.521  0.2290  0.3042  0.2381
  364MOL0     C49024   3.961  10.823   0.598 -0.1354 -0.2766 -0.4705
  364MOL0     C49025   3.956  10.791   0.749  0.7737 -0.1202  0.1015
  364MOL0     C49026   3.840  10.696   0.765  0.4997 -1.0268  0.2397
  364MOL0     C49027   3.792  10.688   0.908 -0.3401  0.6585  0.0872
  364MOL0     C49028   3.682  10.575   0.922 -0.7241 -0.9504 -0.2976
  364MOL0     O49029   3.756  10.447   0.914  0.9510  0.3170  0.2715
  364MOL0     C49030   3.685  10.351   0.839  0.0824 -0.1656 -0.2291
  364MOL0     C49031   3.728  10.297   0.717  0.2057 -0.0732  0.3403
  364MOL0     C49032   3.669  10.191   0.658  0.2372  0.5269  0.1752
  364MOL0     C49033   3.548  10.143   0.699  1.1281  0.6234 -0.1361
  364MOL0     C49034   3.480  10.027   0.629 -0.5604 -0.6161 -0.2939
  364MOL0     O49035   3.569   9.945   0.564  0.0818 -0.5797  0.1237
  364MOL0     C49036   3.521   9.829   0.517 -0.0025  0.0902 -0.3976
  364MOL0     C49037   3.533   9.792   0.382 -0.5485  0.0435  0.2178
  364MOL0     C49038   3.455   9.680   0.336  0.5332 -0.9640 -0.1307
  364MOL0     C49039   3.381   9.589   0.420  1.0525  0.3285  0.8007
  364MOL0     O49040   3.316   9.486   0.361 -0.8599 -0.4029  0.1383
  364MOL0     C49041   3.267   9.370   0.447  0.3343 -1.4272 -0.9906
  364MOL0     C49042   3.239   9.247   0.355  0.1467  0.3410 -0.0483
  364MOL0     C49043   3.112   9.271   0.264 -0.4426  0.6362 -0.4648
  364MOL0     C49044   2.976   9.229   0.333 -0.3488 -0.5683  0.9459
  364MOL0     C49045   2.898   9.358   0.371  0.0978  1.2444 -0.2518
  364MOL0     C49046   2.811   9.418   0.263  0.2738 -0.4611 -0.9305
  364MOL0     C49047   2.783   9.574   0.296  0.4442 -0.6669 -0.2554
  364MOL0     C49048   2.890   9.670   0.238 -0.5639  0.0865 -0.2940
  364MOL0    Cl49049   2.880   9.679   0.071 -0.3355  0.4489 -0.0862
  364MOL0     C49050   3.383   9.620   0.552  0.4710 -1.0045 -0.6608
  364MOL0     C49051   3.456   9.735   0.599 -1.2934 -0.4689  0.3654
  364MOL0     O49052   3.364  10.015   0.636  0.4735  0.5017 -0.2328
  364MOL0     C49053   3.488  10.195   0.813 -0.5593  0.1298 -0.4904
  364MOL0     C49054   3.556  10.298   0.880 -0.5850 -0.5456 -0.2132
  364MOL0     N49055   4.084  10.802   0.522  0.1325  0.0927  0.7449
  364MOL0     N49056   4.073  10.850   0.409  1.1305  0.2185  0.2999
  364MOL0     C49057   3.071  10.843   0.634 -0.5054 -0.0903 -0.4407
  364MOL0     C49058   2.997  10.768   0.729  0.8408 -0.2591 -0.5450
  364MOL0     C49059   2.674  10.673   1.046 -0.0058 -0.0482 -0.8894
  364MOL0     C49060   2.723  10.547   1.059 -0.0914 -0.6538 -0.1003
  364MOL0     C49061   2.666  10.455   1.141 -0.6563 -0.5083 -1.0608
  364MOL0     C49062   2.550  10.484   1.211 -0.4201 -0.4666  0.6979
  364MOL0     O49063   2.482  10.390   1.289  0.3510 -0.1334  0.5488
  364MOL0     C49064   2.516  10.246   1.276  0.2296 -0.2988  0.3562
  364MOL0     C49065   2.440  10.205   1.144  0.2789 -0.3855 -0.6755
  364MOL0     C49066   2.341  10.093   1.174 -0.2908 -0.0366 -0.2941
  364MOL0     C49067   2.390   9.948   1.196 -0.1572  1.0510 -0.4878
  364MOL0     C49068   2.509   9.923   1.280  0.3447 -0.0808 -0.0477
  364MOL0     C49069   2.603   9.883   1.351  0.4020 -0.1559  1.0468
  364MOL0     C49070   2.500  10.614   1.206 -0.0159 -1.1763 -0.0323
  364MOL0     C49071   2.559  10.710   1.124  0.1244 -0.9800  0.8454
  364MOL0     C49072   2.478  10.835   1.100 -0.5059 -0.1722 -0.7307
  364MOL0     H49073   2.836  11.022   0.888  0.2945 -0.9630 -0.3376
  364MOL0     H49074   2.983  11.155   0.722  0.1727 -0.7948  0.5509
  364MOL0     H49075   3.228  10.921   0.437  0.4025  0.7078 -0.0164
  364MOL0     H49076   3.075  10.975   0.360  2.2068  0.7959 -1.1340
  364MOL0     H49077   3.180  11.206   0.342 -0.5673 -1.1993 -2.0251
  364MOL0     H49078   3.207  11.082   0.229 -2.3092  0.5400  0.3504
  364MOL0     H49079   3.406  11.094   0.469 -1.0432  2.0743  0.8584
  364MOL0     H49080   3.411  11.231   0.368  0.1718  0.0748  2.3756
  364MOL0     H49081   3.422  10.947   0.259 -0.1310  0.1275  0.8320
  364MOL0     H49082   3.430  11.098   0.158  1.0198  4.1353  2.5989
  364MOL0     H49083   3.641  11.127   0.214  1.0140  0.0627  0.1773
  364MOL0     H49084   3.618  11.089   0.384 -0.5183  1.3058 -0.8437
  364MOL0     H49085   3.665  10.859   0.362  1.6361  0.4294 -0.7865
  364MOL0     H49086   3.595  10.871   0.193 -0.6016  0.4314 -0.9615
  364MOL0     H49087   3.794  10.953   0.113 -1.7676 -0.4897 -0.8843
  364MOL0     H49088   3.844  10.809   0.223  1.4894  0.8391 -2.7171
  364MOL0     H49089   3.986  11.031   0.221 -0.5926  1.9872  1.1013
  364MOL0     H49090   3.861  11.097   0.327 -1.0824  0.7932 -0.1452
  364MOL0     H49091   3.781  10.936   0.549  0.5186  0.0877  1.6021
  364MOL0     H49092   4.043  10.742   0.794  0.4261 -1.5194 -0.6771
  364MOL0     H49093   3.940  10.886   0.800  0.5686 -0.5108  0.7833
  364MOL0     H49094   3.756  10.740   0.711 -0.6082 -0.9693  1.9264
  364MOL0     H49095   3.869  10.603   0.715  2.5476 -0.1470 -0.3116
  364MOL0     H49096   3.744  10.779   0.945  1.6039  0.3677  3.7906
  364MOL0     H49097   3.872  10.655   0.974 -2.3038  1.1236  2.9005
  364MOL0     H49098   3.602  10.589   0.848 -0.2936 -0.1939 -0.6337
  364MOL0     H49099   3.634  10.577   1.020  1.3311  0.1171  0.7420
  364MOL0     H49100   3.816  10.330   0.663  1.5157  0.2541  2.5267
  364MOL0     H49101   3.706  10.152   0.563 -1.7564  1.7400 -1.1529
  364MOL0     H49102   3.574   9.853   0.303 -3.2154  2.0288  0.2048
  364MOL0     H49103   3.466   9.668   0.228 -1.5460 -1.2067 -0.3520
  364MOL0     H49104   3.342   9.346   0.523  0.2710  1.9341  0.2989
  364MOL0     H49105   3.182   9.412   0.501  1.9306  0.4741  0.2076
  364MOL0     H49106   3.325   9.231   0.290 -0.5428 -1.1882 -0.6429
  364MOL0     H49107   3.228   9.151   0.406 -0.1382 -0.6744 -1.9148
  364MOL0     H49108   3.112   9.369   0.216  0.3808  0.5132 -0.7422
  364MOL0     H49109   3.134   9.199   0.184 -0.5454 -0.1863  0.2299
  364MOL0     H49110   2.995   9.172   0.424  2.4088 -0.5830  0.4499
  364MOL0     H49111   2.915   9.171   0.263 -1.4616  1.3767  0.2252
  364MOL0     H49112   2.969   9.438   0.392 -0.6650  1.4595  1.7685
  364MOL0     H49113   2.835   9.334   0.458 -2.7645  2.3836 -1.8858
  364MOL0     H49114   2.854   9.424   0.162  2.9883  0.5093  0.1844
  364MOL0     H49115   2.715   9.368   0.253  0.2747 -0.6437 -0.0881
  364MOL0     H49116   2.763   9.581   0.403  3.1779 -0.2315  0.3059
  364MOL0     H49117   2.692   9.614   0.250  0.9232  2.7757  1.4439
  364MOL0     H49118   2.885   9.768   0.285  3.0352  0.7986 -1.1045
  364MOL0     H49119   2.984   9.632   0.279  1.3171  1.6508 -2.8410
  364MOL0     H49120   3.342   9.559   0.633 -0.9397  1.5280  0.6872
  364MOL0     H49121   3.485   9.752   0.702  3.3377 -3.1006 -0.2138
  364MOL0     H49122   3.395  10.179   0.867  0.2835 -0.1607  0.9374
  364MOL0     H49123   3.513  10.351   0.964  1.3772  1.7548 -0.5536
  364MOL0     H49124   3.146  10.783   0.584  4.2883  1.9824  3.4919
  364MOL0     H49125   3.008  10.660   0.732  1.0504 -0.2202  2.2958
  364MOL0     H49126   2.815  10.532   1.003 -0.0172  0.5556 -0.3314
  364MOL0     H49127   2.713  10.357   1.148 -2.8301 -1.6037 -0.7885
  364MOL0     H49128   2.469  10.200   1.363  0.8310  3.3795  2.8500
  364MOL0     H49129   2.624  10.225   1.277  0.7058  0.4239 -4.9565
  364MOL0     H49130   2.499  10.162   1.063  0.5357  2.5966 -2.2120
  364MOL0     H49131   2.386  10.293   1.107  2.2617  1.2169  0.0175
  364MOL0     H49132   2.271  10.082   1.091 -1.1097 -0.7461  0.4748
  364MOL0     H49133   2.280  10.117   1.261 -2.7003 -1.2249 -1.5650
  364MOL0     H49134   2.316   9.875   1.232  1.2586 -1.9074 -3.1101
  364MOL0     H49135   2.405   9.902   1.098 -0.7372  0.1791 -0.1788
  364MOL0     H49136   2.680   9.854   1.420  0.9376 -0.6621  0.2509
  364MOL0     H49137   2.405  10.631   1.255  0.7364  0.1617  1.0387
  364MOL0     H49138   2.533  10.922   1.065 -2.1797  1.5182  0.6658
  364MOL0     H49139   2.405  10.813   1.021 -1.2223 -1.6846  0.2941
  364MOL0     H49140   2.432  10.868   1.193  2.9254 -1.3450  1.5874
  365MOL0     O49141   3.996   1.293   5.921  0.0312 -0.3466  0.4575
  365MOL0     C49142   4.112   1.318   5.896 -0.5668 -0.0093 -0.2085
  365MOL0     O49143   4.161   1.445   5.879 -0.4826 -0.3817 -0.6257
  365MOL0     C49144   4.076   1.548   5.914 -0.1525  0.4679 -0.1457
  365MOL0     C49145   4.039   1.580   6.045  0.9932  0.5182 -0.4282
  365MOL0     C49146   3.959   1.695   6.066  0.0784 -0.0501 -0.9607
  365MOL0     C49147   3.916   1.779   5.966 -1.2971 -0.2489  1.2386
  365MOL0     O49148   3.850   1.893   5.985 -0.1964  0.1451  0.0614
  365MOL0     C49149   3.708   1.876   5.973  0.4801  0.5112 -0.4220
  365MOL0     C49150   3.645   2.008   5.934 -0.1425  1.1476 -0.4266
  365MOL0     C49151   3.646   2.119   6.043 -0.3022 -0.8230 -0.7130
  365MOL0     C49152   3.559   2.061   6.163  0.5912  0.2341  0.1695
  365MOL0     C49153   3.538   2.153   6.285 -0.0181 -0.5947 -0.7351
  365MOL0     C49154   3.431   2.109   6.383 -0.4512  0.2648 -0.1283
  365MOL0     C49155   3.474   1.977   6.454  0.0408 -0.0598 -0.0557
  365MOL0     C49156   3.355   1.935   6.554  0.2471 -0.2005  0.0864
  365MOL0     N49157   3.242   1.868   6.491  1.6868 -0.4261  0.6948
  365MOL0     C49158   3.264   1.756   6.414 -0.3730  0.0127 -0.1342
  365MOL0     C49159   3.162   1.751   6.331  0.1851 -0.1495  0.2891
  365MOL0     C49160   3.146   1.639   6.222  0.2780  0.1868 -0.2895
  365MOL0     C49161   3.069   1.513   6.273  0.0654  0.4252  0.3604
  365MOL0     C49162   2.979   1.551   6.388  0.2606  0.4576 -0.1016
  365MOL0     C49163   2.900   1.434   6.445 -0.2136 -1.2485  0.3886
  365MOL0     O49164   2.984   1.330   6.483 -0.5706 -0.9182 -0.2690
  365MOL0     C49165   2.934   1.210   6.521 -0.8243  0.9837  0.4559
  365MOL0     C49166   2.800   1.182   6.542 -0.0128 -0.0438 -0.6707
  365MOL0     C49167   2.757   1.054   6.580  0.1242 -0.3604 -0.8969
  365MOL0     C49168   2.851   0.962   6.613 -0.3672  0.7312  0.0114
  365MOL0     C49169   2.810   0.833   6.673  0.6998  0.0063  0.3772
  365MOL0     O49170   2.697   0.829   6.751  0.1637 -0.1718 -0.2786
  365MOL0     C49171   2.669   0.706   6.796  0.0200 -0.1660 -0.1141
  365MOL0     C49172   2.634   0.591   6.722  0.7168 -0.0693 -0.9845
  365MOL0     C49173   2.600   0.470   6.785  0.7915 -0.5458  0.3403
  365MOL0     C49174   2.608   0.464   6.922 -0.3480  0.1131  0.1143
  365MOL0     O49175   2.560   0.354   6.993 -0.4878  0.0580  0.5149
  365MOL0     C49176   2.590   0.343   7.133 -0.6097 -0.4042  0.0726
  365MOL0     C49177   2.564   0.201   7.188 -0.4701 -0.2931  0.6679
  365MOL0     C49178   2.415   0.168   7.165 -0.3737  0.4301 -0.0895
  365MOL0     C49179   2.381   0.037   7.232 -0.8995  0.0600  0.4073
  365MOL0     C49180   2.240  -0.022   7.221  0.1623  0.2409  0.0595
  365MOL0     C49181   2.125   0.072   7.265  0.0620  0.2542 -0.2510
  365MOL0     C49182   2.126   0.072   7.425  0.0740  0.4273 -0.1797
  365MOL0     C49183   1.990   0.049   7.471  0.6549 -0.0688 -0.5470
  365MOL0    Cl49184   1.944  -0.119   7.449  0.1899 -0.3726  0.7752
  365MOL0     C49185   2.661   0.574   6.997  0.2153 -0.0277 -1.0294
  365MOL0     C49186   2.681   0.692   6.933  0.0765 -1.0366  0.0492
  365MOL0     O49187   2.879   0.730   6.648  0.1553 -0.3716 -0.5214
  365MOL0     C49188   2.985   0.982   6.583 -0.0417  0.5320 -0.1856
  365MOL0     C49189   3.024   1.108   6.533  0.4206 -0.3202 -1.0025
  365MOL0     N49190   3.087   1.858   6.342  0.0065 -0.6151 -0.0002
  365MOL0     N49191   3.132   1.930   6.441 -0.7190  0.8697 -0.3850
  365MOL0     C49192   3.954   1.746   5.832  0.2242  0.2946 -0.5193
  365MOL0     C49193   4.040   1.639   5.817  0.4168 -0.0436 -1.1041
  365MOL0     C49194   4.197   1.203   5.861  0.0061 -0.5257 -0.2485
  365MOL0     C49195   4.318   1.231   5.799 -0.0208  0.3296  0.3426
  365MOL0     C49196   4.415   1.138   5.772  1.2238 -0.6561 -0.8268
  365MOL0     C49197   4.383   1.005   5.789 -0.1468 -0.5029 -1.1208
  365MOL0     O49198   4.482   0.916   5.763 -0.4496  0.3868  0.3841
  365MOL0     C49199   4.452   0.777   5.744  0.3342  0.2396  1.1676
  365MOL0     C49200   4.568   0.725   5.665 -0.2226  0.2920  0.1524
  365MOL0     C49201   4.556   0.570   5.653 -0.0938  0.0566 -0.0240
  365MOL0     C49202   4.427   0.513   5.606  0.9817 -0.4156  0.4399
  365MOL0     C49203   4.315   0.509   5.700 -0.0170  0.3219 -0.2728
  365MOL0     C49204   4.227   0.514   5.785 -0.3049 -0.5830  0.6294
  365MOL0     C49205   4.261   0.966   5.849 -0.3916  0.1159  0.1033
  365MOL0     C49206   4.168   1.064   5.885  0.3887 -0.2719 -0.3055
  365MOL0     C49207   4.046   1.021   5.963  0.4308  0.6254  0.6235
  365MOL0     H49208   4.079   1.515   6.123  0.7510 -3.6508 -3.4185
  365MOL0     H49209   3.943   1.729   6.168 -0.6242 -2.7410 -0.0787
  365MOL0     H49210   3.685   1.808   5.890  1.8489 -0.7504  0.1902
  365MOL0     H49211   3.660   1.831   6.061  1.5455  0.7635  0.3137
  365MOL0     H49212   3.546   1.981   5.898  0.8650  0.7848 -3.1460
  365MOL0     H49213   3.688   2.048   5.842 -2.2782  0.0915 -1.9444
  365MOL0     H49214   3.595   2.211   6.013  0.7762  0.5070  1.2712
  365MOL0     H49215   3.748   2.132   6.081  0.4796 -2.5569 -2.0677
  365MOL0     H49216   3.458   2.044   6.127  1.3633 -1.2254 -1.4759
  365MOL0     H49217   3.609   1.969   6.194  0.1007 -0.5457 -1.2337
  365MOL0     H49218   3.638   2.168   6.326 -0.1723  3.5705 -1.3971
  365MOL0     H49219   3.501   2.245   6.240 -3.1172 -1.2292  0.2334
  365MOL0     H49220   3.414   2.184   6.461 -2.5308 -2.7277  2.5654
  365MOL0     H49221   3.335   2.084   6.335 -0.6521 -0.2885  0.5431
  365MOL0     H49222   3.566   2.003   6.507  0.9112  2.1388 -2.4547
  365MOL0     H49223   3.493   1.893   6.388  0.1234 -0.5236  0.5466
  365MOL0     H49224   3.398   1.872   6.633  3.6261  0.2581 -1.2140
  365MOL0     H49225   3.314   2.029   6.593  0.7991  0.7464 -1.5277
  365MOL0     H49226   3.349   1.689   6.425 -0.9049 -0.8577 -1.1575
  365MOL0     H49227   3.105   1.686   6.132  0.2750 -0.5168 -0.6687
  365MOL0     H49228   3.244   1.603   6.188  1.2909  1.2263  1.3983
  365MOL0     H49229   3.013   1.461   6.195 -0.9287  1.6120  0.2581
  365MOL0     H49230   3.151   1.444   6.299  1.2978  1.7349  0.0528
  365MOL0     H49231   2.904   1.614   6.340 -1.0637 -2.2184 -1.7909
  365MOL0     H49232   3.027   1.608   6.469 -0.8314 -0.8336  1.5378
  365MOL0     H49233   2.828   1.391   6.375  0.1576 -1.8784  0.3843
  365MOL0     H49234   2.842   1.469   6.531 -0.4914 -1.4906  0.3016
  365MOL0     H49235   2.726   1.261   6.533 -0.0855 -0.0846 -0.4400
  365MOL0     H49236   2.649   1.046   6.587  0.2379 -1.2528  0.0695
  365MOL0     H49237   2.632   0.598   6.613  1.0130  3.4462 -0.8736
  365MOL0     H49238   2.557   0.397   6.716 -2.3880  1.1489  0.3552
  365MOL0     H49239   2.694   0.375   7.142 -0.2341 -0.7167 -2.5166
  365MOL0     H49240   2.529   0.415   7.188 -1.8076 -1.8047  0.6177
  365MOL0     H49241   2.629   0.134   7.131  1.7305  2.2705 -0.0050
  365MOL0     H49242   2.586   0.195   7.295  1.1725  0.1417  0.3735
  365MOL0     H49243   2.366   0.247   7.223  0.0161 -0.7608  1.9419
  365MOL0     H49244   2.394   0.174   7.058  0.3280 -0.4234 -0.2863
  365MOL0     H49245   2.411   0.031   7.337 -0.1715 -3.2778  0.1485
  365MOL0     H49246   2.445  -0.035   7.179 -1.7135 -0.3170 -0.0869
  365MOL0     H49247   2.242  -0.112   7.282 -0.5741 -0.6142 -1.1252
  365MOL0     H49248   2.214  -0.034   7.115 -2.2379  0.3087  0.5858
  365MOL0     H49249   2.132   0.171   7.220 -1.2092  0.1809 -0.6400
  365MOL0     H49250   2.035   0.029   7.220 -1.2126  1.4339  1.0919
  365MOL0     H49251   2.138   0.178   7.452 -0.2213  0.8729 -1.6944
  365MOL0     H49252   2.205   0.014   7.473  1.5315  2.8110  0.5326
  365MOL0     H49253   1.970   0.086   7.571 -1.1718 -0.6079 -0.6757
  365MOL0     H49254   1.920   0.104   7.407  0.0733  0.4801  0.5405
  365MOL0     H49255   2.641   0.581   7.104  0.6408 -0.1616 -0.9428
  365MOL0     H49256   2.709   0.779   6.992 -0.2962 -1.6851  1.2161
  365MOL0     H49257   3.053   0.899   6.593 -1.1137 -0.6075 -1.8575
  365MOL0     H49258   3.123   1.131   6.497  0.3155  2.0024  0.0431
  365MOL0     H49259   3.918   1.803   5.747  0.2550 -0.0761 -0.7860
  365MOL0     H49260   4.085   1.613   5.722  0.9417  0.1808 -0.9232
  365MOL0     H49261   4.345   1.334   5.776 -0.3616  0.0693 -1.3496
  365MOL0     H49262   4.512   1.172   5.738  2.6461  0.5649  3.7891
  365MOL0     H49263   4.354   0.764   5.698  1.8278 -0.1922 -2.1806
  365MOL0     H49264   4.442   0.740   5.846  2.3881  0.5614  1.5378
  365MOL0     H49265   4.660   0.759   5.713  1.1919 -0.7871 -1.6603
  365MOL0     H49266   4.570   0.773   5.567  0.1298 -2.6876 -1.4205
  365MOL0     H49267   4.586   0.523   5.748  0.5980  1.1990  0.3459
  365MOL0     H49268   4.624   0.541   5.572 -1.9986 -0.1473 -1.6191
  365MOL0     H49269   4.389   0.562   5.516  1.0378  2.7554  2.0246
  365MOL0     H49270   4.431   0.409   5.572 -1.6487 -0.9352  1.4978
  365MOL0     H49271   4.151   0.538   5.857 -4.4973  0.8268 -3.7341
  365MOL0     H49272   4.253   0.860   5.872  2.5146 -0.0819  0.4907
  365MOL0     H49273   3.951   1.052   5.920 -0.9312  0.7485  3.4741
  365MOL0     H49274   4.037   0.914   5.987  0.5024  0.8424  1.6697
  365MOL0     H49275   4.035   1.077   6.056 -2.5771 -0.1224  0.8323
  366MOL0     O49276   3.683   3.734   9.081  0.0692 -0.2869 -0.0360
  366MOL0     C49277   3.737   3.749   9.184  0.1805 -0.6271  0.0939
  366MOL0     O49278   3.678   3.795   9.298 -0.2392  0.1840  0.2771
  366MOL0     C49279   3.557   3.869   9.303  1.0377  1.1707  1.0383
  366MOL0     C49280   3.469   3.860   9.415 -1.1679  0.8034  0.2766
  366MOL0     C49281   3.347   3.919   9.425 -0.2587 -0.1512  0.1934
  366MOL0     C49282   3.311   4.011   9.320 -0.3661  0.8013 -0.3324
  366MOL0     O49283   3.188   4.056   9.304 -0.6171 -0.1495  0.2140
  366MOL0     C49284   3.095   4.036   9.412 -0.6237  0.1752 -0.4742
  366MOL0     C49285   3.025   3.899   9.405  0.4603  0.4165 -0.3292
  366MOL0     C49286   2.897   3.918   9.334  1.1268  0.4903  0.0729
  366MOL0     C49287   2.834   3.785   9.295 -0.9098  0.5821 -0.1184
  366MOL0     C49288   2.682   3.802   9.279 -0.1021  0.1017  0.1185
  366MOL0     C49289   2.611   3.671   9.214 -0.7803 -0.0321  0.1035
  366MOL0     C49290   2.461   3.670   9.211  1.2430 -0.4746 -0.3688
  366MOL0     C49291   2.421   3.522   9.177 -0.0666  0.3899 -0.2979
  366MOL0     N49292   2.422   3.436   9.292 -0.3806 -0.9917  0.0664
  366MOL0     C49293   2.501   3.329   9.313 -0.6773 -0.6183 -0.1136
  366MOL0     C49294   2.471   3.286   9.442 -0.3154 -0.0396 -0.2678
  366MOL0     C49295   2.520   3.163   9.503 -0.8783 -1.2122  0.2651
  366MOL0     C49296   2.508   3.180   9.656 -0.1031  0.0012 -0.3289
  366MOL0     C49297   2.582   3.060   9.729  0.2815 -1.2303 -0.4518
  366MOL0     C49298   2.512   3.028   9.870 -0.8144  0.5313 -0.2826
  366MOL0     O49299   2.516   3.139   9.961  0.1608  0.0785 -0.0755
  366MOL0     C49300   2.568   3.127  10.081  0.8059  0.3708 -0.8969
  366MOL0     C49301   2.506   3.043  10.178 -0.0308 -0.3911  0.2151
  366MOL0     C49302   2.558   3.032  10.312  0.7096 -0.6111 -0.0521
  366MOL0     C49303   2.666   3.113  10.346  0.2384  0.3967 -0.9623
  366MOL0     C49304   2.717   3.101  10.490 -1.2278  0.0816 -0.5627
  366MOL0     O49305   2.814   3.189  10.524 -0.1677  0.7826 -0.5526
  366MOL0     C49306   2.888   3.183  10.641  0.5982 -0.1308 -0.4104
  366MOL0     C49307   2.959   3.076  10.680 -0.2252 -1.4932  0.2903
  366MOL0     C49308   3.041   3.079  10.797 -0.7800  0.6150 -0.1681
  366MOL0     C49309   3.050   3.184  10.880  0.5769 -0.8038 -0.0098
  366MOL0     O49310   3.115   3.158  10.994 -0.4131 -0.6924 -0.2503
  366MOL0     C49311   3.185   3.259  11.068 -0.4303  0.4630  0.7966
  366MOL0     C49312   3.312   3.203  11.127 -0.3465 -0.3998  0.2291
  366MOL0     C49313   3.405   3.114  11.038  0.4887  0.3521  1.2080
  366MOL0     C49314   3.531   3.052  11.097 -0.5435 -0.5408 -1.1760
  366MOL0     C49315   3.614   2.947  11.021  0.6839  0.1734  0.2035
  366MOL0     C49316   3.530   2.811  10.993  0.0938 -1.2324  1.4009
  366MOL0     C49317   3.594   2.704  10.917 -0.5538 -1.2094 -0.2043
  366MOL0     C49318   3.499   2.591  10.878  0.1839  0.3560 -0.0235
  366MOL0    Cl49319   3.433   2.496  11.019  0.0405  0.0380 -0.3468
  366MOL0     C49320   2.986   3.301  10.836  0.4856  0.3589  0.2695
  366MOL0     C49321   2.901   3.293  10.726  0.6224  0.4057  1.0741
  366MOL0     O49322   2.659   3.031  10.570  0.5425  0.4186  0.6354
  366MOL0     C49323   2.737   3.187  10.239  0.2880  0.1609 -1.1340
  366MOL0     C49324   2.684   3.195  10.118 -0.2732 -0.2286  0.3339
  366MOL0     N49325   2.384   3.379   9.497 -0.7672  0.4186 -0.2339
  366MOL0     N49326   2.354   3.468   9.406 -0.5558  0.2101 -0.7740
  366MOL0     C49327   3.393   4.026   9.212  0.3221  0.0152 -1.0750
  366MOL0     C49328   3.513   3.957   9.201 -0.2201  0.4708  0.4924
  366MOL0     C49329   3.884   3.734   9.166  0.2160 -0.0981 -0.2329
  366MOL0     C49330   3.955   3.801   9.068 -1.0317 -0.3576  0.0014
  366MOL0     C49331   4.092   3.792   9.048  0.4240  0.2533 -0.2557
  366MOL0     C49332   4.169   3.707   9.131  0.9066 -0.3928  0.2491
  366MOL0     O49333   4.299   3.724   9.105 -0.4494  0.1571  0.1541
  366MOL0     C49334   4.392   3.708   9.219  0.5317  1.3855 -0.7108
  366MOL0     C49335   4.435   3.562   9.236  0.5202  0.3668 -0.7361
  366MOL0     C49336   4.525   3.563   9.350 -0.0434 -0.4185 -0.9974
  366MOL0     C49337   4.563   3.417   9.388  0.2104  1.2825 -0.1525
  366MOL0     C49338   4.657   3.439   9.504  0.4846  0.0923 -0.7728
  366MOL0     C49339   4.737   3.466   9.599  0.8126  0.5861 -0.3519
  366MOL0     C49340   4.102   3.646   9.240  0.3149  0.0985  0.1834
  366MOL0     C49341   3.963   3.654   9.257 -0.5080  0.8856  0.3166
  366MOL0     C49342   3.907   3.588   9.386  0.0986 -0.0892 -0.5727
  366MOL0     H49343   3.518   3.801   9.492 -2.0682  0.4216  0.5651
  366MOL0     H49344   3.289   3.899   9.514  0.7924 -0.3014  0.8653
  366MOL0     H49345   3.142   4.053   9.509 -2.1630  2.3362 -0.0226
  366MOL0     H49346   3.021   4.114   9.392  2.7062  3.2449 -2.0016
  366MOL0     H49347   3.020   3.849   9.502  1.9633 -0.0975 -0.4926
  366MOL0     H49348   3.072   3.824   9.341 -0.3268  1.5961 -2.4293
  366MOL0     H49349   2.905   3.963   9.234  1.1746 -1.0582 -0.6510
  366MOL0     H49350   2.830   3.978   9.397 -0.9421 -1.3409 -0.2784
  366MOL0     H49351   2.889   3.751   9.207  1.8514 -1.6754  2.2684
  366MOL0     H49352   2.846   3.709   9.373  2.0292  2.1799  1.1243
  366MOL0     H49353   2.657   3.820   9.384  1.7325  0.7842  0.4701
  366MOL0     H49354   2.660   3.883   9.208 -0.5537  0.1840  0.3505
  366MOL0     H49355   2.641   3.672   9.109  1.6694  3.0683  0.6624
  366MOL0     H49356   2.658   3.581   9.254  0.6395  0.2831 -0.8042
  366MOL0     H49357   2.414   3.744   9.146 -0.9724 -0.1996  1.4241
  366MOL0     H49358   2.410   3.690   9.305 -1.0581  0.0798 -1.6603
  366MOL0     H49359   2.315   3.519   9.149 -0.6473 -0.0150  1.7551
  366MOL0     H49360   2.485   3.479   9.100 -1.0496 -0.7955 -0.4686
  366MOL0     H49361   2.554   3.281   9.232 -1.4200  1.4184 -1.9185
  366MOL0     H49362   2.460   3.082   9.462  1.5772 -2.2500 -1.4607
  366MOL0     H49363   2.621   3.141   9.468 -0.2006  1.1336  0.5214
  366MOL0     H49364   2.563   3.270   9.686 -3.0320  1.7628  0.1324
  366MOL0     H49365   2.404   3.202   9.681  0.1439  1.9510 -0.8475
  366MOL0     H49366   2.688   3.071   9.753  0.2181 -1.8216  0.1442
  366MOL0     H49367   2.575   2.970   9.666  1.2739 -0.2824 -1.9987
  366MOL0     H49368   2.544   2.935   9.918 -1.0621 -0.0959 -1.2912
  366MOL0     H49369   2.407   3.000   9.855 -1.1533  0.0279  2.5549
  366MOL0     H49370   2.421   2.979  10.157  0.0471 -1.3431  2.5446
  366MOL0     H49371   2.495   2.982  10.385  4.1550 -5.3311  0.1094
  366MOL0     H49372   2.945   2.986  10.621 -3.5811 -2.4993  2.3033
  366MOL0     H49373   3.097   2.990  10.823 -2.8712 -0.9252 -0.7196
  366MOL0     H49374   3.207   3.335  10.993 -0.2318  0.4222  0.8138
  366MOL0     H49375   3.130   3.302  11.153  0.9965  2.9194  0.5581
  366MOL0     H49376   3.373   3.291  11.149 -1.9706  0.9498 -0.4482
  366MOL0     H49377   3.291   3.145  11.217 -3.2749  2.4918  1.6273
  366MOL0     H49378   3.350   3.028  10.999 -1.0651  1.5534  0.6355
  366MOL0     H49379   3.428   3.168  10.945  2.2668  2.0811  2.5894
  366MOL0     H49380   3.505   3.009  11.194  2.5545 -0.9615 -0.4221
  366MOL0     H49381   3.602   3.133  11.116  1.4312 -2.0462 -1.8088
  366MOL0     H49382   3.696   2.924  11.088 -0.3428 -0.4982  1.2636
  366MOL0     H49383   3.653   3.002  10.934  3.0461 -0.3384  0.8789
  366MOL0     H49384   3.492   2.778  11.090 -0.3023 -2.0224  0.9796
  366MOL0     H49385   3.438   2.836  10.940  1.9591 -2.6343 -2.9640
  366MOL0     H49386   3.679   2.667  10.974  0.6962  2.4925  0.6055
  366MOL0     H49387   3.635   2.766  10.836  1.6087 -0.0903  1.6426
  366MOL0     H49388   3.416   2.631  10.818  2.8649  0.7760 -3.7533
  366MOL0     H49389   3.551   2.510  10.826 -1.3425 -1.0554  0.5463
  366MOL0     H49390   2.988   3.395  10.890 -2.1184  1.2323 -0.9452
  366MOL0     H49391   2.838   3.377  10.701  1.5005  0.3460 -1.6716
  366MOL0     H49392   2.833   3.234  10.254 -0.0607  0.8209 -0.9105
  366MOL0     H49393   2.753   3.219  10.038 -2.7984  1.1158 -1.6120
  366MOL0     H49394   3.357   4.080   9.125 -0.7215 -2.0269 -1.9900
  366MOL0     H49395   3.567   3.970   9.107 -0.3071 -0.1792  0.3515
  366MOL0     H49396   3.906   3.878   9.009  1.3995  1.9405  0.7590
  366MOL0     H49397   4.134   3.852   8.968  0.9820  3.6933  2.3573
  366MOL0     H49398   4.345   3.744   9.311  1.1563  0.2450  0.0714
  366MOL0     H49399   4.480   3.772   9.210  2.6216 -1.2893 -0.7267
  366MOL0     H49400   4.461   3.519   9.139  0.3663  0.8907 -1.0180
  366MOL0     H49401   4.344   3.506   9.259  0.0099  2.0075  1.6462
  366MOL0     H49402   4.488   3.616   9.439  1.0732 -0.9333 -0.2019
  366MOL0     H49403   4.617   3.620   9.332  1.3765 -2.1485  0.3802
  366MOL0     H49404   4.477   3.358   9.422  0.2348  0.9986 -0.5722
  366MOL0     H49405   4.613   3.356   9.312  0.9608  0.0830  1.2530
  366MOL0     H49406   4.779   3.472   9.697 -2.0133 -0.0519  0.9969
  366MOL0     H49407   4.163   3.601   9.317  0.5768  0.7661  0.3708
  366MOL0     H49408   3.991   3.569   9.453 -1.3949  2.2322  2.2294
  366MOL0     H49409   3.833   3.645   9.443 -1.4457 -0.6233 -1.9537
  366MOL0     H49410   3.855   3.497   9.355 -1.4478 -0.1853  2.0291
  367MOL0     O49411   8.316   9.137   6.141  0.7680 -0.0531 -0.4306
  367MOL0     C49412   8.259   9.190   6.044 -0.2674 -1.4514  0.5018
  367MOL0     O49413   8.192   9.125   5.942  0.4838 -0.8660  0.1097
  367MOL0     C49414   8.211   8.993   5.930 -0.3064  0.1911  0.4457
  367MOL0     C49415   8.139   8.914   6.021 -1.0190  0.7129  0.6227
  367MOL0     C49416   8.162   8.779   6.019 -0.1505  0.3570  0.0197
  367MOL0     C49417   8.244   8.711   5.921  0.2199  0.2566  0.3515
  367MOL0     O49418   8.285   8.585   5.920  0.1891  0.4485  0.7664
  367MOL0     C49419   8.218   8.491   6.006 -0.8359  0.3998 -1.3154
  367MOL0     C49420   8.266   8.358   5.950 -0.1814 -0.2401 -0.9335
  367MOL0     C49421   8.420   8.345   5.940 -0.4368  0.2664  0.2509
  367MOL0     C49422   8.503   8.357   6.068  0.1505 -0.3421  0.5022
  367MOL0     C49423   8.628   8.278   6.057  0.0198  0.2615  0.2656
  367MOL0     C49424   8.704   8.247   6.185  1.6059  0.0006 -0.1178
  367MOL0     C49425   8.794   8.130   6.160 -0.7605 -0.6271  0.1851
  367MOL0     C49426   8.849   8.102   6.301  1.3311  0.5508  0.1437
  367MOL0     N49427   8.947   7.997   6.295 -0.4522 -0.2293 -0.0700
  367MOL0     C49428   9.087   8.018   6.278 -1.2470  0.5791 -0.5866
  367MOL0     C49429   9.136   7.888   6.287  0.6991 -0.1221  0.2806
  367MOL0     C49430   9.282   7.856   6.278  0.0001  0.7580 -0.8753
  367MOL0     C49431   9.337   7.845   6.142  0.1799 -0.9324  0.7536
  367MOL0     C49432   9.299   7.722   6.069  0.2367 -1.3806 -0.0993
  367MOL0     C49433   9.367   7.705   5.929 -0.3129 -0.3467 -1.0741
  367MOL0     O49434   9.361   7.574   5.906  0.3531  0.0682  0.7400
  367MOL0     C49435   9.463   7.489   5.944 -0.2096  0.1779  0.5774
  367MOL0     C49436   9.580   7.534   6.020 -0.2181  0.5922  0.6577
  367MOL0     C49437   9.677   7.438   6.057  0.3823 -0.3875 -0.2980
  367MOL0     C49438   9.668   7.305   6.027  0.6626  0.3632 -0.0376
  367MOL0     C49439   9.782   7.209   6.048  0.7334  0.9881 -0.4591
  367MOL0     O49440   9.895   7.265   6.089 -0.9664  0.7781  0.5143
  367MOL0     C49441   9.994   7.182   6.139 -0.0361 -0.3871 -0.8690
  367MOL0     C49442   9.980   7.059   6.200  0.0516  0.5656 -0.1561
  367MOL0     C49443  10.079   6.977   6.240  0.2706 -0.3767 -0.1065
  367MOL0     C49444  10.208   7.027   6.225  0.4588 -0.0605 -0.4024
  367MOL0     O49445  10.318   6.955   6.258  0.4033 -0.0486 -0.1575
  367MOL0     C49446  10.325   6.840   6.174 -0.1607  0.2479  0.3869
  367MOL0     C49447  10.461   6.777   6.197  0.5295 -0.1176 -1.3640
  367MOL0     C49448  10.471   6.692   6.334  0.0177  0.7563  0.1022
  367MOL0     C49449  10.441   6.545   6.294  0.1349  0.1598 -0.4506
  367MOL0     C49450  10.450   6.457   6.417  0.6600 -0.0850 -0.0048
  367MOL0     C49451  10.400   6.324   6.371  0.8590  0.1030 -0.6053
  367MOL0     C49452  10.467   6.222   6.473  0.5635  0.0821  0.0564
  367MOL0     C49453  10.403   6.241   6.626  0.4322 -0.0424  0.2088
  367MOL0    Cl49454  10.480   6.120   6.733  0.2637  0.4080 -0.5707
  367MOL0     C49455  10.225   7.161   6.195  0.3100  0.2284 -0.5212
  367MOL0     C49456  10.124   7.233   6.151 -0.5873  0.1887 -0.4471
  367MOL0     O49457   9.770   7.088   6.013  0.1644 -0.1760  1.2101
  367MOL0     C49458   9.558   7.259   5.953  0.0779  0.2557  1.5128
  367MOL0     C49459   9.456   7.354   5.910 -0.0692 -0.3865 -0.0983
  367MOL0     N49460   9.031   7.805   6.293 -0.0469  0.2126 -0.4225
  367MOL0     N49461   8.922   7.865   6.309 -0.1693  0.0745  0.0176
  367MOL0     C49462   8.307   8.801   5.819  1.4195 -0.1196  0.1560
  367MOL0     C49463   8.282   8.936   5.828  0.0238 -0.6818  0.6535
  367MOL0     C49464   8.297   9.338   6.030  0.5779  0.0374  0.8585
  367MOL0     C49465   8.289   9.400   5.906 -0.0156 -0.4302 -0.8755
  367MOL0     C49466   8.312   9.538   5.885 -0.3383  0.0423 -0.6919
  367MOL0     C49467   8.342   9.618   5.990 -0.3295  0.0500 -0.5269
  367MOL0     O49468   8.377   9.745   5.952  0.1004 -0.0795 -0.7622
  367MOL0     C49469   8.341   9.858   6.032  0.3153  0.1917 -1.0572
  367MOL0     C49470   8.460   9.913   6.102 -0.4182 -0.3055 -0.6254
  367MOL0     C49471   8.429  10.032   6.194 -1.0231 -0.2801  0.1157
  367MOL0     C49472   8.374  10.165   6.123  0.7024  0.5732 -0.7786
  367MOL0     C49473   8.283  10.241   6.223 -0.3694 -0.6387 -0.3261
  367MOL0     C49474   8.210  10.302   6.302 -0.4634  0.1128 -0.8717
  367MOL0     C49475   8.342   9.561   6.121  0.8452  0.2184 -0.9376
  367MOL0     C49476   8.328   9.420   6.146  1.3833 -0.6208 -0.1073
  367MOL0     C49477   8.313   9.378   6.289  0.2906 -0.9988 -0.9333
  367MOL0     H49478   8.085   8.961   6.103 -0.3889  1.8215  0.4335
  367MOL0     H49479   8.120   8.728   6.105 -2.5058  2.3625  0.1937
  367MOL0     H49480   8.257   8.504   6.107  2.9971  0.9420 -2.6753
  367MOL0     H49481   8.110   8.496   5.995 -1.1316  2.0061  1.5770
  367MOL0     H49482   8.217   8.339   5.854 -1.9073 -2.1150  0.2264
  367MOL0     H49483   8.233   8.279   6.018  1.8842 -0.2058  0.1711
  367MOL0     H49484   8.456   8.420   5.869 -0.8940  2.2490  2.0031
  367MOL0     H49485   8.437   8.243   5.903  1.0092  0.5037  0.1817
  367MOL0     H49486   8.520   8.456   6.110 -2.0236  0.2089  0.2176
  367MOL0     H49487   8.445   8.299   6.141 -0.8806 -1.7670 -1.3624
  367MOL0     H49488   8.610   8.194   5.989  0.1249  1.5879 -1.4578
  367MOL0     H49489   8.693   8.341   5.996  2.1732 -2.5511 -0.5757
  367MOL0     H49490   8.755   8.337   6.220  0.6196  0.1664  0.9233
  367MOL0     H49491   8.626   8.226   6.258  2.2606  3.1527  1.6649
  367MOL0     H49492   8.878   8.159   6.097  0.3128 -0.5736  1.5685
  367MOL0     H49493   8.744   8.044   6.115  1.5923 -0.9788 -2.0062
  367MOL0     H49494   8.891   8.197   6.338 -0.4043  1.8736 -1.0942
  367MOL0     H49495   8.775   8.066   6.373  0.7310  1.2840 -0.0908
  367MOL0     H49496   9.119   8.117   6.246 -5.2860  0.9222 -4.5109
  367MOL0     H49497   9.331   7.944   6.319  1.2014 -0.6189  0.7883
  367MOL0     H49498   9.300   7.763   6.334 -3.1716  0.9911  0.7978
  367MOL0     H49499   9.311   7.942   6.098  0.1478 -0.7971  1.0642
  367MOL0     H49500   9.446   7.859   6.150  0.2166  2.2489 -2.6599
  367MOL0     H49501   9.191   7.729   6.054 -0.0131 -1.5890  1.4661
  367MOL0     H49502   9.328   7.638   6.132 -0.5948 -0.1898  1.9683
  367MOL0     H49503   9.474   7.729   5.933  0.4291 -3.4593  0.7522
  367MOL0     H49504   9.315   7.755   5.847  2.0103 -1.0377 -3.0688
  367MOL0     H49505   9.588   7.632   6.065 -1.2665  0.4734  1.1391
  367MOL0     H49506   9.752   7.472   6.127 -0.8311 -0.8329  1.2760
  367MOL0     H49507   9.879   7.021   6.212 -0.3356  2.0224  1.5910
  367MOL0     H49508  10.049   6.876   6.266 -2.4376  0.8930  2.2745
  367MOL0     H49509  10.237   6.776   6.188 -0.0527  0.6673  3.7873
  367MOL0     H49510  10.322   6.869   6.069 -2.2437  0.6931  0.5064
  367MOL0     H49511  10.502   6.709   6.121  1.5504 -3.2393  1.7441
  367MOL0     H49512  10.537   6.856   6.206  0.4499 -0.1972  0.1619
  367MOL0     H49513  10.558   6.708   6.398 -1.6328 -0.2481  2.7491
  367MOL0     H49514  10.393   6.725   6.402  0.8893 -1.3486  2.2553
  367MOL0     H49515  10.523   6.512   6.230  0.2510 -0.7968  0.1754
  367MOL0     H49516  10.346   6.544   6.241 -0.1245  1.0137 -0.0243
  367MOL0     H49517  10.387   6.486   6.501  1.1292  0.3591  0.2012
  367MOL0     H49518  10.548   6.438   6.462 -0.3268 -1.6127  1.6259
  367MOL0     H49519  10.292   6.310   6.379  0.7814  0.5908 -0.7665
  367MOL0     H49520  10.438   6.307   6.270  4.9710  2.1623  0.3475
  367MOL0     H49521  10.576   6.238   6.473  0.3587  2.2954  3.0292
  367MOL0     H49522  10.462   6.120   6.435  0.0061  0.4903 -1.0143
  367MOL0     H49523  10.420   6.341   6.666 -0.3306 -0.2373  1.0315
  367MOL0     H49524  10.297   6.217   6.615  0.6897 -0.4601 -1.8469
  367MOL0     H49525  10.326   7.201   6.198  1.9004 -3.3162 -1.2722
  367MOL0     H49526  10.148   7.332   6.115  1.7521 -0.6830 -1.5186
  367MOL0     H49527   9.563   7.160   5.909  1.1317  0.2595  1.5974
  367MOL0     H49528   9.369   7.322   5.854  1.6831 -1.0737 -2.6089
  367MOL0     H49529   8.364   8.750   5.742 -0.6372  0.7557 -2.0774
  367MOL0     H49530   8.332   8.993   5.751 -1.6589 -2.1577 -1.6461
  367MOL0     H49531   8.273   9.336   5.820  1.7618 -2.3630  0.1397
  367MOL0     H49532   8.313   9.589   5.789 -2.2035  1.5166  0.0138
  367MOL0     H49533   8.262   9.833   6.104  0.7492  1.6975 -0.0070
  367MOL0     H49534   8.294   9.935   5.970  0.1320 -1.2401 -2.7466
  367MOL0     H49535   8.528   9.953   6.026  3.0380  3.4757  3.8750
  367MOL0     H49536   8.513   9.829   6.149  1.2489 -0.2591 -2.2966
  367MOL0     H49537   8.520  10.064   6.246 -0.7455  0.3798 -0.7424
  367MOL0     H49538   8.363   9.995   6.272  0.1093  2.0259  2.3022
  367MOL0     H49539   8.451  10.224   6.073  1.9471 -2.5021 -2.7804
  367MOL0     H49540   8.303  10.143   6.042 -2.3490  1.7653  1.3660
  367MOL0     H49541   8.160  10.346   6.387  1.9969  0.4511  0.5047
  367MOL0     H49542   8.357   9.631   6.202  0.9118 -1.1974  0.3047
  367MOL0     H49543   8.221   9.321   6.306  0.7769 -1.3493  0.7790
  367MOL0     H49544   8.397   9.323   6.331  1.8488  2.7271  1.4243
  367MOL0     H49545   8.312   9.472   6.346  0.5782 -0.3467 -1.9875
  368MOL0     O49546   7.116   4.833   8.949  0.2260  0.0575  0.8356
  368MOL0     C49547   7.053   4.933   8.924 -0.0738 -0.5092  0.7546
  368MOL0     O49548   7.109   5.034   8.844  0.3605  0.6374  0.1079
  368MOL0     C49549   7.221   5.009   8.778  0.9096  0.4675  0.6571
  368MOL0     C49550   7.345   5.017   8.843 -0.8032 -0.1339  0.6334
  368MOL0     C49551   7.465   5.005   8.781  0.4749  0.6912  0.2025
  368MOL0     C49552   7.464   4.985   8.637 -0.6979  0.2992  0.0447
  368MOL0     O49553   7.578   4.974   8.567  0.5388  0.4911  0.5397
  368MOL0     C49554   7.633   4.839   8.553  0.0227  0.2388 -0.9169
  368MOL0     C49555   7.608   4.797   8.405  0.2719 -0.5130 -0.6196
  368MOL0     C49556   7.655   4.893   8.295  0.0680  0.2969 -0.0998
  368MOL0     C49557   7.657   4.828   8.161  0.1471 -0.8822  0.5973
  368MOL0     C49558   7.795   4.771   8.142  0.6565  1.0609 -1.0287
  368MOL0     C49559   7.813   4.667   8.036  0.9535 -0.7897 -0.2625
  368MOL0     C49560   7.965   4.649   8.024  0.3057  0.5142  0.0911
  368MOL0     C49561   8.026   4.750   7.943 -1.0064  0.2277 -0.6521
  368MOL0     N49562   8.158   4.713   7.888  0.0064 -0.4409  0.1142
  368MOL0     C49563   8.280   4.784   7.889 -0.0754  0.4806 -0.1031
  368MOL0     C49564   8.366   4.711   7.817 -0.5854 -0.7012 -0.5907
  368MOL0     C49565   8.509   4.739   7.785  0.0622 -0.4071 -0.5967
  368MOL0     C49566   8.597   4.766   7.913  0.0286 -1.1784  0.5882
  368MOL0     C49567   8.614   4.655   8.015  0.3986  0.3918  0.9636
  368MOL0     C49568   8.578   4.701   8.146 -0.3613  0.2940 -0.1441
  368MOL0     O49569   8.444   4.742   8.151 -0.5054  0.4128  0.0962
  368MOL0     C49570   8.398   4.814   8.257 -0.1821 -1.1016 -0.0204
  368MOL0     C49571   8.463   4.814   8.388 -0.3146 -0.6186  0.8519
  368MOL0     C49572   8.390   4.853   8.502 -0.3804 -0.1346  0.6849
  368MOL0     C49573   8.258   4.904   8.496 -0.1721  0.2012 -1.1554
  368MOL0     C49574   8.190   4.939   8.616 -0.4922 -0.6575  0.5294
  368MOL0     O49575   8.195   4.869   8.733 -0.0357  0.5813  0.2103
  368MOL0     C49576   8.148   4.918   8.849  0.8426  0.5732  1.0826
  368MOL0     C49577   8.026   4.984   8.862 -0.3811 -0.2103  0.2695
  368MOL0     C49578   7.989   5.025   8.992 -0.0902 -0.6485 -0.1835
  368MOL0     C49579   8.067   5.018   9.107 -0.1650  0.2119  0.9867
  368MOL0     O49580   8.033   5.069   9.230 -0.4074 -0.4449 -0.6371
  368MOL0     C49581   8.118   5.048   9.337  0.4336 -0.4207 -0.5210
  368MOL0     C49582   8.112   4.906   9.395 -0.4861  0.9286  0.3091
  368MOL0     C49583   7.975   4.859   9.433 -0.8638  0.1072 -0.1666
  368MOL0     C49584   8.002   4.743   9.527  0.0585  0.5852  0.7625
  368MOL0     C49585   7.884   4.649   9.530 -0.4648  0.1027  0.2766
  368MOL0     C49586   7.930   4.516   9.587 -0.6654  0.5697 -0.7480
  368MOL0     C49587   8.057   4.454   9.530  0.2373 -0.5383  1.1158
  368MOL0     C49588   8.080   4.458   9.369 -0.1644  0.4327  0.2813
  368MOL0    Cl49589   8.231   4.376   9.338  0.4468  0.3855 -0.2455
  368MOL0     C49590   8.191   4.953   9.078 -0.0303  0.2088  0.2225
  368MOL0     C49591   8.227   4.907   8.952 -0.8617 -0.5225  0.3617
  368MOL0     O49592   8.145   5.055   8.598 -0.5070  0.9966  0.1627
  368MOL0     C49593   8.198   4.909   8.371 -0.2193  0.2222 -0.0628
  368MOL0     C49594   8.269   4.874   8.258  0.1451  0.6455 -0.3632
  368MOL0     N49595   8.299   4.602   7.766  0.0719  0.5943  0.2558
  368MOL0     N49596   8.177   4.606   7.812 -0.0108  0.1713  0.7014
  368MOL0     C49597   7.341   4.977   8.568 -0.2523 -0.8474  0.6585
  368MOL0     C49598   7.215   4.978   8.641  0.8576  0.6520  0.2997
  368MOL0     C49599   6.917   4.941   8.989 -0.3454 -0.0076  1.3014
  368MOL0     C49600   6.859   4.824   9.048  0.3664  0.2133 -0.0160
  368MOL0     C49601   6.732   4.826   9.113 -0.4241 -0.4876  0.3386
  368MOL0     C49602   6.674   4.950   9.139 -0.4291  0.4266  0.1855
  368MOL0     O49603   6.555   4.937   9.214  0.2249  0.0546 -0.3199
  368MOL0     C49604   6.550   5.021   9.324  0.0579  0.1873 -0.3624
  368MOL0     C49605   6.658   4.978   9.441  0.2198 -0.3029  1.0888
  368MOL0     C49606   6.659   5.067   9.565 -1.1803  0.6745  0.0197
  368MOL0     C49607   6.585   5.200   9.559  0.1849 -0.1428 -0.5017
  368MOL0     C49608   6.600   5.270   9.687  0.4599  0.7676 -0.1759
  368MOL0     C49609   6.628   5.311   9.795 -1.3994  0.0368  0.6979
  368MOL0     C49610   6.737   5.070   9.099  0.4095  0.0697  0.2196
  368MOL0     C49611   6.853   5.067   9.025 -0.6893 -0.6934 -0.3463
  368MOL0     C49612   6.907   5.200   8.975  0.4803  0.4044 -0.1300
  368MOL0     H49613   7.356   5.058   8.943  0.2316 -0.3074  0.6022
  368MOL0     H49614   7.556   5.016   8.840 -0.8947  2.2993  2.1439
  368MOL0     H49615   7.735   4.819   8.588  0.0674  1.1882 -0.4503
  368MOL0     H49616   7.568   4.775   8.613 -1.7838  1.2968 -1.6655
  368MOL0     H49617   7.499   4.781   8.406  0.4305 -2.4105 -3.1689
  368MOL0     H49618   7.658   4.701   8.394 -1.2514 -1.3229 -0.8561
  368MOL0     H49619   7.750   4.946   8.310 -1.8099  3.2735  2.4996
  368MOL0     H49620   7.578   4.970   8.285 -2.1999 -1.9296 -1.0297
  368MOL0     H49621   7.576   4.758   8.140 -2.6323  1.5249  2.4551
  368MOL0     H49622   7.648   4.899   8.078 -0.0723 -2.6818 -0.9929
  368MOL0     H49623   7.868   4.851   8.126  2.6372 -0.7096 -1.2909
  368MOL0     H49624   7.821   4.728   8.239 -1.6353  2.4027  0.2543
  368MOL0     H49625   7.762   4.573   8.063  0.3533 -0.4072 -0.0326
  368MOL0     H49626   7.765   4.703   7.945 -4.2905 -3.0952  1.1672
  368MOL0     H49627   7.973   4.554   7.971  3.7314  0.0559  1.1696
  368MOL0     H49628   8.019   4.645   8.118 -1.4116 -1.4664  1.0793
  368MOL0     H49629   7.956   4.768   7.861 -0.5989  0.1166 -1.0287
  368MOL0     H49630   8.042   4.838   8.006  0.2559 -0.7123  0.3856
  368MOL0     H49631   8.295   4.877   7.944  2.5239  0.8163 -1.2588
  368MOL0     H49632   8.552   4.654   7.730 -1.5432 -1.0704 -0.8787
  368MOL0     H49633   8.518   4.821   7.713  0.7083 -0.3956 -0.5089
  368MOL0     H49634   8.700   4.774   7.877 -0.7675  1.4531 -1.3764
  368MOL0     H49635   8.564   4.863   7.949 -0.4892 -0.7956 -0.8386
  368MOL0     H49636   8.717   4.618   8.012 -0.2816 -1.5428 -1.1019
  368MOL0     H49637   8.550   4.571   7.987 -0.2246  0.7158  1.3772
  368MOL0     H49638   8.640   4.788   8.169  1.8037 -1.1762 -0.1039
  368MOL0     H49639   8.606   4.624   8.218  4.6797  0.8218 -1.1400
  368MOL0     H49640   8.554   4.757   8.400  0.3779  0.3081  0.1443
  368MOL0     H49641   8.431   4.836   8.601 -1.6320 -2.6955  0.8523
  368MOL0     H49642   7.952   5.002   8.785  1.2657  1.9548 -0.8933
  368MOL0     H49643   7.895   5.074   9.015  0.8258  0.0661  2.3032
  368MOL0     H49644   8.218   5.084   9.313  0.0546  2.4566  1.5327
  368MOL0     H49645   8.075   5.116   9.412 -0.8101  0.0297 -1.5944
  368MOL0     H49646   8.154   4.832   9.327  0.4253  1.2090  0.5561
  368MOL0     H49647   8.175   4.913   9.484 -2.8428 -0.6799  2.2355
  368MOL0     H49648   7.911   4.935   9.479 -1.4924 -0.1418 -0.6295
  368MOL0     H49649   7.931   4.844   9.334 -0.2956 -1.3760 -0.2120
  368MOL0     H49650   8.023   4.772   9.630  0.1996  1.9082  0.3802
  368MOL0     H49651   8.092   4.691   9.493 -0.3689 -1.6709  2.8555
  368MOL0     H49652   7.840   4.640   9.430  0.9768  0.8758 -0.4496
  368MOL0     H49653   7.807   4.686   9.599  0.4428  0.6325  1.0273
  368MOL0     H49654   7.954   4.542   9.690  1.4351  1.3161 -1.3840
  368MOL0     H49655   7.856   4.435   9.577  3.2014 -3.4961  0.2416
  368MOL0     H49656   8.064   4.351   9.567  3.0737 -1.2354 -1.0022
  368MOL0     H49657   8.146   4.505   9.568 -0.4278  0.6479  1.1123
  368MOL0     H49658   7.993   4.408   9.326  0.6296 -1.3578  0.6677
  368MOL0     H49659   8.106   4.558   9.335  4.7889 -0.2928  1.2224
  368MOL0     H49660   8.266   4.947   9.156 -0.0232 -0.1933  0.1898
  368MOL0     H49661   8.329   4.873   8.943 -0.9701 -0.7137 -0.1710
  368MOL0     H49662   8.092   4.930   8.362 -0.2207  0.6383  0.8712
  368MOL0     H49663   8.217   4.889   8.164  0.9734  2.0867 -0.6130
  368MOL0     H49664   7.354   4.969   8.461  0.3814  0.3346  0.6331
  368MOL0     H49665   7.116   4.963   8.600  0.4887  3.1223  0.1370
  368MOL0     H49666   6.912   4.730   9.035 -0.1898  0.0517 -1.2909
  368MOL0     H49667   6.692   4.730   9.144 -1.8449 -1.0964 -2.8987
  368MOL0     H49668   6.449   5.025   9.366 -0.1172  1.7802 -0.8762
  368MOL0     H49669   6.581   5.122   9.294  2.3046  0.0407  1.1593
  368MOL0     H49670   6.759   4.976   9.400  0.2345 -0.9350  1.1397
  368MOL0     H49671   6.628   4.879   9.477 -0.6502  0.1107  1.5484
  368MOL0     H49672   6.763   5.083   9.592 -1.7448  0.3356  2.7759
  368MOL0     H49673   6.618   5.011   9.650  0.7660  0.5713  0.9281
  368MOL0     H49674   6.626   5.270   9.485  0.4189  0.4037  0.1385
  368MOL0     H49675   6.483   5.177   9.526  1.2399 -1.9785 -2.7227
  368MOL0     H49676   6.675   5.340   9.887 -0.2332 -1.3753  0.5758
  368MOL0     H49677   6.679   5.161   9.116 -1.2331 -1.3032  2.4344
  368MOL0     H49678   6.834   5.277   9.000  0.8215 -0.1661  3.1847
  368MOL0     H49679   7.009   5.218   9.012 -0.5556 -1.6894  4.6201
  368MOL0     H49680   6.910   5.194   8.866 -0.9066  2.1870 -0.3180
  369MOL0     O49681   9.934  11.363  10.055  0.1438  0.2567  0.0481
  369MOL0     C49682   9.940  11.310   9.945 -0.2963 -0.2540  0.7499
  369MOL0     O49683   9.959  11.377   9.832  0.1105  0.1735  0.6697
  369MOL0     C49684   9.954  11.514   9.826  0.2903  0.2206 -0.5554
  369MOL0     C49685  10.069  11.579   9.873 -0.0698 -0.5670  0.1423
  369MOL0     C49686  10.091  11.709   9.837  0.2600 -0.4646  0.0437
  369MOL0     C49687   9.993  11.775   9.759  0.9815  0.0710  0.1567
  369MOL0     O49688  10.002  11.900   9.726  0.0772 -0.2708 -0.5081
  369MOL0     C49689   9.991  11.929   9.582  0.1262  0.0181  0.7661
  369MOL0     C49690   9.942  12.064   9.567 -0.2936 -0.5757 -0.2532
  369MOL0     C49691   9.831  12.091   9.463  0.8734  0.8065  0.5599
  369MOL0     C49692   9.700  12.012   9.491  0.3953 -0.3406 -0.1724
  369MOL0     C49693   9.629  11.990   9.356  0.1885 -0.4941  0.1618
  369MOL0     C49694   9.597  12.114   9.281 -0.0494  0.2080  0.1115
  369MOL0     C49695   9.506  12.078   9.167 -0.5100 -0.3182 -0.1922
  369MOL0     C49696   9.506  12.158   9.032  0.7818  0.2661 -0.4296
  369MOL0     N49697   9.444  12.291   9.037  0.1752  0.8242 -0.7706
  369MOL0     C49698   9.494  12.395   9.115  0.1317  0.1323  0.4101
  369MOL0     C49699   9.395  12.489   9.113  0.1488 -0.1551 -0.0593
  369MOL0     C49700   9.393  12.625   9.162 -0.5051 -0.2849 -0.5197
  369MOL0     C49701   9.468  12.629   9.292  0.0949  0.1850 -0.4558
  369MOL0     C49702   9.409  12.729   9.382 -0.4048  0.7361 -0.4285
  369MOL0     C49703   9.400  12.872   9.317  0.1872 -0.9156  1.2237
  369MOL0     O49704   9.507  12.896   9.220 -0.0798  0.2987  0.0262
  369MOL0     C49705   9.634  12.901   9.268 -0.3654  0.4584 -0.3380
  369MOL0     C49706   9.726  12.918   9.170 -1.0611 -0.0390  0.5528
  369MOL0     C49707   9.860  12.912   9.199 -1.0892 -0.3829 -0.0151
  369MOL0     C49708   9.907  12.895   9.326 -0.5118 -0.2519 -0.5374
  369MOL0     C49709  10.053  12.880   9.346  0.0643  0.3382 -1.0631
  369MOL0     O49710  10.093  12.814   9.463 -0.4436 -0.4541 -0.4079
  369MOL0     C49711  10.231  12.794   9.487  0.2819  0.0656 -0.1966
  369MOL0     C49712  10.266  12.786   9.622 -0.5334 -0.6387 -0.0705
  369MOL0     C49713  10.395  12.748   9.656 -0.9895  0.3487  0.2852
  369MOL0     C49714  10.490  12.717   9.551  0.1192 -0.5155 -0.3046
  369MOL0     O49715  10.617  12.694   9.601  0.0540 -0.3009 -0.3329
  369MOL0     C49716  10.697  12.608   9.525  0.4925  0.1582  0.0968
  369MOL0     C49717  10.812  12.554   9.598 -0.1778  0.0410  0.5870
  369MOL0     C49718  10.779  12.482   9.725  0.5165  0.1117 -0.6741
  369MOL0     C49719  10.827  12.338   9.726 -0.2409  0.0444 -0.4619
  369MOL0     C49720  10.766  12.268   9.843  0.5471 -0.6387 -0.5055
  369MOL0     C49721  10.842  12.305   9.967  0.1427 -0.1751 -0.7532
  369MOL0     C49722  10.753  12.267  10.090  0.1430 -0.8099  0.3471
  369MOL0     C49723  10.780  12.355  10.220 -0.8999  0.1434  0.3877
  369MOL0    Cl49724  10.955  12.385  10.225 -0.5666 -0.2124 -0.6176
  369MOL0     C49725  10.451  12.721   9.425  0.4512 -0.0909 -0.1816
  369MOL0     C49726  10.314  12.743   9.395  0.0686  0.5285 -0.0427
  369MOL0     O49727  10.127  12.923   9.260 -0.5388  0.0390 -0.2108
  369MOL0     C49728   9.811  12.896   9.430  0.0463 -1.0848 -0.1045
  369MOL0     C49729   9.675  12.897   9.406 -0.0126 -1.0232 -0.2893
  369MOL0     N49730   9.295  12.439   9.034  0.2653  0.5817 -0.2228
  369MOL0     N49731   9.323  12.324   8.992  0.0706 -0.5623 -0.8330
  369MOL0     C49732   9.878  11.711   9.723 -0.0487 -0.4573 -0.0017
  369MOL0     C49733   9.863  11.575   9.758  0.1482  0.1625  0.8788
  369MOL0     C49734   9.922  11.163   9.931 -0.2486  1.4606 -0.4524
  369MOL0     C49735   9.915  11.101   9.802 -0.2447  0.4396 -0.1489
  369MOL0     C49736   9.903  10.965   9.786  0.3931 -0.6517  0.6163
  369MOL0     C49737   9.902  10.873   9.889  0.4104  0.9151  0.1943
  369MOL0     O49738   9.909  10.736   9.881  0.6438 -0.0450  0.1420
  369MOL0     C49739   9.907  10.646   9.766  0.0156  0.0814  0.0764
  369MOL0     C49740  10.041  10.648   9.689 -0.4191  0.8057 -0.1617
  369MOL0     C49741  10.164  10.646   9.770 -0.2040  0.5736 -0.3061
  369MOL0     C49742  10.169  10.541   9.885 -0.1382  0.0554 -0.2768
  369MOL0     C49743  10.159  10.406   9.842 -0.4917  0.0097 -0.1877
  369MOL0     C49744  10.169  10.300   9.782  0.2662  0.7949  0.1809
  369MOL0     C49745   9.893  10.924  10.014 -0.4324 -0.4111 -0.2105
  369MOL0     C49746   9.905  11.063  10.041 -0.5057  0.0819  0.4413
  369MOL0     C49747   9.905  11.100  10.183  0.5979  0.0741  0.9726
  369MOL0     H49748  10.150  11.529   9.925 -0.6562 -0.9598  0.6934
  369MOL0     H49749  10.181  11.766   9.858 -1.0793  0.9378  2.4890
  369MOL0     H49750  10.088  11.922   9.531  0.1757  2.6917  0.3235
  369MOL0     H49751   9.931  11.855   9.528  0.6140  0.8121 -0.9365
  369MOL0     H49752  10.028  12.124   9.536 -1.9052  0.3717 -3.2768
  369MOL0     H49753   9.899  12.112   9.656  0.8248  0.6391 -0.3436
  369MOL0     H49754   9.868  12.055   9.367 -2.9329 -0.4569 -0.5817
  369MOL0     H49755   9.824  12.199   9.445  1.9097  1.4313  3.3655
  369MOL0     H49756   9.713  11.913   9.536 -0.1462 -0.2568  0.1693
  369MOL0     H49757   9.642  12.081   9.552 -0.4343 -2.3142  1.3655
  369MOL0     H49758   9.679  11.924   9.285  0.7612 -1.5307  1.4634
  369MOL0     H49759   9.538  11.936   9.380  0.0579  0.0790  1.0115
  369MOL0     H49760   9.553  12.196   9.338 -0.8400 -0.0169 -0.1670
  369MOL0     H49761   9.690  12.156   9.240  0.0246 -1.8231 -2.0320
  369MOL0     H49762   9.406  12.094   9.209 -0.0801  2.5468 -0.0590
  369MOL0     H49763   9.510  11.972   9.137  0.1997 -0.0837 -0.9582
  369MOL0     H49764   9.608  12.169   8.995  0.2081  5.1558 -1.1452
  369MOL0     H49765   9.446  12.095   8.966 -0.8938 -0.5873  1.7616
  369MOL0     H49766   9.591  12.394   9.161  0.1686 -0.8957  0.3304
  369MOL0     H49767   9.442  12.701   9.102 -1.1685  0.5844  0.0239
  369MOL0     H49768   9.289  12.654   9.178 -0.3081 -0.3084  0.8861
  369MOL0     H49769   9.464  12.534   9.345 -2.1366 -0.7813 -2.1944
  369MOL0     H49770   9.576  12.641   9.282  0.7022 -1.7509  2.5281
  369MOL0     H49771   9.464  12.723   9.476  0.2964  0.2517 -0.8555
  369MOL0     H49772   9.305  12.695   9.390 -0.5726  1.3254 -0.1293
  369MOL0     H49773   9.416  12.949   9.394  1.2531 -1.9648  2.0971
  369MOL0     H49774   9.307  12.874   9.260  0.6702 -3.9809  0.1464
  369MOL0     H49775   9.697  12.923   9.065  0.6590 -1.6510 -0.0531
  369MOL0     H49776   9.927  12.926   9.114 -1.6533 -0.0761 -0.4163
  369MOL0     H49777  10.206  12.832   9.700  0.0198  1.9933 -1.0794
  369MOL0     H49778  10.423  12.741   9.761 -1.3733 -0.2618  0.3510
  369MOL0     H49779  10.634  12.519   9.514 -0.7586  1.2225 -2.3124
  369MOL0     H49780  10.711  12.649   9.424 -1.2585  0.0034 -0.2397
  369MOL0     H49781  10.871  12.490   9.532 -1.8274 -0.2497 -0.6741
  369MOL0     H49782  10.871  12.642   9.625 -2.6795  1.6485  1.0607
  369MOL0     H49783  10.823  12.540   9.807 -1.7548  1.3471 -0.2651
  369MOL0     H49784  10.670  12.481   9.734  0.6346 -0.1598  1.4423
  369MOL0     H49785  10.936  12.340   9.733 -0.2469  0.8925 -0.4892
  369MOL0     H49786  10.794  12.294   9.631 -3.3726  0.2485  0.3999
  369MOL0     H49787  10.770  12.160   9.829 -1.4833 -1.1005  1.7671
  369MOL0     H49788  10.658  12.282   9.858  1.0425  4.1825  0.1482
  369MOL0     H49789  10.936  12.252   9.985  0.1088  0.7011  2.6504
  369MOL0     H49790  10.875  12.409   9.964 -1.3200  0.3269 -0.4709
  369MOL0     H49791  10.760  12.161  10.112  1.3834 -1.4724 -2.7201
  369MOL0     H49792  10.648  12.286  10.065  0.6566  2.3943  0.0809
  369MOL0     H49793  10.726  12.450  10.223  1.4381  1.6120 -1.0012
  369MOL0     H49794  10.748  12.295  10.305 -2.2581 -2.6232 -1.8959
  369MOL0     H49795  10.528  12.702   9.351  0.5430 -0.9035  0.1092
  369MOL0     H49796  10.266  12.717   9.301 -1.4875 -2.9577  1.5173
  369MOL0     H49797   9.838  12.886   9.535  1.9533  0.6426 -0.3597
  369MOL0     H49798   9.603  12.873   9.484 -2.5832 -0.0327 -2.1960
  369MOL0     H49799   9.803  11.757   9.659  3.3075 -1.2428 -5.0918
  369MOL0     H49800   9.778  11.514   9.727  0.2470 -0.6621  2.1641
  369MOL0     H49801   9.932  11.161   9.713  1.4364  1.3484  0.7344
  369MOL0     H49802   9.907  10.912   9.691 -3.0129  1.5333 -0.9337
  369MOL0     H49803   9.817  10.668   9.707  0.3481  1.3736  0.0131
  369MOL0     H49804   9.897  10.541   9.796 -0.7538 -0.8763 -3.1318
  369MOL0     H49805  10.042  10.735   9.623  1.6784  1.5330  0.7330
  369MOL0     H49806  10.039  10.555   9.633 -0.3904 -1.2034  2.9231
  369MOL0     H49807  10.187  10.738   9.824 -1.2622  0.8141 -0.2438
  369MOL0     H49808  10.244  10.626   9.698  1.1895 -2.3915  1.8484
  369MOL0     H49809  10.270  10.555   9.927  0.2507 -1.8980 -0.4867
  369MOL0     H49810  10.093  10.562   9.960 -1.5612 -0.1841 -1.6157
  369MOL0     H49811  10.166  10.202   9.738  1.1920  0.1728  1.4362
  369MOL0     H49812   9.888  10.841  10.084  0.8868 -2.6789 -2.5956
  369MOL0     H49813  10.006  11.113  10.224  0.4428  0.4097  1.2602
  369MOL0     H49814   9.845  11.190  10.200 -1.4798 -1.1694  0.5736
  369MOL0     H49815   9.860  11.021  10.244  0.7860 -1.6347 -1.0072
  370MOL0     O49816   9.290   6.292  11.084 -0.7110 -0.5566 -0.2677
  370MOL0     C49817   9.232   6.390  11.129  0.7213 -0.3570  0.1499
  370MOL0     O49818   9.173   6.487  11.061  0.0353  0.1729 -0.4177
  370MOL0     C49819   9.220   6.493  10.925  0.1656  0.0710  0.0878
  370MOL0     C49820   9.316   6.590  10.897  0.5619  0.0568  0.6601
  370MOL0     C49821   9.345   6.606  10.760  0.4139  0.4366 -0.0334
  370MOL0     C49822   9.290   6.529  10.660 -0.8569 -1.1342  0.3940
  370MOL0     O49823   9.324   6.574  10.534  0.5990  0.2333  0.0840
  370MOL0     C49824   9.266   6.510  10.416  0.3770  0.4816 -0.1060
  370MOL0     C49825   9.331   6.570  10.291  0.3483 -0.6583  0.0477
  370MOL0     C49826   9.311   6.711  10.257  0.4121  0.3893  0.6459
  370MOL0     C49827   9.359   6.739  10.106  0.0628 -0.2835  0.1484
  370MOL0     C49828   9.512   6.788  10.093  0.1066 -0.3429 -0.3352
  370MOL0     C49829   9.551   6.798   9.943  0.3897  0.4027  0.3868
  370MOL0     C49830   9.599   6.663   9.879  0.6210 -0.1911 -0.6488
  370MOL0     C49831   9.745   6.631   9.901 -0.5017  0.7405  0.8526
  370MOL0     N49832   9.787   6.508   9.828  0.8629  0.3413 -0.3727
  370MOL0     C49833   9.801   6.486   9.696 -0.5986 -0.3121  0.3154
  370MOL0     C49834   9.854   6.359   9.682 -0.2681  1.0749  0.8760
  370MOL0     C49835   9.889   6.290   9.554 -0.8776  0.5039 -0.1919
  370MOL0     C49836  10.014   6.196   9.567  0.2318 -0.2663  0.4865
  370MOL0     C49837  10.050   6.116   9.443 -1.0640  1.0442  0.6093
  370MOL0     C49838  10.103   6.213   9.339  0.0474 -0.5419  0.0813
  370MOL0     O49839  10.247   6.209   9.321  0.2753  0.4154  0.0778
  370MOL0     C49840  10.314   6.114   9.235  0.6471 -0.4149  0.4959
  370MOL0     C49841  10.450   6.156   9.225  0.2886  0.4143  0.9658
  370MOL0     C49842  10.542   6.090   9.140  0.6933  0.1769 -0.3325
  370MOL0     C49843  10.495   5.986   9.048 -0.4959  0.4319 -0.2807
  370MOL0     C49844  10.592   5.938   8.943  0.6953  0.4793 -1.0935
  370MOL0     O49845  10.534   5.871   8.847 -0.0300 -0.3556  0.4696
  370MOL0     C49846  10.600   5.804   8.752  0.0972  0.4745  0.4016
  370MOL0     C49847  10.567   5.832   8.621  0.3227 -0.4771 -0.1626
  370MOL0     C49848  10.619   5.754   8.519  0.6585  0.1836  0.1112
  370MOL0     C49849  10.711   5.649   8.558 -0.2450 -0.5275  0.4742
  370MOL0     O49850  10.783   5.576   8.459 -0.3984  0.8769 -0.2450
  370MOL0     C49851  10.697   5.499   8.359 -0.4538  0.2190  0.0927
  370MOL0     C49852  10.781   5.483   8.241  0.3733  0.3469 -0.5447
  370MOL0     C49853  10.835   5.613   8.178 -0.1074  0.6788  0.1876
  370MOL0     C49854  10.722   5.705   8.114 -0.7186 -0.0660  0.2789
  370MOL0     C49855  10.783   5.823   8.023  0.8317 -0.1770 -0.1142
  370MOL0     C49856  10.666   5.882   7.946  0.0505  0.6897 -0.2243
  370MOL0     C49857  10.701   6.014   7.898 -0.4659  0.8236  0.6809
  370MOL0     C49858  10.589   6.093   7.835  0.0542 -0.6018  0.1396
  370MOL0    Cl49859  10.545   6.025   7.670  0.0105 -0.3187 -0.4098
  370MOL0     C49860  10.751   5.627   8.688  0.8606  0.8356  0.3623
  370MOL0     C49861  10.696   5.705   8.784 -0.4531 -0.6585 -0.7360
  370MOL0     O49862  10.712   5.961   8.951  0.2998  0.0300 -0.4386
  370MOL0     C49863  10.351   5.957   9.048  0.2361  0.1572  0.3429
  370MOL0     C49864  10.262   6.019   9.139 -1.3471  0.1734 -0.7312
  370MOL0     N49865   9.887   6.309   9.806  0.5627  0.1939  0.0404
  370MOL0     N49866   9.838   6.395   9.890  0.1727 -0.2025  0.4206
  370MOL0     C49867   9.202   6.432  10.693 -0.0236  0.2405 -0.1929
  370MOL0     C49868   9.169   6.412  10.827 -0.4214  0.5406 -0.3865
  370MOL0     C49869   9.238   6.408  11.274  0.7233 -0.4985 -1.2113
  370MOL0     C49870   9.257   6.539  11.319 -0.4496  0.3535 -0.1316
  370MOL0     C49871   9.277   6.574  11.451  0.3152  0.2285 -0.1223
  370MOL0     C49872   9.265   6.479  11.553  0.0006  0.4479 -0.0167
  370MOL0     O49873   9.293   6.503  11.686  0.3853 -0.3056 -0.6868
  370MOL0     C49874   9.321   6.636  11.734 -0.7948  0.1048  1.0162
  370MOL0     C49875   9.453   6.703  11.698  0.3389 -0.2579  0.5101
  370MOL0     C49876   9.564   6.602  11.728 -1.4671 -0.1461 -0.6407
  370MOL0     C49877   9.706   6.670  11.765 -0.1525 -0.3896  0.2731
  370MOL0     C49878   9.790   6.566  11.829 -0.6041 -0.7389 -0.7875
  370MOL0     C49879   9.879   6.494  11.879 -0.1015  0.5188  0.0734
  370MOL0     C49880   9.228   6.353  11.506  0.2705  0.0985  0.5242
  370MOL0     C49881   9.206   6.316  11.373  0.3538 -0.6762  0.4355
  370MOL0     C49882   9.151   6.185  11.337  0.0304  0.2910 -0.6514
  370MOL0     H49883   9.359   6.656  10.970 -2.8879  2.3336  0.8330
  370MOL0     H49884   9.404   6.689  10.721  0.4453 -0.8874 -3.0917
  370MOL0     H49885   9.285   6.403  10.420 -0.9406  0.2610  1.2758
  370MOL0     H49886   9.158   6.528  10.424  0.5698  0.9408  4.7648
  370MOL0     H49887   9.303   6.508  10.206 -0.1452 -2.6717  1.5739
  370MOL0     H49888   9.438   6.551  10.305  0.5603 -0.1159 -0.8086
  370MOL0     H49889   9.369   6.773  10.326  3.7487  1.0328 -2.4383
  370MOL0     H49890   9.205   6.737  10.252  1.1425  3.4946 -1.7200
  370MOL0     H49891   9.357   6.651  10.042 -0.0303  0.0828 -0.3580
  370MOL0     H49892   9.294   6.823  10.078 -2.3411 -1.1667  2.6004
  370MOL0     H49893   9.505   6.886  10.140  0.5517  0.3006 -1.5701
  370MOL0     H49894   9.569   6.721  10.159 -2.2854 -1.0549  1.1043
  370MOL0     H49895   9.461   6.825   9.887 -2.4476 -2.5162  3.0838
  370MOL0     H49896   9.626   6.872   9.916  0.0757  0.5138 -0.1899
  370MOL0     H49897   9.590   6.668   9.770 -1.9302 -2.4992 -0.6502
  370MOL0     H49898   9.536   6.581   9.916  0.1473  0.3813 -0.1727
  370MOL0     H49899   9.814   6.713   9.877  0.2190 -0.2055 -0.4627
  370MOL0     H49900   9.764   6.606  10.006 -0.0498 -1.6280  0.2688
  370MOL0     H49901   9.776   6.556   9.617 -1.1248 -0.6689  0.1644
  370MOL0     H49902   9.803   6.229   9.525 -1.9435  1.6923  0.3608
  370MOL0     H49903   9.907   6.374   9.486  0.1007  1.3434  1.0496
  370MOL0     H49904  10.099   6.259   9.598 -0.2797  0.3864  0.5858
  370MOL0     H49905   9.999   6.131   9.653  2.2235  1.8029  2.5489
  370MOL0     H49906   9.968   6.058   9.401 -0.6738 -0.6542  2.0964
  370MOL0     H49907  10.133   6.053   9.474  0.5603  1.6683 -2.1136
  370MOL0     H49908  10.070   6.309   9.381 -1.6036 -2.1186  2.7100
  370MOL0     H49909  10.054   6.184   9.245 -0.0275 -2.3896  0.6570
  370MOL0     H49910  10.476   6.238   9.292 -0.7104  0.7952  0.9034
  370MOL0     H49911  10.639   6.137   9.138  1.0861 -0.6452 -1.8058
  370MOL0     H49912  10.506   5.921   8.610  0.7037 -0.1696  0.1906
  370MOL0     H49913  10.587   5.777   8.418 -1.6678 -0.5261  0.6268
  370MOL0     H49914  10.665   5.409   8.413  0.6445 -0.0411  0.3416
  370MOL0     H49915  10.609   5.562   8.345  0.0059  1.7256  2.9592
  370MOL0     H49916  10.863   5.423   8.279 -0.4659 -2.1229 -2.3642
  370MOL0     H49917  10.736   5.429   8.157 -0.3817 -0.4337  0.3428
  370MOL0     H49918  10.898   5.658   8.255  2.0287 -2.1457  0.2792
  370MOL0     H49919  10.901   5.579   8.096 -1.3663 -0.8583 -0.2444
  370MOL0     H49920  10.666   5.746   8.198 -0.2448 -1.5816  1.3720
  370MOL0     H49921  10.652   5.651   8.050 -1.5021  0.3425  0.7709
  370MOL0     H49922  10.863   5.800   7.952 -0.7859  1.9144 -2.7992
  370MOL0     H49923  10.818   5.897   8.096 -1.0207  1.4311 -0.7561
  370MOL0     H49924  10.645   5.820   7.859  1.1808 -0.4379  0.2783
  370MOL0     H49925  10.576   5.894   8.007  0.2490 -0.8369  0.4070
  370MOL0     H49926  10.780   5.998   7.824  0.0238 -4.8319  1.9421
  370MOL0     H49927  10.737   6.080   7.977  0.2265  1.6850 -0.3131
  370MOL0     H49928  10.494   6.107   7.888  1.0051 -0.3091  1.8245
  370MOL0     H49929  10.633   6.191   7.813 -1.4958 -0.1457 -1.1070
  370MOL0     H49930  10.824   5.552   8.717  1.1206  1.3480  1.0447
  370MOL0     H49931  10.702   5.701   8.893  2.5811 -2.1700 -0.8293
  370MOL0     H49932  10.305   5.903   8.966 -1.1582  1.7353  0.0474
  370MOL0     H49933  10.158   5.991   9.137 -1.3135  0.0258 -0.3688
  370MOL0     H49934   9.159   6.367  10.618  0.2852  0.8864 -0.9550
  370MOL0     H49935   9.096   6.336  10.856  1.6532 -0.5948  2.2791
  370MOL0     H49936   9.262   6.613  11.240 -0.0437 -0.0565 -0.5023
  370MOL0     H49937   9.300   6.678  11.473  1.3003 -0.0485  0.2155
  370MOL0     H49938   9.310   6.613  11.841 -1.5934 -5.0645  0.0748
  370MOL0     H49939   9.235   6.697  11.705 -0.3530 -0.0690 -0.7504
  370MOL0     H49940   9.467   6.792  11.760  3.9503 -0.9571  0.9226
  370MOL0     H49941   9.470   6.729  11.593 -1.8440 -1.9392 -0.3497
  370MOL0     H49942   9.582   6.532  11.647  1.0775  1.2401 -1.4047
  370MOL0     H49943   9.535   6.545  11.817 -1.8296  0.4407 -0.3717
  370MOL0     H49944   9.755   6.698  11.672  2.1943 -1.6036  1.0783
  370MOL0     H49945   9.694   6.753  11.835 -1.4730  0.4391 -0.8752
  370MOL0     H49946   9.954   6.428  11.915  0.4219  1.2889  0.4321
  370MOL0     H49947   9.234   6.276  11.582 -2.1545 -0.5834  0.1200
  370MOL0     H49948   9.136   6.127  11.428  1.1306  0.4193 -0.3729
  370MOL0     H49949   9.064   6.210  11.276  0.9696  2.2714 -1.2914
  370MOL0     H49950   9.223   6.136  11.271  1.9394  1.8835  0.1388
  371MOL0     O49951   9.699   1.623   6.525 -0.7388 -0.5398  0.2748
  371MOL0     C49952   9.644   1.611   6.634  0.8197  0.3536 -1.4000
  371MOL0     O49953   9.573   1.494   6.671  0.5106 -0.5582 -0.4459
  371MOL0     C49954   9.603   1.377   6.602  0.0761 -1.9461 -0.2784
  371MOL0     C49955   9.736   1.330   6.598 -0.4963 -0.2936  0.7448
  371MOL0     C49956   9.750   1.195   6.560 -0.7090 -0.3162  0.1980
  371MOL0     C49957   9.645   1.117   6.523  0.2980  0.5989  0.6859
  371MOL0     O49958   9.659   0.989   6.475  0.0452 -0.6103 -0.6674
  371MOL0     C49959   9.594   0.876   6.532  1.0534  0.2992 -0.0384
  371MOL0     C49960   9.681   0.774   6.598  0.8484  0.4764  0.0559
  371MOL0     C49961   9.754   0.830   6.721  0.2521 -0.7801  0.4208
  371MOL0     C49962   9.842   0.732   6.807 -0.3373  0.2425  0.5962
  371MOL0     C49963   9.777   0.668   6.925  0.8788 -1.1802 -0.5248
  371MOL0     C49964   9.743   0.751   7.047  0.2907  0.6735 -0.2132
  371MOL0     C49965   9.724   0.681   7.176  0.1028  0.4457 -0.9392
  371MOL0     C49966   9.687   0.788   7.279 -0.8205  0.7728 -1.1598
  371MOL0     N49967   9.660   0.727   7.411  0.1412  0.4363  0.7320
  371MOL0     C49968   9.753   0.728   7.509  0.7609  0.0922 -0.6604
  371MOL0     C49969   9.686   0.672   7.613  0.3439 -0.1361  0.4738
  371MOL0     C49970   9.719   0.632   7.751 -0.8230  0.2198  0.8583
  371MOL0     C49971   9.694   0.752   7.848  0.3567  0.0355  0.3125
  371MOL0     C49972   9.544   0.783   7.860 -0.6170  0.0142  0.1146
  371MOL0     C49973   9.456   0.683   7.935  0.0843  0.6873 -0.0403
  371MOL0     O49974   9.327   0.736   7.956 -0.0156  0.1060 -0.5496
  371MOL0     C49975   9.213   0.658   7.937 -0.7504 -0.3726 -0.5502
  371MOL0     C49976   9.200   0.520   7.961 -1.0242 -1.1582  0.6543
  371MOL0     C49977   9.102   0.454   7.904  0.0240 -0.1532  0.7983
  371MOL0     C49978   8.989   0.522   7.865  0.3805 -0.1959  0.1804
  371MOL0     C49979   8.881   0.447   7.809  0.4139 -0.5678  0.5609
  371MOL0     O49980   8.895   0.323   7.757 -0.0957 -0.5987  0.0549
  371MOL0     C49981   8.797   0.239   7.703 -0.5752  0.3238  0.1444
  371MOL0     C49982   8.836   0.161   7.592 -0.8155  0.5233 -0.3115
  371MOL0     C49983   8.745   0.073   7.534  0.2860 -0.1683  1.1814
  371MOL0     C49984   8.616   0.062   7.581  0.0147  0.8953  0.0880
  371MOL0     O49985   8.520  -0.017   7.518  1.7444 -0.0256  0.5015
  371MOL0     C49986   8.556  -0.118   7.431  0.0842 -0.6312 -0.4114
  371MOL0     C49987   8.448  -0.171   7.331 -0.7628 -1.4294 -1.0371
  371MOL0     C49988   8.304  -0.130   7.374  0.8970 -0.3366 -0.0484
  371MOL0     C49989   8.250   0.010   7.336 -1.0827  0.3475 -0.4893
  371MOL0     C49990   8.111   0.043   7.391 -1.4482  0.7033  0.0410
  371MOL0     C49991   8.003  -0.032   7.322 -0.2392 -0.3178  0.2979
  371MOL0     C49992   7.994  -0.004   7.161  1.0760  0.0032 -0.6744
  371MOL0     C49993   7.867  -0.057   7.085 -0.5626  0.0542 -1.7749
  371MOL0    Cl49994   7.862  -0.231   7.133  0.3728 -0.0474 -0.0616
  371MOL0     C49995   8.577   0.141   7.690  0.2547 -0.0972  0.1686
  371MOL0     C49996   8.668   0.234   7.754 -0.0016 -0.3714 -0.5203
  371MOL0     O49997   8.771   0.516   7.803 -1.0113  0.4333  0.7622
  371MOL0     C49998   8.991   0.664   7.860  0.1212 -0.5734 -0.9521
  371MOL0     C49999   9.106   0.731   7.895 -0.0186  0.8751 -0.4383
  371MOL0     N50000   9.552   0.641   7.569 -0.2387  0.0358  0.2797
  371MOL0     N50001   9.538   0.673   7.444 -0.1370 -1.0892 -0.1738
  371MOL0     C50002   9.517   1.166   6.524  0.3525 -0.1652  0.4461
  371MOL0     C50003   9.500   1.296   6.570 -0.4302  0.4471 -0.7191
  371MOL0     C50004   9.656   1.718   6.740  0.4416  0.9857 -0.3383
  371MOL0     C50005   9.600   1.689   6.870 -0.4192  0.4689  0.5070
  371MOL0     C50006   9.616   1.782   6.974  0.5365  0.1641 -0.3431
  371MOL0     C50007   9.681   1.907   6.949 -0.4738 -0.5248  0.0705
  371MOL0     O50008   9.692   1.998   7.050 -0.0032 -0.5036 -0.3061
  371MOL0     C50009   9.827   2.043   7.068 -0.4507 -0.2159 -0.1217
  371MOL0     C50010   9.824   2.073   7.220 -0.4090  0.9237  0.9531
  371MOL0     C50011   9.942   2.147   7.258 -0.3993 -0.4914 -0.9513
  371MOL0     C50012   9.957   2.189   7.404  0.1045  0.8809 -0.9840
  371MOL0     C50013   9.873   2.299   7.458  0.4787 -0.2876  0.3811
  371MOL0     C50014   9.788   2.379   7.501 -1.0119  0.1359 -0.1019
  371MOL0     C50015   9.722   1.942   6.820  0.3473 -0.9508  0.4729
  371MOL0     C50016   9.718   1.848   6.722  0.0757  0.2867  1.2993
  371MOL0     C50017   9.795   1.891   6.595  0.2566  0.0651  0.3721
  371MOL0     H50018   9.825   1.391   6.618  2.2431 -4.3532  2.1910
  371MOL0     H50019   9.849   1.152   6.573 -0.3888  0.4736  0.4110
  371MOL0     H50020   9.516   0.915   6.598  0.4359  1.0847 -1.1877
  371MOL0     H50021   9.548   0.833   6.443  0.8782  0.3509  0.0263
  371MOL0     H50022   9.759   0.741   6.529  1.6061  2.7872 -0.2716
  371MOL0     H50023   9.613   0.689   6.610 -0.4734  1.1507 -2.0577
  371MOL0     H50024   9.676   0.883   6.776 -2.6313 -1.4357 -2.7223
  371MOL0     H50025   9.813   0.903   6.665 -0.0195 -0.2978  0.7602
  371MOL0     H50026   9.880   0.655   6.739  2.2785  0.3283  1.8498
  371MOL0     H50027   9.925   0.795   6.840 -1.2483  1.7327  0.1879
  371MOL0     H50028   9.679   0.640   6.884 -0.9775  0.6627  2.2699
  371MOL0     H50029   9.840   0.586   6.959 -0.0538 -3.2883 -3.4838
  371MOL0     H50030   9.814   0.833   7.040  0.1125  0.9169  0.6711
  371MOL0     H50031   9.644   0.795   7.032  0.2772  0.0566 -2.2498
  371MOL0     H50032   9.819   0.638   7.212 -1.4016 -2.6370 -0.3048
  371MOL0     H50033   9.665   0.588   7.176  2.8001 -1.4595  1.3812
  371MOL0     H50034   9.754   0.874   7.279  1.7394 -1.1035 -2.1068
  371MOL0     H50035   9.588   0.827   7.252 -0.6666 -0.7695 -4.4238
  371MOL0     H50036   9.859   0.751   7.508  0.6504  0.7825  1.0423
  371MOL0     H50037   9.660   0.542   7.771  1.4333 -2.0868 -2.0474
  371MOL0     H50038   9.819   0.589   7.751  0.0408  2.0400 -1.1902
  371MOL0     H50039   9.739   0.739   7.946 -0.3185 -1.2778  0.4721
  371MOL0     H50040   9.736   0.838   7.795  1.9699 -1.2264 -0.5505
  371MOL0     H50041   9.507   0.801   7.759 -2.8317 -3.3294  0.1620
  371MOL0     H50042   9.536   0.881   7.909  1.1007  1.9485 -3.1692
  371MOL0     H50043   9.507   0.654   8.028 -0.1405  1.7011  0.4183
  371MOL0     H50044   9.455   0.602   7.861 -2.6405  0.3440  0.2714
  371MOL0     H50045   9.289   0.467   7.996  1.2649 -0.9959 -4.1318
  371MOL0     H50046   9.100   0.346   7.901 -0.8524 -0.1450 -1.7059
  371MOL0     H50047   8.929   0.171   7.538 -1.5470  0.7542 -1.5855
  371MOL0     H50048   8.780   0.021   7.446 -0.3553 -0.0751  0.8690
  371MOL0     H50049   8.632  -0.084   7.360  0.4740 -4.0444 -1.8463
  371MOL0     H50050   8.604  -0.201   7.485  1.7101  0.5584  0.0290
  371MOL0     H50051   8.460  -0.130   7.231  2.1468  1.8410  0.4256
  371MOL0     H50052   8.446  -0.280   7.340  0.7281 -1.3849  0.5577
  371MOL0     H50053   8.226  -0.198   7.338  0.3165  0.9247 -1.2800
  371MOL0     H50054   8.311  -0.146   7.482  0.7796 -2.2370 -0.2919
  371MOL0     H50055   8.248   0.027   7.228  1.1123 -2.7788 -1.1409
  371MOL0     H50056   8.314   0.087   7.380  0.8148 -0.3154 -1.9327
  371MOL0     H50057   8.101   0.151   7.382  3.3173  1.3104 -0.5859
  371MOL0     H50058   8.119   0.012   7.496 -0.7148 -1.0784 -0.5085
  371MOL0     H50059   8.020  -0.136   7.352 -0.2484 -0.0331  1.3042
  371MOL0     H50060   7.904  -0.008   7.363 -0.5944 -1.9561  0.5126
  371MOL0     H50061   8.079  -0.041   7.102  1.5670  3.1114 -2.1693
  371MOL0     H50062   7.986   0.105   7.160 -0.7822 -0.0126  1.8121
  371MOL0     H50063   7.777  -0.009   7.124 -0.7789 -0.4159 -1.6918
  371MOL0     H50064   7.870  -0.031   6.979  0.8211  0.2936 -1.7016
  371MOL0     H50065   8.470   0.158   7.702  0.1943  0.0877 -0.5843
  371MOL0     H50066   8.624   0.283   7.841 -0.2551 -3.3921  1.1892
  371MOL0     H50067   8.906   0.727   7.837  1.0412  1.2354  0.3348
  371MOL0     H50068   9.097   0.839   7.893 -0.1406  0.8706 -0.1688
  371MOL0     H50069   9.429   1.110   6.493  1.5243 -2.1547  0.5326
  371MOL0     H50070   9.406   1.351   6.572  0.1272  1.6952 -3.5192
  371MOL0     H50071   9.552   1.593   6.881  0.9715 -0.1061  1.8497
  371MOL0     H50072   9.569   1.760   7.069  0.4898  1.0146 -0.1681
  371MOL0     H50073   9.847   2.136   7.014 -0.6741  3.5842  5.4351
  371MOL0     H50074   9.901   1.964   7.053  0.7157  0.8000  0.1377
  371MOL0     H50075   9.821   1.985   7.286 -0.2019 -1.5624 -2.1476
  371MOL0     H50076   9.735   2.133   7.240 -0.0456  1.8445 -0.1325
  371MOL0     H50077   9.942   2.237   7.195  0.8777  0.4229  0.3036
  371MOL0     H50078  10.037   2.097   7.234 -1.0872 -2.5572  0.4571
  371MOL0     H50079   9.937   2.101   7.466  0.5042  0.5630 -1.3013
  371MOL0     H50080  10.064   2.211   7.418 -0.3076  1.4080  2.3017
  371MOL0     H50081   9.718   2.444   7.550  2.5919  2.4097  2.5259
  371MOL0     H50082   9.757   2.041   6.794 -1.3007 -0.6239 -0.6253
  371MOL0     H50083   9.760   1.848   6.501 -0.7089 -0.2072  0.8411
  371MOL0     H50084   9.795   1.998   6.573  1.1205 -0.4619 -2.5518
  371MOL0     H50085   9.898   1.856   6.598 -0.3570 -1.8752  2.5625
  372MOL0     O50086   3.625   1.337   6.636  0.3078  0.2036 -0.2875
  372MOL0     C50087   3.549   1.410   6.700  0.6874  0.1713  0.3668
  372MOL0     O50088   3.537   1.546   6.686  0.1177  0.7997 -0.3889
  372MOL0     C50089   3.624   1.611   6.620  0.1391 -0.0572  0.8013
  372MOL0     C50090   3.649   1.594   6.484 -0.8902  0.0093 -0.2209
  372MOL0     C50091   3.736   1.684   6.415  0.4677  0.1249  0.0144
  372MOL0     C50092   3.810   1.782   6.474  0.7458 -0.1403  0.6541
  372MOL0     O50093   3.909   1.847   6.406  0.0039  0.6778 -0.4366
  372MOL0     C50094   3.860   1.973   6.372  0.4914  0.1359  0.7302
  372MOL0     C50095   3.980   2.060   6.360 -0.5348 -0.3222 -0.2144
  372MOL0     C50096   3.957   2.196   6.306  0.1008  0.8016  0.7662
  372MOL0     C50097   4.084   2.267   6.265  0.4598 -0.6648  0.7506
  372MOL0     C50098   4.197   2.204   6.187 -0.0134 -0.6484 -0.5967
  372MOL0     C50099   4.144   2.156   6.052 -0.4785 -0.2179  0.2494
  372MOL0     C50100   4.265   2.105   5.969  0.9803 -0.5179 -0.5458
  372MOL0     C50101   4.229   2.011   5.857  0.4272 -0.2729 -0.3862
  372MOL0     N50102   4.158   2.070   5.742  0.3255  0.4231 -0.4681
  372MOL0     C50103   4.024   2.108   5.743 -0.3516  0.8590 -0.0884
  372MOL0     C50104   4.019   2.165   5.617 -0.2150 -0.3322 -0.4902
  372MOL0     C50105   3.898   2.225   5.553  0.2495  0.5444  0.3816
  372MOL0     C50106   3.892   2.368   5.570  0.6077  0.3631  0.6236
  372MOL0     C50107   3.813   2.407   5.691  0.0199  0.4347 -0.0795
  372MOL0     C50108   3.804   2.561   5.706  0.7903  0.2423 -0.0343
  372MOL0     O50109   3.729   2.616   5.594 -0.0769  0.3025  0.7313
  372MOL0     C50110   3.780   2.738   5.536  0.3635  0.7041 -0.2956
  372MOL0     C50111   3.697   2.793   5.446  0.1285  0.0950 -0.4383
  372MOL0     C50112   3.735   2.897   5.366 -0.2168 -0.4757 -0.0729
  372MOL0     C50113   3.865   2.950   5.373 -0.5712  0.4256 -0.5502
  372MOL0     C50114   3.909   3.070   5.299 -0.2132  0.0807 -0.4085
  372MOL0     O50115   4.046   3.092   5.305 -0.6052 -0.0011 -0.7919
  372MOL0     C50116   4.093   3.206   5.245  0.3989 -0.3855  1.0431
  372MOL0     C50117   4.194   3.191   5.145 -0.4696 -0.1172 -0.2323
  372MOL0     C50118   4.240   3.306   5.079  0.2222 -0.2158 -0.6191
  372MOL0     C50119   4.204   3.435   5.119 -0.1595  1.1799  0.5819
  372MOL0     O50120   4.265   3.536   5.050 -0.0040  0.3748 -0.5009
  372MOL0     C50121   4.272   3.658   5.118 -0.0211 -0.3308 -0.3158
  372MOL0     C50122   4.351   3.748   5.021  0.6243 -0.1253 -0.9363
  372MOL0     C50123   4.303   3.745   4.873  1.0281  0.0383 -0.6408
  372MOL0     C50124   4.268   3.894   4.833 -0.2056 -0.2596  0.4503
  372MOL0     C50125   4.177   3.919   4.707 -1.1240 -0.4228 -0.2517
  372MOL0     C50126   4.223   3.838   4.582 -0.7120 -0.5349 -0.4787
  372MOL0     C50127   4.117   3.852   4.467 -0.6557  0.2393 -0.6301
  372MOL0     C50128   4.157   3.814   4.327  1.4205  0.3404 -0.5756
  372MOL0    Cl50129   4.310   3.874   4.273  0.2132  0.2856  0.0503
  372MOL0     C50130   4.116   3.441   5.221  0.2072  0.2696 -1.0078
  372MOL0     C50131   4.059   3.332   5.285  0.1613 -1.0388 -0.6486
  372MOL0     O50132   3.841   3.135   5.225  0.5911  0.2031 -0.1329
  372MOL0     C50133   3.958   2.887   5.469  0.5461 -0.9415  0.4317
  372MOL0     C50134   3.908   2.778   5.540 -1.0435 -0.5047 -0.4377
  372MOL0     N50135   4.142   2.182   5.556 -0.2661  0.5322 -0.5190
  372MOL0     N50136   4.223   2.107   5.626 -0.4410  0.1999  0.0071
  372MOL0     C50137   3.791   1.793   6.618 -0.2008  0.1016 -0.2071
  372MOL0     C50138   3.684   1.717   6.685  0.2201  0.3549  0.6670
  372MOL0     C50139   3.443   1.336   6.765  1.1777 -0.2328 -0.2823
  372MOL0     C50140   3.475   1.277   6.888 -0.4957 -0.4801  0.0048
  372MOL0     C50141   3.385   1.207   6.964  0.3851 -0.6459 -0.1847
  372MOL0     C50142   3.250   1.195   6.924  0.0975 -0.4738  0.0101
  372MOL0     O50143   3.146   1.144   6.996 -0.8247  0.2636 -0.1941
  372MOL0     C50144   3.163   1.066   7.119 -0.3014  0.2681  0.2426
  372MOL0     C50145   3.078   0.939   7.100  1.2118  0.7043  0.3121
  372MOL0     C50146   3.136   0.854   6.976 -0.0864  0.7108  0.2176
  372MOL0     C50147   3.078   0.709   6.975 -0.2269  0.9294 -0.7997
  372MOL0     C50148   3.059   0.632   7.101  0.5393  0.5030  0.3058
  372MOL0     C50149   3.051   0.571   7.206  0.4856  0.0740  0.3852
  372MOL0     C50150   3.210   1.272   6.809 -0.6795 -0.8084 -0.1280
  372MOL0     C50151   3.304   1.339   6.731 -0.5890 -0.3227  1.2301
  372MOL0     C50152   3.258   1.398   6.594  0.8522  1.7742 -0.8119
  372MOL0     H50153   3.610   1.511   6.424  1.8334 -0.5438 -1.4016
  372MOL0     H50154   3.743   1.673   6.307 -1.5479 -2.5284  0.0348
  372MOL0     H50155   3.824   1.970   6.268 -0.2012  1.0729  0.9280
  372MOL0     H50156   3.792   2.019   6.445  1.9232  1.4113  1.3113
  372MOL0     H50157   4.055   1.999   6.308 -2.4012 -2.2335 -0.7746
  372MOL0     H50158   4.006   2.073   6.465  1.0371  0.3349 -0.6474
  372MOL0     H50159   3.897   2.255   6.376 -1.8723  0.0880 -0.2489
  372MOL0     H50160   3.900   2.179   6.215 -0.3379 -1.0889  1.3423
  372MOL0     H50161   4.068   2.366   6.221  2.1180 -1.6749 -2.4766
  372MOL0     H50162   4.131   2.305   6.356 -2.7739  0.4088  2.1004
  372MOL0     H50163   4.264   2.283   6.153  0.3359 -1.9643 -3.1850
  372MOL0     H50164   4.243   2.116   6.233 -1.7387 -1.5175 -0.4401
  372MOL0     H50165   4.078   2.074   6.083 -0.3492  0.9439  4.1787
  372MOL0     H50166   4.071   2.224   6.007 -0.1185 -0.4141 -0.6631
  372MOL0     H50167   4.321   2.043   6.039 -0.7714  1.2778  2.6762
  372MOL0     H50168   4.335   2.182   5.935  0.2358 -0.1677 -1.3316
  372MOL0     H50169   4.324   1.980   5.813  1.0345 -0.2113  0.8502
  372MOL0     H50170   4.172   1.925   5.893  0.3717 -0.0228  0.1234
  372MOL0     H50171   3.945   2.107   5.817  0.0020 -0.2435  0.2871
  372MOL0     H50172   3.908   2.206   5.445 -3.0794  0.4510 -0.0177
  372MOL0     H50173   3.807   2.176   5.589  0.7066 -0.0772  0.7136
  372MOL0     H50174   3.993   2.407   5.551  1.0754 -0.3119  1.6132
  372MOL0     H50175   3.830   2.412   5.491 -0.9997 -1.8022  0.5824
  372MOL0     H50176   3.851   2.368   5.786 -3.3343 -1.0909  0.7749
  372MOL0     H50177   3.715   2.359   5.688  0.9262 -1.4520 -0.4000
  372MOL0     H50178   3.909   2.590   5.712  0.0752  2.7817  2.2855
  372MOL0     H50179   3.758   2.586   5.802  0.1449 -1.0226  0.0201
  372MOL0     H50180   3.594   2.759   5.439 -0.9267  2.0078  3.2095
  372MOL0     H50181   3.669   2.955   5.303  1.6253  1.6359 -0.1782
  372MOL0     H50182   4.227   3.093   5.111  1.0359 -0.3872  1.8118
  372MOL0     H50183   4.306   3.290   4.995  0.8628  0.2525 -0.2142
  372MOL0     H50184   4.169   3.692   5.130 -0.3022 -1.2340 -0.0895
  372MOL0     H50185   4.305   3.651   5.222 -2.0379 -3.5852  0.2531
  372MOL0     H50186   4.367   3.846   5.067  3.0240  0.1111 -2.1144
  372MOL0     H50187   4.454   3.713   5.014  0.6515  0.2891 -3.4838
  372MOL0     H50188   4.372   3.700   4.800 -0.4250  1.0627 -2.7358
  372MOL0     H50189   4.212   3.686   4.859  0.3553  1.2095 -1.2826
  372MOL0     H50190   4.357   3.949   4.799 -1.6791  1.5972 -0.5924
  372MOL0     H50191   4.220   3.940   4.920 -0.0079  2.6576 -0.8756
  372MOL0     H50192   4.179   4.024   4.678 -0.5384 -0.4948 -0.4791
  372MOL0     H50193   4.070   3.908   4.726 -1.5601  0.8170 -1.7826
  372MOL0     H50194   4.322   3.878   4.556 -0.8050 -1.4153 -2.3565
  372MOL0     H50195   4.226   3.730   4.599  1.8011 -0.4423  0.1057
  372MOL0     H50196   4.092   3.959   4.458  1.9585  0.8596 -1.2154
  372MOL0     H50197   4.019   3.806   4.484 -0.8312  0.3129 -1.4237
  372MOL0     H50198   4.159   3.705   4.314  0.3735 -0.5129  4.2663
  372MOL0     H50199   4.076   3.847   4.261  0.4780 -1.3298 -0.3180
  372MOL0     H50200   4.081   3.539   5.252  1.6520  0.1317  1.2639
  372MOL0     H50201   3.991   3.345   5.368  1.9834 -2.9153  1.2710
  372MOL0     H50202   4.059   2.916   5.495 -0.0210 -0.5916  2.4597
  372MOL0     H50203   3.981   2.722   5.597  1.2292  2.2507 -0.4048
  372MOL0     H50204   3.847   1.857   6.686  0.1095 -1.7235  1.3264
  372MOL0     H50205   3.649   1.748   6.783 -0.3310  2.5722 -0.1908
  372MOL0     H50206   3.577   1.288   6.923 -0.5321 -1.0559  0.2968
  372MOL0     H50207   3.421   1.157   7.053 -1.3228  0.2157  1.0532
  372MOL0     H50208   3.119   1.127   7.198  1.0014  3.2023 -1.1565
  372MOL0     H50209   3.264   1.038   7.150  0.5821  3.6056  0.6926
  372MOL0     H50210   2.972   0.963   7.087  0.9561 -1.4136 -2.2253
  372MOL0     H50211   3.079   0.879   7.191  1.2029  1.7305  1.0026
  372MOL0     H50212   3.244   0.843   6.984 -0.3278 -1.3734  1.2105
  372MOL0     H50213   3.114   0.902   6.880  0.3003 -0.7169 -0.6077
  372MOL0     H50214   2.985   0.712   6.917  1.1784  1.9640 -3.1819
  372MOL0     H50215   3.145   0.648   6.913 -0.7373  0.8135 -1.2473
  372MOL0     H50216   3.056   0.498   7.285  0.4236  1.3982  1.6592
  372MOL0     H50217   3.108   1.269   6.770 -0.4901  3.3460 -1.3750
  372MOL0     H50218   3.345   1.435   6.540  2.8347  0.5011  1.2857
  372MOL0     H50219   3.224   1.304   6.550 -1.4435  2.3356 -0.3935
  372MOL0     H50220   3.175   1.468   6.608 -0.3584  0.1105  0.8446
  373MOL0     O50221   6.393   3.538   9.593 -0.1159  0.4900  0.7057
  373MOL0     C50222   6.333   3.483   9.503  0.5201 -1.3688  0.6508
  373MOL0     O50223   6.197   3.495   9.488 -0.9270 -0.3936 -0.3914
  373MOL0     C50224   6.130   3.522   9.607  0.5403 -0.2076  1.0420
  373MOL0     C50225   6.150   3.645   9.685 -0.1580  0.4998 -1.1904
  373MOL0     C50226   6.095   3.663   9.809  0.0956  0.8590  1.0263
  373MOL0     C50227   5.991   3.577   9.844  0.1579 -0.5014  0.2161
  373MOL0     O50228   5.936   3.587   9.972 -0.4970 -0.7666 -0.4161
  373MOL0     C50229   5.852   3.701   9.996  0.1030 -0.5389 -0.8155
  373MOL0     C50230   5.743   3.661  10.101  0.1887  0.1345  0.2087
  373MOL0     C50231   5.642   3.777  10.112 -1.2859 -0.2412  0.1701
  373MOL0     C50232   5.539   3.745  10.228 -0.3256 -0.6436 -0.2010
  373MOL0     C50233   5.553   3.859  10.330 -0.1488 -0.3284 -0.3934
  373MOL0     C50234   5.443   3.868  10.441  1.3437  0.0720 -0.1763
  373MOL0     C50235   5.305   3.921  10.391 -0.4810  1.1198 -0.2886
  373MOL0     C50236   5.181   3.853  10.437 -0.2798 -0.5620 -0.3843
  373MOL0     N50237   5.073   3.930  10.384  0.3828  0.1910  0.8761
  373MOL0     C50238   5.004   3.909  10.262  0.1624 -0.1538 -0.0104
  373MOL0     C50239   4.902   3.999  10.249 -0.4493 -0.1695 -0.1737
  373MOL0     C50240   4.816   4.028  10.128  0.1963 -0.3754  1.2849
  373MOL0     C50241   4.667   4.053  10.168 -0.2673  0.8013 -0.4653
  373MOL0     C50242   4.586   3.926  10.191 -0.2713  0.2490  0.2116
  373MOL0     C50243   4.454   3.971  10.255 -0.3106 -0.1017  0.0976
  373MOL0     O50244   4.377   3.856  10.307 -0.5855  0.5542 -0.0666
  373MOL0     C50245   4.241   3.868  10.306  0.6352 -0.3650  0.4560
  373MOL0     C50246   4.162   3.777  10.235  0.7113  0.1484 -0.5002
  373MOL0     C50247   4.015   3.788  10.241  1.1656  0.2343 -1.2420
  373MOL0     C50248   3.948   3.892  10.311  0.7188  0.1355  0.2961
  373MOL0     C50249   3.803   3.920  10.322 -0.0152 -0.0275 -0.0284
  373MOL0     O50250   3.719   3.831  10.267 -0.7093 -0.4155 -0.2449
  373MOL0     C50251   3.583   3.851  10.262 -0.2359  0.2742  0.6022
  373MOL0     C50252   3.503   3.771  10.329 -0.7528 -0.0008  0.5896
  373MOL0     C50253   3.366   3.793  10.332  0.5010 -0.5420  0.4317
  373MOL0     C50254   3.302   3.913  10.272 -0.2359  0.5070  0.6987
  373MOL0     O50255   3.168   3.945  10.271 -0.3869 -0.3476 -0.0328
  373MOL0     C50256   3.073   3.838  10.298  0.2675  0.6488 -0.6359
  373MOL0     C50257   2.927   3.895  10.297  0.2162 -0.0834 -0.3652
  373MOL0     C50258   2.904   3.955  10.169  0.1945 -0.1105  1.2597
  373MOL0     C50259   2.754   3.988  10.160  0.0176  0.0903  0.4901
  373MOL0     C50260   2.706   4.116  10.232 -0.9276 -0.6060 -0.4549
  373MOL0     C50261   2.570   4.172  10.184 -0.7694 -0.4042 -0.2648
  373MOL0     C50262   2.461   4.067  10.204 -0.2830 -1.1914  0.6990
  373MOL0     C50263   2.321   4.133  10.174  0.6772 -0.3060  0.5923
  373MOL0    Cl50264   2.249   4.240  10.301 -0.0651  0.2424 -0.3985
  373MOL0     C50265   3.398   3.999  10.205  0.1785 -0.3935 -0.0437
  373MOL0     C50266   3.531   3.962  10.197 -0.3162 -0.8048  0.2376
  373MOL0     O50267   3.770   4.020  10.385  0.1115 -0.0257  0.1870
  373MOL0     C50268   4.041   3.982  10.377  0.8351  0.2519  0.0899
  373MOL0     C50269   4.183   3.982  10.370  0.5864  0.2417  0.7046
  373MOL0     N50270   4.911   4.072  10.371 -0.2513 -0.4726  0.6537
  373MOL0     N50271   5.008   4.031  10.443 -0.3733  0.7677 -0.8793
  373MOL0     C50272   5.957   3.454   9.773 -1.1823 -0.4720 -0.6869
  373MOL0     C50273   6.040   3.432   9.661  0.2907 -0.1983 -0.1650
  373MOL0     C50274   6.383   3.437   9.374 -0.4383  0.5188  0.0107
  373MOL0     C50275   6.295   3.384   9.272 -0.5416 -0.7401  0.3599
  373MOL0     C50276   6.338   3.366   9.141  0.5031  1.1895  0.8050
  373MOL0     C50277   6.470   3.383   9.104  0.0923  0.5273 -0.6688
  373MOL0     O50278   6.503   3.343   8.975 -0.4390 -0.1936 -1.1219
  373MOL0     C50279   6.579   3.431   8.889 -0.4888 -0.3274 -0.0837
  373MOL0     C50280   6.500   3.569   8.868  0.5767  0.6719 -0.3083
  373MOL0     C50281   6.586   3.695   8.848  0.8582 -0.4172  0.2720
  373MOL0     C50282   6.621   3.736   8.996  0.9871  0.4394  0.3814
  373MOL0     C50283   6.665   3.872   8.999  0.0785 -0.5036  0.7541
  373MOL0     C50284   6.699   3.988   9.003 -0.6293  0.4408 -0.3860
  373MOL0     C50285   6.559   3.421   9.200  0.2189 -0.1520 -0.1148
  373MOL0     C50286   6.520   3.450   9.331  0.6546  0.8388 -0.9313
  373MOL0     C50287   6.627   3.480   9.422 -0.3499  0.1009 -0.9607
  373MOL0     H50288   6.227   3.716   9.658  2.5256 -1.4770  0.7663
  373MOL0     H50289   6.112   3.747   9.875  1.9701  1.0833  0.3225
  373MOL0     H50290   5.919   3.778  10.035  0.1221 -0.8091 -0.3100
  373MOL0     H50291   5.800   3.725   9.903 -0.7653  3.0866  0.4588
  373MOL0     H50292   5.781   3.644  10.203  0.0743  1.9343  0.5871
  373MOL0     H50293   5.687   3.576  10.063  1.9854  0.4301 -3.5266
  373MOL0     H50294   5.578   3.789  10.024 -1.4179 -3.3341 -0.2867
  373MOL0     H50295   5.702   3.863  10.144  2.6615 -3.2981  1.9942
  373MOL0     H50296   5.438   3.757  10.189 -0.8674  3.6892  1.9582
  373MOL0     H50297   5.559   3.648  10.273  0.3348 -0.8927 -0.9973
  373MOL0     H50298   5.653   3.844  10.372 -0.6032  0.3559  0.9698
  373MOL0     H50299   5.550   3.957  10.281  2.2632 -0.3180 -0.6487
  373MOL0     H50300   5.429   3.774  10.495 -1.9811  0.3069 -0.4184
  373MOL0     H50301   5.493   3.929  10.517  0.4396  2.0507 -1.0864
  373MOL0     H50302   5.304   3.919  10.281 -0.7191 -1.3383 -0.3115
  373MOL0     H50303   5.299   4.025  10.424  0.4025  1.4127 -1.0209
  373MOL0     H50304   5.176   3.756  10.387 -1.5915 -0.1479 -1.1194
  373MOL0     H50305   5.172   3.837  10.545  0.3578 -2.8702 -0.6257
  373MOL0     H50306   5.023   3.832  10.189  0.6739 -0.0151 -0.0287
  373MOL0     H50307   4.844   4.115  10.067 -0.6180 -0.4526  0.7916
  373MOL0     H50308   4.811   3.945  10.058 -1.0582  0.6134  0.1428
  373MOL0     H50309   4.669   4.117  10.256 -0.7562 -0.5077  0.5225
  373MOL0     H50310   4.620   4.111  10.087 -3.2725  0.4979  0.9149
  373MOL0     H50311   4.630   3.854  10.261 -0.1050 -0.3320 -0.4762
  373MOL0     H50312   4.561   3.863  10.105 -2.6133 -2.3427  2.5459
  373MOL0     H50313   4.401   4.030  10.179 -1.5389  0.5986  1.4455
  373MOL0     H50314   4.473   4.040  10.337 -0.8935 -1.0389  1.0430
  373MOL0     H50315   4.200   3.688  10.185 -0.7925 -0.4582 -0.6067
  373MOL0     H50316   3.947   3.714  10.199  0.4177 -0.0383  0.3651
  373MOL0     H50317   3.548   3.688  10.383  0.5377  1.1661  1.3721
  373MOL0     H50318   3.310   3.717  10.385  0.6672 -1.2232 -0.3487
  373MOL0     H50319   3.079   3.770  10.213 -0.5423  0.3354 -0.4546
  373MOL0     H50320   3.094   3.789  10.394 -1.4243  1.0472 -0.0197
  373MOL0     H50321   2.862   3.808  10.309 -1.1463  0.9980  0.4072
  373MOL0     H50322   2.918   3.961  10.383  1.0735  0.0612 -0.3791
  373MOL0     H50323   2.954   4.049  10.145  3.5179 -2.1835 -0.5780
  373MOL0     H50324   2.940   3.894  10.086  0.7585 -0.0905  1.4858
  373MOL0     H50325   2.705   3.895  10.193  1.4687  0.0248  2.7092
  373MOL0     H50326   2.727   4.005  10.056 -0.5617 -1.5336  0.3417
  373MOL0     H50327   2.789   4.186  10.219 -0.2446 -1.4410 -0.6904
  373MOL0     H50328   2.677   4.092  10.335 -2.7457 -0.5334 -0.9233
  373MOL0     H50329   2.540   4.262  10.238  4.3640  1.8531 -0.6210
  373MOL0     H50330   2.577   4.192  10.077  2.5768  0.5111  0.0060
  373MOL0     H50331   2.472   4.022  10.303 -2.2070  0.9170  2.0099
  373MOL0     H50332   2.472   3.995  10.123 -1.7933 -1.3811  0.6317
  373MOL0     H50333   2.333   4.186  10.079 -0.5968 -3.6513 -1.6207
  373MOL0     H50334   2.247   4.054  10.158 -1.9230  1.9615  0.7424
  373MOL0     H50335   3.375   4.095  10.160 -2.4496 -0.9803 -0.1111
  373MOL0     H50336   3.596   4.030  10.142  0.8812 -2.2675 -0.2349
  373MOL0     H50337   4.004   4.058  10.444  1.4572  1.3086 -0.7436
  373MOL0     H50338   4.213   4.068  10.429 -4.8932  4.3070 -1.6108
  373MOL0     H50339   5.876   3.391   9.809 -0.0228 -1.3004  0.6023
  373MOL0     H50340   6.022   3.335   9.617  1.4452 -0.7639  0.5609
  373MOL0     H50341   6.193   3.351   9.289 -0.7029 -2.8691 -3.6288
  373MOL0     H50342   6.270   3.320   9.070  4.7846 -1.2892 -2.1207
  373MOL0     H50343   6.584   3.380   8.793  1.0662  0.0002 -0.2082
  373MOL0     H50344   6.679   3.440   8.931 -1.0664 -0.0182  1.2693
  373MOL0     H50345   6.428   3.569   8.950 -0.9182 -1.5386 -1.5025
  373MOL0     H50346   6.438   3.553   8.779 -4.4557  0.2589  2.9069
  373MOL0     H50347   6.533   3.783   8.809 -2.4073 -0.4831  3.9600
  373MOL0     H50348   6.671   3.665   8.785  0.3831  1.9439 -1.6472
  373MOL0     H50349   6.542   3.732   9.071  1.4104  1.1229  0.8747
  373MOL0     H50350   6.701   3.671   9.036  1.3720  0.7564  0.1310
  373MOL0     H50351   6.742   4.086   8.995  0.9206 -0.2769 -1.1698
  373MOL0     H50352   6.664   3.418   9.173  0.5955 -2.0684  1.2824
  373MOL0     H50353   6.606   3.419   9.510  4.0504 -1.3616 -0.6498
  373MOL0     H50354   6.731   3.465   9.389  0.0663 -0.5677  0.5509
  373MOL0     H50355   6.622   3.577   9.471 -0.8188 -1.4604  2.3344
  374MOL0     O50356   0.642   4.284   9.631 -0.0548  0.2103 -0.4016
  374MOL0     C50357   0.551   4.267   9.707  0.6071  0.1822 -0.2287
  374MOL0     O50358   0.557   4.284   9.837 -0.3732 -0.1751  0.0803
  374MOL0     C50359   0.629   4.386   9.899 -0.5248  0.4377  0.5310
  374MOL0     C50360   0.707   4.488   9.839  1.3505  0.6058  0.8452
  374MOL0     C50361   0.775   4.582   9.916 -0.6624 -1.2858 -0.3115
  374MOL0     C50362   0.763   4.591  10.053  0.6667 -0.0366  0.0687
  374MOL0     O50363   0.817   4.702  10.109 -0.0083 -0.5822  0.0174
  374MOL0     C50364   0.857   4.705  10.252 -0.0168 -0.5781 -0.2739
  374MOL0     C50365   0.958   4.594  10.289  0.4825  0.1677  0.0073
  374MOL0     C50366   1.099   4.636  10.251 -0.6438 -0.6571 -0.6484
  374MOL0     C50367   1.172   4.519  10.171  1.2072  0.6617 -0.1410
  374MOL0     C50368   1.325   4.542  10.152 -0.3070  0.0910  0.3274
  374MOL0     C50369   1.393   4.428  10.076  0.4734  0.6265 -0.2909
  374MOL0     C50370   1.319   4.334   9.979 -0.2125 -0.2185  0.2628
  374MOL0     C50371   1.283   4.408   9.848  0.7438  0.1823 -0.6809
  374MOL0     N50372   1.187   4.327   9.771 -0.4574 -0.4589  0.4875
  374MOL0     C50373   1.069   4.293   9.818 -0.8406  0.7046  0.1137
  374MOL0     C50374   1.028   4.206   9.720 -0.1679  0.1920  0.7614
  374MOL0     C50375   0.904   4.117   9.725  0.5873  0.6408  0.5077
  374MOL0     C50376   0.925   3.983   9.799  1.4695  0.2937 -0.0074
  374MOL0     C50377   0.959   4.001   9.949  0.3451  1.5242 -0.2836
  374MOL0     C50378   0.837   4.036  10.039  1.4954  0.8273  0.0616
  374MOL0     O50379   0.863   3.997  10.181  0.2203 -0.1781  0.0479
  374MOL0     C50380   0.945   4.087  10.253 -0.1584 -0.0154 -0.7574
  374MOL0     C50381   1.083   4.082  10.265  0.7050 -0.7349  0.2240
  374MOL0     C50382   1.151   4.175  10.347 -0.3522 -0.4596 -0.1704
  374MOL0     C50383   1.082   4.268  10.430  0.2616 -0.6625 -0.3421
  374MOL0     C50384   1.157   4.360  10.521 -0.1117  0.6460 -0.7223
  374MOL0     O50385   1.297   4.344  10.517 -1.4953  0.4839 -0.4984
  374MOL0     C50386   1.385   4.405  10.614  0.0982  0.0691 -0.3011
  374MOL0     C50387   1.503   4.460  10.570 -0.0058  1.1943 -0.7803
  374MOL0     C50388   1.591   4.526  10.661  0.9857  0.5343  0.8021
  374MOL0     C50389   1.565   4.514  10.800 -0.1079  0.3858  0.0062
  374MOL0     O50390   1.663   4.567  10.886  0.3081  0.1555 -0.1634
  374MOL0     C50391   1.650   4.569  11.022  1.3778 -0.4277  0.7609
  374MOL0     C50392   1.785   4.616  11.071 -0.0123  0.9209  0.3020
  374MOL0     C50393   1.919   4.545  11.035 -0.1545 -0.7629 -0.3033
  374MOL0     C50394   2.039   4.637  11.074 -0.2833 -0.1650  1.4723
  374MOL0     C50395   2.174   4.578  11.035  0.4482 -0.5685 -0.4171
  374MOL0     C50396   2.207   4.586  10.890  0.0252  0.1451 -0.2175
  374MOL0     C50397   2.337   4.516  10.855 -0.1546 -1.0775  0.2518
  374MOL0     C50398   2.342   4.507  10.697 -0.9128  1.0066  0.6512
  374MOL0    Cl50399   2.191   4.460  10.616 -0.5364  0.3087  0.4431
  374MOL0     C50400   1.445   4.452  10.845 -0.2734  0.2674 -0.3488
  374MOL0     C50401   1.359   4.397  10.759 -0.6283 -0.6637  0.7065
  374MOL0     O50402   1.097   4.427  10.606  0.4477  0.2325 -0.2605
  374MOL0     C50403   0.937   4.272  10.411 -0.9515  0.2335 -0.4987
  374MOL0     C50404   0.878   4.188  10.329  1.6724  0.0970  0.5275
  374MOL0     N50405   1.126   4.181   9.632 -0.2167  0.6343  0.6165
  374MOL0     N50406   1.229   4.255   9.659 -0.2531 -0.0284 -0.2984
  374MOL0     C50407   0.695   4.483  10.113  0.9750  0.6198 -0.1480
  374MOL0     C50408   0.625   4.387  10.035 -0.2103  0.2906 -0.8172
  374MOL0     C50409   0.425   4.196   9.652 -0.2300  0.8128 -0.1787
  374MOL0     C50410   0.302   4.189   9.735 -1.6386 -0.0578  0.6727
  374MOL0     C50411   0.181   4.130   9.704 -0.1529 -0.1931  0.2260
  374MOL0     C50412   0.166   4.080   9.574 -0.7149  0.4826  0.5236
  374MOL0     O50413   0.056   4.012   9.534 -0.3671 -0.0150  0.2149
  374MOL0     C50414  -0.058   4.095   9.503  0.2381  0.6532  0.5778
  374MOL0     C50415  -0.135   4.025   9.392 -0.4971  0.1493  0.6514
  374MOL0     C50416  -0.050   3.974   9.267 -0.2751  0.4051 -0.0458
  374MOL0     C50417  -0.059   4.051   9.133 -0.1274 -0.6924 -0.3367
  374MOL0     C50418  -0.037   3.964   9.018 -0.2178 -0.1444 -0.0143
  374MOL0     C50419  -0.017   3.886   8.929  0.1047 -0.7306 -0.4956
  374MOL0     C50420   0.278   4.085   9.489  1.0057 -0.6769 -0.7325
  374MOL0     C50421   0.410   4.125   9.534  0.0598 -0.6834 -0.5066
  374MOL0     C50422   0.530   4.117   9.444  0.3970 -0.0136  0.0549
  374MOL0     H50423   0.705   4.482   9.731  0.9810  2.5407  0.7123
  374MOL0     H50424   0.850   4.648   9.872 -1.9914  0.2886 -0.2989
  374MOL0     H50425   0.886   4.804  10.288 -2.7477  0.3524 -0.3636
  374MOL0     H50426   0.768   4.684  10.312  0.4198 -0.2155  0.5225
  374MOL0     H50427   0.935   4.503  10.232 -0.7286  1.4258 -1.5978
  374MOL0     H50428   0.929   4.579  10.394 -1.3806  1.4033 -0.2836
  374MOL0     H50429   1.144   4.664  10.347 -3.4003  0.3039  0.4594
  374MOL0     H50430   1.110   4.731  10.197  4.1669 -0.7236 -0.2642
  374MOL0     H50431   1.163   4.434  10.240  4.6592  0.3708  0.1290
  374MOL0     H50432   1.115   4.501  10.079 -1.9996  1.1840  1.6301
  374MOL0     H50433   1.334   4.637  10.099 -1.4819  0.9894  1.6707
  374MOL0     H50434   1.375   4.536  10.249  3.6732 -0.3991 -1.5574
  374MOL0     H50435   1.482   4.464  10.024  1.9756 -1.5067  0.6283
  374MOL0     H50436   1.429   4.370  10.162  0.9039  2.6491  0.9702
  374MOL0     H50437   1.230   4.280  10.013 -0.3012 -1.5148 -1.8462
  374MOL0     H50438   1.396   4.260   9.956  1.7681  1.1420  2.1216
  374MOL0     H50439   1.243   4.507   9.873  1.7073  1.4814 -3.7346
  374MOL0     H50440   1.377   4.423   9.794  1.4536  4.6989  1.3798
  374MOL0     H50441   1.020   4.319   9.911 -1.7778 -1.2453  0.1960
  374MOL0     H50442   0.828   4.181   9.771 -0.4892  0.9738 -1.5938
  374MOL0     H50443   0.873   4.100   9.621  0.1215  1.1500  0.5600
  374MOL0     H50444   0.830   3.928   9.792  0.1483  2.6197 -1.5325
  374MOL0     H50445   0.996   3.919   9.746 -0.4522 -0.7555 -1.4736
  374MOL0     H50446   1.050   4.059   9.967 -0.4839  3.1433 -1.0456
  374MOL0     H50447   0.979   3.902   9.990  2.0248  1.6264 -0.7854
  374MOL0     H50448   0.742   3.994  10.006 -0.3673  3.2988  1.9454
  374MOL0     H50449   0.819   4.143  10.032  2.2407  1.0460  1.1914
  374MOL0     H50450   1.136   4.009  10.206  2.9695 -0.8725  2.2759
  374MOL0     H50451   1.259   4.174  10.355 -0.4137 -0.2016  1.0148
  374MOL0     H50452   1.514   4.474  10.463 -1.7498  2.8555 -0.8066
  374MOL0     H50453   1.686   4.570  10.631  0.4978  0.5912 -0.7747
  374MOL0     H50454   1.572   4.643  11.040  2.1845  1.0175 -1.2793
  374MOL0     H50455   1.620   4.474  11.068 -0.1668 -0.4677 -0.2655
  374MOL0     H50456   1.798   4.720  11.036 -1.1865  2.3619  3.7258
  374MOL0     H50457   1.775   4.645  11.176  2.1462  2.3820  0.1665
  374MOL0     H50458   1.944   4.454  11.090 -1.1258 -1.1819 -0.5534
  374MOL0     H50459   1.907   4.530  10.928  0.2374  0.3443 -0.5197
  374MOL0     H50460   2.046   4.645  11.183 -0.6361  3.9884  1.3400
  374MOL0     H50461   2.025   4.738  11.035 -0.9736  0.1481  2.4981
  374MOL0     H50462   2.187   4.475  11.070 -1.6363 -1.1645 -1.2352
  374MOL0     H50463   2.240   4.636  11.101 -0.9931 -0.7654  1.2820
  374MOL0     H50464   2.123   4.539  10.837 -0.7197  1.8522 -0.6449
  374MOL0     H50465   2.205   4.684  10.842 -1.1415 -0.1506 -0.8239
  374MOL0     H50466   2.359   4.416  10.895  4.3169 -0.1330  0.6500
  374MOL0     H50467   2.422   4.571  10.897 -0.6267  0.4406 -0.7014
  374MOL0     H50468   2.372   4.605  10.658  1.2114 -0.3138 -1.2612
  374MOL0     H50469   2.426   4.447  10.661  0.8041  3.5240  0.1816
  374MOL0     H50470   1.441   4.436  10.952 -0.2687 -0.3738 -0.4381
  374MOL0     H50471   1.268   4.345  10.787  0.3161 -2.4812  0.6007
  374MOL0     H50472   0.880   4.337  10.476  0.6355  0.8903  0.2807
  374MOL0     H50473   0.769   4.192  10.335  1.6514 -0.7236  0.8116
  374MOL0     H50474   0.680   4.481  10.221 -1.7051  2.2626 -0.4079
  374MOL0     H50475   0.572   4.310  10.092 -1.3330  2.3156  1.0315
  374MOL0     H50476   0.323   4.233   9.832  1.9826 -0.4631  0.2045
  374MOL0     H50477   0.106   4.130   9.782  0.0244  3.3036  0.5749
  374MOL0     H50478  -0.026   4.194   9.471  0.4141  0.7377  1.0065
  374MOL0     H50479  -0.116   4.118   9.593  0.1182  1.8506  0.2090
  374MOL0     H50480  -0.222   4.087   9.366 -1.2005 -1.8187 -2.1661
  374MOL0     H50481  -0.176   3.942   9.449 -0.0221 -0.4736  0.0969
  374MOL0     H50482  -0.089   3.876   9.238 -0.8237  1.3383 -2.6838
  374MOL0     H50483   0.052   3.948   9.296 -1.9345 -1.6062  5.1711
  374MOL0     H50484  -0.162   4.082   9.114 -1.3472 -3.6766  0.7731
  374MOL0     H50485   0.003   4.142   9.136 -0.4615 -0.4316  3.2279
  374MOL0     H50486   0.007   3.823   8.846 -0.3074  0.2708 -1.3890
  374MOL0     H50487   0.256   4.051   9.389 -2.3190  0.4578 -0.5263
  374MOL0     H50488   0.576   4.210   9.408 -2.7093  1.2039 -1.0566
  374MOL0     H50489   0.608   4.059   9.496 -0.1682 -1.4496 -0.6590
  374MOL0     H50490   0.504   4.060   9.354 -0.0917 -2.7188  1.8068
  375MOL0     O50491   9.099   2.082   1.666  1.0492  0.4650 -0.5403
  375MOL0     C50492   8.982   2.079   1.692  0.1210  0.2484 -0.0333
  375MOL0     O50493   8.888   2.031   1.608  0.5241 -0.2921  0.1859
  375MOL0     C50494   8.932   1.977   1.486 -0.0622 -0.2783  0.5084
  375MOL0     C50495   8.857   2.022   1.377  0.1984 -0.0811  1.6016
  375MOL0     C50496   8.869   1.955   1.253  0.0708  0.3387 -0.0668
  375MOL0     C50497   8.951   1.845   1.239  0.3956 -0.2807 -0.2585
  375MOL0     O50498   8.958   1.760   1.132 -0.2499  0.1700 -0.3628
  375MOL0     C50499   8.889   1.637   1.166 -0.4777  0.9099 -0.2980
  375MOL0     C50500   8.862   1.571   1.035 -0.1835 -0.5820  0.4477
  375MOL0     C50501   8.781   1.446   1.070  0.4538  0.3896  0.3726
  375MOL0     C50502   8.821   1.345   0.956  0.2392 -1.4352 -0.3850
  375MOL0     C50503   8.703   1.252   0.953 -0.6527  0.1028  0.4718
  375MOL0     C50504   8.713   1.162   0.828 -0.6483 -0.1839  0.1255
  375MOL0     C50505   8.665   1.014   0.850  0.5694 -0.6543 -1.0759
  375MOL0     C50506   8.687   0.905   0.742 -0.0649  0.5761 -1.1003
  375MOL0     N50507   8.653   0.949   0.612  0.3745 -0.0735 -0.5878
  375MOL0     C50508   8.520   0.981   0.571 -0.1800  0.0986  0.5276
  375MOL0     C50509   8.530   1.029   0.447  0.3264  0.2156  0.6522
  375MOL0     C50510   8.423   1.096   0.368  0.5003  0.2016  0.1562
  375MOL0     C50511   8.452   1.138   0.227 -0.1038 -0.1621  0.0290
  375MOL0     C50512   8.347   1.200   0.144  1.0431 -0.8193  0.6749
  375MOL0     C50513   8.282   1.332   0.200 -0.1873  0.3809  0.6579
  375MOL0     O50514   8.192   1.295   0.310 -0.0385 -0.1553 -0.0575
  375MOL0     C50515   8.058   1.299   0.290 -0.3977  0.5047  0.2600
  375MOL0     C50516   7.999   1.411   0.244  0.7231 -0.9342 -0.4636
  375MOL0     C50517   7.861   1.410   0.211 -0.2914  0.1629  0.5753
  375MOL0     C50518   7.789   1.290   0.216 -0.4690 -0.7121  0.5522
  375MOL0     C50519   7.644   1.297   0.186  0.4558 -0.0171 -0.8174
  375MOL0     O50520   7.601   1.408   0.115  0.0803  0.5548  0.6077
  375MOL0     C50521   7.470   1.404   0.064  0.0801 -0.5843 -0.3779
  375MOL0     C50522   7.413   1.285   0.021  1.5402  0.4739  0.3622
  375MOL0     C50523   7.293   1.286  -0.042 -0.4736 -0.5899  0.2791
  375MOL0     C50524   7.220   1.404  -0.068 -0.7033  0.5165  0.0895
  375MOL0     O50525   7.110   1.422  -0.144 -0.5071  0.0538 -0.9794
  375MOL0     C50526   7.065   1.316  -0.231 -1.2328  0.7849  0.0530
  375MOL0     C50527   6.976   1.222  -0.152 -0.0212 -0.7868 -0.1314
  375MOL0     C50528   6.924   1.115  -0.240 -0.3318  1.0899 -0.5578
  375MOL0     C50529   6.847   1.002  -0.179 -0.9015  0.0794 -0.9272
  375MOL0     C50530   6.921   0.914  -0.077 -0.4155  0.3650  0.6610
  375MOL0     C50531   7.040   0.831  -0.137 -0.0239 -0.0916 -0.0769
  375MOL0     C50532   7.062   0.694  -0.058 -0.4245 -0.2216  0.7919
  375MOL0     C50533   7.142   0.728   0.071  0.6786 -0.7853 -0.4206
  375MOL0    Cl50534   7.095   0.612   0.202  0.0340 -0.0408  0.4283
  375MOL0     C50535   7.282   1.525  -0.031  0.9263  0.0389 -1.0109
  375MOL0     C50536   7.403   1.523   0.035 -0.2147 -0.1130 -0.6996
  375MOL0     O50537   7.577   1.212   0.244 -0.0925  0.8039  0.3098
  375MOL0     C50538   7.846   1.175   0.274  0.5419  0.0534 -0.4761
  375MOL0     C50539   7.984   1.178   0.308  0.0447  0.7161 -0.3807
  375MOL0     N50540   8.664   1.027   0.413  0.2489 -0.0029 -0.4884
  375MOL0     N50541   8.739   0.980   0.507 -0.2432 -0.1612 -0.6245
  375MOL0     C50542   9.028   1.808   1.358  0.0325  0.8521 -0.5286
  375MOL0     C50543   9.022   1.871   1.481  0.0017 -0.1163  0.7957
  375MOL0     C50544   8.948   2.118   1.827 -0.0284  0.4607 -0.5635
  375MOL0     C50545   9.010   2.233   1.882 -0.9396  0.2820  0.0688
  375MOL0     C50546   8.970   2.284   1.999 -0.1038  0.4536 -0.1355
  375MOL0     C50547   8.881   2.218   2.088 -0.5660 -1.0307 -0.4632
  375MOL0     O50548   8.854   2.283   2.205 -0.8306  0.2181  0.0067
  375MOL0     C50549   8.776   2.218   2.305 -0.0332 -0.6053  0.6988
  375MOL0     C50550   8.634   2.245   2.289 -0.7182  0.0934  0.7012
  375MOL0     C50551   8.575   2.190   2.409 -0.6520  0.1911  0.0434
  375MOL0     C50552   8.420   2.207   2.422  0.3495 -0.6900  0.2605
  375MOL0     C50553   8.378   2.106   2.521 -0.1571  0.1569  0.0434
  375MOL0     C50554   8.326   2.023   2.595  0.6641  0.0355  0.0445
  375MOL0     C50555   8.819   2.104   2.041  0.0339  0.1884 -0.3435
  375MOL0     C50556   8.853   2.053   1.912  0.4237  0.4676  0.2245
  375MOL0     C50557   8.766   1.928   1.875 -0.1403  0.4556 -0.5462
  375MOL0     H50558   8.782   2.099   1.392  0.3288  0.4314 -0.1262
  375MOL0     H50559   8.812   1.979   1.164  3.0085 -1.2746 -2.5951
  375MOL0     H50560   8.958   1.573   1.222 -0.6146 -0.4573 -1.6435
  375MOL0     H50561   8.797   1.650   1.224 -0.2721 -0.2097  0.3125
  375MOL0     H50562   8.961   1.531   1.012 -0.6775 -2.5219  1.4285
  375MOL0     H50563   8.810   1.643   0.971  0.4750 -1.3764 -1.0360
  375MOL0     H50564   8.675   1.472   1.068  0.6135  1.0934 -2.3641
  375MOL0     H50565   8.806   1.408   1.169  0.6900 -0.8311 -0.1393
  375MOL0     H50566   8.840   1.399   0.863  0.1501 -0.0561  0.3784
  375MOL0     H50567   8.907   1.287   0.992 -1.6460 -2.2551  3.2279
  375MOL0     H50568   8.718   1.188   1.040 -0.3611  2.5569  2.3671
  375MOL0     H50569   8.602   1.296   0.957 -1.7614 -2.3706  2.2311
  375MOL0     H50570   8.661   1.207   0.743  2.1108  4.1518  0.3672
  375MOL0     H50571   8.819   1.157   0.801 -1.4632 -0.5904 -3.4422
  375MOL0     H50572   8.557   1.028   0.847  0.6561  0.2466 -0.5322
  375MOL0     H50573   8.697   0.969   0.945 -1.0804 -0.4385 -0.3822
  375MOL0     H50574   8.796   0.891   0.742  0.6287  4.7281 -0.0167
  375MOL0     H50575   8.632   0.814   0.766  1.3163 -0.1205 -0.4720
  375MOL0     H50576   8.437   0.961   0.638  0.4950 -0.4588  1.2145
  375MOL0     H50577   8.337   1.030   0.383  2.3775 -1.9287  2.2184
  375MOL0     H50578   8.411   1.189   0.425  0.7177  2.6362 -3.4395
  375MOL0     H50579   8.538   1.206   0.225  2.4024 -3.1240 -0.0576
  375MOL0     H50580   8.499   1.059   0.168  1.5099  2.5041 -2.5999
  375MOL0     H50581   8.260   1.138   0.120  0.7190  0.3548 -1.3787
  375MOL0     H50582   8.383   1.229   0.045 -4.0719  1.7228 -0.7845
  375MOL0     H50583   8.216   1.377   0.126 -0.9252  0.0925  1.1240
  375MOL0     H50584   8.364   1.398   0.227  3.1572 -2.5940 -1.3779
  375MOL0     H50585   8.046   1.508   0.233 -1.3511  0.1277 -0.4071
  375MOL0     H50586   7.805   1.502   0.201  0.2151  0.8726  3.3759
  375MOL0     H50587   7.467   1.192   0.031  1.6824  0.6678  1.5370
  375MOL0     H50588   7.252   1.192  -0.078  1.0659 -1.7311  1.3877
  375MOL0     H50589   7.007   1.364  -0.310  1.3501  0.9765 -1.8514
  375MOL0     H50590   7.147   1.258  -0.274 -1.7954  0.4275 -0.5472
  375MOL0     H50591   7.023   1.185  -0.060 -1.7376 -1.6989  0.4264
  375MOL0     H50592   6.885   1.277  -0.127 -0.3435 -1.2059 -0.3686
  375MOL0     H50593   6.857   1.166  -0.310  1.7840  3.6424 -0.8900
  375MOL0     H50594   7.004   1.070  -0.300 -0.1194 -0.8832  1.1087
  375MOL0     H50595   6.813   0.936  -0.260  0.1410 -3.7171  1.4490
  375MOL0     H50596   6.753   1.042  -0.140 -1.4586  0.1869 -2.3263
  375MOL0     H50597   6.855   0.842  -0.028 -0.0081  2.1558  4.1615
  375MOL0     H50598   6.946   0.979   0.007 -0.9719  0.9752  0.3616
  375MOL0     H50599   7.020   0.812  -0.242  0.0419 -0.2602 -0.0590
  375MOL0     H50600   7.135   0.884  -0.139 -0.9600  1.9629  2.6948
  375MOL0     H50601   7.118   0.619  -0.114 -0.6857  0.4316 -0.3791
  375MOL0     H50602   6.962   0.655  -0.036  0.1949 -1.8239  0.9234
  375MOL0     H50603   7.251   0.735   0.058  0.9137  0.2117  1.6602
  375MOL0     H50604   7.119   0.828   0.108  0.1888 -1.3239  0.8063
  375MOL0     H50605   7.223   1.610  -0.066 -4.6806 -2.6130  0.8334
  375MOL0     H50606   7.441   1.623   0.051  0.8966 -1.0125  3.8484
  375MOL0     H50607   7.784   1.090   0.298 -2.3495  2.4054  1.0044
  375MOL0     H50608   8.030   1.089   0.349 -0.8608 -0.0877 -1.0567
  375MOL0     H50609   9.085   1.715   1.363 -1.0914 -0.0494 -2.9266
  375MOL0     H50610   9.056   1.826   1.575 -0.6558 -1.0522  0.6032
  375MOL0     H50611   9.083   2.284   1.819 -3.2520  0.5209 -2.6156
  375MOL0     H50612   9.023   2.374   2.029 -0.3220  0.5969 -0.1758
  375MOL0     H50613   8.811   2.261   2.400  2.1842 -1.4884  0.3530
  375MOL0     H50614   8.791   2.110   2.314  0.2255 -0.8203 -1.8110
  375MOL0     H50615   8.589   2.190   2.207  0.3398  1.9166 -1.1914
  375MOL0     H50616   8.610   2.352   2.282  0.9784  0.5486  1.3563
  375MOL0     H50617   8.637   2.204   2.499 -0.9869  0.3476  0.2496
  375MOL0     H50618   8.583   2.081   2.394  1.7049  0.2379  0.4537
  375MOL0     H50619   8.392   2.298   2.474  0.7856  0.5151 -1.5114
  375MOL0     H50620   8.361   2.199   2.330 -1.6342  0.9950  1.3062
  375MOL0     H50621   8.289   1.936   2.646 -0.0477  1.2548  1.7063
  375MOL0     H50622   8.740   2.060   2.101 -2.4838  2.8032 -1.4861
  375MOL0     H50623   8.672   1.959   1.828 -0.9191 -0.4756  0.3454
  375MOL0     H50624   8.817   1.852   1.815  0.7473 -0.2113  1.0020
  375MOL0     H50625   8.757   1.888   1.976  2.3557  3.5519  1.1004
  376MOL0     O50626   1.370   7.753   7.844 -0.0446 -0.5222  0.0328
  376MOL0     C50627   1.385   7.657   7.775  0.2505  0.3258 -0.2205
  376MOL0     O50628   1.500   7.596   7.760  0.5905  0.2776 -0.1343
  376MOL0     C50629   1.604   7.661   7.827 -0.6032 -0.7720 -0.9636
  376MOL0     C50630   1.682   7.601   7.928 -0.3517 -0.8567  0.7702
  376MOL0     C50631   1.796   7.674   7.971 -0.2894 -1.4445  0.7329
  376MOL0     C50632   1.839   7.796   7.911  0.6463 -0.2262  0.4450
  376MOL0     O50633   1.951   7.862   7.951  0.2577  0.0598  1.1430
  376MOL0     C50634   2.025   7.842   8.073 -0.5443  0.4000 -0.3678
  376MOL0     C50635   1.942   7.874   8.204 -0.3720  0.0768 -0.9841
  376MOL0     C50636   1.844   7.994   8.195  0.7091 -1.0376 -0.6245
  376MOL0     C50637   1.784   8.011   8.338 -0.0422 -0.0020 -0.2476
  376MOL0     C50638   1.740   8.157   8.337  0.1353 -0.7308 -0.0641
  376MOL0     C50639   1.706   8.206   8.473 -0.3760  1.5261 -0.1326
  376MOL0     C50640   1.657   8.345   8.469  0.4462 -0.7548 -0.7899
  376MOL0     C50641   1.654   8.431   8.609 -0.1441  0.0254  0.1050
  376MOL0     N50642   1.552   8.370   8.704 -1.2207  1.0058 -0.5834
  376MOL0     C50643   1.425   8.323   8.674 -0.1901 -0.4281  0.3208
  376MOL0     C50644   1.391   8.260   8.784  1.0227 -0.1096  0.2694
  376MOL0     C50645   1.262   8.191   8.796 -0.5977  0.4766  0.0084
  376MOL0     C50646   1.185   8.207   8.926 -0.1457 -0.4241  0.0478
  376MOL0     C50647   1.150   8.354   8.941 -0.3608 -0.4292 -0.0368
  376MOL0     C50648   1.038   8.395   9.041 -0.4840  0.1301  0.0077
  376MOL0     O50649   0.911   8.350   9.000  0.3443 -0.6673 -0.5454
  376MOL0     C50650   0.839   8.455   8.943 -0.2460 -0.7774 -0.1492
  376MOL0     C50651   0.857   8.596   8.947 -0.1990  0.2348  0.1529
  376MOL0     C50652   0.769   8.674   8.879 -0.7732 -0.1520  0.1840
  376MOL0     C50653   0.668   8.623   8.799 -0.7534  0.9414  0.2419
  376MOL0     C50654   0.582   8.719   8.726 -0.0585 -0.2587 -0.1380
  376MOL0     O50655   0.645   8.829   8.677 -0.0298 -0.5711  0.7971
  376MOL0     C50656   0.563   8.941   8.654 -0.1894  0.3312  0.0802
  376MOL0     C50657   0.516   9.020   8.764 -0.0529  0.1385 -0.2194
  376MOL0     C50658   0.444   9.134   8.733 -0.2565  0.0589  0.1099
  376MOL0     C50659   0.415   9.170   8.602 -0.0817 -0.0670  0.5745
  376MOL0     O50660   0.343   9.279   8.578  0.1702 -0.3288  0.1878
  376MOL0     C50661   0.396   9.380   8.495 -0.0475  0.4270 -0.6011
  376MOL0     C50662   0.325   9.513   8.518 -0.5109  0.1920  0.2800
  376MOL0     C50663   0.182   9.497   8.480  0.3000 -0.5163  0.1028
  376MOL0     C50664   0.119   9.637   8.449  0.0849  0.6068  0.3421
  376MOL0     C50665  -0.016   9.629   8.377  0.3371  0.5859 -0.6331
  376MOL0     C50666  -0.036   9.764   8.303 -0.0159  0.5756  0.2598
  376MOL0     C50667  -0.036   9.883   8.397  0.4833  0.6868  1.0467
  376MOL0     C50668  -0.103  10.009   8.331 -0.0522 -0.3649  0.9139
  376MOL0    Cl50669  -0.006  10.125   8.248  0.0500 -0.1926  0.2371
  376MOL0     C50670   0.468   9.086   8.496  0.1688 -0.2800  0.3250
  376MOL0     C50671   0.535   8.969   8.529 -0.1962  0.2741  0.9824
  376MOL0     O50672   0.464   8.696   8.730  0.0519  0.7422 -0.3106
  376MOL0     C50673   0.648   8.481   8.805 -0.2168  0.2643  0.7495
  376MOL0     C50674   0.730   8.403   8.876  0.4345 -0.2781  0.3121
  376MOL0     N50675   1.492   8.257   8.881 -0.3115 -0.3193  0.6522
  376MOL0     N50676   1.590   8.332   8.829  1.1030  0.2680 -0.1283
  376MOL0     C50677   1.770   7.840   7.797 -0.9986 -0.7535 -0.7844
  376MOL0     C50678   1.658   7.782   7.763 -0.3606  0.1741  0.6879
  376MOL0     C50679   1.270   7.610   7.695  0.8574  0.4104 -0.5848
  376MOL0     C50680   1.291   7.540   7.576 -0.0409  0.1222  0.4457
  376MOL0     C50681   1.178   7.474   7.513 -0.8447  0.0993  0.2838
  376MOL0     C50682   1.047   7.482   7.567 -0.7052 -0.0842  0.5819
  376MOL0     O50683   0.935   7.418   7.519 -0.2743  0.4820 -0.7981
  376MOL0     C50684   0.954   7.329   7.405 -0.2154  0.1447 -0.3861
  376MOL0     C50685   0.827   7.301   7.343 -0.3682  0.6861  0.1866
  376MOL0     C50686   0.727   7.228   7.447 -0.1853 -0.2178 -0.4320
  376MOL0     C50687   0.574   7.250   7.407  0.6571 -0.2153  0.0695
  376MOL0     C50688   0.544   7.396   7.386  0.9108 -0.9104  0.8671
  376MOL0     C50689   0.528   7.514   7.388  0.2453  0.5917  0.0570
  376MOL0     C50690   1.028   7.568   7.676  0.2145  0.2262 -0.5454
  376MOL0     C50691   1.135   7.627   7.744  0.1393 -0.2313 -0.0934
  376MOL0     C50692   1.103   7.719   7.868  0.6306  0.8384  0.5152
  376MOL0     H50693   1.648   7.501   7.952 -3.6677 -1.5722 -5.0429
  376MOL0     H50694   1.849   7.640   8.060  1.4735 -1.6111 -0.3173
  376MOL0     H50695   2.050   7.736   8.072  0.9764  0.7276 -1.9016
  376MOL0     H50696   2.115   7.904   8.070  0.6486 -1.3158 -2.4976
  376MOL0     H50697   2.013   7.892   8.285  1.9163 -5.4932 -1.3081
  376MOL0     H50698   1.888   7.788   8.243  1.7649 -1.7867 -1.8562
  376MOL0     H50699   1.763   7.982   8.122  1.4086 -1.3375 -1.3599
  376MOL0     H50700   1.905   8.080   8.166 -2.1450  1.8850  1.2722
  376MOL0     H50701   1.704   7.937   8.353 -0.4870  0.0967 -1.9741
  376MOL0     H50702   1.850   7.998   8.424  1.5104 -0.6433 -1.4905
  376MOL0     H50703   1.818   8.224   8.299  0.3120 -0.2232  1.1459
  376MOL0     H50704   1.651   8.164   8.274 -1.4459 -0.5653  2.0817
  376MOL0     H50705   1.632   8.135   8.512  1.2028  1.1638  2.4270
  376MOL0     H50706   1.797   8.208   8.533 -0.6304 -1.2767  0.4766
  376MOL0     H50707   1.558   8.354   8.424 -0.7040  0.2598  1.8074
  376MOL0     H50708   1.721   8.402   8.401 -2.5171  4.2334  0.1350
  376MOL0     H50709   1.751   8.432   8.660 -1.5017 -0.3959  2.8648
  376MOL0     H50710   1.613   8.529   8.583 -0.5776 -0.1005  0.3132
  376MOL0     H50711   1.374   8.334   8.579 -0.0948  2.5508  0.5206
  376MOL0     H50712   1.193   8.209   8.713  2.3022  2.5720 -2.1616
  376MOL0     H50713   1.286   8.085   8.780 -1.5110  0.7032 -3.7342
  376MOL0     H50714   1.101   8.139   8.940 -1.0268  1.1114  3.2958
  376MOL0     H50715   1.249   8.172   9.007  1.0566 -0.4397 -0.8772
  376MOL0     H50716   1.121   8.391   8.842  0.7371  0.3356 -0.0865
  376MOL0     H50717   1.242   8.407   8.967 -1.5278  0.9759  1.4154
  376MOL0     H50718   1.043   8.501   9.065 -0.3938  1.8259 -5.9718
  376MOL0     H50719   1.060   8.348   9.138 -1.9473  2.7441  1.7285
  376MOL0     H50720   0.933   8.644   9.007 -0.9689  0.8891  0.6280
  376MOL0     H50721   0.759   8.781   8.892 -2.2477 -0.0384 -1.4895
  376MOL0     H50722   0.539   8.981   8.862 -1.3213 -2.4990 -0.9026
  376MOL0     H50723   0.411   9.198   8.814 -0.0813  1.8939 -1.1889
  376MOL0     H50724   0.501   9.408   8.508 -0.5023  1.6279  0.7993
  376MOL0     H50725   0.393   9.345   8.392  1.1658  2.1936 -1.2688
  376MOL0     H50726   0.333   9.545   8.622 -1.4185  2.0773 -0.2035
  376MOL0     H50727   0.374   9.595   8.464  0.0912 -0.3801 -0.0621
  376MOL0     H50728   0.182   9.434   8.391  1.9337 -2.6824  1.5163
  376MOL0     H50729   0.121   9.443   8.553  1.5645 -1.9122  0.1791
  376MOL0     H50730   0.192   9.680   8.381  0.3196 -0.4980 -0.1214
  376MOL0     H50731   0.110   9.706   8.534 -0.2448 -0.1462  0.9348
  376MOL0     H50732  -0.103   9.610   8.442  2.4213 -0.9520  1.8979
  376MOL0     H50733  -0.007   9.546   8.306  1.2195  0.7853 -0.7542
  376MOL0     H50734   0.041   9.778   8.226 -1.3199  1.5835 -0.9317
  376MOL0     H50735  -0.133   9.760   8.252  0.2326  1.8552 -0.3681
  376MOL0     H50736   0.064   9.907   8.436  0.9578  3.6884 -1.5892
  376MOL0     H50737  -0.097   9.849   8.482 -1.6709 -2.2178 -1.4321
  376MOL0     H50738  -0.174   9.975   8.255  1.2052  1.7774 -1.3877
  376MOL0     H50739  -0.162  10.063   8.405 -0.5454 -2.1948  1.9109
  376MOL0     H50740   0.446   9.097   8.390  0.3900  1.0073  0.4043
  376MOL0     H50741   0.569   8.901   8.451 -0.0855 -1.3343  2.3933
  376MOL0     H50742   0.571   8.442   8.739 -0.1513  4.1152 -1.9588
  376MOL0     H50743   0.711   8.297   8.881 -2.9176  0.2870  2.0334
  376MOL0     H50744   1.788   7.935   7.747 -2.1553  0.2471  0.6230
  376MOL0     H50745   1.594   7.837   7.695 -1.0431 -0.2728  0.9620
  376MOL0     H50746   1.393   7.532   7.541 -0.5527 -1.6508 -0.7842
  376MOL0     H50747   1.207   7.417   7.425  0.4344  1.1048  0.0197
  376MOL0     H50748   1.013   7.244   7.442 -0.9329 -0.4803 -0.6451
  376MOL0     H50749   1.017   7.390   7.340 -0.3514  1.1492  0.3961
  376MOL0     H50750   0.847   7.223   7.268 -1.2319 -0.6566  1.3071
  376MOL0     H50751   0.790   7.384   7.282  2.7452  0.0123 -2.9731
  376MOL0     H50752   0.740   7.272   7.546 -1.0912  2.5239 -1.4351
  376MOL0     H50753   0.740   7.120   7.454 -0.4753 -0.1441  2.0785
  376MOL0     H50754   0.542   7.199   7.316 -1.2249  4.9237 -2.5550
  376MOL0     H50755   0.523   7.209   7.495  0.3831 -1.9456 -0.8501
  376MOL0     H50756   0.544   7.620   7.384  1.6398  0.3538 -2.5645
  376MOL0     H50757   0.928   7.575   7.716 -0.1438 -0.7449 -1.2299
  376MOL0     H50758   0.994   7.721   7.881 -0.0196  0.4193 -3.6279
  376MOL0     H50759   1.141   7.678   7.963 -2.0588 -2.6681  0.2860
  376MOL0     H50760   1.135   7.820   7.843  0.7375  0.9994  1.2614
  377MOL0     O50761   7.010   3.468   8.037  0.2752 -0.3768 -0.6085
  377MOL0     C50762   7.022   3.395   7.947  0.7576 -0.7626 -0.1197
  377MOL0     O50763   6.995   3.423   7.813 -0.5605 -0.1823 -0.6127
  377MOL0     C50764   6.954   3.547   7.786 -1.0425  0.5220  0.8586
  377MOL0     C50765   7.039   3.658   7.787  0.1074  0.4968  0.8310
  377MOL0     C50766   6.996   3.783   7.739  0.5070  0.2890  0.1588
  377MOL0     C50767   6.869   3.796   7.688  0.5286  0.3484 -0.0334
  377MOL0     O50768   6.817   3.908   7.634 -1.1418 -0.1615 -0.9005
  377MOL0     C50769   6.738   3.982   7.711  0.7311 -0.0662 -0.9399
  377MOL0     C50770   6.751   4.131   7.659 -0.0470  0.6657  0.0733
  377MOL0     C50771   6.636   4.226   7.693 -0.6888  0.3007  0.5376
  377MOL0     C50772   6.521   4.243   7.592 -0.4338  0.6030 -0.7322
  377MOL0     C50773   6.423   4.349   7.641 -0.5870 -0.0474 -0.2607
  377MOL0     C50774   6.323   4.401   7.530  0.4320  0.3673  0.2913
  377MOL0     C50775   6.239   4.506   7.602  1.1005  0.1943  0.7019
  377MOL0     C50776   6.156   4.564   7.495  0.6022  0.1684  0.0741
  377MOL0     N50777   6.218   4.673   7.425 -1.0838  0.3522  0.3948
  377MOL0     C50778   6.266   4.787   7.477 -0.1672 -0.6808 -0.2254
  377MOL0     C50779   6.328   4.858   7.378 -0.6717  0.4104 -0.5711
  377MOL0     C50780   6.394   4.990   7.403  0.3054  0.4875  0.0250
  377MOL0     C50781   6.320   5.086   7.505 -1.1009  0.1710 -0.2184
  377MOL0     C50782   6.423   5.194   7.538  0.1496 -0.5321  0.7410
  377MOL0     C50783   6.361   5.313   7.622  0.8064 -0.2875  0.0511
  377MOL0     O50784   6.291   5.269   7.741 -0.6773 -1.0188 -0.4321
  377MOL0     C50785   6.269   5.364   7.835 -0.0516  1.5063  0.7398
  377MOL0     C50786   6.223   5.493   7.807  0.2899 -0.4654 -0.3245
  377MOL0     C50787   6.177   5.571   7.904 -0.1866 -0.7293 -0.4389
  377MOL0     C50788   6.171   5.536   8.038 -0.7467  0.1829 -0.9972
  377MOL0     C50789   6.125   5.637   8.144  0.0568  0.8464  0.3058
  377MOL0     O50790   6.090   5.755   8.091  0.6632  0.9552  0.0018
  377MOL0     C50791   6.040   5.855   8.177  0.0493  0.4868  0.1101
  377MOL0     C50792   6.093   5.992   8.172  0.3712  1.0961 -0.3806
  377MOL0     C50793   6.046   6.082   8.264  0.3494 -1.0805  1.5426
  377MOL0     C50794   5.945   6.060   8.358  0.2357  0.3583  0.2835
  377MOL0     O50795   5.906   6.153   8.449 -0.4740  0.4280 -0.1600
  377MOL0     C50796   5.777   6.136   8.512 -0.1746 -0.8486  0.0447
  377MOL0     C50797   5.803   6.093   8.650 -0.0417  0.6926 -0.0577
  377MOL0     C50798   5.675   6.040   8.718 -0.3402 -0.3611 -0.0548
  377MOL0     C50799   5.592   6.160   8.774  0.3679  0.8625 -0.2784
  377MOL0     C50800   5.467   6.119   8.860 -0.0430  0.2593  0.4056
  377MOL0     C50801   5.500   6.007   8.963 -0.7275 -0.0884  0.7854
  377MOL0     C50802   5.380   5.979   9.052  0.7059  0.2928  0.4058
  377MOL0     C50803   5.398   5.853   9.140  0.2657 -0.1066 -0.2713
  377MOL0    Cl50804   5.564   5.786   9.119  0.1250 -0.7058 -0.3411
  377MOL0     C50805   5.892   5.924   8.363 -0.2635  0.6968  0.5887
  377MOL0     C50806   5.953   5.827   8.280 -0.7537 -0.0682 -0.1830
  377MOL0     O50807   6.120   5.605   8.264  0.0607  0.0125  0.3397
  377MOL0     C50808   6.205   5.403   8.066 -0.4356  0.6990 -0.5888
  377MOL0     C50809   6.237   5.309   7.965  1.0658 -0.2743 -0.4883
  377MOL0     N50810   6.319   4.789   7.263 -0.3343  0.1107 -0.0172
  377MOL0     N50811   6.252   4.685   7.292  0.1123 -0.5665  0.8570
  377MOL0     C50812   6.780   3.687   7.684 -0.5112  0.3881 -1.2736
  377MOL0     C50813   6.833   3.563   7.733  0.4978  0.9927  0.8940
  377MOL0     C50814   7.064   3.247   7.966  0.5735 -0.8431 -0.0083
  377MOL0     C50815   7.083   3.176   7.843  0.5939 -0.1551  0.1257
  377MOL0     C50816   7.136   3.047   7.842  1.2609 -0.3517 -0.3816
  377MOL0     C50817   7.181   2.987   7.965 -0.2204 -0.5715 -0.2436
  377MOL0     O50818   7.258   2.875   7.970 -0.3664 -0.2028  0.1311
  377MOL0     C50819   7.278   2.768   7.883  0.1383 -1.0498  0.1004
  377MOL0     C50820   7.364   2.807   7.760  0.5263  0.8732  0.2525
  377MOL0     C50821   7.461   2.698   7.727 -0.5691  0.5744  0.0359
  377MOL0     C50822   7.520   2.711   7.597  0.0071  0.1706  0.5318
  377MOL0     C50823   7.610   2.825   7.607  0.1418  0.4495 -0.5296
  377MOL0     C50824   7.673   2.922   7.597 -0.7294 -0.1999 -0.1750
  377MOL0     C50825   7.158   3.058   8.080  0.1958 -0.1879  0.2190
  377MOL0     C50826   7.093   3.180   8.083 -0.0368 -0.1428 -0.0630
  377MOL0     C50827   7.063   3.243   8.219 -0.4045 -0.3857 -0.6491
  377MOL0     H50828   7.137   3.645   7.834  0.1009 -2.6323  0.1665
  377MOL0     H50829   7.065   3.867   7.731  0.8280 -0.0226 -0.3988
  377MOL0     H50830   6.630   3.979   7.693  0.3393  5.1069 -1.1032
  377MOL0     H50831   6.759   3.974   7.818 -0.8357  0.4506 -0.5629
  377MOL0     H50832   6.734   4.137   7.551  0.2089  1.1383  0.0596
  377MOL0     H50833   6.841   4.177   7.698 -0.2409 -1.0614  2.7981
  377MOL0     H50834   6.675   4.325   7.720  1.5748 -0.9609  2.2807
  377MOL0     H50835   6.586   4.184   7.781  0.5838 -2.4891  0.0320
  377MOL0     H50836   6.553   4.270   7.491 -0.6930 -1.5262 -1.4417
  377MOL0     H50837   6.462   4.152   7.576  2.2127 -1.6894  1.5257
  377MOL0     H50838   6.361   4.316   7.725 -1.8277  0.8680 -0.7767
  377MOL0     H50839   6.480   4.439   7.666 -0.5792  0.4304 -1.8505
  377MOL0     H50840   6.382   4.439   7.446  0.7086 -2.3915 -0.8590
  377MOL0     H50841   6.259   4.327   7.481 -2.7476  3.2319 -0.2925
  377MOL0     H50842   6.301   4.584   7.648 -0.1800  0.6641  1.6950
  377MOL0     H50843   6.184   4.462   7.685 -3.5757  2.5823 -0.8010
  377MOL0     H50844   6.121   4.495   7.417  2.6763  0.2765 -1.0277
  377MOL0     H50845   6.068   4.600   7.548  1.5559  1.1544  1.0436
  377MOL0     H50846   6.270   4.809   7.583 -2.8753 -3.6185  0.6342
  377MOL0     H50847   6.496   4.981   7.440 -0.1549  1.5148  1.6098
  377MOL0     H50848   6.400   5.041   7.306 -0.5555  1.5160  0.4865
  377MOL0     H50849   6.232   5.120   7.451 -0.3620  1.7322 -0.5068
  377MOL0     H50850   6.284   5.035   7.594  0.6882  0.6999  0.8742
  377MOL0     H50851   6.469   5.224   7.443  2.2808 -0.7477  1.6476
  377MOL0     H50852   6.497   5.143   7.601  1.0311 -0.4425 -0.1973
  377MOL0     H50853   6.289   5.366   7.559 -2.3302 -1.9076  1.9733
  377MOL0     H50854   6.441   5.376   7.662 -0.3700  1.1706  0.2048
  377MOL0     H50855   6.220   5.535   7.707  0.6441 -0.1214 -0.1919
  377MOL0     H50856   6.131   5.665   7.873  0.6171 -0.1461  0.1112
  377MOL0     H50857   6.178   6.016   8.109  1.8771 -2.1249  0.2554
  377MOL0     H50858   6.087   6.182   8.274  1.1084 -0.8556 -2.5055
  377MOL0     H50859   5.721   6.230   8.508  0.8460 -0.0025  3.1479
  377MOL0     H50860   5.711   6.065   8.462 -0.4359 -1.7142  1.5663
  377MOL0     H50861   5.873   6.009   8.645 -1.4232 -0.4607 -0.3623
  377MOL0     H50862   5.847   6.168   8.716  0.5562  0.5166 -0.2504
  377MOL0     H50863   5.615   5.982   8.647 -0.8271  1.2555 -1.0224
  377MOL0     H50864   5.712   5.983   8.803  0.1324 -0.7683 -0.5274
  377MOL0     H50865   5.558   6.231   8.699  0.7425 -0.3661 -1.6602
  377MOL0     H50866   5.656   6.212   8.845  0.8055  1.0036 -0.7751
  377MOL0     H50867   5.377   6.089   8.805  0.0368  3.2630 -1.5891
  377MOL0     H50868   5.435   6.204   8.921 -1.4212  0.5770 -0.7169
  377MOL0     H50869   5.527   5.922   8.901  2.8743  1.1035  0.4960
  377MOL0     H50870   5.590   6.037   9.018  0.8673 -1.3397 -1.0121
  377MOL0     H50871   5.293   5.961   8.987 -0.9322 -1.8588  2.9917
  377MOL0     H50872   5.357   6.068   9.111 -0.8956 -0.5518  1.1070
  377MOL0     H50873   5.367   5.875   9.243  0.2536 -0.8686 -0.1070
  377MOL0     H50874   5.332   5.777   9.096  1.4440 -0.8070 -0.8669
  377MOL0     H50875   5.822   5.890   8.438 -1.7616  0.3329 -0.8949
  377MOL0     H50876   5.921   5.723   8.284  0.0769 -0.4180 -1.8188
  377MOL0     H50877   6.202   5.373   8.170  1.6523 -1.8022 -1.1524
  377MOL0     H50878   6.241   5.203   7.984 -2.8353 -0.0806  2.6174
  377MOL0     H50879   6.678   3.693   7.648 -1.4556  1.0324  1.2407
  377MOL0     H50880   6.776   3.472   7.720  1.2389  0.3557  1.8761
  377MOL0     H50881   7.086   3.218   7.743 -1.6456 -3.2226 -1.4045
  377MOL0     H50882   7.150   3.001   7.745  0.0706 -2.3080  0.3108
  377MOL0     H50883   7.182   2.751   7.833 -0.1147 -2.3330  0.9860
  377MOL0     H50884   7.296   2.672   7.932  1.0766  0.7651  3.6591
  377MOL0     H50885   7.419   2.897   7.788  0.8415  1.1577 -1.1825
  377MOL0     H50886   7.309   2.829   7.667 -0.0082 -1.3451 -0.0251
  377MOL0     H50887   7.401   2.608   7.714 -0.8654  1.0442 -2.3366
  377MOL0     H50888   7.536   2.686   7.806  0.4147  0.2814 -0.9218
  377MOL0     H50889   7.577   2.620   7.576 -3.2237 -2.6574  2.8732
  377MOL0     H50890   7.450   2.742   7.519  0.5312 -0.0974 -0.0487
  377MOL0     H50891   7.738   3.007   7.597 -2.9875  1.6213 -0.3896
  377MOL0     H50892   7.198   3.022   8.174  0.3592 -1.7189 -0.4056
  377MOL0     H50893   6.956   3.265   8.215  0.0538  2.5941  0.8145
  377MOL0     H50894   7.085   3.181   8.306 -1.1505 -0.2375 -0.3463
  377MOL0     H50895   7.121   3.334   8.238  2.7601 -2.6049  1.0307
  378MOL0     O50896   7.808   2.530   8.165  0.4461 -0.6027 -0.0144
  378MOL0     C50897   7.699   2.588   8.185 -0.8728  0.4791 -0.5763
  378MOL0     O50898   7.588   2.538   8.247  0.1104  0.5715  0.3598
  378MOL0     C50899   7.564   2.403   8.271 -0.1857  0.2499 -1.5973
  378MOL0     C50900   7.624   2.293   8.206  0.9968 -0.9674 -0.5529
  378MOL0     C50901   7.563   2.170   8.235  0.2015  0.0650 -0.2613
  378MOL0     C50902   7.454   2.152   8.320 -0.7458  0.5711 -0.8923
  378MOL0     O50903   7.411   2.018   8.334  0.1042  0.2372  0.3108
  378MOL0     C50904   7.290   1.984   8.407  1.0948 -0.3423  0.5655
  378MOL0     C50905   7.270   1.831   8.433  0.8416  0.6147 -0.8545
  378MOL0     C50906   7.251   1.750   8.302  0.4114 -2.0129  0.0016
  378MOL0     C50907   7.257   1.597   8.320 -0.0468  0.7420  0.3160
  378MOL0     C50908   7.153   1.547   8.422 -0.1070 -0.7708 -0.6162
  378MOL0     C50909   7.109   1.403   8.387  0.6496 -1.0685 -0.5597
  378MOL0     C50910   6.972   1.377   8.458 -0.6959  0.0395 -0.5235
  378MOL0     C50911   6.971   1.378   8.608 -0.6346  1.0073  0.1028
  378MOL0     N50912   6.834   1.398   8.655 -0.4349 -0.2898  0.0197
  378MOL0     C50913   6.733   1.299   8.643  0.4031 -0.3240  0.5211
  378MOL0     C50914   6.641   1.366   8.709 -0.0162 -0.2603  0.1160
  378MOL0     C50915   6.508   1.302   8.725 -0.2816 -0.5176 -0.8614
  378MOL0     C50916   6.499   1.232   8.860  0.3494 -0.5368 -0.0318
  378MOL0     C50917   6.484   1.333   8.975 -0.7009  0.8455  0.5621
  378MOL0     C50918   6.448   1.268   9.109  1.0531 -0.1365  0.3728
  378MOL0     O50919   6.547   1.172   9.136 -0.3061  0.1111 -0.1934
  378MOL0     C50920   6.528   1.084   9.236 -0.3269  0.3359 -0.7243
  378MOL0     C50921   6.586   0.956   9.231 -0.1572  0.8328 -0.3161
  378MOL0     C50922   6.582   0.864   9.340 -0.0030  0.4396 -0.2302
  378MOL0     C50923   6.518   0.906   9.457 -0.0945  0.5562  0.2686
  378MOL0     C50924   6.512   0.820   9.579  0.3276  0.7787 -0.3261
  378MOL0     O50925   6.418   0.842   9.676 -0.5470  0.6474  0.2625
  378MOL0     C50926   6.421   0.761   9.786 -0.8433 -0.5958 -0.6521
  378MOL0     C50927   6.395   0.831   9.913  0.5672 -1.2466  0.8908
  378MOL0     C50928   6.391   0.760  10.031 -0.5987 -0.1147 -0.1931
  378MOL0     C50929   6.413   0.632  10.030  0.9701  0.7876 -0.7569
  378MOL0     O50930   6.410   0.554  10.147  0.1739  0.5532 -0.3526
  378MOL0     C50931   6.432   0.607  10.283 -0.4218  0.6159  0.1795
  378MOL0     C50932   6.584   0.644  10.315  0.1793  0.2920  0.0463
  378MOL0     C50933   6.602   0.652  10.473 -0.1746 -0.3730  0.9023
  378MOL0     C50934   6.742   0.704  10.516  0.5020  0.0455 -0.7023
  378MOL0     C50935   6.800   0.824  10.434 -0.4629 -0.4038  0.2470
  378MOL0     C50936   6.712   0.950  10.465 -0.3596 -0.0986  0.0223
  378MOL0     C50937   6.761   1.069  10.382 -1.1206 -0.3462 -0.2546
  378MOL0     C50938   6.733   1.187  10.460 -0.1966  0.6301  0.0492
  378MOL0    Cl50939   6.812   1.337  10.401 -0.1539 -0.1261  0.1261
  378MOL0     C50940   6.417   0.561   9.911 -0.9535  0.5448  0.3043
  378MOL0     C50941   6.429   0.621   9.790 -1.2483  0.3695  0.1060
  378MOL0     O50942   6.592   0.727   9.580 -0.2763 -0.3350  0.1304
  378MOL0     C50943   6.464   1.037   9.463 -0.7422  0.1120  0.0459
  378MOL0     C50944   6.470   1.126   9.360  0.5426  0.6721 -0.2567
  378MOL0     N50945   6.672   1.500   8.729 -0.5044 -0.2005 -0.1838
  378MOL0     N50946   6.791   1.518   8.690 -0.1412  0.4719 -1.1410
  378MOL0     C50947   7.397   2.259   8.383  0.5810  0.3767  0.2259
  378MOL0     C50948   7.453   2.386   8.363 -0.5506  1.4597 -0.1470
  378MOL0     C50949   7.687   2.732   8.143  0.2355 -0.2916 -0.4473
  378MOL0     C50950   7.556   2.794   8.161 -0.2832  0.3669 -0.4604
  378MOL0     C50951   7.537   2.928   8.139 -0.0802  1.0883  0.7760
  378MOL0     C50952   7.635   3.009   8.097 -0.5283 -0.6588 -0.3577
  378MOL0     O50953   7.584   3.129   8.058  0.3738  0.3481  0.5144
  378MOL0     C50954   7.606   3.168   7.925  0.7972  0.3771  0.3430
  378MOL0     C50955   7.485   3.252   7.881 -0.5992 -0.2389 -0.6294
  378MOL0     C50956   7.494   3.399   7.911 -0.6271 -0.7874  0.7183
  378MOL0     C50957   7.595   3.471   7.821 -0.1855 -0.0603  0.1144
  378MOL0     C50958   7.557   3.493   7.683  0.1962 -0.3594 -0.1018
  378MOL0     C50959   7.518   3.502   7.568  0.8130  1.2082 -0.1668
  378MOL0     C50960   7.760   2.965   8.069  0.6996  0.1209 -0.4420
  378MOL0     C50961   7.786   2.826   8.102  0.0938 -0.6560 -0.4201
  378MOL0     C50962   7.927   2.785   8.096  0.9549 -1.1192 -0.4322
  378MOL0     H50963   7.709   2.313   8.143 -0.4259 -0.0623 -2.2887
  378MOL0     H50964   7.595   2.078   8.186 -0.8894 -1.2938  1.4316
  378MOL0     H50965   7.302   2.035   8.502  0.9572  0.9773 -0.1097
  378MOL0     H50966   7.204   2.022   8.351  1.7517  2.4201  1.2955
  378MOL0     H50967   7.190   1.800   8.501  0.3288 -0.4826 -1.9259
  378MOL0     H50968   7.372   1.811   8.468  0.1829  0.6051  1.2037
  378MOL0     H50969   7.324   1.790   8.232 -0.8003 -0.1970 -0.2960
  378MOL0     H50970   7.155   1.781   8.260  2.3076  0.0796 -3.1979
  378MOL0     H50971   7.255   1.534   8.230 -1.5955 -0.3271  1.0403
  378MOL0     H50972   7.357   1.588   8.362 -0.0205 -0.9174 -0.0021
  378MOL0     H50973   7.191   1.559   8.523 -0.4173 -2.7586 -0.2306
  378MOL0     H50974   7.063   1.608   8.411 -1.3743 -2.3777  0.5017
  378MOL0     H50975   7.092   1.410   8.279  0.0693 -2.2701 -0.5667
  378MOL0     H50976   7.186   1.327   8.406  0.0348 -1.3797  0.7929
  378MOL0     H50977   6.933   1.287   8.408  0.3542  0.4830 -2.2321
  378MOL0     H50978   6.894   1.442   8.419  0.9152  0.6259 -3.0081
  378MOL0     H50979   7.006   1.283   8.649 -2.1204 -0.1271 -1.1246
  378MOL0     H50980   7.024   1.466   8.644 -3.7925  2.2609  2.1103
  378MOL0     H50981   6.743   1.198   8.604 -2.6081 -0.8090  0.7450
  378MOL0     H50982   6.437   1.386   8.720 -0.0025 -0.1759  0.4589
  378MOL0     H50983   6.487   1.223   8.653  1.8712  0.7819 -3.0320
  378MOL0     H50984   6.413   1.164   8.854 -1.0790  1.2730 -1.4336
  378MOL0     H50985   6.584   1.165   8.864  0.5997 -0.1600  1.2306
  378MOL0     H50986   6.405   1.402   8.943 -1.2814 -0.4448 -0.9412
  378MOL0     H50987   6.573   1.394   8.985 -0.3269  0.4404 -0.1947
  378MOL0     H50988   6.349   1.222   9.101  1.2551 -1.3012  3.4288
  378MOL0     H50989   6.437   1.340   9.190 -0.9643 -1.1277  1.0547
  378MOL0     H50990   6.648   0.920   9.149 -0.3843  1.7572 -0.9064
  378MOL0     H50991   6.624   0.764   9.329 -0.1740  0.3603 -0.1739
  378MOL0     H50992   6.375   0.938   9.910  1.8832 -0.9733  1.2925
  378MOL0     H50993   6.369   0.811  10.124 -2.0659  0.5131 -0.8545
  378MOL0     H50994   6.375   0.694  10.314 -0.9263 -0.6400  3.0454
  378MOL0     H50995   6.409   0.529  10.356 -0.0641 -0.8077 -1.1723
  378MOL0     H50996   6.651   0.562  10.287 -2.2701 -1.2063 -1.8787
  378MOL0     H50997   6.618   0.738  10.270  1.4667 -0.2318 -0.1169
  378MOL0     H50998   6.513   0.706  10.506 -1.0800 -2.6320  2.3718
  378MOL0     H50999   6.597   0.547  10.503  1.0754 -0.3942  1.1182
  378MOL0     H51000   6.812   0.621  10.501 -1.3783 -1.5638 -1.0029
  378MOL0     H51001   6.729   0.741  10.618  0.5038 -0.7094 -0.4222
  378MOL0     H51002   6.810   0.805  10.327  1.0647 -1.0181  0.4757
  378MOL0     H51003   6.898   0.849  10.475 -1.2168  1.0132  1.2861
  378MOL0     H51004   6.607   0.941  10.435  0.0778  1.1601 -2.1183
  378MOL0     H51005   6.716   0.964  10.574 -3.5603 -1.9152  0.5042
  378MOL0     H51006   6.723   1.084  10.281 -0.5857  3.3630 -0.0332
  378MOL0     H51007   6.870   1.067  10.378 -1.0518  1.5990 -0.3231
  378MOL0     H51008   6.624   1.190  10.455 -0.3333  0.2415  1.9601
  378MOL0     H51009   6.758   1.163  10.564 -2.8311  5.3932  2.1497
  378MOL0     H51010   6.418   0.453   9.920 -0.6675  0.3337 -1.7597
  378MOL0     H51011   6.433   0.575   9.692  0.2443  0.9928 -0.1400
  378MOL0     H51012   6.431   1.065   9.562  3.2007  2.0418  1.0003
  378MOL0     H51013   6.447   1.231   9.375 -0.0251  0.6948 -1.2060
  378MOL0     H51014   7.310   2.240   8.444 -1.8157  0.7033 -2.8598
  378MOL0     H51015   7.430   2.475   8.421 -0.1978  0.8779  0.9104
  378MOL0     H51016   7.463   2.748   8.193 -0.7631 -0.3159 -2.6261
  378MOL0     H51017   7.434   2.962   8.144 -0.9849 -1.4468  0.8232
  378MOL0     H51018   7.621   3.081   7.860  0.8957 -0.3360  1.3090
  378MOL0     H51019   7.695   3.226   7.900 -0.3665  0.4660 -4.7830
  378MOL0     H51020   7.396   3.217   7.935 -0.0357 -0.7963 -0.0384
  378MOL0     H51021   7.475   3.242   7.773 -0.3971  2.0883 -0.9100
  378MOL0     H51022   7.519   3.406   8.017 -0.5812  0.6921  0.6261
  378MOL0     H51023   7.391   3.434   7.902 -0.0283  1.0424  0.5957
  378MOL0     H51024   7.610   3.563   7.877  0.2273  0.3495 -0.6462
  378MOL0     H51025   7.692   3.420   7.814 -0.7028 -1.0480 -0.0249
  378MOL0     H51026   7.499   3.495   7.463 -1.1641 -1.8121  0.2613
  378MOL0     H51027   7.840   3.036   8.055 -0.9930  2.0445 -0.8310
  378MOL0     H51028   7.996   2.869   8.088 -1.7550  1.2519 -0.4247
  378MOL0     H51029   7.953   2.723   8.183 -0.1747 -2.1220 -0.7874
  378MOL0     H51030   7.949   2.716   8.014  0.5704 -1.2990 -0.3842
  379MOL0     O51031   8.882   7.089   6.786  0.1447 -0.1074 -0.1401
  379MOL0     C51032   8.888   7.208   6.775  0.4420 -0.5904  0.6494
  379MOL0     O51033   8.994   7.289   6.795  0.5114 -0.7801 -0.5162
  379MOL0     C51034   9.113   7.238   6.806  0.0582  0.8037  0.1806
  379MOL0     C51035   9.166   7.209   6.929  0.2761 -0.3370  0.0155
  379MOL0     C51036   9.296   7.166   6.939 -0.9040  0.0748  0.1092
  379MOL0     C51037   9.378   7.150   6.830 -0.6568 -0.6925  0.8108
  379MOL0     O51038   9.504   7.092   6.846  0.5369  0.0457 -0.7058
  379MOL0     C51039   9.592   7.059   6.732 -0.0982 -0.0091  0.7281
  379MOL0     C51040   9.725   6.985   6.763 -0.6118  0.4843 -0.2771
  379MOL0     C51041   9.819   7.087   6.832 -0.3547 -0.4056  0.3213
  379MOL0     C51042   9.951   7.029   6.885  0.9941  0.4223 -0.9298
  379MOL0     C51043  10.027   7.143   6.945 -1.1753  0.3790  0.1825
  379MOL0     C51044  10.168   7.098   6.994 -0.0805 -0.5316  0.9561
  379MOL0     C51045  10.165   7.002   7.110 -0.7989  0.0375 -0.7616
  379MOL0     C51046  10.298   6.932   7.147  0.5980 -1.0421  0.5198
  379MOL0     N51047  10.399   7.036   7.186  0.1998 -0.8233 -0.7434
  379MOL0     C51048  10.372   7.100   7.311  0.0719 -1.1014  0.0856
  379MOL0     C51049  10.460   7.203   7.320 -0.2777  0.0081  0.2962
  379MOL0     C51050  10.478   7.289   7.439  0.2767  0.2958 -0.3824
  379MOL0     C51051  10.353   7.362   7.483 -0.1151 -0.4406 -1.1090
  379MOL0     C51052  10.292   7.450   7.370  0.2544  0.1761  0.1991
  379MOL0     C51053  10.162   7.400   7.309 -0.2333 -0.9417  1.1201
  379MOL0     O51054  10.047   7.400   7.401 -0.2835 -0.3252  0.3254
  379MOL0     C51055   9.913   7.415   7.344 -0.5582 -0.0738 -0.0226
  379MOL0     C51056   9.819   7.439   7.437  0.1215 -0.6322 -0.0429
  379MOL0     C51057   9.689   7.439   7.392 -0.0411 -0.3426  1.2523
  379MOL0     C51058   9.649   7.423   7.256 -0.6272 -0.6306 -0.3404
  379MOL0     C51059   9.509   7.435   7.225 -0.8942 -0.3211  0.3865
  379MOL0     O51060   9.415   7.433   7.327 -0.0214  0.0699  0.5058
  379MOL0     C51061   9.285   7.447   7.292 -0.6361 -0.1447 -0.7678
  379MOL0     C51062   9.178   7.358   7.315 -0.7079 -0.5611  0.2327
  379MOL0     C51063   9.046   7.394   7.275  0.0190  0.4004  0.1454
  379MOL0     C51064   9.013   7.520   7.230 -0.4245  0.4601 -0.0402
  379MOL0     O51065   8.890   7.569   7.196  0.8596 -0.2243 -0.1617
  379MOL0     C51066   8.783   7.479   7.175  0.2416  0.7018  0.6658
  379MOL0     C51067   8.668   7.565   7.120 -0.2989  0.2266  0.5690
  379MOL0     C51068   8.699   7.657   7.001  0.1082 -1.1268 -0.6790
  379MOL0     C51069   8.585   7.750   6.973 -0.2003  0.2921  0.1770
  379MOL0     C51070   8.583   7.804   6.828  0.1725  0.5677  0.0861
  379MOL0     C51071   8.517   7.944   6.815  0.0118  1.6787 -0.1759
  379MOL0     C51072   8.531   7.994   6.676  0.0564 -0.0145 -0.2421
  379MOL0     C51073   8.434   8.113   6.654 -0.0337  0.8625 -0.3360
  379MOL0    Cl51074   8.435   8.158   6.475  0.3050  0.5462 -0.3136
  379MOL0     C51075   9.117   7.617   7.218  0.6661  0.1163  1.2374
  379MOL0     C51076   9.248   7.577   7.247  0.6233  0.5068 -0.0757
  379MOL0     O51077   9.480   7.459   7.106 -0.5706 -1.4623 -0.6988
  379MOL0     C51078   9.755   7.424   7.166 -0.4182 -0.3279 -0.3627
  379MOL0     C51079   9.889   7.400   7.201  0.7187  1.2553 -0.6471
  379MOL0     N51080  10.520   7.198   7.195 -1.2778  0.5269 -0.8156
  379MOL0     N51081  10.488   7.098   7.121  0.5932 -1.2162 -0.0736
  379MOL0     C51082   9.326   7.183   6.702 -0.8156 -0.3185  0.2985
  379MOL0     C51083   9.195   7.226   6.696 -0.5333  0.6637  0.1924
  379MOL0     C51084   8.773   7.265   6.701 -0.5200  0.3041 -0.8122
  379MOL0     C51085   8.661   7.186   6.691  0.0308  0.6325  0.2118
  379MOL0     C51086   8.542   7.236   6.658 -0.2165  0.3036  0.9632
  379MOL0     C51087   8.533   7.369   6.622  0.4193 -0.1459  0.2736
  379MOL0     O51088   8.411   7.432   6.594 -0.0892  0.5152 -0.3804
  379MOL0     C51089   8.291   7.373   6.657 -0.8492  0.2389 -0.4174
  379MOL0     C51090   8.177   7.478   6.667  0.3904  0.3231  0.4449
  379MOL0     C51091   8.216   7.566   6.791  1.3949 -0.1692 -0.9732
  379MOL0     C51092   8.149   7.702   6.770 -0.1010  0.7972  0.0494
  379MOL0     C51093   8.190   7.775   6.648 -0.0226 -0.3772 -0.8334
  379MOL0     C51094   8.233   7.837   6.554 -1.0761  0.1441  0.2223
  379MOL0     C51095   8.639   7.450   6.625  0.0157  0.3044 -0.1404
  379MOL0     C51096   8.764   7.397   6.660  0.0931 -0.1692 -0.6762
  379MOL0     C51097   8.876   7.499   6.668  1.1196  0.8991 -0.1000
  379MOL0     H51098   9.104   7.231   7.016  1.4655 -0.5687  0.9570
  379MOL0     H51099   9.320   7.127   7.038 -2.2078 -2.3172 -0.4302
  379MOL0     H51100   9.537   6.995   6.663 -0.9294  1.5399 -0.0958
  379MOL0     H51101   9.618   7.148   6.675 -4.4315  0.6825 -0.5550
  379MOL0     H51102   9.767   6.937   6.675 -2.0973 -2.1586  0.3432
  379MOL0     H51103   9.700   6.911   6.840  0.7069  0.7099  0.3998
  379MOL0     H51104   9.749   7.135   6.900 -2.3537 -2.7516  0.0620
  379MOL0     H51105   9.850   7.166   6.763 -2.5928 -0.3433 -0.6964
  379MOL0     H51106   9.918   6.952   6.955  1.1818 -2.4303 -3.7118
  379MOL0     H51107  10.012   6.980   6.808  1.1135 -1.3857  0.2444
  379MOL0     H51108  10.044   7.227   6.878 -0.0072 -0.9945 -1.3539
  379MOL0     H51109   9.982   7.195   7.030 -1.0360 -0.0498  0.5225
  379MOL0     H51110  10.209   7.045   6.907  0.4743  0.8481  0.3488
  379MOL0     H51111  10.228   7.188   7.010 -0.1986 -0.5761  1.6546
  379MOL0     H51112  10.092   6.923   7.093 -0.2964 -0.5531 -0.1954
  379MOL0     H51113  10.127   7.053   7.199  4.1275 -1.9052  2.9233
  379MOL0     H51114  10.289   6.866   7.233 -2.3268 -0.7553  0.5428
  379MOL0     H51115  10.350   6.874   7.070  1.7265  1.8755 -1.0914
  379MOL0     H51116  10.304   7.067   7.388 -1.5420  0.7032 -0.4656
  379MOL0     H51117  10.489   7.230   7.530 -0.1446  2.6390  1.2866
  379MOL0     H51118  10.564   7.356   7.429  1.7454 -1.5863 -1.0007
  379MOL0     H51119  10.283   7.287   7.520  1.2301 -2.3612 -2.2628
  379MOL0     H51120  10.383   7.430   7.563 -0.0581  1.2949 -2.5441
  379MOL0     H51121  10.366   7.452   7.290 -0.7297 -1.0857 -0.7852
  379MOL0     H51122  10.286   7.555   7.398  1.6272 -0.5387  3.7455
  379MOL0     H51123  10.174   7.300   7.268  2.6088 -0.8021  1.4298
  379MOL0     H51124  10.147   7.466   7.223  0.5320 -0.1596  1.5671
  379MOL0     H51125   9.854   7.444   7.540  1.2819 -3.3941 -0.2017
  379MOL0     H51126   9.626   7.467   7.476  0.7066  3.1313  0.8028
  379MOL0     H51127   9.201   7.261   7.359  1.7176  0.4628  1.4072
  379MOL0     H51128   8.970   7.320   7.295  0.2378  0.2491  0.4316
  379MOL0     H51129   8.815   7.406   7.100  1.0838 -0.6802  2.3179
  379MOL0     H51130   8.756   7.430   7.269 -0.9333 -0.7009 -0.3506
  379MOL0     H51131   8.594   7.489   7.091  0.1574 -0.4884  1.2316
  379MOL0     H51132   8.608   7.611   7.200 -1.0486 -0.8816  0.6777
  379MOL0     H51133   8.793   7.712   7.012  0.7823 -1.4280 -3.7559
  379MOL0     H51134   8.728   7.586   6.923  0.7184 -0.5700 -0.9666
  379MOL0     H51135   8.569   7.832   7.044  0.8506  3.4431 -2.9628
  379MOL0     H51136   8.494   7.690   6.978  0.2001 -0.4268 -0.9615
  379MOL0     H51137   8.546   7.727   6.760 -0.7558  0.4490  0.7016
  379MOL0     H51138   8.687   7.816   6.796  0.9551 -1.4553  1.6154
  379MOL0     H51139   8.411   7.939   6.843 -0.2713  0.3091 -1.4136
  379MOL0     H51140   8.558   8.013   6.889 -1.5979  1.7262  0.7316
  379MOL0     H51141   8.502   7.911   6.611  2.2939 -0.4512 -0.7644
  379MOL0     H51142   8.635   8.024   6.661 -0.5656  1.5108 -1.9495
  379MOL0     H51143   8.336   8.077   6.686  0.4764 -0.9211 -0.6779
  379MOL0     H51144   8.465   8.201   6.711  0.0402 -1.0329  2.7954
  379MOL0     H51145   9.096   7.713   7.172 -1.7744 -1.9225 -2.4557
  379MOL0     H51146   9.329   7.649   7.244 -0.9164  2.7627  4.2196
  379MOL0     H51147   9.730   7.421   7.061 -1.4746  0.5943 -0.1669
  379MOL0     H51148   9.960   7.377   7.121  0.4954  0.2951 -0.5865
  379MOL0     H51149   9.383   7.192   6.610 -1.9487  0.9109 -0.3217
  379MOL0     H51150   9.145   7.243   6.601 -1.8379 -2.3733  0.2129
  379MOL0     H51151   8.651   7.082   6.717  0.8356 -0.2152 -2.5216
  379MOL0     H51152   8.461   7.167   6.636  1.6430 -0.6189 -4.4631
  379MOL0     H51153   8.315   7.338   6.758  3.3764  1.6031 -0.7667
  379MOL0     H51154   8.262   7.286   6.597  0.7494 -1.9123  1.7371
  379MOL0     H51155   8.078   7.434   6.682 -0.5226  2.3861  0.8253
  379MOL0     H51156   8.170   7.526   6.569 -3.6222 -1.6126 -0.4481
  379MOL0     H51157   8.323   7.586   6.806  1.2226  0.9813 -1.1784
  379MOL0     H51158   8.178   7.533   6.888 -0.2051  3.0209 -0.3590
  379MOL0     H51159   8.040   7.687   6.768  0.0903 -1.9827  2.9020
  379MOL0     H51160   8.173   7.773   6.850  0.9076  0.1124  0.3785
  379MOL0     H51161   8.277   7.897   6.477  0.4851 -1.3722 -0.1454
  379MOL0     H51162   8.628   7.552   6.589 -0.3864  0.1131 -0.5624
  379MOL0     H51163   8.874   7.537   6.770  0.8137  0.1241  0.1928
  379MOL0     H51164   8.969   7.451   6.637  1.3333  2.0308 -1.2867
  379MOL0     H51165   8.851   7.580   6.600 -3.7792  2.0221  2.5303
  380MOL0     O51166   6.512   3.509   5.181  0.5439  0.6738 -0.7833
  380MOL0     C51167   6.415   3.471   5.241 -0.3146 -0.0019 -0.2659
  380MOL0     O51168   6.329   3.562   5.302 -1.2054 -0.5320  0.2448
  380MOL0     C51169   6.364   3.691   5.319 -0.4683  0.5675 -0.6173
  380MOL0     C51170   6.258   3.782   5.353  0.2405  0.3366  0.3327
  380MOL0     C51171   6.287   3.914   5.371 -0.9937  0.5976  0.0888
  380MOL0     C51172   6.420   3.957   5.375 -0.1486  0.3409  1.3652
  380MOL0     O51173   6.442   4.094   5.390 -0.1491 -0.2821  0.3591
  380MOL0     C51174   6.550   4.143   5.463 -0.0077 -0.4431  0.1830
  380MOL0     C51175   6.672   4.194   5.389  0.8412 -0.1500 -0.3424
  380MOL0     C51176   6.681   4.337   5.349  0.0017 -0.3299  0.3783
  380MOL0     C51177   6.824   4.363   5.286  0.3237 -0.2824  0.0003
  380MOL0     C51178   6.828   4.353   5.138  0.9550  0.6236  0.2326
  380MOL0     C51179   6.965   4.401   5.083  0.4737  0.1187  0.3267
  380MOL0     C51180   6.984   4.360   4.928  0.1151 -0.2845 -0.1837
  380MOL0     C51181   6.882   4.427   4.834  0.3275  0.1619  0.2023
  380MOL0     N51182   6.873   4.572   4.865 -0.7503 -0.1990  0.9406
  380MOL0     C51183   6.972   4.665   4.869  0.1315  0.0078  0.0235
  380MOL0     C51184   6.909   4.786   4.891 -0.9890 -0.7838 -0.5650
  380MOL0     C51185   6.977   4.910   4.943  0.7130  0.8049 -0.5202
  380MOL0     C51186   7.011   5.024   4.838  0.0775  0.2022 -0.2339
  380MOL0     C51187   7.108   5.126   4.902 -0.4794  0.2325 -0.0860
  380MOL0     C51188   7.053   5.188   5.040 -0.0573 -0.1990  1.1574
  380MOL0     O51189   7.119   5.127   5.149 -0.2747 -0.6905  0.1402
  380MOL0     C51190   7.062   5.155   5.268 -0.6022  0.0083 -0.9418
  380MOL0     C51191   6.973   5.252   5.308  0.0561  0.6322  0.2573
  380MOL0     C51192   6.919   5.270   5.438  0.3699  0.0134  0.2161
  380MOL0     C51193   6.964   5.186   5.542  0.7148 -1.4345  0.4087
  380MOL0     C51194   6.903   5.202   5.672 -0.4668 -0.7672  0.1781
  380MOL0     O51195   6.854   5.325   5.704  0.4332  0.1707  0.1949
  380MOL0     C51196   6.778   5.332   5.822  0.2558 -0.2590 -1.1548
  380MOL0     C51197   6.674   5.244   5.857  1.0674  0.1480  0.2332
  380MOL0     C51198   6.611   5.249   5.986  0.8039  0.0132 -0.2199
  380MOL0     C51199   6.660   5.345   6.075 -0.8034  0.9428  0.0139
  380MOL0     O51200   6.607   5.360   6.205  0.0034 -0.2323  0.2067
  380MOL0     C51201   6.478   5.308   6.244  0.5817  0.2463  0.8702
  380MOL0     C51202   6.440   5.355   6.379  0.6957  0.5651 -1.2188
  380MOL0     C51203   6.441   5.505   6.380 -0.2130  1.2154 -1.1953
  380MOL0     C51204   6.398   5.565   6.514 -0.6071  0.1135  0.9624
  380MOL0     C51205   6.388   5.712   6.491  0.4644  0.2749 -0.7900
  380MOL0     C51206   6.336   5.786   6.613 -0.0674  0.1431  0.1300
  380MOL0     C51207   6.290   5.926   6.571  0.1225  0.1416 -0.1994
  380MOL0     C51208   6.356   6.034   6.651 -0.5868 -0.8276  0.3436
  380MOL0    Cl51209   6.324   6.006   6.831 -0.5633 -0.4140  0.4916
  380MOL0     C51210   6.768   5.427   6.036  0.3474  0.0483  0.6639
  380MOL0     C51211   6.829   5.422   5.917  0.2632 -0.1147  0.4250
  380MOL0     O51212   6.905   5.111   5.746 -0.7479  0.1943 -0.2278
  380MOL0     C51213   7.058   5.085   5.518 -1.1633  0.3518  0.8402
  380MOL0     C51214   7.110   5.072   5.381 -0.5233 -0.3617  0.1476
  380MOL0     N51215   6.776   4.754   4.895 -0.9993 -1.0347  0.4568
  380MOL0     N51216   6.749   4.628   4.876  0.0207  0.8469  0.5445
  380MOL0     C51217   6.524   3.875   5.349 -0.1888  0.0541 -0.3116
  380MOL0     C51218   6.492   3.741   5.324 -0.0131  0.1655  0.6878
  380MOL0     C51219   6.382   3.330   5.247 -0.4901  0.4600  0.6650
  380MOL0     C51220   6.252   3.292   5.285 -0.1440 -0.5159  0.2931
  380MOL0     C51221   6.216   3.150   5.281 -0.5868  0.1839  0.1413
  380MOL0     C51222   6.308   3.048   5.252 -0.2765 -0.0884  0.2016
  380MOL0     O51223   6.256   2.931   5.244  0.2946  1.2481 -0.0958
  380MOL0     C51224   6.337   2.811   5.240 -0.3678 -0.1420  0.5416
  380MOL0     C51225   6.255   2.715   5.166 -0.8984  0.0415  0.7549
  380MOL0     C51226   6.210   2.756   5.020  0.3198  0.8891  0.1928
  380MOL0     C51227   6.318   2.803   4.925  0.1897 -0.7806 -0.2141
  380MOL0     C51228   6.242   2.860   4.817 -0.9879 -0.1437 -0.5506
  380MOL0     C51229   6.211   2.922   4.717 -0.5229 -0.0061  0.0682
  380MOL0     C51230   6.432   3.096   5.202 -0.7339 -0.3866 -1.1574
  380MOL0     C51231   6.474   3.230   5.196  0.3839 -0.1723 -0.3168
  380MOL0     C51232   6.605   3.245   5.129  0.1918  0.0542  0.6578
  380MOL0     H51233   6.154   3.756   5.362  0.4387 -0.3421  0.6984
  380MOL0     H51234   6.212   3.991   5.391 -0.4748  0.8973  0.9304
  380MOL0     H51235   6.516   4.235   5.511 -2.0413  0.7677 -3.2012
  380MOL0     H51236   6.584   4.068   5.534 -0.1288 -1.0530 -0.3931
  380MOL0     H51237   6.690   4.131   5.302  1.1225 -0.5540  0.0009
  380MOL0     H51238   6.757   4.172   5.454  1.8104 -1.7759 -2.0650
  380MOL0     H51239   6.668   4.399   5.438  1.0275 -2.8941  2.4691
  380MOL0     H51240   6.602   4.369   5.281  0.5285 -0.6062 -0.3790
  380MOL0     H51241   6.843   4.470   5.303 -1.6196  0.1470 -0.2825
  380MOL0     H51242   6.905   4.305   5.332 -0.5072  0.3374  2.3780
  380MOL0     H51243   6.826   4.248   5.107 -0.7459  0.4407  0.8550
  380MOL0     H51244   6.741   4.398   5.090  1.1718  0.8305  0.0261
  380MOL0     H51245   6.956   4.510   5.087  2.4277  0.2743  2.5138
  380MOL0     H51246   7.053   4.361   5.135 -0.6431 -1.7362  0.9170
  380MOL0     H51247   6.969   4.251   4.921  0.0858 -0.1900 -2.7790
  380MOL0     H51248   7.087   4.384   4.903  1.2602 -2.5226  2.0007
  380MOL0     H51249   6.910   4.408   4.730  0.8527 -1.0707  0.5475
  380MOL0     H51250   6.789   4.376   4.859  0.1987 -0.1514 -0.8635
  380MOL0     H51251   7.075   4.645   4.842  0.5702  0.7262  1.0742
  380MOL0     H51252   6.907   4.940   5.022 -1.9862 -0.7822 -2.1541
  380MOL0     H51253   7.072   4.894   4.995 -0.8680  3.2947  3.5683
  380MOL0     H51254   7.068   4.982   4.755  2.4077  1.5511  0.5912
  380MOL0     H51255   6.918   5.058   4.792 -2.2021 -0.7502  3.2631
  380MOL0     H51256   7.126   5.213   4.839 -1.4344  1.1332  0.8302
  380MOL0     H51257   7.197   5.062   4.906 -0.6534 -0.0609 -0.9205
  380MOL0     H51258   6.944   5.185   5.040 -0.0511 -0.5400  0.7106
  380MOL0     H51259   7.089   5.290   5.056  2.0494 -0.9415  1.5170
  380MOL0     H51260   6.929   5.306   5.224  0.2351 -1.1160 -1.0102
  380MOL0     H51261   6.841   5.344   5.453  0.0118 -0.2710 -0.2117
  380MOL0     H51262   6.637   5.175   5.782  0.9339  0.4576  0.0124
  380MOL0     H51263   6.526   5.191   6.021  0.2525  1.5245  1.0249
  380MOL0     H51264   6.406   5.342   6.168  0.0590  0.9877  1.6740
  380MOL0     H51265   6.475   5.199   6.241 -2.7096  0.2549  0.0100
  380MOL0     H51266   6.340   5.316   6.401  0.7436  0.6590 -0.8157
  380MOL0     H51267   6.508   5.316   6.456  0.4343 -2.7381 -2.4827
  380MOL0     H51268   6.545   5.538   6.372  0.6824 -0.8905  0.5633
  380MOL0     H51269   6.381   5.548   6.300 -1.3412 -3.1131 -3.0085
  380MOL0     H51270   6.478   5.546   6.587 -0.7367 -1.1272  0.8171
  380MOL0     H51271   6.309   5.524   6.563 -0.4393  0.6917  1.7693
  380MOL0     H51272   6.313   5.739   6.417  0.0149 -0.8849 -0.7721
  380MOL0     H51273   6.486   5.759   6.474 -0.9737  3.4371 -0.9766
  380MOL0     H51274   6.249   5.737   6.657 -1.3902 -0.8283 -3.2281
  380MOL0     H51275   6.418   5.791   6.685  2.0772 -2.1410 -1.9168
  380MOL0     H51276   6.181   5.938   6.577  0.0485 -0.7614  5.6215
  380MOL0     H51277   6.317   5.933   6.465  0.3103 -0.5421 -0.2043
  380MOL0     H51278   6.465   6.025   6.642 -0.6382 -0.3089 -1.0320
  380MOL0     H51279   6.330   6.132   6.609 -1.3626 -2.0240 -2.0983
  380MOL0     H51280   6.801   5.501   6.108  0.8699 -0.8177  1.3289
  380MOL0     H51281   6.904   5.494   5.886 -0.8565  0.9811  0.1478
  380MOL0     H51282   7.094   5.024   5.600 -3.1379 -1.4146  0.4630
  380MOL0     H51283   7.179   4.991   5.363 -0.2325 -0.4091  1.3645
  380MOL0     H51284   6.626   3.911   5.336 -0.7390  1.3510 -1.2087
  380MOL0     H51285   6.584   3.684   5.314  0.3545  0.6498  1.2466
  380MOL0     H51286   6.173   3.362   5.307 -2.9313 -2.2383 -3.2029
  380MOL0     H51287   6.113   3.129   5.310 -0.4494 -1.1178 -0.2555
  380MOL0     H51288   6.370   2.781   5.340  1.9365  2.8676  0.8248
  380MOL0     H51289   6.421   2.832   5.173 -0.5908 -3.2615 -0.9267
  380MOL0     H51290   6.164   2.689   5.221 -1.6146  0.9990  0.0521
  380MOL0     H51291   6.316   2.625   5.154 -0.0243  0.8328 -1.0572
  380MOL0     H51292   6.142   2.840   5.032  1.7325  1.8937  1.4555
  380MOL0     H51293   6.155   2.672   4.975  1.4123 -0.2596  0.9288
  380MOL0     H51294   6.370   2.889   4.970 -0.7523  0.3547 -1.2136
  380MOL0     H51295   6.396   2.734   4.894  3.7568  2.6491  0.2519
  380MOL0     H51296   6.187   2.959   4.619  0.3538  1.1386  0.2785
  380MOL0     H51297   6.497   3.020   5.159 -0.1332  0.0986 -1.1101
  380MOL0     H51298   6.589   3.297   5.034  1.3069  0.4278  0.6577
  380MOL0     H51299   6.671   3.301   5.196  0.6803 -0.7185  0.8326
  380MOL0     H51300   6.647   3.151   5.093 -2.4221 -1.1694  0.5714
  381MOL0     O51301   5.540  10.933   8.974  0.2786 -0.3593 -0.3424
  381MOL0     C51302   5.462  10.844   9.002 -0.3308  0.5716  0.9670
  381MOL0     O51303   5.485  10.708   9.018 -0.2088  0.1145  0.5473
  381MOL0     C51304   5.612  10.662   9.041  0.2470 -0.7845  0.1601
  381MOL0     C51305   5.659  10.566   8.951 -0.1534  0.3689  0.2839
  381MOL0     C51306   5.779  10.497   8.977  0.6091  0.0327  0.1256
  381MOL0     C51307   5.863  10.532   9.091  0.7521  0.7617  0.5669
  381MOL0     O51308   5.981  10.461   9.108  0.4849  0.3629  0.3089
  381MOL0     C51309   5.982  10.385   9.229  0.0118 -0.4259 -0.5632
  381MOL0     C51310   6.073  10.262   9.190  0.1606 -0.5220 -0.5246
  381MOL0     C51311   6.092  10.167   9.312  0.3417  0.9645 -1.2315
  381MOL0     C51312   6.190  10.051   9.273 -0.3612  0.2788 -0.0186
  381MOL0     C51313   6.214   9.955   9.383  0.0686 -0.2815 -0.1114
  381MOL0     C51314   6.344   9.885   9.357  0.3342  0.3592 -0.0954
  381MOL0     C51315   6.369   9.769   9.445  1.6162  0.3105  0.6372
  381MOL0     C51316   6.481   9.678   9.398 -0.1558  0.1009  0.2287
  381MOL0     N51317   6.523   9.558   9.471  1.3035  0.4326  0.8110
  381MOL0     C51318   6.501   9.537   9.609 -0.5499 -1.3936  0.5005
  381MOL0     C51319   6.545   9.410   9.621 -0.0825 -0.2352  1.7519
  381MOL0     C51320   6.543   9.319   9.746  0.1637 -1.3770 -1.0622
  381MOL0     C51321   6.425   9.332   9.860 -0.0026 -0.6521  0.1618
  381MOL0     C51322   6.286   9.341   9.799 -0.0734 -0.2319 -0.9670
  381MOL0     C51323   6.202   9.215   9.761 -0.0008  0.1171 -0.2314
  381MOL0     O51324   6.072   9.254   9.709  0.0840  0.2984  0.2644
  381MOL0     C51325   6.083   9.327   9.590  0.6427 -0.0468 -1.1056
  381MOL0     C51326   6.015   9.441   9.584 -0.3277  0.0714 -0.3597
  381MOL0     C51327   6.030   9.535   9.480 -0.0429 -0.1241  0.7151
  381MOL0     C51328   6.105   9.491   9.366 -0.5288  0.4972 -0.2018
  381MOL0     C51329   6.102   9.568   9.251 -0.0199 -0.2666  0.2301
  381MOL0     O51330   6.135   9.496   9.136  1.1173  1.0930  0.4728
  381MOL0     C51331   6.168   9.571   9.029 -1.3834  0.4857  1.2901
  381MOL0     C51332   6.302   9.609   8.992 -0.0708  0.2315  0.0953
  381MOL0     C51333   6.325   9.683   8.881 -0.4781  0.4859  0.2811
  381MOL0     C51334   6.219   9.721   8.798 -0.5156  0.2818 -0.0498
  381MOL0     O51335   6.224   9.801   8.686  0.2892  0.1409 -0.2273
  381MOL0     C51336   6.356   9.847   8.627  0.1555 -0.3143 -1.3618
  381MOL0     C51337   6.334   9.932   8.501  0.7276  0.1584 -0.5440
  381MOL0     C51338   6.306   9.837   8.383  0.5578 -0.0029 -0.1136
  381MOL0     C51339   6.232   9.896   8.261  0.1692  0.0095 -0.2577
  381MOL0     C51340   6.211   9.801   8.134  0.7525  0.1960 -0.1271
  381MOL0     C51341   6.091   9.854   8.050 -0.2521  0.1331 -0.4425
  381MOL0     C51342   6.115   9.794   7.916  0.4410  0.2684  0.9491
  381MOL0     C51343   5.982   9.809   7.829 -0.2663 -0.3820 -0.3559
  381MOL0    Cl51344   5.945   9.980   7.822 -0.8232 -0.3397  0.0905
  381MOL0     C51345   6.090   9.680   8.831  0.3867 -0.3688 -0.1752
  381MOL0     C51346   6.069   9.606   8.948 -0.6171 -1.5464  0.2313
  381MOL0     O51347   6.090   9.692   9.255 -0.4092  0.7973  0.5582
  381MOL0     C51348   6.181   9.375   9.375  0.0259 -0.4499 -0.1669
  381MOL0     C51349   6.167   9.285   9.487 -0.4005  0.2299  0.1749
  381MOL0     N51350   6.609   9.366   9.502  0.5142 -0.0799 -0.2328
  381MOL0     N51351   6.582   9.450   9.414 -0.2125 -0.4635 -0.0207
  381MOL0     C51352   5.805  10.634   9.177  0.3855  0.0302 -0.4490
  381MOL0     C51353   5.690  10.700   9.150 -0.8360  0.2507 -0.0101
  381MOL0     C51354   5.318  10.875   8.994  0.6325  0.2626  0.1757
  381MOL0     C51355   5.228  10.798   9.071 -0.1019  0.1339 -0.0279
  381MOL0     C51356   5.087  10.834   9.085 -0.1294  0.5162 -0.9003
  381MOL0     C51357   5.030  10.943   9.027 -0.6091  0.2977  0.1229
  381MOL0     O51358   4.907  10.973   9.057  0.4737  0.0000  0.0306
  381MOL0     C51359   4.826  11.062   8.970 -0.6622 -0.2786 -0.3762
  381MOL0     C51360   4.688  11.049   9.027  0.2198  0.1707 -0.8372
  381MOL0     C51361   4.590  11.137   8.933  0.4374 -0.7759  0.4311
  381MOL0     C51362   4.462  11.180   8.991  0.0668 -0.4306  0.3722
  381MOL0     C51363   4.407  11.078   9.087  0.1264  0.2039  0.4384
  381MOL0     C51364   4.350  11.001   9.174  0.1834 -0.1841 -0.0801
  381MOL0     C51365   5.113  11.018   8.942  0.5230 -0.0368  0.4848
  381MOL0     C51366   5.250  10.991   8.927 -0.1286 -0.3698  0.0432
  381MOL0     C51367   5.339  11.088   8.853  0.1143 -0.9276 -0.5936
  381MOL0     H51368   5.591  10.542   8.869  0.3824  1.9577 -0.6802
  381MOL0     H51369   5.803  10.414   8.912 -1.6197 -1.2397  0.8145
  381MOL0     H51370   6.029  10.441   9.311 -0.8978 -0.5371  0.0424
  381MOL0     H51371   5.880  10.361   9.258 -1.1279  0.3468 -3.5619
  381MOL0     H51372   6.165  10.302   9.148 -1.4333  0.7496 -3.0679
  381MOL0     H51373   6.024  10.204   9.111 -0.7369 -1.9300  0.9794
  381MOL0     H51374   5.995  10.122   9.337 -0.0271  1.7283 -1.2617
  381MOL0     H51375   6.135  10.210   9.403  0.3716 -2.2686  0.4304
  381MOL0     H51376   6.145   9.994   9.191  1.6763 -1.6785  0.1661
  381MOL0     H51377   6.286  10.081   9.230 -0.6823 -3.3267 -3.8014
  381MOL0     H51378   6.211   9.998   9.483  0.9329 -0.5647  0.0470
  381MOL0     H51379   6.130   9.886   9.396  0.9024 -2.1056 -3.3205
  381MOL0     H51380   6.346   9.831   9.262  1.8756  1.3526 -0.6664
  381MOL0     H51381   6.428   9.954   9.362  2.7582 -2.4983  2.1419
  381MOL0     H51382   6.286   9.698   9.450  1.9115  0.0194  3.0163
  381MOL0     H51383   6.389   9.808   9.546  0.1522  2.4277  0.1694
  381MOL0     H51384   6.471   9.643   9.295  1.7332 -1.1324  0.4260
  381MOL0     H51385   6.569   9.743   9.394  0.0051  0.1007  2.5422
  381MOL0     H51386   6.443   9.600   9.675 -2.1868 -0.9998 -1.2348
  381MOL0     H51387   6.546   9.213   9.723 -1.9375 -2.0978  1.4062
  381MOL0     H51388   6.634   9.339   9.803 -0.8346 -0.8454  0.4118
  381MOL0     H51389   6.429   9.258   9.941  1.3954 -1.4463 -0.6043
  381MOL0     H51390   6.437   9.427   9.913  0.3387 -0.3889 -0.3827
  381MOL0     H51391   6.286   9.413   9.717  1.0514  3.0218  1.6635
  381MOL0     H51392   6.223   9.377   9.881  0.1996 -1.1018 -0.3519
  381MOL0     H51393   6.208   9.158   9.854 -1.5702  2.1655  1.2194
  381MOL0     H51394   6.253   9.155   9.685  2.1015  1.3247  0.1360
  381MOL0     H51395   5.944   9.467   9.661  0.0987  1.8528 -0.5150
  381MOL0     H51396   5.973   9.626   9.462  1.9762  0.7325 -2.0603
  381MOL0     H51397   6.388   9.564   9.041 -0.6438 -1.4218 -0.3312
  381MOL0     H51398   6.431   9.701   8.868  0.6651 -4.3658  1.0262
  381MOL0     H51399   6.414   9.910   8.695  0.8381 -2.3537  0.0218
  381MOL0     H51400   6.411   9.756   8.604  3.3101  0.2227  2.8905
  381MOL0     H51401   6.246   9.993   8.524 -0.7067 -2.7592  2.7334
  381MOL0     H51402   6.415  10.000   8.474  0.9669  0.2715  0.4147
  381MOL0     H51403   6.403   9.809   8.340  0.6628  2.2582 -1.5164
  381MOL0     H51404   6.250   9.753   8.425 -0.1175  1.7399  2.6943
  381MOL0     H51405   6.275   9.991   8.227  1.3137 -0.0553  0.9136
  381MOL0     H51406   6.135   9.928   8.300  1.9364  3.9565  1.5521
  381MOL0     H51407   6.180   9.707   8.181  1.3547  0.0893  0.0668
  381MOL0     H51408   6.307   9.794   8.081 -0.1350  0.2384 -1.7860
  381MOL0     H51409   5.994   9.823   8.090  0.1221 -1.7140 -0.8994
  381MOL0     H51410   6.096   9.964   8.054 -1.6765  0.2057  2.6679
  381MOL0     H51411   6.140   9.688   7.926  2.7867  0.7114  0.2893
  381MOL0     H51412   6.199   9.848   7.872 -0.1388  0.8683  0.5611
  381MOL0     H51413   5.992   9.784   7.723  0.3222  0.1562 -0.4354
  381MOL0     H51414   5.901   9.746   7.864 -0.1672 -0.3301 -0.0303
  381MOL0     H51415   6.003   9.710   8.774  1.1207  0.3880 -0.9250
  381MOL0     H51416   5.971   9.569   8.978 -1.1291  1.9416  3.6812
  381MOL0     H51417   6.236   9.349   9.286 -0.5891 -1.1312 -0.3542
  381MOL0     H51418   6.189   9.178   9.483  0.9345  0.5262 -1.5224
  381MOL0     H51419   5.863  10.654   9.267  0.8363 -0.2439 -0.6728
  381MOL0     H51420   5.645  10.763   9.226 -2.3165  4.2052 -3.7076
  381MOL0     H51421   5.254  10.701   9.113 -1.9015 -0.4799 -0.2389
  381MOL0     H51422   5.018  10.777   9.148  0.2073  0.2672 -0.7531
  381MOL0     H51423   4.835  11.035   8.864 -2.3967  1.9388 -1.1543
  381MOL0     H51424   4.861  11.164   8.986 -3.5027  0.7673 -0.2783
  381MOL0     H51425   4.687  11.071   9.134 -3.4572 -3.9917  0.3103
  381MOL0     H51426   4.645  10.949   9.019 -0.2256  0.2125  0.6089
  381MOL0     H51427   4.574  11.084   8.838 -2.2144  1.1171 -0.2949
  381MOL0     H51428   4.641  11.227   8.895 -2.7261  1.2275  0.5758
  381MOL0     H51429   4.483  11.267   9.054  0.3026  1.2256 -1.8765
  381MOL0     H51430   4.398  11.213   8.909  3.7087 -0.0357 -2.6188
  381MOL0     H51431   4.309  10.954   9.262 -2.5064  0.2336 -1.0032
  381MOL0     H51432   5.088  11.117   8.906  0.5737 -0.9338 -2.2763
  381MOL0     H51433   5.278  11.153   8.790 -1.0812 -0.7820  0.6686
  381MOL0     H51434   5.394  11.153   8.922 -0.3231 -0.1656 -0.9547
  381MOL0     H51435   5.400  11.031   8.782 -1.2370 -0.9400 -1.7975
  382MOL0     O51436   2.981   2.366  10.249 -0.7277  0.8873 -0.1395
  382MOL0     C51437   3.093   2.317  10.246  0.5926 -0.1932 -0.2490
  382MOL0     O51438   3.201   2.364  10.309 -0.1192  0.3753 -0.4480
  382MOL0     C51439   3.191   2.457  10.412 -0.3390  0.2404 -0.6391
  382MOL0     C51440   3.230   2.419  10.549  0.2691 -1.0421  0.0698
  382MOL0     C51441   3.211   2.501  10.664  0.1842  1.2185 -0.2468
  382MOL0     C51442   3.135   2.613  10.640  0.0681 -0.6621 -0.1853
  382MOL0     O51443   3.100   2.685  10.749  0.3968  0.4935 -0.9455
  382MOL0     C51444   2.976   2.643  10.826 -0.1922 -0.4760 -0.4182
  382MOL0     C51445   2.944   2.748  10.939  0.0232  0.1493 -0.4550
  382MOL0     C51446   3.074   2.765  11.029 -0.3717  0.9199  0.5520
  382MOL0     C51447   3.056   2.796  11.174  0.7033  0.1454 -1.0350
  382MOL0     C51448   3.170   2.824  11.261 -0.9263  0.2131  0.8772
  382MOL0     C51449   3.125   2.885  11.391 -0.2832 -0.5024  0.2399
  382MOL0     C51450   3.248   2.926  11.472 -0.2401 -0.1131  0.4740
  382MOL0     C51451   3.218   2.932  11.624 -0.6238 -0.4601  1.2561
  382MOL0     N51452   3.166   2.824  11.692  0.4170  1.0276  0.1516
  382MOL0     C51453   3.222   2.697  11.698  0.1331  0.5039 -0.9645
  382MOL0     C51454   3.157   2.639  11.806  0.4229 -0.0092 -0.0634
  382MOL0     C51455   3.194   2.494  11.863  0.2823 -0.2167  0.4894
  382MOL0     C51456   3.337   2.472  11.918  0.4916 -0.4762 -0.5607
  382MOL0     C51457   3.351   2.321  11.951  0.1353 -0.3350 -0.1784
  382MOL0     C51458   3.340   2.216  11.838  0.3697 -0.1929 -0.2831
  382MOL0     O51459   3.385   2.091  11.899 -0.2886  0.2499 -0.8589
  382MOL0     C51460   3.426   1.994  11.804 -0.7141  0.1271 -0.4463
  382MOL0     C51461   3.377   1.973  11.666 -0.1599 -0.3828  0.7573
  382MOL0     C51462   3.425   1.869  11.586  0.0532  0.3661 -0.9100
  382MOL0     C51463   3.516   1.770  11.642 -0.3043 -0.4234  0.0518
  382MOL0     C51464   3.558   1.657  11.561  0.6729  0.1606 -0.0694
  382MOL0     O51465   3.515   1.653  11.431 -0.0464  0.8130 -0.0092
  382MOL0     C51466   3.556   1.544  11.344  0.1731 -0.1006 -0.9207
  382MOL0     C51467   3.577   1.578  11.212 -0.4791 -0.3742  0.2005
  382MOL0     C51468   3.617   1.478  11.124  0.3911 -0.5955  0.8771
  382MOL0     C51469   3.631   1.349  11.154  1.0471  0.4148 -1.0789
  382MOL0     O51470   3.658   1.259  11.061 -0.8224  0.9335  0.5771
  382MOL0     C51471   3.702   1.128  11.090 -0.8928  0.2163 -0.4292
  382MOL0     C51472   3.746   1.077  10.949  0.2240 -0.2357  1.2394
  382MOL0     C51473   3.616   1.035  10.863  0.1666  0.0306 -0.2760
  382MOL0     C51474   3.665   1.063  10.721  0.0385  0.6006  1.4143
  382MOL0     C51475   3.558   1.028  10.611 -0.2771  0.1271 -0.6406
  382MOL0     C51476   3.429   1.105  10.623  0.3298  0.8481  0.1764
  382MOL0     C51477   3.440   1.259  10.603 -0.8805  0.0704 -0.5061
  382MOL0     C51478   3.307   1.334  10.642 -0.2115 -0.4996 -0.1728
  382MOL0    Cl51479   3.336   1.501  10.704  0.2482 -0.7818 -0.2075
  382MOL0     C51480   3.605   1.316  11.289 -0.8048 -1.1460  0.4763
  382MOL0     C51481   3.565   1.418  11.385 -0.3545 -0.0036 -0.4071
  382MOL0     O51482   3.646   1.586  11.621  0.3538 -0.0124 -0.3327
  382MOL0     C51483   3.555   1.787  11.788 -0.4154  0.5694  0.8371
  382MOL0     C51484   3.510   1.897  11.864 -0.4629  0.8195  0.6768
  382MOL0     N51485   3.054   2.713  11.846 -0.4981  0.3929 -0.0067
  382MOL0     N51486   3.068   2.827  11.783  0.4727 -1.0305  0.2627
  382MOL0     C51487   3.098   2.655  10.509  0.4069  0.3039 -0.7220
  382MOL0     C51488   3.121   2.572  10.401  0.7890  0.8415 -0.1433
  382MOL0     C51489   3.111   2.219  10.130 -0.1450 -0.2655  1.7656
  382MOL0     C51490   3.000   2.200  10.041  0.3435  0.3333  0.6527
  382MOL0     C51491   3.005   2.118   9.932  0.1830  0.2440  0.2692
  382MOL0     C51492   3.126   2.071   9.897 -1.2866  0.5520 -0.8416
  382MOL0     O51493   3.134   1.988   9.786 -0.4256 -0.0670 -1.5742
  382MOL0     C51494   3.022   1.948   9.702  0.4978 -0.6325 -0.4069
  382MOL0     C51495   3.079   1.865   9.592  0.1687  0.4225  0.3690
  382MOL0     C51496   2.972   1.809   9.494  0.4752  0.8104  0.0425
  382MOL0     C51497   3.033   1.753   9.362 -0.2725 -0.0766 -0.2124
  382MOL0     C51498   3.094   1.858   9.280  0.7979 -0.4306 -0.0933
  382MOL0     C51499   3.156   1.950   9.245 -1.3392 -0.4874 -0.1400
  382MOL0     C51500   3.233   2.083   9.980  0.5487  0.1978  0.2105
  382MOL0     C51501   3.228   2.155  10.099  0.7875  0.3592 -0.2443
  382MOL0     C51502   3.356   2.171  10.181 -0.0664  0.6183 -0.1680
  382MOL0     H51503   3.265   2.318  10.564 -0.5214 -1.2858  0.3125
  382MOL0     H51504   3.234   2.458  10.761  0.5535 -1.5819 -1.4839
  382MOL0     H51505   2.890   2.649  10.758  1.1610  0.1104 -2.1438
  382MOL0     H51506   2.990   2.541  10.862  0.1427 -0.6015 -0.9003
  382MOL0     H51507   2.864   2.717  11.007  0.3495  0.2601 -0.0185
  382MOL0     H51508   2.914   2.840  10.886 -3.4034 -0.7913 -0.3931
  382MOL0     H51509   3.136   2.834  10.971 -0.9286 -0.4355 -1.7742
  382MOL0     H51510   3.130   2.671  11.028 -1.6730  0.1003  0.9376
  382MOL0     H51511   2.988   2.882  11.185 -1.3292 -1.5786  0.6180
  382MOL0     H51512   2.993   2.718  11.218  0.2971  1.1389  0.2261
  382MOL0     H51513   3.229   2.733  11.273 -0.9648 -0.0976 -0.9386
  382MOL0     H51514   3.239   2.890  11.207 -1.7909 -2.1168 -3.5930
  382MOL0     H51515   3.062   2.974  11.388 -2.3926 -1.7811  2.5586
  382MOL0     H51516   3.065   2.807  11.440 -3.5332  0.9616 -1.1573
  382MOL0     H51517   3.300   3.015  11.434 -0.0857 -1.0925 -1.7550
  382MOL0     H51518   3.320   2.844  11.460 -0.1517 -0.1682  1.3190
  382MOL0     H51519   3.303   2.978  11.676 -0.3185 -0.0953  0.4404
  382MOL0     H51520   3.147   3.015  11.635  4.1648  4.4875 -0.4160
  382MOL0     H51521   3.313   2.662  11.651  1.6693  2.4950  0.3548
  382MOL0     H51522   3.122   2.469  11.941  0.7870  0.4995  1.1935
  382MOL0     H51523   3.172   2.426  11.780  0.4355  1.4511 -0.9817
  382MOL0     H51524   3.415   2.502  11.847  0.4279 -2.6850 -1.6230
  382MOL0     H51525   3.345   2.537  12.006  1.9093 -0.6939 -0.5127
  382MOL0     H51526   3.274   2.294  12.024  1.2309  4.1300  3.0312
  382MOL0     H51527   3.447   2.317  12.002 -0.2089  0.1547  0.5214
  382MOL0     H51528   3.386   2.254  11.746 -1.7482 -1.4650 -1.9606
  382MOL0     H51529   3.236   2.204  11.806 -0.0076 -0.4975  0.9877
  382MOL0     H51530   3.301   2.036  11.621 -0.5436 -2.6980 -2.1642
  382MOL0     H51531   3.373   1.851  11.493 -2.7285 -1.9987  0.9318
  382MOL0     H51532   3.548   1.678  11.181 -1.0371 -0.6695 -0.2359
  382MOL0     H51533   3.617   1.496  11.017  1.0324  0.3085  1.0142
  382MOL0     H51534   3.784   1.130  11.163  0.0504 -4.0660 -1.1106
  382MOL0     H51535   3.625   1.064  11.134  1.3215 -0.9592  2.0226
  382MOL0     H51536   3.810   1.152  10.903  0.4528 -0.9663  0.3161
  382MOL0     H51537   3.804   0.984  10.953  1.7535  0.6779  0.9704
  382MOL0     H51538   3.594   0.928  10.870 -1.8657  0.4722  0.7243
  382MOL0     H51539   3.527   1.095  10.887  0.7881  0.8172  0.0903
  382MOL0     H51540   3.755   1.004  10.704 -1.5712 -1.7070  0.3560
  382MOL0     H51541   3.696   1.168  10.720  3.1681 -0.2400 -0.0441
  382MOL0     H51542   3.532   0.922  10.606 -0.4871  0.2223 -1.9620
  382MOL0     H51543   3.600   1.056  10.514  0.2644  2.5174  0.2120
  382MOL0     H51544   3.366   1.056  10.548  0.7177  1.0967 -0.3163
  382MOL0     H51545   3.382   1.078  10.718  0.0008 -1.4097 -0.5827
  382MOL0     H51546   3.474   1.280  10.501 -0.7261  3.1511  0.0722
  382MOL0     H51547   3.510   1.299  10.677 -0.1552 -3.5097  0.9415
  382MOL0     H51548   3.237   1.336  10.557 -2.9860 -0.3216  1.9875
  382MOL0     H51549   3.250   1.274  10.714  0.6694  0.5703  1.4610
  382MOL0     H51550   3.602   1.218  11.336  0.5309 -1.5452 -0.2296
  382MOL0     H51551   3.552   1.392  11.490  1.7334  2.9687  0.6928
  382MOL0     H51552   3.620   1.714  11.833 -0.5809  0.8952  1.6168
  382MOL0     H51553   3.530   1.905  11.971 -1.8142  0.3766  0.9871
  382MOL0     H51554   3.049   2.751  10.499  0.6239  0.4139 -0.7120
  382MOL0     H51555   3.095   2.592  10.298  2.7212  0.7632 -0.6980
  382MOL0     H51556   2.901   2.230  10.074  0.2782 -1.0924  1.8777
  382MOL0     H51557   2.913   2.104   9.875  0.2455 -2.6061  0.7335
  382MOL0     H51558   2.965   2.030   9.658 -1.7117  0.5100  4.0360
  382MOL0     H51559   2.956   1.885   9.762 -1.6052  1.0408 -0.8437
  382MOL0     H51560   3.119   1.775   9.639 -2.7939  0.3887  3.1766
  382MOL0     H51561   3.160   1.914   9.538  1.1020 -1.2703  0.1520
  382MOL0     H51562   2.906   1.893   9.471  1.6751  1.9949  0.8029
  382MOL0     H51563   2.915   1.734   9.551  1.3878  0.5832  0.6866
  382MOL0     H51564   3.115   1.687   9.392  1.0403  1.6931  0.2449
  382MOL0     H51565   2.961   1.691   9.307  2.0551 -1.4180 -1.9038
  382MOL0     H51566   3.213   2.031   9.205 -2.7668  1.2367  1.1299
  382MOL0     H51567   3.333   2.047   9.955  2.0967  2.9169  1.8920
  382MOL0     H51568   3.428   2.097  10.145  2.1108  2.6718 -0.3460
  382MOL0     H51569   3.394   2.271  10.157 -0.6365  1.0924  0.8172
  382MOL0     H51570   3.337   2.171  10.289 -0.7226  1.4579 -0.2724
  383MOL0     O51571   3.203   4.861   0.510  0.5966 -0.6077 -0.6657
  383MOL0     C51572   3.307   4.895   0.563 -0.3884 -0.9156 -0.6688
  383MOL0     O51573   3.434   4.862   0.518  0.1860 -0.3165  0.0122
  383MOL0     C51574   3.463   4.779   0.410  0.4820 -0.1454 -0.7755
  383MOL0     C51575   3.600   4.778   0.379 -0.9488  0.3168 -0.3375
  383MOL0     C51576   3.650   4.709   0.270 -0.3849 -0.1283  0.7275
  383MOL0     C51577   3.568   4.644   0.183  0.6615 -0.3138 -0.0499
  383MOL0     O51578   3.601   4.577   0.065 -0.8582 -0.2231  0.0485
  383MOL0     C51579   3.738   4.524   0.062  0.2674  0.8475  0.7933
  383MOL0     C51580   3.743   4.409   0.163 -0.3176  0.8527  0.5342
  383MOL0     C51581   3.867   4.392   0.233 -0.7916  0.0552 -0.0685
  383MOL0     C51582   3.849   4.253   0.307  1.3611 -0.4414  1.2259
  383MOL0     C51583   3.951   4.222   0.408 -0.1116  0.1219 -0.4319
  383MOL0     C51584   4.102   4.219   0.361 -0.4278 -0.0571  0.8480
  383MOL0     C51585   4.130   4.109   0.262 -0.2032 -0.1832 -0.1816
  383MOL0     C51586   4.136   3.978   0.337 -1.1510 -0.2312 -0.8511
  383MOL0     N51587   4.129   3.872   0.240  0.0967  0.5924  0.4289
  383MOL0     C51588   4.240   3.813   0.185  0.8806 -1.3935 -0.5531
  383MOL0     C51589   4.192   3.704   0.125 -0.0466  0.4936  0.6540
  383MOL0     C51590   4.283   3.613   0.052 -0.5185  0.4133  0.0936
  383MOL0     C51591   4.291   3.642  -0.106 -0.4856  0.0633 -0.4923
  383MOL0     C51592   4.152   3.626  -0.167 -0.1274  0.7141 -0.2879
  383MOL0     C51593   4.157   3.649  -0.317  0.7111 -1.2842 -0.2089
  383MOL0     O51594   4.021   3.631  -0.369  0.1942  0.4697  0.0569
  383MOL0     C51595   3.917   3.708  -0.333 -0.0591 -1.3680 -0.2188
  383MOL0     C51596   3.936   3.835  -0.281 -0.3083 -0.4237 -1.1241
  383MOL0     C51597   3.823   3.907  -0.237  0.1682  0.0878 -0.2232
  383MOL0     C51598   3.688   3.859  -0.260  0.0571  0.0258 -0.2248
  383MOL0     C51599   3.569   3.940  -0.238 -0.3623  0.2962 -1.1443
  383MOL0     O51600   3.587   4.052  -0.173 -0.2613 -0.4713  0.2584
  383MOL0     C51601   3.483   4.102  -0.100 -1.3986  0.5607  1.1338
  383MOL0     C51602   3.365   4.038  -0.067  0.6099 -0.0624 -0.0869
  383MOL0     C51603   3.260   4.106  -0.002 -0.3560  0.7440 -0.3401
  383MOL0     C51604   3.280   4.234   0.048 -0.3131  0.4237  0.5451
  383MOL0     O51605   3.182   4.308   0.111 -0.3982  0.0984  0.4723
  383MOL0     C51606   3.037   4.277   0.090 -0.6730 -0.4918 -0.0391
  383MOL0     C51607   2.946   4.370   0.181  0.9304 -0.6029  0.4919
  383MOL0     C51608   2.944   4.342   0.330 -0.8833 -0.7851  0.2149
  383MOL0     C51609   3.054   4.422   0.390 -0.4581 -1.4545 -0.2432
  383MOL0     C51610   3.071   4.390   0.538  0.9280 -0.5840  0.3315
  383MOL0     C51611   3.173   4.491   0.598  0.2133  0.5518  0.5436
  383MOL0     C51612   3.170   4.494   0.756 -0.3822 -0.2010 -1.1410
  383MOL0     C51613   3.306   4.552   0.803 -0.1290  0.2646  0.1062
  383MOL0    Cl51614   3.303   4.591   0.969 -0.4360  0.4882 -0.1800
  383MOL0     C51615   3.404   4.299   0.018  0.5684  0.0096 -0.0792
  383MOL0     C51616   3.507   4.233  -0.057  0.2950 -0.0036 -0.6679
  383MOL0     O51617   3.467   3.907  -0.297 -0.7146 -0.0675 -0.1100
  383MOL0     C51618   3.678   3.730  -0.311  1.0930 -0.5570 -0.0130
  383MOL0     C51619   3.789   3.658  -0.348  0.7664 -0.0248  0.0289
  383MOL0     N51620   4.053   3.689   0.138  0.5396  0.9909 -0.2255
  383MOL0     N51621   4.020   3.792   0.214  0.1829  0.0575  0.1171
  383MOL0     C51622   3.432   4.632   0.218  0.1679 -0.4805  0.0597
  383MOL0     C51623   3.382   4.706   0.324 -1.2353  0.9572 -0.4617
  383MOL0     C51624   3.313   4.993   0.676  0.1386  0.5973  0.5310
  383MOL0     C51625   3.428   5.070   0.687 -0.4258  0.7207 -0.1825
  383MOL0     C51626   3.444   5.151   0.804  0.5969  0.2761  0.5494
  383MOL0     C51627   3.347   5.161   0.905 -0.6988 -0.2756 -0.0272
  383MOL0     O51628   3.366   5.244   1.024 -0.1197  0.5606  0.3559
  383MOL0     C51629   3.352   5.188   1.162 -0.2188 -0.5008 -0.0613
  383MOL0     C51630   3.222   5.248   1.226  0.1211  0.3718 -0.7714
  383MOL0     C51631   3.249   5.391   1.270 -0.0524 -0.4808  0.1276
  383MOL0     C51632   3.121   5.472   1.309  0.0156 -0.8621  0.5935
  383MOL0     C51633   3.065   5.425   1.436 -1.0087 -0.2976  0.0512
  383MOL0     C51634   3.025   5.382   1.543 -0.3034  0.6365  0.0152
  383MOL0     C51635   3.235   5.077   0.897  0.3020 -0.0278  0.6336
  383MOL0     C51636   3.213   4.996   0.778 -0.8126  1.0436  0.1825
  383MOL0     C51637   3.088   4.897   0.782 -0.2281  0.7449  0.7637
  383MOL0     H51638   3.676   4.834   0.432  1.1105 -0.3756 -2.3842
  383MOL0     H51639   3.755   4.706   0.243 -0.0579 -2.6015  2.0305
  383MOL0     H51640   3.763   4.480  -0.035  1.4826 -2.9011  2.5748
  383MOL0     H51641   3.820   4.592   0.087  1.7456 -1.2929  2.1443
  383MOL0     H51642   3.724   4.316   0.108  2.1596  0.9664 -0.6499
  383MOL0     H51643   3.666   4.418   0.240  0.7153  1.7713  1.4895
  383MOL0     H51644   3.881   4.473   0.304 -2.0223  2.3230 -2.2477
  383MOL0     H51645   3.950   4.400   0.162 -1.7666 -0.3215 -1.2894
  383MOL0     H51646   3.750   4.256   0.353  0.2406  2.1235 -1.0826
  383MOL0     H51647   3.845   4.175   0.231 -2.5499 -0.7211  1.5394
  383MOL0     H51648   3.949   4.307   0.477 -0.7728 -0.4879  0.3181
  383MOL0     H51649   3.919   4.132   0.461 -0.4900 -0.5827 -1.8106
  383MOL0     H51650   4.124   4.319   0.321  2.2864 -0.8875  0.0531
  383MOL0     H51651   4.160   4.200   0.452 -1.9050 -0.3103  1.7659
  383MOL0     H51652   4.215   4.132   0.197 -0.4613  0.1884 -0.3883
  383MOL0     H51653   4.051   4.100   0.187  1.2241 -0.2670 -1.7378
  383MOL0     H51654   4.231   3.978   0.390 -2.5309  1.5511  1.8299
  383MOL0     H51655   4.052   3.965   0.406 -0.3996  2.0224  0.5882
  383MOL0     H51656   4.339   3.856   0.174  0.5975 -1.1294 -2.3894
  383MOL0     H51657   4.383   3.620   0.096 -0.5163  3.4828 -0.1731
  383MOL0     H51658   4.253   3.509   0.067 -0.9557  0.2821 -1.5169
  383MOL0     H51659   4.320   3.747  -0.119 -1.8818  0.2820 -2.1853
  383MOL0     H51660   4.360   3.580  -0.163  0.0154  0.0461  0.1137
  383MOL0     H51661   4.088   3.702  -0.122  0.9571  1.2944  0.2997
  383MOL0     H51662   4.119   3.523  -0.149 -1.4665  1.3184  0.8806
  383MOL0     H51663   4.232   3.578  -0.354 -0.0314 -2.3348  0.2695
  383MOL0     H51664   4.193   3.751  -0.338 -1.0870 -0.9446 -1.8740
  383MOL0     H51665   4.032   3.886  -0.270 -0.0227 -1.4002  2.1133
  383MOL0     H51666   3.834   4.006  -0.196  0.6652  0.0632 -0.2887
  383MOL0     H51667   3.341   3.937  -0.098 -1.1974  0.5946 -0.9867
  383MOL0     H51668   3.174   4.045   0.022 -0.8685  1.4371 -0.3818
  383MOL0     H51669   3.023   4.294  -0.017  1.3418  0.1746 -0.2410
  383MOL0     H51670   3.005   4.174   0.109  0.2082 -0.7202  0.2331
  383MOL0     H51671   2.985   4.470   0.160  1.9720 -1.2044 -0.6792
  383MOL0     H51672   2.843   4.369   0.146  0.8022  3.6022  0.3200
  383MOL0     H51673   2.844   4.357   0.373 -0.2611 -1.5673  2.0068
  383MOL0     H51674   2.978   4.240   0.347  0.7310  0.1912  3.6672
  383MOL0     H51675   3.032   4.529   0.381  3.2909 -0.5275 -0.1474
  383MOL0     H51676   3.150   4.401   0.341 -1.1277 -1.4577 -1.5911
  383MOL0     H51677   3.116   4.291   0.553  0.2079 -1.0302 -0.3191
  383MOL0     H51678   2.976   4.407   0.588  1.3625  1.6083  0.5002
  383MOL0     H51679   3.273   4.462   0.563 -0.9437  0.3192 -3.0096
  383MOL0     H51680   3.149   4.591   0.560 -0.1951  0.0341 -0.6176
  383MOL0     H51681   3.169   4.393   0.799  1.3121  0.7001  1.1924
  383MOL0     H51682   3.085   4.556   0.787 -0.7325  0.0971 -2.6053
  383MOL0     H51683   3.378   4.471   0.787 -0.7537 -0.3877  0.5172
  383MOL0     H51684   3.346   4.635   0.744  1.0277 -0.0073  0.4713
  383MOL0     H51685   3.411   4.403   0.048  2.0582  0.5343 -2.0178
  383MOL0     H51686   3.598   4.284  -0.088  0.2338  0.3750 -0.2392
  383MOL0     H51687   3.576   3.692  -0.320  1.4192 -1.4157 -0.1689
  383MOL0     H51688   3.789   3.557  -0.389  3.2280 -0.1155  0.1072
  383MOL0     H51689   3.353   4.590   0.157 -2.1205 -0.0090  2.4967
  383MOL0     H51690   3.277   4.697   0.348 -1.1708 -1.7752 -0.8603
  383MOL0     H51691   3.505   5.070   0.611 -0.2411 -3.4210 -0.2284
  383MOL0     H51692   3.537   5.202   0.828  1.2364 -0.3988 -0.4139
  383MOL0     H51693   3.443   5.220   1.213 -0.8837 -2.6080  2.6675
  383MOL0     H51694   3.355   5.079   1.172  0.8049 -0.3269  1.8501
  383MOL0     H51695   3.183   5.192   1.311  1.6259 -0.0837 -0.3624
  383MOL0     H51696   3.140   5.245   1.153 -0.3974 -0.1889 -0.1803
  383MOL0     H51697   3.289   5.448   1.185  3.3180  0.2132  2.0342
  383MOL0     H51698   3.328   5.406   1.343 -0.7366  0.1917  0.7457
  383MOL0     H51699   3.133   5.580   1.319 -2.9806 -0.5422  1.5791
  383MOL0     H51700   3.056   5.465   1.221  0.8188  2.9059 -0.4991
  383MOL0     H51701   2.989   5.351   1.639 -1.2622  4.1157  0.9038
  383MOL0     H51702   3.156   5.096   0.969 -1.4973 -0.1896 -1.2265
  383MOL0     H51703   3.026   4.924   0.868  0.8132  3.5214  0.7700
  383MOL0     H51704   3.036   4.895   0.686  1.2904 -2.0536 -0.0883
  383MOL0     H51705   3.141   4.803   0.799 -0.8052  0.5060  1.2885
  384MOL0     O51706   6.684   6.304   4.925 -0.2445 -0.0077  0.2824
  384MOL0     C51707   6.681   6.189   4.873 -0.3557 -0.2089 -0.1612
  384MOL0     O51708   6.685   6.075   4.943 -0.2565 -0.1691  0.2804
  384MOL0     C51709   6.693   6.088   5.080  0.1999 -0.1065 -0.2077
  384MOL0     C51710   6.605   6.170   5.155  0.3189 -0.0520 -0.4899
  384MOL0     C51711   6.596   6.157   5.296  0.6463 -0.1625  1.1219
  384MOL0     C51712   6.675   6.072   5.364 -0.6303  0.3873 -0.0832
  384MOL0     O51713   6.690   6.053   5.499 -0.2421  0.2344  0.3425
  384MOL0     C51714   6.633   6.141   5.584  0.1557 -0.5820 -0.9542
  384MOL0     C51715   6.670   6.117   5.732  0.3735  0.7640  0.3102
  384MOL0     C51716   6.595   6.197   5.831 -0.0448  0.5417  1.2896
  384MOL0     C51717   6.623   6.345   5.847  0.0186 -0.1681  0.0538
  384MOL0     C51718   6.537   6.396   5.954  1.0486 -0.5218  0.3096
  384MOL0     C51719   6.565   6.541   5.976 -0.0309  1.0386  0.2548
  384MOL0     C51720   6.669   6.570   6.073 -0.8507  0.6075 -0.2834
  384MOL0     C51721   6.621   6.568   6.222  0.3779 -0.3587  0.9054
  384MOL0     N51722   6.521   6.670   6.246  0.8602 -0.3901 -0.0063
  384MOL0     C51723   6.525   6.804   6.211  0.2016 -0.7732  0.3888
  384MOL0     C51724   6.405   6.847   6.242 -1.2289  0.6095  0.1449
  384MOL0     C51725   6.362   6.983   6.206 -0.6031  0.2091 -0.4854
  384MOL0     C51726   6.424   7.098   6.291  0.0396 -0.1290 -0.5762
  384MOL0     C51727   6.386   7.083   6.438 -0.4631  0.2264  0.2580
  384MOL0     C51728   6.238   7.092   6.481  0.2058 -0.1124 -0.2555
  384MOL0     O51729   6.192   7.204   6.407  0.2996 -0.0453 -0.0509
  384MOL0     C51730   6.055   7.229   6.409 -0.4427 -0.0783  0.3774
  384MOL0     C51731   5.989   7.205   6.531  0.5234 -0.1940  0.1616
  384MOL0     C51732   5.859   7.241   6.538  0.5890  0.0451 -0.3620
  384MOL0     C51733   5.785   7.312   6.434  0.7745 -0.4282  0.3179
  384MOL0     C51734   5.640   7.342   6.454  0.6949 -0.1741  0.0079
  384MOL0     O51735   5.578   7.286   6.564 -0.2685  0.3407 -0.2026
  384MOL0     C51736   5.452   7.311   6.576  0.5162  1.1358 -0.2144
  384MOL0     C51737   5.402   7.385   6.678 -0.1279 -0.1346  0.0402
  384MOL0     C51738   5.271   7.415   6.701 -0.4512  0.6968 -0.1809
  384MOL0     C51739   5.176   7.353   6.620  0.1031  0.5377 -0.9180
  384MOL0     O51740   5.051   7.397   6.638 -0.0634 -1.0002  0.4831
  384MOL0     C51741   4.949   7.325   6.582  0.1367  0.0108 -1.2221
  384MOL0     C51742   4.820   7.343   6.668 -1.1207 -0.6151 -0.8983
  384MOL0     C51743   4.764   7.202   6.721 -1.2909  0.1951  0.2340
  384MOL0     C51744   4.845   7.144   6.836  0.4971  0.3904 -0.1096
  384MOL0     C51745   4.794   6.998   6.867 -0.0961 -0.1863 -0.2822
  384MOL0     C51746   4.828   6.946   7.002 -0.1344 -0.3089  0.1220
  384MOL0     C51747   4.976   6.900   7.015  0.5185 -0.7796  0.7840
  384MOL0     C51748   5.003   6.799   7.124 -0.2430 -0.6878 -0.4535
  384MOL0    Cl51749   4.933   6.642   7.081 -0.0725 -0.0832  0.5294
  384MOL0     C51750   5.224   7.277   6.509  1.2800 -0.1469 -0.4707
  384MOL0     C51751   5.363   7.262   6.482 -0.1089 -0.2288  0.4893
  384MOL0     O51752   5.585   7.408   6.372 -0.8251  0.2201 -0.4145
  384MOL0     C51753   5.855   7.343   6.318  0.8045 -0.1127 -0.3275
  384MOL0     C51754   5.985   7.303   6.305  0.3513  0.7437  0.8025
  384MOL0     N51755   6.322   6.753   6.299 -0.2613  0.0910  0.0217
  384MOL0     N51756   6.389   6.640   6.297  0.0324 -0.3509  0.2053
  384MOL0     C51757   6.757   5.983   5.289  1.3800  0.4379 -0.7795
  384MOL0     C51758   6.763   5.993   5.150 -0.8724  1.0202 -0.8004
  384MOL0     C51759   6.684   6.187   4.724 -0.1678 -0.4649  0.5592
  384MOL0     C51760   6.708   6.064   4.654 -0.3003 -0.3920  0.0034
  384MOL0     C51761   6.711   6.050   4.517 -0.4187  0.4562  0.4212
  384MOL0     C51762   6.690   6.161   4.435 -0.4669  0.1045  1.2132
  384MOL0     O51763   6.685   6.166   4.295 -0.2197 -1.2935  0.0507
  384MOL0     C51764   6.683   6.041   4.221 -0.5761 -0.3812 -0.1238
  384MOL0     C51765   6.674   6.046   4.071 -0.6181  1.0010 -0.2792
  384MOL0     C51766   6.804   6.014   4.007  0.4576 -0.0339  0.4095
  384MOL0     C51767   6.763   6.015   3.852 -0.1515 -0.4819 -0.3289
  384MOL0     C51768   6.758   5.877   3.806  0.6019  0.4846 -0.3669
  384MOL0     C51769   6.765   5.757   3.773 -0.2860 -0.0701  0.4829
  384MOL0     C51770   6.641   6.278   4.495  0.4212  0.0347 -0.2780
  384MOL0     C51771   6.645   6.292   4.643  1.8738 -0.3667  0.6034
  384MOL0     C51772   6.587   6.424   4.688 -0.0937  0.1786  0.3569
  384MOL0     H51773   6.529   6.226   5.102 -0.4229 -2.0276 -1.6240
  384MOL0     H51774   6.509   6.203   5.343 -1.8062  0.6388 -3.6234
  384MOL0     H51775   6.666   6.242   5.558  2.5329 -0.4871  1.8665
  384MOL0     H51776   6.525   6.142   5.569  0.0649 -0.6885 -0.3138
  384MOL0     H51777   6.776   6.142   5.737  1.3885 -2.7137 -1.0965
  384MOL0     H51778   6.663   6.009   5.750  2.4083  0.4911 -0.3143
  384MOL0     H51779   6.618   6.156   5.930  2.0675  0.4569  0.8166
  384MOL0     H51780   6.491   6.177   5.802  0.0306  0.7531  0.8677
  384MOL0     H51781   6.729   6.354   5.871  0.2873 -3.3925  0.5162
  384MOL0     H51782   6.615   6.411   5.760  0.2582  3.1985  2.3721
  384MOL0     H51783   6.434   6.387   5.920  1.0355  1.3682 -0.2750
  384MOL0     H51784   6.541   6.337   6.046  0.9199  0.7804  1.1817
  384MOL0     H51785   6.580   6.591   5.880 -0.5818 -1.4868 -1.2272
  384MOL0     H51786   6.477   6.594   6.013 -1.3024  0.5517 -1.8611
  384MOL0     H51787   6.711   6.668   6.048  0.8328  0.6369  2.3138
  384MOL0     H51788   6.742   6.490   6.057 -0.4118  0.8382  0.5023
  384MOL0     H51789   6.578   6.471   6.249 -1.2754  0.9275  3.3358
  384MOL0     H51790   6.710   6.579   6.286 -0.1260 -2.3307  2.0377
  384MOL0     H51791   6.612   6.853   6.168 -0.0191 -0.4517  0.3105
  384MOL0     H51792   6.381   7.006   6.100 -0.9783  0.8234 -0.4199
  384MOL0     H51793   6.254   6.988   6.216 -1.2884 -4.7679 -2.5259
  384MOL0     H51794   6.532   7.102   6.279  0.1317 -1.1603 -0.2283
  384MOL0     H51795   6.387   7.194   6.255  0.7485 -0.1165 -1.2924
  384MOL0     H51796   6.440   7.153   6.503  3.3563 -2.3789  0.2549
  384MOL0     H51797   6.423   6.984   6.465  2.3455  1.1698  0.2202
  384MOL0     H51798   6.224   7.094   6.589  1.2384  0.1374 -0.1162
  384MOL0     H51799   6.197   7.002   6.435 -1.5411  0.2005  0.5878
  384MOL0     H51800   6.038   7.164   6.618  3.2664 -0.4192 -1.3567
  384MOL0     H51801   5.814   7.219   6.635  0.3033 -2.2640 -0.9613
  384MOL0     H51802   5.470   7.420   6.755  2.3992  0.2088 -2.1800
  384MOL0     H51803   5.235   7.468   6.789 -1.9304 -0.5187 -0.0015
  384MOL0     H51804   4.945   7.361   6.479 -0.3854 -1.4381 -1.7330
  384MOL0     H51805   4.970   7.218   6.574  3.4863  0.7093 -3.3649
  384MOL0     H51806   4.818   7.415   6.751 -2.1324  0.3245 -1.7090
  384MOL0     H51807   4.746   7.388   6.602 -3.4105 -0.8127  1.3922
  384MOL0     H51808   4.663   7.225   6.757 -0.6407  2.0355  1.0024
  384MOL0     H51809   4.759   7.124   6.645  1.5535 -1.2264  1.3630
  384MOL0     H51810   4.818   7.204   6.924  0.2695  3.2985 -2.0494
  384MOL0     H51811   4.952   7.149   6.812 -0.1629  1.4703 -3.3456
  384MOL0     H51812   4.830   6.940   6.782  0.3025  2.4198 -2.0288
  384MOL0     H51813   4.686   7.010   6.878 -0.1625 -2.7072  3.6141
  384MOL0     H51814   4.797   7.023   7.073 -1.6846 -1.3897  0.6399
  384MOL0     H51815   4.764   6.859   7.014 -1.1264  0.2666 -0.8937
  384MOL0     H51816   5.045   6.980   7.045  0.7478 -1.1516  1.2671
  384MOL0     H51817   5.012   6.859   6.920 -2.2781 -1.0393 -0.2604
  384MOL0     H51818   5.106   6.794   7.158 -1.6662  0.0483  4.7041
  384MOL0     H51819   4.945   6.840   7.207 -1.9420  2.1348 -2.7989
  384MOL0     H51820   5.146   7.240   6.444  1.5148 -1.2976 -0.1123
  384MOL0     H51821   5.403   7.211   6.395  1.5606  0.9356  0.5298
  384MOL0     H51822   5.806   7.383   6.230 -1.2613  0.7635  1.1203
  384MOL0     H51823   6.042   7.328   6.216 -0.2525  0.3603  0.2948
  384MOL0     H51824   6.830   5.922   5.341 -0.1137 -2.4414 -1.8690
  384MOL0     H51825   6.817   5.915   5.097  1.0159  1.7179 -0.0043
  384MOL0     H51826   6.728   5.969   4.704  3.9934  0.7353  0.8918
  384MOL0     H51827   6.735   5.955   4.471 -1.6245  0.5255 -0.4125
  384MOL0     H51828   6.607   5.985   4.278  2.2367 -0.8388  3.5976
  384MOL0     H51829   6.778   5.990   4.242  0.8658  1.8445 -0.9081
  384MOL0     H51830   6.637   6.145   4.044 -0.2112  1.8675  2.0886
  384MOL0     H51831   6.604   5.966   4.045  0.2980  0.0155  0.2258
  384MOL0     H51832   6.852   5.918   4.026  1.2081 -0.2558 -2.2579
  384MOL0     H51833   6.880   6.090   4.028  0.7587 -0.4557  0.8690
  384MOL0     H51834   6.672   6.076   3.852  0.0078  0.0785  4.0356
  384MOL0     H51835   6.843   6.071   3.804 -0.7939  0.1193 -0.7235
  384MOL0     H51836   6.766   5.654   3.743  1.5090 -0.7420  2.5802
  384MOL0     H51837   6.589   6.348   4.430  0.2391  1.8454  1.7142
  384MOL0     H51838   6.551   6.435   4.790 -1.4892 -1.8054  0.1406
  384MOL0     H51839   6.666   6.497   4.668  0.4189 -0.7710 -1.3695
  384MOL0     H51840   6.509   6.464   4.623 -0.3942  1.8823  1.7184
  385MOL0     O51841   7.135   0.078  11.376 -0.3492 -0.8616  0.0831
  385MOL0     C51842   7.187   0.013  11.467 -0.3005 -1.1831 -0.3627
  385MOL0     O51843   7.192  -0.123  11.472  0.1019  0.3428  0.4186
  385MOL0     C51844   7.105  -0.188  11.381 -0.6790 -0.7371 -0.9962
  385MOL0     C51845   7.143  -0.228  11.260  0.2482  1.0799 -0.6029
  385MOL0     C51846   7.041  -0.280  11.170 -0.2236  0.1749  0.4279
  385MOL0     C51847   6.904  -0.298  11.217 -0.7634  0.2170  0.2046
  385MOL0     O51848   6.810  -0.340  11.129  0.0068  0.5156  0.4988
  385MOL0     C51849   6.835  -0.403  11.000 -0.1367 -0.1567 -0.0564
  385MOL0     C51850   6.706  -0.467  10.940  0.7926  0.0849 -0.4127
  385MOL0     C51851   6.733  -0.547  10.807  0.1869 -0.4149  0.1748
  385MOL0     C51852   6.684  -0.692  10.839 -0.2527  0.7338 -0.4910
  385MOL0     C51853   6.789  -0.807  10.803  0.5723 -0.0463  0.3374
  385MOL0     C51854   6.781  -0.825  10.651 -0.3359 -0.8521 -0.0185
  385MOL0     C51855   6.650  -0.879  10.594 -0.0482 -0.0888 -0.0786
  385MOL0     C51856   6.647  -0.878  10.440 -0.8389  0.0742 -0.1881
  385MOL0     N51857   6.662  -0.742  10.399 -0.0299 -0.5074 -0.1304
  385MOL0     C51858   6.552  -0.659  10.393 -0.6943 -0.6331  0.8342
  385MOL0     C51859   6.598  -0.553  10.321 -0.6754 -0.0641  0.7293
  385MOL0     C51860   6.526  -0.436  10.262  1.3129  0.7525 -0.3345
  385MOL0     C51861   6.543  -0.339  10.379 -0.0725 -0.8520  0.0357
  385MOL0     C51862   6.498  -0.194  10.355 -0.9097  0.6079 -0.4034
  385MOL0     C51863   6.556  -0.103  10.464  0.1586 -0.0825 -0.6200
  385MOL0     O51864   6.533   0.027  10.421 -0.1006 -0.4158 -0.0728
  385MOL0     C51865   6.604   0.085  10.321  0.6314  0.1183 -0.6918
  385MOL0     C51866   6.707   0.018  10.263 -0.1146 -0.3948  0.2877
  385MOL0     C51867   6.776   0.070  10.148  0.0646  0.6949  0.1281
  385MOL0     C51868   6.750   0.207  10.098 -0.1286 -0.0842 -0.0472
  385MOL0     C51869   6.833   0.277  10.003  0.2229 -0.7178 -1.0289
  385MOL0     O51870   6.855   0.405  10.018  0.0372 -0.5781 -0.1337
  385MOL0     C51871   6.905   0.482   9.914 -0.5689  0.6611 -0.0046
  385MOL0     C51872   6.827   0.577   9.850 -0.1599  0.4640 -0.0342
  385MOL0     C51873   6.880   0.647   9.735 -0.3829  0.6741  0.5497
  385MOL0     C51874   7.008   0.618   9.690  0.2903 -0.5963  0.8957
  385MOL0     O51875   7.057   0.656   9.572  0.5383  0.0976 -0.5116
  385MOL0     C51876   6.966   0.694   9.475  0.2329  0.0940  0.4206
  385MOL0     C51877   7.060   0.729   9.350  0.2937  0.7135 -0.3277
  385MOL0     C51878   6.988   0.788   9.230  0.5140 -0.6099  1.1210
  385MOL0     C51879   7.087   0.835   9.117 -0.2770 -0.2276  0.7188
  385MOL0     C51880   7.021   0.921   9.005  0.3009 -0.2570  0.9945
  385MOL0     C51881   7.131   0.959   8.915 -0.6595 -0.2930 -1.0711
  385MOL0     C51882   7.087   1.032   8.784 -0.0977  0.3116 -0.2400
  385MOL0     C51883   7.089   0.928   8.661 -0.4586  0.2464 -0.0871
  385MOL0    Cl51884   7.013   1.009   8.529 -0.0698  0.1635  0.0539
  385MOL0     C51885   7.086   0.537   9.766  0.2691  0.1663  0.4424
  385MOL0     C51886   7.040   0.472   9.874  0.3059 -0.4410  0.8325
  385MOL0     O51887   6.877   0.212   9.917  0.7294  0.2750 -0.0233
  385MOL0     C51888   6.652   0.277  10.170  0.3389  0.4707 -0.4267
  385MOL0     C51889   6.584   0.218  10.283  0.0984  0.8181  0.0143
  385MOL0     N51890   6.733  -0.573  10.302  0.1904  0.2815  0.6463
  385MOL0     N51891   6.770  -0.692  10.347  0.3598 -0.9647 -0.1275
  385MOL0     C51892   6.871  -0.255  11.339  0.6781  2.3630 -0.3939
  385MOL0     C51893   6.973  -0.198  11.423 -0.0751 -0.5735 -0.1464
  385MOL0     C51894   7.245   0.089  11.589  0.7563 -0.8659 -0.0360
  385MOL0     C51895   7.277   0.022  11.707 -0.7072  0.2388 -0.5600
  385MOL0     C51896   7.303   0.101  11.826 -0.3026  0.1164 -0.5002
  385MOL0     C51897   7.314   0.243  11.827  0.0397 -0.0828  0.0464
  385MOL0     O51898   7.362   0.329  11.932 -0.1574  0.4087 -0.0617
  385MOL0     C51899   7.399   0.270  12.063 -0.0707 -0.7565  0.0537
  385MOL0     C51900   7.539   0.210  12.060  0.5495 -0.6265 -0.0284
  385MOL0     C51901   7.635   0.320  12.082  0.1135 -0.8566 -0.3331
  385MOL0     C51902   7.773   0.298  12.028 -0.5276  0.0423 -0.2255
  385MOL0     C51903   7.827   0.161  12.043 -0.1900  0.3707 -0.3064
  385MOL0     C51904   7.891   0.058  12.067  0.0733 -0.1924  0.5588
  385MOL0     C51905   7.278   0.303  11.713 -0.2182 -0.9537 -1.0185
  385MOL0     C51906   7.247   0.228  11.600  0.5452  0.6696  0.4645
  385MOL0     C51907   7.226   0.306  11.484 -0.4273 -0.0485  0.0387
  385MOL0     H51908   7.248  -0.216  11.235  0.7354 -1.3285  0.0338
  385MOL0     H51909   7.073  -0.310  11.070 -1.2617 -0.2102  0.2024
  385MOL0     H51910   6.890  -0.339  10.930 -1.5562 -0.9888 -2.0029
  385MOL0     H51911   6.897  -0.492  11.013 -0.7902 -0.5314  0.5608
  385MOL0     H51912   6.628  -0.393  10.920 -1.0566 -1.0479  2.0545
  385MOL0     H51913   6.661  -0.522  11.024  0.4554  0.5614 -0.2793
  385MOL0     H51914   6.840  -0.549  10.783  0.0380 -0.1454 -0.5556
  385MOL0     H51915   6.685  -0.509  10.716  0.1566 -2.3527 -0.6881
  385MOL0     H51916   6.678  -0.710  10.947 -1.6709 -2.2750 -0.9879
  385MOL0     H51917   6.582  -0.709  10.805 -0.6776  0.9107  0.6339
  385MOL0     H51918   6.891  -0.783  10.836  1.8867 -0.3291 -3.1814
  385MOL0     H51919   6.757  -0.899  10.853  0.3275  1.9365  4.3012
  385MOL0     H51920   6.796  -0.725  10.608 -2.9956  0.2054  1.2756
  385MOL0     H51921   6.861  -0.887  10.611  1.2566 -0.4724  2.3466
  385MOL0     H51922   6.561  -0.839  10.643  0.4578  0.0317  0.7573
  385MOL0     H51923   6.643  -0.983  10.627  0.4459 -0.0648  0.1054
  385MOL0     H51924   6.732  -0.936  10.403 -0.6460  1.7667 -2.6514
  385MOL0     H51925   6.553  -0.918  10.402 -0.3939  0.7613 -2.1292
  385MOL0     H51926   6.455  -0.688  10.432 -1.7538 -0.2402 -1.3329
  385MOL0     H51927   6.568  -0.417  10.163  0.9252  0.5414 -0.5416
  385MOL0     H51928   6.419  -0.456  10.254  1.4562 -0.9570  1.2176
  385MOL0     H51929   6.493  -0.386  10.464 -0.9792  1.7069  1.0004
  385MOL0     H51930   6.649  -0.336  10.406  0.1617 -1.1482 -0.7899
  385MOL0     H51931   6.389  -0.187  10.365 -0.8754 -0.5747  1.1180
  385MOL0     H51932   6.526  -0.165  10.253  0.6654 -3.4277 -1.2803
  385MOL0     H51933   6.660  -0.121  10.492 -0.5570 -0.4884  2.0501
  385MOL0     H51934   6.508  -0.120  10.561 -1.6384 -0.8580 -1.5970
  385MOL0     H51935   6.721  -0.086  10.290  0.4453  0.0332  1.7502
  385MOL0     H51936   6.854   0.010  10.102 -1.3437 -1.5351  0.4813
  385MOL0     H51937   6.722   0.591   9.872 -0.5663 -0.9061 -0.9236
  385MOL0     H51938   6.816   0.714   9.679 -1.3712  1.1607  2.1826
  385MOL0     H51939   6.889   0.628   9.433 -2.4000  3.0951  0.1221
  385MOL0     H51940   6.918   0.784   9.513  2.5844  1.2832  0.7681
  385MOL0     H51941   7.114   0.811   9.400 -0.5878 -0.1448  2.1947
  385MOL0     H51942   7.140   0.659   9.323  3.0672  3.7025 -0.4374
  385MOL0     H51943   6.920   0.711   9.193 -0.1016  1.1413 -1.7013
  385MOL0     H51944   6.939   0.878   9.269  2.8382  0.1722  2.4183
  385MOL0     H51945   7.146   0.752   9.078  4.3106  2.3097  1.5952
  385MOL0     H51946   7.172   0.888   9.160  1.1051 -1.0248 -0.9188
  385MOL0     H51947   6.977   1.010   9.053  0.5687  1.0099 -1.0158
  385MOL0     H51948   6.946   0.861   8.953 -1.6292  0.9533  2.2233
  385MOL0     H51949   7.195   1.025   8.974 -0.1618  0.0965 -2.0228
  385MOL0     H51950   7.200   0.877   8.892 -0.2016  0.4174 -2.3603
  385MOL0     H51951   7.153   1.115   8.758  3.2253 -2.8767 -3.1400
  385MOL0     H51952   6.982   1.060   8.797 -0.6929 -1.9506  0.3908
  385MOL0     H51953   7.195   0.915   8.640  0.2681  0.2322  3.0323
  385MOL0     H51954   7.044   0.830   8.683  3.4541 -1.6084  0.6441
  385MOL0     H51955   7.190   0.522   9.736  0.2752  3.0334 -1.3598
  385MOL0     H51956   7.112   0.409   9.926 -2.5293 -3.4515  1.5062
  385MOL0     H51957   6.643   0.383  10.149  0.7991  0.6942  0.4928
  385MOL0     H51958   6.511   0.280  10.335 -2.3903 -0.1787 -2.0308
  385MOL0     H51959   6.773  -0.284  11.376  1.4027 -1.5328 -1.0646
  385MOL0     H51960   6.948  -0.168  11.525 -0.3238  0.9510 -0.6438
  385MOL0     H51961   7.268  -0.086  11.716  0.0509  0.2207  0.0311
  385MOL0     H51962   7.344   0.059  11.917  2.3164  0.2139 -1.5376
  385MOL0     H51963   7.326   0.191  12.082 -3.2904  1.7088 -1.0011
  385MOL0     H51964   7.392   0.329  12.155 -2.4065 -2.0547  0.7938
  385MOL0     H51965   7.551   0.147  11.971 -2.0948  0.3166 -1.1830
  385MOL0     H51966   7.553   0.148  12.148  1.4556 -1.5029 -0.7643
  385MOL0     H51967   7.641   0.344  12.189 -0.6830 -1.4466 -0.1447
  385MOL0     H51968   7.596   0.410  12.034 -1.4467 -1.7308 -0.7736
  385MOL0     H51969   7.764   0.303  11.919  3.5183 -0.3686 -0.7308
  385MOL0     H51970   7.843   0.369  12.073  0.9452 -1.4937  0.0233
  385MOL0     H51971   7.939  -0.036  12.085  1.4210 -0.0802 -1.9433
  385MOL0     H51972   7.277   0.411  11.703  2.2036 -1.0247 -2.8107
  385MOL0     H51973   7.284   0.273  11.397  1.3244  2.3169  0.2256
  385MOL0     H51974   7.118   0.316  11.464 -2.1053 -2.9945  5.4877
  385MOL0     H51975   7.256   0.410  11.494  0.5091 -0.4178  1.3972
  386MOL0     O51976   4.884  10.962   0.069 -0.1606 -1.0798 -0.5658
  386MOL0     C51977   5.001  10.924   0.087 -0.6118  0.9551  0.0103
  386MOL0     O51978   5.107  11.008   0.098 -0.7452  0.1039  0.7517
  386MOL0     C51979   5.080  11.137   0.065 -0.5446  0.2730 -1.0324
  386MOL0     C51980   5.054  11.226   0.174  0.0810 -0.3839  0.8315
  386MOL0     C51981   5.022  11.359   0.141  0.7607  1.0841 -0.6664
  386MOL0     C51982   5.028  11.410   0.014 -0.7014  0.2737  0.2320
  386MOL0     O51983   4.986  11.539  -0.024 -0.1404 -0.0143 -0.9542
  386MOL0     C51984   4.843  11.534  -0.041  0.3188 -0.0892  0.0448
  386MOL0     C51985   4.785  11.636  -0.144  0.2202 -0.0023 -0.7453
  386MOL0     C51986   4.836  11.615  -0.289  0.4628 -0.3534 -0.0602
  386MOL0     C51987   4.720  11.647  -0.384 -0.5124 -0.5706 -0.6447
  386MOL0     C51988   4.652  11.786  -0.374  0.0101 -0.6052 -1.0431
  386MOL0     C51989   4.542  11.814  -0.477 -0.4968 -0.4330 -0.7106
  386MOL0     C51990   4.487  11.959  -0.487 -1.4191  0.5483 -0.1097
  386MOL0     C51991   4.405  12.002  -0.603  0.0738  0.3230  0.5863
  386MOL0     N51992   4.475  11.978  -0.725 -0.4512 -0.3983 -0.3657
  386MOL0     C51993   4.572  12.056  -0.774 -1.3466 -0.1010 -0.7655
  386MOL0     C51994   4.617  11.988  -0.885 -0.3656 -1.4632 -0.1169
  386MOL0     C51995   4.743  12.047  -0.950 -0.0731  0.2493  0.0256
  386MOL0     C51996   4.839  11.943  -1.021 -0.7422 -0.5615  0.2828
  386MOL0     C51997   4.957  11.872  -0.944  0.4966 -0.6110 -0.4308
  386MOL0     C51998   4.904  11.763  -0.849 -0.4175 -1.4124  0.5356
  386MOL0     O51999   5.005  11.710  -0.771  0.2206 -0.3446  0.7024
  386MOL0     C52000   5.047  11.768  -0.646 -0.3281 -0.0848 -0.8695
  386MOL0     C52001   5.118  11.701  -0.554 -0.6262 -0.3854 -0.7956
  386MOL0     C52002   5.154  11.748  -0.429  0.4514  0.9934 -0.0583
  386MOL0     C52003   5.110  11.877  -0.386 -0.4146  0.4856  0.2120
  386MOL0     C52004   5.145  11.932  -0.254  0.2188  0.2420 -0.6784
  386MOL0     O52005   5.198  11.840  -0.181  0.4870 -0.4638  0.1788
  386MOL0     C52006   5.256  11.872  -0.065 -0.7864  0.1305 -0.5122
  386MOL0     C52007   5.208  11.823   0.061 -0.5337 -0.9380  0.3984
  386MOL0     C52008   5.264  11.865   0.188 -0.0658  0.8874 -0.1857
  386MOL0     C52009   5.377  11.949   0.189 -0.0132 -0.3872  0.2293
  386MOL0     O52010   5.431  11.994   0.310  0.2296  0.1154  0.5335
  386MOL0     C52011   5.359  11.957   0.432 -0.4243 -0.1270 -0.8090
  386MOL0     C52012   5.400  12.033   0.555 -0.4802 -0.8395 -0.2007
  386MOL0     C52013   5.312  11.996   0.676 -0.3293 -0.9252  0.2231
  386MOL0     C52014   5.364  12.054   0.806  0.3570  0.4285 -0.9319
  386MOL0     C52015   5.260  12.029   0.916  0.3575 -0.3681  0.1756
  386MOL0     C52016   5.301  12.111   1.040  0.1800 -0.2441 -0.0839
  386MOL0     C52017   5.259  12.069   1.175  0.3416  0.2833  0.6110
  386MOL0     C52018   5.115  12.052   1.197  0.0385  0.0910  0.8922
  386MOL0    Cl52019   5.065  11.908   1.125  0.6804  0.4371  0.0635
  386MOL0     C52020   5.420  11.999   0.062  0.3154  0.4175  0.9805
  386MOL0     C52021   5.363  11.962  -0.067  0.0619  0.3614  0.0804
  386MOL0     O52022   5.118  12.051  -0.230 -0.5826 -0.1615 -0.0458
  386MOL0     C52023   5.046  11.956  -0.484  0.4954  1.2043 -0.0695
  386MOL0     C52024   5.021  11.904  -0.611 -0.7469 -0.5768  0.4580
  386MOL0     N52025   4.541  11.881  -0.920  0.3061 -0.5687 -0.1183
  386MOL0     N52026   4.462  11.867  -0.814 -0.4812  1.0783 -0.7110
  386MOL0     C52027   5.073  11.324  -0.088 -0.1434 -0.0649 -0.1558
  386MOL0     C52028   5.079  11.191  -0.065  1.0106 -0.2114  0.4031
  386MOL0     C52029   5.033  10.776   0.111  1.2916 -0.1241  0.6230
  386MOL0     C52030   5.163  10.745   0.150 -0.2589 -0.3118  0.3371
  386MOL0     C52031   5.197  10.618   0.180 -0.8982 -0.4018  0.4312
  386MOL0     C52032   5.111  10.514   0.169  0.0726  0.2595  0.4614
  386MOL0     O52033   5.169  10.396   0.199 -0.7450  0.8913 -0.3627
  386MOL0     C52034   5.091  10.319   0.287 -0.6533 -0.2325 -0.4840
  386MOL0     C52035   5.190  10.202   0.320  0.0905 -0.1678  0.3163
  386MOL0     C52036   5.304  10.242   0.423 -1.4134 -0.4954  0.4754
  386MOL0     C52037   5.396  10.119   0.441  0.2969 -0.3944 -1.0917
  386MOL0     C52038   5.533  10.150   0.486  0.0147  0.5949 -0.6982
  386MOL0     C52039   5.647  10.171   0.524  0.5228  0.1381  0.3341
  386MOL0     C52040   4.982  10.535   0.128  0.0893 -0.0035  0.2013
  386MOL0     C52041   4.938  10.669   0.092 -0.2495 -0.4138 -0.0679
  386MOL0     C52042   4.791  10.675   0.048 -1.0946 -0.6544  0.0375
  386MOL0     H52043   5.044  11.187   0.275  1.5031  1.1172  1.5984
  386MOL0     H52044   5.003  11.433   0.218 -0.7054 -0.2216  0.2871
  386MOL0     H52045   4.805  11.441  -0.085 -2.2058 -0.3338  2.4658
  386MOL0     H52046   4.798  11.545   0.058  3.2332  1.2875  1.3218
  386MOL0     H52047   4.811  11.739  -0.121  1.0239  0.4615 -3.4258
  386MOL0     H52048   4.677  11.616  -0.145 -0.0432  1.2620  0.3327
  386MOL0     H52049   4.872  11.512  -0.303  0.0217 -0.7246  1.3649
  386MOL0     H52050   4.915  11.687  -0.312  1.1979 -1.1637 -0.1171
  386MOL0     H52051   4.768  11.641  -0.481 -1.9635  1.3906 -1.5683
  386MOL0     H52052   4.639  11.576  -0.365 -1.4880  0.7169  0.3017
  386MOL0     H52053   4.604  11.811  -0.279  2.8511 -1.8048  0.8518
  386MOL0     H52054   4.738  11.853  -0.385  0.0520 -0.6013 -0.6790
  386MOL0     H52055   4.557  11.782  -0.581 -2.7845  0.3492 -1.3319
  386MOL0     H52056   4.456  11.759  -0.438  0.1127  0.3683  1.9847
  386MOL0     H52057   4.576  12.022  -0.480 -1.8392  1.1697 -0.3547
  386MOL0     H52058   4.427  11.984  -0.399 -3.0001 -0.2492 -0.9199
  386MOL0     H52059   4.313  11.944  -0.596 -0.1024  0.6937  1.5385
  386MOL0     H52060   4.396  12.111  -0.603  3.1339  0.7078 -2.0587
  386MOL0     H52061   4.613  12.149  -0.736 -2.2990  0.0459 -0.0616
  386MOL0     H52062   4.706  12.116  -1.026  1.8247 -0.8268 -1.9493
  386MOL0     H52063   4.789  12.096  -0.864 -2.6732  0.7964  1.2195
  386MOL0     H52064   4.777  11.873  -1.078 -0.9499  0.5070 -0.8368
  386MOL0     H52065   4.898  12.007  -1.087 -1.3271  0.8538  1.0915
  386MOL0     H52066   5.019  11.949  -0.897 -3.0864  2.4786 -0.3272
  386MOL0     H52067   5.013  11.823  -1.024  1.9275  1.0930 -0.5246
  386MOL0     H52068   4.858  11.682  -0.906  0.0261 -0.6016 -1.0178
  386MOL0     H52069   4.819  11.806  -0.795  2.6842  2.7181  2.7390
  386MOL0     H52070   5.162  11.609  -0.589  1.3097  1.2221 -2.9164
  386MOL0     H52071   5.211  11.677  -0.371 -2.2063 -1.6299 -0.4472
  386MOL0     H52072   5.126  11.752   0.057 -1.9094  0.6182  0.0155
  386MOL0     H52073   5.230  11.815   0.278 -2.6799  3.0820  0.1930
  386MOL0     H52074   5.254  11.985   0.420 -0.5144  0.7477  1.4875
  386MOL0     H52075   5.369  11.854   0.467 -0.8606  0.7917  2.4234
  386MOL0     H52076   5.500  11.992   0.572 -0.6808 -1.1622  0.2434
  386MOL0     H52077   5.400  12.139   0.530  0.4543 -1.0173 -1.0200
  386MOL0     H52078   5.212  12.029   0.646 -0.6541 -0.4625  1.7190
  386MOL0     H52079   5.306  11.887   0.681 -2.4453 -0.8333  0.2010
  386MOL0     H52080   5.374  12.162   0.789 -2.5896  0.5653 -2.4508
  386MOL0     H52081   5.457  12.000   0.828  0.8520  1.1052 -1.3182
  386MOL0     H52082   5.279  11.923   0.934  0.4276 -0.1643  1.4078
  386MOL0     H52083   5.159  12.055   0.884  0.5047 -0.8719 -0.7427
  386MOL0     H52084   5.410  12.116   1.052  0.1601  1.3163 -0.3586
  386MOL0     H52085   5.258  12.211   1.030 -1.4097 -1.0147 -1.4613
  386MOL0     H52086   5.294  12.148   1.241  1.4803  0.2195  0.1121
  386MOL0     H52087   5.309  11.979   1.213 -2.4335 -0.3087  3.2608
  386MOL0     H52088   5.095  12.048   1.305  1.5993 -0.4544  1.1919
  386MOL0     H52089   5.049  12.123   1.147 -1.9427 -0.2991  2.8094
  386MOL0     H52090   5.510  12.059   0.058  0.3789  0.2705 -1.3006
  386MOL0     H52091   5.394  12.008  -0.161  1.0148  1.4519  0.9017
  386MOL0     H52092   4.997  12.046  -0.450  1.1098  0.8774  1.8301
  386MOL0     H52093   4.972  11.971  -0.680  0.0296  0.9251  1.2966
  386MOL0     H52094   5.079  11.360  -0.190  0.6483 -2.7217 -1.1407
  386MOL0     H52095   5.105  11.129  -0.150 -1.7341  0.4023 -1.0074
  386MOL0     H52096   5.228  10.829   0.170 -0.5689  0.3548 -1.2793
  386MOL0     H52097   5.295  10.599   0.225 -0.0112 -1.4132 -1.7936
  386MOL0     H52098   5.005  10.278   0.234  0.8236 -0.4096 -2.8703
  386MOL0     H52099   5.047  10.363   0.377 -0.0321  0.1509 -0.3560
  386MOL0     H52100   5.229  10.165   0.224  1.6469 -0.0331  0.8597
  386MOL0     H52101   5.122  10.127   0.361  2.2373 -2.7620 -0.5427
  386MOL0     H52102   5.255  10.273   0.516 -0.1863  1.3425  0.5557
  386MOL0     H52103   5.364  10.321   0.377  0.1257 -1.9462 -0.1094
  386MOL0     H52104   5.346  10.037   0.493  3.1788 -1.4931  0.1071
  386MOL0     H52105   5.407  10.087   0.337 -1.5802  0.3194 -1.5675
  386MOL0     H52106   5.740  10.213   0.559  1.1650  2.9709 -3.8897
  386MOL0     H52107   4.904  10.461   0.121 -0.7130  0.8244  0.1329
  386MOL0     H52108   4.786  10.703  -0.057  2.3128  0.1303 -0.0317
  386MOL0     H52109   4.741  10.578   0.061 -0.2143 -0.8538  2.4424
  386MOL0     H52110   4.734  10.746   0.108  1.2320  2.6300 -1.3158
  387MOL0     O52111   2.004   0.438   1.681  0.2964 -0.0155 -0.1575
  387MOL0     C52112   1.920   0.456   1.765  0.3171 -0.1324  0.3054
  387MOL0     O52113   1.835   0.360   1.801  0.0213 -0.1672  0.1087
  387MOL0     C52114   1.823   0.237   1.760  0.1841 -0.7651  0.6079
  387MOL0     C52115   1.700   0.184   1.776 -0.1909 -0.1629 -1.2040
  387MOL0     C52116   1.673   0.059   1.739  1.0037  0.3047  0.0954
  387MOL0     C52117   1.770  -0.024   1.692 -0.6132  1.6037  0.0776
  387MOL0     O52118   1.742  -0.156   1.664 -0.4132  0.7695 -0.7494
  387MOL0     C52119   1.666  -0.219   1.762  0.3407 -0.5822  0.0021
  387MOL0     C52120   1.683  -0.373   1.754 -0.3092  0.5966 -0.0477
  387MOL0     C52121   1.570  -0.446   1.820  0.2375 -0.2783 -0.3934
  387MOL0     C52122   1.608  -0.602   1.826 -0.0992 -0.0338 -0.2300
  387MOL0     C52123   1.479  -0.676   1.852 -0.3285 -0.4812 -0.2397
  387MOL0     C52124   1.490  -0.831   1.846 -0.1162 -1.0222  1.3626
  387MOL0     C52125   1.584  -0.885   1.946  0.1157  0.7380  0.8890
  387MOL0     C52126   1.517  -0.899   2.085 -0.0679 -1.0836 -0.2681
  387MOL0     N52127   1.626  -0.929   2.183 -0.4982 -0.1186  0.2843
  387MOL0     C52128   1.725  -0.842   2.218  0.6500  0.1074 -0.1424
  387MOL0     C52129   1.801  -0.906   2.304  0.5841 -0.3791  0.5501
  387MOL0     C52130   1.922  -0.850   2.368  0.2754  0.8021 -0.4389
  387MOL0     C52131   1.898  -0.832   2.521 -0.6856 -0.0050 -0.2084
  387MOL0     C52132   1.907  -0.684   2.573 -0.0599 -0.4604  0.1280
  387MOL0     C52133   1.766  -0.605   2.570  0.6401  0.0136  0.3242
  387MOL0     O52134   1.654  -0.690   2.610 -0.3178  0.2201 -0.1155
  387MOL0     C52135   1.544  -0.664   2.531  0.4885 -0.7115  0.8041
  387MOL0     C52136   1.511  -0.553   2.460  0.2588 -1.0672  0.1561
  387MOL0     C52137   1.406  -0.560   2.360  0.3845  1.3022 -0.8821
  387MOL0     C52138   1.333  -0.681   2.344 -1.1254 -0.7653  0.2964
  387MOL0     C52139   1.233  -0.697   2.237  0.6519  0.8312  0.1709
  387MOL0     O52140   1.198  -0.586   2.169  0.3475  0.5130  0.3240
  387MOL0     C52141   1.100  -0.598   2.068  0.1659 -0.1518 -0.2746
  387MOL0     C52142   0.968  -0.542   2.080 -0.2246  0.2357 -0.4495
  387MOL0     C52143   0.870  -0.561   1.986  0.2693 -1.1834  0.3510
  387MOL0     C52144   0.896  -0.646   1.875 -0.3547 -0.6334 -0.2174
  387MOL0     O52145   0.791  -0.664   1.785  0.1561  0.8585  0.6357
  387MOL0     C52146   0.762  -0.797   1.732 -0.4200  0.1037  0.0861
  387MOL0     C52147   0.836  -0.822   1.610 -1.2605 -0.1079 -0.0961
  387MOL0     C52148   0.846  -0.704   1.511  0.5672  1.1675 -0.7341
  387MOL0     C52149   0.921  -0.739   1.377  0.0155 -0.0265 -0.0466
  387MOL0     C52150   1.063  -0.779   1.410  0.1472 -0.4074 -0.1921
  387MOL0     C52151   1.162  -0.676   1.474  0.0731  0.1391 -0.2946
  387MOL0     C52152   1.294  -0.748   1.512 -0.3056  0.6016  0.5922
  387MOL0     C52153   1.419  -0.647   1.501  0.5684 -0.1247 -0.1094
  387MOL0    Cl52154   1.472  -0.633   1.330  0.4722  0.1799 -0.2524
  387MOL0     C52155   1.028  -0.687   1.843  0.2477  0.6925 -0.0244
  387MOL0     C52156   1.127  -0.667   1.951  0.3339  1.1910  0.5283
  387MOL0     O52157   1.189  -0.813   2.214  1.0867 -0.0137 -0.0375
  387MOL0     C52158   1.367  -0.791   2.425 -0.1798 -0.1431 -0.1687
  387MOL0     C52159   1.458  -0.775   2.523 -0.1571  0.3127 -0.7667
  387MOL0     N52160   1.754  -1.038   2.314 -0.0558 -1.2097 -0.4480
  387MOL0     N52161   1.642  -1.046   2.251 -0.9677  0.0122 -0.1117
  387MOL0     C52162   1.898   0.020   1.665  0.0014  0.2080  1.1721
  387MOL0     C52163   1.919   0.157   1.689 -0.3387 -0.4027 -0.6721
  387MOL0     C52164   1.917   0.574   1.831  0.9178 -0.5154 -0.0650
  387MOL0     C52165   1.797   0.630   1.853  0.2973  0.4556 -0.2167
  387MOL0     C52166   1.784   0.761   1.907 -0.5699  1.0859 -0.9839
  387MOL0     C52167   1.902   0.831   1.946  0.1463 -0.5823  0.6821
  387MOL0     O52168   1.898   0.962   1.993  0.2961  0.5085  0.6932
  387MOL0     C52169   1.779   0.999   2.073 -0.6045  0.8145 -0.1996
  387MOL0     C52170   1.813   1.122   2.161 -0.7121  0.2912 -0.4216
  387MOL0     C52171   1.712   1.178   2.253  0.1759 -0.5038 -0.4704
  387MOL0     C52172   1.634   1.069   2.335 -0.2399 -0.1900 -0.5734
  387MOL0     C52173   1.568   1.134   2.446  0.0333  0.3777 -0.3812
  387MOL0     C52174   1.492   1.183   2.525  0.0396  0.1167  0.8198
  387MOL0     C52175   2.024   0.762   1.940  0.1955  1.1913 -0.2575
  387MOL0     C52176   2.038   0.635   1.875  0.5598 -0.3697 -0.3820
  387MOL0     C52177   2.172   0.571   1.878  0.3028  0.3187 -0.6022
  387MOL0     H52178   1.624   0.243   1.826  2.2270  0.7072  1.7506
  387MOL0     H52179   1.575   0.018   1.760  0.8062  0.3676 -0.6711
  387MOL0     H52180   1.695  -0.187   1.862 -0.0895 -2.2438  0.6904
  387MOL0     H52181   1.560  -0.193   1.753  0.4944 -0.1506 -0.6567
  387MOL0     H52182   1.774  -0.383   1.813 -1.3663  0.1837  1.5740
  387MOL0     H52183   1.698  -0.411   1.653  0.6223  0.8456 -0.0052
  387MOL0     H52184   1.481  -0.431   1.759 -0.1868 -0.4097  0.1849
  387MOL0     H52185   1.549  -0.406   1.920 -0.4956 -1.8763  0.1211
  387MOL0     H52186   1.665  -0.641   1.741 -0.1025 -1.9544  0.6075
  387MOL0     H52187   1.669  -0.619   1.915 -1.3320  0.0488  0.6499
  387MOL0     H52188   1.450  -0.630   1.947  1.6091  2.0168 -0.7607
  387MOL0     H52189   1.413  -0.643   1.772  1.2533  2.0216 -0.5951
  387MOL0     H52190   1.390  -0.875   1.847 -1.3051  1.1493 -2.5809
  387MOL0     H52191   1.527  -0.850   1.745 -0.4088  2.1547  0.5532
  387MOL0     H52192   1.683  -0.837   1.952 -0.9433  3.1359  0.2916
  387MOL0     H52193   1.607  -0.983   1.903 -2.9291 -0.9889  2.8506
  387MOL0     H52194   1.474  -0.806   2.124  1.5971  0.0162 -0.9831
  387MOL0     H52195   1.439  -0.976   2.093 -1.0736 -0.0104  0.8892
  387MOL0     H52196   1.743  -0.745   2.174 -1.7632  2.0066  2.6585
  387MOL0     H52197   2.005  -0.919   2.354  0.3716 -0.1931  3.6261
  387MOL0     H52198   1.957  -0.759   2.320  0.0494  2.6889  2.6944
  387MOL0     H52199   1.795  -0.864   2.537 -0.8946  1.1340  0.9254
  387MOL0     H52200   1.966  -0.895   2.579 -4.2050 -1.2616  2.9832
  387MOL0     H52201   1.971  -0.629   2.504 -1.7436  1.8087  0.2720
  387MOL0     H52202   1.940  -0.675   2.677  3.6179  2.5624 -1.0749
  387MOL0     H52203   1.744  -0.578   2.466 -0.5438 -0.6277  0.3979
  387MOL0     H52204   1.772  -0.515   2.632  1.9326 -0.8885  1.5551
  387MOL0     H52205   1.560  -0.459   2.485 -1.3241 -0.7210  2.2065
  387MOL0     H52206   1.390  -0.471   2.300  2.9296  1.3820 -1.5653
  387MOL0     H52207   0.951  -0.492   2.175  4.5924  1.1419  0.1969
  387MOL0     H52208   0.776  -0.507   1.993  0.5347 -0.6096 -0.4262
  387MOL0     H52209   0.772  -0.870   1.813  4.6126 -0.7051 -0.9287
  387MOL0     H52210   0.658  -0.791   1.697 -0.7407  1.4311  1.1593
  387MOL0     H52211   0.932  -0.866   1.636 -0.7533 -0.2649 -2.0792
  387MOL0     H52212   0.779  -0.904   1.564 -0.6791 -0.7245  0.2514
  387MOL0     H52213   0.745  -0.670   1.489  0.4108  1.3474  0.2021
  387MOL0     H52214   0.894  -0.622   1.566  1.0767 -1.3547  2.9347
  387MOL0     H52215   0.920  -0.652   1.312 -3.1589  1.0116  1.1927
  387MOL0     H52216   0.865  -0.815   1.321  1.0619 -0.3457 -0.6901
  387MOL0     H52217   1.108  -0.816   1.317  2.5297  2.9096 -0.5155
  387MOL0     H52218   1.067  -0.861   1.483 -0.9939 -0.6343 -0.3618
  387MOL0     H52219   1.180  -0.588   1.412 -0.0204  1.6276  1.7103
  387MOL0     H52220   1.111  -0.644   1.565 -0.8716 -0.6074 -0.5442
  387MOL0     H52221   1.305  -0.837   1.451 -0.8878  0.0525  1.2665
  387MOL0     H52222   1.301  -0.779   1.616  0.4592 -3.1462 -0.4428
  387MOL0     H52223   1.407  -0.547   1.544 -2.3998  0.3951 -1.9092
  387MOL0     H52224   1.507  -0.685   1.554  2.5887  1.0767 -2.3985
  387MOL0     H52225   1.048  -0.746   1.754 -2.2804  1.7954 -1.4253
  387MOL0     H52226   1.227  -0.707   1.936 -0.9679 -1.6216 -1.5427
  387MOL0     H52227   1.313  -0.883   2.408 -0.8618  0.6751 -2.9588
  387MOL0     H52228   1.481  -0.858   2.589 -1.7109  0.0552 -0.5224
  387MOL0     H52229   1.985  -0.040   1.638 -0.4422  0.2224 -0.4004
  387MOL0     H52230   2.016   0.206   1.693 -0.5244 -0.1135  1.6871
  387MOL0     H52231   1.704   0.578   1.831 -0.5032  1.4047  0.7646
  387MOL0     H52232   1.686   0.806   1.923 -0.8124  0.2839 -0.1590
  387MOL0     H52233   1.758   0.916   2.141 -0.3634  0.4507 -0.5593
  387MOL0     H52234   1.689   1.025   2.015 -2.0652 -0.9462  1.1414
  387MOL0     H52235   1.852   1.205   2.102 -0.4646  1.1471  0.8911
  387MOL0     H52236   1.899   1.099   2.224 -1.0644 -0.3364 -0.1604
  387MOL0     H52237   1.634   1.228   2.196 -0.4350  1.3605  1.8528
  387MOL0     H52238   1.763   1.254   2.314 -4.4105 -0.7601  4.3849
  387MOL0     H52239   1.560   1.008   2.282 -0.6731 -1.8613  1.7631
  387MOL0     H52240   1.710   1.002   2.376  0.6507  0.8859 -0.4214
  387MOL0     H52241   1.415   1.216   2.592 -1.0109 -1.5106  0.4648
  387MOL0     H52242   2.104   0.805   2.000 -0.8242  2.3399  0.3139
  387MOL0     H52243   2.176   0.463   1.893  0.5481  0.3435 -0.4841
  387MOL0     H52244   2.200   0.592   1.775  2.0282  1.5429  0.0631
  387MOL0     H52245   2.246   0.612   1.947 -0.6029  2.6084 -0.8771
  388MOL0     O52246   4.828   8.860  10.843 -1.0175 -0.0231 -0.0061
  388MOL0     C52247   4.888   8.965  10.815 -0.9038  0.2509 -0.0282
  388MOL0     O52248   4.849   9.070  10.731 -0.4306 -0.7765  0.2265
  388MOL0     C52249   4.739   9.055  10.654  0.1692  0.2647  0.2654
  388MOL0     C52250   4.629   9.106  10.711 -0.0398  0.4439 -0.9408
  388MOL0     C52251   4.506   9.117  10.641 -0.6204  0.1876  0.1521
  388MOL0     C52252   4.508   9.085  10.506  0.0551 -0.9531  0.0227
  388MOL0     O52253   4.394   9.107  10.442 -0.2227  0.1726  0.2431
  388MOL0     C52254   4.401   9.145  10.304  0.4697 -0.9274  0.4576
  388MOL0     C52255   4.394   9.029  10.210 -0.1219 -0.5889 -0.0076
  388MOL0     C52256   4.257   8.975  10.204  0.5960 -1.1072  0.1899
  388MOL0     C52257   4.264   8.822  10.181 -0.3482  0.1510 -0.3946
  388MOL0     C52258   4.326   8.806  10.041 -0.9441  0.5293 -0.6021
  388MOL0     C52259   4.265   8.687   9.973  0.5508  0.3114  0.3674
  388MOL0     C52260   4.361   8.627   9.867 -0.4967 -0.4765 -0.0800
  388MOL0     C52261   4.315   8.487   9.812 -0.7002 -0.0764 -0.2715
  388MOL0     N52262   4.370   8.382   9.899  0.0047  0.1093  0.6368
  388MOL0     C52263   4.494   8.322   9.871 -1.3930 -0.4350  0.3891
  388MOL0     C52264   4.529   8.242   9.980 -0.0099 -0.0946  0.7378
  388MOL0     C52265   4.649   8.166  10.010 -0.6216 -0.4288  0.2146
  388MOL0     C52266   4.745   8.169   9.890  0.2336 -0.6702 -0.6851
  388MOL0     C52267   4.867   8.070   9.909  1.0069 -0.1734  0.0175
  388MOL0     C52268   4.849   7.919   9.886 -0.2805 -0.0831 -0.7340
  388MOL0     O52269   4.803   7.902   9.752  0.0050 -0.0532  0.8892
  388MOL0     C52270   4.748   7.774   9.720  0.2166  0.8651  0.3628
  388MOL0     C52271   4.695   7.679   9.815  0.0973  0.1437  0.3127
  388MOL0     C52272   4.691   7.547   9.770  0.6467 -0.6265  0.8650
  388MOL0     C52273   4.715   7.498   9.640  0.3148 -0.5839  0.2689
  388MOL0     C52274   4.717   7.362   9.600  0.6953  0.3046  0.3935
  388MOL0     O52275   4.701   7.270   9.694  0.0130 -0.6127  0.1870
  388MOL0     C52276   4.798   7.174   9.709  1.1695  0.1581  0.2661
  388MOL0     C52277   4.934   7.189   9.676 -0.0170 -0.3753 -0.7984
  388MOL0     C52278   5.019   7.092   9.702 -0.7772  0.7467  0.3925
  388MOL0     C52279   4.974   6.965   9.751 -0.7125 -0.1777  0.1827
  388MOL0     O52280   5.066   6.856   9.748 -0.4107 -0.3139  0.5741
  388MOL0     C52281   5.063   6.741   9.843  0.4062 -0.3038  0.4070
  388MOL0     C52282   5.201   6.675   9.831 -0.6055  0.8560 -0.5908
  388MOL0     C52283   5.242   6.573   9.945 -0.6758  0.6335 -0.4581
  388MOL0     C52284   5.173   6.436   9.939  0.1847  0.4297  0.1771
  388MOL0     C52285   5.262   6.312   9.960 -0.6255  0.5223  0.0993
  388MOL0     C52286   5.341   6.318  10.096 -0.7203  0.1075  0.4293
  388MOL0     C52287   5.493   6.333  10.075 -0.2682  0.1073  0.0296
  388MOL0     C52288   5.578   6.296  10.201  0.6481  0.1867 -0.6798
  388MOL0    Cl52289   5.530   6.395  10.341 -0.0244  0.5983  0.2374
  388MOL0     C52290   4.847   6.946   9.788 -0.2281 -0.3772  0.6563
  388MOL0     C52291   4.758   7.055   9.776 -0.1644  0.4279  0.1598
  388MOL0     O52292   4.730   7.335   9.485  0.5616  0.3228  0.1786
  388MOL0     C52293   4.745   7.604   9.546 -0.1760  1.1643  0.6942
  388MOL0     C52294   4.771   7.732   9.592  0.0023  1.3310 -0.3894
  388MOL0     N52295   4.427   8.266  10.063  1.0704  0.0147  0.1587
  388MOL0     N52296   4.329   8.341  10.015 -0.3410 -0.5850 -0.3480
  388MOL0     C52297   4.624   9.034  10.446 -0.3144  0.4901 -0.0760
  388MOL0     C52298   4.748   9.018  10.518  0.4658 -0.0594 -0.9844
  388MOL0     C52299   5.015   8.991  10.875 -0.5577  0.1544 -0.7548
  388MOL0     C52300   5.075   9.113  10.851  0.1540 -0.0466  0.6498
  388MOL0     C52301   5.184   9.147  10.916 -0.8054 -0.9259 -1.6574
  388MOL0     C52302   5.266   9.060  10.993  0.0612  0.8203 -0.0591
  388MOL0     O52303   5.384   9.092  11.038 -0.3626  0.1517  0.1326
  388MOL0     C52304   5.428   9.045  11.166 -0.6173 -0.7465  1.1488
  388MOL0     C52305   5.572   9.075  11.155 -1.7787  0.9247 -0.2756
  388MOL0     C52306   5.651   8.986  11.055  0.3465 -0.4753  0.6919
  388MOL0     C52307   5.657   8.837  11.102  0.0138 -0.5076  0.3279
  388MOL0     C52308   5.548   8.757  11.042  0.8048  0.9075 -0.4533
  388MOL0     C52309   5.452   8.704  10.991 -1.1006  0.1263  0.8546
  388MOL0     C52310   5.204   8.942  11.028 -1.1252  1.1881  1.2120
  388MOL0     C52311   5.083   8.901  10.969 -0.8843  0.2571  0.1773
  388MOL0     C52312   5.038   8.759  11.012  0.1958 -0.3214 -0.0460
  388MOL0     H52313   4.636   9.136  10.816  0.0149  0.6100 -0.9911
  388MOL0     H52314   4.424   9.155  10.702  0.0517 -0.0201  1.2071
  388MOL0     H52315   4.329   9.222  10.274  4.3205  2.9497  0.0953
  388MOL0     H52316   4.491   9.200  10.278  2.7692 -4.2869  0.7002
  388MOL0     H52317   4.468   8.958  10.250 -1.0555 -2.1576 -0.9413
  388MOL0     H52318   4.433   9.044  10.109 -0.8426  2.4087  0.0827
  388MOL0     H52319   4.214   9.039  10.126 -0.3218 -2.3163 -0.3287
  388MOL0     H52320   4.207   9.009  10.296  0.3518  0.7530 -0.5789
  388MOL0     H52321   4.319   8.765  10.256  0.7480  1.4783 -0.1575
  388MOL0     H52322   4.163   8.780  10.182 -1.0129  1.6845  0.1880
  388MOL0     H52323   4.333   8.896   9.979 -2.0863  0.8139 -0.3516
  388MOL0     H52324   4.427   8.775  10.070 -1.8484 -2.1927 -0.0951
  388MOL0     H52325   4.244   8.609  10.047 -0.7587 -0.4014 -0.6980
  388MOL0     H52326   4.174   8.717   9.919 -0.0884  1.1448  1.8579
  388MOL0     H52327   4.457   8.624   9.919  0.7027 -2.0569 -2.2463
  388MOL0     H52328   4.373   8.698   9.785  2.1802  0.9907  1.4565
  388MOL0     H52329   4.209   8.476   9.837  0.1835 -0.3708  4.2203
  388MOL0     H52330   4.359   8.463   9.715  1.1455 -2.1430  0.9688
  388MOL0     H52331   4.563   8.355   9.794 -0.9338 -0.9525  0.5711
  388MOL0     H52332   4.701   8.220  10.090  0.4966 -2.3472  0.8441
  388MOL0     H52333   4.617   8.064  10.033 -2.2482 -0.5600 -2.2911
  388MOL0     H52334   4.697   8.145   9.795 -1.9284  0.7241 -0.0366
  388MOL0     H52335   4.785   8.271   9.882 -0.7025 -0.4331 -2.9324
  388MOL0     H52336   4.917   8.092  10.004 -0.1084 -0.5128  0.6952
  388MOL0     H52337   4.931   8.107   9.828  0.5507  0.6707  0.0370
  388MOL0     H52338   4.781   7.881   9.963 -0.5064 -4.1216 -2.6882
  388MOL0     H52339   4.940   7.860   9.900 -2.0445 -2.5555  1.2142
  388MOL0     H52340   4.680   7.707   9.919  2.0259  3.7938 -0.2243
  388MOL0     H52341   4.662   7.472   9.843  2.2060 -0.5287  1.6364
  388MOL0     H52342   4.984   7.276   9.634  1.4460 -1.0508 -0.5140
  388MOL0     H52343   5.116   7.102   9.654 -2.0765  1.3883 -2.2404
  388MOL0     H52344   5.058   6.777   9.946 -0.2587 -0.5549  0.4724
  388MOL0     H52345   4.981   6.671   9.822  1.2777 -1.0886 -0.4525
  388MOL0     H52346   5.219   6.625   9.735  0.2797 -1.7098  0.8375
  388MOL0     H52347   5.280   6.750   9.821  0.0654  0.4435  1.2734
  388MOL0     H52348   5.349   6.554   9.944 -0.8116 -0.3868  1.3695
  388MOL0     H52349   5.214   6.618  10.041  0.1206  0.0361  0.0597
  388MOL0     H52350   5.125   6.417   9.843  1.1822  3.7578 -1.1275
  388MOL0     H52351   5.099   6.429  10.020  2.8847 -2.0371  2.6878
  388MOL0     H52352   5.327   6.289   9.876 -0.1873 -1.8952  1.0140
  388MOL0     H52353   5.197   6.223   9.965 -0.5806  0.5443  2.5316
  388MOL0     H52354   5.297   6.398  10.157  0.2374  0.0296  1.2686
  388MOL0     H52355   5.319   6.225  10.150 -1.0275  1.1484  2.2072
  388MOL0     H52356   5.511   6.441  10.072 -0.3594  0.1009 -1.3373
  388MOL0     H52357   5.525   6.268   9.994 -0.7096  0.5325 -0.4940
  388MOL0     H52358   5.564   6.189  10.217 -2.3610  0.4186 -1.2540
  388MOL0     H52359   5.686   6.293  10.183  0.3741  1.8176 -3.0462
  388MOL0     H52360   4.803   6.856   9.828  1.7833 -1.5348  0.3989
  388MOL0     H52361   4.652   7.039   9.795 -0.6382  2.5604 -0.3654
  388MOL0     H52362   4.773   7.583   9.443 -1.4587 -0.7997  0.6807
  388MOL0     H52363   4.827   7.800   9.529 -1.6516  3.0428 -0.0865
  388MOL0     H52364   4.630   9.029  10.338 -1.4603  3.9322 -0.4084
  388MOL0     H52365   4.828   8.972  10.461 -1.1555 -0.9402 -2.7091
  388MOL0     H52366   5.039   9.186  10.779  4.0014  0.1221 -1.3561
  388MOL0     H52367   5.232   9.243  10.903  0.4586 -1.4873 -1.1915
  388MOL0     H52368   5.414   8.939  11.188 -0.3746 -0.9410  0.3982
  388MOL0     H52369   5.398   9.110  11.249  5.7572  1.8682  1.9874
  388MOL0     H52370   5.626   9.070  11.250 -0.1456 -0.2156 -1.2179
  388MOL0     H52371   5.596   9.173  11.113  1.6569 -0.2570 -1.3896
  388MOL0     H52372   5.753   9.024  11.061 -0.5255  1.8114  2.4383
  388MOL0     H52373   5.614   8.996  10.952 -0.1629  1.1960  1.0153
  388MOL0     H52374   5.746   8.790  11.060 -0.5252  1.4644 -3.5439
  388MOL0     H52375   5.670   8.834  11.210  1.4605 -2.1131  0.1382
  388MOL0     H52376   5.363   8.671  10.941 -1.6845  3.6013 -0.7215
  388MOL0     H52377   5.251   8.869  11.092 -0.0062  1.8522  1.1764
  388MOL0     H52378   4.982   8.711  10.932 -1.8880 -0.1758  1.2658
  388MOL0     H52379   5.124   8.695  11.035  0.8209  0.2487 -0.7195
  388MOL0     H52380   4.971   8.772  11.098 -0.6975  0.8744 -0.8959
  389MOL0     O52381  11.146   0.483   3.272  0.2731 -0.1649 -1.4350
  389MOL0     C52382  11.032   0.471   3.252  0.6221  0.2407 -0.9364
  389MOL0     O52383  10.972   0.435   3.131 -0.0021  0.5386 -0.0192
  389MOL0     C52384  11.037   0.448   3.007 -0.5045 -0.2351  0.0636
  389MOL0     C52385  11.139   0.531   2.968 -0.2453  0.1342  0.0838
  389MOL0     C52386  11.202   0.534   2.839 -0.8429  0.4411  0.1114
  389MOL0     C52387  11.147   0.462   2.733 -1.1170 -0.7406  0.2360
  389MOL0     O52388  11.208   0.481   2.606  0.8721 -0.3549  0.4346
  389MOL0     C52389  11.174   0.391   2.502 -0.2058 -0.8841  0.0092
  389MOL0     C52390  11.260   0.439   2.381  0.4679 -1.0409 -0.2108
  389MOL0     C52391  11.210   0.570   2.312  1.3446  1.0531 -0.1074
  389MOL0     C52392  11.287   0.605   2.181 -0.5816  0.5155 -0.2203
  389MOL0     C52393  11.204   0.696   2.097 -0.3491 -0.7238  0.1273
  389MOL0     C52394  11.296   0.739   1.978 -0.3058  0.5772  0.8632
  389MOL0     C52395  11.230   0.860   1.912  0.1621 -0.1452  0.3772
  389MOL0     C52396  11.334   0.922   1.809  0.0132  0.5454 -0.5417
  389MOL0     N52397  11.369   0.839   1.688  0.3466 -0.3641  0.0656
  389MOL0     C52398  11.468   0.739   1.690  0.5314  0.3570  0.3302
  389MOL0     C52399  11.430   0.660   1.580 -0.0864 -0.8582  0.0828
  389MOL0     C52400  11.504   0.541   1.545 -0.1004 -0.0223 -0.0235
  389MOL0     C52401  11.582   0.567   1.421  0.2981  0.1189  0.2122
  389MOL0     C52402  11.650   0.438   1.369  0.0457  0.8097  0.0508
  389MOL0     C52403  11.756   0.368   1.464  1.0006 -1.0236 -0.6667
  389MOL0     O52404  11.842   0.476   1.516  0.1048  1.6984 -0.3853
  389MOL0     C52405  11.917   0.447   1.626 -0.6406  0.3492  0.6771
  389MOL0     C52406  11.963   0.321   1.667  0.3438 -0.1673  0.9415
  389MOL0     C52407  12.046   0.305   1.779  0.8683  1.2007  0.0561
  389MOL0     C52408  12.080   0.406   1.862  0.3378 -0.9539  0.7063
  389MOL0     C52409  12.150   0.388   1.997 -0.1763 -1.0730  1.1279
  389MOL0     O52410  12.196   0.514   2.047 -0.6999 -0.4123 -0.4692
  389MOL0     C52411  12.186   0.545   2.178 -0.7010 -0.0759 -0.1738
  389MOL0     C52412  12.105   0.480   2.265  1.0767 -0.1050 -0.0484
  389MOL0     C52413  12.124   0.479   2.399 -0.0225 -0.6590 -0.0908
  389MOL0     C52414  12.226   0.557   2.456 -0.0535  0.9199 -0.2855
  389MOL0     O52415  12.248   0.555   2.590  0.3882 -0.1425 -0.4801
  389MOL0     C52416  12.145   0.535   2.688  0.2180 -0.0410  1.2139
  389MOL0     C52417  12.180   0.564   2.835  0.1324 -0.3769  0.3148
  389MOL0     C52418  12.061   0.555   2.934 -0.2289 -0.7849 -0.3241
  389MOL0     C52419  12.030   0.416   2.983  0.6594 -0.6383 -0.5267
  389MOL0     C52420  11.904   0.413   3.081 -0.1157  0.0890  0.1112
  389MOL0     C52421  11.889   0.284   3.161  0.4601  0.2707 -0.0132
  389MOL0     C52422  11.766   0.286   3.260 -0.4602  0.3394  0.4278
  389MOL0     C52423  11.722   0.139   3.288 -0.5896  0.4721  0.6533
  389MOL0    Cl52424  11.577   0.142   3.397 -0.4522  0.0203  0.6226
  389MOL0     C52425  12.305   0.625   2.370 -0.4820 -1.0088 -0.5676
  389MOL0     C52426  12.283   0.623   2.237  0.3818  0.0345 -0.6362
  389MOL0     O52427  12.157   0.277   2.051 -0.2638  0.0345 -0.3496
  389MOL0     C52428  12.032   0.532   1.814 -0.0807 -0.0217 -0.5281
  389MOL0     C52429  11.957   0.550   1.699 -0.5683 -0.0165 -0.2341
  389MOL0     N52430  11.305   0.704   1.526  0.5967 -0.4675 -0.0340
  389MOL0     N52431  11.271   0.805   1.598 -0.4102 -0.9016 -0.0805
  389MOL0     C52432  11.040   0.378   2.770  0.1630 -0.9374 -0.0717
  389MOL0     C52433  10.986   0.365   2.903 -0.2222 -0.0436 -0.2986
  389MOL0     C52434  10.958   0.433   3.379  1.4149 -0.2221  0.4164
  389MOL0     C52435  10.971   0.511   3.499  0.4304  0.0423  0.4199
  389MOL0     C52436  10.898   0.475   3.609 -0.0163 -0.1152  0.1910
  389MOL0     C52437  10.808   0.373   3.617  0.6142  0.2894  1.2293
  389MOL0     O52438  10.727   0.351   3.717  0.6173 -0.2709  0.2914
  389MOL0     C52439  10.594   0.318   3.688 -0.5962 -0.0590 -0.0864
  389MOL0     C52440  10.500   0.379   3.794  0.0913 -0.0476  0.3431
  389MOL0     C52441  10.511   0.291   3.927  0.1844 -0.1000  0.9590
  389MOL0     C52442  10.650   0.303   4.001  0.1370 -0.5838  0.1306
  389MOL0     C52443  10.643   0.244   4.139 -0.1664  0.1011  0.5162
  389MOL0     C52444  10.622   0.198   4.249  0.9830 -0.0803 -1.1229
  389MOL0     C52445  10.793   0.302   3.496  0.3066 -0.3464 -0.0495
  389MOL0     C52446  10.857   0.335   3.377  0.2890 -0.7200  0.6735
  389MOL0     C52447  10.841   0.230   3.265 -0.3596 -0.6862  0.0350
  389MOL0     H52448  11.184   0.600   3.038 -0.6748 -0.8247  1.3356
  389MOL0     H52449  11.286   0.595   2.805 -2.1248  3.6777  2.2520
  389MOL0     H52450  11.193   0.291   2.541  1.1583 -0.5650  0.2051
  389MOL0     H52451  11.068   0.395   2.473 -0.5141 -2.6896  0.7890
  389MOL0     H52452  11.281   0.360   2.308 -1.1173 -2.1552  0.4897
  389MOL0     H52453  11.359   0.464   2.422  2.3441 -2.1262 -3.6542
  389MOL0     H52454  11.221   0.655   2.379 -1.5256 -0.2238  2.2073
  389MOL0     H52455  11.107   0.551   2.280  1.9906  2.3170 -3.4315
  389MOL0     H52456  11.384   0.650   2.204  0.4953 -2.4076  1.3736
  389MOL0     H52457  11.307   0.509   2.133 -3.2750 -0.7183  0.9237
  389MOL0     H52458  11.114   0.640   2.069 -0.9790 -0.2432  1.1159
  389MOL0     H52459  11.189   0.782   2.164  1.2274 -1.7002  1.8227
  389MOL0     H52460  11.390   0.779   2.019  0.2471 -0.3270  0.5140
  389MOL0     H52461  11.313   0.664   1.900 -2.7171  0.0144  0.8223
  389MOL0     H52462  11.202   0.937   1.985 -1.1862 -0.2267 -0.0195
  389MOL0     H52463  11.135   0.838   1.862  0.2229 -0.2735  0.3171
  389MOL0     H52464  11.301   1.020   1.773 -4.8486  0.3819  2.6377
  389MOL0     H52465  11.425   0.960   1.857 -1.8288  2.4967  1.6126
  389MOL0     H52466  11.553   0.726   1.756  1.0404 -0.6643 -0.5046
  389MOL0     H52467  11.582   0.519   1.618  0.1623 -3.5894 -1.1885
  389MOL0     H52468  11.447   0.449   1.532  2.7003 -1.8061 -0.6967
  389MOL0     H52469  11.509   0.587   1.342  1.6437 -1.5760 -1.5750
  389MOL0     H52470  11.648   0.654   1.416  0.6568 -0.0774  1.1651
  389MOL0     H52471  11.692   0.463   1.271  0.3427 -1.1783 -0.3716
  389MOL0     H52472  11.569   0.368   1.344  2.6959 -2.3630 -0.3619
  389MOL0     H52473  11.806   0.284   1.415  0.3081 -1.6640 -0.3161
  389MOL0     H52474  11.700   0.316   1.543 -0.5631  0.0661 -1.0041
  389MOL0     H52475  11.948   0.227   1.616 -0.9607  1.5868 -2.1337
  389MOL0     H52476  12.076   0.206   1.812 -4.4670 -2.2822 -3.7897
  389MOL0     H52477  12.021   0.416   2.236  0.7116  0.2588  0.2016
  389MOL0     H52478  12.061   0.414   2.459 -1.3550 -0.0347 -0.7822
  389MOL0     H52479  12.071   0.613   2.669  2.0085  1.9437  1.9537
  389MOL0     H52480  12.104   0.434   2.675  1.3843 -0.4060  0.0688
  389MOL0     H52481  12.261   0.493   2.857 -1.4106 -2.3009  0.1001
  389MOL0     H52482  12.215   0.667   2.838 -1.1397  0.1402 -1.1481
  389MOL0     H52483  12.090   0.611   3.024  0.8162  0.0550 -1.1681
  389MOL0     H52484  11.968   0.591   2.889  1.6305  3.7970 -1.0200
  389MOL0     H52485  12.110   0.377   3.045  1.4820  0.9961 -0.4948
  389MOL0     H52486  12.014   0.346   2.900 -1.5527 -0.1417 -0.5947
  389MOL0     H52487  11.815   0.431   3.020 -0.5500 -0.2524  0.6292
  389MOL0     H52488  11.912   0.493   3.155 -0.8947 -1.7485  2.3005
  389MOL0     H52489  11.890   0.204   3.087  3.0795  1.0624 -0.9421
  389MOL0     H52490  11.981   0.264   3.217  1.5618 -2.2338 -2.4962
  389MOL0     H52491  11.682   0.344   3.222 -1.3289 -1.4715 -0.5181
  389MOL0     H52492  11.807   0.339   3.347  0.9894  0.4106 -0.2782
  389MOL0     H52493  11.704   0.091   3.191 -0.2424 -1.1102  1.3601
  389MOL0     H52494  11.798   0.080   3.338  0.4992  1.7970  0.6163
  389MOL0     H52495  12.384   0.685   2.413  1.1753 -2.3440 -1.5990
  389MOL0     H52496  12.359   0.659   2.168  1.1027  0.1533  0.2050
  389MOL0     H52497  12.074   0.623   1.855  2.1636 -1.3823  0.3859
  389MOL0     H52498  11.938   0.649   1.658 -0.6242  0.0858  0.0354
  389MOL0     H52499  10.982   0.335   2.690  0.8328 -1.9919 -0.0119
  389MOL0     H52500  10.910   0.287   2.908  0.0161 -0.3565 -1.2993
  389MOL0     H52501  11.049   0.585   3.483  0.8705  0.4629  3.8322
  389MOL0     H52502  10.900   0.536   3.698 -1.8734 -2.0506  1.6710
  389MOL0     H52503  10.586   0.210   3.675 -0.4635  0.0434 -1.0867
  389MOL0     H52504  10.558   0.370   3.598  0.0801  3.5263  1.5189
  389MOL0     H52505  10.400   0.393   3.752 -0.0410 -4.5193 -1.3245
  389MOL0     H52506  10.540   0.476   3.826 -0.3411 -0.4862  2.3319
  389MOL0     H52507  10.479   0.189   3.902 -1.5244  0.7451 -0.5701
  389MOL0     H52508  10.436   0.339   3.991  1.6382 -0.4341  2.9833
  389MOL0     H52509  10.726   0.252   3.942  0.2436  1.2679 -1.4296
  389MOL0     H52510  10.686   0.406   4.003  1.2569 -0.7036 -4.1647
  389MOL0     H52511  10.608   0.182   4.354  1.5720  3.7375 -0.3024
  389MOL0     H52512  10.719   0.223   3.486 -2.1523  1.9041 -0.7260
  389MOL0     H52513  10.939   0.182   3.256  0.1312  0.3001 -0.0327
  389MOL0     H52514  10.774   0.148   3.294  3.2327 -4.4228 -1.1583
  389MOL0     H52515  10.805   0.263   3.167 -1.1078  0.8654  0.7961
  390MOL0     O52516   0.612   5.252   3.148  0.6159 -0.5715  0.0395
  390MOL0     C52517   0.594   5.298   3.263  0.0195  0.2753  1.2269
  390MOL0     O52518   0.699   5.340   3.341 -0.9136 -0.0342  0.1782
  390MOL0     C52519   0.823   5.361   3.286  0.2123 -0.0388 -0.6104
  390MOL0     C52520   0.862   5.468   3.210  0.1986 -0.8079 -0.4477
  390MOL0     C52521   0.992   5.457   3.160 -0.5982 -1.3918  0.2434
  390MOL0     C52522   1.073   5.347   3.183  1.0922 -0.1855 -0.2798
  390MOL0     O52523   1.202   5.355   3.130 -0.1843 -0.5109  0.3312
  390MOL0     C52524   1.258   5.242   3.058  0.0271  0.3927 -0.4233
  390MOL0     C52525   1.195   5.214   2.920 -0.0033  0.1705  0.3679
  390MOL0     C52526   1.219   5.342   2.831 -0.2744 -0.1908 -0.4080
  390MOL0     C52527   1.178   5.344   2.684  0.3449  0.0820 -0.0879
  390MOL0     C52528   1.245   5.224   2.610 -0.1776 -0.1195 -0.1445
  390MOL0     C52529   1.254   5.253   2.461  0.2101 -0.3782 -0.4263
  390MOL0     C52530   1.111   5.234   2.389  0.1284 -1.0315  0.7084
  390MOL0     C52531   1.063   5.086   2.390  0.2859 -0.0928 -0.9676
  390MOL0     N52532   0.952   5.056   2.297  0.5329 -0.2791 -0.7296
  390MOL0     C52533   0.819   5.055   2.320  0.2940  0.1117 -0.8900
  390MOL0     C52534   0.755   5.042   2.201 -0.8409  1.0234  0.3444
  390MOL0     C52535   0.612   5.042   2.167  0.8755 -0.9203  0.5970
  390MOL0     C52536   0.535   4.931   2.242 -0.3188 -0.1137  0.4822
  390MOL0     C52537   0.555   4.789   2.183 -0.6582  0.1977 -0.4018
  390MOL0     C52538   0.510   4.665   2.271  1.0894 -0.0100  0.2593
  390MOL0     O52539   0.367   4.672   2.290  0.0381  0.1697  0.6054
  390MOL0     C52540   0.311   4.606   2.398  0.5534 -0.7414  0.5603
  390MOL0     C52541   0.373   4.542   2.502 -0.3450  0.5637  0.0263
  390MOL0     C52542   0.301   4.471   2.601  1.4000  0.2593 -0.3296
  390MOL0     C52543   0.156   4.450   2.602  0.1191 -0.6931  0.7680
  390MOL0     C52544   0.096   4.353   2.706 -0.5169  0.3465 -0.2908
  390MOL0     O52545  -0.042   4.345   2.699  0.5445 -0.1314 -0.2476
  390MOL0     C52546  -0.096   4.276   2.803 -0.3345  0.1207  0.6784
  390MOL0     C52547  -0.078   4.140   2.803 -0.4481  0.4030  0.3058
  390MOL0     C52548  -0.139   4.059   2.901  0.3188  0.5570 -0.4011
  390MOL0     C52549  -0.229   4.121   2.995 -0.2740  0.1266 -0.8844
  390MOL0     O52550  -0.295   4.042   3.079 -0.7380  0.0343  0.0278
  390MOL0     C52551  -0.434   4.032   3.049  0.2347  0.6830 -0.7384
  390MOL0     C52552  -0.517   4.063   3.172 -0.1936  0.2261 -1.2435
  390MOL0     C52553  -0.665   4.037   3.166 -0.0261  0.9674 -0.1409
  390MOL0     C52554  -0.745   4.103   3.278  0.4430 -0.4120 -0.2622
  390MOL0     C52555  -0.791   4.005   3.387 -0.6883  0.3027 -0.1135
  390MOL0     C52556  -0.915   4.061   3.462 -0.0311  0.1722 -0.2558
  390MOL0     C52557  -0.874   4.094   3.608  0.7778 -0.6572 -1.0530
  390MOL0     C52558  -0.861   3.967   3.703  0.7745  0.6759 -0.4868
  390MOL0    Cl52559  -0.764   4.005   3.851 -0.4759 -0.3296  0.0725
  390MOL0     C52560  -0.260   4.260   2.994 -0.0752 -0.1207  0.5821
  390MOL0     C52561  -0.187   4.333   2.890 -0.0378  0.6349  0.0710
  390MOL0     O52562   0.169   4.293   2.779 -0.1480 -0.0612 -0.9719
  390MOL0     C52563   0.092   4.521   2.496  0.3025 -1.2268 -0.1980
  390MOL0     C52564   0.164   4.595   2.398  0.5374  0.2304 -0.5406
  390MOL0     N52565   0.850   5.051   2.104  0.0577 -0.8210 -0.8327
  390MOL0     N52566   0.966   5.063   2.165  0.3188 -0.0282 -0.1066
  390MOL0     C52567   1.029   5.246   3.267 -0.4091  0.0683  0.0229
  390MOL0     C52568   0.901   5.251   3.315  0.0919  0.2898  0.0742
  390MOL0     C52569   0.458   5.261   3.320  0.5158  0.3923 -0.2984
  390MOL0     C52570   0.456   5.260   3.463 -0.2612 -0.3736 -0.5337
  390MOL0     C52571   0.333   5.241   3.534 -0.5520  0.1651  0.3719
  390MOL0     C52572   0.219   5.227   3.466 -0.1870  0.3553 -0.8836
  390MOL0     O52573   0.101   5.229   3.533 -0.2186  0.0846  0.5652
  390MOL0     C52574   0.049   5.364   3.556  1.0440  0.5252  0.2839
  390MOL0     C52575  -0.064   5.409   3.453  0.1213  0.4404  0.4427
  390MOL0     C52576  -0.190   5.331   3.484 -0.4184  1.0699  0.0817
  390MOL0     C52577  -0.193   5.178   3.440 -0.9950 -0.4994 -0.8736
  390MOL0     C52578  -0.195   5.175   3.296  1.3647  0.2932  0.3709
  390MOL0     C52579  -0.185   5.179   3.178 -0.3926 -0.1348 -0.1837
  390MOL0     C52580   0.218   5.233   3.333  0.1636 -0.1157  1.1581
  390MOL0     C52581   0.333   5.251   3.256 -0.3058  0.5241  0.0630
  390MOL0     C52582   0.307   5.271   3.105  0.2733 -0.1998 -0.8272
  390MOL0     H52583   0.780   5.539   3.200  0.1468 -0.9352 -0.9614
  390MOL0     H52584   1.037   5.528   3.091 -2.5808 -0.9100 -0.6101
  390MOL0     H52585   1.362   5.269   3.038 -0.9291  2.9038 -2.5165
  390MOL0     H52586   1.253   5.146   3.111 -3.2544 -0.7695 -2.5241
  390MOL0     H52587   1.091   5.179   2.919 -0.1537  0.6053 -1.1018
  390MOL0     H52588   1.251   5.132   2.874  1.2615  0.4115  1.4162
  390MOL0     H52589   1.323   5.376   2.842 -0.2798 -0.7131  1.4869
  390MOL0     H52590   1.160   5.419   2.879 -1.3408 -1.0774 -0.2605
  390MOL0     H52591   1.069   5.351   2.675  0.2874  2.8771  1.7685
  390MOL0     H52592   1.226   5.433   2.642  1.7215  0.2321  1.7116
  390MOL0     H52593   1.347   5.197   2.641 -0.5819 -2.5380 -0.7380
  390MOL0     H52594   1.190   5.133   2.635  1.0635 -0.6712  0.7083
  390MOL0     H52595   1.289   5.356   2.456 -0.9684  0.2010  1.9395
  390MOL0     H52596   1.330   5.188   2.415 -0.7921 -1.9802  0.1165
  390MOL0     H52597   1.110   5.272   2.286 -0.5958 -1.2715  0.6196
  390MOL0     H52598   1.032   5.290   2.440  1.7250 -0.1213  2.3051
  390MOL0     H52599   1.147   5.021   2.365  1.4371  0.1335  1.8814
  390MOL0     H52600   1.027   5.047   2.486 -1.7215  0.7490 -1.3250
  390MOL0     H52601   0.777   5.079   2.417  0.2699 -0.8278 -0.6577
  390MOL0     H52602   0.559   5.134   2.193  2.7142  0.0677  1.0577
  390MOL0     H52603   0.598   5.021   2.061 -0.0399 -0.6329  0.6506
  390MOL0     H52604   0.565   4.937   2.347  0.3507  1.0969  0.2466
  390MOL0     H52605   0.428   4.952   2.245 -0.2460  0.3689  4.1716
  390MOL0     H52606   0.663   4.768   2.180 -0.9968 -2.2495  1.3131
  390MOL0     H52607   0.508   4.791   2.084  1.7484  1.3496 -1.6195
  390MOL0     H52608   0.567   4.669   2.364  1.7576  1.7194 -0.1770
  390MOL0     H52609   0.544   4.571   2.227 -2.7961 -2.4007  1.7735
  390MOL0     H52610   0.481   4.546   2.489 -0.5971  1.3236 -2.5625
  390MOL0     H52611   0.349   4.413   2.679 -0.4827 -3.5864 -1.7811
  390MOL0     H52612  -0.004   4.095   2.737 -1.7907 -0.4142 -0.6849
  390MOL0     H52613  -0.129   3.951   2.903  0.5881  0.5804 -0.4656
  390MOL0     H52614  -0.467   4.087   2.961 -0.6993 -0.0453 -0.8542
  390MOL0     H52615  -0.456   3.929   3.021  2.1053  0.1060 -0.2208
  390MOL0     H52616  -0.478   4.003   3.254 -0.1006 -0.8778 -2.0714
  390MOL0     H52617  -0.489   4.164   3.204 -1.7407  0.0527  0.8348
  390MOL0     H52618  -0.721   4.059   3.074 -1.4996 -3.9708 -0.7355
  390MOL0     H52619  -0.670   3.928   3.173  0.7054  0.8311 -1.3500
  390MOL0     H52620  -0.832   4.142   3.226 -0.5696 -1.8445  0.2782
  390MOL0     H52621  -0.695   4.186   3.328 -0.9952  0.7040 -0.6415
  390MOL0     H52622  -0.711   3.983   3.458 -1.6926 -1.1571  0.6276
  390MOL0     H52623  -0.816   3.905   3.349 -0.1776 -0.3461  1.1855
  390MOL0     H52624  -0.950   4.153   3.413  1.4222  0.3249 -1.0647
  390MOL0     H52625  -0.993   3.985   3.470 -0.4078  0.5447 -0.3414
  390MOL0     H52626  -0.933   4.176   3.647  1.1214  0.0482 -1.9687
  390MOL0     H52627  -0.776   4.143   3.598  0.1756  0.3042 -2.5531
  390MOL0     H52628  -0.963   3.937   3.729  1.4713 -0.4341  1.1790
  390MOL0     H52629  -0.816   3.876   3.664 -0.4590 -0.2741  0.2511
  390MOL0     H52630  -0.331   4.293   3.068  0.2119  0.8971  0.4240
  390MOL0     H52631  -0.206   4.439   2.876 -0.3974  0.5315 -0.2399
  390MOL0     H52632  -0.014   4.534   2.477  0.8037  2.7697 -1.1880
  390MOL0     H52633   0.112   4.643   2.316 -0.7312  0.7537  0.5464
  390MOL0     H52634   1.102   5.167   3.284  1.7031  2.3303  2.3721
  390MOL0     H52635   0.867   5.164   3.372 -0.2756  1.4390  1.6726
  390MOL0     H52636   0.540   5.275   3.530  0.3469  0.3345 -1.4117
  390MOL0     H52637   0.329   5.232   3.642  2.5024  2.8789  0.8679
  390MOL0     H52638   0.125   5.441   3.546 -1.3419  2.8234 -1.6455
  390MOL0     H52639  -0.006   5.361   3.651 -0.1196  0.4198 -0.3774
  390MOL0     H52640  -0.030   5.393   3.350 -0.8128  0.2360  0.1566
  390MOL0     H52641  -0.083   5.513   3.480  0.9375 -0.2637  4.3459
  390MOL0     H52642  -0.279   5.374   3.436 -1.2765 -0.4449  0.2636
  390MOL0     H52643  -0.208   5.330   3.591  1.8959 -0.4934  0.5280
  390MOL0     H52644  -0.109   5.120   3.478 -0.2714  1.2773  0.3922
  390MOL0     H52645  -0.281   5.134   3.488  0.8397 -1.9261  1.3653
  390MOL0     H52646  -0.177   5.163   3.072 -0.0859 -0.9045 -0.0534
  390MOL0     H52647   0.130   5.217   3.272  1.9939 -2.2128 -1.1367
  390MOL0     H52648   0.335   5.178   3.056  0.3707 -0.3690 -0.4572
  390MOL0     H52649   0.204   5.302   3.082  0.1064 -0.8359 -0.9425
  390MOL0     H52650   0.379   5.336   3.054  1.3371  1.0270  2.0098
  391MOL0     O52651   6.705   7.295   0.321  1.0239  0.4562 -1.0647
  391MOL0     C52652   6.715   7.413   0.356 -0.2076  0.8140  0.3622
  391MOL0     O52653   6.715   7.515   0.267  0.0837 -0.9676  0.3748
  391MOL0     C52654   6.676   7.505   0.134  2.1595 -1.0683 -0.0203
  391MOL0     C52655   6.639   7.630   0.077 -0.3258 -0.8992 -0.4637
  391MOL0     C52656   6.587   7.658  -0.050 -0.2792 -0.7232 -0.6010
  391MOL0     C52657   6.576   7.551  -0.132  0.1236 -0.0743  0.3580
  391MOL0     O52658   6.524   7.558  -0.260 -1.1202  0.5920 -0.0420
  391MOL0     C52659   6.507   7.683  -0.328  0.3153  0.6594 -1.1994
  391MOL0     C52660   6.647   7.710  -0.389 -0.5116  0.1355 -0.2906
  391MOL0     C52661   6.655   7.827  -0.487 -0.1881  0.0601  0.3167
  391MOL0     C52662   6.593   7.955  -0.427  0.3545  0.0997  0.4364
  391MOL0     C52663   6.605   8.073  -0.522  0.3016 -0.0316 -0.1654
  391MOL0     C52664   6.556   8.202  -0.443 -0.4590 -0.3639  0.2299
  391MOL0     C52665   6.552   8.338  -0.527  0.1498  0.2981  0.0409
  391MOL0     C52666   6.453   8.438  -0.474  0.3323  0.0070  0.3018
  391MOL0     N52667   6.479   8.575  -0.519  0.2595  0.0350 -0.7524
  391MOL0     C52668   6.577   8.655  -0.477 -0.1176 -0.3906 -1.7100
  391MOL0     C52669   6.519   8.782  -0.488  0.1743  0.8526 -1.1777
  391MOL0     C52670   6.592   8.908  -0.444  0.6027  0.4450 -0.2078
  391MOL0     C52671   6.603   9.001  -0.564  0.6904 -0.1476  0.3793
  391MOL0     C52672   6.652   9.143  -0.543 -0.5270  0.5680 -0.1330
  391MOL0     C52673   6.698   9.211  -0.674  0.5716 -0.5052 -0.1262
  391MOL0     O52674   6.726   9.345  -0.631 -0.0661 -0.3838  0.3909
  391MOL0     C52675   6.771   9.440  -0.726 -0.1561  1.2515 -1.1121
  391MOL0     C52676   6.778   9.408  -0.859 -0.3502  0.6059 -0.8483
  391MOL0     C52677   6.811   9.513  -0.948  0.2343  0.1482  0.5669
  391MOL0     C52678   6.840   9.641  -0.900  0.7348  0.6683 -0.4437
  391MOL0     C52679   6.884   9.746  -0.983 -0.0659  0.3405 -0.2003
  391MOL0     O52680   6.896   9.723  -1.116 -0.2814  0.4394  0.6703
  391MOL0     C52681   6.915   9.824  -1.205 -0.2782 -0.2175  0.0624
  391MOL0     C52682   6.800   9.879  -1.267  0.2558  0.3755  0.6027
  391MOL0     C52683   6.816   9.983  -1.364  0.1660  0.4915  1.6868
  391MOL0     C52684   6.945  10.035  -1.388  0.3071  0.5046  0.3436
  391MOL0     O52685   6.970  10.134  -1.476 -0.5118  0.1728 -0.5342
  391MOL0     C52686   6.935  10.261  -1.425 -0.5358  0.0132  0.5240
  391MOL0     C52687   7.068  10.323  -1.386 -0.0645 -0.2973  0.8274
  391MOL0     C52688   7.141  10.397  -1.506  0.3427  0.3468 -0.0973
  391MOL0     C52689   7.296  10.408  -1.495  0.5539  0.1229 -0.8574
  391MOL0     C52690   7.366  10.537  -1.550 -1.5919 -0.1785  0.4534
  391MOL0     C52691   7.304  10.606  -1.672 -0.2763  0.0188  1.2586
  391MOL0     C52692   7.398  10.684  -1.754  1.1789  0.9063 -0.5040
  391MOL0     C52693   7.437  10.822  -1.683 -0.2392 -0.5253  0.7724
  391MOL0    Cl52694   7.498  10.909  -1.827 -0.1074  0.0995 -0.3149
  391MOL0     C52695   7.058   9.977  -1.324  0.2819 -0.5852  0.2359
  391MOL0     C52696   7.036   9.870  -1.236 -0.3587  1.3752  0.4303
  391MOL0     O52697   6.912   9.851  -0.925 -0.4107  0.5665 -0.4785
  391MOL0     C52698   6.840   9.664  -0.757  1.5089  1.2928 -0.8393
  391MOL0     C52699   6.801   9.563  -0.676 -0.2781  0.3438 -0.7576
  391MOL0     N52700   6.400   8.767  -0.559  0.5535  0.3694 -0.4480
  391MOL0     N52701   6.375   8.638  -0.574 -0.3526 -0.3642 -0.3875
  391MOL0     C52702   6.604   7.423  -0.086  0.0601 -0.3045 -0.0608
  391MOL0     C52703   6.652   7.398   0.044 -0.5721  0.0207 -0.3639
  391MOL0     C52704   6.773   7.453   0.488  0.4892  0.4445  0.5150
  391MOL0     C52705   6.849   7.579   0.497 -0.5521 -0.3299 -0.4685
  391MOL0     C52706   6.922   7.608   0.614 -0.3554  0.2900  0.1132
  391MOL0     C52707   6.914   7.529   0.727 -0.8738  0.7250 -0.1497
  391MOL0     O52708   7.000   7.533   0.837  0.5222  0.0454 -0.1665
  391MOL0     C52709   7.070   7.655   0.867  0.0863  1.3090  0.0601
  391MOL0     C52710   7.211   7.656   0.818  0.6559  0.6125 -0.2464
  391MOL0     C52711   7.291   7.769   0.883 -0.5147 -1.1147 -0.1792
  391MOL0     C52712   7.237   7.906   0.817  0.6218 -0.4372 -0.2682
  391MOL0     C52713   7.323   7.963   0.719  0.5568 -0.4270  1.0305
  391MOL0     C52714   7.373   8.014   0.621 -0.5663 -0.0170  0.1071
  391MOL0     C52715   6.852   7.412   0.723  0.5909  0.1661 -0.7687
  391MOL0     C52716   6.778   7.372   0.607  0.5141  0.7323 -1.4070
  391MOL0     C52717   6.717   7.231   0.607 -0.5060 -0.4419  0.3767
  391MOL0     H52718   6.643   7.718   0.141 -3.5987 -1.9997  1.4675
  391MOL0     H52719   6.556   7.755  -0.088  0.5835  0.1572  0.8671
  391MOL0     H52720   6.439   7.669  -0.413 -0.4387 -0.0675 -0.4893
  391MOL0     H52721   6.449   7.752  -0.265  1.1258 -1.2232  1.8107
  391MOL0     H52722   6.673   7.615  -0.436  3.9051 -0.9784  3.6947
  391MOL0     H52723   6.718   7.725  -0.308 -1.1322  2.0163 -0.0393
  391MOL0     H52724   6.614   7.794  -0.583 -1.3351 -0.7176  1.0465
  391MOL0     H52725   6.761   7.850  -0.496 -0.6170  2.0479 -0.0931
  391MOL0     H52726   6.486   7.942  -0.410  0.2932 -0.8481 -0.5213
  391MOL0     H52727   6.641   7.981  -0.332 -0.0608  0.3796  0.5694
  391MOL0     H52728   6.708   8.088  -0.554  1.2477 -1.3164  2.0402
  391MOL0     H52729   6.538   8.046  -0.604 -3.0205  2.3573  1.4929
  391MOL0     H52730   6.458   8.178  -0.400  0.3347 -1.7623  1.3685
  391MOL0     H52731   6.623   8.222  -0.359 -1.8411 -0.3504  1.3704
  391MOL0     H52732   6.510   8.319  -0.626 -4.3793  2.2202  1.3283
  391MOL0     H52733   6.652   8.379  -0.540  0.8850 -1.8241 -1.7071
  391MOL0     H52734   6.350   8.410  -0.495  0.3741 -1.8968  2.2171
  391MOL0     H52735   6.445   8.431  -0.365 -5.1483  0.6598  0.1868
  391MOL0     H52736   6.665   8.630  -0.418 -0.7539  1.5146  0.2024
  391MOL0     H52737   6.548   8.956  -0.356 -2.7586 -1.4606 -0.6668
  391MOL0     H52738   6.692   8.873  -0.415  0.0105 -1.7710 -0.6599
  391MOL0     H52739   6.668   8.943  -0.630  0.6489  1.8500 -1.5209
  391MOL0     H52740   6.511   9.005  -0.624  1.1046  3.7404 -0.2481
  391MOL0     H52741   6.737   9.131  -0.475 -1.8757 -4.9235  1.1032
  391MOL0     H52742   6.570   9.195  -0.493 -0.5204 -0.8783  1.4820
  391MOL0     H52743   6.621   9.191  -0.750 -0.8021  4.2878 -0.2721
  391MOL0     H52744   6.783   9.161  -0.723  1.1904  1.8331 -1.5801
  391MOL0     H52745   6.769   9.306  -0.894 -2.1249  1.0788 -1.9440
  391MOL0     H52746   6.827   9.496  -1.054 -2.8785  0.0477  0.0260
  391MOL0     H52747   6.708   9.838  -1.226  0.6141 -1.1701 -0.0723
  391MOL0     H52748   6.724  10.028  -1.399  0.0481 -2.0724 -1.7739
  391MOL0     H52749   6.892  10.331  -1.497 -0.6290  0.7342  1.2578
  391MOL0     H52750   6.875  10.267  -1.334 -0.6173  1.8917  0.3844
  391MOL0     H52751   7.047  10.409  -1.321 -3.0939  2.2120 -2.9692
  391MOL0     H52752   7.128  10.236  -1.359 -0.1257 -0.3962  0.6440
  391MOL0     H52753   7.111  10.361  -1.605  0.3404  1.5556 -0.5528
  391MOL0     H52754   7.101  10.498  -1.506 -1.0793 -0.1920  0.1105
  391MOL0     H52755   7.346  10.322  -1.541  1.2375  0.2286 -0.3183
  391MOL0     H52756   7.337  10.406  -1.394  2.1291  1.6428 -1.4217
  391MOL0     H52757   7.467  10.506  -1.575 -1.6929  2.1528 -3.7054
  391MOL0     H52758   7.366  10.614  -1.472 -1.1362 -1.5265  1.8220
  391MOL0     H52759   7.269  10.523  -1.733  0.0170 -0.0334  1.1553
  391MOL0     H52760   7.226  10.677  -1.644 -1.0909 -0.8805  1.3305
  391MOL0     H52761   7.358  10.705  -1.854  1.4731  1.5042 -0.5028
  391MOL0     H52762   7.489  10.629  -1.778  1.5957  0.6416  1.5251
  391MOL0     H52763   7.354  10.877  -1.638 -1.8754  0.0035 -2.6144
  391MOL0     H52764   7.508  10.801  -1.602 -0.7825 -0.1234  1.3556
  391MOL0     H52765   7.154  10.021  -1.349  0.2659 -1.2781 -1.1378
  391MOL0     H52766   7.113   9.829  -1.171 -0.1955  2.2792  0.8373
  391MOL0     H52767   6.862   9.757  -0.705 -0.5905  0.9470  0.8102
  391MOL0     H52768   6.787   9.573  -0.569  0.2179  0.5977 -0.7112
  391MOL0     H52769   6.604   7.336  -0.150  1.2704 -0.9333  0.7532
  391MOL0     H52770   6.684   7.302   0.082  2.2414  1.7868  2.1578
  391MOL0     H52771   6.847   7.649   0.414 -0.2762 -0.2830 -0.4376
  391MOL0     H52772   6.974   7.703   0.626  2.5082 -1.3240  1.4194
  391MOL0     H52773   7.066   7.666   0.976 -3.4023  2.0591 -0.0149
  391MOL0     H52774   7.018   7.740   0.822  0.9551  1.1256 -1.3343
  391MOL0     H52775   7.206   7.667   0.709  1.2607  0.4877 -0.2915
  391MOL0     H52776   7.245   7.554   0.839 -1.5324 -0.0312  0.4591
  391MOL0     H52777   7.393   7.746   0.851 -1.4921 -4.9642 -0.9871
  391MOL0     H52778   7.286   7.764   0.992 -1.9911 -0.9039 -0.2154
  391MOL0     H52779   7.139   7.879   0.776  0.0099  1.2881 -0.0560
  391MOL0     H52780   7.218   7.980   0.895 -1.0340 -0.3098 -0.7455
  391MOL0     H52781   7.415   8.076   0.545 -5.2514  0.9472 -2.0627
  391MOL0     H52782   6.858   7.337   0.801  0.6556  2.3302  1.4416
  391MOL0     H52783   6.785   7.156   0.565 -0.8920 -1.1125  0.9422
  391MOL0     H52784   6.674   7.201   0.703 -0.5456 -1.7163 -0.0296
  391MOL0     H52785   6.625   7.239   0.548 -1.2805  1.4225  1.7226
  392MOL0     O52786   4.302  11.147  10.640 -0.3120 -0.2876 -0.7779
  392MOL0     C52787   4.308  11.270  10.640 -0.4317  1.2498  0.2966
  392MOL0     O52788   4.328  11.346  10.526 -0.5892  0.0333 -0.0823
  392MOL0     C52789   4.322  11.298  10.393 -0.0984  0.6552 -0.3579
  392MOL0     C52790   4.237  11.198  10.353  0.5016 -0.0335  0.3168
  392MOL0     C52791   4.219  11.168  10.214  0.3416 -0.4997 -0.4508
  392MOL0     C52792   4.280  11.250  10.118  0.5666  1.0724  0.9870
  392MOL0     O52793   4.256  11.229   9.981 -0.2897 -0.5680 -0.1286
  392MOL0     C52794   4.374  11.187   9.914 -0.2174 -0.3091  0.8138
  392MOL0     C52795   4.372  11.162   9.759  0.0501 -1.1462 -0.0226
  392MOL0     C52796   4.283  11.033   9.744  0.5810 -0.3154  1.2024
  392MOL0     C52797   4.234  11.017   9.601 -0.2506 -0.7273  0.4300
  392MOL0     C52798   4.096  10.951   9.590 -0.5459  0.1713 -0.3217
  392MOL0     C52799   4.067  10.928   9.438  0.1102 -0.0202  0.4980
  392MOL0     C52800   3.912  10.894   9.419 -0.3032  0.9050 -0.0854
  392MOL0     C52801   3.869  10.753   9.459  0.4715  0.8212 -0.1088
  392MOL0     N52802   3.858  10.734   9.602  0.7380  0.3857  0.3290
  392MOL0     C52803   3.740  10.734   9.672  0.8541 -0.0116 -0.6356
  392MOL0     C52804   3.762  10.672   9.787  0.7058 -0.1429 -0.2908
  392MOL0     C52805   3.674  10.648   9.903  0.9099 -0.3457 -0.2791
  392MOL0     C52806   3.554  10.747   9.928 -0.4268  0.3369 -0.1761
  392MOL0     C52807   3.469  10.695  10.038  0.1026 -0.3883  0.9469
  392MOL0     C52808   3.346  10.791  10.038  0.5635 -0.1534  0.1832
  392MOL0     O52809   3.257  10.752   9.926  0.6411 -0.6118 -0.3964
  392MOL0     C52810   3.127  10.727   9.969  0.2683  0.3565  0.3718
  392MOL0     C52811   3.026  10.800   9.901 -0.2449 -0.1077  0.0864
  392MOL0     C52812   2.887  10.783   9.941  0.0996  0.0166 -0.0785
  392MOL0     C52813   2.852  10.700  10.058 -0.7732 -0.6477  1.1442
  392MOL0     C52814   2.712  10.681  10.093 -0.5564  0.5593 -0.2086
  392MOL0     O52815   2.692  10.577  10.183  0.0253 -0.1880 -0.3560
  392MOL0     C52816   2.561  10.550  10.203 -0.0930 -0.3696  0.2581
  392MOL0     C52817   2.460  10.628  10.264  0.4989  0.4468 -0.2316
  392MOL0     C52818   2.328  10.583  10.279  0.6302  0.2358  0.5340
  392MOL0     C52819   2.290  10.454  10.234 -0.7955 -1.1812  0.1263
  392MOL0     O52820   2.160  10.412  10.247 -0.1994  0.7641 -0.4210
  392MOL0     C52821   2.138  10.304  10.334  0.7293  0.0759  0.5179
  392MOL0     C52822   2.018  10.222  10.275 -0.1784  0.7246 -0.0766
  392MOL0     C52823   2.043  10.144  10.146 -0.5258  0.0083 -0.9542
  392MOL0     C52824   2.142  10.026  10.175  0.7794  0.7533  0.0514
  392MOL0     C52825   2.155   9.931  10.053 -0.0439  0.6829  0.1030
  392MOL0     C52826   2.147   9.994   9.915 -0.2829 -0.3607 -0.6230
  392MOL0     C52827   2.193   9.906   9.791  0.3935 -0.2180  0.1150
  392MOL0     C52828   2.226   9.983   9.668 -0.4811 -0.7374 -0.2475
  392MOL0    Cl52829   2.087  10.080   9.631  0.0152  0.0721  0.2248
  392MOL0     C52830   2.385  10.381  10.158 -0.4994 -0.0903 -0.5353
  392MOL0     C52831   2.522  10.428  10.145  0.4213 -0.0957  0.1690
  392MOL0     O52832   2.630  10.765  10.057  0.1025  0.7877 -0.3082
  392MOL0     C52833   2.964  10.640  10.119  0.3545  0.0006  0.5683
  392MOL0     C52834   3.097  10.652  10.076  0.6220 -0.1245  0.9113
  392MOL0     N52835   3.894  10.634   9.792  0.7813 -0.1567  0.0771
  392MOL0     N52836   3.945  10.667   9.681 -0.0548 -0.8399 -0.0163
  392MOL0     C52837   4.373  11.351  10.161 -0.2369  0.0606 -0.1051
  392MOL0     C52838   4.398  11.365  10.296  0.2488  0.0119 -0.8387
  392MOL0     C52839   4.295  11.337  10.772  0.7453  0.2970 -0.0014
  392MOL0     C52840   4.305  11.476  10.764 -0.3320 -0.0053  0.6236
  392MOL0     C52841   4.297  11.557  10.877 -0.2877  0.0455  1.3205
  392MOL0     C52842   4.273  11.511  11.003 -0.2845 -0.2336 -0.0896
  392MOL0     O52843   4.274  11.597  11.108 -0.3597  0.0681  0.5308
  392MOL0     C52844   4.261  11.543  11.240 -0.6899 -0.0318  0.3297
  392MOL0     C52845   4.207  11.656  11.333 -0.7945  0.0122 -1.3817
  392MOL0     C52846   4.317  11.751  11.369 -0.1099  0.8301  0.0052
  392MOL0     C52847   4.288  11.858  11.489 -0.2733 -0.1751  0.8859
  392MOL0     C52848   4.155  11.911  11.485  1.1538  0.1158 -0.9045
  392MOL0     C52849   4.049  11.968  11.505  0.0553 -0.4896  1.3189
  392MOL0     C52850   4.282  11.368  11.012  0.9565 -1.2222 -0.0400
  392MOL0     C52851   4.276  11.283  10.903 -0.3026 -0.0277  0.4197
  392MOL0     C52852   4.268  11.131  10.920 -1.2484  0.2453  0.6340
  392MOL0     H52853   4.170  11.147  10.422 -0.2724  0.0715 -0.3466
  392MOL0     H52854   4.161  11.083  10.177 -0.5792 -0.2681  0.4064
  392MOL0     H52855   4.467  11.240   9.937  0.9991 -1.3734 -1.3693
  392MOL0     H52856   4.400  11.092   9.961  0.9604  0.6217  2.1449
  392MOL0     H52857   4.473  11.145   9.722  0.9425 -1.1656  2.2535
  392MOL0     H52858   4.330  11.251   9.712  0.2169 -0.9855  0.1323
  392MOL0     H52859   4.193  11.039   9.806  0.7829  1.8364  1.3671
  392MOL0     H52860   4.334  10.939   9.766  0.4705 -0.7675 -0.3570
  392MOL0     H52861   4.219  11.119   9.567  1.1409  0.0821  2.0747
  392MOL0     H52862   4.309  10.971   9.536  1.0629  0.9403  0.6995
  392MOL0     H52863   4.112  10.854   9.636  1.3174  0.2871 -0.6564
  392MOL0     H52864   4.018  11.005   9.645 -2.3733 -1.1780 -1.4802
  392MOL0     H52865   4.083  11.016   9.374 -1.4465 -0.6811 -0.8626
  392MOL0     H52866   4.133  10.854   9.393  3.8741  3.4809 -0.3867
  392MOL0     H52867   3.889  10.909   9.313 -2.6684 -2.9065 -0.3009
  392MOL0     H52868   3.855  10.971   9.473 -0.3732  1.1798 -0.5509
  392MOL0     H52869   3.774  10.731   9.410  0.6623 -3.4127  1.0634
  392MOL0     H52870   3.941  10.688   9.408 -0.9217  0.9882 -2.4745
  392MOL0     H52871   3.647  10.785   9.650  1.8667  1.1079 -2.6152
  392MOL0     H52872   3.633  10.548   9.889  1.3001 -0.9911  2.5861
  392MOL0     H52873   3.737  10.653   9.992  1.3753  1.4842 -0.6555
  392MOL0     H52874   3.590  10.845   9.959  0.1575 -0.2470  1.0266
  392MOL0     H52875   3.485  10.746   9.842 -0.9635 -0.8575  0.2457
  392MOL0     H52876   3.516  10.686  10.137  1.3333 -2.4022  0.2545
  392MOL0     H52877   3.443  10.598   9.995  2.3008  1.3300 -5.3106
  392MOL0     H52878   3.374  10.897  10.046 -0.4405 -0.0391  3.4364
  392MOL0     H52879   3.308  10.777  10.139 -2.1938  3.2059 -0.2059
  392MOL0     H52880   3.059  10.857   9.815  1.6281 -0.2705  0.6659
  392MOL0     H52881   2.808  10.838   9.891  0.3038  0.7576  0.4000
  392MOL0     H52882   2.505  10.715  10.311  0.6861 -1.1201  2.7637
  392MOL0     H52883   2.261  10.653  10.329  0.0299 -1.1714  1.7768
  392MOL0     H52884   2.228  10.242  10.341  1.5746  0.3672 -4.5494
  392MOL0     H52885   2.116  10.352  10.430  0.3765  2.7491 -0.7876
  392MOL0     H52886   1.971  10.149  10.342 -0.0653 -0.7114 -1.4915
  392MOL0     H52887   1.943  10.299  10.256 -1.4719 -0.4154  0.2437
  392MOL0     H52888   1.948  10.098  10.121 -1.4395 -1.5236  4.1484
  392MOL0     H52889   2.083  10.214  10.072 -0.9847  0.5101 -0.7358
  392MOL0     H52890   2.110   9.964  10.260  0.8671 -0.1123 -0.5333
  392MOL0     H52891   2.235  10.068  10.213 -1.0893  2.6951  2.8709
  392MOL0     H52892   2.076   9.857  10.070 -1.6479  2.2800 -0.2012
  392MOL0     H52893   2.247   9.871  10.056 -0.1542  0.5401  2.4138
  392MOL0     H52894   2.044  10.029   9.899 -0.8145 -2.4297 -2.1095
  392MOL0     H52895   2.216  10.079   9.905  0.1360 -0.5568  0.4794
  392MOL0     H52896   2.118   9.831   9.764  0.2450  0.0539 -0.2321
  392MOL0     H52897   2.276   9.847   9.831 -1.1284 -0.3820  3.3990
  392MOL0     H52898   2.320  10.039   9.681 -1.1999  0.4272  0.0637
  392MOL0     H52899   2.241   9.907   9.591 -0.0904 -1.5980  0.6618
  392MOL0     H52900   2.342  10.284  10.139 -3.1172  0.3385  2.3734
  392MOL0     H52901   2.605  10.380  10.095  1.6451  1.1650  0.9126
  392MOL0     H52902   2.948  10.586  10.212 -1.0427  1.3603  1.1564
  392MOL0     H52903   3.168  10.596  10.136  4.1741  0.6956 -2.2054
  392MOL0     H52904   4.417  11.425  10.096 -2.5188  1.0419 -0.6323
  392MOL0     H52905   4.462  11.439  10.343 -1.0716  2.2987 -2.4091
  392MOL0     H52906   4.319  11.524  10.668 -1.8457  0.0469  0.4076
  392MOL0     H52907   4.310  11.665  10.868 -0.9707 -0.0481 -4.2050
  392MOL0     H52908   4.350  11.505  11.291 -0.3818  0.6888  0.3368
  392MOL0     H52909   4.188  11.462  11.231 -1.6308  0.7347  0.8768
  392MOL0     H52910   4.176  11.611  11.427  4.1366  1.1237  1.1256
  392MOL0     H52911   4.122  11.707  11.286 -1.0667  1.2920  0.3779
  392MOL0     H52912   4.343  11.799  11.274  2.1621  0.8344  0.5817
  392MOL0     H52913   4.411  11.703  11.397  0.7571  0.8104 -2.6489
  392MOL0     H52914   4.293  11.810  11.587 -2.7408 -0.5120  0.9019
  392MOL0     H52915   4.357  11.944  11.482  0.2011 -0.5174  1.2893
  392MOL0     H52916   3.950  12.009  11.508 -0.8212 -1.7950 -2.8763
  392MOL0     H52917   4.272  11.311  11.105  0.1254 -1.6858 -0.4033
  392MOL0     H52918   4.279  11.107  11.026 -1.0943  0.1239  0.5908
  392MOL0     H52919   4.169  11.098  10.888 -1.0536  0.5023 -0.2449
  392MOL0     H52920   4.357  11.092  10.869 -1.7170 -0.7157  0.5375
  393MOL0     O52921   1.988  11.110   6.253  0.2879 -0.6203  0.5090
  393MOL0     C52922   1.878  11.122   6.189 -0.0846 -0.2071 -1.0666
  393MOL0     O52923   1.861  11.207   6.087  0.0759  0.1128  0.6149
  393MOL0     C52924   1.967  11.278   6.046 -0.3554 -0.2960  0.0966
  393MOL0     C52925   2.084  11.231   5.980 -0.0218 -0.4559  0.7424
  393MOL0     C52926   2.182  11.322   5.936 -0.4642  1.1458  0.3111
  393MOL0     C52927   2.165  11.456   5.933  0.5564 -0.1605  0.1069
  393MOL0     O52928   2.255  11.550   5.904 -0.6552 -0.6195 -0.5530
  393MOL0     C52929   2.378  11.525   5.967 -0.0046 -0.0544  0.5934
  393MOL0     C52930   2.448  11.667   5.958 -0.3523  0.3175  0.8163
  393MOL0     C52931   2.477  11.709   5.807  0.2216  0.2453  0.2061
  393MOL0     C52932   2.551  11.841   5.806 -0.6031 -0.4432  0.3253
  393MOL0     C52933   2.473  11.960   5.858  0.3302  0.0170 -1.2776
  393MOL0     C52934   2.549  12.097   5.850  0.0671  0.1857 -0.2815
  393MOL0     C52935   2.687  12.093   5.923 -0.1318 -0.6092 -0.0363
  393MOL0     C52936   2.766  12.226   5.923  0.6460  0.5014 -0.2046
  393MOL0     N52937   2.810  12.249   5.787  0.1707  0.0839 -0.2362
  393MOL0     C52938   2.930  12.208   5.733  0.5977 -0.3344  0.0536
  393MOL0     C52939   2.917  12.245   5.605  0.3987  0.9821  0.1787
  393MOL0     C52940   3.023  12.236   5.501 -0.1046 -0.6505  0.1987
  393MOL0     C52941   3.082  12.372   5.455 -0.4684  1.2032  0.7101
  393MOL0     C52942   3.228  12.353   5.398 -0.2180 -0.4607 -0.0466
  393MOL0     C52943   3.302  12.495   5.403  0.2884  0.0002 -0.4534
  393MOL0     O52944   3.211  12.605   5.364 -0.5284  0.3871  0.4195
  393MOL0     C52945   3.263  12.735   5.359 -0.6395  1.1054  0.2366
  393MOL0     C52946   3.181  12.847   5.353 -0.3473  0.2874  0.1043
  393MOL0     C52947   3.229  12.976   5.348 -0.5827  0.6678  0.0755
  393MOL0     C52948   3.359  12.996   5.327 -0.4175 -1.5077 -0.4395
  393MOL0     C52949   3.404  13.142   5.305 -0.1411  0.5038  0.3968
  393MOL0     O52950   3.533  13.166   5.331 -1.0079 -0.3545 -0.3878
  393MOL0     C52951   3.558  13.298   5.323  0.4656 -1.3426  0.4063
  393MOL0     C52952   3.566  13.342   5.185 -0.2350 -0.5977  0.0119
  393MOL0     C52953   3.566  13.490   5.164 -0.1518  0.3386  0.1251
  393MOL0     C52954   3.588  13.583   5.275  0.7619  0.1235  0.4155
  393MOL0     O52955   3.591  13.717   5.275  0.3055  0.1111 -0.0485
  393MOL0     C52956   3.612  13.781   5.154  0.8177 -0.6271 -0.5709
  393MOL0     C52957   3.690  13.905   5.199 -0.3684  1.0464  0.1740
  393MOL0     C52958   3.709  14.011   5.096  1.0532 -0.5913 -0.2259
  393MOL0     C52959   3.820  14.107   5.136 -0.2372  0.4278 -0.5827
  393MOL0     C52960   3.827  14.240   5.060 -0.2716 -1.1070  0.4268
  393MOL0     C52961   3.820  14.210   4.913  0.0715  0.1287  0.7642
  393MOL0     C52962   3.897  14.325   4.823  0.3517  0.2335  0.1691
  393MOL0     C52963   3.858  14.464   4.868  0.4153  0.3665  0.3825
  393MOL0    Cl52964   3.997  14.575   4.830 -0.1980  0.2959  0.0285
  393MOL0     C52965   3.583  13.526   5.409 -0.0455  0.1800  0.8440
  393MOL0     C52966   3.578  13.385   5.433  0.1841  0.1561  0.5266
  393MOL0     O52967   3.318  13.220   5.258 -0.0770  0.0848  0.0985
  393MOL0     C52968   3.445  12.890   5.311 -0.2602  0.1362  0.1551
  393MOL0     C52969   3.404  12.758   5.327  0.4411  0.3230  0.4148
  393MOL0     N52970   2.807  12.312   5.583  0.6419 -0.6562  0.0644
  393MOL0     N52971   2.740  12.320   5.695  0.4529 -0.2943  1.0807
  393MOL0     C52972   2.048  11.501   5.996 -0.5572  0.3843  0.5804
  393MOL0     C52973   1.953  11.416   6.054  0.7500  0.1099  0.4012
  393MOL0     C52974   1.751  11.038   6.220 -1.1412 -0.1841  0.1979
  393MOL0     C52975   1.634  11.080   6.158  0.9577  0.3172 -0.0063
  393MOL0     C52976   1.507  11.028   6.183  0.2380 -0.6760  0.1940
  393MOL0     C52977   1.504  10.928   6.284  0.5578  0.3746 -0.7624
  393MOL0     O52978   1.381  10.871   6.305  0.2256 -0.7095 -0.6528
  393MOL0     C52979   1.347  10.827   6.442  0.4738  1.4559  0.2907
  393MOL0     C52980   1.381  10.683   6.444  0.0025  0.0735 -0.5192
  393MOL0     C52981   1.310  10.597   6.546 -0.8724  0.0428 -1.0448
  393MOL0     C52982   1.377  10.598   6.685 -0.1652 -0.2316 -0.4187
  393MOL0     C52983   1.315  10.503   6.773 -0.4796  0.5982 -0.7137
  393MOL0     C52984   1.247  10.414   6.822 -0.1443 -0.7178  0.2173
  393MOL0     C52985   1.621  10.880   6.349  0.5828  0.7717  0.4415
  393MOL0     C52986   1.739  10.943   6.328 -0.0952 -0.5641  0.7609
  393MOL0     C52987   1.861  10.899   6.408 -0.3231  0.0590  0.0358
  393MOL0     H52988   2.087  11.123   5.974 -4.6477 -0.7763  0.4618
  393MOL0     H52989   2.276  11.286   5.896 -0.9566  1.6086 -1.3229
  393MOL0     H52990   2.374  11.496   6.072 -0.2785  1.1131  0.9232
  393MOL0     H52991   2.443  11.466   5.902  0.5222  0.5886  0.5296
  393MOL0     H52992   2.542  11.649   6.011  0.2526 -3.2811 -1.1564
  393MOL0     H52993   2.381  11.738   6.009  0.3057  0.6483  1.2351
  393MOL0     H52994   2.387  11.720   5.746  0.2612 -1.7027 -0.2841
  393MOL0     H52995   2.544  11.634   5.764 -0.4730  0.6819 -1.7356
  393MOL0     H52996   2.641  11.828   5.867 -0.8239  1.8076  1.2401
  393MOL0     H52997   2.567  11.867   5.701  1.7074 -1.7863  0.2650
  393MOL0     H52998   2.372  11.974   5.816  0.1929 -1.2008 -1.3830
  393MOL0     H52999   2.465  11.945   5.967  0.1321  1.9116 -0.9938
  393MOL0     H53000   2.570  12.120   5.745 -3.0945 -0.4803 -1.1463
  393MOL0     H53001   2.485  12.173   5.895 -0.9405  0.2983 -1.8291
  393MOL0     H53002   2.751  12.012   5.887 -0.2850 -0.7333 -0.0285
  393MOL0     H53003   2.671  12.066   6.028  0.0833 -1.4760 -0.2199
  393MOL0     H53004   2.695  12.303   5.954  0.6953  0.5258 -0.1503
  393MOL0     H53005   2.854  12.233   5.989 -0.4561 -2.7293  1.8332
  393MOL0     H53006   3.012  12.156   5.781  1.8656 -0.2533 -1.9030
  393MOL0     H53007   3.110  12.177   5.532  1.0930  0.1814 -1.4200
  393MOL0     H53008   2.989  12.196   5.404  3.6420 -3.0811 -0.3469
  393MOL0     H53009   3.025  12.425   5.378  3.0600  3.2614 -0.7792
  393MOL0     H53010   3.082  12.435   5.545  0.8567  0.2076  1.4538
  393MOL0     H53011   3.223  12.335   5.290 -0.2687  0.5362 -0.2197
  393MOL0     H53012   3.298  12.284   5.445 -0.4291 -2.7480 -2.8219
  393MOL0     H53013   3.382  12.496   5.329  1.3830 -0.1002  0.6910
  393MOL0     H53014   3.330  12.509   5.508  0.0641 -2.3211 -0.0226
  393MOL0     H53015   3.075  12.832   5.370 -0.9605  2.7289 -1.1013
  393MOL0     H53016   3.149  13.049   5.359 -1.2393 -0.0228 -0.0679
  393MOL0     H53017   3.550  13.279   5.099 -2.0812  0.8075 -0.7508
  393MOL0     H53018   3.586  13.522   5.062  0.1124 -0.5806 -0.1163
  393MOL0     H53019   3.672  13.716   5.090  1.3083 -1.4416  0.6755
  393MOL0     H53020   3.518  13.804   5.103  1.5626  1.0775 -1.2512
  393MOL0     H53021   3.634  13.951   5.281 -1.0876  0.2017  0.1740
  393MOL0     H53022   3.787  13.868   5.234  0.3807  0.9704 -1.8694
  393MOL0     H53023   3.733  13.952   5.008 -3.1955 -0.4807 -1.6975
  393MOL0     H53024   3.615  14.067   5.081  1.1853  0.1611  1.4603
  393MOL0     H53025   3.916  14.055   5.137 -0.3782  0.1792 -0.0711
  393MOL0     H53026   3.800  14.143   5.237  0.6292 -1.3880  0.2651
  393MOL0     H53027   3.922  14.290   5.084 -0.7063  1.0712 -1.9423
  393MOL0     H53028   3.745  14.307   5.087 -0.0796  0.2636 -2.0744
  393MOL0     H53029   3.848  14.108   4.885 -3.7081 -1.0735  0.8133
  393MOL0     H53030   3.717  14.213   4.877 -0.2902  0.0905  1.7536
  393MOL0     H53031   3.892  14.323   4.713 -0.5550  2.4040  0.1200
  393MOL0     H53032   3.999  14.317   4.859  0.6040  2.2944  0.0552
  393MOL0     H53033   3.775  14.492   4.802 -1.2200 -3.7262  0.4597
  393MOL0     H53034   3.828  14.481   4.972 -3.6314  1.7878 -0.8124
  393MOL0     H53035   3.590  13.590   5.496 -1.2725  0.5287  0.7107
  393MOL0     H53036   3.579  13.350   5.535  1.3199 -1.0340  0.1374
  393MOL0     H53037   3.548  12.908   5.283  1.0714 -0.9071  3.7625
  393MOL0     H53038   3.489  12.691   5.316  0.8637  0.4788  2.3988
  393MOL0     H53039   2.029  11.608   6.002 -3.1371  0.0608 -0.7052
  393MOL0     H53040   1.871  11.457   6.112  2.7509  1.1629  2.6165
  393MOL0     H53041   1.632  11.160   6.084  0.9432 -1.1990 -1.7188
  393MOL0     H53042   1.422  11.065   6.125  0.5033 -1.0497 -0.4465
  393MOL0     H53043   1.245  10.847   6.477  0.6824 -0.1512  1.9294
  393MOL0     H53044   1.408  10.869   6.523 -0.3910 -1.6327  2.7599
  393MOL0     H53045   1.489  10.665   6.447  0.8699  4.3221  2.7895
  393MOL0     H53046   1.352  10.634   6.351  0.5192 -0.0770 -0.6008
  393MOL0     H53047   1.308  10.491   6.521 -1.1375 -0.4877  0.9778
  393MOL0     H53048   1.204  10.624   6.559 -0.2680  1.8821  0.7191
  393MOL0     H53049   1.482  10.566   6.678  0.0229 -0.0210  1.1874
  393MOL0     H53050   1.370  10.699   6.725 -1.9372  0.3198 -1.9832
  393MOL0     H53051   1.183  10.344   6.872 -2.1782  0.1082 -1.1036
  393MOL0     H53052   1.614  10.807   6.428 -1.7529  0.8616  0.3843
  393MOL0     H53053   1.943  10.871   6.342  1.1468  3.3195  0.2739
  393MOL0     H53054   1.908  10.971   6.476 -0.0872 -0.7177  0.7125
  393MOL0     H53055   1.827  10.807   6.458  1.7249 -0.1383  1.1886
  394MOL0     O53056  10.458   3.217  10.191 -0.2560 -0.7315  0.4949
  394MOL0     C53057  10.507   3.330  10.198 -0.2789  0.2863  1.1228
  394MOL0     O53058  10.635   3.360  10.237 -0.5920 -0.5134 -0.1965
  394MOL0     C53059  10.728   3.263  10.260  0.5065 -0.0852 -0.7735
  394MOL0     C53060  10.752   3.204  10.387  0.2569  0.0066 -0.4899
  394MOL0     C53061  10.858   3.113  10.412  1.1535  0.4830  0.6736
  394MOL0     C53062  10.935   3.065  10.308  0.4987 -0.0988 -0.6759
  394MOL0     O53063  11.020   2.960  10.328 -0.3550  0.6892  0.1862
  394MOL0     C53064  11.078   2.895  10.213 -0.9935  0.2551  0.4455
  394MOL0     C53065  11.135   2.753  10.254 -0.1828 -1.3324  0.0930
  394MOL0     C53066  11.259   2.769  10.351 -0.3037 -0.2248  0.3876
  394MOL0     C53067  11.301   2.631  10.399 -1.0797  0.4017  0.0748
  394MOL0     C53068  11.439   2.635  10.466 -0.8362 -0.4163  0.2675
  394MOL0     C53069  11.476   2.496  10.521 -0.3524  0.4476  0.4047
  394MOL0     C53070  11.614   2.455  10.483  0.0270 -0.7731  0.0079
  394MOL0     C53071  11.663   2.314  10.523  0.4997 -0.7558 -0.2371
  394MOL0     N53072  11.637   2.282  10.663  0.1678 -0.7933 -0.0467
  394MOL0     C53073  11.709   2.332  10.761  0.6247  0.6637 -0.2895
  394MOL0     C53074  11.679   2.261  10.871  0.0433 -0.1346 -0.0949
  394MOL0     C53075  11.724   2.254  11.017  0.4469  0.5089 -0.1519
  394MOL0     C53076  11.624   2.353  11.090  0.1600 -0.2234 -0.1366
  394MOL0     C53077  11.609   2.330  11.239 -0.3288  0.3015  0.5477
  394MOL0     C53078  11.496   2.397  11.308 -0.3874 -0.4063 -0.3768
  394MOL0     O53079  11.375   2.383  11.247 -0.1698  0.5005  0.2379
  394MOL0     C53080  11.261   2.439  11.308  0.9267  0.3568  0.2341
  394MOL0     C53081  11.202   2.361  11.410  0.2069 -0.6658  0.0858
  394MOL0     C53082  11.079   2.403  11.474 -0.5079 -0.2452 -0.5410
  394MOL0     C53083  11.017   2.521  11.432 -0.1768  0.5803  0.1320
  394MOL0     C53084  10.913   2.583  11.518  0.1407 -0.3362 -0.6707
  394MOL0     O53085  10.881   2.524  11.639 -0.4847  0.2315  0.0846
  394MOL0     C53086  10.800   2.585  11.732 -0.6631  0.4756 -0.1440
  394MOL0     C53087  10.680   2.528  11.769 -0.6370  0.0457  0.3007
  394MOL0     C53088  10.595   2.593  11.848  0.1583  0.4561 -0.1298
  394MOL0     C53089  10.626   2.727  11.899 -0.3624  0.0679  0.7076
  394MOL0     O53090  10.531   2.788  11.982 -0.0900 -0.4174 -0.2615
  394MOL0     C53091  10.414   2.726  12.030  0.3377  0.4135 -0.1381
  394MOL0     C53092  10.338   2.821  12.123 -0.1591 -1.2152 -0.2736
  394MOL0     C53093  10.257   2.922  12.048 -0.2440  0.2029  0.4354
  394MOL0     C53094  10.330   3.041  11.997 -0.2381 -0.0912  0.0255
  394MOL0     C53095  10.244   3.143  11.930 -1.2718  0.4190 -0.0541
  394MOL0     C53096  10.194   3.231  12.044  0.8042  0.0703 -0.9265
  394MOL0     C53097  10.099   3.358  12.022 -0.0247 -0.2101  0.0405
  394MOL0     C53098  10.125   3.437  11.889  0.8768  1.5228 -0.2900
  394MOL0    Cl53099  10.019   3.579  11.900  0.0958  0.1120  0.3720
  394MOL0     C53100  10.756   2.776  11.869  1.0376  0.8813 -0.4303
  394MOL0     C53101  10.836   2.711  11.783  0.3279  0.2420 -0.5046
  394MOL0     O53102  10.858   2.685  11.485 -0.3240  0.3678 -0.0092
  394MOL0     C53103  11.071   2.594  11.316  0.0748  0.1764 -0.5196
  394MOL0     C53104  11.193   2.553  11.270 -0.2849 -0.2121 -0.6817
  394MOL0     N53105  11.589   2.162  10.826  0.3421 -0.0982 -0.0626
  394MOL0     N53106  11.570   2.170  10.698  0.1904 -0.4948  0.0911
  394MOL0     C53107  10.908   3.116  10.176  0.4336  1.0892  0.2397
  394MOL0     C53108  10.812   3.219  10.155  0.5249 -0.6091  0.2831
  394MOL0     C53109  10.421   3.449  10.150  0.0449  0.3349  0.0086
  394MOL0     C53110  10.489   3.563  10.121 -0.3271 -0.2855 -0.1442
  394MOL0     C53111  10.428   3.679  10.067 -0.3998  0.0006 -0.2297
  394MOL0     C53112  10.290   3.672  10.040  0.5316  0.5893  0.1614
  394MOL0     O53113  10.223   3.782   9.989 -0.5268 -0.7175  0.0020
  394MOL0     C53114  10.078   3.783   9.962  0.2500  0.5110  0.5484
  394MOL0     C53115  10.054   3.905   9.880 -0.6656  0.8030  0.9040
  394MOL0     C53116   9.908   3.952   9.870  0.5640 -0.5434 -0.4063
  394MOL0     C53117   9.858   4.009  10.007  0.3856 -0.0512 -0.4751
  394MOL0     C53118   9.917   4.144  10.001  0.8527 -0.5687 -0.0523
  394MOL0     C53119   9.973   4.248   9.996  0.5954  0.0215 -0.5711
  394MOL0     C53120  10.220   3.554  10.069 -0.8114  0.1998 -0.8298
  394MOL0     C53121  10.281   3.450  10.125  0.0004 -0.0609 -0.6643
  394MOL0     C53122  10.198   3.337  10.167  0.5649 -0.4974 -0.4742
  394MOL0     H53123  10.667   3.231  10.448  1.6416  4.0155  0.0108
  394MOL0     H53124  10.887   3.062  10.504  2.0749 -3.5653 -1.6181
  394MOL0     H53125  11.006   2.875  10.134 -1.1986 -3.9591  1.4535
  394MOL0     H53126  11.156   2.958  10.169  2.0525 -0.4335  4.2234
  394MOL0     H53127  11.160   2.696  10.164  1.1075  0.9391 -1.0936
  394MOL0     H53128  11.068   2.693  10.315 -1.9639  0.4854  0.0130
  394MOL0     H53129  11.255   2.820  10.448  2.0648  0.5924  0.1137
  394MOL0     H53130  11.340   2.817  10.296 -0.8403 -0.0291 -0.2455
  394MOL0     H53131  11.222   2.585  10.459 -1.5817  0.8697 -0.2191
  394MOL0     H53132  11.318   2.571  10.310 -1.9080 -1.8762  1.3557
  394MOL0     H53133  11.503   2.670  10.384 -2.2550 -0.8439 -1.0672
  394MOL0     H53134  11.439   2.708  10.547  1.1286  2.4098 -2.0528
  394MOL0     H53135  11.460   2.489  10.629 -1.2309 -3.0738  0.1759
  394MOL0     H53136  11.407   2.424  10.476  3.8029 -2.4170 -2.1148
  394MOL0     H53137  11.674   2.520  10.548 -3.4521 -1.1776  4.0829
  394MOL0     H53138  11.645   2.484  10.382  4.2472 -1.9407  0.7814
  394MOL0     H53139  11.601   2.240  10.472  0.3087 -0.4323 -0.4836
  394MOL0     H53140  11.765   2.300  10.489  0.0970  1.4919 -2.7295
  394MOL0     H53141  11.783   2.412  10.766 -1.5673  2.7972  0.0206
  394MOL0     H53142  11.700   2.151  11.046 -4.6350  1.8117  1.3043
  394MOL0     H53143  11.830   2.277  11.029  1.0998 -1.3190 -1.7420
  394MOL0     H53144  11.656   2.458  11.082 -1.9272  0.5006  0.4822
  394MOL0     H53145  11.532   2.358  11.031  2.8598  3.1029 -4.7753
  394MOL0     H53146  11.700   2.348  11.295  0.3611 -1.0892 -0.0692
  394MOL0     H53147  11.603   2.221  11.250 -1.0141  0.1673 -0.9165
  394MOL0     H53148  11.529   2.501  11.317  4.1689 -1.5861 -1.1060
  394MOL0     H53149  11.498   2.362  11.411 -0.7343  0.7696  0.0463
  394MOL0     H53150  11.251   2.268  11.438  1.9867 -0.1541 -1.1685
  394MOL0     H53151  11.037   2.359  11.564 -1.9959  3.4539  0.7349
  394MOL0     H53152  10.667   2.427  11.731  1.3483 -0.4499  0.8639
  394MOL0     H53153  10.499   2.548  11.866 -0.0441  0.2460 -1.6640
  394MOL0     H53154  10.351   2.694  11.947 -0.9883  1.8800  0.2528
  394MOL0     H53155  10.448   2.647  12.098  0.7633  0.2124 -0.5809
  394MOL0     H53156  10.275   2.764  12.192  0.9419 -1.0573  0.8944
  394MOL0     H53157  10.410   2.863  12.193 -1.8207 -0.1923  0.9052
  394MOL0     H53158  10.182   2.872  11.986  1.4737 -2.5927  0.4957
  394MOL0     H53159  10.210   2.964  12.138 -0.3506 -1.8976  1.4183
  394MOL0     H53160  10.408   3.006  11.929 -0.5117 -1.2391  0.2844
  394MOL0     H53161  10.384   3.088  12.079 -1.2315 -1.8151  1.7547
  394MOL0     H53162  10.157   3.096  11.882 -0.8598 -2.5490  1.8519
  394MOL0     H53163  10.305   3.200  11.860 -1.7865 -0.5482 -1.3270
  394MOL0     H53164  10.136   3.163  12.106 -0.3338  2.0959  0.3646
  394MOL0     H53165  10.278   3.278  12.098 -1.8877  0.3109  3.5897
  394MOL0     H53166  10.111   3.428  12.105  1.2739 -0.1486 -0.1734
  394MOL0     H53167   9.993   3.332  12.016 -0.4460  1.4482 -0.1543
  394MOL0     H53168  10.227   3.476  11.892  1.8676 -0.9035  2.1685
  394MOL0     H53169  10.102   3.378  11.800  2.3631 -0.3849  0.5005
  394MOL0     H53170  10.778   2.868  11.923  1.0408  1.1136 -0.8272
  394MOL0     H53171  10.935   2.747  11.759  0.9646 -0.3373  1.1496
  394MOL0     H53172  11.024   2.682  11.273 -1.3849 -1.0062 -1.4506
  394MOL0     H53173  11.234   2.624  11.200  1.9305  0.9019  1.5994
  394MOL0     H53174  10.952   3.071  10.088  0.9216  0.1754  0.9298
  394MOL0     H53175  10.808   3.254  10.053 -2.5344 -0.8861  0.2362
  394MOL0     H53176  10.597   3.563  10.132 -0.5346 -0.4690  2.5383
  394MOL0     H53177  10.485   3.769  10.046  0.0127 -0.0484  0.6401
  394MOL0     H53178  10.025   3.778  10.057 -0.4048  2.3481  0.3255
  394MOL0     H53179  10.047   3.692   9.911  1.0358  0.4205  0.2166
  394MOL0     H53180  10.102   3.879   9.785  2.4809  2.0426  2.0252
  394MOL0     H53181  10.105   3.992   9.922  1.9729 -0.4312  0.4935
  394MOL0     H53182   9.838   3.869   9.861 -0.2542  0.2920 -2.3662
  394MOL0     H53183   9.890   4.027   9.792 -0.2921  2.4147  2.4100
  394MOL0     H53184   9.749   4.000  10.003  0.1450  0.8051  2.2146
  394MOL0     H53185   9.902   3.961  10.095  1.4755  1.6744 -0.0363
  394MOL0     H53186  10.037   4.333   9.991  2.5003 -1.1048  1.9983
  394MOL0     H53187  10.113   3.546  10.048 -0.5839 -0.0136 -1.9799
  394MOL0     H53188  10.218   3.296  10.266 -0.8141  1.1508  0.5500
  394MOL0     H53189  10.093   3.369  10.173  0.8445  0.1202  2.8959
  394MOL0     H53190  10.197   3.258  10.092 -0.0107 -3.2913  2.2915
  395MOL0     O53191   9.407   4.674   0.414  0.5854 -0.1812 -0.0369
  395MOL0     C53192   9.337   4.721   0.504 -0.3768  0.4852  0.7635
  395MOL0     O53193   9.239   4.816   0.483  0.5382  0.5643  0.1824
  395MOL0     C53194   9.187   4.847   0.351 -0.2782 -0.3871  0.0289
  395MOL0     C53195   9.268   4.846   0.233 -0.6199  0.4524 -1.1507
  395MOL0     C53196   9.210   4.859   0.106 -0.3809 -0.7629 -0.0540
  395MOL0     C53197   9.070   4.873   0.102  0.4540  0.9598  0.6700
  395MOL0     O53198   9.006   4.892  -0.016  0.3357 -0.1470  0.7659
  395MOL0     C53199   8.951   4.772  -0.059  0.3329  0.1507  0.4028
  395MOL0     C53200   8.806   4.785  -0.113 -0.3103 -0.2349  0.1970
  395MOL0     C53201   8.768   4.869  -0.228  0.4976  0.3436  0.0352
  395MOL0     C53202   8.796   4.819  -0.373  0.5892  0.1640  0.5923
  395MOL0     C53203   8.755   4.933  -0.469  0.4486  0.6328 -0.2661
  395MOL0     C53204   8.852   4.933  -0.582 -0.8986 -0.1527  0.5941
  395MOL0     C53205   8.832   5.054  -0.678  0.9392  1.0152  0.5245
  395MOL0     C53206   8.796   4.989  -0.816  0.5385  0.0031 -0.1172
  395MOL0     N53207   8.770   5.097  -0.918  0.2911 -0.2059 -0.7456
  395MOL0     C53208   8.644   5.159  -0.947  0.0262  0.8960 -0.6434
  395MOL0     C53209   8.677   5.282  -1.002 -0.4373 -0.4630  0.6976
  395MOL0     C53210   8.582   5.385  -1.046 -0.4897  0.4768  1.0791
  395MOL0     C53211   8.619   5.426  -1.195  0.5143 -0.5636 -1.0812
  395MOL0     C53212   8.522   5.537  -1.231 -0.2326  0.8106 -0.4671
  395MOL0     C53213   8.573   5.609  -1.356 -0.3258  0.1714 -0.4772
  395MOL0     O53214   8.473   5.667  -1.437 -0.2227 -0.9950  0.1253
  395MOL0     C53215   8.442   5.799  -1.424 -0.3165 -0.1086 -0.5012
  395MOL0     C53216   8.461   5.871  -1.304 -0.4701  0.0562 -0.0994
  395MOL0     C53217   8.444   6.003  -1.299  0.2808  0.3680 -0.3385
  395MOL0     C53218   8.408   6.081  -1.409  0.5700  1.1242  0.2546
  395MOL0     C53219   8.397   6.227  -1.399 -0.0124  0.5267  1.4411
  395MOL0     O53220   8.429   6.289  -1.514  0.5488 -0.7216 -1.0578
  395MOL0     C53221   8.446   6.421  -1.515  0.5206 -0.1251  0.0501
  395MOL0     C53222   8.559   6.486  -1.467 -0.3815 -0.3162 -0.5188
  395MOL0     C53223   8.575   6.627  -1.486  0.6960  0.0945 -0.6646
  395MOL0     C53224   8.482   6.706  -1.563 -1.1980  0.5938  0.2038
  395MOL0     O53225   8.511   6.841  -1.579 -0.2076 -0.8393  0.1459
  395MOL0     C53226   8.423   6.926  -1.656  1.3485 -0.3080  0.7197
  395MOL0     C53227   8.489   7.058  -1.686 -1.0707 -0.3376 -0.0214
  395MOL0     C53228   8.427   7.120  -1.823  0.1564 -1.1840  0.2589
  395MOL0     C53229   8.468   7.269  -1.845  0.3149  0.6782  0.3015
  395MOL0     C53230   8.371   7.338  -1.930 -0.2449 -0.0048 -0.5492
  395MOL0     C53231   8.423   7.474  -1.954  0.6010 -0.3351 -0.1222
  395MOL0     C53232   8.404   7.587  -1.844  0.4217  0.2138  0.3099
  395MOL0     C53233   8.492   7.703  -1.862 -0.0480 -0.4263  0.3992
  395MOL0    Cl53234   8.449   7.823  -1.742 -0.3259 -0.5507 -0.4124
  395MOL0     C53235   8.365   6.632  -1.617 -0.0689  0.4752 -0.2429
  395MOL0     C53236   8.352   6.490  -1.594 -0.1827 -0.0979 -0.5473
  395MOL0     O53237   8.353   6.276  -1.299 -0.6061 -0.1826  0.3420
  395MOL0     C53238   8.378   6.015  -1.526 -0.4372  0.9691  0.3661
  395MOL0     C53239   8.397   5.872  -1.535  0.5097  0.3932  0.7330
  395MOL0     N53240   8.816   5.294  -1.016  0.4294  0.4348 -0.1908
  395MOL0     N53241   8.865   5.185  -0.967  1.0019  0.1593  0.7600
  395MOL0     C53242   9.002   4.892   0.221  0.3214  0.5962 -1.1186
  395MOL0     C53243   9.054   4.874   0.346  0.2811 -0.1705  0.4167
  395MOL0     C53244   9.371   4.695   0.642  0.7579  0.1166  0.2540
  395MOL0     C53245   9.338   4.779   0.748 -0.0617 -0.2023  1.0592
  395MOL0     C53246   9.349   4.750   0.877  0.4420 -0.8553 -0.5232
  395MOL0     C53247   9.397   4.625   0.915  0.1550 -0.4163  0.5349
  395MOL0     O53248   9.417   4.604   1.047 -0.1461  0.5242  0.3040
  395MOL0     C53249   9.520   4.517   1.085  0.2126  0.3282  0.2942
  395MOL0     C53250   9.485   4.499   1.237 -1.5900 -0.8594 -0.1030
  395MOL0     C53251   9.364   4.408   1.250 -0.0591 -0.2760  0.0107
  395MOL0     C53252   9.335   4.370   1.404 -0.1259  0.8655  0.2915
  395MOL0     C53253   9.189   4.335   1.407 -0.1820 -0.2885 -0.2682
  395MOL0     C53254   9.068   4.323   1.410  0.5057  0.5103  0.4299
  395MOL0     C53255   9.447   4.536   0.814  1.0755 -0.9474  0.3813
  395MOL0     C53256   9.426   4.570   0.681  0.2727 -0.3448  0.3968
  395MOL0     C53257   9.455   4.465   0.577 -0.4305 -0.1946  0.4934
  395MOL0     H53258   9.374   4.837   0.249 -0.8759  0.3330  0.6837
  395MOL0     H53259   9.281   4.858   0.024  3.8865 -0.5643  3.2536
  395MOL0     H53260   9.012   4.737  -0.142  0.1019  3.4947 -1.3497
  395MOL0     H53261   8.940   4.691   0.013 -0.9928  0.6533  0.8100
  395MOL0     H53262   8.749   4.819  -0.026 -0.3750 -4.2721  1.9700
  395MOL0     H53263   8.767   4.686  -0.136  3.9631 -1.5394 -2.5881
  395MOL0     H53264   8.807   4.969  -0.205  1.3535 -0.5057  2.6449
  395MOL0     H53265   8.660   4.879  -0.216  0.5550 -0.0289  0.9275
  395MOL0     H53266   8.901   4.790  -0.365  0.4231 -0.0928  2.2849
  395MOL0     H53267   8.727   4.736  -0.390 -1.0321  0.8243  3.2736
  395MOL0     H53268   8.658   4.902  -0.507  1.3718 -0.3981 -1.9038
  395MOL0     H53269   8.747   5.033  -0.425 -0.0393  0.7314 -0.5686
  395MOL0     H53270   8.953   4.939  -0.541 -0.3763  3.8816 -0.8391
  395MOL0     H53271   8.859   4.834  -0.627 -2.2152 -0.0883  0.2182
  395MOL0     H53272   8.924   5.112  -0.690  0.1645  2.4387  1.2226
  395MOL0     H53273   8.741   5.105  -0.644 -1.3085 -3.3557  1.8057
  395MOL0     H53274   8.875   4.922  -0.850 -0.7368 -2.6928  1.9100
  395MOL0     H53275   8.709   4.924  -0.805  0.6291 -0.0794  0.1073
  395MOL0     H53276   8.545   5.125  -0.916 -2.4215  3.3229 -4.9119
  395MOL0     H53277   8.485   5.335  -1.033 -0.9613  1.1563  0.3031
  395MOL0     H53278   8.591   5.475  -0.984 -1.0432  2.2444 -1.2703
  395MOL0     H53279   8.720   5.468  -1.202 -0.1209  0.9485 -1.7432
  395MOL0     H53280   8.610   5.342  -1.265  0.2527 -2.8157  1.5066
  395MOL0     H53281   8.510   5.609  -1.149  1.2500 -1.5832  2.0260
  395MOL0     H53282   8.422   5.493  -1.232  0.4838 -0.8976 -1.5230
  395MOL0     H53283   8.622   5.547  -1.432  1.5329  3.3256 -2.0590
  395MOL0     H53284   8.653   5.679  -1.329  0.8164 -0.7482 -1.3476
  395MOL0     H53285   8.494   5.819  -1.214  1.0204 -0.4494 -0.8966
  395MOL0     H53286   8.455   6.048  -1.201 -0.4478 -0.3377  0.0851
  395MOL0     H53287   8.643   6.446  -1.411  0.9245  0.9265 -1.4833
  395MOL0     H53288   8.662   6.671  -1.438 -0.2100  0.1578  0.9813
  395MOL0     H53289   8.391   6.885  -1.752  4.6158 -2.0593  0.2586
  395MOL0     H53290   8.336   6.950  -1.594  1.0602  3.6352 -0.8768
  395MOL0     H53291   8.493   7.126  -1.601 -0.1994  0.5043 -0.7121
  395MOL0     H53292   8.589   7.048  -1.729  0.1175  0.7978  2.3270
  395MOL0     H53293   8.454   7.053  -1.905 -3.5538  0.8966 -3.0142
  395MOL0     H53294   8.318   7.120  -1.822  0.1337 -1.7490 -0.6786
  395MOL0     H53295   8.569   7.272  -1.888  0.3022  1.6286  0.3128
  395MOL0     H53296   8.483   7.310  -1.744  2.4818  2.6992 -0.7298
  395MOL0     H53297   8.273   7.331  -1.882  0.8585 -5.0950  1.6235
  395MOL0     H53298   8.373   7.289  -2.027  0.6562 -1.4210  0.1531
  395MOL0     H53299   8.526   7.465  -1.990  1.5464  0.5254  2.1586
  395MOL0     H53300   8.368   7.508  -2.042  0.9167  0.4119 -0.0405
  395MOL0     H53301   8.403   7.540  -1.745 -0.7937  1.5305  0.9658
  395MOL0     H53302   8.301   7.621  -1.857 -0.4916 -1.1268  3.2652
  395MOL0     H53303   8.596   7.668  -1.854 -0.1746 -1.1136 -0.8736
  395MOL0     H53304   8.479   7.742  -1.963 -0.2943 -1.6265 -0.0401
  395MOL0     H53305   8.289   6.677  -1.679 -1.5610 -2.8309 -1.0442
  395MOL0     H53306   8.272   6.428  -1.634  0.0232 -0.7226 -0.0155
  395MOL0     H53307   8.339   6.070  -1.612 -2.5836 -0.1696  0.5512
  395MOL0     H53308   8.387   5.832  -1.635 -1.5211  1.4455  0.4566
  395MOL0     H53309   8.898   4.922   0.222  0.2629  0.4635  1.4133
  395MOL0     H53310   8.999   4.872   0.440  1.3744 -0.9756  1.0666
  395MOL0     H53311   9.288   4.873   0.728  2.2058  1.2489  1.8995
  395MOL0     H53312   9.312   4.810   0.960  2.9495 -1.9028  1.4910
  395MOL0     H53313   9.610   4.573   1.059 -0.0197 -0.9786 -3.9100
  395MOL0     H53314   9.514   4.422   1.032 -0.1313  0.1761  0.5983
  395MOL0     H53315   9.479   4.593   1.291 -3.3739 -1.4731  0.8365
  395MOL0     H53316   9.579   4.456   1.273 -1.2277  0.9746  1.2413
  395MOL0     H53317   9.372   4.318   1.188 -1.7884 -0.7010  0.3542
  395MOL0     H53318   9.284   4.475   1.217  1.1333  1.8954  1.2971
  395MOL0     H53319   9.384   4.279   1.438 -2.4682  0.6124  3.5100
  395MOL0     H53320   9.356   4.447   1.480  1.4411  0.0874  0.6876
  395MOL0     H53321   8.962   4.323   1.423  0.3620  0.1266 -0.6674
  395MOL0     H53322   9.483   4.436   0.836 -2.1270 -1.6509  3.2401
  395MOL0     H53323   9.379   4.456   0.499  0.6123  1.9105 -0.8554
  395MOL0     H53324   9.545   4.502   0.527  0.3101 -1.1927  1.0627
  395MOL0     H53325   9.477   4.364   0.613 -0.9152 -1.8549 -3.3656
  396MOL0     O53326   1.160  10.479  10.389 -0.3527 -0.0051 -0.0602
  396MOL0     C53327   1.104  10.437  10.295  1.0874 -0.7323  0.6406
  396MOL0     O53328   1.169  10.381  10.188 -0.1822  0.6204  1.1424
  396MOL0     C53329   1.306  10.388  10.159  1.0100 -0.5266 -0.8958
  396MOL0     C53330   1.363  10.497  10.100 -0.3389 -0.1622 -0.1725
  396MOL0     C53331   1.498  10.494  10.062 -0.0726 -0.9370 -1.0771
  396MOL0     C53332   1.579  10.391  10.078  0.1454  0.0336  0.6076
  396MOL0     O53333   1.707  10.377  10.048  0.6611  0.1159 -0.1082
  396MOL0     C53334   1.774  10.490   9.994  0.4712  0.5032 -0.2216
  396MOL0     C53335   1.910  10.442   9.964 -0.4262 -0.1172  0.4063
  396MOL0     C53336   1.986  10.551   9.885  0.3184 -0.1705  0.1220
  396MOL0     C53337   2.136  10.549   9.898 -0.8958 -0.3686 -0.2367
  396MOL0     C53338   2.197  10.435   9.822 -0.7303 -0.2436 -0.0959
  396MOL0     C53339   2.354  10.440   9.807 -0.5823  0.1197 -0.6290
  396MOL0     C53340   2.392  10.290   9.793 -0.2331 -0.3723 -1.0145
  396MOL0     C53341   2.536  10.263   9.751 -0.1904 -0.1697 -0.2013
  396MOL0     N53342   2.562  10.275   9.608 -0.3672  0.0533 -0.7044
  396MOL0     C53343   2.558  10.390   9.522  0.6836 -0.4071 -0.4236
  396MOL0     C53344   2.624  10.358   9.414 -0.2284  0.8408 -0.0724
  396MOL0     C53345   2.669  10.465   9.316 -0.3075 -0.0892 -0.0318
  396MOL0     C53346   2.722  10.404   9.189  0.2990  0.3305 -0.1712
  396MOL0     C53347   2.791  10.492   9.094  0.3033  0.1099  0.2695
  396MOL0     C53348   2.935  10.528   9.146  0.6005  0.9821 -0.3225
  396MOL0     O53349   3.022  10.543   9.032 -0.1221 -0.4078  0.1832
  396MOL0     C53350   3.071  10.438   8.955  0.1665 -0.0398  1.2052
  396MOL0     C53351   3.143  10.471   8.842  0.2943  0.2610  0.9267
  396MOL0     C53352   3.183  10.372   8.749 -0.0067  0.8540  0.0241
  396MOL0     C53353   3.169  10.239   8.782 -0.6713 -0.2863 -0.2990
  396MOL0     C53354   3.229  10.140   8.698 -0.9603 -0.0015  0.5476
  396MOL0     O53355   3.196  10.011   8.717  0.1099 -0.4037 -0.3758
  396MOL0     C53356   3.286   9.919   8.670 -0.8143 -0.6820 -0.4561
  396MOL0     C53357   3.392   9.861   8.744  0.3304  0.1776 -0.9354
  396MOL0     C53358   3.473   9.775   8.685  0.8720  0.3643  0.0807
  396MOL0     C53359   3.465   9.739   8.550  0.4824 -0.4256 -0.0615
  396MOL0     O53360   3.568   9.661   8.488  0.7706 -0.1320 -0.7722
  396MOL0     C53361   3.554   9.618   8.347 -0.2593 -1.0776  0.1272
  396MOL0     C53362   3.497   9.482   8.370 -0.7408 -0.0751  0.2162
  396MOL0     C53363   3.473   9.398   8.250  0.9576 -0.0960 -0.2200
  396MOL0     C53364   3.607   9.382   8.173  0.2448  0.5824  0.2270
  396MOL0     C53365   3.591   9.269   8.059  0.8735 -0.8140  0.1804
  396MOL0     C53366   3.515   9.323   7.934 -0.1067  0.0411  1.3134
  396MOL0     C53367   3.530   9.215   7.829  0.0594 -0.2395  0.4753
  396MOL0     C53368   3.660   9.231   7.748 -0.6661 -0.0123 -0.3265
  396MOL0    Cl53369   3.708   9.072   7.672 -0.1092  0.3589 -0.0970
  396MOL0     C53370   3.349   9.777   8.480  0.1873 -0.2777 -0.4585
  396MOL0     C53371   3.269   9.881   8.536  0.2816  0.0658 -0.5832
  396MOL0     O53372   3.309  10.178   8.612  0.5639 -0.1376  0.0975
  396MOL0     C53373   3.103  10.202   8.901  0.4281  0.1780 -0.8436
  396MOL0     C53374   3.057  10.303   8.991 -0.5983 -0.1678 -0.2366
  396MOL0     N53375   2.660  10.225   9.425 -0.9568  0.1186  0.5595
  396MOL0     N53376   2.640  10.177   9.544 -0.7269 -0.6498  0.4896
  396MOL0     C53377   1.531  10.280  10.156  0.1739  0.3591 -0.4652
  396MOL0     C53378   1.389  10.272  10.190  0.1952  0.7796 -0.8431
  396MOL0     C53379   0.952  10.429  10.287 -0.3824 -0.3934 -0.8680
  396MOL0     C53380   0.883  10.351  10.198  0.8484  0.0352  0.5693
  396MOL0     C53381   0.740  10.340  10.188 -0.3872 -0.4032 -0.5538
  396MOL0     C53382   0.655  10.411  10.275  0.0095 -0.5607 -0.3761
  396MOL0     O53383   0.521  10.407  10.264 -0.5659 -0.6316 -0.4898
  396MOL0     C53384   0.473  10.308  10.348 -0.2102 -0.4124  0.2430
  396MOL0     C53385   0.314  10.309  10.362 -0.1664 -0.1358  0.0529
  396MOL0     C53386   0.272  10.226  10.476 -0.1407 -0.1151 -0.2797
  396MOL0     C53387   0.121  10.234  10.493  0.3052  0.2515  1.3660
  396MOL0     C53388   0.061  10.158  10.384 -0.1705  0.5743  0.0163
  396MOL0     C53389   0.004  10.074  10.302 -0.9142  0.8588 -0.2390
  396MOL0     C53390   0.727  10.504  10.357 -0.6346 -0.4238  0.2702
  396MOL0     C53391   0.869  10.518  10.360 -0.5879 -0.8375 -1.2750
  396MOL0     C53392   0.923  10.643  10.426  0.2646  0.2530 -1.3198
  396MOL0     H53393   1.300  10.585  10.085  2.0960  1.3445 -2.5036
  396MOL0     H53394   1.531  10.580  10.005 -4.0288 -0.3760 -2.8142
  396MOL0     H53395   1.725  10.510   9.898 -1.4611  0.0695  0.6307
  396MOL0     H53396   1.791  10.581  10.052  1.8229 -1.1406  2.0995
  396MOL0     H53397   1.912  10.347   9.909  1.8665 -0.4554  0.9899
  396MOL0     H53398   1.952  10.421  10.063  0.8784  1.6791  0.2836
  396MOL0     H53399   1.954  10.650   9.918 -0.4686  0.7959 -3.1594
  396MOL0     H53400   1.957  10.531   9.781 -0.0821  3.8092 -0.7107
  396MOL0     H53401   2.174  10.645   9.863 -2.0370  1.4079  2.9478
  396MOL0     H53402   2.170  10.539  10.002 -0.1111 -1.4828 -0.5875
  396MOL0     H53403   2.161  10.341   9.864  1.0543 -3.1320 -4.3930
  396MOL0     H53404   2.151  10.440   9.723 -1.9028  0.9079  0.4709
  396MOL0     H53405   2.393  10.499   9.723  0.1384  0.3631 -0.1344
  396MOL0     H53406   2.413  10.471   9.894 -0.6592 -1.7562  0.1503
  396MOL0     H53407   2.336  10.237   9.714  0.0701 -0.2053 -1.3432
  396MOL0     H53408   2.373  10.228   9.881 -4.4590 -0.5950 -1.8439
  396MOL0     H53409   2.599  10.330   9.811 -1.1478 -0.8756  1.6974
  396MOL0     H53410   2.558  10.158   9.776 -1.1424 -0.5983 -1.0927
  396MOL0     H53411   2.519  10.490   9.540 -0.8152 -1.2422  1.3057
  396MOL0     H53412   2.582  10.528   9.298  0.3457  1.3457  1.4838
  396MOL0     H53413   2.749  10.528   9.358  0.3687 -1.0471  0.1578
  396MOL0     H53414   2.791  10.320   9.203 -0.0554 -0.2302 -1.6269
  396MOL0     H53415   2.641  10.367   9.125  0.9980  1.4819 -1.7727
  396MOL0     H53416   2.732  10.584   9.083  1.5064  0.8431 -0.2578
  396MOL0     H53417   2.793  10.440   8.998 -0.1037  0.9297 -0.2032
  396MOL0     H53418   2.977  10.444   9.202 -4.8469 -1.9269  0.1131
  396MOL0     H53419   2.938  10.619   9.207  2.4073 -1.0256  2.8147
  396MOL0     H53420   3.177  10.573   8.830  3.0441 -0.7643 -1.1082
  396MOL0     H53421   3.244  10.401   8.663  1.4515  0.0476  0.7516
  396MOL0     H53422   3.411   9.888   8.847 -0.8731  1.9950 -1.1562
  396MOL0     H53423   3.562   9.744   8.739  0.4531 -1.6814 -0.3208
  396MOL0     H53424   3.496   9.677   8.275  0.9400  0.7932  0.6142
  396MOL0     H53425   3.650   9.607   8.296 -1.6435  1.8566 -3.5745
  396MOL0     H53426   3.570   9.424   8.428 -0.4544 -1.6910 -1.6624
  396MOL0     H53427   3.399   9.490   8.417  0.2471 -0.0267  2.3711
  396MOL0     H53428   3.423   9.305   8.276  1.0552  0.3204  1.5796
  396MOL0     H53429   3.406   9.456   8.185  3.8345  0.0497 -3.2994
  396MOL0     H53430   3.696   9.351   8.229  1.5136  1.3843 -1.2496
  396MOL0     H53431   3.628   9.480   8.129 -1.7755  0.8384 -0.2573
  396MOL0     H53432   3.548   9.180   8.105  0.4793  0.1523  1.7744
  396MOL0     H53433   3.695   9.239   8.038  1.3047  1.3127 -1.0947
  396MOL0     H53434   3.409   9.335   7.961 -0.4216  0.5609 -0.0777
  396MOL0     H53435   3.553   9.420   7.901 -1.7476  0.5950  0.9196
  396MOL0     H53436   3.444   9.213   7.761  0.7114  1.5979 -0.4721
  396MOL0     H53437   3.525   9.120   7.883  0.7148  0.0176  1.0017
  396MOL0     H53438   3.631   9.295   7.664 -2.7222 -0.8992 -0.3642
  396MOL0     H53439   3.742   9.278   7.803 -2.5515  1.0265  1.7858
  396MOL0     H53440   3.321   9.750   8.379 -1.9176 -3.0627  0.7708
  396MOL0     H53441   3.199   9.947   8.486 -0.6727  0.3300  1.0640
  396MOL0     H53442   3.111  10.102   8.944 -1.6706  0.8023  1.2046
  396MOL0     H53443   3.002  10.281   9.081  1.5639 -2.3965  0.6392
  396MOL0     H53444   1.594  10.196  10.182  2.0824  1.7942 -0.1753
  396MOL0     H53445   1.352  10.182  10.237  1.2483  0.0207 -1.4183
  396MOL0     H53446   0.932  10.286  10.126  1.8172  2.2122 -0.8280
  396MOL0     H53447   0.686  10.271  10.123 -3.7320 -0.9010  2.4334
  396MOL0     H53448   0.518  10.318  10.447  1.9551 -1.3922 -0.5715
  396MOL0     H53449   0.503  10.209  10.313 -1.1012  0.2326 -2.5614
  396MOL0     H53450   0.272  10.267  10.270  1.9688 -1.6701 -0.2999
  396MOL0     H53451   0.269  10.408  10.374 -2.6365 -1.4038  2.7648
  396MOL0     H53452   0.307  10.263  10.572 -2.8207 -1.4810  1.3275
  396MOL0     H53453   0.307  10.123  10.467  0.4949 -0.0523  1.2047
  396MOL0     H53454   0.095  10.193  10.591 -0.2548 -1.2320  0.6273
  396MOL0     H53455   0.096  10.339  10.474  1.2181 -0.2071 -3.5204
  396MOL0     H53456  -0.041   9.995  10.246 -3.1609 -0.0617  2.6220
  396MOL0     H53457   0.661  10.566  10.418 -1.6489 -1.8530  0.6757
  396MOL0     H53458   0.980  10.703  10.354 -0.2026  1.3921 -0.7560
  396MOL0     H53459   0.843  10.704  10.468 -0.8152 -1.2581 -1.0876
  396MOL0     H53460   1.000  10.623  10.501  1.6897  4.0766 -1.5486
  397MOL0     O53461   9.192   4.502   7.880  0.3474 -0.0593  0.5919
  397MOL0     C53462   9.114   4.490   7.976 -0.4800  0.1429  0.0891
  397MOL0     O53463   9.131   4.519   8.111 -0.3476 -0.0592 -0.1357
  397MOL0     C53464   9.261   4.546   8.152 -0.1946 -1.4041 -0.3083
  397MOL0     C53465   9.290   4.675   8.209  0.0670 -0.0963  0.3257
  397MOL0     C53466   9.417   4.721   8.236 -0.0464  0.3327 -1.0315
  397MOL0     C53467   9.524   4.628   8.228 -0.0033  0.1881 -0.0743
  397MOL0     O53468   9.652   4.668   8.257  0.2089 -0.4094 -0.1187
  397MOL0     C53469   9.760   4.628   8.163  0.3371 -0.5706 -0.3100
  397MOL0     C53470   9.849   4.523   8.221  0.2120 -0.5113 -0.1699
  397MOL0     C53471   9.996   4.555   8.202 -0.0885  0.0901 -0.9310
  397MOL0     C53472  10.029   4.537   8.051 -0.8699 -0.7473 -0.4187
  397MOL0     C53473  10.177   4.577   8.032 -0.3349 -0.1816  0.1076
  397MOL0     C53474  10.201   4.573   7.876  0.2117  0.2792  0.3906
  397MOL0     C53475  10.330   4.645   7.846 -1.1684  0.2606 -0.1057
  397MOL0     C53476  10.450   4.552   7.856  0.4068 -0.3813  0.5789
  397MOL0     N53477  10.571   4.618   7.814  0.0015 -0.5946 -0.0603
  397MOL0     C53478  10.619   4.605   7.688 -0.0248 -0.0447 -0.6826
  397MOL0     C53479  10.744   4.664   7.687  0.3945  0.1497  0.1430
  397MOL0     C53480  10.852   4.655   7.580 -0.2518 -0.3526  0.1664
  397MOL0     C53481  10.807   4.590   7.454 -0.3448  1.2705  0.5245
  397MOL0     C53482  10.723   4.687   7.371  0.6673  0.0960  0.3338
  397MOL0     C53483  10.698   4.615   7.238  0.7386 -0.5308  0.2323
  397MOL0     O53484  10.620   4.500   7.255 -0.5707 -0.0021  0.5290
  397MOL0     C53485  10.489   4.521   7.291 -0.6567  0.2005 -0.1230
  397MOL0     C53486  10.445   4.448   7.400 -1.0879  0.4252  0.1072
  397MOL0     C53487  10.311   4.453   7.440  0.9230  0.3004  0.2525
  397MOL0     C53488  10.219   4.501   7.344  0.7180  1.2938 -0.1960
  397MOL0     C53489  10.073   4.496   7.374 -0.6012 -0.3252  0.1277
  397MOL0     O53490   9.992   4.488   7.270 -0.5243  0.0178  0.3090
  397MOL0     C53491   9.855   4.511   7.276 -0.8364  0.2237  0.3062
  397MOL0     C53492   9.800   4.613   7.356 -0.2391 -0.1234  0.2489
  397MOL0     C53493   9.660   4.601   7.379  0.1102  0.0442 -0.2582
  397MOL0     C53494   9.579   4.509   7.314  0.1683  0.8919 -0.5602
  397MOL0     O53495   9.444   4.503   7.349 -0.1640  1.2350 -0.2353
  397MOL0     C53496   9.357   4.417   7.279 -0.3038 -0.1250 -0.2860
  397MOL0     C53497   9.221   4.395   7.341 -0.6579 -0.6545  0.8803
  397MOL0     C53498   9.144   4.539   7.347 -0.1018 -0.1601 -1.0435
  397MOL0     C53499   8.989   4.522   7.332  0.8985 -0.5939 -0.3069
  397MOL0     C53500   8.913   4.652   7.301 -0.3923 -0.2624  0.0876
  397MOL0     C53501   8.761   4.644   7.267  0.0153 -0.1668  1.5980
  397MOL0     C53502   8.677   4.572   7.382 -0.9048  0.2871 -0.2424
  397MOL0     C53503   8.534   4.558   7.347 -0.3381 -0.7747 -0.3107
  397MOL0    Cl53504   8.492   4.506   7.179 -0.0331  0.1526 -0.1430
  397MOL0     C53505   9.635   4.416   7.232 -0.1258  0.5748 -1.0344
  397MOL0     C53506   9.767   4.426   7.207 -0.6783 -0.0590  0.4955
  397MOL0     O53507  10.036   4.492   7.490  0.5298  0.6366  0.3007
  397MOL0     C53508  10.262   4.551   7.220  1.0409  0.5987 -0.7705
  397MOL0     C53509  10.400   4.565   7.201  0.3699 -0.7239  0.1838
  397MOL0     N53510  10.762   4.712   7.824  0.6381  0.2174  0.0689
  397MOL0     N53511  10.653   4.685   7.888 -0.2145  0.1298 -0.5626
  397MOL0     C53512   9.495   4.489   8.194 -0.3674  0.6302  0.6640
  397MOL0     C53513   9.364   4.448   8.164 -0.1515 -0.7042  0.3551
  397MOL0     C53514   8.986   4.428   7.952 -0.4999  0.8659 -0.7701
  397MOL0     C53515   8.950   4.320   8.036 -0.4300  0.6944  0.2659
  397MOL0     C53516   8.824   4.259   8.017  1.0091 -0.3710  0.9790
  397MOL0     C53517   8.737   4.305   7.921 -0.0602  0.1532 -0.2172
  397MOL0     O53518   8.628   4.225   7.922  0.9898 -0.0484  0.5169
  397MOL0     C53519   8.554   4.222   7.794  0.0570 -0.1248  0.4271
  397MOL0     C53520   8.434   4.113   7.786 -0.2427 -0.5373  0.0084
  397MOL0     C53521   8.346   4.139   7.663 -0.4158  0.0043 -0.9110
  397MOL0     C53522   8.232   4.041   7.650 -0.1084  0.4695 -0.6314
  397MOL0     C53523   8.126   4.062   7.755 -0.7382  0.5289  0.3790
  397MOL0     C53524   8.047   4.096   7.844  0.5366  0.3431 -0.0670
  397MOL0     C53525   8.772   4.408   7.831  0.5268 -0.8172 -0.0663
  397MOL0     C53526   8.899   4.468   7.842 -0.6422  0.0551  0.2723
  397MOL0     C53527   8.934   4.566   7.727 -0.6453 -0.3478 -0.5329
  397MOL0     H53528   9.209   4.748   8.210 -0.4238 -0.5814  3.1431
  397MOL0     H53529   9.444   4.824   8.255  0.4415  0.5560 -2.7196
  397MOL0     H53530   9.726   4.589   8.066 -0.1948  1.8114 -1.1555
  397MOL0     H53531   9.808   4.722   8.134 -1.7348  0.3154 -1.1047
  397MOL0     H53532   9.823   4.418   8.200  1.3311 -0.9991  0.7691
  397MOL0     H53533   9.840   4.544   8.328  2.6689  2.8377 -0.4642
  397MOL0     H53534  10.061   4.492   8.263 -0.6126  1.8039  1.5587
  397MOL0     H53535  10.007   4.659   8.234  0.2892 -0.0197 -0.7029
  397MOL0     H53536  10.004   4.439   8.009 -0.2013 -0.4335 -1.5832
  397MOL0     H53537   9.970   4.609   7.993 -0.2323 -1.4653 -2.0145
  397MOL0     H53538  10.187   4.680   8.067  0.4966  0.5998 -2.2098
  397MOL0     H53539  10.251   4.519   8.088 -2.4511 -1.7164  1.4731
  397MOL0     H53540  10.194   4.468   7.845 -2.2379 -0.2085  2.1903
  397MOL0     H53541  10.116   4.617   7.822  0.4770  0.6120  0.2430
  397MOL0     H53542  10.358   4.729   7.910  1.3319 -0.1650 -0.5046
  397MOL0     H53543  10.319   4.680   7.743 -1.5318 -0.2980 -0.2605
  397MOL0     H53544  10.451   4.519   7.961 -1.1531  0.4048  0.8737
  397MOL0     H53545  10.423   4.465   7.795 -1.3818  1.6672 -1.7232
  397MOL0     H53546  10.567   4.550   7.610 -2.2338  4.1001 -2.4659
  397MOL0     H53547  10.896   4.753   7.559  0.2124 -0.8290 -1.2126
  397MOL0     H53548  10.932   4.594   7.624  0.6065  1.1378  0.7641
  397MOL0     H53549  10.902   4.575   7.401 -0.1827  0.5094  1.0215
  397MOL0     H53550  10.766   4.490   7.466  2.8141 -0.0356  1.4636
  397MOL0     H53551  10.786   4.771   7.339  2.8755 -1.2204  1.0615
  397MOL0     H53552  10.632   4.720   7.423 -0.5595 -0.8372 -1.1310
  397MOL0     H53553  10.799   4.593   7.203  1.2718 -0.9282  1.9008
  397MOL0     H53554  10.648   4.687   7.173  0.7016 -1.1346 -0.4100
  397MOL0     H53555  10.520   4.383   7.444 -1.8147  0.0772  0.8504
  397MOL0     H53556  10.281   4.399   7.529 -0.0057 -1.2276 -0.9500
  397MOL0     H53557   9.852   4.689   7.413 -1.3918 -1.2848  3.0173
  397MOL0     H53558   9.617   4.661   7.458 -0.6962  0.4024 -0.9595
  397MOL0     H53559   9.356   4.473   7.186 -0.9719  0.9601  0.3558
  397MOL0     H53560   9.399   4.320   7.249  3.8523  1.3400  0.1156
  397MOL0     H53561   9.163   4.325   7.281 -0.9228  1.3393 -1.3718
  397MOL0     H53562   9.239   4.348   7.438  0.5285 -3.0970 -0.4352
  397MOL0     H53563   9.174   4.604   7.430  0.2701 -0.8788 -0.6117
  397MOL0     H53564   9.184   4.592   7.259  4.6249 -0.5459  0.5912
  397MOL0     H53565   8.972   4.482   7.432  5.0450 -0.8378  0.4770
  397MOL0     H53566   8.951   4.450   7.259  1.6937 -0.1233 -1.2207
  397MOL0     H53567   8.943   4.710   7.213 -1.4987  1.1487  0.6035
  397MOL0     H53568   8.908   4.711   7.393  0.0499  0.1739 -0.1597
  397MOL0     H53569   8.718   4.739   7.235 -0.3536 -1.0780 -0.8246
  397MOL0     H53570   8.753   4.580   7.178  0.5700  3.2788 -1.1477
  397MOL0     H53571   8.682   4.628   7.476  1.2069 -1.4318  0.7453
  397MOL0     H53572   8.721   4.473   7.399  1.8530  1.2218 -1.3747
  397MOL0     H53573   8.479   4.498   7.420 -1.8547  0.7415 -0.1236
  397MOL0     H53574   8.488   4.657   7.358 -0.0486 -0.3509 -2.4421
  397MOL0     H53575   9.577   4.341   7.180 -3.1339  1.4107  0.8307
  397MOL0     H53576   9.808   4.348   7.143 -1.4697  0.9658 -1.3650
  397MOL0     H53577  10.194   4.594   7.148  0.5477  1.2898  0.0770
  397MOL0     H53578  10.446   4.604   7.110 -0.7460  4.2154  1.4417
  397MOL0     H53579   9.571   4.412   8.182 -1.4487 -0.0257 -3.1776
  397MOL0     H53580   9.327   4.349   8.138  2.8078 -1.4205 -1.5759
  397MOL0     H53581   9.019   4.275   8.106 -0.7658 -2.1790 -1.0612
  397MOL0     H53582   8.792   4.175   8.077  0.4660  0.2891  1.6363
  397MOL0     H53583   8.627   4.193   7.718 -1.5837 -0.6117 -0.9936
  397MOL0     H53584   8.520   4.326   7.783 -2.8179 -0.6539  2.8789
  397MOL0     H53585   8.383   4.118   7.883  0.3082  0.8837  0.2588
  397MOL0     H53586   8.473   4.013   7.765  1.5632  0.3433 -1.0553
  397MOL0     H53587   8.413   4.136   7.577 -1.8369  0.8952 -2.0879
  397MOL0     H53588   8.306   4.239   7.682 -0.3851 -0.5305  2.8444
  397MOL0     H53589   8.177   4.045   7.555 -0.7104 -0.1671 -0.3219
  397MOL0     H53590   8.264   3.937   7.665 -2.3948 -0.3867 -1.0695
  397MOL0     H53591   7.974   4.106   7.922  2.3181  2.6259  1.4412
  397MOL0     H53592   8.697   4.445   7.761 -0.4345 -1.5337  0.5536
  397MOL0     H53593   8.933   4.519   7.628  0.7172 -1.1705 -0.1858
  397MOL0     H53594   8.861   4.647   7.723  1.9439  2.1681 -0.3813
  397MOL0     H53595   9.040   4.590   7.741  0.5480 -4.6754 -0.6825
  398MOL0     O53596   6.507   4.723   5.501 -0.1829 -0.1993 -0.3941
  398MOL0     C53597   6.615   4.751   5.558 -0.2060  0.8051 -0.6244
  398MOL0     O53598   6.630   4.768   5.686 -0.4333 -0.0944  0.5579
  398MOL0     C53599   6.516   4.776   5.758 -0.7486 -0.2654 -0.2456
  398MOL0     C53600   6.490   4.910   5.817 -0.0098  0.3765  1.0503
  398MOL0     C53601   6.375   4.925   5.903  0.3405  0.3583 -0.3921
  398MOL0     C53602   6.290   4.816   5.937 -0.0917  0.2082  1.0469
  398MOL0     O53603   6.189   4.843   6.024 -0.5035  0.4021  0.3823
  398MOL0     C53604   6.072   4.754   6.014 -0.1225 -0.4909  0.6721
  398MOL0     C53605   6.071   4.665   6.131  0.0572  0.3862  0.5774
  398MOL0     C53606   5.973   4.547   6.121 -0.5329 -0.0812  0.7295
  398MOL0     C53607   5.986   4.432   6.226  0.0356  0.4204  0.5045
  398MOL0     C53608   5.850   4.351   6.226 -0.5452 -0.1296 -0.7436
  398MOL0     C53609   5.877   4.221   6.301  0.4944  0.0499  0.7268
  398MOL0     C53610   5.746   4.139   6.306  0.8184  1.0114  0.7733
  398MOL0     C53611   5.776   3.986   6.340  0.4695 -0.2078 -0.9296
  398MOL0     N53612   5.870   3.954   6.441 -0.7732 -0.1723 -0.9428
  398MOL0     C53613   5.836   3.973   6.572  0.8367 -0.6262  0.5099
  398MOL0     C53614   5.934   3.914   6.640  0.6267 -0.4449 -0.7446
  398MOL0     C53615   5.964   3.927   6.784  0.0114 -0.0458 -0.2513
  398MOL0     C53616   5.924   4.051   6.862 -0.0354  0.6967  0.0065
  398MOL0     C53617   6.025   4.166   6.844  0.0982 -0.5213 -0.0975
  398MOL0     C53618   5.997   4.269   6.951  0.4305  0.2901 -0.5205
  398MOL0     O53619   6.043   4.241   7.086 -0.1974  0.7472  0.3856
  398MOL0     C53620   6.172   4.236   7.108 -0.6715 -0.3081  0.1041
  398MOL0     C53621   6.247   4.124   7.085 -0.3997 -0.4779  0.5490
  398MOL0     C53622   6.382   4.120   7.117 -0.0265  0.3504 -0.1050
  398MOL0     C53623   6.455   4.228   7.166  0.2741 -0.4205 -0.8193
  398MOL0     C53624   6.594   4.216   7.207 -0.1808 -0.2904 -0.0457
  398MOL0     O53625   6.648   4.090   7.188  0.2613 -0.0738 -0.0154
  398MOL0     C53626   6.780   4.086   7.142  0.6428 -0.3584  0.2986
  398MOL0     C53627   6.853   4.196   7.094  0.4697 -0.8377  0.4540
  398MOL0     C53628   6.982   4.172   7.039 -0.4477  1.2448 -0.3551
  398MOL0     C53629   7.044   4.046   7.022  0.4602 -0.0169 -0.5316
  398MOL0     O53630   7.158   4.032   6.957  0.7493  0.7980  1.0224
  398MOL0     C53631   7.238   3.909   6.965 -0.1780  0.3242 -0.0227
  398MOL0     C53632   7.345   3.925   6.857  0.4823  0.4254 -0.1212
  398MOL0     C53633   7.411   3.783   6.844 -0.0765  0.4816 -0.5414
  398MOL0     C53634   7.465   3.772   6.707  0.2772 -0.8050  0.5560
  398MOL0     C53635   7.516   3.637   6.666  1.0603  0.3170 -0.2949
  398MOL0     C53636   7.548   3.633   6.515  0.0381 -0.3123 -0.2689
  398MOL0     C53637   7.612   3.500   6.458  0.1418 -1.0177 -0.1822
  398MOL0     C53638   7.631   3.490   6.310  0.3866 -0.6479  0.2380
  398MOL0    Cl53639   7.478   3.474   6.220  0.1093 -0.4463  0.0762
  398MOL0     C53640   6.977   3.939   7.085  1.0300  0.1391 -0.5612
  398MOL0     C53641   6.854   3.961   7.139  0.1422 -0.6661 -0.5224
  398MOL0     O53642   6.658   4.312   7.253 -0.1975  0.3626 -0.6722
  398MOL0     C53643   6.378   4.348   7.193 -0.3120  0.3263  0.5587
  398MOL0     C53644   6.238   4.344   7.172  0.3185 -0.0108  0.3585
  398MOL0     N53645   6.016   3.851   6.549 -0.4436  0.6394  1.6247
  398MOL0     N53646   5.973   3.869   6.428  0.6061 -0.3144  0.0905
  398MOL0     C53647   6.317   4.690   5.871  0.9529  0.0280  0.5073
  398MOL0     C53648   6.422   4.675   5.786  0.1828  0.8781 -0.0277
  398MOL0     C53649   6.745   4.742   5.478  0.6496  0.2574 -0.3359
  398MOL0     C53650   6.865   4.743   5.549  0.9404 -0.8032  0.4948
  398MOL0     C53651   6.993   4.742   5.493  0.6159  0.1581  0.8348
  398MOL0     C53652   7.000   4.734   5.347 -0.0684 -0.4238  0.0619
  398MOL0     O53653   7.110   4.745   5.274 -0.9126  0.7098 -0.0111
  398MOL0     C53654   7.240   4.705   5.332 -0.5229 -0.6687  0.5882
  398MOL0     C53655   7.352   4.683   5.227  0.7854 -0.6278  0.0139
  398MOL0     C53656   7.452   4.792   5.248 -0.4732 -0.1747  0.5755
  398MOL0     C53657   7.562   4.786   5.145 -1.1648 -0.7500 -0.4667
  398MOL0     C53658   7.528   4.860   5.024 -0.5946 -0.4077  0.4270
  398MOL0     C53659   7.486   4.918   4.927 -0.2242 -0.1328  0.7440
  398MOL0     C53660   6.878   4.742   5.278 -0.1729 -0.3569  0.0968
  398MOL0     C53661   6.749   4.739   5.334  0.9328  0.2163  0.4437
  398MOL0     C53662   6.630   4.729   5.240  0.6946  0.8537 -0.3973
  398MOL0     H53663   6.558   4.993   5.807 -0.8359  0.9387 -0.1053
  398MOL0     H53664   6.367   5.025   5.945 -0.6928  0.0559  0.1543
  398MOL0     H53665   5.986   4.822   6.012 -0.5596 -0.9952 -2.8549
  398MOL0     H53666   6.063   4.709   5.915 -1.3636  0.1133  0.4937
  398MOL0     H53667   6.051   4.709   6.229  0.0790 -0.2175  0.8573
  398MOL0     H53668   6.174   4.627   6.132  0.1461  0.5455 -0.8611
  398MOL0     H53669   5.997   4.498   6.026  1.9746 -0.2076  1.3682
  398MOL0     H53670   5.869   4.582   6.113 -1.3954 -2.3315  1.2686
  398MOL0     H53671   6.080   4.386   6.195  1.1381  3.4755 -1.1390
  398MOL0     H53672   6.011   4.464   6.327  0.1201 -0.5522  0.8034
  398MOL0     H53673   5.777   4.414   6.276 -0.4295 -2.2422  2.4223
  398MOL0     H53674   5.819   4.320   6.126 -1.5147 -2.1135  0.1165
  398MOL0     H53675   5.958   4.168   6.250 -1.3843 -1.4087 -0.8831
  398MOL0     H53676   5.912   4.251   6.401  2.0539  1.3013 -0.1514
  398MOL0     H53677   5.696   4.141   6.208  0.0272  0.8296  1.1599
  398MOL0     H53678   5.678   4.183   6.380 -0.5501  0.0020  0.1568
  398MOL0     H53679   5.678   3.944   6.363 -0.9104  1.0244 -4.0229
  398MOL0     H53680   5.803   3.936   6.247  0.5299 -2.6717  0.3459
  398MOL0     H53681   5.756   4.036   6.609  4.8159  4.6844  1.3323
  398MOL0     H53682   5.917   3.841   6.833 -1.3675  0.9659  0.2836
  398MOL0     H53683   6.072   3.919   6.797 -0.2351 -2.7875  0.7238
  398MOL0     H53684   5.817   4.068   6.848 -1.5618 -3.1821  4.2861
  398MOL0     H53685   5.934   4.024   6.968 -0.3296  3.5208  0.8440
  398MOL0     H53686   6.018   4.215   6.746  2.3662  1.7101  0.7323
  398MOL0     H53687   6.128   4.129   6.854 -0.2488 -1.6522 -0.5354
  398MOL0     H53688   5.891   4.296   6.954  0.3787  0.4912 -2.6716
  398MOL0     H53689   6.053   4.359   6.926 -1.1011  1.8468  1.3691
  398MOL0     H53690   6.191   4.036   7.057 -2.0918  0.8643 -0.4982
  398MOL0     H53691   6.430   4.025   7.095  0.5942  1.2558 -3.2625
  398MOL0     H53692   6.828   4.299   7.114  2.8837 -0.9653  5.5824
  398MOL0     H53693   7.049   4.254   7.012  2.4128  0.2348  2.8369
  398MOL0     H53694   7.264   3.886   7.069  0.8426 -0.4894 -0.4399
  398MOL0     H53695   7.175   3.826   6.933  4.6023 -2.9484 -2.0652
  398MOL0     H53696   7.283   3.949   6.770  0.5444  1.8447  0.1937
  398MOL0     H53697   7.419   4.006   6.868  0.3437  0.7938 -1.6086
  398MOL0     H53698   7.489   3.775   6.920 -2.0046 -0.1582  1.4983
  398MOL0     H53699   7.339   3.705   6.870  1.5218 -0.4652  1.2989
  398MOL0     H53700   7.530   3.860   6.717  0.0120 -0.7057  1.5511
  398MOL0     H53701   7.387   3.801   6.636  1.4086 -2.8099 -1.6004
  398MOL0     H53702   7.431   3.569   6.681  1.0164  0.0975 -1.4305
  398MOL0     H53703   7.597   3.605   6.732 -1.6997 -0.2163  3.1156
  398MOL0     H53704   7.465   3.674   6.456  0.8990  1.6211 -0.1966
  398MOL0     H53705   7.629   3.706   6.512  0.6969 -1.0337 -0.4934
  398MOL0     H53706   7.544   3.426   6.502  0.5667  0.5375  3.4729
  398MOL0     H53707   7.707   3.491   6.513 -0.4656  0.9160  1.2952
  398MOL0     H53708   7.671   3.584   6.271 -0.9570  0.0922  0.5952
  398MOL0     H53709   7.700   3.406   6.300  2.6958  0.4858  4.3505
  398MOL0     H53710   7.025   3.841   7.089 -1.9048 -1.4026  3.3881
  398MOL0     H53711   6.799   3.880   7.186  1.3356 -1.9079 -1.2173
  398MOL0     H53712   6.425   4.435   7.237 -0.7953  0.8202  0.1173
  398MOL0     H53713   6.180   4.434   7.190 -0.1442 -0.4509  1.1688
  398MOL0     H53714   6.253   4.606   5.892 -0.2033  0.3417 -1.5149
  398MOL0     H53715   6.440   4.575   5.749 -2.4359 -0.4140  1.8968
  398MOL0     H53716   6.855   4.745   5.657 -3.9714  4.4721  0.4013
  398MOL0     H53717   7.084   4.750   5.551  0.3005 -1.1232  1.5374
  398MOL0     H53718   7.218   4.608   5.377 -1.9255 -0.4245  0.4858
  398MOL0     H53719   7.255   4.773   5.416 -0.6119  0.4199 -0.2484
  398MOL0     H53720   7.309   4.675   5.127  0.1289  1.9933  0.0254
  398MOL0     H53721   7.410   4.590   5.229 -2.1544 -2.5810  0.0890
  398MOL0     H53722   7.493   4.782   5.349 -2.1018 -0.9151  1.2056
  398MOL0     H53723   7.407   4.892   5.239 -1.2855 -0.5933 -0.0800
  398MOL0     H53724   7.652   4.832   5.186 -2.2600  1.3866 -0.2655
  398MOL0     H53725   7.594   4.682   5.138  0.2672 -0.6682  2.9757
  398MOL0     H53726   7.440   4.970   4.846  1.5326  0.6375  0.2054
  398MOL0     H53727   6.879   4.735   5.170 -2.1199  1.8910 -0.1469
  398MOL0     H53728   6.552   4.656   5.265  0.4965  1.0562 -0.4150
  398MOL0     H53729   6.575   4.823   5.233  2.9388  2.1740 -1.0635
  398MOL0     H53730   6.665   4.699   5.141  3.4856 -3.3688  1.5707
  399MOL0     O53731   5.336  10.031   2.464 -0.8342 -0.3740 -0.1862
  399MOL0     C53732   5.273   9.939   2.414 -0.3012  0.0994  0.2327
  399MOL0     O53733   5.318   9.810   2.401 -0.0774  0.6271  0.4467
  399MOL0     C53734   5.429   9.779   2.474  0.0286 -0.1937  0.5600
  399MOL0     C53735   5.553   9.758   2.412  0.1896  0.0140 -1.0423
  399MOL0     C53736   5.664   9.738   2.495 -0.0615 -0.2006  0.0700
  399MOL0     C53737   5.666   9.732   2.636 -0.0049 -0.1065  0.6416
  399MOL0     O53738   5.778   9.694   2.704 -1.1603 -0.4051  0.2389
  399MOL0     C53739   5.914   9.744   2.671  0.2787  0.0904 -0.3313
  399MOL0     C53740   6.009   9.687   2.776 -0.3370  0.0621 -0.1589
  399MOL0     C53741   6.003   9.756   2.912 -0.4981  0.2770 -0.7677
  399MOL0     C53742   6.145   9.780   2.965  0.2277 -0.3314  0.3804
  399MOL0     C53743   6.148   9.802   3.115  0.1480  0.0295  0.6750
  399MOL0     C53744   6.287   9.851   3.165  0.2611 -1.2093  0.1023
  399MOL0     C53745   6.286   9.908   3.311 -0.0727  0.3926  0.4639
  399MOL0     C53746   6.424   9.938   3.364 -0.6525 -0.3750 -0.0131
  399MOL0     N53747   6.513   9.818   3.391  0.7188  0.7162  0.6507
  399MOL0     C53748   6.528   9.767   3.516  0.1731  0.1939  0.8285
  399MOL0     C53749   6.631   9.682   3.510  0.3014  0.1009 -0.1648
  399MOL0     C53750   6.675   9.594   3.622  1.2363 -0.0160  0.0447
  399MOL0     C53751   6.799   9.636   3.708 -0.0052  0.5144 -0.8484
  399MOL0     C53752   6.910   9.677   3.616  0.7574  0.4673  0.1996
  399MOL0     C53753   6.995   9.553   3.572 -0.0310  0.6600 -0.0942
  399MOL0     O53754   7.100   9.530   3.667  0.0975  0.1915 -0.1691
  399MOL0     C53755   7.170   9.403   3.660 -0.3923 -0.2081 -0.1981
  399MOL0     C53756   7.274   9.380   3.746 -0.4981  0.1411 -0.1199
  399MOL0     C53757   7.339   9.252   3.757  0.0825 -0.3464  0.9590
  399MOL0     C53758   7.292   9.138   3.693  0.2226  0.2519 -1.0778
  399MOL0     C53759   7.348   9.014   3.737 -1.0517 -0.2018  0.5923
  399MOL0     O53760   7.297   8.908   3.669 -0.0072  0.4278 -0.0758
  399MOL0     C53761   7.355   8.786   3.677 -0.2146 -0.6746  0.9690
  399MOL0     C53762   7.299   8.691   3.757 -0.2315  0.0749 -0.0877
  399MOL0     C53763   7.352   8.560   3.759 -0.4394  0.1468  0.1705
  399MOL0     C53764   7.456   8.522   3.670 -0.0509  0.1682  0.8025
  399MOL0     O53765   7.510   8.395   3.671 -0.0721  0.5065  0.0514
  399MOL0     C53766   7.645   8.392   3.722  0.0238  0.3703 -0.2241
  399MOL0     C53767   7.662   8.394   3.865  0.7383 -0.4410 -0.1597
  399MOL0     C53768   7.791   8.341   3.915 -0.6645 -0.4105 -0.3953
  399MOL0     C53769   7.775   8.308   4.056  0.5619 -0.0632  0.2643
  399MOL0     C53770   7.904   8.230   4.095  1.0387  0.3419  0.7966
  399MOL0     C53771   7.950   8.260   4.238 -0.2651 -0.7955 -0.0312
  399MOL0     C53772   8.057   8.170   4.283 -0.6398  0.1248 -0.4443
  399MOL0     C53773   8.162   8.248   4.358 -0.1308  0.7649  0.1174
  399MOL0    Cl53774   8.292   8.132   4.407  0.3286 -0.2685  0.2025
  399MOL0     C53775   7.503   8.617   3.585  1.2019  0.6684  0.2195
  399MOL0     C53776   7.461   8.755   3.588  0.2185  0.5887 -0.6052
  399MOL0     O53777   7.416   8.998   3.840 -0.0971  0.5517 -0.3337
  399MOL0     C53778   7.180   9.160   3.613  0.1194 -0.0440  0.6096
  399MOL0     C53779   7.117   9.286   3.601 -0.9317  0.6593 -0.4141
  399MOL0     N53780   6.678   9.676   3.377 -0.0313  0.7947  0.2339
  399MOL0     N53781   6.593   9.746   3.308  0.1991 -0.2860 -0.4332
  399MOL0     C53782   5.542   9.746   2.690 -0.5793  0.0340 -0.0477
  399MOL0     C53783   5.423   9.770   2.615  0.8150 -0.0930 -0.1381
  399MOL0     C53784   5.136   9.976   2.360 -0.1923 -0.1427  0.7758
  399MOL0     C53785   5.118  10.091   2.266 -0.1313 -0.1334  0.1193
  399MOL0     C53786   4.991  10.128   2.215  0.4042  0.1658  0.4027
  399MOL0     C53787   4.873  10.061   2.269  0.4928  0.5741 -0.3168
  399MOL0     O53788   4.749  10.086   2.231  0.1273 -0.0115 -0.3876
  399MOL0     C53789   4.717  10.222   2.186  0.4323 -0.4660 -0.1862
  399MOL0     C53790   4.570  10.232   2.131 -0.3101  0.0868 -0.1209
  399MOL0     C53791   4.542  10.382   2.078  0.7320 -0.0079  0.7545
  399MOL0     C53792   4.622  10.400   1.948 -1.1560  0.4842  0.1725
  399MOL0     C53793   4.576  10.526   1.889  0.6588 -1.3106  1.1732
  399MOL0     C53794   4.553  10.635   1.837  0.0743  0.4132 -0.7785
  399MOL0     C53795   4.900   9.951   2.352  0.5322  0.2551 -0.7706
  399MOL0     C53796   5.022   9.909   2.400 -0.0434 -0.3817 -0.1803
  399MOL0     C53797   5.024   9.794   2.497  0.5516  0.1978  0.2596
  399MOL0     H53798   5.569   9.762   2.305 -1.1514 -3.5385 -1.4945
  399MOL0     H53799   5.768   9.734   2.464  1.0737  1.6749  3.2026
  399MOL0     H53800   5.941   9.714   2.570 -1.9367 -1.1331 -0.6276
  399MOL0     H53801   5.926   9.850   2.692 -0.8232  0.1421  0.1158
  399MOL0     H53802   6.111   9.686   2.736 -0.1872 -1.1800  0.1880
  399MOL0     H53803   5.991   9.580   2.791  2.0004 -0.3774 -0.0580
  399MOL0     H53804   5.938   9.708   2.985  0.7626  1.0532  0.9483
  399MOL0     H53805   5.951   9.852   2.898  0.7244  0.7889 -2.1326
  399MOL0     H53806   6.212   9.697   2.940  1.6472  0.5907  0.9466
  399MOL0     H53807   6.192   9.865   2.915 -0.6591  0.4673  0.8672
  399MOL0     H53808   6.079   9.881   3.147 -2.0950 -0.8728 -1.5711
  399MOL0     H53809   6.120   9.709   3.164  4.0262 -1.3141  0.6499
  399MOL0     H53810   6.360   9.770   3.165 -0.9311 -2.3085 -0.1144
  399MOL0     H53811   6.321   9.937   3.106  2.2101 -0.7844  1.7501
  399MOL0     H53812   6.231   9.844   3.381 -3.8236 -0.5731 -2.9590
  399MOL0     H53813   6.230  10.002   3.303  0.5840  0.7339 -0.1994
  399MOL0     H53814   6.461  10.013   3.293  0.7349  1.3145  2.3450
  399MOL0     H53815   6.406   9.986   3.461 -0.2498 -1.7599  0.7748
  399MOL0     H53816   6.472   9.793   3.606  0.1080 -2.2075  1.5539
  399MOL0     H53817   6.582   9.575   3.678  1.1604 -1.5247 -0.5687
  399MOL0     H53818   6.684   9.497   3.573  0.3719 -0.4221  0.6608
  399MOL0     H53819   6.787   9.730   3.763  0.5629  0.0303  0.1277
  399MOL0     H53820   6.841   9.553   3.765 -2.5587 -0.0992  0.2820
  399MOL0     H53821   6.970   9.746   3.675  1.6455 -0.0443 -0.0916
  399MOL0     H53822   6.882   9.736   3.529  3.3660  1.3604 -0.1060
  399MOL0     H53823   7.020   9.552   3.466 -1.2257 -0.5699 -0.3855
  399MOL0     H53824   6.926   9.472   3.593  0.1102  0.7026  0.5780
  399MOL0     H53825   7.319   9.462   3.800  1.8987 -2.3886  2.0147
  399MOL0     H53826   7.426   9.243   3.822 -0.3199  1.2792  1.7723
  399MOL0     H53827   7.209   8.717   3.812  0.2227 -0.1204  0.7635
  399MOL0     H53828   7.312   8.488   3.829  0.6093  0.1953  0.8414
  399MOL0     H53829   7.697   8.301   3.689  1.2579  2.0852 -3.5626
  399MOL0     H53830   7.699   8.473   3.672  1.6755 -3.3674 -5.4487
  399MOL0     H53831   7.643   8.500   3.881  0.8252 -0.1323 -1.9166
  399MOL0     H53832   7.573   8.349   3.908 -0.0259 -0.9884 -2.2060
  399MOL0     H53833   7.809   8.244   3.868  0.8093 -0.0734 -0.5943
  399MOL0     H53834   7.875   8.409   3.901  0.8295 -1.9607  0.6005
  399MOL0     H53835   7.688   8.246   4.079  0.2083  0.3694  0.1183
  399MOL0     H53836   7.765   8.392   4.126 -1.7762 -0.3829  0.3871
  399MOL0     H53837   7.983   8.263   4.027 -1.8979 -1.2814 -3.9553
  399MOL0     H53838   7.875   8.126   4.080 -0.1744  0.6615  0.7617
  399MOL0     H53839   7.971   8.366   4.252 -1.6640 -0.7375  2.0679
  399MOL0     H53840   7.858   8.248   4.296 -1.7427  2.6785 -1.4042
  399MOL0     H53841   8.107   8.124   4.198  2.3342 -0.8686  1.6941
  399MOL0     H53842   8.015   8.086   4.339 -3.4184  0.0342 -2.4194
  399MOL0     H53843   8.206   8.322   4.291 -1.8797  1.9209  0.1925
  399MOL0     H53844   8.116   8.290   4.447 -1.5323  0.1283 -0.2794
  399MOL0     H53845   7.588   8.594   3.521  1.0820  0.4446  0.1422
  399MOL0     H53846   7.495   8.837   3.526 -2.8805  4.6307  2.4587
  399MOL0     H53847   7.143   9.075   3.557  0.9262 -0.3341  0.5033
  399MOL0     H53848   7.021   9.290   3.552 -2.3050 -1.4036  1.9169
  399MOL0     H53849   5.536   9.722   2.796  3.7756 -0.8478  0.1950
  399MOL0     H53850   5.320   9.780   2.649  0.7051 -1.4744 -0.0113
  399MOL0     H53851   5.205  10.139   2.222  0.4583 -0.9592  0.3617
  399MOL0     H53852   4.987  10.207   2.140  0.1251 -1.6338 -1.5806
  399MOL0     H53853   4.779  10.270   2.110 -3.0336  1.3835 -2.1111
  399MOL0     H53854   4.703  10.287   2.274  0.3780 -0.0936 -0.4666
  399MOL0     H53855   4.508  10.194   2.212  1.1678 -0.8373  0.6130
  399MOL0     H53856   4.561  10.152   2.057 -0.2506  1.3672 -1.5583
  399MOL0     H53857   4.548  10.459   2.156  0.5732  0.6019  0.1750
  399MOL0     H53858   4.441  10.397   2.041  0.8669 -1.0904 -0.0779
  399MOL0     H53859   4.730  10.412   1.959 -0.1421 -1.2509 -4.8153
  399MOL0     H53860   4.599  10.317   1.880 -1.4028 -0.0014  0.8494
  399MOL0     H53861   4.533  10.724   1.781  0.9153 -0.0369 -1.8190
  399MOL0     H53862   4.817   9.891   2.389  2.7803 -1.4557  1.9105
  399MOL0     H53863   5.110   9.798   2.564  0.0527 -2.4657  1.1754
  399MOL0     H53864   4.930   9.797   2.553 -0.8643  1.1399 -2.0048
  399MOL0     H53865   5.037   9.699   2.443  0.3427 -0.1196  0.7590
  400MOL0     O53866   4.351   1.658   8.304 -0.2179 -0.1836  0.0899
  400MOL0     C53867   4.269   1.591   8.363  0.6105  0.1700 -0.0805
  400MOL0     O53868   4.151   1.637   8.413  0.2605 -0.5541 -0.3459
  400MOL0     C53869   4.083   1.757   8.389  0.4304  0.3360 -1.6790
  400MOL0     C53870   4.152   1.875   8.396  0.7438  0.0532 -0.6415
  400MOL0     C53871   4.086   1.995   8.366 -0.1111 -0.4457 -0.2783
  400MOL0     C53872   3.951   1.989   8.331  0.3154 -0.0351 -0.1668
  400MOL0     O53873   3.881   2.098   8.288 -0.1428  0.4694  0.0892
  400MOL0     C53874   3.906   2.227   8.343 -0.2618 -0.3327 -0.4744
  400MOL0     C53875   3.814   2.348   8.326 -0.5412  0.8075 -0.4590
  400MOL0     C53876   3.897   2.479   8.343 -0.5332  0.3712  0.2144
  400MOL0     C53877   3.846   2.597   8.260  0.0728 -0.0915 -0.5999
  400MOL0     C53878   3.967   2.694   8.265  0.0061  0.3151 -0.2454
  400MOL0     C53879   3.962   2.817   8.173 -0.6086 -0.4199 -1.0903
  400MOL0     C53880   4.068   2.920   8.199  0.6583  0.0533 -1.1916
  400MOL0     C53881   4.076   3.024   8.081 -0.1158  0.2555 -1.0584
  400MOL0     N53882   3.952   3.115   8.088 -0.3151 -0.0327  0.1960
  400MOL0     C53883   3.963   3.240   8.138  0.4778  0.2059  0.3298
  400MOL0     C53884   3.838   3.286   8.142 -0.2785 -0.1011  0.1814
  400MOL0     C53885   3.796   3.431   8.173 -0.2108  1.4133  0.2432
  400MOL0     C53886   3.652   3.471   8.159  1.0644 -0.6163 -0.2415
  400MOL0     C53887   3.613   3.515   8.020 -0.4410  0.3397 -0.2443
  400MOL0     C53888   3.481   3.589   8.019 -0.6014  0.7431 -0.3903
  400MOL0     O53889   3.449   3.630   7.880  0.3327  0.6351 -0.5513
  400MOL0     C53890   3.341   3.712   7.853  0.5898 -0.0930  0.4086
  400MOL0     C53891   3.340   3.730   7.716  0.3921  0.5837 -0.0429
  400MOL0     C53892   3.235   3.797   7.652 -0.5961 -0.0723  0.0045
  400MOL0     C53893   3.131   3.846   7.725  0.0735  0.1346  0.1346
  400MOL0     C53894   3.032   3.935   7.660  0.3254  0.1670  0.6874
  400MOL0     O53895   2.944   3.999   7.743  0.1177  0.7426  0.3895
  400MOL0     C53896   2.862   4.086   7.682  0.5798 -0.9402  0.2899
  400MOL0     C53897   2.727   4.061   7.649 -0.3214 -0.2783  0.6907
  400MOL0     C53898   2.645   4.166   7.618  0.3851 -0.1808  0.0780
  400MOL0     C53899   2.695   4.303   7.608 -0.1478  0.1752  0.5290
  400MOL0     O53900   2.596   4.398   7.577 -0.5298 -0.8139 -0.2118
  400MOL0     C53901   2.645   4.526   7.523  0.6830  0.4213 -0.2532
  400MOL0     C53902   2.533   4.581   7.431 -0.4492  1.1509  0.1823
  400MOL0     C53903   2.401   4.602   7.493  0.1352  0.4135  0.7517
  400MOL0     C53904   2.289   4.609   7.383  0.3783 -0.2265 -0.7861
  400MOL0     C53905   2.143   4.632   7.411 -0.0682 -0.9997 -0.5993
  400MOL0     C53906   2.121   4.739   7.519  0.3344  0.1235  0.3451
  400MOL0     C53907   2.172   4.878   7.471  0.2046  0.4391 -0.4628
  400MOL0     C53908   2.147   5.001   7.567 -0.5252  0.0311  0.6523
  400MOL0    Cl53909   1.973   5.024   7.581 -0.4333 -0.0320 -0.3695
  400MOL0     C53910   2.834   4.320   7.618 -1.0080 -0.8138  0.7829
  400MOL0     C53911   2.919   4.209   7.638 -0.0002 -0.3371 -0.8507
  400MOL0     O53912   3.027   3.936   7.536  0.0715 -0.6495  0.2607
  400MOL0     C53913   3.123   3.815   7.864  1.0410 -0.2692  0.3885
  400MOL0     C53914   3.234   3.750   7.935  0.1826  0.2190  0.0135
  400MOL0     N53915   3.760   3.188   8.080  0.3003  0.0589 -0.1069
  400MOL0     N53916   3.826   3.084   8.060 -0.6813 -0.2101 -0.2223
  400MOL0     C53917   3.881   1.873   8.327 -0.2539 -0.7095 -0.3866
  400MOL0     C53918   3.945   1.756   8.355 -0.4166 -0.5926  0.0082
  400MOL0     C53919   4.297   1.448   8.394 -0.1387  0.0295 -1.4643
  400MOL0     C53920   4.210   1.346   8.349 -0.6384 -0.9814  0.2767
  400MOL0     C53921   4.220   1.212   8.394 -0.5866  0.5736 -0.2736
  400MOL0     C53922   4.305   1.174   8.491  1.0065 -0.5344  1.1749
  400MOL0     O53923   4.289   1.055   8.552  0.8827  0.1642  0.3598
  400MOL0     C53924   4.396   0.995   8.624 -0.5141  0.3739 -0.4859
  400MOL0     C53925   4.353   0.991   8.771  0.6537  0.3657 -0.2222
  400MOL0     C53926   4.237   0.888   8.803 -0.3513  0.1226 -0.3322
  400MOL0     C53927   4.253   0.753   8.727 -0.4007 -0.3407 -0.5223
  400MOL0     C53928   4.151   0.660   8.789 -0.3319  0.1697  1.5856
  400MOL0     C53929   4.053   0.604   8.841  0.2244  0.7159  0.4890
  400MOL0     C53930   4.402   1.273   8.533 -0.1780 -0.3749 -0.0396
  400MOL0     C53931   4.394   1.412   8.484  0.5544  0.4292  0.1137
  400MOL0     C53932   4.487   1.510   8.539  0.0583 -1.0536  0.6985
  400MOL0     H53933   4.257   1.882   8.425  0.0901 -0.3458  2.1410
  400MOL0     H53934   4.161   2.072   8.380  0.1910 -0.9152  0.8537
  400MOL0     H53935   3.906   2.209   8.451 -0.1289 -1.4228 -0.6468
  400MOL0     H53936   3.997   2.265   8.297  0.6333  0.8925  2.1038
  400MOL0     H53937   3.729   2.346   8.394 -0.0136 -0.5967  0.2048
  400MOL0     H53938   3.774   2.344   8.224 -0.7189  0.1768 -0.3649
  400MOL0     H53939   3.992   2.453   8.296 -0.6873  0.1701  0.0131
  400MOL0     H53940   3.919   2.519   8.442 -0.3041  0.9341 -0.0611
  400MOL0     H53941   3.821   2.572   8.156 -0.2269 -0.2171 -0.5012
  400MOL0     H53942   3.752   2.630   8.305  0.4713  1.5467 -0.9137
  400MOL0     H53943   3.993   2.714   8.369  1.5915 -1.4328 -0.2419
  400MOL0     H53944   4.052   2.632   8.235  0.4015 -0.0440  1.5305
  400MOL0     H53945   3.967   2.782   8.070 -0.9156 -1.5455 -0.7314
  400MOL0     H53946   3.867   2.867   8.193  1.0784  2.6898 -0.0922
  400MOL0     H53947   4.161   2.863   8.210  0.5230 -0.2397 -1.5597
  400MOL0     H53948   4.045   2.968   8.295  0.9495  0.8837 -1.5217
  400MOL0     H53949   4.170   3.079   8.094 -0.4480  0.7952 -0.9210
  400MOL0     H53950   4.070   2.970   7.986  1.5807 -1.6472 -0.1578
  400MOL0     H53951   4.050   3.292   8.175  0.5963  0.5182 -0.3952
  400MOL0     H53952   3.824   3.449   8.277 -0.8836 -3.1181  1.3857
  400MOL0     H53953   3.847   3.502   8.107  1.2927 -0.6931 -0.9742
  400MOL0     H53954   3.577   3.395   8.184  0.7455 -0.5666 -1.0112
  400MOL0     H53955   3.630   3.550   8.232  0.8077  1.4582 -2.4432
  400MOL0     H53956   3.605   3.425   7.959  1.7242 -0.9365  1.2121
  400MOL0     H53957   3.676   3.594   7.976 -2.1276  0.3294 -2.8611
  400MOL0     H53958   3.495   3.687   8.066 -0.2689  0.5086  0.0116
  400MOL0     H53959   3.395   3.543   8.069  0.9344 -1.6294  0.2267
  400MOL0     H53960   3.429   3.702   7.661  0.1062 -0.3598 -0.0409
  400MOL0     H53961   3.239   3.815   7.545  4.0018 -3.7437 -0.7560
  400MOL0     H53962   2.687   3.964   7.677  1.6939 -1.1263  0.8276
  400MOL0     H53963   2.540   4.153   7.595  1.2870 -3.9463 -2.9910
  400MOL0     H53964   2.663   4.589   7.610  2.1480  0.5522 -0.6110
  400MOL0     H53965   2.738   4.503   7.468  0.3492 -0.3573 -0.5064
  400MOL0     H53966   2.568   4.675   7.387  0.8659  0.0939 -1.1625
  400MOL0     H53967   2.523   4.505   7.352  0.0268  0.1175  1.0824
  400MOL0     H53968   2.375   4.510   7.546  1.0432  0.2674  0.9539
  400MOL0     H53969   2.392   4.695   7.550  1.5439  2.9168 -2.7585
  400MOL0     H53970   2.295   4.526   7.312 -0.1196  0.7189 -1.9667
  400MOL0     H53971   2.326   4.693   7.323  2.3142 -1.8705 -2.0273
  400MOL0     H53972   2.101   4.533   7.436  0.3737 -0.9122  0.5504
  400MOL0     H53973   2.090   4.660   7.320  0.2923  1.5279 -0.1051
  400MOL0     H53974   2.015   4.759   7.533  0.5387  1.0400  0.6999
  400MOL0     H53975   2.169   4.704   7.611  2.9207 -0.2177 -1.0264
  400MOL0     H53976   2.114   4.901   7.381  3.0876  0.4688 -2.4460
  400MOL0     H53977   2.275   4.871   7.434  1.0972 -1.9882  2.1722
  400MOL0     H53978   2.197   4.997   7.664  3.3300  1.5447 -1.0537
  400MOL0     H53979   2.198   5.087   7.524  1.8919 -1.0900  1.0710
  400MOL0     H53980   2.875   4.417   7.593 -0.2924 -1.5017 -0.9133
  400MOL0     H53981   3.026   4.221   7.647 -0.3272  1.3142  2.0609
  400MOL0     H53982   3.026   3.833   7.910 -0.2817 -1.4221 -1.7761
  400MOL0     H53983   3.236   3.728   8.041  1.0327  4.0608  0.9524
  400MOL0     H53984   3.776   1.878   8.301 -0.1622  2.1197 -0.5184
  400MOL0     H53985   3.885   1.666   8.357  0.7872 -1.5021 -1.9090
  400MOL0     H53986   4.130   1.379   8.283  0.3969  0.7090 -0.1996
  400MOL0     H53987   4.150   1.139   8.355 -2.8666  1.3931  2.0374
  400MOL0     H53988   4.489   1.053   8.626 -0.1259 -0.0189 -3.0140
  400MOL0     H53989   4.416   0.891   8.594  1.0834  0.3135  0.6815
  400MOL0     H53990   4.349   1.093   8.809  1.9534  1.8525 -3.6347
  400MOL0     H53991   4.439   0.946   8.822  1.3650  2.2973  0.3759
  400MOL0     H53992   4.145   0.931   8.761 -0.4504 -0.9912 -1.3193
  400MOL0     H53993   4.214   0.878   8.910  2.2732 -1.5958  0.1507
  400MOL0     H53994   4.240   0.765   8.619  2.0081  4.6206 -0.5343
  400MOL0     H53995   4.352   0.708   8.734  0.2729  1.0199 -1.0682
  400MOL0     H53996   3.966   0.571   8.894  0.2274  1.3562  0.8923
  400MOL0     H53997   4.482   1.250   8.602 -2.0672  1.3198  2.9314
  400MOL0     H53998   4.460   1.611   8.507  2.1999 -0.6592 -0.0741
  400MOL0     H53999   4.490   1.513   8.648  2.1554  0.1325  0.6645
  400MOL0     H54000   4.593   1.509   8.513  0.1280  0.7369  0.8091
  401MOL0     O54001   2.042  10.600   4.453  0.0685 -0.7425  0.3596
  401MOL0     C54002   2.130  10.559   4.536  1.3230 -0.3414  0.3816
  401MOL0     O54003   2.170  10.628   4.641 -0.2830 -0.1253 -0.2112
  401MOL0     C54004   2.095  10.733   4.690  0.2578 -0.5949  0.3195
  401MOL0     C54005   2.021  10.704   4.806  0.3835  0.0245 -0.2721
  401MOL0     C54006   1.945  10.802   4.870  0.9531 -0.2408 -0.3023
  401MOL0     C54007   1.942  10.932   4.807  0.3294 -0.2508  0.2540
  401MOL0     O54008   1.858  11.022   4.876  0.1929  0.1465 -0.2561
  401MOL0     C54009   1.843  11.160   4.839 -0.9179 -0.3762 -0.0309
  401MOL0     C54010   1.730  11.217   4.915 -0.7675 -0.0746  0.5075
  401MOL0     C54011   1.692  11.357   4.862  0.1685 -1.2620  0.4152
  401MOL0     C54012   1.807  11.459   4.867  0.4709  0.4172 -0.3567
  401MOL0     C54013   1.761  11.597   4.824  0.2049 -0.9204 -0.4131
  401MOL0     C54014   1.871  11.695   4.791 -0.3162 -0.3306  0.1864
  401MOL0     C54015   1.824  11.835   4.745 -0.3157 -0.1861 -0.2308
  401MOL0     C54016   1.779  11.932   4.850  0.4242  0.1083 -1.1685
  401MOL0     N54017   1.886  11.963   4.946 -0.5577  0.4830 -0.2254
  401MOL0     C54018   1.989  12.054   4.929  0.2734  0.2512  0.7418
  401MOL0     C54019   2.031  12.074   5.059 -0.6859  0.0760 -1.0340
  401MOL0     C54020   2.130  12.167   5.109 -0.0846 -0.1634 -0.0218
  401MOL0     C54021   2.056  12.309   5.120 -0.3169 -0.0941 -0.4173
  401MOL0     C54022   1.929  12.320   5.212 -0.5332  0.5158  0.1284
  401MOL0     C54023   1.886  12.467   5.225 -0.2625 -0.8184 -0.7796
  401MOL0     O54024   1.914  12.544   5.112 -0.0795  0.4880  0.7263
  401MOL0     C54025   1.884  12.680   5.120  0.6164  0.3619  0.3356
  401MOL0     C54026   1.943  12.757   5.011  0.7315  0.4292 -0.5330
  401MOL0     C54027   1.926  12.891   4.992  0.2000  0.8481  0.6727
  401MOL0     C54028   1.838  12.961   5.076 -0.4840 -1.3202 -0.0353
  401MOL0     C54029   1.824  13.108   5.072  0.7823 -0.6134 -0.0262
  401MOL0     O54030   1.878  13.164   4.960 -0.7287 -0.7991 -0.9816
  401MOL0     C54031   1.906  13.298   4.963 -0.1200 -0.8194 -0.5873
  401MOL0     C54032   1.808  13.392   4.935 -1.8827  0.3495 -0.3042
  401MOL0     C54033   1.836  13.528   4.933  0.0220 -0.4490  0.2705
  401MOL0     C54034   1.968  13.575   4.970  0.3369  0.9632  0.3879
  401MOL0     O54035   1.991  13.705   4.939 -0.5428 -0.2852 -0.0445
  401MOL0     C54036   2.128  13.758   4.932  0.0044 -0.7653 -0.0208
  401MOL0     C54037   2.125  13.907   4.880 -0.1818  0.1221 -0.2280
  401MOL0     C54038   2.050  14.005   4.968  0.8968 -0.2155  0.5013
  401MOL0     C54039   2.092  14.143   4.926 -0.3182 -0.0705 -0.2845
  401MOL0     C54040   1.996  14.249   4.959 -0.6667 -0.2219  0.4901
  401MOL0     C54041   1.974  14.267   5.110  0.9987 -0.0084  1.4146
  401MOL0     C54042   2.094  14.319   5.187  0.6205  0.2844  0.3959
  401MOL0     C54043   2.048  14.361   5.320  1.7032 -0.3934 -0.3193
  401MOL0    Cl54044   2.195  14.411   5.405 -0.3663 -0.4619  0.4307
  401MOL0     C54045   2.068  13.479   5.004 -0.5122 -1.0424  0.2218
  401MOL0     C54046   2.033  13.344   5.001  0.0369  0.3052 -0.2777
  401MOL0     O54047   1.732  13.161   5.138 -0.4675  0.0980 -0.0678
  401MOL0     C54048   1.785  12.893   5.186 -0.3525 -0.1095 -0.5110
  401MOL0     C54049   1.813  12.757   5.210  1.5660 -0.5095  0.0888
  401MOL0     N54050   1.977  11.981   5.140 -0.1147  0.5260  0.3176
  401MOL0     N54051   1.885  11.919   5.073  0.2716  0.2933 -0.0848
  401MOL0     C54052   2.009  10.965   4.690 -0.5052  0.6372 -0.3962
  401MOL0     C54053   2.090  10.859   4.629 -0.1387 -0.1933 -1.0784
  401MOL0     C54054   2.191  10.422   4.507  0.8479 -1.0168 -0.5507
  401MOL0     C54055   2.144  10.356   4.399 -0.0228  0.0668  0.0653
  401MOL0     C54056   2.197  10.229   4.366  0.4479 -0.0611  0.5491
  401MOL0     C54057   2.303  10.171   4.442 -0.3044  0.3877  0.0005
  401MOL0     O54058   2.364  10.050   4.400  0.0163  0.6628  0.0897
  401MOL0     C54059   2.283   9.937   4.441  1.2597 -0.2188 -0.2418
  401MOL0     C54060   2.388   9.830   4.478  0.6874 -0.2864 -0.3660
  401MOL0     C54061   2.452   9.776   4.354  0.2612  0.1152 -0.1487
  401MOL0     C54062   2.571   9.859   4.306 -0.2551  0.7081 -0.3006
  401MOL0     C54063   2.661   9.782   4.219 -0.3870 -1.0206 -0.2448
  401MOL0     C54064   2.735   9.727   4.141 -0.7534 -0.1107  0.9602
  401MOL0     C54065   2.343  10.230   4.561 -0.7691 -0.3553 -0.3532
  401MOL0     C54066   2.281  10.352   4.599  0.7551 -0.9285 -0.7231
  401MOL0     C54067   2.336  10.402   4.730 -0.0823  0.5778  0.6453
  401MOL0     H54068   2.017  10.603   4.845  1.9812  1.2596  3.5478
  401MOL0     H54069   1.875  10.793   4.953  0.0632 -3.1300 -1.2798
  401MOL0     H54070   1.937  11.205   4.870 -1.4622 -1.1997  3.1540
  401MOL0     H54071   1.813  11.161   4.733 -1.8729  2.4181  0.1809
  401MOL0     H54072   1.749  11.224   5.022 -4.0364  1.7704  1.0883
  401MOL0     H54073   1.642  11.153   4.902 -0.9323  0.2484  0.0113
  401MOL0     H54074   1.606  11.392   4.920  1.0641 -0.5391  1.3269
  401MOL0     H54075   1.657  11.352   4.759  0.3326  3.6962 -0.0859
  401MOL0     H54076   1.833  11.481   4.970 -1.6430  0.8094  0.1310
  401MOL0     H54077   1.894  11.423   4.810  0.3381  0.2965 -0.4827
  401MOL0     H54078   1.697  11.589   4.736  1.8336  1.5663 -1.9657
  401MOL0     H54079   1.703  11.637   4.907  1.7243 -0.0234  0.2599
  401MOL0     H54080   1.932  11.707   4.881  1.4875  0.6306 -1.1093
  401MOL0     H54081   1.934  11.646   4.717 -2.0310 -0.8324 -0.9901
  401MOL0     H54082   1.730  11.823   4.689 -0.3620  0.2024 -0.2366
  401MOL0     H54083   1.904  11.873   4.680 -2.0000 -0.4252 -2.5698
  401MOL0     H54084   1.739  12.025   4.809  0.9439  0.6404 -0.4858
  401MOL0     H54085   1.696  11.883   4.902  1.6004 -0.3982  0.3073
  401MOL0     H54086   2.015  12.123   4.849 -0.5114  0.9475  1.0671
  401MOL0     H54087   2.159  12.146   5.213  0.1618  0.6001  0.0753
  401MOL0     H54088   2.227  12.168   5.058  0.8748 -0.4671  1.6854
  401MOL0     H54089   2.130  12.369   5.174 -1.1504 -1.8022  2.8986
  401MOL0     H54090   2.031  12.364   5.029 -0.9764 -0.9035 -0.7329
  401MOL0     H54091   1.941  12.282   5.313 -2.4155 -0.3418  0.0704
  401MOL0     H54092   1.857  12.257   5.159  0.8080 -1.3489  0.4482
  401MOL0     H54093   1.946  12.514   5.304  3.5701  4.3505 -5.8699
  401MOL0     H54094   1.779  12.467   5.249 -0.4925 -1.3275 -1.7894
  401MOL0     H54095   2.004  12.699   4.942  0.7361 -1.4592  0.9527
  401MOL0     H54096   1.990  12.947   4.924  0.9559 -0.8351 -0.0536
  401MOL0     H54097   1.719  13.349   4.891 -0.9979  0.7982 -2.6674
  401MOL0     H54098   1.767  13.608   4.906  0.9323 -0.0707 -1.0297
  401MOL0     H54099   2.165  13.759   5.035 -1.4916  1.0508  0.5542
  401MOL0     H54100   2.208  13.710   4.875  1.5253  3.1359 -1.5572
  401MOL0     H54101   2.227  13.942   4.862 -0.2379  0.1012 -0.6115
  401MOL0     H54102   2.082  13.912   4.779  1.5226  0.3586 -0.9846
  401MOL0     H54103   1.943  13.983   4.953 -0.0496  2.6310  2.2622
  401MOL0     H54104   2.064  13.984   5.074 -0.5017 -0.9183  0.5701
  401MOL0     H54105   2.090  14.138   4.817 -0.8862 -3.4536 -0.2403
  401MOL0     H54106   2.192  14.159   4.967 -0.8788  1.8030  0.4176
  401MOL0     H54107   1.901  14.227   4.910 -0.6575 -1.9409  1.1679
  401MOL0     H54108   2.030  14.347   4.923 -3.5757  0.8646  0.4479
  401MOL0     H54109   1.890  14.334   5.126  0.4453 -0.5040  0.6294
  401MOL0     H54110   1.932  14.178   5.159 -0.2564 -0.3280 -0.1617
  401MOL0     H54111   2.148  14.400   5.139 -0.9319  1.4783  0.5833
  401MOL0     H54112   2.165  14.237   5.200 -1.6054 -1.9720 -0.8175
  401MOL0     H54113   1.981  14.447   5.310  0.5594 -1.2838 -0.4872
  401MOL0     H54114   1.993  14.282   5.372  2.0089 -1.0961 -1.0498
  401MOL0     H54115   2.168  13.510   5.033 -0.5844 -0.4375 -0.1581
  401MOL0     H54116   2.110  13.271   5.026  1.3869  2.1109  1.1882
  401MOL0     H54117   1.738  12.952   5.264 -1.8688 -0.2836 -1.2624
  401MOL0     H54118   1.785  12.710   5.304  1.1834 -2.2650 -0.8705
  401MOL0     H54119   2.007  11.061   4.639 -0.5312 -0.3239 -2.2722
  401MOL0     H54120   2.161  10.867   4.548  4.3804 -3.9951  1.9669
  401MOL0     H54121   2.081  10.404   4.325  3.7064  2.0987 -2.1034
  401MOL0     H54122   2.165  10.173   4.279  1.0968 -2.1894  1.6035
  401MOL0     H54123   2.218   9.908   4.359 -0.9667  1.8361  0.6642
  401MOL0     H54124   2.215   9.969   4.521  2.7538 -1.6953  1.7007
  401MOL0     H54125   2.331   9.761   4.541 -0.8608 -0.2793 -1.6979
  401MOL0     H54126   2.464   9.879   4.540  0.2952 -0.4044  0.2138
  401MOL0     H54127   2.380   9.766   4.272 -0.1564  0.1206  0.2114
  401MOL0     H54128   2.493   9.675   4.365  0.0793 -0.4329 -3.4816
  401MOL0     H54129   2.544   9.944   4.243  0.6985 -0.4137 -2.3163
  401MOL0     H54130   2.630   9.891   4.392 -0.8006 -0.6618  0.6269
  401MOL0     H54131   2.798   9.660   4.086  0.7721  3.1880 -1.7396
  401MOL0     H54132   2.417  10.174   4.617  1.9954  0.1784 -3.2363
  401MOL0     H54133   2.426  10.349   4.761 -0.3423 -1.0346 -1.1332
  401MOL0     H54134   2.348  10.509   4.713 -0.9374  0.3011 -2.2536
  401MOL0     H54135   2.270  10.384   4.815  0.4206  1.5668  1.2586
  402MOL0     O54136   9.063   9.621   7.472  0.4944  0.6388 -0.0803
  402MOL0     C54137   9.133   9.537   7.411 -0.3281 -1.3459  0.1630
  402MOL0     O54138   9.126   9.399   7.403  0.5754 -0.0032 -0.7368
  402MOL0     C54139   9.004   9.340   7.448 -0.5791  0.4970  0.0589
  402MOL0     C54140   8.953   9.341   7.582 -0.2839 -0.9892  0.7907
  402MOL0     C54141   8.825   9.293   7.612 -0.0481  0.6243  1.0249
  402MOL0     C54142   8.756   9.229   7.508 -0.5237 -1.2476  0.7456
  402MOL0     O54143   8.631   9.176   7.546 -0.3272 -0.2461  0.8033
  402MOL0     C54144   8.528   9.166   7.449  0.0146 -0.4976  0.3595
  402MOL0     C54145   8.396   9.170   7.533 -0.1236  0.2468 -0.1175
  402MOL0     C54146   8.380   9.048   7.624  0.5938 -0.1344 -0.2926
  402MOL0     C54147   8.249   9.058   7.703  0.0879 -0.3052 -0.5342
  402MOL0     C54148   8.231   8.952   7.807  0.1263  0.3925 -0.3810
  402MOL0     C54149   8.189   8.817   7.761 -0.6227 -0.3088 -0.3155
  402MOL0     C54150   8.206   8.719   7.875 -1.1103  0.2447  0.8249
  402MOL0     C54151   8.170   8.571   7.844 -0.1827  1.1708  0.0458
  402MOL0     N54152   8.190   8.484   7.964 -0.0191  0.2090  0.0416
  402MOL0     C54153   8.125   8.364   7.989 -0.9463 -0.4060  0.7737
  402MOL0     C54154   8.217   8.302   8.068  0.2422 -0.0097 -0.1263
  402MOL0     C54155   8.195   8.158   8.100  0.1927 -0.5039  0.0763
  402MOL0     C54156   8.269   8.133   8.233 -0.6514 -0.1815  0.4714
  402MOL0     C54157   8.238   8.002   8.287  0.0093 -0.1310 -0.8553
  402MOL0     C54158   8.319   7.977   8.417  0.5015 -0.7102  1.0834
  402MOL0     O54159   8.311   8.090   8.505 -0.2761 -0.3628  0.5707
  402MOL0     C54160   8.409   8.134   8.593  0.0337  0.1913  0.0852
  402MOL0     C54161   8.390   8.260   8.645  0.0537  1.9735  0.6914
  402MOL0     C54162   8.471   8.313   8.744 -0.7650  0.2000 -0.2721
  402MOL0     C54163   8.577   8.237   8.798 -0.9510  0.6711 -0.2024
  402MOL0     C54164   8.665   8.292   8.901  0.6779  0.7902 -0.5108
  402MOL0     O54165   8.795   8.255   8.910 -0.2633  0.0853  0.3440
  402MOL0     C54166   8.898   8.311   8.977  0.9007  0.3040 -0.6305
  402MOL0     C54167   9.004   8.220   8.996  0.7398 -0.0015 -0.1162
  402MOL0     C54168   9.105   8.258   9.083 -0.2215  1.0232  0.1975
  402MOL0     C54169   9.135   8.387   9.113  0.8340 -0.2973 -0.7894
  402MOL0     O54170   9.238   8.435   9.187  0.6063  0.4847 -0.6585
  402MOL0     C54171   9.296   8.340   9.276  0.1130 -0.3595  0.2428
  402MOL0     C54172   9.363   8.413   9.394 -0.8952 -0.1999 -0.2059
  402MOL0     C54173   9.465   8.514   9.329  0.1671  0.0109 -1.0049
  402MOL0     C54174   9.594   8.529   9.411 -1.3225  1.8679 -0.2726
  402MOL0     C54175   9.670   8.659   9.373 -0.5566  0.3416  0.0152
  402MOL0     C54176   9.808   8.665   9.426  0.4008 -0.4849 -0.4994
  402MOL0     C54177   9.878   8.794   9.403 -1.3658 -0.4708  0.7161
  402MOL0     C54178  10.035   8.798   9.445  0.3778  1.3618 -0.5120
  402MOL0    Cl54179  10.101   8.956   9.402  0.0558 -0.5004 -0.3792
  402MOL0     C54180   9.029   8.476   9.088  0.0474  0.3782  0.0481
  402MOL0     C54181   8.908   8.442   9.030  0.4475  0.1316 -0.3710
  402MOL0     O54182   8.618   8.385   8.970  0.0996  0.1722 -0.0971
  402MOL0     C54183   8.589   8.098   8.755  0.0670  0.6272 -0.7859
  402MOL0     C54184   8.505   8.050   8.660  0.2189 -0.0375  0.7385
  402MOL0     N54185   8.312   8.392   8.113 -0.5289 -0.0322 -0.4330
  402MOL0     N54186   8.296   8.497   8.046  0.5668 -0.5100  0.1194
  402MOL0     C54187   8.797   9.224   7.376 -0.3667  0.3154 -0.3713
  402MOL0     C54188   8.923   9.286   7.346  0.1913  0.3362 -0.5025
  402MOL0     C54189   9.258   9.594   7.370 -0.2506 -0.1109 -0.1087
  402MOL0     C54190   9.339   9.667   7.467  0.4553 -0.0258 -0.0698
  402MOL0     C54191   9.476   9.704   7.438  0.2944 -0.2357 -0.2662
  402MOL0     C54192   9.532   9.670   7.316  0.0229  0.6174 -0.2866
  402MOL0     O54193   9.663   9.698   7.279  0.1226  0.0708  0.5041
  402MOL0     C54194   9.723   9.824   7.326  0.0506 -0.0463 -0.2313
  402MOL0     C54195   9.877   9.798   7.344  0.1287  0.1319 -1.1482
  402MOL0     C54196   9.961   9.909   7.415 -0.2197 -0.7960  0.1867
  402MOL0     C54197  10.101   9.861   7.455 -0.7690 -0.4240 -0.1068
  402MOL0     C54198  10.094   9.814   7.593  0.5425 -0.2209 -0.1852
  402MOL0     C54199  10.083   9.772   7.706 -0.3578 -0.2073  0.1084
  402MOL0     C54200   9.446   9.620   7.218 -0.0907 -0.6663 -0.8566
  402MOL0     C54201   9.312   9.584   7.238 -0.1890  0.3702 -0.3792
  402MOL0     C54202   9.219   9.517   7.130 -0.5698 -1.3604  0.8533
  402MOL0     H54203   9.002   9.392   7.665  3.8399 -2.1975 -0.6437
  402MOL0     H54204   8.776   9.287   7.709  2.0843 -1.8116  2.0512
  402MOL0     H54205   8.534   9.256   7.388 -0.3878  0.1899  1.3120
  402MOL0     H54206   8.542   9.069   7.400 -0.5253 -1.2328  1.6024
  402MOL0     H54207   8.312   9.173   7.462 -1.7230  2.2164  1.7396
  402MOL0     H54208   8.381   9.265   7.584 -0.5900 -0.1681  0.5314
  402MOL0     H54209   8.465   9.030   7.691 -0.9967  0.7122  2.0762
  402MOL0     H54210   8.380   8.954   7.568  1.2415 -1.3289  1.6300
  402MOL0     H54211   8.249   9.154   7.755  1.8189  0.1897 -1.3799
  402MOL0     H54212   8.157   9.054   7.645 -2.5665 -4.6137  3.2011
  402MOL0     H54213   8.326   8.936   7.859  1.5458 -2.3924 -3.5023
  402MOL0     H54214   8.156   8.994   7.876 -1.1251 -1.0600 -0.7989
  402MOL0     H54215   8.085   8.819   7.730 -1.2710 -0.2634  1.7308
  402MOL0     H54216   8.251   8.789   7.675  0.6797  0.1730  0.4325
  402MOL0     H54217   8.122   8.750   7.938  0.0965  1.0730  2.0969
  402MOL0     H54218   8.296   8.724   7.937  0.3306 -1.1358 -1.0333
  402MOL0     H54219   8.066   8.566   7.812 -1.1043 -0.3384  2.8959
  402MOL0     H54220   8.230   8.527   7.764 -1.4121 -1.2226  0.3498
  402MOL0     H54221   8.044   8.318   7.933  1.6008 -2.0651 -1.7999
  402MOL0     H54222   8.091   8.127   8.105 -0.0540  0.0556 -1.3694
  402MOL0     H54223   8.229   8.099   8.014 -2.9459  2.5114 -3.5620
  402MOL0     H54224   8.375   8.131   8.206 -0.7807 -1.7634  0.0164
  402MOL0     H54225   8.239   8.210   8.305 -0.8709  0.8270 -0.6765
  402MOL0     H54226   8.264   7.921   8.218  1.9479 -1.5114  1.3508
  402MOL0     H54227   8.129   7.997   8.296  0.1986 -1.3072  1.5176
  402MOL0     H54228   8.422   7.962   8.383  0.8228  0.2312  1.5945
  402MOL0     H54229   8.270   7.888   8.457 -4.4802  0.8169 -0.7936
  402MOL0     H54230   8.330   8.327   8.586 -0.7588  0.0266 -0.8181
  402MOL0     H54231   8.450   8.416   8.771 -1.7997 -0.4693  1.6638
  402MOL0     H54232   8.983   8.117   8.969 -0.5921  0.5021 -1.1171
  402MOL0     H54233   9.178   8.181   9.104 -0.0010  0.8081 -1.2619
  402MOL0     H54234   9.225   8.267   9.315  0.2425 -0.0377  1.1285
  402MOL0     H54235   9.377   8.290   9.222  0.1309 -1.7043  1.4521
  402MOL0     H54236   9.295   8.477   9.450  0.9027  2.9404 -1.3531
  402MOL0     H54237   9.406   8.346   9.469  1.4660 -1.2343 -2.3044
  402MOL0     H54238   9.493   8.498   9.224  1.1968  0.4116 -0.8063
  402MOL0     H54239   9.411   8.609   9.336  0.8360  0.3679 -0.5627
  402MOL0     H54240   9.664   8.446   9.396 -0.2637  2.7535 -0.3747
  402MOL0     H54241   9.575   8.546   9.518 -1.1304  0.4411  0.0058
  402MOL0     H54242   9.619   8.737   9.430  2.4008 -0.8791  4.8733
  402MOL0     H54243   9.664   8.666   9.264 -1.5982  1.6213  0.1325
  402MOL0     H54244   9.808   8.639   9.533 -0.5886  2.3913  0.2936
  402MOL0     H54245   9.875   8.600   9.369  1.0341 -0.1232 -0.1809
  402MOL0     H54246   9.830   8.874   9.460  2.2280  1.2944  1.5939
  402MOL0     H54247   9.878   8.817   9.296 -0.3696  0.2105  0.8489
  402MOL0     H54248  10.045   8.769   9.550 -1.2540 -2.0812 -1.1785
  402MOL0     H54249  10.077   8.717   9.386 -0.3410  0.2428  0.4734
  402MOL0     H54250   9.029   8.582   9.112 -2.3312  0.3669  0.3786
  402MOL0     H54251   8.826   8.511   9.014 -1.3069 -1.5828  0.8785
  402MOL0     H54252   8.661   8.025   8.792 -0.7154  0.4416  0.4481
  402MOL0     H54253   8.510   7.945   8.632 -1.8447  0.1615 -0.6098
  402MOL0     H54254   8.744   9.180   7.292 -1.2421  1.1113 -0.2574
  402MOL0     H54255   8.958   9.273   7.244 -1.3642 -0.4717 -0.9692
  402MOL0     H54256   9.297   9.685   7.565  1.2839 -1.5922  0.6106
  402MOL0     H54257   9.538   9.751   7.514  0.5849  0.4484 -0.9148
  402MOL0     H54258   9.673   9.863   7.414 -4.2873  2.1441 -3.2907
  402MOL0     H54259   9.712   9.895   7.243 -1.1461 -2.3489 -2.2001
  402MOL0     H54260   9.924   9.780   7.247  2.7043  4.1946 -0.8830
  402MOL0     H54261   9.891   9.707   7.402  2.6455  0.4625 -1.1349
  402MOL0     H54262   9.903   9.960   7.493 -2.6179  0.1729 -2.0390
  402MOL0     H54263   9.977   9.995   7.349  2.2809 -0.0895  1.5904
  402MOL0     H54264  10.110   9.771   7.392 -3.7198 -0.8691 -0.0586
  402MOL0     H54265  10.176   9.937   7.434 -1.0755 -0.9539 -3.9280
  402MOL0     H54266  10.074   9.726   7.803 -1.8402  0.1963  0.1914
  402MOL0     H54267   9.481   9.606   7.116 -1.8825 -1.1785 -1.4385
  402MOL0     H54268   9.261   9.423   7.092 -1.9468 -1.2142 -1.1883
  402MOL0     H54269   9.117   9.496   7.165 -0.9226 -3.0457 -0.9877
  402MOL0     H54270   9.212   9.581   7.042  3.3048 -0.6571  0.8716
  403MOL0     O54271   1.560  11.134   3.527  0.1812 -0.1718 -0.3251
  403MOL0     C54272   1.655  11.207   3.571 -0.0386  0.1322 -0.1712
  403MOL0     O54273   1.645  11.284   3.683  0.2788  0.4564 -0.6482
  403MOL0     C54274   1.534  11.286   3.757  0.5107 -0.1365  0.5419
  403MOL0     C54275   1.439  11.386   3.724 -0.4498 -0.0918 -0.3627
  403MOL0     C54276   1.333  11.412   3.812  0.4521  0.6589  0.6041
  403MOL0     C54277   1.322  11.346   3.936  0.0322  0.1634 -0.4088
  403MOL0     O54278   1.213  11.375   4.007 -0.3021 -0.2024  0.2514
  403MOL0     C54279   1.235  11.433   4.133 -0.3173 -0.0333 -0.3207
  403MOL0     C54280   1.110  11.475   4.197 -0.3524  0.3291  0.0122
  403MOL0     C54281   1.135  11.528   4.342  0.0639 -0.4706 -0.3296
  403MOL0     C54282   1.171  11.424   4.450  0.5130 -0.1513 -0.2315
  403MOL0     C54283   1.061  11.397   4.554  0.7880 -1.4165 -1.0845
  403MOL0     C54284   1.066  11.257   4.603  0.1683 -0.7738 -0.1541
  403MOL0     C54285   0.929  11.224   4.682 -0.0548  0.0844 -0.0910
  403MOL0     C54286   0.922  11.298   4.822 -0.1204 -0.5898 -0.3919
  403MOL0     N54287   0.819  11.238   4.907  1.1338  0.6268  0.5579
  403MOL0     C54288   0.689  11.272   4.907  1.0099 -0.3401 -0.4977
  403MOL0     C54289   0.643  11.207   5.017  0.6711 -0.2254 -0.0329
  403MOL0     C54290   0.503  11.211   5.067  0.8915 -0.5995 -0.3011
  403MOL0     C54291   0.490  11.184   5.226 -1.1012 -0.0632 -0.1251
  403MOL0     C54292   0.367  11.104   5.278 -0.7593  0.2696  0.7942
  403MOL0     C54293   0.371  11.111   5.428 -1.3963  0.5728 -0.3384
  403MOL0     O54294   0.272  11.023   5.460 -0.0992  0.0697  0.2920
  403MOL0     C54295   0.145  11.072   5.500 -0.0391 -0.1354  0.2923
  403MOL0     C54296   0.085  10.987   5.599  0.0243  0.5830  0.1890
  403MOL0     C54297  -0.047  11.014   5.635  0.1749 -0.8358  0.1870
  403MOL0     C54298  -0.105  11.140   5.595 -0.1033 -0.2726  0.2636
  403MOL0     C54299  -0.246  11.179   5.634 -0.7789 -0.2402  0.7170
  403MOL0     O54300  -0.304  11.086   5.715  0.1042 -0.2374 -0.2701
  403MOL0     C54301  -0.417  11.110   5.787  0.5701 -0.0140  0.3492
  403MOL0     C54302  -0.493  10.997   5.825 -0.3790 -0.1034  0.0475
  403MOL0     C54303  -0.615  10.997   5.873  0.5345 -0.2210  0.0040
  403MOL0     C54304  -0.675  11.116   5.921  0.7058  0.2137 -0.1359
  403MOL0     O54305  -0.806  11.116   5.968 -0.2756  0.0667  0.1954
  403MOL0     C54306  -0.895  11.183   5.872  0.1388  0.8166  0.5111
  403MOL0     C54307  -1.013  11.235   5.948 -0.2876 -0.3309 -0.4052
  403MOL0     C54308  -0.971  11.335   6.062  0.2229  0.8793  0.3868
  403MOL0     C54309  -1.102  11.362   6.149 -0.2257 -0.2986 -0.3894
  403MOL0     C54310  -1.064  11.478   6.247 -0.4703 -0.8808 -0.0118
  403MOL0     C54311  -1.148  11.465   6.369 -0.6445  0.1772 -0.4205
  403MOL0     C54312  -1.107  11.558   6.485  0.4610  0.1396 -0.4796
  403MOL0     C54313  -1.098  11.703   6.449 -0.4569 -0.3289 -0.1301
  403MOL0    Cl54314  -1.042  11.807   6.577  0.0153 -0.5033  0.4269
  403MOL0     C54315  -0.604  11.230   5.896  0.7887 -1.1147  0.0848
  403MOL0     C54316  -0.472  11.234   5.841 -0.4127 -0.7887  1.5623
  403MOL0     O54317  -0.296  11.285   5.593 -0.5422  1.0445 -0.3305
  403MOL0     C54318  -0.034  11.219   5.505 -0.1490 -0.3800  0.7813
  403MOL0     C54319   0.089  11.190   5.452 -0.3164  0.5192 -0.2432
  403MOL0     N54320   0.749  11.132   5.067  0.2582 -0.5595 -0.0652
  403MOL0     N54321   0.860  11.151   5.000 -0.0363  0.3290  0.4034
  403MOL0     C54322   1.418  11.246   3.969  0.5456  0.4151 -0.5934
  403MOL0     C54323   1.529  11.223   3.885  0.3834 -0.1374 -0.6440
  403MOL0     C54324   1.775  11.215   3.480  0.4185  0.2154 -0.2164
  403MOL0     C54325   1.804  11.100   3.409 -0.5484  0.4583  0.0358
  403MOL0     C54326   1.911  11.097   3.309  1.4647  0.3818 -0.4336
  403MOL0     C54327   1.972  11.217   3.283  0.1327 -0.6598 -0.0246
  403MOL0     O54328   2.057  11.242   3.178  0.2413  0.2041  0.2228
  403MOL0     C54329   2.092  11.147   3.070  0.3800  1.1639  0.2825
  403MOL0     C54330   2.178  11.036   3.131 -0.7082 -0.3048  0.6034
  403MOL0     C54331   2.329  11.070   3.151 -0.2536 -0.5305 -0.5415
  403MOL0     C54332   2.421  10.948   3.191  0.0758  0.1682 -0.2491
  403MOL0     C54333   2.451  10.855   3.083 -0.2387 -1.0793 -0.2265
  403MOL0     C54334   2.458  10.796   2.981 -0.6285  0.3347  0.2933
  403MOL0     C54335   1.943  11.336   3.362 -0.2122 -0.3459 -0.2588
  403MOL0     C54336   1.846  11.337   3.469 -0.4263  0.3279 -0.8817
  403MOL0     C54337   1.815  11.475   3.536  0.1432 -1.0290 -0.0911
  403MOL0     H54338   1.470  11.419   3.625  0.6482  0.8230  0.2719
  403MOL0     H54339   1.253  11.478   3.779  0.8427 -1.3160 -5.4318
  403MOL0     H54340   1.269  11.345   4.189 -1.9296 -1.1812 -1.0607
  403MOL0     H54341   1.323  11.498   4.133  2.3941 -3.3834 -1.1868
  403MOL0     H54342   1.049  11.384   4.195 -2.1883  1.4450  1.8786
  403MOL0     H54343   1.052  11.542   4.134  0.4996  1.8958  0.8422
  403MOL0     H54344   1.047  11.581   4.378 -0.6257 -0.8479 -1.4006
  403MOL0     H54345   1.220  11.596   4.337 -0.1454 -0.0895  1.0520
  403MOL0     H54346   1.187  11.327   4.401 -1.4634 -0.4799 -0.3075
  403MOL0     H54347   1.267  11.426   4.502  0.6865 -1.2984 -0.4707
  403MOL0     H54348   1.062  11.475   4.631  2.5829 -3.1461  0.7826
  403MOL0     H54349   0.962  11.408   4.508 -1.2209  1.4445  3.2664
  403MOL0     H54350   1.073  11.198   4.512  2.2135 -0.1015 -0.4721
  403MOL0     H54351   1.148  11.251   4.675  1.7867  3.3764 -1.3469
  403MOL0     H54352   0.934  11.118   4.711  1.1692  1.2842  4.8930
  403MOL0     H54353   0.843  11.255   4.621 -0.1076  1.0256  0.4473
  403MOL0     H54354   1.022  11.302   4.866  0.2111  2.8566 -1.2111
  403MOL0     H54355   0.899  11.404   4.810  2.9068  0.5445  2.2534
  403MOL0     H54356   0.640  11.338   4.837  1.4455 -3.2392 -3.8353
  403MOL0     H54357   0.481  11.318   5.066 -3.3843 -1.2279  2.1496
  403MOL0     H54358   0.429  11.149   5.014  0.4352 -1.6826  1.4926
  403MOL0     H54359   0.578  11.128   5.261 -0.1126 -1.5727 -4.4138
  403MOL0     H54360   0.492  11.278   5.283  0.5057 -0.3732  0.3827
  403MOL0     H54361   0.370  11.002   5.238 -2.6378  1.1997 -2.0328
  403MOL0     H54362   0.279  11.154   5.238  0.0236 -0.3973 -2.0111
  403MOL0     H54363   0.355  11.213   5.462 -0.0541  0.9704 -0.8196
  403MOL0     H54364   0.471  11.077   5.455 -0.4239  2.0311 -1.8483
  403MOL0     H54365   0.120  10.888   5.624 -0.6490 -0.5596 -2.9502
  403MOL0     H54366  -0.107  10.940   5.687 -0.6052 -3.1761 -3.6254
  403MOL0     H54367  -0.452  10.903   5.791  1.6664 -0.3428  2.8589
  403MOL0     H54368  -0.654  10.898   5.894  0.1631  0.3543  2.2505
  403MOL0     H54369  -0.850  11.269   5.821 -2.9026  0.2664 -3.5935
  403MOL0     H54370  -0.922  11.112   5.793  1.1469 -0.5158  1.3295
  403MOL0     H54371  -1.074  11.283   5.871  2.7259  1.7324 -1.6772
  403MOL0     H54372  -1.063  11.149   5.993 -1.9496  0.2027 -1.1707
  403MOL0     H54373  -0.882  11.302   6.116  2.2435 -3.4880 -4.7706
  403MOL0     H54374  -0.946  11.432   6.018  3.6138 -0.0034  0.1264
  403MOL0     H54375  -1.117  11.271   6.208 -4.3594  0.2155 -0.3126
  403MOL0     H54376  -1.189  11.388   6.088 -2.3920 -1.2581  2.1211
  403MOL0     H54377  -1.081  11.581   6.212 -2.4102 -1.1163  0.1027
  403MOL0     H54378  -0.957  11.474   6.270 -0.3949 -1.1239 -0.4042
  403MOL0     H54379  -1.255  11.486   6.353 -1.2931 -2.1302  0.5615
  403MOL0     H54380  -1.154  11.363   6.408 -0.2741  1.0541  2.0604
  403MOL0     H54381  -1.005  11.527   6.510  1.0712  1.5577 -1.1413
  403MOL0     H54382  -1.170  11.538   6.573  0.5874 -1.0684 -0.6482
  403MOL0     H54383  -1.028  11.711   6.365 -0.6732 -1.6685 -0.4640
  403MOL0     H54384  -1.199  11.727   6.413  0.1100  2.0556 -0.3111
  403MOL0     H54385  -0.645  11.326   5.926  1.7678 -0.0054 -1.9757
  403MOL0     H54386  -0.419  11.328   5.833  1.0830 -1.7292 -0.1927
  403MOL0     H54387  -0.082  11.308   5.464  1.8470 -0.4472 -1.9470
  403MOL0     H54388   0.142  11.245   5.374  0.8553 -1.5566 -0.9833
  403MOL0     H54389   1.407  11.202   4.067  5.1422  2.9337  1.3637
  403MOL0     H54390   1.602  11.155   3.928  2.4393  2.1336 -0.2874
  403MOL0     H54391   1.751  11.009   3.436  1.6659 -1.6641 -2.1906
  403MOL0     H54392   1.924  10.999   3.263 -4.7931 -0.9066 -0.3666
  403MOL0     H54393   2.143  11.188   2.982 -0.8219  1.8140 -0.1445
  403MOL0     H54394   2.005  11.098   3.024 -0.2583  1.5000  1.1051
  403MOL0     H54395   2.165  10.945   3.072  1.2027 -0.7925  0.8627
  403MOL0     H54396   2.150  11.008   3.233 -1.1161 -2.3223 -0.0295
  403MOL0     H54397   2.328  11.138   3.236 -1.4029 -1.8683  0.5605
  403MOL0     H54398   2.370  11.130   3.069  0.3120 -0.2095 -0.0296
  403MOL0     H54399   2.514  10.988   3.234 -0.0529 -0.0551  0.2421
  403MOL0     H54400   2.384  10.879   3.268  0.5094  1.3378  1.0567
  403MOL0     H54401   2.471  10.731   2.897 -0.1017 -1.8221  1.9526
  403MOL0     H54402   1.987  11.433   3.343  1.1656 -1.3183 -2.3823
  403MOL0     H54403   1.827  11.557   3.465  0.8322  0.1415  1.3341
  403MOL0     H54404   1.714  11.490   3.576  0.0436  1.7503 -1.1749
  403MOL0     H54405   1.881  11.493   3.621 -1.1222 -0.3383  0.7826
  404MOL0     O54406   3.522   4.559   6.871  0.4169 -0.1604 -0.0397
  404MOL0     C54407   3.397   4.575   6.908 -0.4897 -0.5120  0.2570
  404MOL0     O54408   3.354   4.582   7.038 -1.0548 -0.1948 -1.1874
  404MOL0     C54409   3.452   4.564   7.138  0.3060 -0.2840  0.1977
  404MOL0     C54410   3.483   4.432   7.174 -0.1156 -0.3385  0.0069
  404MOL0     C54411   3.589   4.419   7.267 -0.3137  0.6446  0.6569
  404MOL0     C54412   3.655   4.531   7.320 -0.8887 -0.0000 -0.3604
  404MOL0     O54413   3.762   4.502   7.398 -1.0404 -0.9923  0.9067
  404MOL0     C54414   3.850   4.605   7.440 -0.4923 -0.0066  0.0101
  404MOL0     C54415   3.989   4.548   7.465  0.0429  0.1601  0.3728
  404MOL0     C54416   4.065   4.636   7.562  0.8098  0.0554  0.1572
  404MOL0     C54417   4.209   4.585   7.587 -0.7071  0.0292  0.9132
  404MOL0     C54418   4.266   4.656   7.711 -0.6031 -0.3192  0.1509
  404MOL0     C54419   4.412   4.648   7.733  0.4500  0.6460 -0.1837
  404MOL0     C54420   4.461   4.730   7.853 -1.0882 -1.0156  0.1313
  404MOL0     C54421   4.579   4.832   7.816 -0.9723 -1.1320 -0.4742
  404MOL0     N54422   4.601   4.931   7.915  0.0637 -0.4089  0.0117
  404MOL0     C54423   4.648   4.898   8.035  0.6761  0.5085  0.1264
  404MOL0     C54424   4.620   5.008   8.114  0.2583 -0.3401  0.1899
  404MOL0     C54425   4.636   5.011   8.266  0.0823  0.1847 -0.9691
  404MOL0     C54426   4.787   5.030   8.282  0.4621 -0.3928  0.7511
  404MOL0     C54427   4.817   5.036   8.431  0.6995 -0.4954  0.6964
  404MOL0     C54428   4.950   5.095   8.451  0.8697 -0.1356 -0.2490
  404MOL0     O54429   5.055   5.010   8.413  0.2720  0.3788  0.0630
  404MOL0     C54430   5.128   4.929   8.500 -0.0209  0.2597  0.5648
  404MOL0     C54431   5.138   4.968   8.636 -0.4823  0.2245  0.4759
  404MOL0     C54432   5.206   4.892   8.730 -0.9574  0.5107  0.5282
  404MOL0     C54433   5.258   4.771   8.676 -0.4507 -0.9917 -0.1249
  404MOL0     C54434   5.335   4.685   8.769 -0.3348  0.5678  0.3600
  404MOL0     O54435   5.322   4.715   8.901 -0.0606 -0.2303 -0.3119
  404MOL0     C54436   5.433   4.660   8.977  0.2969  0.2772  0.1895
  404MOL0     C54437   5.565   4.687   8.930  0.5380 -0.8123  0.0281
  404MOL0     C54438   5.678   4.620   8.985  0.6419 -1.0481 -0.2739
  404MOL0     C54439   5.657   4.543   9.101 -0.5831  0.2214  0.5691
  404MOL0     O54440   5.764   4.472   9.163 -0.8640 -0.1751 -0.0942
  404MOL0     C54441   5.754   4.325   9.176  0.4002  0.1214 -0.3544
  404MOL0     C54442   5.867   4.276   9.273  0.0552 -0.4771  0.0118
  404MOL0     C54443   5.853   4.131   9.332 -0.6471 -0.1936 -0.4985
  404MOL0     C54444   5.940   4.109   9.461  0.8886 -0.3097 -0.0643
  404MOL0     C54445   5.956   3.954   9.498  0.4168 -0.5911  0.4547
  404MOL0     C54446   5.832   3.898   9.566  1.1767 -1.7799 -0.3110
  404MOL0     C54447   5.814   3.751   9.587 -0.3573  0.7870  0.3057
  404MOL0     C54448   5.744   3.686   9.464  0.0445 -0.1592 -0.3708
  404MOL0    Cl54449   5.772   3.511   9.471  0.4859 -0.0952  0.0411
  404MOL0     C54450   5.530   4.531   9.153  0.0066 -0.0582 -0.3990
  404MOL0     C54451   5.419   4.573   9.087 -0.5278 -1.3732 -0.0535
  404MOL0     O54452   5.404   4.595   8.710 -0.8348 -0.1244 -0.4946
  404MOL0     C54453   5.247   4.733   8.542 -0.6840 -0.0195  0.4398
  404MOL0     C54454   5.191   4.823   8.454  0.0655  0.3823  1.0313
  404MOL0     N54455   4.533   5.092   8.044  0.3958 -0.0647 -1.1667
  404MOL0     N54456   4.524   5.048   7.923 -0.2374 -0.1458 -0.1289
  404MOL0     C54457   3.619   4.661   7.277 -1.3547  0.6799  0.0399
  404MOL0     C54458   3.523   4.675   7.178  0.3816  0.3148  0.2296
  404MOL0     C54459   3.297   4.570   6.796  0.3537  0.1118 -0.7927
  404MOL0     C54460   3.183   4.496   6.815  0.8063 -0.1356 -0.1392
  404MOL0     C54461   3.076   4.503   6.726  0.3392  0.0038 -0.1037
  404MOL0     C54462   3.095   4.562   6.601 -0.4319  0.3888 -0.0873
  404MOL0     O54463   3.002   4.553   6.501 -0.3278  0.0112 -0.7737
  404MOL0     C54464   2.870   4.530   6.534  0.5337 -0.4570  0.7049
  404MOL0     C54465   2.766   4.576   6.430  0.1924  0.5696 -0.3866
  404MOL0     C54466   2.807   4.714   6.367  0.8404 -0.2223  0.9362
  404MOL0     C54467   2.700   4.777   6.283  0.7386  0.8039 -0.1832
  404MOL0     C54468   2.684   4.705   6.156 -0.5250 -0.9368  0.6055
  404MOL0     C54469   2.673   4.673   6.041  0.1827 -0.4953 -0.1252
  404MOL0     C54470   3.209   4.629   6.576  0.5207  0.2506 -0.3990
  404MOL0     C54471   3.313   4.635   6.669  0.2753  0.7429  0.2664
  404MOL0     C54472   3.441   4.714   6.635  0.9436  0.5634 -0.3803
  404MOL0     H54473   3.436   4.342   7.135 -0.6819  0.4498 -1.2010
  404MOL0     H54474   3.615   4.319   7.300 -1.4440 -0.0970 -0.5944
  404MOL0     H54475   3.853   4.693   7.376  1.7133  1.0870  1.4753
  404MOL0     H54476   3.818   4.631   7.541 -3.9656  1.1363 -1.2378
  404MOL0     H54477   4.044   4.534   7.372  0.3018  1.5169  0.2916
  404MOL0     H54478   3.988   4.451   7.515 -2.4950  1.7332  3.7644
  404MOL0     H54479   4.019   4.641   7.662  1.4199  0.2882  0.4295
  404MOL0     H54480   4.058   4.739   7.526  2.2100 -0.3280 -1.2725
  404MOL0     H54481   4.215   4.477   7.601 -3.5729 -0.5344 -1.2926
  404MOL0     H54482   4.270   4.604   7.498 -1.5200 -1.1601  0.0781
  404MOL0     H54483   4.240   4.759   7.685 -0.3348 -0.9103 -2.8958
  404MOL0     H54484   4.209   4.630   7.800 -0.3476  0.6213  0.6051
  404MOL0     H54485   4.447   4.545   7.749  1.9403  1.4239  1.9570
  404MOL0     H54486   4.447   4.687   7.637 -0.4307  0.0859 -0.7461
  404MOL0     H54487   4.497   4.662   7.930 -0.5782  1.0294  1.7851
  404MOL0     H54488   4.382   4.787   7.903  0.2121  2.0641 -1.0968
  404MOL0     H54489   4.674   4.778   7.808  2.8319  4.3756  2.1268
  404MOL0     H54490   4.561   4.874   7.716 -0.6915  1.2176  0.4133
  404MOL0     H54491   4.683   4.802   8.072  2.0587 -0.5618 -3.5321
  404MOL0     H54492   4.570   5.086   8.311 -2.1784 -1.9918 -0.3962
  404MOL0     H54493   4.607   4.913   8.306 -0.2020  1.3251  1.8600
  404MOL0     H54494   4.840   4.940   8.251 -2.8359 -2.4330  0.6986
  404MOL0     H54495   4.817   5.120   8.227  0.2606 -1.9769 -2.1033
  404MOL0     H54496   4.813   4.934   8.468  2.4218  0.3421  3.5236
  404MOL0     H54497   4.736   5.085   8.486  0.8039  0.2180  0.2435
  404MOL0     H54498   4.961   5.147   8.547  1.8939  0.6856 -0.7830
  404MOL0     H54499   4.962   5.172   8.373  0.7088  0.6745  0.5144
  404MOL0     H54500   5.088   5.058   8.669 -0.7320  0.7210 -1.1891
  404MOL0     H54501   5.221   4.927   8.831  0.0771  1.8654 -0.0641
  404MOL0     H54502   5.573   4.751   8.843 -2.0897 -0.7541 -0.2658
  404MOL0     H54503   5.779   4.645   8.955  0.6836 -1.0318 -0.1203
  404MOL0     H54504   5.653   4.302   9.213  0.9752  0.1413  1.3149
  404MOL0     H54505   5.763   4.282   9.076  1.3867  1.5340 -0.9096
  404MOL0     H54506   5.961   4.303   9.224 -0.9597  1.2480 -1.1133
  404MOL0     H54507   5.853   4.342   9.360  0.7337 -1.8882  1.2424
  404MOL0     H54508   5.749   4.110   9.360 -1.3877  4.4141  1.0057
  404MOL0     H54509   5.883   4.063   9.252  3.0087  0.1453  0.4283
  404MOL0     H54510   5.896   4.158   9.549 -2.9174 -1.5138 -1.0916
  404MOL0     H54511   6.043   4.144   9.447  0.3499  2.3354  1.7048
  404MOL0     H54512   6.031   3.939   9.577 -1.1933 -2.7494  1.6989
  404MOL0     H54513   5.978   3.899   9.406 -2.3289 -0.5154 -0.3414
  404MOL0     H54514   5.837   3.940   9.667  3.4846  0.6107 -1.2953
  404MOL0     H54515   5.743   3.937   9.516  0.5388 -0.5999  1.6438
  404MOL0     H54516   5.759   3.720   9.676  2.3056 -0.5253  1.5869
  404MOL0     H54517   5.916   3.714   9.598  1.0672  3.8875 -1.0465
  404MOL0     H54518   5.638   3.706   9.478 -0.1155  0.2619 -1.9525
  404MOL0     H54519   5.781   3.720   9.367  0.4278 -2.1010 -0.9571
  404MOL0     H54520   5.511   4.479   9.247  0.9519  1.0988  0.4537
  404MOL0     H54521   5.315   4.552   9.109 -0.9965  0.7228 -0.0449
  404MOL0     H54522   5.293   4.642   8.507  2.1787  0.8249  1.7030
  404MOL0     H54523   5.184   4.797   8.348 -0.0144  0.6129  0.9796
  404MOL0     H54524   3.675   4.745   7.315  0.3902 -0.9733  1.3272
  404MOL0     H54525   3.497   4.774   7.140  1.1058  0.5940  0.4538
  404MOL0     H54526   3.147   4.450   6.906 -1.0305  1.3781 -0.0369
  404MOL0     H54527   2.981   4.455   6.747 -0.8866  1.5282 -1.7892
  404MOL0     H54528   2.844   4.595   6.618  5.2945  3.2602 -0.2179
  404MOL0     H54529   2.853   4.423   6.548  2.1035 -0.9607 -0.7781
  404MOL0     H54530   2.673   4.597   6.483  0.9425  2.3125  0.2954
  404MOL0     H54531   2.741   4.498   6.357 -3.1928  1.2044 -0.0617
  404MOL0     H54532   2.901   4.703   6.313 -1.3994  0.0670 -3.4234
  404MOL0     H54533   2.819   4.791   6.445  2.0956  0.0835  0.4686
  404MOL0     H54534   2.606   4.793   6.335  1.7639  1.7020  1.4559
  404MOL0     H54535   2.729   4.876   6.246  1.7826 -0.1094 -1.9531
  404MOL0     H54536   2.669   4.629   5.944  0.0412 -4.5302  1.5405
  404MOL0     H54537   3.230   4.673   6.478 -0.8934  2.7924  0.3540
  404MOL0     H54538   3.434   4.775   6.544  2.3244 -0.3725 -1.1655
  404MOL0     H54539   3.452   4.786   6.717 -2.3464  1.3045 -0.4501
  404MOL0     H54540   3.526   4.647   6.614  0.9727  0.4803  0.0021
  405MOL0     O54541   8.328   2.672  10.454  0.1207  0.3531 -0.2826
  405MOL0     C54542   8.300   2.549  10.450  0.8380  0.5744 -0.4248
  405MOL0     O54543   8.285   2.471  10.560 -0.0675  0.3469 -0.1098
  405MOL0     C54544   8.243   2.526  10.685  0.2015 -0.6280  0.5893
  405MOL0     C54545   8.255   2.454  10.797  0.0743 -0.5697 -0.1416
  405MOL0     C54546   8.224   2.497  10.922 -0.6097 -0.1439  0.5550
  405MOL0     C54547   8.153   2.614  10.945  0.1876  0.0751  0.5386
  405MOL0     O54548   8.133   2.680  11.067 -0.4159  0.3308  0.2850
  405MOL0     C54549   8.086   2.592  11.173 -1.8349 -1.1690 -0.4878
  405MOL0     C54550   7.946   2.568  11.171 -0.2210  0.4387 -0.0706
  405MOL0     C54551   7.888   2.496  11.291 -0.4974  0.8463 -0.5361
  405MOL0     C54552   7.853   2.597  11.406  0.4679 -1.3532  0.5331
  405MOL0     C54553   7.766   2.524  11.510  0.6062 -0.2239 -0.1070
  405MOL0     C54554   7.736   2.600  11.652  0.2464  0.7044  0.4657
  405MOL0     C54555   7.626   2.509  11.719 -0.3721  0.6270 -0.0968
  405MOL0     C54556   7.555   2.598  11.829 -0.1985  0.1259  0.6475
  405MOL0     N54557   7.655   2.658  11.917  1.0048  0.8065 -0.6947
  405MOL0     C54558   7.700   2.789  11.899  0.3125  0.2040 -0.4424
  405MOL0     C54559   7.738   2.830  12.027 -0.1132 -0.2194 -0.0148
  405MOL0     C54560   7.787   2.966  12.068 -0.5782 -0.1535  0.2051
  405MOL0     C54561   7.937   2.975  12.075  0.5251  0.8975 -0.1174
  405MOL0     C54562   8.000   3.113  12.039 -0.2946  0.0219  0.6491
  405MOL0     C54563   7.984   3.213  12.142 -0.2407  0.4731 -1.0132
  405MOL0     O54564   8.014   3.343  12.080 -0.1234  0.9028 -0.0446
  405MOL0     C54565   8.019   3.457  12.162 -0.0058  0.1474 -0.0760
  405MOL0     C54566   8.075   3.571  12.108  0.0578 -0.7615  0.9995
  405MOL0     C54567   8.090   3.689  12.189  0.4834 -0.4123 -0.1443
  405MOL0     C54568   8.054   3.674  12.321 -1.0442  0.7715 -0.7761
  405MOL0     C54569   8.067   3.800  12.399  0.5750 -0.6621 -0.1187
  405MOL0     O54570   8.104   3.914  12.328  0.5197 -0.1896 -0.3715
  405MOL0     C54571   8.118   4.037  12.389 -1.1332 -0.2864  0.1468
  405MOL0     C54572   8.049   4.148  12.338 -1.0947  0.2160 -0.5669
  405MOL0     C54573   8.060   4.274  12.399 -0.1440  0.3492  0.0236
  405MOL0     C54574   8.128   4.288  12.523 -0.2510  0.0702 -0.0539
  405MOL0     O54575   8.137   4.404  12.600 -0.7077  0.0360 -0.7170
  405MOL0     C54576   8.044   4.507  12.573  0.4595  0.3013 -0.8630
  405MOL0     C54577   7.895   4.462  12.603  0.7399 -0.0599 -0.3396
  405MOL0     C54578   7.869   4.406  12.742 -0.6580 -1.0597 -0.1130
  405MOL0     C54579   7.726   4.366  12.756 -0.0053  0.6258  0.7954
  405MOL0     C54580   7.627   4.472  12.817 -0.7250 -0.8889  0.2652
  405MOL0     C54581   7.643   4.499  12.967 -0.3174 -0.2693 -0.0883
  405MOL0     C54582   7.534   4.574  13.035  0.5464  0.0148 -0.7339
  405MOL0     C54583   7.592   4.584  13.179  0.1834 -0.4188 -0.9279
  405MOL0    Cl54584   7.585   4.432  13.284 -0.2376  0.5515 -0.4929
  405MOL0     C54585   8.210   4.179  12.565  0.1025  1.0308 -0.7508
  405MOL0     C54586   8.202   4.050  12.503 -0.2048  0.2794  0.2813
  405MOL0     O54587   8.028   3.810  12.519 -0.5161 -0.6170 -0.1120
  405MOL0     C54588   8.003   3.560  12.377  0.0882  0.4579 -0.7319
  405MOL0     C54589   7.987   3.448  12.302  0.3024 -1.0365 -0.2515
  405MOL0     N54590   7.725   2.722  12.117 -0.4129 -0.7393  1.0587
  405MOL0     N54591   7.675   2.618  12.054 -0.0629  0.8698  0.1201
  405MOL0     C54592   8.144   2.693  10.834  1.0689  0.2368 -0.7406
  405MOL0     C54593   8.193   2.655  10.707  0.1798 -0.4261 -0.0206
  405MOL0     C54594   8.327   2.476  10.322  0.3482  0.0517  0.4441
  405MOL0     C54595   8.364   2.340  10.317 -0.3550  0.1528  0.1194
  405MOL0     C54596   8.377   2.264  10.202  0.4953  0.2190  0.8971
  405MOL0     C54597   8.350   2.324  10.072 -0.0242 -0.2304 -0.2811
  405MOL0     O54598   8.334   2.267   9.950 -0.0311  0.6623 -0.6245
  405MOL0     C54599   8.405   2.140   9.936 -0.7077  0.2948 -0.2333
  405MOL0     C54600   8.302   2.033   9.911  1.8265  1.3797 -0.2343
  405MOL0     C54601   8.257   1.962  10.038 -1.0324 -0.1481 -0.2273
  405MOL0     C54602   8.133   1.865  10.039  0.1454  0.1778 -0.7422
  405MOL0     C54603   8.013   1.943  10.045  0.0737  0.5414  0.7426
  405MOL0     C54604   7.909   2.004  10.057  0.4552 -0.4707 -0.1290
  405MOL0     C54605   8.316   2.464  10.077 -1.2474 -0.4729 -0.2669
  405MOL0     C54606   8.297   2.542  10.195  0.3124 -0.0603 -0.0625
  405MOL0     C54607   8.241   2.681  10.162  0.0419  0.1780  0.1090
  405MOL0     H54608   8.291   2.354  10.776 -2.1670 -1.7613  1.2213
  405MOL0     H54609   8.241   2.426  11.002  0.4989  3.1905  3.5517
  405MOL0     H54610   8.138   2.497  11.183  0.6520 -0.0790 -2.0791
  405MOL0     H54611   8.103   2.645  11.268 -1.5279 -0.6405 -0.8307
  405MOL0     H54612   7.936   2.501  11.086  0.6534 -1.7581  1.4608
  405MOL0     H54613   7.888   2.660  11.161 -3.4184 -1.3805  0.5746
  405MOL0     H54614   7.956   2.426  11.339 -2.5408 -0.1918  1.0098
  405MOL0     H54615   7.796   2.439  11.271 -1.2174  1.3457  1.1859
  405MOL0     H54616   7.944   2.631  11.455 -2.2520  2.5752  3.5368
  405MOL0     H54617   7.803   2.687  11.369  0.3926 -0.5964  2.3427
  405MOL0     H54618   7.671   2.495  11.465  0.0180  0.0212  0.9264
  405MOL0     H54619   7.805   2.423  11.530 -0.8984 -0.3927  2.4934
  405MOL0     H54620   7.826   2.598  11.715  2.0966 -2.3743 -1.9656
  405MOL0     H54621   7.700   2.700  11.626  0.3053  0.5975 -0.0394
  405MOL0     H54622   7.662   2.422  11.775 -3.7032 -1.2775 -0.6445
  405MOL0     H54623   7.555   2.485  11.639  3.1320  2.4295 -4.0728
  405MOL0     H54624   7.497   2.677  11.782 -1.4361 -0.3579  1.3278
  405MOL0     H54625   7.483   2.543  11.890 -2.0848  0.9933 -0.7262
  405MOL0     H54626   7.688   2.860  11.817 -1.4692 -0.2205 -0.5901
  405MOL0     H54627   7.758   3.043  11.996 -2.6162  3.1830  4.2025
  405MOL0     H54628   7.758   2.980  12.172  0.4649 -3.1574  1.0015
  405MOL0     H54629   7.971   2.948  12.175 -0.9919  0.2089  0.2477
  405MOL0     H54630   7.983   2.898  12.012  2.8887  1.6327  0.6162
  405MOL0     H54631   7.955   3.141  11.944  0.0520  0.4399  0.6090
  405MOL0     H54632   8.105   3.091  12.021 -0.6072  0.0090 -1.4086
  405MOL0     H54633   8.058   3.186  12.218  2.1059  4.2160 -1.6933
  405MOL0     H54634   7.885   3.214  12.188  0.1019  2.4855 -0.2216
  405MOL0     H54635   8.105   3.570  12.004  1.2850 -1.0474  1.3363
  405MOL0     H54636   8.123   3.779  12.138 -1.4444  1.0933  1.1226
  405MOL0     H54637   8.000   4.136  12.242 -0.8059  3.3377 -1.2140
  405MOL0     H54638   8.029   4.364  12.348  0.2414  1.9763  2.5178
  405MOL0     H54639   8.053   4.592  12.642 -5.0888  0.5384 -0.0248
  405MOL0     H54640   8.045   4.535  12.467 -0.6488 -1.2934 -1.3355
  405MOL0     H54641   7.831   4.551  12.602  1.5506  0.5245 -0.8862
  405MOL0     H54642   7.877   4.378  12.535  1.6096 -1.7052  1.3777
  405MOL0     H54643   7.931   4.319  12.763  3.1711  1.8459  2.0840
  405MOL0     H54644   7.898   4.488  12.809 -0.7613 -1.8031  0.8565
  405MOL0     H54645   7.724   4.271  12.812  1.1948 -1.5078 -2.4581
  405MOL0     H54646   7.687   4.343  12.657 -0.1717  2.2820  0.4585
  405MOL0     H54647   7.523   4.441  12.799 -1.0691 -1.8412  3.3383
  405MOL0     H54648   7.639   4.572  12.774 -1.4041  0.9228  3.8941
  405MOL0     H54649   7.644   4.398  13.008  1.8238 -0.0195  0.6245
  405MOL0     H54650   7.741   4.542  12.993  0.2769  0.6974 -3.4124
  405MOL0     H54651   7.446   4.510  13.039  0.5565  0.0551  1.1864
  405MOL0     H54652   7.508   4.669  12.988 -1.3710 -0.2238 -0.2271
  405MOL0     H54653   7.691   4.631  13.188  1.7585 -3.8742  3.7097
  405MOL0     H54654   7.517   4.644  13.231 -1.5773 -2.3768 -1.0608
  405MOL0     H54655   8.263   4.188  12.659 -2.8937 -2.6492  1.5763
  405MOL0     H54656   8.265   3.972  12.545  1.5276  2.8040  2.7059
  405MOL0     H54657   7.985   3.542  12.483  2.7615  0.3983 -0.2265
  405MOL0     H54658   7.947   3.363  12.356 -0.5457  0.6981  1.9990
  405MOL0     H54659   8.130   2.799  10.852 -1.9517  0.4220 -3.1640
  405MOL0     H54660   8.191   2.732  10.631  0.1583 -1.0678 -0.6908
  405MOL0     H54661   8.382   2.282  10.407  1.9756  1.2935  0.4790
  405MOL0     H54662   8.401   2.159  10.215 -0.7279  0.0360  1.9194
  405MOL0     H54663   8.488   2.115  10.003  1.0348 -1.1669 -2.7539
  405MOL0     H54664   8.465   2.160   9.846  0.5308  0.0912  0.5140
  405MOL0     H54665   8.322   1.960   9.833 -0.4804  1.3102 -0.8360
  405MOL0     H54666   8.205   2.076   9.884  0.0795 -1.3819  1.1832
  405MOL0     H54667   8.237   2.034  10.118 -3.6041 -1.4456  0.4140
  405MOL0     H54668   8.348   1.904  10.054 -1.4080 -0.4618  0.8755
  405MOL0     H54669   8.144   1.807   9.946  1.7962  0.4274 -0.7378
  405MOL0     H54670   8.150   1.795  10.122  1.0574 -0.1993 -1.2322
  405MOL0     H54671   7.818   2.060  10.051  3.5663  5.1717 -0.7339
  405MOL0     H54672   8.303   2.507   9.979  3.7721  1.8692 -0.2177
  405MOL0     H54673   8.312   2.746  10.110 -0.1173 -1.3679 -2.2468
  405MOL0     H54674   8.170   2.662  10.080  3.0506  0.2407 -2.6902
  405MOL0     H54675   8.199   2.723  10.254 -1.5410 -0.2805 -0.3695
  406MOL0     O54676   8.710   8.287  10.586  0.0365  0.0322 -0.2272
  406MOL0     C54677   8.609   8.253  10.527 -0.3145  0.1583  0.5057
  406MOL0     O54678   8.601   8.209  10.398  0.0310 -0.0066 -0.4725
  406MOL0     C54679   8.721   8.200  10.326 -0.0518  0.6012  0.2007
  406MOL0     C54680   8.781   8.069  10.312  1.0464  0.1703 -0.0999
  406MOL0     C54681   8.902   8.049  10.248 -0.2724 -0.6519  0.0450
  406MOL0     C54682   8.974   8.160  10.192  0.3028  0.1504 -0.4452
  406MOL0     O54683   9.095   8.158  10.119 -0.8174 -0.2584  0.9340
  406MOL0     C54684   9.196   8.235  10.187  0.1310  1.0304 -0.6527
  406MOL0     C54685   9.328   8.224  10.111 -0.9747  0.3911 -0.0550
  406MOL0     C54686   9.446   8.283  10.187  0.0137 -1.0563  0.5902
  406MOL0     C54687   9.420   8.407  10.267  0.6136 -0.8533 -0.7134
  406MOL0     C54688   9.541   8.455  10.343 -0.4317  0.0588  0.1733
  406MOL0     C54689   9.570   8.371  10.473 -0.3625 -0.3136  0.7496
  406MOL0     C54690   9.695   8.412  10.540 -0.3273 -0.5488 -0.2352
  406MOL0     C54691   9.738   8.292  10.634 -0.4271 -0.5265  0.6996
  406MOL0     N54692   9.853   8.221  10.561 -0.4567  1.8238  0.6517
  406MOL0     C54693   9.847   8.139  10.450  0.5665  0.2743 -0.5097
  406MOL0     C54694   9.978   8.111  10.423 -0.0534  0.6429  0.6651
  406MOL0     C54695  10.020   8.036  10.300  0.0925 -0.4849 -0.9293
  406MOL0     C54696  10.127   7.933  10.349 -0.4272 -0.2700  0.8822
  406MOL0     C54697  10.082   7.821  10.451  0.1164 -0.3600 -0.0197
  406MOL0     C54698   9.935   7.775  10.424  0.4322  0.3903 -0.1448
  406MOL0     O54699   9.909   7.729  10.290 -0.2492 -0.0078  1.0149
  406MOL0     C54700   9.970   7.618  10.247  0.0545 -0.6737  0.8908
  406MOL0     C54701  10.020   7.623  10.118 -0.3504 -0.4530 -0.4604
  406MOL0     C54702  10.078   7.512  10.058  0.2318  0.1563  0.7887
  406MOL0     C54703  10.086   7.387  10.122 -0.9986 -0.6605 -0.4442
  406MOL0     C54704  10.176   7.279  10.066 -0.3342 -0.5084  0.0824
  406MOL0     O54705  10.207   7.178  10.155  1.0506 -0.6281 -0.3696
  406MOL0     C54706  10.309   7.089  10.140 -0.7387 -0.4248 -1.0390
  406MOL0     C54707  10.375   7.053  10.256 -0.2817  0.6337  0.9092
  406MOL0     C54708  10.468   6.942  10.257  0.3724 -0.1887  0.4676
  406MOL0     C54709  10.508   6.887  10.140 -0.0022 -0.0982 -0.0447
  406MOL0     O54710  10.607   6.797  10.156  0.8250  0.1622 -0.0651
  406MOL0     C54711  10.639   6.704  10.055 -0.7509 -1.4340 -0.4462
  406MOL0     C54712  10.682   6.587  10.139  0.2037 -1.1534  0.5414
  406MOL0     C54713  10.824   6.593  10.211 -0.2751 -0.4956  0.0464
  406MOL0     C54714  10.839   6.697  10.328  0.2483  0.7398 -0.6790
  406MOL0     C54715  10.946   6.659  10.431  0.9220  0.2840  0.3316
  406MOL0     C54716  11.094   6.646  10.370 -0.2266 -0.4180  0.2717
  406MOL0     C54717  11.191   6.612  10.483  0.7798 -0.0245  0.9060
  406MOL0     C54718  11.336   6.610  10.425 -0.1258 -0.4207  0.5744
  406MOL0    Cl54719  11.392   6.769  10.401  0.5113 -0.2997  0.2113
  406MOL0     C54720  10.447   6.932  10.020 -0.2050  0.7675 -0.8502
  406MOL0     C54721  10.344   7.030  10.018  0.5381  0.3745  0.2519
  406MOL0     O54722  10.226   7.290   9.959 -0.2648 -0.1247  0.1309
  406MOL0     C54723  10.047   7.386  10.253 -0.7648  0.5021 -0.7071
  406MOL0     C54724   9.989   7.503  10.316 -0.2750  0.9054 -0.1383
  406MOL0     N54725  10.054   8.161  10.526 -0.7324  0.2306  0.3174
  406MOL0     N54726   9.983   8.245  10.594  0.5329 -0.4004  0.7522
  406MOL0     C54727   8.911   8.288  10.199  0.4879 -0.3310 -0.2301
  406MOL0     C54728   8.782   8.311  10.265 -0.0859  0.4395 -0.4217
  406MOL0     C54729   8.475   8.266  10.594  0.3440  0.8738 -0.2889
  406MOL0     C54730   8.393   8.153  10.585  0.0124 -0.4362  0.5305
  406MOL0     C54731   8.275   8.139  10.650 -0.4508  0.1184  0.1435
  406MOL0     C54732   8.218   8.242  10.727 -0.8166 -0.7727 -0.4867
  406MOL0     O54733   8.089   8.236  10.771 -0.2810 -0.4553 -0.3495
  406MOL0     C54734   8.049   8.346  10.856 -0.5488  0.2484  0.4965
  406MOL0     C54735   7.909   8.325  10.922 -0.3299  0.0658  0.2792
  406MOL0     C54736   7.788   8.278  10.835  0.7749 -0.7923 -1.1272
  406MOL0     C54737   7.751   8.360  10.719 -0.1680 -0.6020 -0.1896
  406MOL0     C54738   7.756   8.278  10.598 -0.3695 -0.2353  0.2276
  406MOL0     C54739   7.744   8.201  10.501 -0.8603 -0.3421  0.3598
  406MOL0     C54740   8.299   8.362  10.731 -0.3497 -0.1207  0.6279
  406MOL0     C54741   8.429   8.371  10.674  0.1342 -0.1181  0.5026
  406MOL0     C54742   8.502   8.504  10.686 -0.1774  0.9505 -0.2830
  406MOL0     H54743   8.737   7.975  10.343  1.9036 -0.8868 -1.9134
  406MOL0     H54744   8.955   7.954  10.246 -0.0755 -0.5492  0.3694
  406MOL0     H54745   9.170   8.340  10.198  0.8316  1.4425 -2.5026
  406MOL0     H54746   9.214   8.184  10.282 -1.5649 -1.9051 -1.7825
  406MOL0     H54747   9.334   8.261  10.009  2.0804 -0.5901 -0.3245
  406MOL0     H54748   9.356   8.120  10.091  2.8296  1.4113 -0.9462
  406MOL0     H54749   9.528   8.301  10.117 -0.0145 -1.2151  0.5137
  406MOL0     H54750   9.492   8.208  10.252 -0.9537 -1.3448  0.9568
  406MOL0     H54751   9.368   8.480  10.206  0.2865 -0.5666 -0.1035
  406MOL0     H54752   9.351   8.382  10.349 -2.8152  0.4881 -2.9339
  406MOL0     H54753   9.623   8.461  10.270  0.0889 -0.7974  0.6781
  406MOL0     H54754   9.528   8.558  10.378  0.2226  0.1056  0.2938
  406MOL0     H54755   9.483   8.365  10.540 -1.1067  2.1517  0.1146
  406MOL0     H54756   9.587   8.269  10.438  2.9999  0.9094 -1.6865
  406MOL0     H54757   9.687   8.502  10.601 -4.1173 -2.5072  2.5320
  406MOL0     H54758   9.776   8.423  10.467  0.5175  1.9737  0.9663
  406MOL0     H54759   9.778   8.344  10.721  0.2984  0.3603 -0.1348
  406MOL0     H54760   9.654   8.232  10.667 -0.0168 -0.8201  1.2227
  406MOL0     H54761   9.753   8.114  10.402  0.7794 -0.7865 -0.4041
  406MOL0     H54762   9.935   7.980  10.260 -2.7443  0.6301  2.9243
  406MOL0     H54763  10.052   8.106  10.222 -0.1560  2.1045  1.1501
  406MOL0     H54764  10.168   7.884  10.260  1.1598 -0.0696  1.4762
  406MOL0     H54765  10.217   7.982  10.387  1.5371 -1.7171 -1.5510
  406MOL0     H54766  10.092   7.859  10.553 -2.0015  0.3257 -0.0225
  406MOL0     H54767  10.146   7.732  10.441 -2.3494 -2.2491  0.0182
  406MOL0     H54768   9.864   7.855  10.446  0.7765  0.4643  0.7489
  406MOL0     H54769   9.913   7.700  10.501  2.2585  0.6546  0.6774
  406MOL0     H54770  10.026   7.724  10.079  1.0366  1.1110  3.3145
  406MOL0     H54771  10.125   7.533   9.963 -0.6258  4.7656  1.1760
  406MOL0     H54772  10.361   7.102  10.352  1.5810  2.7900  0.1678
  406MOL0     H54773  10.511   6.893  10.343 -0.6385 -4.0946 -1.0468
  406MOL0     H54774  10.547   6.685  10.000 -1.9984 -2.4642  1.8501
  406MOL0     H54775  10.717   6.745   9.990 -3.0107  1.6794 -1.4350
  406MOL0     H54776  10.609   6.569  10.219 -1.5380 -0.2774 -0.7764
  406MOL0     H54777  10.668   6.495  10.081  0.2998 -0.4440 -0.6429
  406MOL0     H54778  10.838   6.490  10.245  0.3347 -0.1433  0.8905
  406MOL0     H54779  10.899   6.615  10.133  0.3791  0.9427  1.0323
  406MOL0     H54780  10.743   6.690  10.379  0.7994 -1.4807  0.1887
  406MOL0     H54781  10.859   6.801  10.302  0.4901  1.6837  2.7753
  406MOL0     H54782  10.922   6.560  10.469  2.1388 -0.8303 -1.6278
  406MOL0     H54783  10.943   6.739  10.506 -0.5756 -0.4026  1.0199
  406MOL0     H54784  11.102   6.572  10.289  0.9818 -1.8852  1.6687
  406MOL0     H54785  11.121   6.748  10.342 -2.8012  0.4574  0.7070
  406MOL0     H54786  11.159   6.517  10.527 -2.6537 -0.5105 -2.1254
  406MOL0     H54787  11.190   6.673  10.573 -1.0861 -4.9556  4.6763
  406MOL0     H54788  11.402   6.569  10.502 -0.6183  1.3604  2.0130
  406MOL0     H54789  11.355   6.558  10.331  1.6243 -1.3082  1.3636
  406MOL0     H54790  10.473   6.887   9.925  2.0173  0.2244 -0.0471
  406MOL0     H54791  10.277   7.042   9.934 -0.1742 -2.9294  0.2090
  406MOL0     H54792  10.035   7.293  10.306 -0.7783  0.1755 -1.2705
  406MOL0     H54793   9.959   7.483  10.419  0.5204  1.5017  0.2150
  406MOL0     H54794   8.969   8.378  10.185  2.4165 -1.3303  0.8824
  406MOL0     H54795   8.735   8.409  10.269  1.5327  1.4044 -2.6369
  406MOL0     H54796   8.431   8.066  10.532 -2.3752 -1.5815  0.5297
  406MOL0     H54797   8.215   8.050  10.633  1.8853 -2.2271  3.0054
  406MOL0     H54798   8.047   8.436  10.794  0.7399  1.0794  1.5919
  406MOL0     H54799   8.130   8.361  10.928 -0.1747  2.6374 -0.3058
  406MOL0     H54800   7.883   8.413  10.983  0.8366  0.4212  0.2865
  406MOL0     H54801   7.926   8.241  10.990 -2.0894 -0.1131  0.5582
  406MOL0     H54802   7.703   8.294  10.901  1.3654 -0.3732 -0.4475
  406MOL0     H54803   7.780   8.171  10.813  0.3498 -0.5446 -2.2409
  406MOL0     H54804   7.650   8.402  10.724  0.8387  1.9419  0.4859
  406MOL0     H54805   7.832   8.433  10.717 -0.4471 -0.2872 -0.1119
  406MOL0     H54806   7.731   8.137  10.416  0.9188  0.6873 -0.7644
  406MOL0     H54807   8.256   8.450  10.777 -2.8572 -0.0897 -1.5354
  406MOL0     H54808   8.447   8.598  10.683 -0.3986  0.8256 -0.2057
  406MOL0     H54809   8.562   8.504  10.778 -0.0678 -0.9675 -0.3136
  406MOL0     H54810   8.576   8.513  10.606 -1.6578 -0.2815 -1.8810
  407MOL0     O54811   1.449   0.156   1.167  0.2722  0.2947  0.8503
  407MOL0     C54812   1.479   0.267   1.121  1.2109 -0.6245 -0.4195
  407MOL0     O54813   1.600   0.305   1.079 -0.5193  0.1189 -0.7659
  407MOL0     C54814   1.718   0.232   1.115  0.7202 -0.1296 -0.8457
  407MOL0     C54815   1.821   0.233   1.028  0.7326 -0.7828  0.8820
  407MOL0     C54816   1.940   0.158   1.039 -0.2751 -0.2906  0.0648
  407MOL0     C54817   1.953   0.083   1.154  0.7695  0.6046 -0.6634
  407MOL0     O54818   2.073   0.024   1.158 -0.3282  0.0754 -0.2540
  407MOL0     C54819   2.163   0.082   1.264  0.8917  0.9903  0.9692
  407MOL0     C54820   2.281   0.168   1.225 -0.0838 -1.3302  0.4196
  407MOL0     C54821   2.363   0.216   1.344 -1.2725  0.1831 -0.0873
  407MOL0     C54822   2.278   0.254   1.470  0.8635  0.6210 -0.4167
  407MOL0     C54823   2.351   0.316   1.583  0.6394 -0.2073 -0.8352
  407MOL0     C54824   2.424   0.449   1.552 -0.0001 -0.0474  0.3242
  407MOL0     C54825   2.480   0.521   1.676 -0.1202 -0.0856 -0.8576
  407MOL0     C54826   2.615   0.458   1.709 -0.1084  0.0535  0.0937
  407MOL0     N54827   2.656   0.486   1.853 -0.2305  0.0707  0.8062
  407MOL0     C54828   2.743   0.571   1.905  0.0883  0.7036  0.7571
  407MOL0     C54829   2.734   0.558   2.046 -0.1332  0.2587  0.6554
  407MOL0     C54830   2.805   0.637   2.158  0.4022 -0.6220 -0.4861
  407MOL0     C54831   2.713   0.748   2.212 -1.1935  0.8591  0.2979
  407MOL0     C54832   2.777   0.843   2.319 -0.2666  0.1498  0.7669
  407MOL0     C54833   2.852   0.770   2.431 -0.2020 -0.2797 -0.8805
  407MOL0     O54834   2.905   0.850   2.536  0.0234 -0.1556 -0.8934
  407MOL0     C54835   3.028   0.909   2.520 -0.2115  0.9987  1.8668
  407MOL0     C54836   3.084   0.995   2.612  0.3231  1.0487 -0.1023
  407MOL0     C54837   3.202   1.064   2.598 -0.0297 -0.0062 -0.2651
  407MOL0     C54838   3.287   1.047   2.483 -0.1129  0.3206 -0.5986
  407MOL0     C54839   3.409   1.118   2.469 -0.7703  0.0118  0.8791
  407MOL0     O54840   3.449   1.201   2.566 -0.4067 -0.4053 -0.2603
  407MOL0     C54841   3.570   1.266   2.547 -0.6640 -0.8299 -0.0138
  407MOL0     C54842   3.697   1.221   2.592  0.2710 -0.7638  0.3061
  407MOL0     C54843   3.814   1.298   2.580 -0.3939 -0.3208 -0.0074
  407MOL0     C54844   3.803   1.417   2.519  0.1137  0.1766  0.7254
  407MOL0     O54845   3.915   1.499   2.532 -0.0825 -0.3822 -0.5588
  407MOL0     C54846   3.907   1.637   2.507  0.4065  0.2470 -0.2290
  407MOL0     C54847   3.847   1.708   2.628  0.0865 -0.1522 -0.6491
  407MOL0     C54848   3.941   1.702   2.748 -0.1236 -1.0125  0.5422
  407MOL0     C54849   3.899   1.826   2.845 -0.3012  0.1736 -0.3433
  407MOL0     C54850   3.993   1.829   2.976 -0.0424  0.2551 -0.2799
  407MOL0     C54851   4.008   1.972   3.039  1.8369  0.9767  0.1898
  407MOL0     C54852   4.061   1.977   3.176  0.2989 -0.3511 -0.5736
  407MOL0     C54853   4.171   2.093   3.171  0.0322  0.5757 -0.4691
  407MOL0    Cl54854   4.259   2.087   3.318  0.0581 -0.4365 -0.1939
  407MOL0     C54855   3.690   1.456   2.450 -0.4049  0.2704 -0.2699
  407MOL0     C54856   3.567   1.387   2.469 -0.6189 -0.3683  0.3359
  407MOL0     O54857   3.477   1.088   2.365  0.1939 -0.8004  0.2066
  407MOL0     C54858   3.234   0.965   2.388  0.2225  0.6774 -0.1652
  407MOL0     C54859   3.108   0.902   2.400 -0.5597 -0.0524  0.6438
  407MOL0     N54860   2.650   0.451   2.070  0.0195  0.1016 -0.5915
  407MOL0     N54861   2.587   0.434   1.953 -0.5735  0.0374  0.2792
  407MOL0     C54862   1.850   0.076   1.252  0.4856  0.2977 -0.3642
  407MOL0     C54863   1.732   0.151   1.233 -0.3958 -0.2223 -0.5852
  407MOL0     C54864   1.382   0.382   1.132 -0.7291  0.1210  0.1895
  407MOL0     C54865   1.427   0.507   1.079  0.3669  0.5707  0.5717
  407MOL0     C54866   1.353   0.626   1.088 -0.1049  0.5296 -0.3914
  407MOL0     C54867   1.238   0.618   1.156 -0.0990 -0.3875 -0.2651
  407MOL0     O54868   1.177   0.739   1.182 -0.0569  0.0945  1.2961
  407MOL0     C54869   1.223   0.797   1.304 -0.5433  0.3279 -0.5321
  407MOL0     C54870   1.125   0.782   1.434 -0.0167  0.1534 -0.6256
  407MOL0     C54871   1.199   0.809   1.566  0.5310 -1.4188  0.1252
  407MOL0     C54872   1.116   0.812   1.692  1.3238  0.1755 -0.6252
  407MOL0     C54873   1.001   0.712   1.701 -0.7638  0.2747  0.2319
  407MOL0     C54874   0.895   0.654   1.716  0.3199 -0.1218  0.2597
  407MOL0     C54875   1.191   0.493   1.220 -0.6716  0.3247  0.0788
  407MOL0     C54876   1.257   0.376   1.207 -0.9864  0.7583  0.6736
  407MOL0     C54877   1.222   0.263   1.291  0.7709  0.7209  0.5892
  407MOL0     H54878   1.814   0.299   0.942 -0.1929  0.2897  1.7513
  407MOL0     H54879   2.014   0.167   0.960 -2.1657 -0.3337 -1.7998
  407MOL0     H54880   2.092   0.146   1.317 -0.8558 -0.3511  0.3768
  407MOL0     H54881   2.205   0.001   1.324  0.7232 -1.6382 -2.1763
  407MOL0     H54882   2.224   0.252   1.183 -1.5881 -2.5893 -0.1093
  407MOL0     H54883   2.350   0.132   1.148  0.5175  1.5375 -0.5482
  407MOL0     H54884   2.424   0.305   1.327 -0.1690 -0.3398  1.0044
  407MOL0     H54885   2.434   0.139   1.373 -0.1007  1.9175  1.9590
  407MOL0     H54886   2.192   0.318   1.450 -0.6148 -1.0024  0.5521
  407MOL0     H54887   2.225   0.165   1.505 -0.7552  0.8457 -2.1530
  407MOL0     H54888   2.282   0.334   1.666  3.1388 -3.6794  2.2652
  407MOL0     H54889   2.426   0.242   1.609  2.8070  2.1633  0.0733
  407MOL0     H54890   2.502   0.432   1.477 -0.3923 -0.6728  0.0492
  407MOL0     H54891   2.350   0.517   1.508 -0.1238 -1.2112 -1.3688
  407MOL0     H54892   2.399   0.509   1.748 -0.0777 -2.9772 -1.1721
  407MOL0     H54893   2.497   0.627   1.652  1.3554  0.8924  3.5440
  407MOL0     H54894   2.604   0.349   1.700 -2.0387  0.0393  1.9004
  407MOL0     H54895   2.683   0.506   1.638 -0.5565  0.5018 -0.0384
  407MOL0     H54896   2.800   0.648   1.854  2.8076 -1.2644  0.6658
  407MOL0     H54897   2.829   0.578   2.247  1.0543  2.3587  1.4709
  407MOL0     H54898   2.896   0.676   2.110  0.3585 -3.5143 -3.2616
  407MOL0     H54899   2.678   0.801   2.123 -3.0535 -0.6442  0.0817
  407MOL0     H54900   2.630   0.699   2.264  0.9699 -2.4463  0.9946
  407MOL0     H54901   2.703   0.915   2.355 -1.4982 -0.6545 -0.0727
  407MOL0     H54902   2.852   0.897   2.260  0.7333 -0.7339  1.1919
  407MOL0     H54903   2.936   0.710   2.395 -1.8063 -3.1962 -0.0874
  407MOL0     H54904   2.796   0.696   2.489  2.4677 -0.8964  1.1332
  407MOL0     H54905   3.030   1.005   2.706  2.8279 -1.1902  1.7582
  407MOL0     H54906   3.227   1.124   2.685 -1.7495  0.9384 -0.3691
  407MOL0     H54907   3.698   1.120   2.632 -3.0699 -0.0932  2.4921
  407MOL0     H54908   3.913   1.263   2.608  1.5060  2.5580 -2.3857
  407MOL0     H54909   4.010   1.673   2.500 -0.7685  3.8448 -1.3256
  407MOL0     H54910   3.858   1.669   2.415  2.6717 -0.0249 -1.6181
  407MOL0     H54911   3.846   1.814   2.602  1.3087  0.0753  0.1637
  407MOL0     H54912   3.752   1.657   2.647  0.6329 -0.7042  0.7159
  407MOL0     H54913   3.958   1.611   2.807 -1.7121 -0.8911  1.2297
  407MOL0     H54914   4.036   1.728   2.700 -0.3568  2.4463  1.6641
  407MOL0     H54915   3.795   1.815   2.876 -0.3917 -0.3450 -0.8118
  407MOL0     H54916   3.907   1.925   2.800  0.9442  1.1546  1.8619
  407MOL0     H54917   4.087   1.779   2.950  1.2069  0.0633  3.8313
  407MOL0     H54918   3.946   1.758   3.044  4.0254 -1.6663  0.8799
  407MOL0     H54919   4.068   2.027   2.965  4.2001 -2.6059 -0.8064
  407MOL0     H54920   3.907   2.011   3.056  1.3849 -0.3862  0.7626
  407MOL0     H54921   4.108   1.884   3.210 -3.5459 -2.0471  0.6029
  407MOL0     H54922   3.980   1.996   3.247  1.2336  0.3824  0.3229
  407MOL0     H54923   4.241   2.096   3.088 -0.1055  0.2593 -0.5986
  407MOL0     H54924   4.110   2.184   3.170  0.0393  0.6298 -3.4626
  407MOL0     H54925   3.691   1.551   2.396  1.5748  0.2080 -0.4108
  407MOL0     H54926   3.483   1.425   2.412  0.5091 -0.6817 -1.6439
  407MOL0     H54927   3.287   0.955   2.294  1.8858  0.3176  0.7737
  407MOL0     H54928   3.084   0.839   2.315 -2.0659  2.1870 -0.7237
  407MOL0     H54929   1.862   0.032   1.350 -1.3389  0.1998 -0.1585
  407MOL0     H54930   1.648   0.139   1.299 -0.8067 -1.8944 -1.3619
  407MOL0     H54931   1.518   0.512   1.020 -0.5192 -1.3560 -1.1048
  407MOL0     H54932   1.383   0.719   1.040  4.0218 -0.7945 -0.7657
  407MOL0     H54933   1.265   0.896   1.284 -0.8126 -0.1756 -4.3775
  407MOL0     H54934   1.305   0.737   1.344 -1.8598 -0.4113  1.1509
  407MOL0     H54935   1.078   0.683   1.425 -2.3035  1.1667 -0.5155
  407MOL0     H54936   1.028   0.832   1.425 -1.0127 -1.2459  1.5254
  407MOL0     H54937   1.253   0.903   1.554  0.7176 -1.6447 -0.8246
  407MOL0     H54938   1.277   0.732   1.570  0.7537 -1.2743 -1.0638
  407MOL0     H54939   1.175   0.774   1.776 -1.6370 -1.7528  0.7929
  407MOL0     H54940   1.073   0.911   1.708  2.6988  0.7793 -0.5707
  407MOL0     H54941   0.801   0.603   1.716  1.2320 -1.9000 -0.9207
  407MOL0     H54942   1.103   0.493   1.284  0.1491 -0.5237  1.2461
  407MOL0     H54943   1.126   0.278   1.340 -0.3375 -0.5495 -1.0817
  407MOL0     H54944   1.203   0.168   1.240 -1.5174 -0.2838  3.0860
  407MOL0     H54945   1.307   0.246   1.358  1.0008  3.4812  1.0990
  408MOL0     O54946  10.541   0.109  10.053  0.0687  0.2040 -0.1868
  408MOL0     C54947  10.469   0.100   9.950  0.3234  0.6470 -0.0891
  408MOL0     O54948  10.405  -0.005   9.907  0.4207  0.1346 -0.5554
  408MOL0     C54949  10.415  -0.138   9.959  0.6783 -1.0742 -0.9011
  408MOL0     C54950  10.535  -0.193  10.011 -0.1007  1.0436 -0.4457
  408MOL0     C54951  10.540  -0.323  10.077 -0.1225  1.0657  0.0581
  408MOL0     C54952  10.421  -0.397  10.077 -0.8105  0.2749  0.6102
  408MOL0     O54953  10.428  -0.520  10.143  0.4514 -0.7884  0.5450
  408MOL0     C54954  10.318  -0.575  10.222 -0.4513  0.0956  0.2651
  408MOL0     C54955  10.282  -0.715  10.160  0.5123  0.3263  0.0446
  408MOL0     C54956  10.202  -0.813  10.254 -0.7803  0.1214  0.4529
  408MOL0     C54957  10.246  -0.851  10.391  0.2013 -0.3318  1.4133
  408MOL0     C54958  10.134  -0.946  10.434  0.4674  0.1486 -0.6045
  408MOL0     C54959  10.155  -0.993  10.585 -0.6179  0.0962  0.4433
  408MOL0     C54960  10.070  -1.129  10.631 -0.0855 -0.3550 -0.4253
  408MOL0     C54961  10.105  -1.144  10.784 -1.1464 -0.4199  0.2428
  408MOL0     N54962  10.051  -1.251  10.861 -0.6671  0.3307 -0.7305
  408MOL0     C54963   9.943  -1.234  10.944 -1.2746  0.3976 -0.0620
  408MOL0     C54964   9.944  -1.349  11.022  0.2758  0.2625  0.4760
  408MOL0     C54965   9.838  -1.373  11.123 -1.1293  0.0809  0.7190
  408MOL0     C54966   9.707  -1.430  11.081 -0.6958 -0.1891 -0.1720
  408MOL0     C54967   9.733  -1.558  11.006 -0.9092 -0.9694 -0.2010
  408MOL0     C54968   9.606  -1.611  10.943  0.2749 -0.7608  0.4980
  408MOL0     O54969   9.504  -1.621  11.040 -0.6137  0.2719  0.0033
  408MOL0     C54970   9.494  -1.724  11.130 -1.1756 -0.2483  0.0021
  408MOL0     C54971   9.585  -1.837  11.122 -0.4429  0.0533  0.0462
  408MOL0     C54972   9.564  -1.939  11.213  0.3007 -0.4970 -0.5580
  408MOL0     C54973   9.445  -1.944  11.293  0.8865  0.2657 -0.0130
  408MOL0     C54974   9.404  -2.062  11.372 -1.0490 -0.5186  0.3282
  408MOL0     O54975   9.287  -2.075  11.431  0.5524  0.9125 -0.5004
  408MOL0     C54976   9.259  -2.188  11.499  0.6970 -0.0824 -0.4031
  408MOL0     C54977   9.281  -2.188  11.633 -0.3850  0.4451 -0.1381
  408MOL0     C54978   9.248  -2.294  11.706  0.0220 -0.1393 -0.1633
  408MOL0     C54979   9.180  -2.407  11.642  0.6357 -1.0470 -0.3938
  408MOL0     O54980   9.127  -2.513  11.709  0.3946  0.4508 -0.3577
  408MOL0     C54981   9.076  -2.489  11.838  0.6095  0.2912 -0.5741
  408MOL0     C54982   9.014  -2.628  11.880  0.1662 -0.5498 -0.1563
  408MOL0     C54983   8.900  -2.614  11.990 -0.6449  0.1830 -0.0332
  408MOL0     C54984   8.841  -2.733  12.062 -0.3042 -0.2599  0.6742
  408MOL0     C54985   8.933  -2.816  12.138 -0.6027 -0.6042  0.0057
  408MOL0     C54986   8.876  -2.866  12.275 -0.1614 -0.0867 -0.4029
  408MOL0     C54987   8.984  -2.916  12.370  0.1920  0.5454 -0.1054
  408MOL0     C54988   8.930  -2.943  12.512  0.4134  0.0632 -0.1789
  408MOL0    Cl54989   9.041  -3.039  12.603  0.7010 -0.2310 -0.0192
  408MOL0     C54990   9.154  -2.402  11.506  0.9949  0.0603  0.5952
  408MOL0     C54991   9.198  -2.293  11.440  0.2677 -0.0968  0.0150
  408MOL0     O54992   9.488  -2.155  11.365  0.4793  0.4002 -0.0721
  408MOL0     C54993   9.361  -1.838  11.295 -0.6420  0.9449 -0.0096
  408MOL0     C54994   9.397  -1.726  11.219 -0.0995 -0.1703 -0.2496
  408MOL0     N54995  10.038  -1.437  10.974 -0.5881 -0.8282  0.1505
  408MOL0     N54996  10.112  -1.371  10.889  0.1862  0.3221 -0.1483
  408MOL0     C54997  10.299  -0.337  10.042  0.1267 -0.3797 -0.1350
  408MOL0     C54998  10.301  -0.212   9.978  0.2504  0.6800 -0.0721
  408MOL0     C54999  10.455   0.225   9.869  0.5110 -0.3001  0.6757
  408MOL0     C55000  10.484   0.348   9.933  0.1138  0.8195  0.1139
  408MOL0     C55001  10.457   0.471   9.882  0.2543  0.0943  0.9643
  408MOL0     C55002  10.395   0.472   9.752 -0.5966 -0.3169 -0.3432
  408MOL0     O55003  10.355   0.593   9.697 -0.3391  1.0438  0.6146
  408MOL0     C55004  10.316   0.701   9.777  0.7425 -0.8147  0.6453
  408MOL0     C55005  10.263   0.814   9.687  0.4123  0.9934  0.6310
  408MOL0     C55006  10.369   0.868   9.582 -0.2959  0.5020 -0.5233
  408MOL0     C55007  10.326   0.822   9.445  1.2408  0.1774 -1.1927
  408MOL0     C55008  10.387   0.897   9.336  0.2747  0.7177  0.4161
  408MOL0     C55009  10.467   0.918   9.246  0.0480 -1.1431  0.6755
  408MOL0     C55010  10.386   0.353   9.677  0.3019 -0.6139  0.3879
  408MOL0     C55011  10.415   0.229   9.733  0.5591 -0.2653 -0.2013
  408MOL0     C55012  10.401   0.108   9.638 -1.6724  0.4968 -0.2217
  408MOL0     H55013  10.624  -0.137   9.982 -0.3002  1.4179 -0.3350
  408MOL0     H55014  10.633  -0.375  10.097 -0.0148  0.4369 -1.8372
  408MOL0     H55015  10.352  -0.594  10.325 -0.2998 -0.5572  0.1016
  408MOL0     H55016  10.235  -0.505  10.235 -1.5356 -0.8260 -1.3295
  408MOL0     H55017  10.374  -0.768  10.132  0.5448 -1.3233  2.9335
  408MOL0     H55018  10.222  -0.690  10.072  1.2830  2.2013 -0.0017
  408MOL0     H55019  10.183  -0.904  10.196 -2.4137  0.1623  0.8640
  408MOL0     H55020  10.102  -0.769  10.263 -1.8570 -2.1201  0.1974
  408MOL0     H55021  10.334  -0.917  10.379  1.0731  1.3216 -3.7984
  408MOL0     H55022  10.266  -0.774  10.465 -0.6655  3.2105 -1.7270
  408MOL0     H55023  10.043  -0.886  10.430  1.2512  1.3338 -0.9595
  408MOL0     H55024  10.124  -1.027  10.361 -1.5795  0.8948 -1.2440
  408MOL0     H55025  10.260  -1.010  10.609 -0.9435 -1.3339  0.9499
  408MOL0     H55026  10.140  -0.906  10.650  0.9273 -0.2226  1.2683
  408MOL0     H55027  10.096  -1.217  10.571  1.4397 -1.0092  1.0917
  408MOL0     H55028   9.966  -1.097  10.625  0.2130  0.5973 -0.7760
  408MOL0     H55029  10.213  -1.159  10.792 -0.2387  4.0063 -1.1362
  408MOL0     H55030  10.080  -1.057  10.846  0.7836  0.5723 -0.2986
  408MOL0     H55031   9.874  -1.150  10.946 -0.3491  1.2048 -0.8713
  408MOL0     H55032   9.878  -1.431  11.206  0.6487  0.6613  0.3147
  408MOL0     H55033   9.807  -1.276  11.163 -3.6758  0.5357 -1.9874
  408MOL0     H55034   9.639  -1.452  11.164 -0.8880 -3.3870 -1.0606
  408MOL0     H55035   9.650  -1.367  11.011 -0.2176  1.1020  0.5790
  408MOL0     H55036   9.763  -1.631  11.081 -5.3951 -0.9458  1.9140
  408MOL0     H55037   9.817  -1.550  10.936 -0.2934 -2.9578  0.2705
  408MOL0     H55038   9.639  -1.710  10.912 -0.0511 -1.4161  2.1125
  408MOL0     H55039   9.576  -1.557  10.853  3.1168  1.4359  0.7186
  408MOL0     H55040   9.668  -1.850  11.054 -1.1025 -0.8414 -0.6100
  408MOL0     H55041   9.635  -2.021  11.222  0.6542 -0.0181  2.0027
  408MOL0     H55042   9.318  -2.098  11.681 -0.9465  0.1385  0.8971
  408MOL0     H55043   9.272  -2.286  11.812  0.8778 -1.5753 -0.2197
  408MOL0     H55044   9.158  -2.468  11.908 -0.8926 -0.2756  1.4484
  408MOL0     H55045   8.999  -2.414  11.856  0.4507 -0.3691  1.8719
  408MOL0     H55046   8.967  -2.672  11.791 -4.0524  1.8734  0.6162
  408MOL0     H55047   9.102  -2.686  11.911  1.3113  0.7713 -0.8203
  408MOL0     H55048   8.949  -2.555  12.068  1.8694  1.0701 -2.1190
  408MOL0     H55049   8.815  -2.569  11.940 -0.1794 -1.3915 -2.4233
  408MOL0     H55050   8.787  -2.797  11.991 -0.4877 -1.7549  2.1041
  408MOL0     H55051   8.755  -2.700  12.121 -0.8303 -3.3140  1.7966
  408MOL0     H55052   9.022  -2.754  12.152 -0.4171 -1.2315  1.9263
  408MOL0     H55053   8.967  -2.902  12.079 -0.3092 -0.5474  0.0909
  408MOL0     H55054   8.810  -2.791  12.320 -1.9622 -1.4948 -0.5795
  408MOL0     H55055   8.802  -2.944  12.253  0.8895 -3.3851  5.4268
  408MOL0     H55056   9.073  -2.852  12.373  0.5686 -0.0043  1.8679
  408MOL0     H55057   8.999  -3.018  12.335 -3.0483 -0.6685  1.5508
  408MOL0     H55058   8.928  -2.841  12.552  2.6973  0.5153 -1.0660
  408MOL0     H55059   8.830  -2.987  12.524  1.6523 -2.7422  0.4621
  408MOL0     H55060   9.100  -2.484  11.460  3.4104 -1.2638 -0.0763
  408MOL0     H55061   9.171  -2.282  11.336  0.6605  0.7463 -0.0073
  408MOL0     H55062   9.280  -1.828  11.367 -1.1700 -1.4181 -0.1730
  408MOL0     H55063   9.332  -1.641  11.233 -2.0452 -2.0485  4.1005
  408MOL0     H55064  10.211  -0.400  10.036 -2.2212  2.5659  1.0643
  408MOL0     H55065  10.204  -0.180   9.941  0.3551 -1.9418 -2.9620
  408MOL0     H55066  10.519   0.350  10.035  2.4550 -1.0738 -0.5677
  408MOL0     H55067  10.466   0.561   9.943 -1.6445  0.0962  1.2783
  408MOL0     H55068  10.402   0.752   9.820  1.2881  1.1465 -2.4555
  408MOL0     H55069  10.232   0.681   9.844 -2.5714  3.5713 -1.6925
  408MOL0     H55070  10.241   0.896   9.756 -2.1270 -0.9263  2.2938
  408MOL0     H55071  10.171   0.775   9.643  0.5390 -1.0471  2.0015
  408MOL0     H55072  10.470   0.837   9.610 -1.4858 -1.6113  1.7822
  408MOL0     H55073  10.383   0.976   9.575  2.4547  0.1997 -0.7809
  408MOL0     H55074  10.344   0.715   9.443 -0.2018 -0.0766 -1.7496
  408MOL0     H55075  10.218   0.828   9.427  0.5654  1.6835  2.4704
  408MOL0     H55076  10.537   0.936   9.167 -2.1395  0.7447 -0.9813
  408MOL0     H55077  10.334   0.366   9.583  1.0359  0.1801  0.0816
  408MOL0     H55078  10.423   0.129   9.533  1.2152  0.0517  0.2309
  408MOL0     H55079  10.479   0.039   9.670  0.2433  1.7206 -1.9901
  408MOL0     H55080  10.301   0.066   9.654 -0.8475 -0.7564  1.9985
  409MOL0     O55081   7.188   4.450   4.655  0.8857  0.4995  0.0738
  409MOL0     C55082   7.246   4.439   4.549  0.0580 -0.0264 -0.1531
  409MOL0     O55083   7.215   4.346   4.454  0.1559  0.4254  0.3458
  409MOL0     C55084   7.096   4.274   4.479  0.4686  0.3474  0.6031
  409MOL0     C55085   6.979   4.303   4.404 -1.1619  1.2110  0.5431
  409MOL0     C55086   6.865   4.217   4.410 -0.1271  0.8172 -0.5221
  409MOL0     C55087   6.872   4.100   4.495 -0.0586 -0.4227 -0.2202
  409MOL0     O55088   6.761   4.022   4.511 -0.2005  0.3888  0.8103
  409MOL0     C55089   6.699   3.964   4.397 -1.0647  0.2150  0.1290
  409MOL0     C55090   6.562   4.028   4.354 -0.5653 -0.0445  0.0897
  409MOL0     C55091   6.448   4.006   4.454 -0.4592  0.2784  0.2634
  409MOL0     C55092   6.402   3.860   4.450 -0.9626 -0.1705  0.8660
  409MOL0     C55093   6.276   3.834   4.538 -0.6895  0.4467  0.3946
  409MOL0     C55094   6.315   3.861   4.685  0.3558  0.6956 -0.3040
  409MOL0     C55095   6.199   3.807   4.752  0.1961 -0.8112  0.0523
  409MOL0     C55096   6.204   3.837   4.901 -0.3274  1.3770  0.4149
  409MOL0     N55097   6.083   3.822   4.971  0.3877  0.0115  0.7179
  409MOL0     C55098   6.054   3.711   5.038  0.0421  0.1033 -0.1780
  409MOL0     C55099   5.919   3.716   5.070 -0.0231 -0.7502 -0.3089
  409MOL0     C55100   5.834   3.616   5.148 -0.3196  0.0700  0.2480
  409MOL0     C55101   5.827   3.640   5.296  0.4935  0.4877 -0.4651
  409MOL0     C55102   5.760   3.754   5.349  0.5136  0.2548 -0.0649
  409MOL0     C55103   5.797   3.782   5.499  0.5072  1.2729 -0.6018
  409MOL0     O55104   5.717   3.890   5.538 -0.2621 -0.3774  0.2946
  409MOL0     C55105   5.592   3.867   5.580 -0.3281  0.4825 -0.1797
  409MOL0     C55106   5.506   3.969   5.609  0.6835 -0.3732  0.8866
  409MOL0     C55107   5.368   3.952   5.653 -0.7924  0.3579 -0.3165
  409MOL0     C55108   5.313   3.823   5.663  0.6004 -0.3399 -0.5510
  409MOL0     C55109   5.177   3.785   5.721  0.8060 -0.8100 -0.0514
  409MOL0     O55110   5.086   3.881   5.746 -0.3845 -0.1396 -0.1887
  409MOL0     C55111   4.961   3.852   5.806 -0.4059  0.9792  0.4472
  409MOL0     C55112   4.921   3.948   5.890  0.0322 -0.4244 -0.4554
  409MOL0     C55113   4.812   3.931   5.975  0.9630 -0.3729 -0.2096
  409MOL0     C55114   4.727   3.819   5.955 -1.3200 -0.3124 -0.6412
  409MOL0     O55115   4.605   3.820   6.020  0.6016 -1.1695  0.0172
  409MOL0     C55116   4.525   3.704   6.013  0.3428 -0.1700 -0.7248
  409MOL0     C55117   4.403   3.740   6.091 -0.6759 -0.2303 -0.5861
  409MOL0     C55118   4.278   3.767   6.009 -0.4127  0.1155 -0.0446
  409MOL0     C55119   4.175   3.844   6.092 -0.0991  0.3096  0.1403
  409MOL0     C55120   4.082   3.948   6.026 -0.5228 -0.1702 -0.7038
  409MOL0     C55121   4.029   4.062   6.124 -0.1945  0.0334 -0.8587
  409MOL0     C55122   3.958   4.185   6.052 -0.4213 -1.2334  0.3802
  409MOL0     C55123   4.049   4.272   5.969  0.9917  0.2333 -0.3574
  409MOL0    Cl55124   3.979   4.429   5.916  0.3835  0.6768  0.3775
  409MOL0     C55125   4.760   3.722   5.860  0.2341  1.0931 -0.1869
  409MOL0     C55126   4.882   3.737   5.787 -0.0617 -0.7965  0.1391
  409MOL0     O55127   5.161   3.663   5.729  0.3445 -0.3877  0.7126
  409MOL0     C55128   5.398   3.718   5.640 -0.2289 -1.0842  0.6328
  409MOL0     C55129   5.531   3.740   5.598  0.5145 -0.0769  0.8890
  409MOL0     N55130   5.875   3.830   5.006 -0.1099 -0.3402  0.4107
  409MOL0     N55131   5.974   3.886   4.946 -0.2274 -0.0080  0.0485
  409MOL0     C55132   6.988   4.072   4.573 -0.6026  0.1138 -0.0698
  409MOL0     C55133   7.100   4.167   4.574 -0.6756  0.4839  0.3389
  409MOL0     C55134   7.365   4.522   4.522 -0.5520 -0.1464 -0.1227
  409MOL0     C55135   7.410   4.560   4.391 -0.6218 -0.1474 -0.8785
  409MOL0     C55136   7.523   4.642   4.367  0.7614 -0.2347 -0.1154
  409MOL0     C55137   7.609   4.687   4.462  0.3376 -0.3515 -0.5994
  409MOL0     O55138   7.720   4.757   4.444 -0.0661 -0.1331 -0.6686
  409MOL0     C55139   7.839   4.685   4.468  0.4420  0.4435 -0.3108
  409MOL0     C55140   7.950   4.783   4.477  0.8182  0.3628 -0.0084
  409MOL0     C55141   8.000   4.868   4.355  0.1565  1.2811 -0.7535
  409MOL0     C55142   8.100   4.971   4.400  0.3187 -0.0147  0.0337
  409MOL0     C55143   8.133   5.068   4.297 -0.1967 -0.1020 -0.0316
  409MOL0     C55144   8.150   5.145   4.196 -0.0224  0.1333  0.0158
  409MOL0     C55145   7.563   4.659   4.592  0.7310 -0.1549 -0.0092
  409MOL0     C55146   7.449   4.576   4.619  0.2314 -0.2114 -0.7388
  409MOL0     C55147   7.425   4.542   4.768 -0.5383 -0.0132 -0.6101
  409MOL0     H55148   6.979   4.400   4.356 -1.9641  1.0548  0.2038
  409MOL0     H55149   6.775   4.249   4.357 -0.0161 -0.9828 -1.8939
  409MOL0     H55150   6.770   3.972   4.314 -0.4035 -3.4367  0.1700
  409MOL0     H55151   6.677   3.859   4.420  1.2971  0.0113  1.7836
  409MOL0     H55152   6.536   3.982   4.259  0.5627  0.5529 -0.5272
  409MOL0     H55153   6.585   4.134   4.342  2.3689 -0.6684 -0.5996
  409MOL0     H55154   6.372   4.078   4.422  0.1989  0.6334 -0.5413
  409MOL0     H55155   6.496   4.035   4.548 -1.6550  0.7783  0.7427
  409MOL0     H55156   6.376   3.836   4.347 -0.2557 -1.2227  0.9202
  409MOL0     H55157   6.486   3.798   4.482 -2.0117 -1.8255  0.5270
  409MOL0     H55158   6.190   3.885   4.494  0.3060  0.7016 -1.3210
  409MOL0     H55159   6.266   3.726   4.522  0.3974  0.4831 -0.5964
  409MOL0     H55160   6.411   3.812   4.705  2.0734  1.7391 -4.8726
  409MOL0     H55161   6.321   3.970   4.696  0.9686  0.5457  0.9919
  409MOL0     H55162   6.194   3.698   4.749  1.3325 -0.8548 -0.9299
  409MOL0     H55163   6.111   3.845   4.700  0.8245  1.7935  0.7414
  409MOL0     H55164   6.261   3.755   4.947 -0.9558  1.5382  1.5102
  409MOL0     H55165   6.252   3.931   4.927 -0.4061  1.3229  0.7604
  409MOL0     H55166   6.130   3.652   5.088 -0.8574 -1.2105 -0.3407
  409MOL0     H55167   5.733   3.628   5.108 -0.3052 -0.6520 -0.0070
  409MOL0     H55168   5.868   3.516   5.123 -1.1752 -1.5058  4.4800
  409MOL0     H55169   5.779   3.552   5.342 -3.9332  1.4053 -2.7654
  409MOL0     H55170   5.927   3.663   5.334  0.3920  3.1837 -1.6748
  409MOL0     H55171   5.652   3.743   5.344  0.3628  1.2765  0.6247
  409MOL0     H55172   5.794   3.836   5.286  1.0486 -0.8143 -1.2096
  409MOL0     H55173   5.904   3.799   5.515  0.4623 -0.7416  2.8097
  409MOL0     H55174   5.788   3.684   5.547  1.0018  0.3109 -2.3437
  409MOL0     H55175   5.548   4.068   5.610  1.9292 -0.8853  0.6580
  409MOL0     H55176   5.309   4.037   5.687  2.2437  2.0203  1.1704
  409MOL0     H55177   4.986   4.032   5.912  0.0310 -0.6968  0.6870
  409MOL0     H55178   4.786   4.000   6.054  0.5499 -3.2530  2.3361
  409MOL0     H55179   4.503   3.681   5.908  2.0952  0.7375 -1.3249
  409MOL0     H55180   4.581   3.624   6.063 -0.0229  0.1084  0.1543
  409MOL0     H55181   4.378   3.649   6.146 -0.3494 -1.1127 -1.8593
  409MOL0     H55182   4.416   3.809   6.175 -0.9250 -1.7013  0.7113
  409MOL0     H55183   4.307   3.816   5.916  0.3276  0.6166  0.4386
  409MOL0     H55184   4.238   3.670   5.977 -3.5296  1.7980 -1.6023
  409MOL0     H55185   4.227   3.894   6.174  2.7291 -1.6994 -0.2865
  409MOL0     H55186   4.110   3.769   6.136 -0.3708  1.0724  1.0761
  409MOL0     H55187   4.007   3.888   5.974 -0.4410  1.6975 -3.1917
  409MOL0     H55188   4.151   3.999   5.959  6.0164 -2.5072  3.3361
  409MOL0     H55189   3.962   4.010   6.193  1.5502 -0.4675  0.5013
  409MOL0     H55190   4.108   4.106   6.186 -1.4143  0.3729  0.5196
  409MOL0     H55191   3.908   4.246   6.128 -1.7413 -3.3614  1.2975
  409MOL0     H55192   3.885   4.140   5.984 -0.0995 -2.0665  0.5789
  409MOL0     H55193   4.126   4.301   6.041 -1.5516  0.6010  2.3927
  409MOL0     H55194   4.094   4.215   5.887 -0.7612 -0.8630 -0.6154
  409MOL0     H55195   4.696   3.635   5.846  0.5090  0.7761  0.4533
  409MOL0     H55196   4.914   3.647   5.736 -2.2653 -0.8340 -1.2879
  409MOL0     H55197   5.380   3.611   5.652 -1.3331 -0.9813 -0.0108
  409MOL0     H55198   5.582   3.645   5.592  0.1372 -0.2374  0.0597
  409MOL0     H55199   7.007   3.988   4.639  1.3100 -0.3339 -1.1014
  409MOL0     H55200   7.198   4.166   4.620  1.5495  2.8582 -3.7556
  409MOL0     H55201   7.360   4.519   4.304 -0.0278 -3.8899  0.3413
  409MOL0     H55202   7.543   4.669   4.264 -1.0536 -1.3400 -0.8128
  409MOL0     H55203   7.866   4.611   4.392  0.8461  0.0987  0.1629
  409MOL0     H55204   7.832   4.628   4.561  0.9947 -1.4824 -1.4002
  409MOL0     H55205   8.041   4.731   4.506  1.5774  0.9150 -1.2957
  409MOL0     H55206   7.943   4.846   4.566  1.1797  0.0139  0.2685
  409MOL0     H55207   7.919   4.914   4.298  0.8774  0.4233 -2.5483
  409MOL0     H55208   8.055   4.808   4.282 -0.5711  1.1616 -1.2162
  409MOL0     H55209   8.060   5.032   4.482  1.1082  1.5447 -0.7045
  409MOL0     H55210   8.189   4.911   4.423  0.0806 -2.3265 -4.1736
  409MOL0     H55211   8.179   5.200   4.108 -0.5473  0.2498 -0.0889
  409MOL0     H55212   7.632   4.686   4.671  1.8415 -3.0793  0.1689
  409MOL0     H55213   7.339   4.588   4.817  1.9401  3.3470  0.9840
  409MOL0     H55214   7.423   4.433   4.778 -0.8307  0.0477  0.0298
  409MOL0     H55215   7.512   4.573   4.826 -0.5506 -1.1541  0.0379
  410MOL0     O55216   9.284   2.935   5.680 -0.1609 -0.9536 -0.5262
  410MOL0     C55217   9.233   3.022   5.601  0.4278 -0.4035 -0.2411
  410MOL0     O55218   9.180   3.140   5.642 -0.0985  0.9880 -0.3576
  410MOL0     C55219   9.209   3.194   5.761  0.1260 -0.0495 -0.6162
  410MOL0     C55220   9.285   3.312   5.749 -0.5101  0.2981 -0.2199
  410MOL0     C55221   9.336   3.379   5.867 -0.4790  0.0747 -0.4973
  410MOL0     C55222   9.290   3.333   5.999 -0.3700 -0.9113 -0.2027
  410MOL0     O55223   9.331   3.418   6.095 -0.3259  0.1858 -0.7615
  410MOL0     C55224   9.244   3.431   6.205  0.9341 -0.3880 -0.0446
  410MOL0     C55225   9.263   3.560   6.286 -0.2029 -0.1753 -0.4190
  410MOL0     C55226   9.407   3.564   6.334  0.2251 -0.6608  0.1240
  410MOL0     C55227   9.426   3.686   6.424  0.8420  0.2369  0.3621
  410MOL0     C55228   9.569   3.709   6.452 -0.2677  0.1420  0.3570
  410MOL0     C55229   9.648   3.590   6.518 -0.4733  0.2516  0.0393
  410MOL0     C55230   9.792   3.626   6.561 -0.1488 -0.1018 -0.3307
  410MOL0     C55231   9.795   3.728   6.671  0.0433 -0.0063 -0.5413
  410MOL0     N55232   9.934   3.791   6.687  0.7483  0.0125 -0.8449
  410MOL0     C55233   9.976   3.891   6.602  0.1975  0.2139  0.6585
  410MOL0     C55234  10.090   3.935   6.657  0.2800 -0.6204 -0.0989
  410MOL0     C55235  10.165   4.053   6.604 -0.1057 -0.5276 -0.4683
  410MOL0     C55236  10.287   4.013   6.518 -0.8377 -0.1035  0.5435
  410MOL0     C55237  10.381   3.918   6.585 -0.3204 -0.0261 -0.3909
  410MOL0     C55238  10.360   3.768   6.539  0.0689 -0.3154  0.1683
  410MOL0     O55239  10.419   3.763   6.403  0.1958  0.0659  0.3146
  410MOL0     C55240  10.356   3.695   6.304  0.6320  0.6929  0.0348
  410MOL0     C55241  10.299   3.572   6.331  0.3884  0.1268 -0.4365
  410MOL0     C55242  10.243   3.491   6.234  0.4928 -0.7733  0.0764
  410MOL0     C55243  10.241   3.530   6.101 -0.2482  0.2934 -0.0640
  410MOL0     C55244  10.210   3.427   5.996  0.4982  0.0812 -0.5548
  410MOL0     O55245  10.144   3.308   6.044 -0.7391  0.1310  0.1396
  410MOL0     C55246  10.139   3.217   5.940  0.1073  1.5852 -0.2856
  410MOL0     C55247  10.232   3.108   5.922  0.1544 -0.7504 -0.3697
  410MOL0     C55248  10.232   3.028   5.803 -0.9017 -0.6800  0.1621
  410MOL0     C55249  10.132   3.045   5.706  0.9594  0.8739 -0.3528
  410MOL0     O55250  10.133   2.957   5.598  0.0324 -0.0053  0.3637
  410MOL0     C55251  10.167   2.820   5.627 -0.0288  0.4054  0.0298
  410MOL0     C55252  10.177   2.740   5.497 -0.6359 -0.2035 -0.4919
  410MOL0     C55253  10.113   2.810   5.381 -0.6377  0.7303  0.5291
  410MOL0     C55254  10.089   2.732   5.255  0.0926  0.5327 -0.2980
  410MOL0     C55255   9.991   2.615   5.261  0.5716  1.0640  0.7661
  410MOL0     C55256   9.957   2.569   5.113 -0.1785  0.0429  0.2099
  410MOL0     C55257   9.859   2.444   5.094  0.4474 -0.7377 -0.5376
  410MOL0     C55258   9.841   2.387   4.958 -0.1261  0.5174 -0.2495
  410MOL0    Cl55259   9.761   2.491   4.841 -0.2369  0.3932  0.3207
  410MOL0     C55260  10.032   3.139   5.730 -0.6499  0.0964 -0.9602
  410MOL0     C55261  10.037   3.227   5.845 -0.6668  0.3721  1.0123
  410MOL0     O55262  10.245   3.450   5.879 -1.1277 -0.2499 -0.6435
  410MOL0     C55263  10.294   3.654   6.068  0.7296  0.6877  0.0679
  410MOL0     C55264  10.345   3.743   6.173 -0.4529  0.4318  0.4782
  410MOL0     N55265  10.124   3.857   6.770 -0.6556  0.0016  0.2317
  410MOL0     N55266  10.022   3.776   6.785  0.5796  0.2738 -0.5149
  410MOL0     C55267   9.211   3.223   6.010 -0.2056  0.1727 -0.2182
  410MOL0     C55268   9.181   3.144   5.896  0.7009  0.0686  0.5367
  410MOL0     C55269   9.217   2.984   5.461  0.1011 -0.7289  0.3100
  410MOL0     C55270   9.223   2.844   5.432 -0.5872  0.8743  0.5655
  410MOL0     C55271   9.181   2.787   5.315  0.0481 -0.3353 -0.1917
  410MOL0     C55272   9.132   2.878   5.216 -0.3111  0.4133 -0.6359
  410MOL0     O55273   9.094   2.843   5.089 -0.9180  0.4461  0.5477
  410MOL0     C55274   9.097   2.702   5.059 -0.6443 -0.1164 -0.4018
  410MOL0     C55275   9.039   2.664   4.926  0.4519 -0.0226 -0.8431
  410MOL0     C55276   9.024   2.503   4.900  0.6048 -0.3473  1.0570
  410MOL0     C55277   8.926   2.484   4.776  0.7327 -0.2110  0.1619
  410MOL0     C55278   8.881   2.348   4.782  0.3147 -0.1661  0.6191
  410MOL0     C55279   8.833   2.236   4.801  0.0217  0.0530  0.1225
  410MOL0     C55280   9.133   3.015   5.234 -1.1457 -0.2565  0.4238
  410MOL0     C55281   9.173   3.071   5.354 -0.3821 -0.0496 -0.0731
  410MOL0     C55282   9.143   3.221   5.377  0.2411  1.1587  0.7058
  410MOL0     H55283   9.315   3.347   5.651 -2.5338 -2.6063 -2.0330
  410MOL0     H55284   9.397   3.468   5.860 -0.7556  0.5254  1.7987
  410MOL0     H55285   9.144   3.430   6.161  1.8099 -1.3387 -2.1556
  410MOL0     H55286   9.268   3.345   6.268 -1.4951 -0.3930  0.9975
  410MOL0     H55287   9.199   3.550   6.375  3.1093  2.2427  2.5260
  410MOL0     H55288   9.228   3.645   6.226  0.1953  0.2607 -0.0482
  410MOL0     H55289   9.473   3.551   6.247  2.8461 -1.2853  2.0974
  410MOL0     H55290   9.419   3.471   6.388 -4.9294 -1.1813  0.9230
  410MOL0     H55291   9.387   3.783   6.392 -1.1425 -0.7641 -0.4870
  410MOL0     H55292   9.375   3.671   6.519  0.6032  1.7905  0.5010
  410MOL0     H55293   9.621   3.738   6.360 -0.8713  0.9484  0.2555
  410MOL0     H55294   9.570   3.797   6.516 -4.2101  1.3674 -0.9514
  410MOL0     H55295   9.587   3.557   6.602 -1.3738 -1.6234 -1.2702
  410MOL0     H55296   9.646   3.517   6.436 -1.5541  0.9584 -0.5786
  410MOL0     H55297   9.845   3.658   6.471 -0.3169  1.8665  0.2210
  410MOL0     H55298   9.834   3.529   6.588 -2.1622 -1.8152 -2.8996
  410MOL0     H55299   9.718   3.806   6.665  0.6273  0.5867 -0.4542
  410MOL0     H55300   9.779   3.682   6.769 -0.4886  0.2980 -0.4834
  410MOL0     H55301   9.921   3.924   6.515 -2.6263  1.2708  2.6930
  410MOL0     H55302  10.090   4.102   6.542  0.7465  0.6934 -0.5598
  410MOL0     H55303  10.194   4.121   6.685 -1.8823 -1.0691  0.6791
  410MOL0     H55304  10.252   3.974   6.422 -3.0996  2.0435  0.3793
  410MOL0     H55305  10.343   4.105   6.499 -0.5661 -0.4642 -0.4532
  410MOL0     H55306  10.386   3.920   6.695  2.0759 -4.1099 -0.1991
  410MOL0     H55307  10.487   3.934   6.564  0.3061 -1.5968  1.3014
  410MOL0     H55308  10.253   3.748   6.543 -0.6551  1.9616 -3.4284
  410MOL0     H55309  10.401   3.682   6.593 -1.3173 -1.1662 -0.0903
  410MOL0     H55310  10.304   3.523   6.427  0.3300  0.4207 -0.2822
  410MOL0     H55311  10.208   3.394   6.269 -1.1890 -0.0105  0.6457
  410MOL0     H55312  10.304   3.109   6.003 -0.4003 -0.7113  0.1322
  410MOL0     H55313  10.316   2.962   5.784 -0.9428  0.1058 -3.4589
  410MOL0     H55314  10.267   2.808   5.669 -0.6135 -2.5279  0.8384
  410MOL0     H55315  10.098   2.765   5.692  1.0975  1.1115  1.9184
  410MOL0     H55316  10.284   2.729   5.478  0.4589 -1.3007  4.6522
  410MOL0     H55317  10.134   2.640   5.514 -0.7873  0.0308  0.5969
  410MOL0     H55318  10.016   2.849   5.413  0.4807  1.3288  3.5069
  410MOL0     H55319  10.177   2.894   5.355  1.2452 -1.3856 -2.3490
  410MOL0     H55320  10.186   2.697   5.218 -1.7240 -0.9399 -4.3513
  410MOL0     H55321  10.059   2.796   5.172 -0.9815  0.8646  0.3314
  410MOL0     H55322   9.907   2.642   5.326 -0.9892 -0.9536 -0.3121
  410MOL0     H55323  10.047   2.537   5.314  0.7364  0.9978  0.4962
  410MOL0     H55324   9.911   2.660   5.074 -2.9580 -1.5775 -0.5228
  410MOL0     H55325  10.052   2.554   5.060  2.6314  2.0631  4.1458
  410MOL0     H55326   9.760   2.484   5.116  1.0799  2.2526 -2.5021
  410MOL0     H55327   9.868   2.368   5.172 -4.4055  0.1440  1.2399
  410MOL0     H55328   9.941   2.367   4.918 -0.7778 -0.0342 -1.6758
  410MOL0     H55329   9.786   2.292   4.956  1.4344 -0.4303 -2.2618
  410MOL0     H55330   9.944   3.166   5.673 -0.4392  0.3354 -1.1774
  410MOL0     H55331   9.967   3.307   5.863  0.7528  2.2355 -1.1896
  410MOL0     H55332  10.292   3.698   5.968 -1.0330  1.8565  0.5643
  410MOL0     H55333  10.378   3.843   6.147 -0.6295 -0.3595 -3.4302
  410MOL0     H55334   9.179   3.181   6.105 -1.0915  1.3721  0.0454
  410MOL0     H55335   9.127   3.050   5.897  1.7246 -0.5274  0.8628
  410MOL0     H55336   9.260   2.776   5.508  2.5132  1.6181 -0.1092
  410MOL0     H55337   9.174   2.679   5.305  0.8852 -0.5724  1.4930
  410MOL0     H55338   9.043   2.657   5.143 -1.0470 -1.1800 -1.1952
  410MOL0     H55339   9.201   2.672   5.043 -0.6051  1.1084 -3.1416
  410MOL0     H55340   9.096   2.717   4.849  2.2835 -0.4004  0.1964
  410MOL0     H55341   8.936   2.702   4.918 -0.5821 -2.9658 -4.2597
  410MOL0     H55342   8.967   2.466   4.986 -2.7171  1.0494 -0.3851
  410MOL0     H55343   9.125   2.463   4.885  0.9525  0.7107  0.4524
  410MOL0     H55344   8.838   2.548   4.777  0.7582 -0.0513 -2.2652
  410MOL0     H55345   8.981   2.523   4.690  4.0689 -0.6214  1.9396
  410MOL0     H55346   8.810   2.134   4.821 -0.1491  0.4500  2.1385
  410MOL0     H55347   9.104   3.071   5.146  0.4814 -0.2605 -0.1399
  410MOL0     H55348   9.067   3.245   5.451  1.7828  0.0792  2.7295
  410MOL0     H55349   9.242   3.259   5.404  1.6182 -1.1626 -0.7268
  410MOL0     H55350   9.122   3.256   5.275 -0.2819 -3.0956 -0.8266
  411MOL0     O55351   5.785   5.502   2.198 -0.6396  0.0832  0.0626
  411MOL0     C55352   5.759   5.559   2.302 -0.0015  0.4975  0.2753
  411MOL0     O55353   5.743   5.504   2.427 -0.1581 -0.3345 -0.7251
  411MOL0     C55354   5.764   5.375   2.451  0.4784 -0.1181  0.0535
  411MOL0     C55355   5.685   5.280   2.392  0.0173  0.0466 -0.4634
  411MOL0     C55356   5.711   5.149   2.423  0.2533 -0.8014 -0.1418
  411MOL0     C55357   5.819   5.099   2.506  0.6629  0.3849 -0.1035
  411MOL0     O55358   5.827   4.966   2.531 -0.3025 -0.5186  1.1741
  411MOL0     C55359   5.933   4.902   2.602  0.5122  0.0999 -0.2711
  411MOL0     C55360   5.883   4.763   2.646  0.0325  0.2630  0.7821
  411MOL0     C55361   5.971   4.685   2.741  0.0492 -0.6575  0.1762
  411MOL0     C55362   6.063   4.579   2.676 -0.4378  0.4747 -0.1151
  411MOL0     C55363   6.140   4.493   2.782 -0.0225 -0.0991 -0.1019
  411MOL0     C55364   6.249   4.419   2.704  0.7733 -0.0990  0.4352
  411MOL0     C55365   6.305   4.309   2.800 -0.5164  0.2453  0.1829
  411MOL0     C55366   6.445   4.296   2.776 -0.0539  0.1015  0.2116
  411MOL0     N55367   6.521   4.390   2.869 -0.2849 -0.3573 -0.4828
  411MOL0     C55368   6.566   4.352   2.996 -0.4593  0.2188  0.0644
  411MOL0     C55369   6.604   4.471   3.063 -0.0622  0.2908 -0.4615
  411MOL0     C55370   6.646   4.487   3.203  0.0152 -0.7484 -0.6232
  411MOL0     C55371   6.708   4.626   3.245 -0.1706  0.4092  1.2648
  411MOL0     C55372   6.732   4.635   3.396 -0.7234 -0.6995 -0.5181
  411MOL0     C55373   6.748   4.782   3.428  0.4345  0.6655  0.2267
  411MOL0     O55374   6.776   4.772   3.566  0.2146 -0.3554 -0.1959
  411MOL0     C55375   6.806   4.877   3.643  0.1115  0.3479 -1.3169
  411MOL0     C55376   6.804   5.008   3.607  0.2114 -0.1408 -0.1989
  411MOL0     C55377   6.848   5.111   3.697 -0.1681 -0.1758  0.0656
  411MOL0     C55378   6.888   5.074   3.823  0.1636 -0.0906 -1.1448
  411MOL0     C55379   6.939   5.178   3.908 -0.4899  1.0454 -0.0663
  411MOL0     O55380   6.961   5.305   3.860 -0.2824 -0.1038 -0.0661
  411MOL0     C55381   7.022   5.393   3.935 -0.4366 -0.1088  0.1458
  411MOL0     C55382   7.154   5.372   3.980  0.2084 -0.4489  0.3878
  411MOL0     C55383   7.217   5.480   4.047  0.0256 -0.4534 -1.3262
  411MOL0     C55384   7.156   5.602   4.071 -0.1058  0.3229  0.2843
  411MOL0     O55385   7.239   5.702   4.124  0.6307  0.3844  0.8424
  411MOL0     C55386   7.192   5.839   4.109 -0.0231 -0.3690 -0.1583
  411MOL0     C55387   7.090   5.900   4.205 -0.4176  0.8218  0.3569
  411MOL0     C55388   7.130   5.861   4.348  0.3145 -0.2332  0.2753
  411MOL0     C55389   7.017   5.901   4.444 -0.7438 -0.6906  0.1052
  411MOL0     C55390   7.041   5.879   4.594 -0.6549 -0.1537  0.0849
  411MOL0     C55391   7.114   5.992   4.663  0.2669 -0.3637  0.1092
  411MOL0     C55392   7.085   5.975   4.819  0.4905 -1.1730  0.3915
  411MOL0     C55393   7.119   6.108   4.897  0.3885 -0.5945  1.4097
  411MOL0    Cl55394   7.049   6.098   5.061  0.1414  0.2535 -0.2832
  411MOL0     C55395   7.023   5.611   4.032 -0.0162  1.1076  0.3743
  411MOL0     C55396   6.956   5.514   3.959  0.3989  0.7593 -0.2647
  411MOL0     O55397   6.960   5.142   4.025 -1.1832  0.5401  0.5601
  411MOL0     C55398   6.889   4.936   3.856  0.9700 -0.1138 -0.4547
  411MOL0     C55399   6.844   4.839   3.770 -0.1424 -0.4222 -0.3788
  411MOL0     N55400   6.601   4.565   2.960 -0.6886  0.0960 -0.1443
  411MOL0     N55401   6.544   4.527   2.847  0.5880  0.0136 -0.0517
  411MOL0     C55402   5.898   5.201   2.557 -0.4310 -0.3111 -0.4844
  411MOL0     C55403   5.872   5.335   2.530  0.1253 -0.1993  0.3606
  411MOL0     C55404   5.714   5.702   2.274 -0.2977  0.2659  0.3631
  411MOL0     C55405   5.761   5.770   2.153 -0.4959 -0.1642 -0.4211
  411MOL0     C55406   5.731   5.906   2.134 -0.0125 -0.4263 -0.7588
  411MOL0     C55407   5.646   5.982   2.215  0.1374 -0.3395  0.6831
  411MOL0     O55408   5.604   6.104   2.156 -0.7632  0.1155 -0.3111
  411MOL0     C55409   5.484   6.159   2.191 -0.3741 -0.1106 -0.6341
  411MOL0     C55410   5.512   6.300   2.254 -0.3087 -0.1965 -0.0511
  411MOL0     C55411   5.372   6.370   2.267  0.2952  0.2589  0.4936
  411MOL0     C55412   5.246   6.286   2.320 -0.2992  0.4610 -0.3470
  411MOL0     C55413   5.285   6.203   2.429  0.1143 -0.8992 -0.1094
  411MOL0     C55414   5.326   6.125   2.517  0.5774  0.0141  0.3519
  411MOL0     C55415   5.610   5.923   2.335 -0.0566  0.4633  0.0171
  411MOL0     C55416   5.644   5.785   2.369  0.1858 -0.3381  0.4768
  411MOL0     C55417   5.604   5.737   2.502 -0.5692 -0.3376  0.8450
  411MOL0     H55418   5.602   5.309   2.328  0.0602 -1.4337 -1.2283
  411MOL0     H55419   5.651   5.074   2.372  3.4207 -1.7873 -2.7547
  411MOL0     H55420   6.027   4.889   2.547  0.4810  0.7409 -0.4805
  411MOL0     H55421   5.953   4.961   2.691 -0.6558  2.0091 -1.2040
  411MOL0     H55422   5.850   4.694   2.568  2.5261 -0.6707  0.4544
  411MOL0     H55423   5.795   4.783   2.707 -2.1834 -2.5327 -1.2574
  411MOL0     H55424   5.912   4.646   2.825  0.5308  0.7929  1.2365
  411MOL0     H55425   6.035   4.753   2.797 -0.8323  0.4534 -0.1438
  411MOL0     H55426   5.997   4.517   2.615 -0.7708 -0.7609  1.4417
  411MOL0     H55427   6.128   4.639   2.611 -0.4724 -2.1746 -2.8290
  411MOL0     H55428   6.197   4.555   2.852  0.8523 -0.2262 -0.6773
  411MOL0     H55429   6.065   4.430   2.829  1.0479 -1.0058  0.4379
  411MOL0     H55430   6.210   4.370   2.614 -0.9847 -0.1868  1.2073
  411MOL0     H55431   6.320   4.495   2.671 -1.2982  2.8817  2.3392
  411MOL0     H55432   6.243   4.221   2.780 -2.5600  0.9676  2.7808
  411MOL0     H55433   6.283   4.335   2.904  0.9646 -1.0937  0.8626
  411MOL0     H55434   6.483   4.199   2.811  2.9335  2.0019  2.7773
  411MOL0     H55435   6.463   4.302   2.669  0.6412 -0.4575  0.2890
  411MOL0     H55436   6.568   4.249   3.033 -1.3000 -0.0488 -0.6103
  411MOL0     H55437   6.561   4.464   3.267 -0.0899  0.1898 -0.4049
  411MOL0     H55438   6.719   4.408   3.223  1.5464  1.0871  1.7003
  411MOL0     H55439   6.803   4.631   3.191 -2.6858  3.2940 -3.6011
  411MOL0     H55440   6.638   4.704   3.211 -2.3338 -1.9231  0.0148
  411MOL0     H55441   6.814   4.577   3.438 -0.5924 -0.3909 -0.3427
  411MOL0     H55442   6.640   4.601   3.446 -0.7023 -2.9543 -1.8752
  411MOL0     H55443   6.655   4.834   3.401  2.6051  2.4342 -5.1692
  411MOL0     H55444   6.839   4.819   3.380  0.6894  1.2959  1.1589
  411MOL0     H55445   6.784   5.042   3.506 -5.1302 -0.6356  0.4372
  411MOL0     H55446   6.848   5.217   3.675  0.7047 -0.0074  0.8286
  411MOL0     H55447   7.201   5.276   3.958  2.6049  1.2637 -2.8872
  411MOL0     H55448   7.309   5.446   4.092 -0.7554 -1.8043 -0.6880
  411MOL0     H55449   7.280   5.904   4.106 -2.6025  3.6947  2.2971
  411MOL0     H55450   7.142   5.848   4.012 -0.6071  3.2970  0.3530
  411MOL0     H55451   7.069   6.005   4.183  2.5306  0.9640 -2.7123
  411MOL0     H55452   6.999   5.841   4.194  0.3282 -0.3037  0.0565
  411MOL0     H55453   7.137   5.753   4.363 -2.2193 -0.1340  3.1418
  411MOL0     H55454   7.220   5.910   4.387  1.4180  2.1097 -4.4910
  411MOL0     H55455   6.932   5.838   4.417 -0.8588 -0.7583  0.6262
  411MOL0     H55456   6.980   6.003   4.426 -0.3774 -0.1158  2.2907
  411MOL0     H55457   7.093   5.787   4.622  2.4437  1.0867 -1.0892
  411MOL0     H55458   6.940   5.877   4.636  0.5014  2.6887  3.5707
  411MOL0     H55459   7.223   5.999   4.656  0.4542  2.4383  3.1171
  411MOL0     H55460   7.070   6.087   4.632  3.7239  0.8392 -1.5719
  411MOL0     H55461   7.137   5.891   4.865 -1.8046 -2.7644  0.2602
  411MOL0     H55462   6.979   5.950   4.835  0.0462 -1.0462 -1.9956
  411MOL0     H55463   7.228   6.109   4.891  0.3417  1.0005 -3.1956
  411MOL0     H55464   7.086   6.198   4.844  0.1196  0.0511  2.6418
  411MOL0     H55465   6.965   5.703   4.037  0.9824  1.7915 -0.1471
  411MOL0     H55466   6.864   5.523   3.903  1.6724  0.5308 -2.5405
  411MOL0     H55467   6.921   4.898   3.952  0.5920  2.0682  0.5854
  411MOL0     H55468   6.853   4.735   3.799 -0.1600  0.4596  3.3741
  411MOL0     H55469   5.984   5.179   2.620  0.0706  1.3043 -0.5760
  411MOL0     H55470   5.941   5.410   2.568  1.4638 -1.2212  0.0088
  411MOL0     H55471   5.837   5.724   2.091 -0.8939 -1.9137  0.3502
  411MOL0     H55472   5.774   5.965   2.054 -0.1771  1.3318  0.3976
  411MOL0     H55473   5.422   6.089   2.250 -0.9596  0.9764  0.0688
  411MOL0     H55474   5.430   6.175   2.097  0.5724  2.8006 -0.7632
  411MOL0     H55475   5.571   6.371   2.196 -0.2694  0.0217  0.2589
  411MOL0     H55476   5.559   6.290   2.352  1.4410  0.0958 -0.8308
  411MOL0     H55477   5.349   6.425   2.176 -2.6315 -2.9556 -0.9243
  411MOL0     H55478   5.387   6.463   2.322 -1.5320  1.8870 -1.5732
  411MOL0     H55479   5.178   6.360   2.363  1.7575  1.7100  0.9711
  411MOL0     H55480   5.203   6.232   2.235  2.0809 -1.4340 -0.4799
  411MOL0     H55481   5.367   6.075   2.603 -2.9324 -0.3948  2.0073
  411MOL0     H55482   5.557   5.982   2.409  1.4588 -1.6428  2.9799
  411MOL0     H55483   5.568   5.811   2.574  0.9130 -0.4953  1.8092
  411MOL0     H55484   5.545   5.645   2.504 -0.4918 -0.3906  0.7015
  411MOL0     H55485   5.697   5.712   2.555 -0.4252 -0.5207  0.5111
  412MOL0     O55486  11.067   8.398   9.392 -0.0572  0.8080 -0.0409
  412MOL0     C55487  10.977   8.484   9.421 -0.9302  0.5199  1.5461
  412MOL0     O55488  10.843   8.461   9.434 -0.2902  0.0069  1.3831
  412MOL0     C55489  10.787   8.333   9.417  0.2027  0.5600 -0.3350
  412MOL0     C55490  10.823   8.215   9.479 -0.2827 -0.8932 -0.8949
  412MOL0     C55491  10.755   8.089   9.462 -0.4710  0.8668 -0.4626
  412MOL0     C55492  10.645   8.083   9.374 -0.8741 -1.0216  0.0369
  412MOL0     O55493  10.584   7.961   9.341  0.0000 -1.2150 -0.1435
  412MOL0     C55494  10.494   7.925   9.455 -0.3137  0.0180  0.2274
  412MOL0     C55495  10.541   7.814   9.545 -0.6332 -1.0120 -0.7907
  412MOL0     C55496  10.607   7.704   9.470 -0.3444 -0.5734 -0.0730
  412MOL0     C55497  10.506   7.629   9.377 -1.0912 -0.4732 -0.1623
  412MOL0     C55498  10.559   7.551   9.259  0.4679 -0.6646 -0.6749
  412MOL0     C55499  10.659   7.444   9.283  0.3616 -0.6038 -0.5927
  412MOL0     C55500  10.682   7.365   9.152 -0.1262  0.1195 -0.1423
  412MOL0     C55501  10.780   7.248   9.160  0.0586 -0.4952 -0.4268
  412MOL0     N55502  10.844   7.224   9.023 -0.4532 -0.2471 -0.3285
  412MOL0     C55503  10.958   7.153   8.998 -0.8546  0.5952 -1.3421
  412MOL0     C55504  10.948   7.112   8.869  0.8529  0.5482  0.0464
  412MOL0     C55505  11.037   7.023   8.799  0.2947 -0.3051  0.2364
  412MOL0     C55506  11.134   7.108   8.713 -0.1926 -0.4420 -0.0442
  412MOL0     C55507  11.259   7.031   8.696 -0.2581 -0.2332  0.0132
  412MOL0     C55508  11.376   7.109   8.639  1.5486 -0.5361  0.1722
  412MOL0     O55509  11.343   7.153   8.505 -0.5584 -0.3683  0.2409
  412MOL0     C55510  11.338   7.053   8.409 -0.6339  0.1774 -0.3661
  412MOL0     C55511  11.459   7.014   8.342 -0.3217  0.5846 -0.7715
  412MOL0     C55512  11.470   6.905   8.253  0.5096  0.3016 -0.1863
  412MOL0     C55513  11.364   6.822   8.239  0.8987  0.2785  0.1331
  412MOL0     C55514  11.384   6.689   8.184 -0.3478  0.2665 -0.3668
  412MOL0     O55515  11.504   6.670   8.116  0.3858 -0.6361  0.2403
  412MOL0     C55516  11.539   6.545   8.081  0.4932  1.0930 -0.3141
  412MOL0     C55517  11.607   6.536   7.961  0.4248  0.1257 -0.1734
  412MOL0     C55518  11.640   6.413   7.905  0.0478 -0.0606 -0.6577
  412MOL0     C55519  11.618   6.294   7.981 -0.1092 -1.0186  2.0609
  412MOL0     O55520  11.623   6.170   7.924 -0.3206 -0.1499  0.6424
  412MOL0     C55521  11.656   6.157   7.782 -0.7169  0.9750  0.2163
  412MOL0     C55522  11.623   6.015   7.722 -0.1623 -0.9262  0.2269
  412MOL0     C55523  11.475   5.980   7.715  0.8647  0.7010  0.3394
  412MOL0     C55524  11.469   5.890   7.589 -0.6521  0.0820 -0.2846
  412MOL0     C55525  11.333   5.812   7.560 -0.0065 -0.8362 -0.4146
  412MOL0     C55526  11.216   5.920   7.576 -0.0034 -0.1575  0.7386
  412MOL0     C55527  11.084   5.849   7.551  0.1286  0.6741 -0.4576
  412MOL0     C55528  10.963   5.891   7.634 -0.0247  0.1797  0.9478
  412MOL0    Cl55529  10.802   5.829   7.572 -0.5186  0.2725  0.1724
  412MOL0     C55530  11.574   6.308   8.113 -0.0426  0.2710 -0.2415
  412MOL0     C55531  11.532   6.433   8.161  1.0712 -0.4811  0.3888
  412MOL0     O55532  11.303   6.598   8.204  0.3448  0.1714  0.6129
  412MOL0     C55533  11.243   6.856   8.301  0.8253  0.1316  0.8666
  412MOL0     C55534  11.226   6.973   8.366  0.0644 -0.0487  0.0254
  412MOL0     N55535  10.838   7.177   8.815  0.5435 -0.4717 -0.7832
  412MOL0     N55536  10.775   7.250   8.908  0.4454  0.4373  0.9054
  412MOL0     C55537  10.602   8.205   9.320 -0.4145 -0.1024 -0.0482
  412MOL0     C55538  10.669   8.321   9.338 -0.1393 -0.0352  0.7515
  412MOL0     C55539  11.032   8.614   9.458 -1.3512 -0.1975  0.2973
  412MOL0     C55540  10.938   8.722   9.464 -0.0277  0.7824  0.7241
  412MOL0     C55541  10.978   8.853   9.481 -0.1835 -0.3692  0.1957
  412MOL0     C55542  11.111   8.885   9.490 -0.1928 -0.5914 -0.6406
  412MOL0     O55543  11.134   9.018   9.518  0.4261  0.2988 -0.2327
  412MOL0     C55544  11.164   9.098   9.414  0.1610 -0.8127  1.1572
  412MOL0     C55545  11.317   9.120   9.403  0.3638 -1.2250 -0.3090
  412MOL0     C55546  11.359   9.164   9.258  0.1793  1.2523  0.5152
  412MOL0     C55547  11.352   9.311   9.230 -0.3896  0.0729 -0.3964
  412MOL0     C55548  11.398   9.333   9.095 -0.7009 -0.7553  0.4390
  412MOL0     C55549  11.443   9.349   8.984 -0.3145 -0.3355  0.8240
  412MOL0     C55550  11.201   8.788   9.475  0.8369 -0.1147 -0.4813
  412MOL0     C55551  11.171   8.649   9.450 -0.6493 -0.1524  0.4348
  412MOL0     C55552  11.286   8.554   9.419  0.3358  0.0211 -0.1995
  412MOL0     H55553  10.907   8.221   9.546  0.1393  1.3455 -1.5438
  412MOL0     H55554  10.792   8.004   9.518 -0.6824  0.4675 -0.9274
  412MOL0     H55555  10.466   8.016   9.508 -0.3373  0.3473 -0.3375
  412MOL0     H55556  10.400   7.892   9.409  0.4707 -2.2667  0.1139
  412MOL0     H55557  10.465   7.775   9.614  1.2022 -0.2867  1.7995
  412MOL0     H55558  10.610   7.869   9.611 -0.5435 -1.5732 -0.4070
  412MOL0     H55559  10.649   7.623   9.531 -1.6251 -0.9846  0.3030
  412MOL0     H55560  10.685   7.756   9.415  0.6471  0.1190  1.9126
  412MOL0     H55561  10.440   7.566   9.438  0.4349 -0.0766  2.0266
  412MOL0     H55562  10.448   7.712   9.335  1.5601  1.5069 -0.1700
  412MOL0     H55563  10.474   7.510   9.205 -0.7123 -0.8294  1.2124
  412MOL0     H55564  10.617   7.618   9.194  1.7562 -1.1503 -0.0623
  412MOL0     H55565  10.749   7.496   9.318 -1.6076  2.0476  0.9832
  412MOL0     H55566  10.633   7.379   9.367 -0.3843 -1.1714 -1.2476
  412MOL0     H55567  10.714   7.437   9.076  0.1888 -1.6360 -1.7803
  412MOL0     H55568  10.589   7.323   9.112  1.7483 -1.6091 -3.0821
  412MOL0     H55569  10.847   7.272   9.242 -1.0731 -4.3406  1.8577
  412MOL0     H55570  10.735   7.158   9.203  1.1711 -0.2936  1.2366
  412MOL0     H55571  11.036   7.120   9.065  0.4324 -1.4838 -3.6838
  412MOL0     H55572  11.078   6.942   8.861  0.1272 -1.3642 -1.0043
  412MOL0     H55573  10.985   6.962   8.725 -0.3741 -0.8037  1.0953
  412MOL0     H55574  11.081   7.111   8.618  1.2336 -0.8371 -0.8909
  412MOL0     H55575  11.146   7.207   8.758 -0.0999 -0.9723  1.1360
  412MOL0     H55576  11.248   6.939   8.638  3.2628  0.8365 -2.7105
  412MOL0     H55577  11.297   7.008   8.796  1.3813  0.6791 -0.3684
  412MOL0     H55578  11.472   7.057   8.647  1.8334  0.1025  1.2082
  412MOL0     H55579  11.380   7.202   8.698  0.5155  0.7111 -1.6141
  412MOL0     H55580  11.548   7.077   8.343  1.0100 -1.1123 -3.1723
  412MOL0     H55581  11.556   6.884   8.190  0.0868 -1.0138 -0.3433
  412MOL0     H55582  11.631   6.630   7.914  1.3293  0.4660  0.9169
  412MOL0     H55583  11.689   6.406   7.809  1.4470 -1.7179  0.1182
  412MOL0     H55584  11.606   6.223   7.710 -0.0051 -0.9621 -2.1699
  412MOL0     H55585  11.764   6.172   7.775 -0.8357  3.2068  2.1101
  412MOL0     H55586  11.680   5.996   7.631 -0.8364 -3.5343  0.2429
  412MOL0     H55587  11.664   5.946   7.797 -0.0946 -0.5341  0.5497
  412MOL0     H55588  11.437   5.940   7.809 -0.5974  2.3616  0.5035
  412MOL0     H55589  11.409   6.066   7.702 -1.3865 -1.1130 -0.8476
  412MOL0     H55590  11.535   5.804   7.608 -0.9572  0.1225  1.0193
  412MOL0     H55591  11.501   5.940   7.497  1.1699  1.1654  0.8758
  412MOL0     H55592  11.323   5.743   7.645  0.9944  1.8020  2.0252
  412MOL0     H55593  11.333   5.763   7.463 -0.3887 -2.0866  0.1879
  412MOL0     H55594  11.221   5.970   7.673 -1.6658 -0.3391  0.9550
  412MOL0     H55595  11.230   6.005   7.508 -0.3987  1.1821  2.2566
  412MOL0     H55596  11.097   5.744   7.581  1.1109  1.0862  0.6357
  412MOL0     H55597  11.068   5.855   7.443  0.2986  2.5142 -0.4148
  412MOL0     H55598  10.972   5.835   7.728 -0.4063 -0.7272  0.4535
  412MOL0     H55599  10.944   5.994   7.666 -2.7162 -0.2128  0.8222
  412MOL0     H55600  11.561   6.217   8.171 -1.7854 -0.8171 -2.2068
  412MOL0     H55601  11.478   6.436   8.256  0.4828 -1.7547  0.1253
  412MOL0     H55602  11.152   6.797   8.289 -0.2343  2.0232 -1.1954
  412MOL0     H55603  11.124   6.998   8.394 -0.6129 -1.3148 -1.1897
  412MOL0     H55604  10.521   8.198   9.248 -2.0545  0.1954  1.6705
  412MOL0     H55605  10.632   8.411   9.289  1.6740  0.5108  0.2958
  412MOL0     H55606  10.833   8.695   9.455 -0.9073  4.4287 -3.9047
  412MOL0     H55607  10.906   8.934   9.490 -0.3851 -0.5815  0.5230
  412MOL0     H55608  11.110   9.193   9.420  1.7304  0.0113  3.7158
  412MOL0     H55609  11.133   9.049   9.321 -2.3859  2.1714  0.2674
  412MOL0     H55610  11.366   9.025   9.426  1.8843  0.3597  3.9916
  412MOL0     H55611  11.348   9.199   9.471 -0.9908  0.6337 -1.7540
  412MOL0     H55612  11.310   9.096   9.188 -0.2342 -0.8508  2.7387
  412MOL0     H55613  11.466   9.142   9.247  0.1349  1.4479 -0.4267
  412MOL0     H55614  11.257   9.360   9.249  1.2127  2.4771  2.2052
  412MOL0     H55615  11.424   9.356   9.300  0.9704  0.0628 -1.7318
  412MOL0     H55616  11.491   9.369   8.890  1.3828  5.0760  2.4336
  412MOL0     H55617  11.304   8.823   9.486  0.1255  1.8054  0.4688
  412MOL0     H55618  11.380   8.609   9.410 -0.7129  2.1509  1.0034
  412MOL0     H55619  11.289   8.469   9.488 -0.3679 -2.0682 -2.6040
  412MOL0     H55620  11.268   8.517   9.318 -0.2114  0.2116 -0.1766
  413MOL0     O55621   2.513   9.156   5.735  0.1442 -0.7371 -0.4128
  413MOL0     C55622   2.516   9.272   5.688  0.1198 -0.0703 -0.6692
  413MOL0     O55623   2.417   9.366   5.710  0.4770  0.0565  0.4876
  413MOL0     C55624   2.300   9.316   5.758 -0.2751 -0.0038 -0.2641
  413MOL0     C55625   2.273   9.352   5.893  0.6534 -0.4829 -0.1703
  413MOL0     C55626   2.153   9.325   5.958 -0.4924  0.8824 -0.0775
  413MOL0     C55627   2.058   9.240   5.895 -0.4093 -0.6133  1.4552
  413MOL0     O55628   1.930   9.203   5.943  0.0848 -0.4204  0.5929
  413MOL0     C55629   1.898   9.261   6.068  0.4630  0.0854 -0.6661
  413MOL0     C55630   1.779   9.188   6.131 -0.2352 -0.2710 -0.0796
  413MOL0     C55631   1.647   9.249   6.080 -0.6781  0.2175  0.9940
  413MOL0     C55632   1.526   9.177   6.134  0.9719 -0.0321 -0.6789
  413MOL0     C55633   1.392   9.221   6.091 -0.6578 -0.5921 -0.0025
  413MOL0     C55634   1.275   9.144   6.147 -0.4247  0.1376  0.7642
  413MOL0     C55635   1.256   9.161   6.301  0.2869  0.8221 -0.3385
  413MOL0     C55636   1.117   9.116   6.370 -0.6483 -1.8821  0.2612
  413MOL0     N55637   1.128   9.148   6.513  0.2407  0.1604 -0.2022
  413MOL0     C55638   1.105   9.270   6.566 -0.4432 -0.4448 -0.2944
  413MOL0     C55639   1.144   9.266   6.698  0.2109 -0.1491  0.6117
  413MOL0     C55640   1.113   9.371   6.806  0.4638 -0.8883 -0.4157
  413MOL0     C55641   1.212   9.493   6.798  0.1673  0.5681  0.1721
  413MOL0     C55642   1.226   9.574   6.930 -0.1303  0.7799 -0.9854
  413MOL0     C55643   1.350   9.669   6.925  0.2738 -0.0494 -0.8666
  413MOL0     O55644   1.321   9.803   6.866 -0.2838  0.0799 -1.1896
  413MOL0     C55645   1.393   9.859   6.770  0.0820 -0.0501  1.2342
  413MOL0     C55646   1.325   9.945   6.682  0.5609 -0.4107 -0.2781
  413MOL0     C55647   1.378  10.016   6.580 -0.3943 -0.8332 -0.6027
  413MOL0     C55648   1.519  10.002   6.560  0.0812  0.1994 -0.4762
  413MOL0     C55649   1.592  10.062   6.437  0.5123 -0.0598 -0.7031
  413MOL0     O55650   1.704  10.005   6.389  0.3931  0.3924  0.6355
  413MOL0     C55651   1.807  10.080   6.326  0.2557  0.2553  0.4303
  413MOL0     C55652   1.799  10.177   6.235 -0.2211 -0.7600 -0.3448
  413MOL0     C55653   1.919  10.217   6.177 -0.3223 -0.3066  0.0377
  413MOL0     C55654   2.042  10.176   6.226  0.0695 -0.7115 -0.5330
  413MOL0     O55655   2.148  10.250   6.173 -0.5610 -0.9478 -0.1334
  413MOL0     C55656   2.248  10.308   6.262  0.6638  0.1953 -0.1274
  413MOL0     C55657   2.349  10.384   6.170 -0.1906  0.1733 -0.3622
  413MOL0     C55658   2.300  10.525   6.117 -0.9567  0.7004 -0.5856
  413MOL0     C55659   2.298  10.638   6.224  0.4847  0.4692 -0.7387
  413MOL0     C55660   2.314  10.777   6.180  0.2054  0.0438  0.1833
  413MOL0     C55661   2.318  10.878   6.301 -0.0792  0.3733 -0.2626
  413MOL0     C55662   2.328  11.024   6.250 -0.0067  0.7950 -0.4872
  413MOL0     C55663   2.447  11.056   6.152 -0.3722  0.9914 -1.0912
  413MOL0    Cl55664   2.450  11.225   6.136 -0.0462  0.1594 -0.2016
  413MOL0     C55665   2.047  10.083   6.327 -0.7923 -1.3017 -0.1729
  413MOL0     C55666   1.930  10.046   6.377  0.1810 -1.1243 -0.3256
  413MOL0     O55667   1.551  10.170   6.407 -0.4047  0.1850  0.0794
  413MOL0     C55668   1.598   9.923   6.644  0.1656 -0.3817 -0.2636
  413MOL0     C55669   1.527   9.845   6.741  0.1323  0.3578 -0.3200
  413MOL0     N55670   1.192   9.139   6.718  0.3188 -0.1483  0.5350
  413MOL0     N55671   1.180   9.066   6.610 -0.3446 -0.4134  0.1593
  413MOL0     C55672   2.081   9.194   5.759  0.2334  0.4292 -0.5428
  413MOL0     C55673   2.204   9.238   5.694  0.7401  0.3388  0.1912
  413MOL0     C55674   2.647   9.314   5.635 -1.1501 -0.0658 -0.0475
  413MOL0     C55675   2.666   9.456   5.635 -0.0458  0.8807  0.8564
  413MOL0     C55676   2.788   9.514   5.594  0.0759  0.1270  0.0303
  413MOL0     C55677   2.899   9.429   5.562  0.1762 -0.5141  0.0406
  413MOL0     O55678   3.005   9.510   5.534 -0.1682 -0.2073 -0.3914
  413MOL0     C55679   3.130   9.445   5.498 -0.4499 -0.6503 -0.3196
  413MOL0     C55680   3.245   9.544   5.506 -0.1650 -0.2542 -0.5858
  413MOL0     C55681   3.237   9.688   5.460  0.5328 -0.6429 -0.2851
  413MOL0     C55682   3.275   9.718   5.318 -0.1774 -0.4063 -0.1373
  413MOL0     C55683   3.417   9.676   5.297 -0.8901  0.1861  0.1429
  413MOL0     C55684   3.516   9.617   5.254  1.0627  0.7479 -0.6557
  413MOL0     C55685   2.881   9.288   5.552  0.3206  0.0894  0.3955
  413MOL0     C55686   2.753   9.231   5.585 -0.3769  0.3337  0.6841
  413MOL0     C55687   2.731   9.085   5.573  0.1387  0.4555  0.1902
  413MOL0     H55688   2.352   9.412   5.937  2.5476 -0.3532 -3.4681
  413MOL0     H55689   2.128   9.348   6.061  0.0927 -0.4674  0.3936
  413MOL0     H55690   1.975   9.239   6.142  0.9415  1.1166 -0.8426
  413MOL0     H55691   1.878   9.368   6.063  1.1255  0.4444  2.4820
  413MOL0     H55692   1.790   9.204   6.238  1.7126  2.5391 -0.5825
  413MOL0     H55693   1.790   9.082   6.106 -3.0968 -0.7904  0.5909
  413MOL0     H55694   1.640   9.247   5.971  0.4779  2.0841  0.8521
  413MOL0     H55695   1.648   9.356   6.106  1.3759  0.9877 -1.8442
  413MOL0     H55696   1.531   9.072   6.105 -3.8473 -1.0424  1.2222
  413MOL0     H55697   1.527   9.174   6.243  0.9615  2.2265 -0.5676
  413MOL0     H55698   1.385   9.325   6.124  1.7699  0.1853 -1.7096
  413MOL0     H55699   1.378   9.223   5.982  0.1058  1.6844 -0.1159
  413MOL0     H55700   1.187   9.170   6.089  1.9384  1.8427 -2.3429
  413MOL0     H55701   1.295   9.036   6.139  1.5519  0.5474 -0.6774
  413MOL0     H55702   1.276   9.263   6.336 -1.5849  1.0369  0.2208
  413MOL0     H55703   1.333   9.098   6.344  0.8077  0.3913 -1.8322
  413MOL0     H55704   1.028   9.167   6.331  0.8645  1.1052  0.4298
  413MOL0     H55705   1.103   9.012   6.341  2.0338 -2.4679  0.8068
  413MOL0     H55706   1.063   9.353   6.509  0.9514 -1.0462 -2.2928
  413MOL0     H55707   1.010   9.402   6.787 -0.5313 -1.5054  3.1705
  413MOL0     H55708   1.122   9.321   6.903  1.2724 -1.2157 -0.6464
  413MOL0     H55709   1.307   9.448   6.769 -1.0468 -1.6810 -0.5637
  413MOL0     H55710   1.179   9.561   6.718 -0.8201  1.8914  1.6444
  413MOL0     H55711   1.236   9.504   7.014  0.1062  0.8000 -0.9960
  413MOL0     H55712   1.142   9.644   6.935  0.6533  1.6729  1.9735
  413MOL0     H55713   1.427   9.614   6.871 -0.5995 -2.9623  0.6652
  413MOL0     H55714   1.384   9.670   7.030 -2.1520 -2.6732  0.0593
  413MOL0     H55715   1.216   9.953   6.684  0.6468  0.9542  0.0030
  413MOL0     H55716   1.325  10.084   6.515  2.0962  1.1941 -0.6546
  413MOL0     H55717   1.705  10.222   6.204 -0.0243 -0.1534 -0.0889
  413MOL0     H55718   1.922  10.292   6.098  1.3111 -0.0430  0.3262
  413MOL0     H55719   2.209  10.389   6.324  1.2456  1.1100 -0.9321
  413MOL0     H55720   2.288  10.228   6.324 -2.2410 -1.8009 -0.6087
  413MOL0     H55721   2.441  10.393   6.229 -0.8637  2.4207  0.4943
  413MOL0     H55722   2.371  10.324   6.082 -0.2716  0.3064 -0.4738
  413MOL0     H55723   2.364  10.545   6.031  0.8458 -0.0190  0.5446
  413MOL0     H55724   2.198  10.517   6.077 -1.4946 -1.3564  1.0293
  413MOL0     H55725   2.377  10.620   6.296  0.6267 -0.6004 -1.1475
  413MOL0     H55726   2.202  10.613   6.271  2.2997 -4.7639  0.8996
  413MOL0     H55727   2.243  10.806   6.102 -0.2423  1.5819  1.1034
  413MOL0     H55728   2.417  10.787   6.147  0.7719  0.4310  1.9415
  413MOL0     H55729   2.227  10.860   6.358  0.2683 -0.4454  0.0607
  413MOL0     H55730   2.398  10.847   6.370 -2.5376 -2.0424  1.7178
  413MOL0     H55731   2.341  11.077   6.345 -0.2956  2.8705 -1.5531
  413MOL0     H55732   2.233  11.043   6.201  0.3631 -0.9111 -1.9358
  413MOL0     H55733   2.533  11.016   6.206 -4.2549 -3.8813  2.4201
  413MOL0     H55734   2.429  11.001   6.060  1.6229 -3.4717  0.8934
  413MOL0     H55735   2.146  10.064   6.366 -1.4019 -1.5260  1.3397
  413MOL0     H55736   1.938   9.972   6.456  0.3958 -2.8459 -1.8767
  413MOL0     H55737   1.707   9.929   6.640  0.3953 -1.1579  2.4488
  413MOL0     H55738   1.577   9.767   6.798 -2.9340 -0.2502  1.8445
  413MOL0     H55739   2.004   9.129   5.720  2.3774 -3.8738  1.6137
  413MOL0     H55740   2.215   9.210   5.589 -0.6790  2.1317 -0.4957
  413MOL0     H55741   2.583   9.518   5.667 -0.5860  1.9617 -2.2986
  413MOL0     H55742   2.792   9.622   5.597  1.2829  0.2699 -3.1836
  413MOL0     H55743   3.125   9.429   5.390 -1.4119  3.0160 -0.9482
  413MOL0     H55744   3.153   9.356   5.557 -0.3850 -0.0913  0.5145
  413MOL0     H55745   3.319   9.496   5.441  2.4969  1.5752  0.8775
  413MOL0     H55746   3.269   9.544   5.613 -2.8254 -2.5544  0.1229
  413MOL0     H55747   3.300   9.742   5.531 -2.1904 -0.3194  2.0335
  413MOL0     H55748   3.138   9.729   5.478  1.5176  0.6319  2.8099
  413MOL0     H55749   3.204   9.675   5.247 -0.4791 -3.0212  1.6123
  413MOL0     H55750   3.264   9.827   5.317  0.3241 -0.3344  0.6029
  413MOL0     H55751   3.602   9.582   5.200  3.2699  3.9628  0.4269
  413MOL0     H55752   2.971   9.230   5.531  0.1219 -0.6600  1.5472
  413MOL0     H55753   2.640   9.063   5.516  0.8944 -1.7157 -0.2896
  413MOL0     H55754   2.814   9.037   5.521  0.5859  0.5196  0.8352
  413MOL0     H55755   2.723   9.040   5.672 -0.4510  0.3406  0.0958
  414MOL0     O55756   9.896   1.125   7.474  0.2289 -0.2166 -0.0079
  414MOL0     C55757   9.878   1.242   7.512 -0.2821  0.0152  0.1008
  414MOL0     O55758   9.759   1.295   7.519 -0.3548  0.7540  0.0340
  414MOL0     C55759   9.634   1.224   7.517 -0.9862  0.0587 -0.1814
  414MOL0     C55760   9.622   1.087   7.563  0.2841 -1.1524  0.5223
  414MOL0     C55761   9.499   1.032   7.592  0.1498  0.9676  0.4604
  414MOL0     C55762   9.383   1.102   7.574  0.5335 -0.2045 -0.2012
  414MOL0     O55763   9.255   1.057   7.585 -0.9895  0.8344  0.6605
  414MOL0     C55764   9.221   0.918   7.611  0.2743  0.1780  0.5355
  414MOL0     C55765   9.196   0.852   7.469 -0.1983  0.8396 -0.0492
  414MOL0     C55766   9.182   0.709   7.504  0.4270 -0.4348  0.0650
  414MOL0     C55767   9.139   0.621   7.382 -1.0418  0.4795 -0.1252
  414MOL0     C55768   9.057   0.496   7.430 -0.6375  0.1323 -0.4885
  414MOL0     C55769   9.026   0.396   7.315 -0.9408 -0.0392 -0.5779
  414MOL0     C55770   9.109   0.268   7.297  0.2104 -0.6977 -0.2938
  414MOL0     C55771   9.031   0.171   7.208 -1.1823 -0.4214 -0.4040
  414MOL0     N55772   9.027   0.211   7.067  0.1980 -0.2129 -0.7021
  414MOL0     C55773   8.959   0.323   7.016 -0.0672 -0.2042 -0.3738
  414MOL0     C55774   9.029   0.360   6.900  0.0758  0.9711 -0.6426
  414MOL0     C55775   9.003   0.475   6.810 -0.9984  0.1937 -0.3269
  414MOL0     C55776   9.006   0.430   6.661  0.6352 -0.8246 -0.0691
  414MOL0     C55777   8.885   0.343   6.614  0.1323 -0.4914 -0.0805
  414MOL0     C55778   8.888   0.306   6.476 -0.2624 -0.4360  0.6630
  414MOL0     O55779   8.783   0.347   6.383  0.1375  0.7432  0.5613
  414MOL0     C55780   8.785   0.311   6.249 -0.0662 -0.2488 -0.4363
  414MOL0     C55781   8.811   0.408   6.157  0.0851 -1.1847 -0.0224
  414MOL0     C55782   8.783   0.391   6.026 -0.0221 -0.5102 -0.1463
  414MOL0     C55783   8.705   0.282   5.982 -0.0801  1.2409  0.9405
  414MOL0     C55784   8.646   0.274   5.845  0.0760 -0.6346  1.5141
  414MOL0     O55785   8.636   0.401   5.787  0.4484  0.5056  0.1486
  414MOL0     C55786   8.557   0.406   5.677  0.3601  0.0255 -0.0073
  414MOL0     C55787   8.587   0.350   5.552  0.3949  0.3558 -0.6721
  414MOL0     C55788   8.505   0.365   5.450  0.4446 -0.5997 -0.3672
  414MOL0     C55789   8.379   0.415   5.455  0.0062 -0.5752  0.0002
  414MOL0     O55790   8.306   0.421   5.337 -0.3375  0.3844  0.1323
  414MOL0     C55791   8.170   0.479   5.343  0.8457 -0.3467 -0.1107
  414MOL0     C55792   8.071   0.375   5.410  0.6064  0.3113  1.3497
  414MOL0     C55793   8.090   0.230   5.368 -0.6414  0.3303  0.5633
  414MOL0     C55794   8.012   0.191   5.254  0.3444 -0.3823  0.6731
  414MOL0     C55795   8.028   0.040   5.216 -0.0167  0.5548 -0.0811
  414MOL0     C55796   7.952   0.005   5.087 -1.0915  1.4374  0.1102
  414MOL0     C55797   7.971  -0.150   5.042 -0.3266 -0.3609  1.1549
  414MOL0     C55798   7.911  -0.170   4.898 -0.0817  0.4716 -1.0858
  414MOL0    Cl55799   7.726  -0.134   4.907  0.2966 -0.1921  0.4098
  414MOL0     C55800   8.347   0.480   5.578 -0.7330  0.1120  0.0039
  414MOL0     C55801   8.436   0.473   5.685  0.0784  0.3773 -0.2600
  414MOL0     O55802   8.610   0.169   5.800  0.2056  0.1567 -0.0081
  414MOL0     C55803   8.688   0.178   6.073  0.5096 -0.6137 -0.3365
  414MOL0     C55804   8.713   0.200   6.206 -0.1365  0.0931  0.4838
  414MOL0     N55805   9.120   0.256   6.889 -0.2655 -0.3416 -0.2253
  414MOL0     N55806   9.124   0.171   6.984 -0.3202  0.5535 -0.1853
  414MOL0     C55807   9.392   1.233   7.525  0.8549  0.3040 -0.1340
  414MOL0     C55808   9.518   1.304   7.504 -0.0109  0.0993 -0.9107
  414MOL0     C55809   9.999   1.331   7.545 -0.2890 -0.0571 -0.2326
  414MOL0     C55810  10.116   1.294   7.476  0.0155  0.0101  0.3092
  414MOL0     C55811  10.232   1.378   7.481  0.3398  0.2925 -0.6209
  414MOL0     C55812  10.233   1.493   7.558 -0.8107 -0.5010  0.2331
  414MOL0     O55813  10.344   1.580   7.562 -0.3002 -0.5001 -0.1170
  414MOL0     C55814  10.453   1.550   7.473  0.5251  0.4416 -0.4544
  414MOL0     C55815  10.584   1.628   7.494  0.7301  0.4520  0.3298
  414MOL0     C55816  10.690   1.570   7.383  0.1321  0.7731 -0.1504
  414MOL0     C55817  10.670   1.632   7.243 -0.6016  0.0163 -0.2171
  414MOL0     C55818  10.556   1.566   7.171 -0.8889  0.6251 -0.5328
  414MOL0     C55819  10.483   1.491   7.114 -0.4702  0.2091 -0.3374
  414MOL0     C55820  10.118   1.517   7.625 -0.5852  0.0026 -0.2576
  414MOL0     C55821   9.998   1.444   7.620 -0.9177  0.1064  1.0879
  414MOL0     C55822   9.887   1.506   7.694 -0.5347  0.3844  0.9326
  414MOL0     H55823   9.713   1.035   7.592  0.0752 -1.0692  1.3507
  414MOL0     H55824   9.498   0.924   7.602 -1.3771  0.6783 -2.0193
  414MOL0     H55825   9.288   0.878   7.688 -1.0715 -0.8568  1.2099
  414MOL0     H55826   9.128   0.924   7.670 -0.2971  1.7470 -0.4482
  414MOL0     H55827   9.278   0.860   7.397 -2.6783  2.0643 -2.9300
  414MOL0     H55828   9.103   0.886   7.422 -1.5753 -0.7514  1.3848
  414MOL0     H55829   9.106   0.688   7.580  0.7897 -2.0303  0.0288
  414MOL0     H55830   9.266   0.659   7.553  2.9197  1.0364 -2.4553
  414MOL0     H55831   9.078   0.682   7.315 -0.4000  1.5001  0.2025
  414MOL0     H55832   9.233   0.582   7.341  0.0605  2.2591  0.6137
  414MOL0     H55833   9.113   0.442   7.506  1.8062 -0.7796 -2.7791
  414MOL0     H55834   8.964   0.530   7.477 -0.9909 -0.8519 -0.4587
  414MOL0     H55835   8.922   0.363   7.320 -0.4365 -1.5332  0.8399
  414MOL0     H55836   9.048   0.447   7.221  2.3719 -0.4644 -0.1523
  414MOL0     H55837   9.117   0.224   7.396 -0.9738  0.8785  0.5383
  414MOL0     H55838   9.210   0.277   7.255 -0.4678 -0.8281 -2.0357
  414MOL0     H55839   9.084   0.076   7.221  0.2048  0.4437  0.5130
  414MOL0     H55840   8.937   0.153   7.261 -0.5991 -3.0916 -0.1174
  414MOL0     H55841   8.877   0.370   7.069 -1.0891  1.4430 -3.2532
  414MOL0     H55842   8.915   0.535   6.833 -0.8875 -0.1461  1.1040
  414MOL0     H55843   9.092   0.538   6.821 -0.9764 -0.1743  2.0628
  414MOL0     H55844   9.011   0.519   6.597  0.7405 -0.3538  0.5761
  414MOL0     H55845   9.092   0.366   6.640  1.7279  0.4216  0.4741
  414MOL0     H55846   8.790   0.396   6.630 -0.4270 -1.8554  1.4334
  414MOL0     H55847   8.875   0.256   6.678  1.2606 -1.8658 -1.6925
  414MOL0     H55848   8.884   0.197   6.470  0.8709 -0.6877  3.2108
  414MOL0     H55849   8.985   0.326   6.430 -1.7970  2.7750 -1.5286
  414MOL0     H55850   8.851   0.499   6.201  0.3080 -1.6457  0.7478
  414MOL0     H55851   8.794   0.467   5.950 -2.0076 -0.5867 -0.5742
  414MOL0     H55852   8.684   0.300   5.554 -0.8277 -2.1364  0.3034
  414MOL0     H55853   8.530   0.327   5.352  1.8064 -0.9887  0.1136
  414MOL0     H55854   8.163   0.577   5.393  1.9195  0.4644 -1.4956
  414MOL0     H55855   8.147   0.495   5.238  0.8590 -0.3031 -0.1069
  414MOL0     H55856   8.090   0.378   5.518  1.2157  5.2657  1.3175
  414MOL0     H55857   7.971   0.406   5.379  0.6440  0.2450  1.1612
  414MOL0     H55858   8.192   0.194   5.355 -1.8434 -2.9452 -0.8575
  414MOL0     H55859   8.058   0.167   5.452  0.3123 -3.2809 -1.5634
  414MOL0     H55860   8.031   0.255   5.167  1.3673 -0.7873  0.5884
  414MOL0     H55861   7.908   0.208   5.283  0.6056 -1.0007  2.0758
  414MOL0     H55862   7.991  -0.021   5.299 -1.0046  3.1641  1.5298
  414MOL0     H55863   8.134   0.026   5.193  0.0654  2.4224 -1.1162
  414MOL0     H55864   7.848   0.024   5.113 -1.6263 -0.2390 -0.6639
  414MOL0     H55865   7.985   0.070   5.005 -0.2901  0.7786 -0.1065
  414MOL0     H55866   7.912  -0.212   5.110  0.5644  0.6867  2.9714
  414MOL0     H55867   8.077  -0.178   5.047 -0.9311 -2.7018  1.7809
  414MOL0     H55868   7.950  -0.102   4.821 -0.1878  1.7089 -0.0943
  414MOL0     H55869   7.926  -0.275   4.874 -3.1698 -1.2159  3.1744
  414MOL0     H55870   8.269   0.550   5.604  0.4219  1.3841  0.1670
  414MOL0     H55871   8.406   0.525   5.775 -0.4750  0.1398 -0.3049
  414MOL0     H55872   8.640   0.085   6.043  1.0613 -0.4957 -1.6389
  414MOL0     H55873   8.688   0.133   6.287  1.3582 -0.0936  0.8317
  414MOL0     H55874   9.300   1.289   7.539  2.2492  2.0157  3.2414
  414MOL0     H55875   9.523   1.411   7.491  0.2955  0.1082 -0.7413
  414MOL0     H55876  10.123   1.202   7.419  1.2283  1.0516 -1.3348
  414MOL0     H55877  10.319   1.319   7.452 -0.0713 -0.0862 -1.1264
  414MOL0     H55878  10.409   1.566   7.374 -2.2847  2.6502  1.0205
  414MOL0     H55879  10.477   1.443   7.482  3.3428  0.8823 -1.6893
  414MOL0     H55880  10.624   1.627   7.596 -0.2430 -1.4135  0.7375
  414MOL0     H55881  10.573   1.734   7.469 -0.3114  0.0945 -0.8413
  414MOL0     H55882  10.691   1.461   7.392 -0.2367  0.6763 -1.1798
  414MOL0     H55883  10.789   1.599   7.421  1.0568 -0.3723 -1.5876
  414MOL0     H55884  10.677   1.741   7.250  3.4250 -0.1868  2.2673
  414MOL0     H55885  10.753   1.617   7.174 -1.5224 -1.8098 -1.0157
  414MOL0     H55886  10.449   1.411   7.052 -0.6107 -1.5676  1.9056
  414MOL0     H55887  10.133   1.609   7.680 -2.3458 -0.4589  1.0775
  414MOL0     H55888   9.831   1.575   7.630 -0.0217  3.7589  3.8336
  414MOL0     H55889   9.813   1.438   7.737 -0.6495  0.4284  0.8049
  414MOL0     H55890   9.924   1.563   7.779 -1.4188  1.1609  0.8079
  415MOL0     O55891   6.449   4.496  11.046  0.3293  0.2440 -1.2635
  415MOL0     C55892   6.368   4.567  10.985 -0.1450 -0.4679  0.0542
  415MOL0     O55893   6.377   4.597  10.856 -0.0705  0.5976  0.3758
  415MOL0     C55894   6.487   4.578  10.779 -0.0273 -0.5890  0.4874
  415MOL0     C55895   6.615   4.532  10.807  0.1237 -0.1869 -0.1242
  415MOL0     C55896   6.706   4.513  10.696  0.5190  0.5210 -1.0039
  415MOL0     C55897   6.670   4.554  10.567 -0.4241  0.3816  1.1126
  415MOL0     O55898   6.763   4.532  10.469 -0.3074 -0.3037  0.1091
  415MOL0     C55899   6.827   4.657  10.422 -0.6731 -0.7950 -1.0445
  415MOL0     C55900   6.976   4.624  10.435 -0.4608  0.3594 -0.1855
  415MOL0     C55901   7.037   4.528  10.331 -0.0742 -0.8107 -0.3636
  415MOL0     C55902   7.187   4.505  10.338 -0.2791  0.2838 -0.7110
  415MOL0     C55903   7.217   4.402  10.439  0.1078  0.5401  0.4147
  415MOL0     C55904   7.160   4.260  10.411 -0.1926  0.5808  1.3529
  415MOL0     C55905   7.200   4.168  10.520 -0.8493 -0.0120 -0.0195
  415MOL0     C55906   7.176   4.019  10.491  0.3849 -0.5107  1.2262
  415MOL0     N55907   7.235   3.928  10.581  0.9003 -0.0391 -0.3013
  415MOL0     C55908   7.167   3.879  10.694  0.4247 -0.4823  0.2405
  415MOL0     C55909   7.258   3.798  10.759  0.8815  0.3468 -0.4904
  415MOL0     C55910   7.251   3.707  10.877  0.1886  1.0032  0.1009
  415MOL0     C55911   7.186   3.775  11.006  0.0964  0.7413  0.1396
  415MOL0     C55912   7.233   3.920  11.033 -0.0494 -0.3504  0.3742
  415MOL0     C55913   7.195   3.995  11.161  0.3428  0.1449 -0.1693
  415MOL0     O55914   7.076   3.938  11.221  0.8297 -0.1096  0.0957
  415MOL0     C55915   7.013   4.007  11.328 -0.6661  0.0439  0.3563
  415MOL0     C55916   7.089   4.102  11.402  0.1296  0.0184  0.2813
  415MOL0     C55917   7.017   4.164  11.505  0.3817  0.3834  0.3326
  415MOL0     C55918   6.882   4.134  11.533  0.2459  0.2138  0.0269
  415MOL0     C55919   6.810   4.182  11.653  0.5215 -0.6275 -0.4562
  415MOL0     O55920   6.710   4.111  11.703 -0.2997 -1.0968 -0.7005
  415MOL0     C55921   6.655   4.144  11.825  0.3024 -0.5632  1.0017
  415MOL0     C55922   6.728   4.148  11.949  0.1684 -0.7768 -1.2464
  415MOL0     C55923   6.665   4.170  12.071  0.4450  0.1067 -0.5033
  415MOL0     C55924   6.531   4.195  12.077 -0.0991  1.0283 -0.6199
  415MOL0     O55925   6.472   4.209  12.200 -0.4558  0.2302  0.2174
  415MOL0     C55926   6.424   4.336  12.234 -0.5895  0.1732 -0.9793
  415MOL0     C55927   6.333   4.341  12.366  0.6793 -0.2829  0.3442
  415MOL0     C55928   6.237   4.230  12.380 -0.0209 -0.6678  0.4840
  415MOL0     C55929   6.178   4.198  12.519 -0.7444  0.1871  0.8116
  415MOL0     C55930   6.059   4.285  12.562  0.0453 -0.1197 -0.2175
  415MOL0     C55931   6.027   4.284  12.718 -0.7287 -0.0317 -1.1154
  415MOL0     C55932   5.902   4.375  12.754  0.5157  0.3133 -0.4337
  415MOL0     C55933   5.937   4.496  12.843  0.3669 -0.3398 -0.0910
  415MOL0    Cl55934   5.957   4.429  13.010  0.1495  0.1145 -0.1341
  415MOL0     C55935   6.457   4.202  11.955  0.2896  0.3886  0.0236
  415MOL0     C55936   6.521   4.173  11.831 -1.1262 -0.7534 -0.2780
  415MOL0     O55937   6.867   4.275  11.709  0.5838 -0.5847  0.3039
  415MOL0     C55938   6.818   4.039  11.455 -0.1844  0.1808  0.2606
  415MOL0     C55939   6.882   3.978  11.350 -0.2274  0.0924 -0.8569
  415MOL0     N55940   7.376   3.802  10.679  0.3454  0.0243 -0.0703
  415MOL0     N55941   7.362   3.881  10.576 -0.3830  0.8626  0.2448
  415MOL0     C55942   6.548   4.611  10.539 -0.1674 -0.5228 -0.4683
  415MOL0     C55943   6.456   4.619  10.648 -0.1429 -1.1341 -0.4904
  415MOL0     C55944   6.225   4.606  11.042 -1.0420  0.1943 -1.2737
  415MOL0     C55945   6.191   4.550  11.165  0.1349  0.4335 -0.6860
  415MOL0     C55946   6.067   4.576  11.215  1.1281  0.2856 -0.2877
  415MOL0     C55947   5.961   4.642  11.149 -0.0703 -0.0499  0.7023
  415MOL0     O55948   5.844   4.675  11.212  0.2051 -0.5106 -0.3209
  415MOL0     C55949   5.739   4.748  11.155  0.1579  0.1772  0.1015
  415MOL0     C55950   5.682   4.821  11.280  0.1857  0.3888 -0.1218
  415MOL0     C55951   5.592   4.720  11.359 -0.5682  0.7053 -0.8465
  415MOL0     C55952   5.528   4.785  11.475  0.7527 -0.0503  0.7237
  415MOL0     C55953   5.512   4.702  11.595 -0.0942 -0.1708  0.5866
  415MOL0     C55954   5.517   4.617  11.673 -0.0525  0.6386 -0.3324
  415MOL0     C55955   5.995   4.697  11.032 -0.4113  0.4801  0.9035
  415MOL0     C55956   6.127   4.695  10.983  0.4809  0.2627 -0.2286
  415MOL0     C55957   6.150   4.752  10.849  0.1179 -0.6652  1.0775
  415MOL0     H55958   6.642   4.525  10.912 -1.1259 -2.0925  0.1168
  415MOL0     H55959   6.803   4.472  10.720 -0.7990 -1.9547  0.5748
  415MOL0     H55960   6.800   4.684  10.319  0.8601  0.3237 -1.1894
  415MOL0     H55961   6.811   4.744  10.487 -1.2757  0.2328 -2.4959
  415MOL0     H55962   6.992   4.594  10.539 -3.5611  1.0253  0.5829
  415MOL0     H55963   7.027   4.717  10.409  1.0957 -0.9386 -2.1890
  415MOL0     H55964   7.031   4.584  10.237  0.6176  0.9342  0.5946
  415MOL0     H55965   6.965   4.448  10.314 -0.9011  0.3811 -3.1148
  415MOL0     H55966   7.232   4.487  10.240  1.6648  0.8652  0.0283
  415MOL0     H55967   7.225   4.601  10.374 -2.0312  0.5747  0.5066
  415MOL0     H55968   7.324   4.394  10.459 -0.3345 -1.3978  2.4867
  415MOL0     H55969   7.161   4.427  10.530  0.9540 -2.6168  1.9224
  415MOL0     H55970   7.051   4.266  10.409 -0.5119 -3.2374  0.3988
  415MOL0     H55971   7.194   4.233  10.310 -3.7764  3.0477 -0.7751
  415MOL0     H55972   7.158   4.183  10.619 -0.7785 -1.7235  0.3131
  415MOL0     H55973   7.309   4.176  10.532 -0.4940  3.2457 -3.6350
  415MOL0     H55974   7.068   4.004  10.480 -0.0520  2.5215  0.3555
  415MOL0     H55975   7.228   3.992  10.399  2.1300  2.6530  1.1603
  415MOL0     H55976   7.063   3.898  10.721  0.2084 -0.4916 -0.5473
  415MOL0     H55977   7.198   3.614  10.853  2.0170 -0.6044  1.8896
  415MOL0     H55978   7.351   3.667  10.896  0.4198  0.5318 -1.8930
  415MOL0     H55979   7.078   3.781  10.987  0.4725  0.0070 -2.5347
  415MOL0     H55980   7.202   3.710  11.093 -0.1878 -2.3207 -1.9732
  415MOL0     H55981   7.213   3.985  10.947  2.2838  1.8454  1.3522
  415MOL0     H55982   7.342   3.909  11.041 -0.2820 -3.0174  0.9643
  415MOL0     H55983   7.186   4.101  11.133 -2.9111  0.1324  0.3978
  415MOL0     H55984   7.276   3.972  11.230  1.5400  1.0340 -1.2305
  415MOL0     H55985   7.196   4.121  11.398  0.4306 -1.4731  0.3760
  415MOL0     H55986   7.059   4.241  11.570  0.9334  0.3060  0.0695
  415MOL0     H55987   6.836   4.134  11.951  0.7261  2.3691  2.1462
  415MOL0     H55988   6.721   4.170  12.164 -1.3041  4.2434  0.7769
  415MOL0     H55989   6.502   4.411  12.250  1.2693 -1.6684 -0.9750
  415MOL0     H55990   6.359   4.377  12.156 -0.2899  2.6529 -0.0344
  415MOL0     H55991   6.406   4.338  12.448 -0.2718 -0.7439  1.1906
  415MOL0     H55992   6.281   4.437  12.370  0.7049 -0.2813  0.6469
  415MOL0     H55993   6.164   4.254  12.302 -0.5508  0.0345  1.1794
  415MOL0     H55994   6.290   4.142  12.344  1.8673  0.3986  0.5144
  415MOL0     H55995   6.266   4.196  12.584  0.2418 -2.2058 -0.4701
  415MOL0     H55996   6.145   4.094  12.525 -1.1610  0.1662 -1.1705
  415MOL0     H55997   5.972   4.260  12.501  0.5826 -0.9071 -0.6692
  415MOL0     H55998   6.075   4.393  12.551  2.9758 -0.3206  1.2090
  415MOL0     H55999   6.013   4.181  12.750 -0.8133  0.3339  0.0804
  415MOL0     H56000   6.118   4.315  12.771 -0.6427  1.0167 -1.8383
  415MOL0     H56001   5.832   4.307  12.804 -0.1860 -0.4439 -2.3364
  415MOL0     H56002   5.856   4.407  12.659  3.7698  0.9005 -1.9498
  415MOL0     H56003   6.022   4.552  12.803  0.0635  0.3430  0.2061
  415MOL0     H56004   5.849   4.562  12.843  0.1521 -0.5972  1.0718
  415MOL0     H56005   6.352   4.225  11.970  0.8047  3.1787 -0.0867
  415MOL0     H56006   6.462   4.179  11.740 -0.7901  0.2856 -0.4389
  415MOL0     H56007   6.718   4.003  11.476  0.2122 -1.6261 -0.6570
  415MOL0     H56008   6.828   3.904  11.291 -2.8145  0.4692  0.8593
  415MOL0     H56009   6.524   4.627  10.434 -0.0575  2.0182 -0.1625
  415MOL0     H56010   6.362   4.671  10.635  1.0288  0.8219 -1.6261
  415MOL0     H56011   6.256   4.473  11.206 -1.7156 -1.4315 -1.1113
  415MOL0     H56012   6.028   4.527  11.304 -0.5010 -0.2912 -1.2712
  415MOL0     H56013   5.669   4.681  11.105  1.2249 -1.0011  0.1394
  415MOL0     H56014   5.773   4.824  11.084  1.0087 -0.3492 -0.0668
  415MOL0     H56015   5.623   4.910  11.256  0.9308  1.7674  2.7537
  415MOL0     H56016   5.754   4.866  11.349 -3.1795  1.5171  2.9386
  415MOL0     H56017   5.650   4.631  11.385 -0.0612  0.9284 -1.2015
  415MOL0     H56018   5.512   4.683  11.295 -1.7555 -1.9118  1.9096
  415MOL0     H56019   5.580   4.875  11.509 -0.2660  0.6093  0.5928
  415MOL0     H56020   5.439   4.837  11.438  3.0704  1.9132 -2.5656
  415MOL0     H56021   5.522   4.542  11.748  0.9665 -1.7767 -2.6483
  415MOL0     H56022   5.919   4.758  10.984 -0.7599  0.7508  1.7660
  415MOL0     H56023   6.070   4.818  10.815  0.6121 -0.7088 -0.2404
  415MOL0     H56024   6.238   4.816  10.849 -0.8719  0.7958 -0.4318
  415MOL0     H56025   6.155   4.669  10.777 -2.7269 -0.1517  0.1278
  416MOL0     O56026   3.156   2.332   9.003  0.1346 -1.2074 -0.5252
  416MOL0     C56027   3.046   2.315   9.055 -0.7808 -0.2863  0.9768
  416MOL0     O56028   2.997   2.388   9.160 -0.6300  0.3009  0.0854
  416MOL0     C56029   3.069   2.495   9.209 -0.9855  0.3140 -0.7230
  416MOL0     C56030   3.024   2.620   9.222  0.1554 -1.0690 -0.4345
  416MOL0     C56031   3.103   2.731   9.277  1.0293 -0.6036  0.1852
  416MOL0     C56032   3.224   2.700   9.336 -0.2167 -0.6921  0.3805
  416MOL0     O56033   3.300   2.786   9.409 -0.1022 -0.4388  0.3280
  416MOL0     C56034   3.313   2.756   9.542 -0.7613 -0.0961  0.2503
  416MOL0     C56035   3.345   2.892   9.616 -0.0296  0.0664 -0.5923
  416MOL0     C56036   3.333   2.879   9.766 -0.5505 -0.9571 -0.1834
  416MOL0     C56037   3.451   2.797   9.822 -0.2976  1.0286  0.4830
  416MOL0     C56038   3.469   2.816   9.982 -0.3610 -0.1028  0.0552
  416MOL0     C56039   3.576   2.717  10.049 -1.2324  0.7547  0.6071
  416MOL0     C56040   3.576   2.735  10.202 -0.6212 -0.4007  0.5848
  416MOL0     C56041   3.455   2.681  10.278 -0.6716  0.1516  0.4440
  416MOL0     N56042   3.445   2.748  10.407 -0.7134  0.3618 -0.3950
  416MOL0     C56043   3.371   2.864  10.422  0.5272 -0.8936 -0.7651
  416MOL0     C56044   3.404   2.912  10.542  0.2226 -0.6327  0.4735
  416MOL0     C56045   3.334   3.027  10.601  0.3205  0.3628 -0.1011
  416MOL0     C56046   3.356   3.166  10.532  0.3081  0.1908 -0.0145
  416MOL0     C56047   3.310   3.300  10.613  0.0809  0.0089  1.3919
  416MOL0     C56048   3.334   3.429  10.514  0.2148 -0.4514  0.2448
  416MOL0     O56049   3.278   3.418  10.372 -0.3792  0.5330 -0.2158
  416MOL0     C56050   3.149   3.449  10.336  0.1815 -0.1196  0.3419
  416MOL0     C56051   3.126   3.481  10.200  0.4604 -0.1644  1.5775
  416MOL0     C56052   3.000   3.506  10.152  0.2407 -0.1562 -0.4490
  416MOL0     C56053   2.893   3.505  10.247  0.2181 -0.1219  0.7364
  416MOL0     C56054   2.761   3.539  10.199  0.0068  0.2493  0.1860
  416MOL0     O56055   2.740   3.598  10.084  0.4918 -0.0014 -0.0936
  416MOL0     C56056   2.616   3.596  10.031 -1.5217  1.2932  0.5412
  416MOL0     C56057   2.519   3.686  10.058  0.4014  0.2737 -0.7649
  416MOL0     C56058   2.383   3.663  10.016  0.1150  0.7606 -0.4729
  416MOL0     C56059   2.354   3.563   9.918 -0.3468  0.5565  0.2009
  416MOL0     O56060   2.228   3.571   9.866  1.0765  0.3795  0.9081
  416MOL0     C56061   2.208   3.494   9.743 -1.4750  0.8268 -0.6785
  416MOL0     C56062   2.083   3.529   9.675  0.4007 -0.0155 -0.9302
  416MOL0     C56063   1.968   3.456   9.746 -0.3148  0.3782 -0.2882
  416MOL0     C56064   1.977   3.311   9.707 -0.6212 -0.2499 -0.1972
  416MOL0     C56065   1.865   3.211   9.746 -0.3399 -0.9136 -0.7824
  416MOL0     C56066   1.735   3.242   9.677  1.0955  0.0791  0.5803
  416MOL0     C56067   1.616   3.160   9.729  0.0267  0.2886  0.1060
  416MOL0     C56068   1.480   3.224   9.686  0.1877 -0.3515  0.6990
  416MOL0    Cl56069   1.438   3.152   9.524  0.1507 -0.1514  0.1463
  416MOL0     C56070   2.454   3.483   9.874 -1.1026  1.0041  0.2368
  416MOL0     C56071   2.578   3.485   9.942 -0.1355  0.3113 -0.1555
  416MOL0     O56072   2.672   3.508  10.275 -0.0318 -0.5918  1.0595
  416MOL0     C56073   2.914   3.490  10.385  0.3624 -0.0204 -0.5106
  416MOL0     C56074   3.038   3.470  10.432  0.2610  1.1091 -0.1475
  416MOL0     N56075   3.512   2.831  10.593 -0.0304 -0.2132 -0.5154
  416MOL0     N56076   3.532   2.730  10.513 -0.2141  0.0590 -0.2648
  416MOL0     C56077   3.273   2.565   9.326 -0.3702 -0.4746  1.0673
  416MOL0     C56078   3.196   2.472   9.260 -0.4673 -0.4399 -0.0958
  416MOL0     C56079   2.966   2.209   8.990  0.3036 -0.5618 -0.2523
  416MOL0     C56080   2.981   2.171   8.849 -0.4239  0.2948 -0.6037
  416MOL0     C56081   2.915   2.069   8.795  0.9419  0.3153 -0.1791
  416MOL0     C56082   2.823   2.001   8.873 -0.2592 -0.1911  0.0580
  416MOL0     O56083   2.749   1.891   8.832  0.0585 -0.1662  0.5429
  416MOL0     C56084   2.692   1.882   8.698 -0.5024 -0.4757  0.0185
  416MOL0     C56085   2.633   1.746   8.664  1.5566  0.1227  0.1851
  416MOL0     C56086   2.523   1.706   8.778 -0.1909 -0.7377 -0.1595
  416MOL0     C56087   2.465   1.572   8.744 -1.1890 -0.1275  0.1242
  416MOL0     C56088   2.385   1.511   8.852  0.2390  0.1264  0.2911
  416MOL0     C56089   2.301   1.458   8.925 -0.4542 -0.1837 -0.0090
  416MOL0     C56090   2.801   2.029   9.001  0.4182 -0.0410  1.5437
  416MOL0     C56091   2.873   2.132   9.066  0.0413 -0.5658  0.1574
  416MOL0     C56092   2.857   2.143   9.220 -0.2509 -0.1702  0.4928
  416MOL0     H56093   2.926   2.648   9.184  0.0314  0.0509  0.6464
  416MOL0     H56094   3.054   2.828   9.287  0.6292 -0.9848  2.2910
  416MOL0     H56095   3.229   2.705   9.589 -0.8662  0.0015  0.1688
  416MOL0     H56096   3.393   2.682   9.554 -1.4285 -0.5777  2.1608
  416MOL0     H56097   3.275   2.968   9.582  0.8458  1.2733  0.2329
  416MOL0     H56098   3.447   2.921   9.589 -0.9769  2.0579 -2.2420
  416MOL0     H56099   3.236   2.838   9.794 -0.8547  1.5703  3.1039
  416MOL0     H56100   3.331   2.983   9.801 -1.1919 -1.4663  1.3184
  416MOL0     H56101   3.425   2.697   9.784 -1.1714  2.0551 -1.7573
  416MOL0     H56102   3.547   2.826   9.778 -0.8154  0.0471 -1.3968
  416MOL0     H56103   3.480   2.921  10.008  1.0433 -0.4601  1.0337
  416MOL0     H56104   3.376   2.784  10.030  0.8829  1.4746  3.9731
  416MOL0     H56105   3.554   2.613  10.022 -0.9939  0.2722  2.1363
  416MOL0     H56106   3.672   2.747  10.006 -1.6030  1.8054  0.4932
  416MOL0     H56107   3.587   2.843  10.217 -1.5492  0.4840 -3.7210
  416MOL0     H56108   3.667   2.693  10.246  2.5340  2.8380 -2.1730
  416MOL0     H56109   3.362   2.707  10.226  0.2760 -0.5461 -1.6740
  416MOL0     H56110   3.463   2.572  10.289  0.0767  0.2614  1.0945
  416MOL0     H56111   3.311   2.916  10.348  1.4154 -2.3982 -2.6167
  416MOL0     H56112   3.232   2.994  10.623 -0.5782  1.2543 -2.5991
  416MOL0     H56113   3.382   3.041  10.698 -0.1567 -0.4602  0.2637
  416MOL0     H56114   3.454   3.185  10.489  1.2937 -1.8965  1.1560
  416MOL0     H56115   3.286   3.165  10.449  3.6757 -0.8752 -3.0746
  416MOL0     H56116   3.369   3.317  10.703 -0.2929  1.7133  1.3380
  416MOL0     H56117   3.204   3.297  10.639 -0.1398 -3.1300  0.5316
  416MOL0     H56118   3.439   3.452  10.499 -0.4055  3.1030  0.5382
  416MOL0     H56119   3.296   3.522  10.556  0.9213  0.8427 -1.8579
  416MOL0     H56120   3.207   3.505  10.132 -2.1512  2.8928 -0.7647
  416MOL0     H56121   2.983   3.519  10.045  0.2594 -0.7913 -0.5358
  416MOL0     H56122   2.549   3.770  10.119  1.0825 -1.4655  1.4362
  416MOL0     H56123   2.313   3.738  10.052 -0.0776 -0.2683  1.4624
  416MOL0     H56124   2.296   3.522   9.683  2.2677  0.1142  3.8852
  416MOL0     H56125   2.228   3.388   9.762  1.2168  1.2039 -0.9352
  416MOL0     H56126   2.068   3.638   9.672  0.9801  0.2887  2.5712
  416MOL0     H56127   2.087   3.502   9.570  2.0179 -2.1864 -0.3757
  416MOL0     H56128   1.964   3.471   9.854 -2.3913 -0.9286 -0.1232
  416MOL0     H56129   1.872   3.493   9.709 -2.1637 -3.7299 -0.1575
  416MOL0     H56130   2.067   3.266   9.750 -0.1291  1.3556  0.5354
  416MOL0     H56131   1.985   3.302   9.598 -0.9996 -1.7586 -0.1205
  416MOL0     H56132   1.855   3.205   9.855  3.2401 -1.0876 -0.3452
  416MOL0     H56133   1.896   3.112   9.711  1.2382 -0.3118 -1.1876
  416MOL0     H56134   1.712   3.346   9.699 -2.0555 -1.0798  3.7014
  416MOL0     H56135   1.745   3.236   9.568  0.2381  1.9848  0.3698
  416MOL0     H56136   1.612   3.146   9.837 -1.8810 -2.4931 -0.2026
  416MOL0     H56137   1.622   3.062   9.680  3.7997 -0.4145  1.6284
  416MOL0     H56138   1.403   3.211   9.763 -2.1356  3.4212 -0.6943
  416MOL0     H56139   1.490   3.332   9.669  1.0139 -0.6728 -1.0905
  416MOL0     H56140   2.444   3.411   9.794 -0.7118  3.3226 -2.0191
  416MOL0     H56141   2.654   3.411   9.922  1.3936  1.9433 -0.7061
  416MOL0     H56142   2.830   3.494  10.453  1.5088 -0.0776  0.9643
  416MOL0     H56143   3.070   3.464  10.535  1.3360  2.5506 -0.3601
  416MOL0     H56144   3.371   2.537   9.365  2.0052  1.8799 -2.5782
  416MOL0     H56145   3.237   2.371   9.263 -1.5998 -1.0845  6.1564
  416MOL0     H56146   3.050   2.225   8.784  3.9022 -1.8024  1.8269
  416MOL0     H56147   2.937   2.041   8.693 -0.4443 -2.4045  0.1799
  416MOL0     H56148   2.763   1.912   8.620 -2.1374  0.5613 -1.1368
  416MOL0     H56149   2.607   1.951   8.693 -0.8827 -0.6895  2.4041
  416MOL0     H56150   2.713   1.672   8.667  0.8649 -0.7943 -1.9613
  416MOL0     H56151   2.585   1.754   8.566  0.4949  0.1218  0.6882
  416MOL0     H56152   2.447   1.781   8.755  2.8270  2.0469 -1.9040
  416MOL0     H56153   2.555   1.708   8.883  1.6085 -2.6263 -0.6186
  416MOL0     H56154   2.406   1.595   8.655 -0.2421  1.7409 -0.0890
  416MOL0     H56155   2.551   1.512   8.713  2.1718  4.6344 -0.9025
  416MOL0     H56156   2.222   1.413   8.983 -0.4503 -1.5745 -1.0446
  416MOL0     H56157   2.721   1.974   9.049 -1.7027  1.7330  0.2251
  416MOL0     H56158   2.786   2.224   9.243  2.1078  1.4789  2.5298
  416MOL0     H56159   2.803   2.055   9.255  0.4581 -0.6792  0.3100
  416MOL0     H56160   2.958   2.160   9.258  1.2339  1.3777 -3.6225
  417MOL0     O56161   8.295   7.507   1.457  0.2561  0.5220  0.1075
  417MOL0     C56162   8.208   7.593   1.454  0.0888 -0.1789  0.6796
  417MOL0     O56163   8.072   7.580   1.475 -0.5375  0.8519  0.7717
  417MOL0     C56164   8.023   7.449   1.491  0.6115  0.8936 -0.0771
  417MOL0     C56165   8.076   7.347   1.575  0.0095  0.2704 -0.8950
  417MOL0     C56166   8.008   7.222   1.588 -0.0065 -0.2291 -1.2033
  417MOL0     C56167   7.879   7.198   1.519 -1.2215 -0.2450  0.4039
  417MOL0     O56168   7.801   7.081   1.531 -0.3755 -0.4639  0.0918
  417MOL0     C56169   7.880   6.964   1.523 -0.3196 -0.0035  0.1582
  417MOL0     C56170   7.847   6.841   1.613 -0.7965  0.2422  0.1427
  417MOL0     C56171   7.716   6.783   1.554 -0.1036  0.1046  0.5926
  417MOL0     C56172   7.693   6.637   1.611  0.0805 -0.2628 -0.0054
  417MOL0     C56173   7.677   6.633   1.770  1.3418 -0.1994 -0.2674
  417MOL0     C56174   7.658   6.495   1.841 -1.3884  0.2681 -0.2513
  417MOL0     C56175   7.778   6.401   1.818  0.3203 -0.4343 -0.8617
  417MOL0     C56176   7.795   6.293   1.910 -0.9282  0.3064  0.3773
  417MOL0     N56177   7.780   6.320   2.052 -0.3174  0.1696  0.0051
  417MOL0     C56178   7.854   6.419   2.125 -0.0825  0.5066 -0.6829
  417MOL0     C56179   7.807   6.403   2.251 -0.3593 -0.0051  0.5886
  417MOL0     C56180   7.869   6.461   2.375 -0.6326 -0.2097 -0.0048
  417MOL0     C56181   7.795   6.574   2.443 -0.4640  0.4501  0.1260
  417MOL0     C56182   7.866   6.660   2.555  1.0331  0.0589  0.0486
  417MOL0     C56183   7.901   6.581   2.677 -0.9450  0.0576 -0.5225
  417MOL0     O56184   7.969   6.671   2.768 -0.2701  0.5210  0.0828
  417MOL0     C56185   8.099   6.714   2.757 -0.3181 -0.0297  0.1940
  417MOL0     C56186   8.158   6.799   2.853 -0.8284  0.4010  0.2842
  417MOL0     C56187   8.293   6.829   2.843 -0.4179 -0.1805  0.7491
  417MOL0     C56188   8.373   6.776   2.746  0.0170  0.4906 -0.4725
  417MOL0     C56189   8.518   6.818   2.755  0.4524 -0.4989 -0.5380
  417MOL0     O56190   8.592   6.790   2.642 -0.0306 -0.2293 -0.0438
  417MOL0     C56191   8.719   6.826   2.653  0.0898 -0.4660  1.0312
  417MOL0     C56192   8.777   6.922   2.571 -0.0225  0.2626  0.4729
  417MOL0     C56193   8.918   6.927   2.556  0.1812 -0.7369 -0.2052
  417MOL0     C56194   9.004   6.848   2.634 -0.2237  0.7238  0.4122
  417MOL0     O56195   9.134   6.902   2.641  0.0180  0.2019 -0.4023
  417MOL0     C56196   9.164   6.979   2.756  0.0709  0.0932 -0.2426
  417MOL0     C56197   9.294   7.056   2.727 -0.4628 -0.7148  0.2972
  417MOL0     C56198   9.328   7.155   2.849  0.1751  0.0985  0.6494
  417MOL0     C56199   9.341   7.077   2.978 -0.1545  0.9532  0.6017
  417MOL0     C56200   9.369   7.159   3.091  0.8142 -0.1870 -0.4741
  417MOL0     C56201   9.347   7.077   3.218 -0.5359 -0.6402 -0.2200
  417MOL0     C56202   9.407   7.126   3.348 -0.0820  0.2704  0.0933
  417MOL0     C56203   9.337   7.067   3.463 -0.6300 -0.3678  0.7675
  417MOL0    Cl56204   9.377   6.895   3.459 -0.0698  0.3608 -0.2449
  417MOL0     C56205   8.944   6.751   2.721 -0.2370  0.3522 -0.3395
  417MOL0     C56206   8.805   6.750   2.735 -0.4452 -0.3712  0.4098
  417MOL0     O56207   8.563   6.845   2.870  0.1881  0.3534 -0.3796
  417MOL0     C56208   8.328   6.681   2.651  0.3419  0.1278  0.5147
  417MOL0     C56209   8.188   6.656   2.661  1.0770 -0.6338  0.1382
  417MOL0     N56210   7.705   6.303   2.260  0.1159  0.2768  0.3056
  417MOL0     N56211   7.682   6.268   2.139  0.3274  0.1373  0.2780
  417MOL0     C56212   7.820   7.304   1.446 -0.2399  0.1356 -0.2059
  417MOL0     C56213   7.896   7.422   1.425 -0.0643  0.6163 -0.6133
  417MOL0     C56214   8.262   7.735   1.418  1.0660  0.4463 -0.4593
  417MOL0     C56215   8.180   7.847   1.439  0.8365 -0.9221 -0.6186
  417MOL0     C56216   8.229   7.975   1.412  0.3436 -0.5759 -0.0705
  417MOL0     C56217   8.356   7.996   1.364  0.2702  0.0672  0.5839
  417MOL0     O56218   8.413   8.115   1.312  0.5402  0.2569  0.4009
  417MOL0     C56219   8.327   8.234   1.302 -1.0998  0.6248  0.2589
  417MOL0     C56220   8.381   8.345   1.392 -0.2998 -0.7115  0.0444
  417MOL0     C56221   8.297   8.481   1.376 -0.9495 -0.3744 -0.3144
  417MOL0     C56222   8.333   8.571   1.495  0.3748  0.2306 -0.5054
  417MOL0     C56223   8.257   8.699   1.492 -0.7618  1.2173 -0.9505
  417MOL0     C56224   8.194   8.806   1.495 -0.4954  0.1061 -0.6013
  417MOL0     C56225   8.440   7.887   1.358 -0.6263  0.0371  0.6335
  417MOL0     C56226   8.396   7.759   1.379 -0.0625  0.2984 -0.4621
  417MOL0     C56227   8.508   7.656   1.357  0.6904 -0.1132 -0.4531
  417MOL0     H56228   8.168   7.375   1.627 -0.0184 -0.6079 -0.3548
  417MOL0     H56229   8.051   7.142   1.648 -0.8293  0.6946  0.6946
  417MOL0     H56230   7.878   6.932   1.418 -3.1325  0.4421  0.0136
  417MOL0     H56231   7.989   6.978   1.524 -0.2700 -0.2709 -0.6386
  417MOL0     H56232   7.820   6.878   1.712 -1.2463  0.0137  0.1056
  417MOL0     H56233   7.934   6.775   1.608  0.1604  1.5417 -1.7288
  417MOL0     H56234   7.714   6.770   1.446 -1.3440 -1.1574  0.7477
  417MOL0     H56235   7.633   6.848   1.584  1.0005  0.4632  3.1871
  417MOL0     H56236   7.602   6.592   1.570 -0.0497  1.0417 -1.2480
  417MOL0     H56237   7.775   6.569   1.588 -0.4039 -2.0453  3.0410
  417MOL0     H56238   7.766   6.683   1.811  0.2745 -0.1874  2.1825
  417MOL0     H56239   7.582   6.681   1.792  2.1317  0.7030  1.4097
  417MOL0     H56240   7.657   6.524   1.947  2.7833 -0.7533  0.2187
  417MOL0     H56241   7.558   6.455   1.822 -2.9563  3.3447  0.7381
  417MOL0     H56242   7.867   6.465   1.825 -0.4115  0.8588 -2.5809
  417MOL0     H56243   7.770   6.368   1.714 -4.0571  0.3730 -0.9638
  417MOL0     H56244   7.731   6.211   1.875 -0.4797  0.6625 -1.3990
  417MOL0     H56245   7.898   6.257   1.901 -0.4711  1.7244 -0.4078
  417MOL0     H56246   7.934   6.485   2.095  1.6736 -0.6109  1.2971
  417MOL0     H56247   7.881   6.379   2.446 -0.0978  0.7082  0.9968
  417MOL0     H56248   7.969   6.498   2.350 -1.0926  1.5045  0.5602
  417MOL0     H56249   7.786   6.647   2.362  3.1496 -0.0204 -0.8862
  417MOL0     H56250   7.700   6.529   2.473  0.4984 -3.3670 -1.9720
  417MOL0     H56251   7.796   6.740   2.582  2.4521  1.4647 -0.3234
  417MOL0     H56252   7.953   6.710   2.513  1.1281 -0.1419  0.0055
  417MOL0     H56253   7.968   6.500   2.646  1.8849  2.2678 -0.6047
  417MOL0     H56254   7.818   6.540   2.734 -0.9066  0.7442  0.0468
  417MOL0     H56255   8.094   6.810   2.941  1.4005 -2.3516  2.4348
  417MOL0     H56256   8.334   6.886   2.926 -0.5515  1.6889 -0.4180
  417MOL0     H56257   8.699   6.969   2.511  0.2371 -0.0778 -0.1377
  417MOL0     H56258   8.944   7.015   2.498 -0.3278 -0.3260  0.1808
  417MOL0     H56259   9.095   7.063   2.766  0.3062  0.4448 -1.3972
  417MOL0     H56260   9.167   6.921   2.848  0.0126  1.8199  0.8958
  417MOL0     H56261   9.377   6.988   2.703 -1.7395 -1.8380 -1.0994
  417MOL0     H56262   9.296   7.119   2.638 -1.7138  1.0892  1.4945
  417MOL0     H56263   9.420   7.213   2.835 -0.0390  0.9465  2.4761
  417MOL0     H56264   9.242   7.220   2.860  1.7082  2.0195  2.0069
  417MOL0     H56265   9.421   7.003   2.964 -0.7462  0.5582 -0.9983
  417MOL0     H56266   9.249   7.018   2.985 -0.1299 -0.5246 -5.3196
  417MOL0     H56267   9.288   7.232   3.096  0.4107 -0.6678  0.2853
  417MOL0     H56268   9.460   7.220   3.093  0.5555  0.2404 -1.4172
  417MOL0     H56269   9.241   7.071   3.242 -0.6033 -0.8512 -0.5476
  417MOL0     H56270   9.375   6.974   3.196  0.6157  0.0876 -2.6549
  417MOL0     H56271   9.395   7.235   3.359  0.1599  0.4382 -1.1946
  417MOL0     H56272   9.510   7.095   3.367  0.6018  1.7122 -1.0541
  417MOL0     H56273   9.391   7.086   3.556  2.0810 -0.7450 -0.6512
  417MOL0     H56274   9.228   7.078   3.475 -0.2519  0.7304  4.3915
  417MOL0     H56275   9.002   6.676   2.774 -0.8115 -1.3217 -1.9805
  417MOL0     H56276   8.768   6.675   2.804  0.0482 -2.5516 -1.5525
  417MOL0     H56277   8.400   6.634   2.584  2.1053  1.7204  1.1854
  417MOL0     H56278   8.144   6.588   2.589 -0.0198 -0.9175  1.0416
  417MOL0     H56279   7.718   7.289   1.412  0.5464 -3.3987 -1.5193
  417MOL0     H56280   7.839   7.493   1.366 -3.3193 -2.1386 -1.0933
  417MOL0     H56281   8.079   7.848   1.477  1.4836 -3.8055  1.5182
  417MOL0     H56282   8.161   8.058   1.430 -0.3932 -1.2314  0.1861
  417MOL0     H56283   8.218   8.225   1.315 -1.8359  0.2026 -4.4214
  417MOL0     H56284   8.327   8.267   1.198 -0.8777  1.2077  0.4454
  417MOL0     H56285   8.486   8.374   1.382 -0.3635  0.0704  1.3294
  417MOL0     H56286   8.369   8.313   1.496  1.6769  1.4925  1.0374
  417MOL0     H56287   8.194   8.443   1.375 -0.8196 -0.7180 -1.2353
  417MOL0     H56288   8.322   8.520   1.277 -0.5421 -3.6214 -1.6443
  417MOL0     H56289   8.302   8.529   1.592 -1.4314  3.6899  0.6125
  417MOL0     H56290   8.441   8.582   1.485  0.4626  0.8344  0.8342
  417MOL0     H56291   8.140   8.896   1.513  2.2506  1.5458  1.1996
  417MOL0     H56292   8.542   7.901   1.322 -0.9881 -0.9303 -0.8395
  417MOL0     H56293   8.570   7.695   1.276  1.9250  2.0279  1.4097
  417MOL0     H56294   8.570   7.642   1.446  1.9848 -0.7396 -1.4255
  417MOL0     H56295   8.471   7.562   1.315 -1.8444  0.8173 -0.5298
  418MOL0     O56296   1.637   5.788   9.795  0.3290 -1.0263  0.2264
  418MOL0     C56297   1.525   5.749   9.827  0.1370  0.6396  0.6626
  418MOL0     O56298   1.436   5.685   9.742  0.2122  0.4757 -0.0136
  418MOL0     C56299   1.483   5.645   9.618 -0.6110 -0.3952  0.0045
  418MOL0     C56300   1.523   5.517   9.600  0.1095 -0.9465  0.2275
  418MOL0     C56301   1.560   5.463   9.480  0.2661  0.0656  0.5778
  418MOL0     C56302   1.567   5.554   9.373 -0.5415  0.7886  0.8946
  418MOL0     O56303   1.591   5.518   9.241 -0.2007 -0.5372 -0.5487
  418MOL0     C56304   1.577   5.378   9.218 -0.8062  0.5499 -0.1291
  418MOL0     C56305   1.581   5.368   9.064  0.2392 -0.4404 -0.1664
  418MOL0     C56306   1.566   5.228   9.012  0.2609  0.3838  0.9160
  418MOL0     C56307   1.623   5.212   8.869  0.2411 -0.1930  0.8498
  418MOL0     C56308   1.563   5.094   8.800  0.4872  0.2340  0.3964
  418MOL0     C56309   1.615   5.082   8.647 -0.4053  0.0501  0.0330
  418MOL0     C56310   1.607   4.938   8.580  0.8714  0.4193 -0.1522
  418MOL0     C56311   1.684   4.915   8.449  0.3397 -0.3443 -0.5059
  418MOL0     N56312   1.670   4.771   8.403 -0.2626 -0.1985 -0.8052
  418MOL0     C56313   1.555   4.729   8.343  0.2176 -0.0606  0.4358
  418MOL0     C56314   1.557   4.603   8.325 -0.1132  1.0611 -0.3849
  418MOL0     C56315   1.456   4.514   8.255 -0.1377 -0.0715 -0.2092
  418MOL0     C56316   1.419   4.549   8.108 -0.2837 -0.3355 -0.1703
  418MOL0     C56317   1.529   4.565   8.014 -0.9997  0.3362  0.2101
  418MOL0     C56318   1.609   4.439   7.995  0.0368  0.5543 -0.0221
  418MOL0     O56319   1.531   4.354   7.904 -0.4367  0.5781 -0.4483
  418MOL0     C56320   1.589   4.243   7.854 -0.3406 -0.0999  0.2936
  418MOL0     C56321   1.704   4.176   7.893  0.2553  0.1200 -0.8648
  418MOL0     C56322   1.748   4.066   7.836 -0.8066  0.1336  0.2724
  418MOL0     C56323   1.672   4.005   7.733 -0.4275 -0.5480  0.1340
  418MOL0     C56324   1.722   3.883   7.665  0.0092 -0.0379  0.0191
  418MOL0     O56325   1.645   3.817   7.568  0.2575 -0.5165  0.0614
  418MOL0     C56326   1.687   3.727   7.475 -0.7784 -0.1859  1.3880
  418MOL0     C56327   1.636   3.761   7.344 -0.3559  0.5963 -0.3578
  418MOL0     C56328   1.658   3.677   7.236 -0.3253  0.5723  1.0640
  418MOL0     C56329   1.738   3.559   7.243  0.3779  0.0913 -0.5629
  418MOL0     O56330   1.747   3.489   7.125 -0.6447  0.1810  0.3371
  418MOL0     C56331   1.799   3.355   7.114 -0.0296  0.4273  0.5650
  418MOL0     C56332   1.797   3.311   6.965  0.4385  0.3146 -0.4065
  418MOL0     C56333   1.929   3.348   6.895 -0.6284 -0.5087 -0.4148
  418MOL0     C56334   1.933   3.278   6.746 -0.3298 -0.2765 -0.4457
  418MOL0     C56335   2.076   3.269   6.676  0.2770  0.2332 -0.7303
  418MOL0     C56336   2.082   3.179   6.560 -1.1565  0.3146  0.6281
  418MOL0     C56337   2.205   3.188   6.466  0.4091 -0.4725  0.1238
  418MOL0     C56338   2.161   3.235   6.324 -0.7268 -0.3729 -0.3085
  418MOL0    Cl56339   2.067   3.099   6.239  0.3020  0.2984 -0.4939
  418MOL0     C56340   1.788   3.518   7.375 -0.3110 -0.2862 -0.6249
  418MOL0     C56341   1.750   3.604   7.483 -0.8689  0.8367  0.1534
  418MOL0     O56342   1.836   3.849   7.696 -0.0128 -0.1572 -0.6520
  418MOL0     C56343   1.548   4.056   7.705 -0.4623 -0.7598 -0.2563
  418MOL0     C56344   1.511   4.181   7.761  0.0164 -0.0917 -0.8654
  418MOL0     N56345   1.676   4.551   8.380  0.8237 -0.7751 -0.2849
  418MOL0     N56346   1.747   4.655   8.428  0.3507 -0.6700  0.0770
  418MOL0     C56347   1.532   5.688   9.383  0.2285 -0.6795 -0.6398
  418MOL0     C56348   1.498   5.733   9.509 -0.7478 -1.0382 -0.0467
  418MOL0     C56349   1.459   5.778   9.957 -0.0730  0.5945  0.3557
  418MOL0     C56350   1.340   5.721   9.995 -0.1674  0.3744 -0.1963
  418MOL0     C56351   1.271   5.761  10.106  0.0487 -0.0148 -0.9335
  418MOL0     C56352   1.317   5.853  10.192  0.3641  0.9098 -0.1493
  418MOL0     O56353   1.218   5.893  10.281  0.0013 -1.0060  0.8338
  418MOL0     C56354   1.222   6.019  10.350  0.0725 -0.2997  0.3178
  418MOL0     C56355   1.093   6.050  10.413 -0.6670 -0.2501 -0.4202
  418MOL0     C56356   1.040   5.952  10.525  0.0639  0.6654 -0.3164
  418MOL0     C56357   1.096   5.967  10.674  0.4933  0.1047  0.1886
  418MOL0     C56358   1.229   5.916  10.670 -0.8029  0.3676  0.0072
  418MOL0     C56359   1.347   5.885  10.694  0.6692 -0.1719 -0.4835
  418MOL0     C56360   1.442   5.912  10.165 -0.0564 -0.0404  0.4299
  418MOL0     C56361   1.515   5.874  10.047 -0.1897  0.7559 -0.6580
  418MOL0     C56362   1.648   5.948  10.031 -0.5288  0.1803  0.9225
  418MOL0     H56363   1.505   5.443   9.677 -1.3540 -2.3156 -1.3470
  418MOL0     H56364   1.603   5.364   9.476  1.0033  0.4178 -1.5137
  418MOL0     H56365   1.658   5.329   9.272  0.9948  3.4454 -0.0299
  418MOL0     H56366   1.478   5.339   9.244  0.3342 -2.5929 -0.0859
  418MOL0     H56367   1.675   5.406   9.023  0.5830  0.7258  1.5888
  418MOL0     H56368   1.501   5.430   9.023  2.8633  3.7103  0.4005
  418MOL0     H56369   1.458   5.211   9.007  0.7341 -2.8398 -1.6300
  418MOL0     H56370   1.599   5.156   9.087  0.3837 -1.1596 -0.5684
  418MOL0     H56371   1.582   5.303   8.823 -0.4493 -0.7659  0.3002
  418MOL0     H56372   1.732   5.210   8.875  0.5657  1.8445 -2.2732
  418MOL0     H56373   1.577   4.997   8.849  0.5226  0.1390  0.2024
  418MOL0     H56374   1.457   5.119   8.813  0.0691 -0.3177 -1.5552
  418MOL0     H56375   1.566   5.163   8.592  2.9728  1.4219 -1.2334
  418MOL0     H56376   1.720   5.111   8.649 -0.6987  1.1095  0.5229
  418MOL0     H56377   1.501   4.912   8.572  0.6406 -2.7994  6.3984
  418MOL0     H56378   1.641   4.865   8.654 -2.0391 -1.5104 -0.5718
  418MOL0     H56379   1.634   4.983   8.379 -0.1166  1.7990  1.7585
  418MOL0     H56380   1.789   4.937   8.467 -0.1318  1.7780 -0.0518
  418MOL0     H56381   1.469   4.787   8.311  1.4411  1.5982 -0.0036
  418MOL0     H56382   1.481   4.407   8.250 -1.7179 -0.4357 -3.9276
  418MOL0     H56383   1.361   4.518   8.309 -1.2340 -0.4347 -1.9899
  418MOL0     H56384   1.343   4.481   8.067  0.7946 -0.6447 -1.7414
  418MOL0     H56385   1.370   4.646   8.120 -5.1202 -2.6117  0.8704
  418MOL0     H56386   1.585   4.654   8.045 -0.2716  0.6661 -1.8815
  418MOL0     H56387   1.481   4.600   7.922  2.5333  0.7005 -1.6843
  418MOL0     H56388   1.629   4.395   8.093  0.8452  2.4455  0.7023
  418MOL0     H56389   1.710   4.462   7.959 -0.6709 -0.0757 -2.5982
  418MOL0     H56390   1.763   4.211   7.977  2.4808 -0.0188 -2.2500
  418MOL0     H56391   1.847   4.027   7.857 -0.0982  1.2763 -0.8162
  418MOL0     H56392   1.572   3.848   7.352 -0.0122  0.8326 -0.1736
  418MOL0     H56393   1.616   3.704   7.140  1.5599  0.2515  0.1003
  418MOL0     H56394   1.901   3.347   7.154 -0.5855  0.0262  1.9859
  418MOL0     H56395   1.734   3.290   7.173 -1.4086  1.1078 -0.1657
  418MOL0     H56396   1.797   3.202   6.976 -1.0687  0.2730 -0.5740
  418MOL0     H56397   1.710   3.336   6.904 -0.7434 -1.8881  0.2675
  418MOL0     H56398   1.930   3.457   6.887 -2.1821 -0.4227  0.1124
  418MOL0     H56399   2.011   3.307   6.954 -3.0658 -0.3365  3.4743
  418MOL0     H56400   1.869   3.334   6.676  1.0477  0.7835 -0.8994
  418MOL0     H56401   1.892   3.178   6.760 -0.3047 -0.3833 -1.1130
  418MOL0     H56402   2.135   3.224   6.756 -0.4181  0.2169 -0.2206
  418MOL0     H56403   2.119   3.369   6.665  0.7967 -0.1491 -2.3902
  418MOL0     H56404   2.075   3.076   6.596 -0.1220 -0.6024 -1.6418
  418MOL0     H56405   1.996   3.207   6.499  0.0863  3.5922  0.1382
  418MOL0     H56406   2.252   3.092   6.440  1.7743  0.2568 -0.2011
  418MOL0     H56407   2.283   3.253   6.507  0.4531 -0.3068 -0.2231
  418MOL0     H56408   2.101   3.326   6.321 -1.4460 -0.8599 -0.7368
  418MOL0     H56409   2.256   3.247   6.270 -0.0048  1.7685  1.2877
  418MOL0     H56410   1.843   3.427   7.397 -1.7806 -0.4156  3.2854
  418MOL0     H56411   1.781   3.554   7.574  0.3037 -1.7890 -1.5729
  418MOL0     H56412   1.490   4.019   7.622 -0.4423  0.1102 -0.6793
  418MOL0     H56413   1.409   4.218   7.760  0.8134  2.2441 -1.1635
  418MOL0     H56414   1.547   5.748   9.294 -0.7010  1.3761  0.4968
  418MOL0     H56415   1.473   5.838   9.513 -1.9764 -1.3177 -0.0109
  418MOL0     H56416   1.300   5.637   9.939 -0.1423 -0.7300  1.3721
  418MOL0     H56417   1.184   5.710  10.146  2.4057 -0.8541  3.7063
  418MOL0     H56418   1.237   6.102  10.281 -1.1471 -1.4884 -1.4488
  418MOL0     H56419   1.305   6.019  10.422 -1.4183 -4.2424  2.3246
  418MOL0     H56420   1.019   6.074  10.335  0.2749  0.3704 -1.1447
  418MOL0     H56421   1.104   6.144  10.468  0.4659 -0.2015 -0.7002
  418MOL0     H56422   1.046   5.852  10.482  1.2147  0.1610  0.9261
  418MOL0     H56423   0.936   5.987  10.525  0.7861  2.9936 -0.7093
  418MOL0     H56424   1.089   6.070  10.711 -0.6506 -0.0804  0.5526
  418MOL0     H56425   1.038   5.905  10.743 -1.4425 -2.0874 -3.1466
  418MOL0     H56426   1.451   5.865  10.708  0.3629 -0.7272  1.1906
  418MOL0     H56427   1.486   5.987  10.229 -0.6726 -1.1976  2.2912
  418MOL0     H56428   1.643   6.016   9.945  0.5819 -5.1568 -3.9485
  418MOL0     H56429   1.683   6.006  10.117 -0.6066  1.7149 -0.0247
  418MOL0     H56430   1.724   5.872  10.014 -2.8187 -2.3486  1.4006
  419MOL0     O56431  10.004   8.823  10.816  0.4066 -0.2278 -0.6574
  419MOL0     C56432  10.127   8.819  10.839  0.4800 -0.6338  0.6008
  419MOL0     O56433  10.222   8.778  10.752 -0.0106 -0.2002 -0.3709
  419MOL0     C56434  10.174   8.730  10.632 -0.1553  1.2907 -0.5463
  419MOL0     C56435  10.197   8.594  10.596  0.5102 -0.4737  0.8674
  419MOL0     C56436  10.153   8.542  10.474 -0.7238  0.0740  0.1186
  419MOL0     C56437  10.101   8.630  10.385  0.3559 -0.0186  0.6662
  419MOL0     O56438  10.054   8.588  10.260  0.6990  0.1914 -0.2622
  419MOL0     C56439  10.038   8.449  10.230  0.2543  1.0622  0.0573
  419MOL0     C56440  10.012   8.446  10.076  0.0574 -0.2772 -1.3810
  419MOL0     C56441   9.999   8.312  10.020  0.6208  0.5659 -0.0950
  419MOL0     C56442   9.857   8.254  10.022 -0.3560 -0.3980 -0.8561
  419MOL0     C56443   9.864   8.104   9.984 -0.2016  0.1711  0.1905
  419MOL0     C56444   9.727   8.044   9.993  0.8965  0.5082  0.2721
  419MOL0     C56445   9.726   7.900   9.932 -0.6908  0.1292 -1.2098
  419MOL0     C56446   9.763   7.885   9.786  0.0075  0.2649  0.5561
  419MOL0     N56447   9.697   7.770   9.718  0.0214 -0.5439 -0.1345
  419MOL0     C56448   9.708   7.753   9.582  0.9840 -0.0421 -1.2946
  419MOL0     C56449   9.660   7.630   9.556  0.0944  1.0517  0.1587
  419MOL0     C56450   9.655   7.567   9.418 -0.4389 -0.3026 -1.0545
  419MOL0     C56451   9.538   7.620   9.342 -0.4311  0.3384  0.5080
  419MOL0     C56452   9.430   7.522   9.290 -0.0858  0.5159  0.9263
  419MOL0     C56453   9.491   7.392   9.219 -0.7228  0.3765 -0.6877
  419MOL0     O56454   9.529   7.298   9.320  0.2631 -0.1564 -0.4344
  419MOL0     C56455   9.647   7.234   9.286 -0.1977 -0.0837 -0.1692
  419MOL0     C56456   9.737   7.204   9.390 -1.0387 -0.2461  0.0515
  419MOL0     C56457   9.846   7.116   9.361  0.2221  0.1187 -0.8549
  419MOL0     C56458   9.858   7.055   9.238  0.7396 -0.5016 -1.1185
  419MOL0     C56459   9.978   6.977   9.206  0.1235 -0.5143  0.4617
  419MOL0     O56460   9.957   6.858   9.129 -0.5237 -0.6575  0.0533
  419MOL0     C56461  10.056   6.789   9.089 -0.2052 -0.3818  0.2193
  419MOL0     C56462  10.080   6.663   9.144 -0.8895  0.5261 -0.2587
  419MOL0     C56463  10.198   6.601   9.112 -0.0462 -0.0528 -0.5792
  419MOL0     C56464  10.287   6.648   9.012  0.4059 -0.8279  0.1356
  419MOL0     O56465  10.404   6.588   8.972  0.3387  0.3679 -0.0980
  419MOL0     C56466  10.445   6.463   9.025 -1.1831  0.9670  0.0899
  419MOL0     C56467  10.597   6.441   8.986 -0.3334  0.4339  0.8597
  419MOL0     C56468  10.610   6.390   8.843  0.1839 -0.2881  0.3177
  419MOL0     C56469  10.753   6.336   8.805 -0.0749  0.4462  0.3509
  419MOL0     C56470  10.793   6.358   8.662  0.0027 -1.0142  0.6493
  419MOL0     C56471  10.702   6.272   8.570 -0.9873  0.4291 -0.1003
  419MOL0     C56472  10.758   6.261   8.426  0.8265 -0.2597  0.4436
  419MOL0     C56473  10.690   6.145   8.354 -0.1372  0.4060  0.2321
  419MOL0    Cl56474  10.521   6.138   8.362 -0.0672 -0.4640  0.0741
  419MOL0     C56475  10.253   6.772   8.960 -0.2668  0.2386  0.5769
  419MOL0     C56476  10.134   6.841   8.989  0.6142 -0.7763  0.1933
  419MOL0     O56477  10.082   7.016   9.249 -0.5208  0.2763  0.4272
  419MOL0     C56478   9.765   7.082   9.135  0.0524 -1.0455 -0.2211
  419MOL0     C56479   9.672   7.176   9.161  0.4869  0.4123 -0.2664
  419MOL0     N56480   9.631   7.562   9.673  0.7439  0.2937 -0.0840
  419MOL0     N56481   9.646   7.651   9.768 -0.1359 -1.3223 -1.0819
  419MOL0     C56482  10.086   8.771  10.410 -0.0492  0.4844 -0.1249
  419MOL0     C56483  10.123   8.818  10.536 -1.2063  0.1447 -0.8221
  419MOL0     C56484  10.157   8.823  10.980 -0.0462 -0.3355 -0.5119
  419MOL0     C56485  10.227   8.724  11.050 -0.3860  0.1466 -0.4168
  419MOL0     C56486  10.270   8.734  11.182 -0.1922 -0.7258  0.1605
  419MOL0     C56487  10.221   8.842  11.258 -0.7452  0.1321 -0.4224
  419MOL0     O56488  10.267   8.845  11.390  0.1250 -0.0030 -0.5645
  419MOL0     C56489  10.263   8.963  11.470  0.3735  0.4398  0.8300
  419MOL0     C56490  10.294   8.918  11.614 -0.1513  0.4819 -0.1514
  419MOL0     C56491  10.159   8.902  11.703  0.9447 -0.2786  0.0912
  419MOL0     C56492  10.113   9.039  11.763 -0.6355 -0.2593 -0.2511
  419MOL0     C56493  10.006   9.008  11.856 -0.1723 -0.7323 -0.1332
  419MOL0     C56494   9.920   8.972  11.932  0.6659 -0.6471 -0.4436
  419MOL0     C56495  10.159   8.948  11.198  0.8440  0.1828  0.3995
  419MOL0     C56496  10.130   8.942  11.060  0.9033 -0.8845  0.2401
  419MOL0     C56497  10.066   9.069  11.003 -0.5935  0.1571 -0.7797
  419MOL0     H56498  10.253   8.535  10.668  0.5108  0.9292  2.0771
  419MOL0     H56499  10.158   8.435  10.456 -1.4527 -0.7565  4.0630
  419MOL0     H56500  10.136   8.406  10.253  0.5573  1.6842 -0.0366
  419MOL0     H56501   9.948   8.419  10.284 -0.3985  0.3786 -1.3489
  419MOL0     H56502  10.094   8.503  10.032 -0.8418  1.1402 -1.2933
  419MOL0     H56503   9.927   8.512  10.058  2.1076  3.6290  1.4249
  419MOL0     H56504  10.068   8.237  10.060 -0.7633 -0.7777 -0.1341
  419MOL0     H56505  10.029   8.330   9.916 -1.6030  1.4593 -0.6323
  419MOL0     H56506   9.811   8.263  10.121 -2.7624  1.9400 -2.0825
  419MOL0     H56507   9.787   8.301   9.953 -0.2981  2.0271  0.6309
  419MOL0     H56508   9.895   8.102   9.879  0.2436  2.0853  0.2473
  419MOL0     H56509   9.932   8.056  10.056 -1.0778  1.9194  2.3089
  419MOL0     H56510   9.706   8.023  10.099 -0.2806 -4.1117 -0.6405
  419MOL0     H56511   9.652   8.109   9.948  1.3511  1.1549  0.4426
  419MOL0     H56512   9.629   7.858   9.961 -0.1539  1.7978  4.1248
  419MOL0     H56513   9.797   7.836   9.985 -0.4552 -1.7495 -3.6205
  419MOL0     H56514   9.735   7.977   9.734 -0.7006 -0.1453  0.2122
  419MOL0     H56515   9.872   7.870   9.786 -0.0314 -0.1826  2.0588
  419MOL0     H56516   9.743   7.823   9.508  2.3513 -1.2915 -1.8843
  419MOL0     H56517   9.750   7.590   9.369  2.2160 -2.6311  2.4317
  419MOL0     H56518   9.661   7.459   9.434 -0.9720 -0.1220  0.6256
  419MOL0     H56519   9.478   7.693   9.397 -2.0255 -0.8817  0.4798
  419MOL0     H56520   9.579   7.676   9.257  3.0717  1.0584  2.5084
  419MOL0     H56521   9.362   7.580   9.225 -1.0862 -0.5640  0.9766
  419MOL0     H56522   9.365   7.491   9.372 -0.5866  1.0685  0.7506
  419MOL0     H56523   9.573   7.432   9.158 -0.1111 -0.3493 -0.3601
  419MOL0     H56524   9.427   7.345   9.143 -0.2811  0.7173 -1.2852
  419MOL0     H56525   9.715   7.250   9.485 -1.2350  2.6454 -1.2838
  419MOL0     H56526   9.916   7.082   9.437 -1.1235 -0.0190  0.3691
  419MOL0     H56527  10.011   6.617   9.214 -0.7664 -2.0935 -1.7210
  419MOL0     H56528  10.214   6.505   9.161 -0.0810  0.0214 -0.4253
  419MOL0     H56529  10.429   6.466   9.133 -2.9106 -2.1503  0.0525
  419MOL0     H56530  10.382   6.378   8.998  0.6639 -0.1991 -0.7794
  419MOL0     H56531  10.641   6.539   9.007  0.6448  0.9521 -2.8700
  419MOL0     H56532  10.644   6.363   9.046  2.8253 -0.1148 -2.0375
  419MOL0     H56533  10.531   6.315   8.828 -0.9204  0.6600  1.2106
  419MOL0     H56534  10.600   6.467   8.767  1.7972 -0.1524  0.2218
  419MOL0     H56535  10.763   6.228   8.820  2.0037  0.0163 -2.8682
  419MOL0     H56536  10.825   6.391   8.866  0.5011  0.4917 -0.3481
  419MOL0     H56537  10.894   6.315   8.662  0.1850 -0.6141 -0.4871
  419MOL0     H56538  10.798   6.457   8.616 -0.1042  0.5836  3.7715
  419MOL0     H56539  10.686   6.172   8.611  0.0407  0.1862 -0.2472
  419MOL0     H56540  10.609   6.327   8.555  0.3139  2.7829 -0.0889
  419MOL0     H56541  10.867   6.255   8.424  0.9966  2.0757 -1.1951
  419MOL0     H56542  10.739   6.348   8.363  1.9100 -1.0073 -0.9854
  419MOL0     H56543  10.712   6.146   8.247  0.2699 -0.7778  0.2892
  419MOL0     H56544  10.741   6.054   8.386  0.7893  0.1650 -1.7523
  419MOL0     H56545  10.327   6.811   8.890 -0.5383 -1.5277 -0.7560
  419MOL0     H56546  10.106   6.937   8.945 -3.5950 -2.3952 -1.0931
  419MOL0     H56547   9.763   7.039   9.035  2.3743  2.4048 -1.9509
  419MOL0     H56548   9.595   7.187   9.084  0.9501  1.0971 -0.6424
  419MOL0     H56549  10.046   8.831  10.330  0.7601  0.4136 -0.5918
  419MOL0     H56550  10.113   8.921  10.568  0.8023 -0.3787  1.9120
  419MOL0     H56551  10.258   8.626  11.015 -1.0885 -0.1243 -0.2979
  419MOL0     H56552  10.344   8.667  11.225  1.8832  0.4533 -1.4063
  419MOL0     H56553  10.170   9.019  11.455  0.3533 -0.2305 -2.0221
  419MOL0     H56554  10.338   9.034  11.433 -1.2165  2.0061  0.4385
  419MOL0     H56555  10.365   8.985  11.664  1.9792  0.7051 -3.1945
  419MOL0     H56556  10.347   8.823  11.603 -1.4738 -0.4622  1.2215
  419MOL0     H56557  10.191   8.822  11.770 -1.1584  0.6655  2.3698
  419MOL0     H56558  10.085   8.869  11.630 -1.4446  0.0644  2.2135
  419MOL0     H56559  10.196   9.087  11.817 -1.7972  1.5863 -0.0134
  419MOL0     H56560  10.073   9.108  11.687 -0.6325  1.2347  1.0430
  419MOL0     H56561   9.850   8.943  12.008  0.3782 -1.3491 -0.9636
  419MOL0     H56562  10.140   9.045  11.242 -0.1217 -0.2530  0.9746
  419MOL0     H56563  10.109   9.167  11.025 -0.3539  0.4521 -2.4542
  419MOL0     H56564  10.056   9.065  10.894 -0.9877  1.7787 -0.8298
  419MOL0     H56565   9.967   9.070  11.050  0.0653  0.4105  0.6475
  420MOL0     O56566   6.235   5.414   3.011 -0.0862  0.0717  0.5067
  420MOL0     C56567   6.239   5.387   2.892  0.6907  0.1043  0.0554
  420MOL0     O56568   6.207   5.473   2.793 -0.2822 -0.1021  0.2541
  420MOL0     C56569   6.128   5.572   2.844  0.3105  0.1803  0.7109
  420MOL0     C56570   5.993   5.576   2.827  0.1541 -1.0104 -0.2011
  420MOL0     C56571   5.930   5.688   2.882 -0.3037 -0.8830  0.0601
  420MOL0     C56572   5.991   5.792   2.952 -1.0686  0.6198 -0.2318
  420MOL0     O56573   5.926   5.900   2.984 -0.4252  0.7617  0.0071
  420MOL0     C56574   5.819   5.872   3.076 -0.2202 -0.4483 -0.0933
  420MOL0     C56575   5.802   5.987   3.176  0.3928  0.1157  0.5099
  420MOL0     C56576   5.886   5.965   3.303  0.8564 -0.8339 -0.7337
  420MOL0     C56577   5.849   6.077   3.406 -0.6200 -0.5868 -0.0881
  420MOL0     C56578   5.944   6.091   3.532  1.2367  0.0470 -0.0619
  420MOL0     C56579   5.900   6.216   3.616  1.1920  0.4766  0.0765
  420MOL0     C56580   6.009   6.248   3.713  0.4899 -0.2903 -0.8102
  420MOL0     C56581   6.054   6.122   3.792 -0.8146  0.1329  0.1514
  420MOL0     N56582   6.135   6.138   3.916  0.0596  0.2755  0.0396
  420MOL0     C56583   6.141   6.249   3.999 -0.3521  0.5663 -0.2174
  420MOL0     C56584   6.255   6.239   4.076 -0.3246 -0.4310  0.0979
  420MOL0     C56585   6.294   6.329   4.182 -1.0860 -0.8011  0.3839
  420MOL0     C56586   6.208   6.288   4.306  0.4528 -0.1623  0.2064
  420MOL0     C56587   6.230   6.375   4.426 -0.3181 -0.1209 -0.0533
  420MOL0     C56588   6.196   6.313   4.562  0.8521  0.0667  0.0484
  420MOL0     O56589   6.274   6.198   4.590 -0.5397 -0.9488 -0.2581
  420MOL0     C56590   6.276   6.134   4.714 -0.6325 -0.8088  0.2169
  420MOL0     C56591   6.183   6.171   4.810  0.4226  0.4287 -0.7052
  420MOL0     C56592   6.168   6.100   4.929 -0.5591  0.2859 -0.0743
  420MOL0     C56593   6.264   5.997   4.962  0.6387  0.2801 -0.4713
  420MOL0     C56594   6.254   5.933   5.099 -0.6051 -0.2071 -0.0791
  420MOL0     O56595   6.150   5.964   5.175 -0.1533 -0.1862 -0.1345
  420MOL0     C56596   6.124   5.899   5.297  0.1673  1.0816  0.5062
  420MOL0     C56597   6.083   5.966   5.399  0.0070  0.2312  0.1615
  420MOL0     C56598   6.056   5.908   5.519  0.4950  1.3571  0.3158
  420MOL0     C56599   6.061   5.760   5.533 -0.5939 -0.4259  1.0387
  420MOL0     O56600   6.030   5.682   5.651 -0.4156 -0.0573 -0.0405
  420MOL0     C56601   5.983   5.748   5.763  1.3020  0.0650 -0.2760
  420MOL0     C56602   5.998   5.667   5.893 -1.0678 -0.3144  0.1429
  420MOL0     C56603   5.973   5.754   6.024 -0.1013  0.0037 -0.2190
  420MOL0     C56604   5.827   5.761   6.053  0.3277 -0.2840  0.0147
  420MOL0     C56605   5.822   5.843   6.188  0.2109  0.1374  1.2394
  420MOL0     C56606   5.827   5.747   6.303 -0.2928 -0.4525 -0.7420
  420MOL0     C56607   5.795   5.809   6.449  0.2435  0.0366  0.0823
  420MOL0     C56608   5.828   5.708   6.557  0.0074  0.3254  1.1859
  420MOL0    Cl56609   5.990   5.651   6.555  0.3992  0.4603  0.0849
  420MOL0     C56610   6.107   5.689   5.423 -0.6056  0.1539 -0.1720
  420MOL0     C56611   6.146   5.757   5.313 -0.0502  0.6122  1.6038
  420MOL0     O56612   6.352   5.870   5.132  0.5156  0.0838 -0.2564
  420MOL0     C56613   6.372   5.968   4.872  0.1314 -0.0122 -0.7802
  420MOL0     C56614   6.377   6.043   4.748  0.0513 -0.1572  0.1459
  420MOL0     N56615   6.307   6.118   4.044  0.5924  0.2449 -0.6721
  420MOL0     N56616   6.235   6.058   3.953 -0.3845 -0.0677  0.0372
  420MOL0     C56617   6.133   5.794   2.968  1.3054 -0.4570  1.0198
  420MOL0     C56618   6.195   5.682   2.917  0.4876  0.0493 -0.0865
  420MOL0     C56619   6.274   5.244   2.846 -0.9260 -0.9264 -1.0259
  420MOL0     C56620   6.301   5.236   2.708  0.9483 -0.6722 -0.7331
  420MOL0     C56621   6.323   5.108   2.650  0.3328  0.4520 -1.0782
  420MOL0     C56622   6.304   4.986   2.720  0.2199 -0.1770  0.6323
  420MOL0     O56623   6.312   4.868   2.652 -0.3059 -0.3785  0.3796
  420MOL0     C56624   6.420   4.790   2.691 -0.0855 -0.1320  0.1146
  420MOL0     C56625   6.548   4.811   2.596 -0.5179  0.1818 -0.0638
  420MOL0     C56626   6.526   4.804   2.447  0.0409  1.0436 -0.4237
  420MOL0     C56627   6.649   4.835   2.358  0.2538  0.0117 -0.0695
  420MOL0     C56628   6.741   4.926   2.411  0.7254 -0.8429  0.6193
  420MOL0     C56629   6.839   4.980   2.458  0.0974 -0.0755  0.8214
  420MOL0     C56630   6.271   4.990   2.855 -0.3361  0.2075 -1.0951
  420MOL0     C56631   6.275   5.118   2.925  0.0552 -0.4223  1.9595
  420MOL0     C56632   6.227   5.114   3.072  0.0463 -0.9252  0.1649
  420MOL0     H56633   5.923   5.503   2.787 -0.0924 -1.7831  1.5418
  420MOL0     H56634   5.825   5.699   2.857  0.0816 -0.7539 -1.6484
  420MOL0     H56635   5.728   5.866   3.015 -1.2596  2.8841  0.8966
  420MOL0     H56636   5.825   5.776   3.127 -0.7444 -2.7312 -3.9275
  420MOL0     H56637   5.695   6.005   3.191  0.6298  2.3859 -0.1168
  420MOL0     H56638   5.843   6.072   3.120 -0.1070  1.9758  2.8095
  420MOL0     H56639   5.988   5.979   3.264  0.0497  0.2434 -2.5968
  420MOL0     H56640   5.860   5.870   3.348 -2.0027  0.0008 -0.4549
  420MOL0     H56641   5.855   6.179   3.367 -0.5238  0.6515  2.8456
  420MOL0     H56642   5.746   6.064   3.440 -0.3937  0.4784  1.1089
  420MOL0     H56643   5.934   6.001   3.593 -2.8868  0.1344 -0.3342
  420MOL0     H56644   6.047   6.099   3.494  1.8341 -3.1297  0.5938
  420MOL0     H56645   5.886   6.300   3.547  0.5610 -1.0409 -1.7423
  420MOL0     H56646   5.803   6.198   3.664  1.9451 -0.9521  1.1391
  420MOL0     H56647   5.964   6.309   3.792  1.2536 -2.4380  1.4064
  420MOL0     H56648   6.091   6.312   3.681  0.6986 -0.3269 -0.3540
  420MOL0     H56649   5.970   6.053   3.807 -0.8942 -0.2172 -1.7240
  420MOL0     H56650   6.125   6.073   3.726 -2.2613 -0.9968 -0.6242
  420MOL0     H56651   6.076   6.336   3.996 -0.6038  0.3620 -2.7549
  420MOL0     H56652   6.403   6.333   4.191 -0.9312 -0.1679 -1.3234
  420MOL0     H56653   6.281   6.435   4.161  2.0605 -0.7891 -2.2889
  420MOL0     H56654   6.103   6.300   4.277  1.2059 -0.3003 -2.8755
  420MOL0     H56655   6.224   6.182   4.328 -1.9509 -0.6607 -0.2016
  420MOL0     H56656   6.175   6.468   4.405 -2.1719 -1.8173 -3.5825
  420MOL0     H56657   6.336   6.405   4.428 -0.3735  0.0398  0.7195
  420MOL0     H56658   6.094   6.275   4.557  1.2748 -0.9757 -0.9441
  420MOL0     H56659   6.212   6.393   4.635  0.4592 -1.0141  1.3559
  420MOL0     H56660   6.120   6.258   4.800 -1.2795 -0.5939  0.5578
  420MOL0     H56661   6.098   6.127   5.007 -1.2576  1.3302 -1.0359
  420MOL0     H56662   6.070   6.073   5.384  0.7808 -0.0068 -2.7591
  420MOL0     H56663   6.024   5.974   5.599  0.9164  1.8178  0.1099
  420MOL0     H56664   6.055   5.829   5.779  2.5534 -1.0857  0.1880
  420MOL0     H56665   5.884   5.788   5.742  1.7283  0.7879 -0.9366
  420MOL0     H56666   5.958   5.566   5.896  2.0918 -1.6558  2.1461
  420MOL0     H56667   6.105   5.647   5.886 -1.4216 -1.9713 -1.1124
  420MOL0     H56668   6.023   5.692   6.099  1.0627 -0.4297 -1.3221
  420MOL0     H56669   6.014   5.855   6.008  3.4443 -0.8716  2.0594
  420MOL0     H56670   5.786   5.660   6.051 -0.6729  0.0730  1.5153
  420MOL0     H56671   5.777   5.817   5.974  1.4314  1.1340  0.2672
  420MOL0     H56672   5.727   5.896   6.193 -0.2230  0.8030 -5.3440
  420MOL0     H56673   5.895   5.922   6.208  1.0674 -0.4937  0.6591
  420MOL0     H56674   5.742   5.682   6.280 -1.0792  0.6298 -0.9584
  420MOL0     H56675   5.924   5.696   6.312  0.5012  1.1398  0.2188
  420MOL0     H56676   5.692   5.837   6.475  0.6476 -1.4378  3.9248
  420MOL0     H56677   5.861   5.896   6.462  0.7184 -0.4555  1.0742
  420MOL0     H56678   5.782   5.736   6.653 -2.5579 -1.4622  0.5923
  420MOL0     H56679   5.773   5.616   6.536 -0.5440  0.8885  0.0266
  420MOL0     H56680   6.119   5.582   5.437  0.6384  0.5155  1.8024
  420MOL0     H56681   6.173   5.706   5.221  1.8062  3.3044  0.5417
  420MOL0     H56682   6.441   5.888   4.897 -0.4104  0.2782  1.9935
  420MOL0     H56683   6.457   6.025   4.677 -0.5524  1.0088 -0.8581
  420MOL0     H56684   6.184   5.878   3.015  2.2085 -0.3618 -0.0943
  420MOL0     H56685   6.303   5.680   2.927  0.4021  0.5416  1.1343
  420MOL0     H56686   6.284   5.326   2.651 -3.2123  0.0686  1.3265
  420MOL0     H56687   6.342   5.116   2.543 -2.5496  3.1422 -1.5714
  420MOL0     H56688   6.390   4.686   2.676 -1.1594  0.0779  0.7627
  420MOL0     H56689   6.450   4.792   2.796  1.9349 -0.7687 -0.4076
  420MOL0     H56690   6.621   4.739   2.635 -1.3978  0.4360  2.2416
  420MOL0     H56691   6.584   4.912   2.618 -3.3676  0.9972  1.4222
  420MOL0     H56692   6.448   4.875   2.417 -1.2589  0.2696  1.0259
  420MOL0     H56693   6.488   4.706   2.419 -0.9972  0.6576  2.1084
  420MOL0     H56694   6.698   4.738   2.343 -1.0580 -0.4913 -1.2666
  420MOL0     H56695   6.628   4.872   2.258 -0.4247  1.1858  0.4861
  420MOL0     H56696   6.920   5.022   2.513  0.2118  2.0222 -0.8203
  420MOL0     H56697   6.237   4.905   2.913  1.6581  2.1740  3.4156
  420MOL0     H56698   6.125   5.152   3.083  0.5088  0.5199 -0.3466
  420MOL0     H56699   6.229   5.008   3.101 -1.6706 -0.9449  0.3134
  420MOL0     H56700   6.291   5.182   3.130 -1.1745 -0.2998  0.8201
  421MOL0     O56701   8.564   3.386   1.799  0.1267  0.7403 -1.2459
  421MOL0     C56702   8.590   3.463   1.886 -0.6381  0.6277 -0.6498
  421MOL0     O56703   8.559   3.432   2.017  0.6396 -0.5064  0.3363
  421MOL0     C56704   8.543   3.304   2.064 -0.6018 -0.1721 -1.4564
  421MOL0     C56705   8.418   3.235   2.061 -0.3265 -0.0997 -0.2707
  421MOL0     C56706   8.407   3.107   2.110  0.9741  0.1395 -0.1399
  421MOL0     C56707   8.523   3.043   2.154 -0.3319  0.3382  0.6798
  421MOL0     O56708   8.503   2.915   2.206  0.2410 -0.5971 -0.2872
  421MOL0     C56709   8.511   2.910   2.346  0.1297 -0.7849 -0.1801
  421MOL0     C56710   8.537   2.767   2.384  0.0541 -0.0255  0.2087
  421MOL0     C56711   8.612   2.761   2.517  0.5943  0.2319 -0.7943
  421MOL0     C56712   8.639   2.612   2.567  0.0430 -0.3020  0.2093
  421MOL0     C56713   8.730   2.602   2.693  0.5456 -0.4447 -0.2829
  421MOL0     C56714   8.689   2.695   2.805  0.5288  0.2250  0.2120
  421MOL0     C56715   8.767   2.667   2.924 -0.2717  0.3492  0.7023
  421MOL0     C56716   8.689   2.720   3.043  0.0238  0.5888 -0.0838
  421MOL0     N56717   8.764   2.715   3.169  0.1824 -0.4711 -0.5081
  421MOL0     C56718   8.710   2.721   3.298 -0.9549 -0.3705 -0.0213
  421MOL0     C56719   8.810   2.765   3.387 -0.4112 -1.0133 -0.1500
  421MOL0     C56720   8.790   2.792   3.534  0.3857  0.5409  0.1567
  421MOL0     C56721   8.882   2.693   3.597  0.2633  0.1502 -0.7518
  421MOL0     C56722   8.856   2.692   3.750  0.2433 -0.2123  0.3048
  421MOL0     C56723   8.967   2.620   3.827  0.1970  0.0955 -1.4029
  421MOL0     O56724   8.950   2.480   3.851  0.0841 -0.1672 -0.1199
  421MOL0     C56725   9.064   2.412   3.894  2.0065  0.2117 -0.6453
  421MOL0     C56726   9.042   2.277   3.916 -0.0910  0.5199  0.4150
  421MOL0     C56727   9.143   2.195   3.978  1.0975 -0.0610  0.0623
  421MOL0     C56728   9.265   2.248   4.010 -0.4042  1.2502  0.2538
  421MOL0     C56729   9.364   2.153   4.071 -1.2338  0.3275  0.0432
  421MOL0     O56730   9.345   2.018   4.064 -0.1644 -0.2513  0.2571
  421MOL0     C56731   9.443   1.930   4.101 -0.7314 -1.3588  1.0933
  421MOL0     C56732   9.572   1.942   4.040 -0.0799 -1.3615  0.0415
  421MOL0     C56733   9.660   1.833   4.051 -0.3092  0.0260  0.6108
  421MOL0     C56734   9.624   1.724   4.117  0.5593  0.0394  0.1032
  421MOL0     O56735   9.718   1.618   4.114 -0.0146 -0.7227 -0.0829
  421MOL0     C56736   9.694   1.475   4.148 -0.1741  0.5631 -0.2218
  421MOL0     C56737   9.811   1.382   4.083  0.3336 -1.2070 -0.4610
  421MOL0     C56738   9.950   1.416   4.123  1.1331 -0.7801 -0.2822
  421MOL0     C56739  10.054   1.313   4.085 -0.3084 -0.6738 -0.1578
  421MOL0     C56740  10.087   1.320   3.937 -0.3503  0.5300 -1.2974
  421MOL0     C56741  10.162   1.187   3.892  0.9434  0.0895  0.6990
  421MOL0     C56742  10.203   1.184   3.750  0.3368  0.2535  0.4956
  421MOL0     C56743  10.326   1.272   3.739 -0.3321  0.8678 -0.3234
  421MOL0    Cl56744  10.370   1.268   3.574  0.3012  0.3497  0.1551
  421MOL0     C56745   9.497   1.714   4.180 -0.0739 -0.3160  0.2389
  421MOL0     C56746   9.409   1.815   4.172  0.0560 -0.5042  0.3307
  421MOL0     O56747   9.461   2.202   4.112  0.0366  0.4604 -0.7912
  421MOL0     C56748   9.288   2.379   3.982  0.6432 -0.5638 -0.0443
  421MOL0     C56749   9.192   2.458   3.920  0.1509 -0.4029 -0.6248
  421MOL0     N56750   8.917   2.784   3.305  0.5812 -0.2662  0.5279
  421MOL0     N56751   8.889   2.760   3.177 -0.1470  0.3231 -0.2339
  421MOL0     C56752   8.643   3.102   2.143  0.2675 -0.2103 -0.4616
  421MOL0     C56753   8.659   3.233   2.091 -0.5222  0.2570  0.1170
  421MOL0     C56754   8.657   3.591   1.852 -0.2084  0.6340 -0.8076
  421MOL0     C56755   8.684   3.623   1.717  0.4635  0.7882 -0.2294
  421MOL0     C56756   8.739   3.749   1.679  0.0807  0.2757 -0.3413
  421MOL0     C56757   8.758   3.854   1.771  0.0310 -0.5080 -0.2590
  421MOL0     O56758   8.820   3.969   1.734 -0.9721 -0.8165 -0.4119
  421MOL0     C56759   8.878   4.047   1.841  0.2762 -0.4598  0.6153
  421MOL0     C56760   8.949   4.168   1.790  0.2637  0.5036  0.4439
  421MOL0     C56761   8.961   4.271   1.904 -0.4029 -0.7105  0.3010
  421MOL0     C56762   9.018   4.409   1.870 -0.5435  0.1475 -1.0313
  421MOL0     C56763   8.992   4.484   1.994 -0.9427 -1.0411 -0.5062
  421MOL0     C56764   8.960   4.543   2.097 -0.6658 -0.0412 -0.9030
  421MOL0     C56765   8.715   3.824   1.906  0.6319 -0.1065  0.7662
  421MOL0     C56766   8.680   3.698   1.950  0.3719 -0.2886 -0.4576
  421MOL0     C56767   8.650   3.675   2.100  0.0215 -0.6790 -1.1321
  421MOL0     H56768   8.330   3.291   2.030  0.1821  1.7351  1.4219
  421MOL0     H56769   8.309   3.063   2.121  1.0224 -0.5128 -2.0101
  421MOL0     H56770   8.601   2.968   2.371  1.6293 -1.5842 -3.2716
  421MOL0     H56771   8.417   2.941   2.393  0.3013  0.3599 -0.5579
  421MOL0     H56772   8.596   2.718   2.306 -1.8438  0.4913 -1.6672
  421MOL0     H56773   8.442   2.714   2.395  0.3894 -0.0843  4.7469
  421MOL0     H56774   8.556   2.805   2.600  1.1597  0.0743 -0.3255
  421MOL0     H56775   8.710   2.808   2.513  0.5046  0.4577 -0.4344
  421MOL0     H56776   8.548   2.553   2.583  0.5245 -1.8898 -2.2391
  421MOL0     H56777   8.686   2.557   2.484 -0.4616 -1.7300  0.8326
  421MOL0     H56778   8.729   2.495   2.718  0.3924 -0.8734 -1.9930
  421MOL0     H56779   8.832   2.622   2.660  1.6136  1.7642  3.6837
  421MOL0     H56780   8.699   2.801   2.779 -2.0713  0.6523  0.7031
  421MOL0     H56781   8.585   2.686   2.836 -0.1869  2.4577 -1.3491
  421MOL0     H56782   8.868   2.710   2.919 -0.7816  1.9716  2.8808
  421MOL0     H56783   8.784   2.561   2.944  0.9021 -0.1008 -2.2408
  421MOL0     H56784   8.661   2.826   3.040  2.8955  1.3929 -1.1440
  421MOL0     H56785   8.611   2.649   3.072  2.0991 -0.3074  4.0135
  421MOL0     H56786   8.609   2.716   3.337  0.1026 -1.8137  2.8427
  421MOL0     H56787   8.825   2.893   3.561  2.4409  0.2769 -1.3054
  421MOL0     H56788   8.685   2.786   3.565  0.7028  2.7104  1.9771
  421MOL0     H56789   8.859   2.598   3.549 -0.3762 -0.8300  1.3378
  421MOL0     H56790   8.986   2.725   3.584  0.5769  0.2003  1.3637
  421MOL0     H56791   8.765   2.638   3.778  0.9060 -1.0364  0.8971
  421MOL0     H56792   8.848   2.798   3.774 -3.5030 -0.1648 -0.4291
  421MOL0     H56793   8.982   2.681   3.916 -1.5142 -1.6981  0.2048
  421MOL0     H56794   9.061   2.633   3.772 -0.5998  1.5365 -2.5025
  421MOL0     H56795   8.937   2.251   3.903 -0.3132  1.0055  1.1537
  421MOL0     H56796   9.107   2.093   3.973 -0.1824  0.4267 -1.4068
  421MOL0     H56797   9.587   2.034   3.984 -1.1636 -2.0986 -1.5296
  421MOL0     H56798   9.752   1.827   3.994 -1.5908  2.8723 -2.0042
  421MOL0     H56799   9.695   1.455   4.256  0.1620 -2.8550 -0.7414
  421MOL0     H56800   9.595   1.447   4.113 -0.2664  0.3729  0.1792
  421MOL0     H56801   9.792   1.281   4.120 -3.7052 -1.3065 -2.2863
  421MOL0     H56802   9.806   1.385   3.974  0.4114 -0.2833 -0.4453
  421MOL0     H56803   9.978   1.514   4.084  2.8981 -1.8180 -1.7439
  421MOL0     H56804   9.940   1.433   4.231  1.1019  3.1653 -0.7829
  421MOL0     H56805  10.016   1.215   4.116 -3.8585  0.8385  0.7645
  421MOL0     H56806  10.143   1.337   4.143 -1.0716  1.4132  0.2097
  421MOL0     H56807  10.151   1.403   3.904 -3.7518  3.3045 -1.5770
  421MOL0     H56808   9.997   1.341   3.877  1.0014  2.0656 -2.9299
  421MOL0     H56809  10.238   1.164   3.967  2.0291 -0.5882 -0.5538
  421MOL0     H56810  10.085   1.112   3.910  1.6974 -0.5560  1.3090
  421MOL0     H56811  10.120   1.232   3.698 -0.5465  1.6816  3.0138
  421MOL0     H56812  10.226   1.086   3.706 -2.2223  0.5551 -1.7791
  421MOL0     H56813  10.315   1.379   3.757  4.2386  1.8662 -2.0260
  421MOL0     H56814  10.404   1.244   3.810  0.5221 -1.3788 -2.0165
  421MOL0     H56815   9.457   1.619   4.215 -1.5290 -0.2678 -1.1923
  421MOL0     H56816   9.310   1.797   4.213  0.4858 -1.2493  1.0586
  421MOL0     H56817   9.388   2.411   4.013  1.2620 -2.0946 -0.3540
  421MOL0     H56818   9.202   2.566   3.920 -2.6670 -0.0630  0.5303
  421MOL0     H56819   8.743   3.075   2.176 -0.0728  1.9604  2.7473
  421MOL0     H56820   8.752   3.287   2.108 -1.6272  1.4317  3.0506
  421MOL0     H56821   8.659   3.543   1.647  2.8435  0.7122 -1.1093
  421MOL0     H56822   8.778   3.763   1.578  0.4388  0.0925 -0.2311
  421MOL0     H56823   8.948   3.993   1.906 -0.3167  0.7404  2.3144
  421MOL0     H56824   8.791   4.061   1.906  1.9216 -0.1471  2.8794
  421MOL0     H56825   8.888   4.208   1.708 -0.7820 -3.5655 -0.9954
  421MOL0     H56826   9.045   4.133   1.751 -0.9732  0.6358 -3.0663
  421MOL0     H56827   9.028   4.213   1.968 -0.0869 -3.1969 -2.1263
  421MOL0     H56828   8.870   4.289   1.962 -0.0947  1.7444  0.1373
  421MOL0     H56829   9.122   4.398   1.839 -0.4359  2.7153 -1.8154
  421MOL0     H56830   8.970   4.448   1.779  0.1013  0.6555 -1.1628
  421MOL0     H56831   8.933   4.574   2.196  1.5701 -1.4123  0.2083
  421MOL0     H56832   8.729   3.901   1.982  3.5105  1.3154 -1.0232
  421MOL0     H56833   8.718   3.597   2.136  1.9043  2.1055  1.9004
  421MOL0     H56834   8.670   3.764   2.161 -0.6519 -0.0296 -1.8477
  421MOL0     H56835   8.544   3.651   2.108 -0.0048 -0.1173  0.8087
  422MOL0     O56836   8.599   8.539   0.205  0.1152 -0.0813 -0.0945
  422MOL0     C56837   8.642   8.477   0.299  0.6458 -0.7315 -0.3281
  422MOL0     O56838   8.762   8.418   0.311 -0.7186 -0.7049  0.1475
  422MOL0     C56839   8.851   8.451   0.213 -0.4094 -0.4412 -0.6058
  422MOL0     C56840   8.950   8.551   0.229  0.7052  0.5261 -1.0335
  422MOL0     C56841   9.029   8.598   0.128 -0.8130 -0.3161 -0.1010
  422MOL0     C56842   9.032   8.522   0.017 -0.8130  0.3453 -0.2137
  422MOL0     O56843   9.117   8.552  -0.084 -0.6540 -0.5545 -0.4747
  422MOL0     C56844   9.190   8.682  -0.081  0.2519  0.1458  1.1350
  422MOL0     C56845   9.248   8.692  -0.217 -0.1568  0.9258 -0.6495
  422MOL0     C56846   9.321   8.818  -0.252  0.1998  0.1403 -0.0467
  422MOL0     C56847   9.457   8.834  -0.187 -0.8825  0.4293 -0.1949
  422MOL0     C56848   9.522   8.980  -0.199 -0.9307 -0.4706  0.0889
  422MOL0     C56849   9.676   9.005  -0.167 -0.8123  0.1360 -0.7221
  422MOL0     C56850   9.711   9.051  -0.024 -0.6068  0.3082 -0.0580
  422MOL0     C56851   9.852   9.102  -0.000 -0.1223 -0.1041 -0.4485
  422MOL0     N56852   9.890   9.225  -0.073 -0.3040 -0.4090  0.4787
  422MOL0     C56853   9.921   9.341  -0.000  0.0949  0.2859  0.1127
  422MOL0     C56854  10.008   9.415  -0.078  0.5216 -0.0625  0.3604
  422MOL0     C56855  10.081   9.538  -0.044  0.2687  0.0241 -0.8313
  422MOL0     C56856  10.014   9.664  -0.104  0.2576 -0.6118  0.3535
  422MOL0     C56857  10.019   9.673  -0.260 -0.7413  0.2096  0.5498
  422MOL0     C56858  10.147   9.738  -0.319 -0.3167  0.6065 -0.3223
  422MOL0     O56859  10.265   9.697  -0.242 -0.0653 -0.0411  0.1115
  422MOL0     C56860  10.333   9.591  -0.297 -0.3407  0.9846 -0.1187
  422MOL0     C56861  10.324   9.532  -0.430  0.1496 -0.2198  0.2451
  422MOL0     C56862  10.385   9.416  -0.461  0.9481 -1.5544 -0.2377
  422MOL0     C56863  10.470   9.352  -0.369  0.8237 -0.7923 -0.4863
  422MOL0     C56864  10.554   9.232  -0.414  0.7856  0.0300 -0.0138
  422MOL0     O56865  10.561   9.131  -0.316  0.3647  0.0923  0.3766
  422MOL0     C56866  10.575   9.000  -0.357 -0.3039  0.9012  0.0104
  422MOL0     C56867  10.523   8.939  -0.478 -0.5000 -0.4281  0.8371
  422MOL0     C56868  10.546   8.808  -0.504 -0.0522  1.7832  0.0600
  422MOL0     C56869  10.628   8.733  -0.429 -0.0378 -0.0901 -0.7859
  422MOL0     O56870  10.648   8.594  -0.438 -0.7636 -0.2433 -0.1040
  422MOL0     C56871  10.600   8.538  -0.569 -0.9537 -0.0250 -0.5336
  422MOL0     C56872  10.669   8.400  -0.574  0.4286  0.3669  0.3143
  422MOL0     C56873  10.600   8.315  -0.687  0.0258 -0.5054 -0.1259
  422MOL0     C56874  10.627   8.366  -0.827  0.5062  0.4958  0.4559
  422MOL0     C56875  10.541   8.296  -0.932 -0.0466 -0.7619  0.0020
  422MOL0     C56876  10.615   8.233  -1.047 -0.1536  1.3854 -0.2225
  422MOL0     C56877  10.519   8.161  -1.142  0.8734 -0.5369 -0.0671
  422MOL0     C56878  10.443   8.272  -1.220  0.2399  0.7111  0.1650
  422MOL0    Cl56879  10.336   8.186  -1.346  0.0979 -0.1994  0.2958
  422MOL0     C56880  10.691   8.793  -0.320  0.2175 -0.2835  0.1321
  422MOL0     C56881  10.661   8.920  -0.282 -0.8567  1.3537  0.0357
  422MOL0     O56882  10.608   9.231  -0.528  0.5568  0.1003 -0.1937
  422MOL0     C56883  10.485   9.400  -0.236 -0.1916 -0.2664  0.3652
  422MOL0     C56884  10.419   9.519  -0.209 -0.3481  0.2177 -0.1001
  422MOL0     N56885  10.031   9.341  -0.193 -1.3647 -0.0729  0.5177
  422MOL0     N56886   9.963   9.230  -0.187  0.9354 -0.3584  0.0137
  422MOL0     C56887   8.955   8.413   0.002  0.4215  0.4460  0.1469
  422MOL0     C56888   8.861   8.372   0.097 -0.9048  0.5574 -0.0634
  422MOL0     C56889   8.541   8.483   0.408  0.8667 -0.0214 -0.6000
  422MOL0     C56890   8.405   8.529   0.389 -0.2795  0.3133 -0.3579
  422MOL0     C56891   8.308   8.538   0.484 -0.6011 -0.3872 -0.5542
  422MOL0     C56892   8.338   8.497   0.614  0.5257 -0.2293  0.3251
  422MOL0     O56893   8.259   8.495   0.720 -0.5335 -0.5361 -0.0334
  422MOL0     C56894   8.117   8.471   0.690 -0.1994  0.4125  0.0944
  422MOL0     C56895   8.053   8.611   0.701  0.5526  0.1962  0.5736
  422MOL0     C56896   7.903   8.608   0.674  0.5000 -0.8071  0.1997
  422MOL0     C56897   7.854   8.726   0.596 -1.2424 -0.5750 -0.8640
  422MOL0     C56898   7.892   8.845   0.675  0.3764 -0.0328  0.6244
  422MOL0     C56899   7.925   8.946   0.737 -0.4046  0.3475 -0.5280
  422MOL0     C56900   8.470   8.458   0.639  0.1093  0.3279 -0.1479
  422MOL0     C56901   8.572   8.450   0.542  0.0098  0.5551 -0.3626
  422MOL0     C56902   8.696   8.383   0.580  0.4307 -0.4203  0.3134
  422MOL0     H56903   8.946   8.588   0.331 -0.2506  0.2927 -0.9762
  422MOL0     H56904   9.100   8.678   0.148  1.3968 -1.8695 -1.2361
  422MOL0     H56905   9.131   8.771  -0.058  0.5026  0.8194 -0.6534
  422MOL0     H56906   9.264   8.673  -0.001  1.2428  3.1584  0.7280
  422MOL0     H56907   9.167   8.668  -0.286  0.1105  1.7945 -1.2683
  422MOL0     H56908   9.323   8.617  -0.245  0.5881  0.9847  1.0610
  422MOL0     H56909   9.263   8.908  -0.231  1.1293  0.1517  2.9476
  422MOL0     H56910   9.340   8.823  -0.360  0.3905  1.3558  0.0379
  422MOL0     H56911   9.454   8.811  -0.080  0.7471  0.1380 -0.1804
  422MOL0     H56912   9.518   8.752  -0.226 -1.9429 -0.4213 -0.1120
  422MOL0     H56913   9.512   9.014  -0.302 -1.6862  2.3543  0.9908
  422MOL0     H56914   9.462   9.052  -0.142  1.1870  0.0272  1.8293
  422MOL0     H56915   9.731   8.914  -0.193 -1.6552  0.0356 -2.3112
  422MOL0     H56916   9.714   9.077  -0.240  0.5482  0.3696  0.1766
  422MOL0     H56917   9.693   8.974   0.052  3.4779  1.1499  2.0323
  422MOL0     H56918   9.633   9.120   0.010 -1.2793 -2.1733  4.2075
  422MOL0     H56919   9.861   9.125   0.107  2.0296  0.4481 -0.6929
  422MOL0     H56920   9.921   9.018  -0.015 -1.6933 -1.6668  0.6751
  422MOL0     H56921   9.880   9.367   0.097  0.0993  2.6686 -0.4479
  422MOL0     H56922  10.085   9.545   0.065 -1.0065  1.1254 -0.8232
  422MOL0     H56923  10.183   9.525  -0.080  0.9937  0.0818  1.0960
  422MOL0     H56924   9.910   9.650  -0.074 -1.5622  2.5866 -3.5317
  422MOL0     H56925  10.048   9.761  -0.068 -1.7433  0.0942  0.4294
  422MOL0     H56926   9.936   9.732  -0.298 -0.1693 -0.5305 -2.0347
  422MOL0     H56927  10.005   9.570  -0.293 -3.2341  1.0589 -1.3711
  422MOL0     H56928  10.138   9.846  -0.308 -1.5625  0.4656  0.1523
  422MOL0     H56929  10.161   9.723  -0.426 -1.9672  0.8830 -0.6037
  422MOL0     H56930  10.273   9.578  -0.514 -0.7054  0.2757  1.0302
  422MOL0     H56931  10.376   9.379  -0.562 -1.5512  0.1315 -0.7331
  422MOL0     H56932  10.452   8.977  -0.552  0.7762 -0.4388 -0.4262
  422MOL0     H56933  10.493   8.759  -0.585  0.2738 -0.0678  0.9127
  422MOL0     H56934  10.490   8.538  -0.567 -1.1728 -4.9729  0.2353
  422MOL0     H56935  10.631   8.590  -0.660 -1.9669 -0.7902 -1.3447
  422MOL0     H56936  10.776   8.412  -0.597  0.2369 -2.5193 -2.7047
  422MOL0     H56937  10.662   8.339  -0.483  2.8302 -1.2923 -0.5147
  422MOL0     H56938  10.648   8.218  -0.677 -1.7775 -1.5107 -0.7359
  422MOL0     H56939  10.494   8.294  -0.666  0.4494 -1.8750  0.7450
  422MOL0     H56940  10.733   8.347  -0.848 -0.1629 -0.6259 -2.3255
  422MOL0     H56941  10.593   8.469  -0.835 -2.0661 -0.3701 -1.1373
  422MOL0     H56942  10.465   8.367  -0.965  0.5394 -0.8376 -1.5847
  422MOL0     H56943  10.480   8.219  -0.883 -0.7032  0.3741  1.0112
  422MOL0     H56944  10.678   8.307  -1.099  1.2504 -0.0506 -0.6444
  422MOL0     H56945  10.678   8.155  -1.005  0.1226  1.6053 -0.2216
  422MOL0     H56946  10.453   8.098  -1.082 -2.4505  1.2956 -1.5697
  422MOL0     H56947  10.594   8.115  -1.208  1.2123  2.2650 -1.7838
  422MOL0     H56948  10.384   8.332  -1.150  1.4890  0.9673  1.0473
  422MOL0     H56949  10.515   8.337  -1.270 -1.4249  0.8725 -2.1625
  422MOL0     H56950  10.747   8.733  -0.250 -0.4473  0.3322  1.2123
  422MOL0     H56951  10.710   8.966  -0.197 -0.4311 -2.4187  2.0249
  422MOL0     H56952  10.552   9.343  -0.172  0.5960  0.7276  0.4565
  422MOL0     H56953  10.438   9.562  -0.111  3.9201 -2.6657  0.6219
  422MOL0     H56954   8.958   8.361  -0.094  1.7277 -0.3097  0.5619
  422MOL0     H56955   8.813   8.276   0.085  1.6029 -0.9339  0.9531
  422MOL0     H56956   8.380   8.571   0.292 -1.9538  2.7225  1.0284
  422MOL0     H56957   8.206   8.565   0.456 -1.5131 -1.0508  1.9230
  422MOL0     H56958   8.071   8.431   0.781  1.1859  2.7687  1.9786
  422MOL0     H56959   8.087   8.423   0.596  0.0342 -1.6204  0.9976
  422MOL0     H56960   8.111   8.674   0.633  0.1334  0.8134  0.7749
  422MOL0     H56961   8.072   8.646   0.803  2.8287 -0.7289  0.5229
  422MOL0     H56962   7.853   8.611   0.772  1.6426  1.8579  0.7828
  422MOL0     H56963   7.866   8.522   0.617 -1.5680 -2.5174  3.7515
  422MOL0     H56964   7.912   8.728   0.503  0.0372 -0.9213 -0.1075
  422MOL0     H56965   7.747   8.723   0.577 -1.7265 -2.7601  1.6017
  422MOL0     H56966   7.974   9.023   0.793 -1.2426  1.0321 -0.7041
  422MOL0     H56967   8.502   8.432   0.740  0.4616  2.5806  0.3705
  422MOL0     H56968   8.707   8.339   0.680  0.8941 -1.6440 -0.2602
  422MOL0     H56969   8.713   8.299   0.512 -2.3406 -2.0644  1.4383
  422MOL0     H56970   8.777   8.455   0.568  0.5241 -0.6122 -0.2254
  423MOL0     O56971   7.852   4.084   1.591  0.2494  0.3936  0.3779
  423MOL0     C56972   7.885   4.039   1.480 -0.3350 -0.4543 -0.5693
  423MOL0     O56973   8.009   4.023   1.446 -0.1944 -0.3808 -0.1851
  423MOL0     C56974   8.105   4.071   1.529 -0.1585  0.0106  0.8751
  423MOL0     C56975   8.130   4.212   1.549  0.9323 -0.2948  0.9405
  423MOL0     C56976   8.218   4.262   1.637 -0.7769 -0.1996 -0.2047
  423MOL0     C56977   8.302   4.178   1.715 -0.7520 -0.1741  0.2687
  423MOL0     O56978   8.391   4.217   1.809  0.6083  0.3248  0.6656
  423MOL0     C56979   8.405   4.367   1.816 -0.9093  0.1944  0.7561
  423MOL0     C56980   8.501   4.397   1.929 -0.8763 -0.3330  0.6974
  423MOL0     C56981   8.434   4.396   2.067 -0.8441  0.0636  0.6357
  423MOL0     C56982   8.416   4.250   2.127 -0.4337  0.3402  0.1389
  423MOL0     C56983   8.351   4.260   2.263  0.7497 -0.1453 -0.7397
  423MOL0     C56984   8.348   4.134   2.332 -0.0116  0.2027 -1.7014
  423MOL0     C56985   8.252   4.125   2.449  0.5174  0.6515 -0.7406
  423MOL0     C56986   8.112   4.095   2.413 -0.0551 -0.1149 -0.0053
  423MOL0     N56987   8.017   4.118   2.520  0.0493  0.3692 -0.4255
  423MOL0     C56988   7.885   4.065   2.515 -0.0932  0.6351  0.2313
  423MOL0     C56989   7.826   4.114   2.628  0.5832  0.2693 -0.7035
  423MOL0     C56990   7.679   4.103   2.655 -0.0161 -0.2650 -0.2261
  423MOL0     C56991   7.618   4.237   2.635  0.6762 -0.1478  0.6014
  423MOL0     C56992   7.467   4.237   2.658 -0.1346 -0.1252 -0.4408
  423MOL0     C56993   7.415   4.162   2.778  0.0928 -0.3040  0.0880
  423MOL0     O56994   7.409   4.021   2.762 -0.7068  0.5337  0.1152
  423MOL0     C56995   7.341   3.952   2.859 -0.1135 -0.2621 -0.4609
  423MOL0     C56996   7.279   3.829   2.823 -0.0660  0.2471 -0.2444
  423MOL0     C56997   7.187   3.763   2.911  0.3735 -0.6665  0.8070
  423MOL0     C56998   7.162   3.806   3.041  0.5555 -0.2787 -0.6927
  423MOL0     C56999   7.071   3.736   3.138  0.1696  0.2225 -0.0366
  423MOL0     O57000   7.099   3.765   3.271 -0.7065  0.7480  0.1590
  423MOL0     C57001   7.002   3.733   3.356  1.1214 -0.1178 -0.6791
  423MOL0     C57002   6.896   3.817   3.372 -0.1700 -0.4077 -0.9028
  423MOL0     C57003   6.777   3.767   3.428  0.5151  0.3779 -0.8863
  423MOL0     C57004   6.767   3.637   3.485  0.0236  0.4521  0.1452
  423MOL0     O57005   6.652   3.596   3.545  0.1697  0.3889 -1.1333
  423MOL0     C57006   6.662   3.508   3.660 -0.1205 -1.1858  0.0929
  423MOL0     C57007   6.541   3.476   3.736 -0.2006 -0.3035 -0.5017
  423MOL0     C57008   6.435   3.420   3.645 -0.3780 -0.2557  0.9788
  423MOL0     C57009   6.342   3.533   3.599  0.0112  0.6040  0.8759
  423MOL0     C57010   6.252   3.502   3.474 -0.1364 -0.5701  0.3024
  423MOL0     C57011   6.160   3.379   3.473 -0.6018  0.1508  0.0590
  423MOL0     C57012   6.031   3.411   3.537 -0.4793  0.6107  0.5980
  423MOL0     C57013   5.922   3.306   3.539 -0.3812  0.6078 -0.0027
  423MOL0    Cl57014   5.763   3.379   3.502  0.1121 -0.0344 -0.2350
  423MOL0     C57015   6.891   3.568   3.481 -0.2864 -0.3321 -0.1721
  423MOL0     C57016   7.009   3.612   3.428  0.4355 -0.3674  0.8320
  423MOL0     O57017   6.972   3.660   3.092  0.4371  0.0046  0.1750
  423MOL0     C57018   7.239   3.919   3.081 -0.0170  0.6783 -0.1777
  423MOL0     C57019   7.321   3.996   2.993  0.4880  0.1976 -1.5720
  423MOL0     N57020   7.918   4.185   2.696  0.6532 -0.4399 -0.1039
  423MOL0     N57021   8.037   4.179   2.642  1.0332  0.8638  0.4754
  423MOL0     C57022   8.284   4.039   1.702 -0.2291 -0.7482 -0.4598
  423MOL0     C57023   8.181   3.987   1.612 -0.0574 -0.1738 -0.2739
  423MOL0     C57024   7.792   3.998   1.375  0.1933  0.9116  0.6473
  423MOL0     C57025   7.844   3.976   1.245 -0.3721  0.0061  0.2641
  423MOL0     C57026   7.762   3.911   1.153 -0.3927  0.2749  0.3387
  423MOL0     C57027   7.634   3.869   1.181  0.2317  0.1409 -0.2215
  423MOL0     O57028   7.548   3.798   1.101  0.1057 -0.1859 -0.4422
  423MOL0     C57029   7.567   3.811   0.958  0.4149  0.2831  0.4269
  423MOL0     C57030   7.523   3.700   0.870  0.5551 -0.7097  0.7441
  423MOL0     C57031   7.592   3.566   0.915  0.2784  0.5685 -0.2351
  423MOL0     C57032   7.588   3.456   0.815  0.2632 -0.4416 -0.1825
  423MOL0     C57033   7.647   3.336   0.868  0.2609 -0.2922  0.9594
  423MOL0     C57034   7.716   3.242   0.899  0.4167 -0.4988  0.8595
  423MOL0     C57035   7.583   3.892   1.305  0.2381 -0.2847 -0.7546
  423MOL0     C57036   7.655   3.966   1.399 -0.5933  0.4108  0.3557
  423MOL0     C57037   7.579   4.012   1.526 -1.3216 -0.5616 -0.2942
  423MOL0     H57038   8.064   4.276   1.491  3.5283  0.3043 -1.6681
  423MOL0     H57039   8.231   4.369   1.644 -0.1187 -0.2390 -0.6912
  423MOL0     H57040   8.444   4.397   1.718  2.0528  0.4432  1.9337
  423MOL0     H57041   8.311   4.422   1.829 -0.2195  1.7399 -0.5237
  423MOL0     H57042   8.532   4.501   1.917 -1.8396  0.2369  2.6360
  423MOL0     H57043   8.589   4.334   1.921 -0.0952  0.9519 -1.7655
  423MOL0     H57044   8.339   4.449   2.079 -3.0154 -3.5702  1.0417
  423MOL0     H57045   8.505   4.440   2.137  0.2584  1.1885 -1.1144
  423MOL0     H57046   8.350   4.196   2.059 -0.9091  3.3758 -2.0075
  423MOL0     H57047   8.511   4.197   2.129 -0.3982  0.3699 -0.5611
  423MOL0     H57048   8.402   4.338   2.320 -3.7350  3.9585 -1.6784
  423MOL0     H57049   8.255   4.310   2.250  0.7250  0.4783  1.4078
  423MOL0     H57050   8.330   4.055   2.259 -2.0161 -0.4170 -0.6075
  423MOL0     H57051   8.448   4.120   2.375 -1.1799  0.8501  1.5384
  423MOL0     H57052   8.254   4.218   2.508  0.3562 -0.8964  1.8377
  423MOL0     H57053   8.278   4.039   2.511  0.0030  4.6160  6.0475
  423MOL0     H57054   8.084   4.165   2.333 -1.9080  0.2869  0.9380
  423MOL0     H57055   8.101   3.991   2.383  1.2672 -0.3468  0.2784
  423MOL0     H57056   7.832   4.019   2.432 -1.0822  0.7780  0.7711
  423MOL0     H57057   7.645   4.024   2.586  0.9882 -0.9961  0.0860
  423MOL0     H57058   7.668   4.066   2.757  1.2923  0.3931  0.1596
  423MOL0     H57059   7.678   4.305   2.695 -1.1491  0.8420  1.3901
  423MOL0     H57060   7.647   4.273   2.536  1.7317  2.9553  1.9298
  423MOL0     H57061   7.424   4.178   2.577  0.0863 -1.3202  0.2936
  423MOL0     H57062   7.435   4.341   2.668  0.2598 -0.1067  0.7135
  423MOL0     H57063   7.313   4.192   2.804 -1.0737 -3.4360 -0.4958
  423MOL0     H57064   7.486   4.184   2.858  6.6323 -1.1594 -4.6466
  423MOL0     H57065   7.290   3.783   2.725 -0.0234 -3.1222  1.1810
  423MOL0     H57066   7.133   3.673   2.884 -2.7706  0.6829  2.0862
  423MOL0     H57067   6.904   3.912   3.320 -2.4256  0.9563  1.0621
  423MOL0     H57068   6.679   3.814   3.441  0.7731  0.2578  2.2122
  423MOL0     H57069   6.703   3.415   3.618  0.6879 -1.9412  2.3988
  423MOL0     H57070   6.738   3.534   3.734  2.3120  0.0914 -2.6742
  423MOL0     H57071   6.560   3.397   3.810 -0.2842 -2.0511 -2.2769
  423MOL0     H57072   6.500   3.555   3.799  1.1620  0.6766 -0.8027
  423MOL0     H57073   6.490   3.375   3.561  1.8358 -1.3735  2.8956
  423MOL0     H57074   6.381   3.339   3.696 -0.2366 -1.7859 -1.1449
  423MOL0     H57075   6.403   3.617   3.564 -2.4491  0.7084 -3.9372
  423MOL0     H57076   6.282   3.570   3.682  0.1775  0.3003  1.1341
  423MOL0     H57077   6.326   3.477   3.397  0.3999  1.2196  0.1972
  423MOL0     H57078   6.199   3.583   3.423 -0.9627 -1.9430 -1.1073
  423MOL0     H57079   6.159   3.359   3.366 -1.4808  1.4389 -0.1874
  423MOL0     H57080   6.209   3.297   3.528 -2.6053 -1.5719 -0.5954
  423MOL0     H57081   5.991   3.481   3.463  2.1977 -0.3173 -1.8945
  423MOL0     H57082   6.045   3.457   3.635  1.3194 -2.0887  1.7314
  423MOL0     H57083   5.949   3.224   3.473 -1.8457  0.4693 -0.4586
  423MOL0     H57084   5.911   3.255   3.635  0.1145  1.5818  0.5966
  423MOL0     H57085   6.894   3.468   3.523 -1.9047  0.5536  2.2880
  423MOL0     H57086   7.089   3.542   3.410 -0.2099 -0.4018 -2.5410
  423MOL0     H57087   7.246   3.946   3.186  3.5124 -0.1584 -0.0661
  423MOL0     H57088   7.363   4.090   3.028  0.5359 -1.2410  2.7484
  423MOL0     H57089   8.351   3.983   1.767  1.6125  0.8861 -0.8662
  423MOL0     H57090   8.154   3.882   1.609  0.1375 -0.2026 -1.1273
  423MOL0     H57091   7.944   4.002   1.212 -1.1794  0.5855 -1.8525
  423MOL0     H57092   7.803   3.899   1.053  0.6903  4.6383  0.0498
  423MOL0     H57093   7.673   3.826   0.934  0.1858  3.6780  1.0819
  423MOL0     H57094   7.515   3.907   0.943  1.2768  0.7648  0.4636
  423MOL0     H57095   7.540   3.732   0.768 -3.1605  1.0148  0.4942
  423MOL0     H57096   7.416   3.682   0.888 -0.0612  1.9454  0.1001
  423MOL0     H57097   7.546   3.535   1.009 -0.8975  1.5965 -0.4485
  423MOL0     H57098   7.697   3.578   0.944 -0.3857  0.3398  2.5916
  423MOL0     H57099   7.482   3.437   0.795 -1.1636  1.1072  4.6154
  423MOL0     H57100   7.648   3.482   0.727 -2.9027 -0.5420 -2.5586
  423MOL0     H57101   7.784   3.162   0.922  1.7750  1.0804  2.7569
  423MOL0     H57102   7.482   3.864   1.332  0.0364 -0.0960 -1.2964
  423MOL0     H57103   7.607   3.962   1.619 -3.9504 -1.3411  0.1495
  423MOL0     H57104   7.579   4.119   1.546  3.1708  0.0957 -2.3450
  423MOL0     H57105   7.477   3.974   1.516 -1.5074  0.1991 -1.6342
  424MOL0     O57106   0.059   9.580   2.884  0.0675  0.8954 -0.2957
  424MOL0     C57107   0.020   9.668   2.967  0.0536  0.8931  0.9050
  424MOL0     O57108   0.097   9.726   3.063 -1.3916 -0.2728  0.7617
  424MOL0     C57109   0.230   9.688   3.065  0.5022  0.1153  0.2685
  424MOL0     C57110   0.327   9.738   2.971 -0.1179  0.9064  0.2389
  424MOL0     C57111   0.455   9.694   2.980 -0.2621 -0.0270 -0.0509
  424MOL0     C57112   0.498   9.611   3.083 -0.0222  0.2769  0.2481
  424MOL0     O57113   0.626   9.566   3.109  0.5553 -0.4354  0.3188
  424MOL0     C57114   0.727   9.648   3.048 -0.5803 -0.0671  0.5039
  424MOL0     C57115   0.864   9.608   3.101 -0.3248 -0.2052  0.0038
  424MOL0     C57116   0.969   9.722   3.083  0.5350  0.5831  0.9863
  424MOL0     C57117   1.016   9.731   2.944  0.1770 -0.3285  1.5559
  424MOL0     C57118   1.132   9.634   2.930  0.5419  0.1625  0.5331
  424MOL0     C57119   1.196   9.626   2.787  0.4320  0.6415  0.3070
  424MOL0     C57120   1.269   9.746   2.745  0.9091  0.2738  0.8987
  424MOL0     C57121   1.298   9.730   2.597  0.5996  0.7875  0.3055
  424MOL0     N57122   1.188   9.762   2.495 -0.2804 -0.6378 -0.2898
  424MOL0     C57123   1.051   9.799   2.530 -0.5908 -0.1863 -0.3512
  424MOL0     C57124   0.992   9.854   2.425 -0.2969  0.5875  0.8761
  424MOL0     C57125   0.855   9.900   2.408 -0.3170 -0.0495  0.2495
  424MOL0     C57126   0.861  10.054   2.411  0.1319  0.7665 -0.4736
  424MOL0     C57127   0.768  10.113   2.307 -0.2541 -0.5176 -0.1581
  424MOL0     C57128   0.772  10.264   2.300  0.0758 -0.2219 -0.0319
  424MOL0     O57129   0.905  10.320   2.273  0.3519 -0.0797  0.1564
  424MOL0     C57130   0.958  10.314   2.146 -0.2190 -0.2848  0.5440
  424MOL0     C57131   1.012  10.436   2.106 -0.2512 -0.7661  0.3443
  424MOL0     C57132   1.059  10.451   1.971  0.5575  0.0308  0.4537
  424MOL0     C57133   1.068  10.341   1.880  0.0762 -1.2162 -0.3150
  424MOL0     C57134   1.130  10.351   1.743  0.1809 -1.1638  0.1281
  424MOL0     O57135   1.116  10.250   1.657  0.0239  0.4535 -0.0844
  424MOL0     C57136   1.180  10.264   1.535  0.2613  0.6390 -0.5736
  424MOL0     C57137   1.300  10.200   1.517  0.6857 -1.0633 -0.3432
  424MOL0     C57138   1.374  10.208   1.410  0.8345  0.1464  0.0876
  424MOL0     C57139   1.341  10.289   1.294  0.0444  0.3079 -0.2726
  424MOL0     O57140   1.411  10.317   1.179 -0.3374 -0.5630 -0.1866
  424MOL0     C57141   1.519  10.211   1.153  0.6780 -0.2136  0.2653
  424MOL0     C57142   1.584  10.235   1.012  0.3191 -0.6985  0.5360
  424MOL0     C57143   1.631  10.382   0.984 -0.2863  1.2567 -0.7090
  424MOL0     C57144   1.620  10.434   0.845 -0.1515  0.7872 -0.5592
  424MOL0     C57145   1.732  10.536   0.810 -0.0349  0.4363 -0.7742
  424MOL0     C57146   1.733  10.566   0.667  0.2592 -0.7791  0.5200
  424MOL0     C57147   1.840  10.669   0.615 -0.1630  0.6363 -0.6169
  424MOL0     C57148   1.832  10.682   0.469 -0.4737 -0.3611  0.3138
  424MOL0    Cl57149   1.975  10.764   0.395 -0.3644  0.1433 -0.1684
  424MOL0     C57150   1.222  10.356   1.309 -0.5743 -0.4178  0.1968
  424MOL0     C57151   1.138  10.334   1.422  0.1030  0.9190  1.2575
  424MOL0     O57152   1.188  10.456   1.720  0.7195  0.0133  0.5731
  424MOL0     C57153   1.022  10.219   1.928 -0.4493  0.2589  0.1288
  424MOL0     C57154   0.963  10.202   2.057 -0.0695 -0.2131  0.0906
  424MOL0     N57155   1.088   9.847   2.322  0.3589 -0.7305 -0.4287
  424MOL0     N57156   1.197   9.796   2.361  0.4785  0.5066 -1.4583
  424MOL0     C57157   0.403   9.557   3.168  0.2757  0.6690  0.0246
  424MOL0     C57158   0.264   9.598   3.169  1.1863 -0.7683 -0.5083
  424MOL0     C57159  -0.128   9.690   2.980 -0.3183  0.5620  0.5786
  424MOL0     C57160  -0.166   9.824   3.005 -0.8088  0.7917  0.1280
  424MOL0     C57161  -0.290   9.858   3.041 -0.4710  0.2947 -0.5232
  424MOL0     C57162  -0.382   9.759   3.057  0.4835  0.4421  0.4129
  424MOL0     O57163  -0.510   9.784   3.089 -0.0813 -0.8135 -0.1534
  424MOL0     C57164  -0.579   9.909   3.066 -0.2881 -0.7222  0.9098
  424MOL0     C57165  -0.565   9.998   3.185 -0.2372 -0.0753  0.2235
  424MOL0     C57166  -0.643  10.130   3.163  0.4127 -0.9690  0.3481
  424MOL0     C57167  -0.650  10.218   3.286 -0.3055  0.0830 -0.5529
  424MOL0     C57168  -0.738  10.168   3.389  0.2663  0.4089 -0.0023
  424MOL0     C57169  -0.809  10.100   3.463 -0.0120 -0.4626  0.3940
  424MOL0     C57170  -0.348   9.628   3.036  0.0199 -1.1347  0.6181
  424MOL0     C57171  -0.220   9.587   2.993 -0.5190 -0.2541 -0.0926
  424MOL0     C57172  -0.187   9.440   2.986 -0.5388  0.4127 -0.3825
  424MOL0     H57173   0.295   9.800   2.888 -0.9137 -0.0891 -0.2215
  424MOL0     H57174   0.540   9.728   2.921  0.4953  0.1687  1.1395
  424MOL0     H57175   0.723   9.624   2.941 -0.5128 -1.9965  0.8943
  424MOL0     H57176   0.700   9.753   3.061  3.7573  2.0812 -4.3347
  424MOL0     H57177   0.887   9.513   3.052 -1.4259 -0.5000  0.0360
  424MOL0     H57178   0.872   9.584   3.207  1.3829  0.1392 -0.0174
  424MOL0     H57179   1.044   9.692   3.156 -1.6987 -1.1177  2.7667
  424MOL0     H57180   0.932   9.822   3.107 -0.2853  0.4513  0.3258
  424MOL0     H57181   0.930   9.721   2.878  0.3174  1.4778  1.0332
  424MOL0     H57182   1.050   9.833   2.922  2.2846 -1.2498  0.1355
  424MOL0     H57183   1.214   9.666   2.995 -1.8957 -1.9301  5.0845
  424MOL0     H57184   1.102   9.534   2.962 -0.1942  0.6470  1.3842
  424MOL0     H57185   1.271   9.546   2.787  0.9336  0.9231 -3.1191
  424MOL0     H57186   1.115   9.605   2.716  0.2990  1.0957  0.3230
  424MOL0     H57187   1.363   9.759   2.798  1.3652  0.4551  0.0579
  424MOL0     H57188   1.206   9.835   2.761  0.5820  0.0734  0.7375
  424MOL0     H57189   1.390   9.786   2.577  0.4644  0.3034 -1.8731
  424MOL0     H57190   1.315   9.622   2.587  3.0673  1.1370  0.1076
  424MOL0     H57191   1.006   9.796   2.629  2.3297  1.4336  1.1381
  424MOL0     H57192   0.814   9.857   2.316 -0.4096 -1.5577  0.9731
  424MOL0     H57193   0.797   9.864   2.493  0.4299 -0.0801  0.7547
  424MOL0     H57194   0.839  10.097   2.509 -0.8117 -1.6167  0.4336
  424MOL0     H57195   0.963  10.088   2.391  1.6504 -1.7931  2.1557
  424MOL0     H57196   0.666  10.084   2.331 -0.6507  2.7716  3.0443
  424MOL0     H57197   0.790  10.080   2.205  1.8543  0.6897 -0.1501
  424MOL0     H57198   0.743  10.295   2.401 -1.1351  1.4717 -0.8380
  424MOL0     H57199   0.699  10.304   2.229 -1.1986  1.1887  1.9468
  424MOL0     H57200   1.020  10.521   2.172  0.7071 -1.0808  0.6553
  424MOL0     H57201   1.110  10.540   1.936 -0.4257 -0.2681 -1.8923
  424MOL0     H57202   1.340  10.146   1.602 -0.8308  1.5984  2.2820
  424MOL0     H57203   1.471  10.159   1.408  0.7568 -0.3149  2.8895
  424MOL0     H57204   1.592  10.225   1.234 -0.1966  1.6177  0.7997
  424MOL0     H57205   1.468  10.115   1.165 -5.4532  2.1845 -2.6163
  424MOL0     H57206   1.672  10.175   0.992  1.6710  1.0412  0.9964
  424MOL0     H57207   1.511  10.200   0.938  0.6584 -0.2238 -0.0365
  424MOL0     H57208   1.577  10.439   1.061  0.3019 -2.5199  2.8825
  424MOL0     H57209   1.736  10.379   1.016 -0.1680  3.2575 -0.7538
  424MOL0     H57210   1.528  10.492   0.851 -1.2098 -0.9054  0.1659
  424MOL0     H57211   1.608  10.356   0.770  0.1872  1.4105 -1.2707
  424MOL0     H57212   1.833  10.497   0.826  0.5186  1.0230 -2.6385
  424MOL0     H57213   1.718  10.629   0.865 -1.4702 -1.4889  2.4252
  424MOL0     H57214   1.741  10.470   0.615  0.4539  1.1901 -3.4068
  424MOL0     H57215   1.634  10.609   0.646  1.4642  0.3097 -4.0478
  424MOL0     H57216   1.939  10.636   0.648 -0.8723 -1.9714 -0.9109
  424MOL0     H57217   1.807  10.759   0.667  0.7782  1.9339 -2.1508
  424MOL0     H57218   1.833  10.584   0.420  1.3716 -0.4010  0.3524
  424MOL0     H57219   1.739  10.731   0.437 -1.3061 -2.3144 -0.4220
  424MOL0     H57220   1.186  10.424   1.232 -1.8672  1.7832  2.5742
  424MOL0     H57221   1.053  10.399   1.442  0.5221  2.2652 -0.9000
  424MOL0     H57222   1.022  10.136   1.858 -3.3517 -1.5526  2.0692
  424MOL0     H57223   0.934  10.101   2.084  3.4390 -1.1896  0.6403
  424MOL0     H57224   0.424   9.481   3.242  0.0626  0.8257  0.2486
  424MOL0     H57225   0.177   9.562   3.223  0.2133 -1.7649 -2.6276
  424MOL0     H57226  -0.085   9.896   3.004  0.2351 -0.2713 -2.5053
  424MOL0     H57227  -0.306   9.963   3.062 -2.9865 -0.0902 -0.1806
  424MOL0     H57228  -0.683   9.881   3.047 -0.2083 -1.9182  2.0506
  424MOL0     H57229  -0.544   9.964   2.978  0.2115  1.0433  2.1645
  424MOL0     H57230  -0.460  10.023   3.201 -0.7552  3.1056 -0.6028
  424MOL0     H57231  -0.603   9.947   3.274 -0.2510  2.3026  1.6626
  424MOL0     H57232  -0.745  10.118   3.126  0.4716 -0.3587 -0.0394
  424MOL0     H57233  -0.593  10.183   3.080 -0.7217 -2.2177 -1.1931
  424MOL0     H57234  -0.554  10.243   3.331 -0.3019  0.0069 -0.5195
  424MOL0     H57235  -0.691  10.312   3.247 -0.4785  0.8150  1.3015
  424MOL0     H57236  -0.876  10.049   3.530 -0.8458 -5.9573 -3.8733
  424MOL0     H57237  -0.419   9.548   3.055  1.8938 -3.8570 -2.6346
  424MOL0     H57238  -0.121   9.409   2.904 -1.0282 -2.0534  0.0627
  424MOL0     H57239  -0.138   9.411   3.079  0.1321 -2.2437 -1.4526
  424MOL0     H57240  -0.278   9.378   2.979 -0.3979  0.3670 -4.1799
  425MOL0     O57241   5.647   7.177  11.317  0.6061  0.6546  0.3996
  425MOL0     C57242   5.696   7.188  11.429 -0.9995 -0.1890  0.2683
  425MOL0     O57243   5.651   7.276  11.529 -0.0461  0.3663 -0.5256
  425MOL0     C57244   5.578   7.382  11.484 -0.8885  0.0178  0.2351
  425MOL0     C57245   5.609   7.461  11.367  0.0273 -1.0981 -0.0064
  425MOL0     C57246   5.516   7.567  11.343  0.4145  0.3043 -0.9175
  425MOL0     C57247   5.403   7.598  11.422  0.3564 -0.2793  0.4691
  425MOL0     O57248   5.324   7.709  11.396  0.4988 -0.5350  0.0962
  425MOL0     C57249   5.363   7.813  11.311 -0.5693  0.3346  0.3594
  425MOL0     C57250   5.327   7.806  11.156  0.0093  0.9975  0.1283
  425MOL0     C57251   5.184   7.768  11.118  0.2748 -0.0706 -0.5231
  425MOL0     C57252   5.167   7.810  10.978  0.1470 -0.1455  0.1682
  425MOL0     C57253   5.059   7.725  10.904 -0.3256 -0.0136  1.2854
  425MOL0     C57254   4.918   7.756  10.957 -0.6128  0.0697  0.3551
  425MOL0     C57255   4.816   7.812  10.859  0.3495 -0.4237  0.0433
  425MOL0     C57256   4.747   7.694  10.794 -0.3368 -0.8282 -0.9655
  425MOL0     N57257   4.838   7.606  10.708 -0.3108 -0.7339  0.3751
  425MOL0     C57258   4.883   7.640  10.582 -0.1727 -0.7680 -0.0694
  425MOL0     C57259   4.954   7.530  10.544  0.1508  0.1777  0.6017
  425MOL0     C57260   5.036   7.502  10.423 -0.0643  0.4575 -0.2979
  425MOL0     C57261   5.180   7.544  10.421 -0.1481 -0.1901 -0.0650
  425MOL0     C57262   5.276   7.447  10.497 -0.6967 -0.4374  0.5405
  425MOL0     C57263   5.415   7.495  10.523 -0.0262 -0.7737 -0.0356
  425MOL0     O57264   5.415   7.617  10.592  0.2321  0.6312  0.0285
  425MOL0     C57265   5.499   7.710  10.558 -0.8468  0.3083  0.7266
  425MOL0     C57266   5.593   7.764  10.657  0.8855 -1.0963  0.1226
  425MOL0     C57267   5.685   7.866  10.627  1.1294  1.0371 -1.1175
  425MOL0     C57268   5.686   7.924  10.503  0.4857 -0.2023  0.5263
  425MOL0     C57269   5.793   8.013  10.474  0.8404  0.1450 -0.1367
  425MOL0     O57270   5.810   8.041  10.345  0.0071  0.0021  0.1409
  425MOL0     C57271   5.901   8.129  10.290 -0.8912 -0.3319 -0.1981
  425MOL0     C57272   6.037   8.143  10.335  0.9579  0.9551 -0.3508
  425MOL0     C57273   6.121   8.241  10.268 -0.4733  1.0408 -0.8335
  425MOL0     C57274   6.070   8.326  10.167  0.4081 -0.4226  1.0038
  425MOL0     O57275   6.158   8.423  10.111 -1.4968 -0.3916  0.0772
  425MOL0     C57276   6.116   8.515  10.016 -1.7396 -0.5616 -0.0099
  425MOL0     C57277   6.238   8.611   9.975  0.9437  0.2300 -0.6816
  425MOL0     C57278   6.181   8.718   9.885  0.4886  0.6139  1.1886
  425MOL0     C57279   6.255   8.849   9.868  0.0006  0.0916 -0.3807
  425MOL0     C57280   6.399   8.837   9.804 -0.6962 -0.6952  0.0284
  425MOL0     C57281   6.517   8.852   9.888 -0.2862 -0.6957 -0.3726
  425MOL0     C57282   6.647   8.852   9.815 -0.5592 -0.3019 -0.0074
  425MOL0     C57283   6.659   8.725   9.728  0.8222  0.6855  0.5689
  425MOL0    Cl57284   6.821   8.651   9.746 -0.0240  0.8356  0.3044
  425MOL0     C57285   5.941   8.306  10.125  0.9027  0.1882  0.3536
  425MOL0     C57286   5.855   8.197  10.174 -1.2958 -0.3195  0.2893
  425MOL0     O57287   5.859   8.050  10.563 -0.3016 -0.3637 -0.4197
  425MOL0     C57288   5.591   7.880  10.406 -0.4926  0.5802  0.7212
  425MOL0     C57289   5.512   7.768  10.427 -0.1104  0.2230 -0.1348
  425MOL0     N57290   4.966   7.444  10.647 -0.2382  0.3739 -0.2560
  425MOL0     N57291   4.900   7.494  10.749 -0.9595  0.4847 -0.1605
  425MOL0     C57292   5.380   7.526  11.536  0.2417  0.7044  0.1418
  425MOL0     C57293   5.461   7.413  11.558  0.8075  0.4868  0.3808
  425MOL0     C57294   5.796   7.093  11.480  0.3443  0.4226  0.1165
  425MOL0     C57295   5.822   7.090  11.619  0.4440 -0.9022 -0.9358
  425MOL0     C57296   5.898   6.988  11.678 -0.3932  0.6627  0.0587
  425MOL0     C57297   5.962   6.889  11.602  0.4065  0.1046  0.3026
  425MOL0     O57298   6.049   6.791  11.661  0.4610 -0.9716 -0.1339
  425MOL0     C57299   6.096   6.817  11.801  0.6054 -0.3217 -0.5191
  425MOL0     C57300   6.229   6.753  11.824 -1.4119 -0.5400  0.2007
  425MOL0     C57301   6.226   6.601  11.822 -0.0816  0.7651 -0.2943
  425MOL0     C57302   6.367   6.533  11.823  0.5414 -0.6001 -0.0820
  425MOL0     C57303   6.365   6.383  11.857  0.1118  0.2248  0.6187
  425MOL0     C57304   6.371   6.265  11.883  0.1858 -0.3054  0.2081
  425MOL0     C57305   5.934   6.898  11.467 -0.6335 -0.8645  0.1492
  425MOL0     C57306   5.856   6.991  11.398 -0.4627 -1.4623 -0.4680
  425MOL0     C57307   5.842   6.974  11.248  0.3269 -0.2465 -0.2252
  425MOL0     H57308   5.700   7.451  11.309  1.8023  1.2203  2.1332
  425MOL0     H57309   5.516   7.618  11.247  1.5606 -1.8897 -2.1593
  425MOL0     H57310   5.303   7.896  11.350 -3.2463 -2.1675  1.9257
  425MOL0     H57311   5.465   7.843  11.337 -0.9306  0.2104  2.0374
  425MOL0     H57312   5.387   7.726  11.109  3.2141  3.0594  0.3924
  425MOL0     H57313   5.355   7.898  11.103  4.5309  0.6837  1.5805
  425MOL0     H57314   5.111   7.817  11.183  1.2114  2.6669 -1.3823
  425MOL0     H57315   5.149   7.664  11.121 -0.8361  0.3057  2.1110
  425MOL0     H57316   5.154   7.917  10.961  1.5489 -0.0253 -0.3222
  425MOL0     H57317   5.255   7.775  10.923 -1.1567 -1.8771 -0.8979
  425MOL0     H57318   5.059   7.757  10.799 -0.6518 -0.1869  1.2286
  425MOL0     H57319   5.079   7.618  10.913 -3.4726 -0.7273  1.1235
  425MOL0     H57320   4.880   7.663  10.999  1.6647 -1.2439 -0.3294
  425MOL0     H57321   4.941   7.832  11.032  4.4287  0.7171 -1.4834
  425MOL0     H57322   4.858   7.879  10.784  0.9763  0.8425  1.4696
  425MOL0     H57323   4.742   7.867  10.918 -1.5501 -0.2623 -2.3572
  425MOL0     H57324   4.692   7.635  10.867  0.2295  0.3788  0.4833
  425MOL0     H57325   4.677   7.740  10.724 -4.3735 -0.9221  2.6257
  425MOL0     H57326   4.860   7.732  10.528 -6.3732 -0.7633  1.7783
  425MOL0     H57327   5.029   7.396  10.396  2.0132  0.5312 -1.2830
  425MOL0     H57328   4.995   7.559  10.339  1.2984  0.1105 -1.2265
  425MOL0     H57329   5.210   7.545  10.316 -0.2072 -3.2512 -0.1906
  425MOL0     H57330   5.185   7.647  10.457 -2.2667  1.6302 -4.3104
  425MOL0     H57331   5.280   7.348  10.450 -0.8962  0.6208 -1.8813
  425MOL0     H57332   5.233   7.428  10.595 -2.4352  0.1940 -0.0757
  425MOL0     H57333   5.458   7.502  10.423  1.5635 -1.4133  0.5728
  425MOL0     H57334   5.471   7.414  10.570  1.6720 -0.1686 -0.9105
  425MOL0     H57335   5.603   7.723  10.757  1.3936 -2.1708 -0.3580
  425MOL0     H57336   5.761   7.876  10.705  0.4638  3.4138 -0.6733
  425MOL0     H57337   6.067   8.077  10.416 -3.1059  0.0651  0.6719
  425MOL0     H57338   6.225   8.262  10.289 -1.1797  4.4213 -0.1630
  425MOL0     H57339   6.071   8.473   9.925 -1.5198  3.9536 -2.4698
  425MOL0     H57340   6.038   8.576  10.061  0.8168  4.8376 -2.0217
  425MOL0     H57341   6.280   8.651  10.068 -0.1690  1.5914 -0.7416
  425MOL0     H57342   6.325   8.571   9.922 -0.4644 -0.6674 -2.3891
  425MOL0     H57343   6.176   8.667   9.788  2.5023  1.5267  0.5337
  425MOL0     H57344   6.079   8.748   9.910  0.4160 -0.4662  2.2750
  425MOL0     H57345   6.261   8.914   9.956 -1.3066 -0.7866  0.3888
  425MOL0     H57346   6.185   8.898   9.800 -0.8587  0.1640  0.5194
  425MOL0     H57347   6.419   8.915   9.730 -1.0892 -2.1272 -1.6657
  425MOL0     H57348   6.403   8.746   9.744 -2.3253 -1.7467  1.4137
  425MOL0     H57349   6.507   8.957   9.915  3.0093 -0.4604  0.3496
  425MOL0     H57350   6.520   8.801   9.985  0.4165 -0.6745 -0.3840
  425MOL0     H57351   6.727   8.858   9.889 -0.2860 -1.8556 -0.1447
  425MOL0     H57352   6.656   8.943   9.754 -0.3792 -2.1368 -2.9145
  425MOL0     H57353   6.584   8.652   9.759  2.3078 -1.0070  0.2915
  425MOL0     H57354   6.642   8.743   9.621  0.1644 -0.5263  0.4453
  425MOL0     H57355   5.900   8.370  10.047 -3.7365 -1.5281  1.0220
  425MOL0     H57356   5.757   8.173  10.132 -0.8800 -0.4077 -0.6548
  425MOL0     H57357   5.575   7.918  10.306 -1.6757  0.0386  0.6814
  425MOL0     H57358   5.438   7.729  10.357 -0.1654 -3.4787  1.7521
  425MOL0     H57359   5.293   7.545  11.598  0.8607 -1.8646  1.9672
  425MOL0     H57360   5.452   7.360  11.652 -3.1930 -1.3492 -0.8413
  425MOL0     H57361   5.761   7.144  11.691  1.5113  0.7903 -1.2413
  425MOL0     H57362   5.895   6.991  11.787  0.5128  3.4581  0.0998
  425MOL0     H57363   6.017   6.786  11.870 -1.8788  1.8799 -2.1820
  425MOL0     H57364   6.108   6.923  11.823 -0.5383 -0.9665  4.5165
  425MOL0     H57365   6.266   6.775  11.924  2.2242 -2.4369 -0.5666
  425MOL0     H57366   6.309   6.786  11.758  1.2370 -3.1938  1.8344
  425MOL0     H57367   6.169   6.551  11.743  2.9556 -3.4392 -0.1880
  425MOL0     H57368   6.174   6.580  11.916 -0.5476  0.8151 -0.5411
  425MOL0     H57369   6.414   6.546  11.725 -1.5524 -0.7167 -1.1577
  425MOL0     H57370   6.427   6.593  11.892  0.4541 -0.3498 -0.2200
  425MOL0     H57371   6.377   6.160  11.904  0.5967 -0.9301 -2.6617
  425MOL0     H57372   5.980   6.814  11.415  0.4103 -1.1262  1.4622
  425MOL0     H57373   5.738   6.953  11.219  0.1656  1.9858 -1.5669
  425MOL0     H57374   5.868   7.061  11.186  0.4754 -0.3872 -0.3610
  425MOL0     H57375   5.896   6.884  11.219 -3.3517 -2.9866  0.6891
  426MOL0     O57376   3.628   0.493   9.393 -0.3447 -0.0080 -0.3564
  426MOL0     C57377   3.549   0.397   9.387 -0.8815 -0.3251 -0.2072
  426MOL0     O57378   3.523   0.329   9.272 -0.8012  0.1131 -0.6823
  426MOL0     C57379   3.614   0.332   9.175  0.1470  0.2083  0.0917
  426MOL0     C57380   3.615   0.435   9.077  0.1132 -0.5908 -0.9020
  426MOL0     C57381   3.721   0.431   8.984 -0.6747 -0.4101 -0.8268
  426MOL0     C57382   3.800   0.319   8.969  0.5793 -0.3108 -0.7064
  426MOL0     O57383   3.892   0.318   8.871 -0.1362 -0.1558  0.2993
  426MOL0     C57384   3.965   0.197   8.834  0.2559  0.6089  0.0426
  426MOL0     C57385   4.082   0.245   8.753 -0.5243  0.3724  0.0199
  426MOL0     C57386   4.160   0.139   8.674  0.2828 -0.2762 -0.0629
  426MOL0     C57387   4.275   0.217   8.599  0.0453 -0.5765  0.7127
  426MOL0     C57388   4.368   0.130   8.514 -0.2971 -0.2519 -0.8475
  426MOL0     C57389   4.296   0.047   8.401 -0.7118  0.1380 -0.4309
  426MOL0     C57390   4.226   0.141   8.290 -0.3866 -1.1601 -0.5484
  426MOL0     C57391   4.107   0.068   8.229  0.1366 -0.2005 -0.1522
  426MOL0     N57392   4.001   0.152   8.177  0.7688 -0.4164 -0.5694
  426MOL0     C57393   4.019   0.212   8.056  0.9115 -0.6790  0.3051
  426MOL0     C57394   3.897   0.264   8.031  0.9942  0.0679  0.8738
  426MOL0     C57395   3.848   0.310   7.892 -0.0440 -1.0926 -0.1797
  426MOL0     C57396   3.735   0.409   7.906 -0.7368  0.1874  0.5939
  426MOL0     C57397   3.792   0.557   7.917  0.2070 -0.4422 -0.6187
  426MOL0     C57398   3.706   0.636   8.012  0.1707  0.3275 -0.0312
  426MOL0     O57399   3.688   0.772   7.969 -0.5545 -1.1054 -0.2932
  426MOL0     C57400   3.709   0.870   8.064 -0.5683  0.1493 -0.6860
  426MOL0     C57401   3.758   0.984   8.011 -0.2886  0.2052 -0.2774
  426MOL0     C57402   3.800   1.087   8.094  0.2148  1.2274  0.2815
  426MOL0     C57403   3.790   1.070   8.233  0.0565  0.1389  0.0451
  426MOL0     C57404   3.847   1.175   8.324  0.2628  0.0755 -0.3373
  426MOL0     O57405   3.805   1.185   8.450 -0.7340  0.7708  0.0868
  426MOL0     C57406   3.863   1.283   8.522 -0.4382 -0.8255 -0.1703
  426MOL0     C57407   3.836   1.421   8.504  0.5110  0.3267 -1.0057
  426MOL0     C57408   3.888   1.509   8.596 -1.1934  0.4112 -0.2726
  426MOL0     C57409   3.973   1.460   8.700  0.4403  0.3352 -0.0644
  426MOL0     O57410   4.035   1.560   8.771 -0.5102  0.8972  0.0578
  426MOL0     C57411   4.175   1.547   8.778 -0.2035  0.2694 -0.1319
  426MOL0     C57412   4.234   1.695   8.774 -0.1432 -0.3242 -0.6248
  426MOL0     C57413   4.185   1.787   8.895  0.5515  0.6157  0.0876
  426MOL0     C57414   4.218   1.927   8.881  0.5185 -0.2028 -0.0963
  426MOL0     C57415   4.153   2.016   8.984  0.3742 -0.1915 -0.1362
  426MOL0     C57416   4.208   2.160   9.000  0.9995  0.1170  0.0259
  426MOL0     C57417   4.212   2.231   8.859 -0.9258 -0.6967  0.7317
  426MOL0     C57418   4.071   2.250   8.802  0.5068  0.2113  0.3988
  426MOL0    Cl57419   4.064   2.382   8.684  0.0318  0.2329 -0.2644
  426MOL0     C57420   4.003   1.327   8.719 -0.1452  0.3314  1.0721
  426MOL0     C57421   3.949   1.240   8.626 -0.6153 -0.4838  0.6406
  426MOL0     O57422   3.924   1.252   8.265 -0.7376 -0.8071  0.0617
  426MOL0     C57423   3.736   0.960   8.292 -0.2067 -0.3316 -0.2858
  426MOL0     C57424   3.704   0.848   8.205  0.3849  0.1178 -0.1892
  426MOL0     N57425   3.809   0.232   8.135 -0.4863  0.1034  0.8189
  426MOL0     N57426   3.874   0.167   8.225 -0.4151 -0.4393  0.4721
  426MOL0     C57427   3.791   0.215   9.061 -0.0147  0.1867 -0.4111
  426MOL0     C57428   3.698   0.224   9.166  0.7300  0.1113  0.4551
  426MOL0     C57429   3.473   0.373   9.507  0.2623  0.7562 -0.1176
  426MOL0     C57430   3.410   0.478   9.569 -0.5077 -0.0713 -0.3443
  426MOL0     C57431   3.338   0.465   9.685  0.8932 -0.1360 -0.1690
  426MOL0     C57432   3.321   0.334   9.738  0.4487  0.1157  0.0088
  426MOL0     O57433   3.276   0.305   9.866  0.4257  0.2620  0.3544
  426MOL0     C57434   3.225   0.423   9.937  0.5401  0.5120 -0.9220
  426MOL0     C57435   3.101   0.491   9.877 -0.0324 -1.0438  0.1889
  426MOL0     C57436   2.973   0.456   9.947  0.0263 -0.1746 -0.8951
  426MOL0     C57437   2.938   0.298   9.941  0.9408  0.1348 -0.3050
  426MOL0     C57438   2.894   0.263   9.809 -0.2407 -0.1007  0.6416
  426MOL0     C57439   2.830   0.246   9.708 -1.0002 -0.6134  1.0253
  426MOL0     C57440   3.379   0.223   9.667  0.7791  0.6500 -0.5475
  426MOL0     C57441   3.444   0.244   9.554  0.3851  0.4683 -0.9379
  426MOL0     C57442   3.490   0.112   9.488 -0.1334 -0.1252 -0.5018
  426MOL0     H57443   3.542   0.516   9.080  0.9706  0.2230 -1.3794
  426MOL0     H57444   3.745   0.510   8.913 -0.3848  0.6471  0.4215
  426MOL0     H57445   4.003   0.134   8.914 -0.3242  0.0235 -0.1355
  426MOL0     H57446   3.900   0.123   8.786 -0.4328 -0.4822  2.5078
  426MOL0     H57447   4.147   0.293   8.828  1.6463  1.0247 -2.1675
  426MOL0     H57448   4.052   0.323   8.683 -1.0783 -1.7778 -2.2862
  426MOL0     H57449   4.099   0.084   8.602  0.0556 -2.1294  1.4584
  426MOL0     H57450   4.190   0.067   8.751 -0.8345  1.1448  1.8042
  426MOL0     H57451   4.241   0.300   8.537 -2.0560 -2.8605 -1.4637
  426MOL0     H57452   4.329   0.265   8.681  0.2760 -0.8438  0.7202
  426MOL0     H57453   4.447   0.193   8.471  0.6995 -1.6086 -1.0441
  426MOL0     H57454   4.415   0.054   8.576  3.1631  0.0026 -2.8944
  426MOL0     H57455   4.361  -0.023   8.347 -0.7535 -0.4727  0.2893
  426MOL0     H57456   4.215  -0.009   8.448 -1.4063 -0.0281 -1.7814
  426MOL0     H57457   4.296   0.159   8.208 -0.5318 -0.1896 -0.4643
  426MOL0     H57458   4.188   0.228   8.344 -2.3119 -1.3545 -1.5083
  426MOL0     H57459   4.139  -0.005   8.154  1.9344 -1.2659  1.5880
  426MOL0     H57460   4.055  -0.002   8.295  0.7709  1.2029  1.9114
  426MOL0     H57461   4.106   0.241   7.997  0.1917  4.1682  1.1778
  426MOL0     H57462   3.933   0.350   7.836  0.5415 -1.5007  0.4107
  426MOL0     H57463   3.816   0.228   7.827 -6.8357  1.4925 -0.8980
  426MOL0     H57464   3.671   0.407   7.817  2.1142 -0.5255 -1.5751
  426MOL0     H57465   3.689   0.375   7.999 -0.6484  0.9562  0.9304
  426MOL0     H57466   3.786   0.602   7.818 -3.9763 -2.4195 -1.4816
  426MOL0     H57467   3.897   0.567   7.946  0.1053 -1.9243  0.3776
  426MOL0     H57468   3.763   0.631   8.106  0.0564  0.6850  0.0576
  426MOL0     H57469   3.602   0.602   8.017  0.0440  0.6236 -0.6405
  426MOL0     H57470   3.788   0.976   7.907  1.5587  1.6295  0.0891
  426MOL0     H57471   3.854   1.165   8.041  3.0884 -1.1039 -0.4981
  426MOL0     H57472   3.753   1.440   8.437 -3.2101 -2.6323  2.2794
  426MOL0     H57473   3.872   1.616   8.584  0.0415  0.5068 -1.2613
  426MOL0     H57474   4.189   1.498   8.875  1.7521  0.7320 -0.1558
  426MOL0     H57475   4.215   1.482   8.700  0.1453  0.0129  0.2569
  426MOL0     H57476   4.343   1.690   8.774  0.0384  1.9824  0.8792
  426MOL0     H57477   4.207   1.744   8.680  0.6143  2.3918  0.4796
  426MOL0     H57478   4.076   1.788   8.886  0.6791  1.2252 -2.2506
  426MOL0     H57479   4.220   1.753   8.992 -0.0975 -0.6519 -0.1028
  426MOL0     H57480   4.201   1.954   8.776 -1.9022 -0.3225  0.1998
  426MOL0     H57481   4.324   1.938   8.904 -0.1327  3.3018  1.9115
  426MOL0     H57482   4.160   1.974   9.085 -0.0220 -0.9137 -0.3975
  426MOL0     H57483   4.047   2.029   8.958  0.2840  0.2551  0.4385
  426MOL0     H57484   4.129   2.204   9.062  1.6384  1.6563 -0.2137
  426MOL0     H57485   4.303   2.163   9.054 -0.9803  2.2606  3.8229
  426MOL0     H57486   4.280   2.189   8.785  2.4914  4.3303  0.4786
  426MOL0     H57487   4.250   2.333   8.869 -3.4351  0.4083 -0.1423
  426MOL0     H57488   4.048   2.155   8.752  3.6836 -1.2400  1.4282
  426MOL0     H57489   3.992   2.266   8.876  1.1264  2.7932  0.5845
  426MOL0     H57490   4.063   1.296   8.804 -0.6507  0.3359  1.4346
  426MOL0     H57491   3.967   1.133   8.630  5.2412 -0.1271 -3.2189
  426MOL0     H57492   3.725   0.948   8.399  1.0189 -2.7043 -0.3694
  426MOL0     H57493   3.663   0.754   8.239 -0.8793  1.0978  1.0946
  426MOL0     H57494   3.856   0.128   9.066  2.1751  1.6575 -2.0502
  426MOL0     H57495   3.681   0.142   9.235 -1.2121 -0.6331 -0.8092
  426MOL0     H57496   3.412   0.582   9.537  0.1945  1.0691  2.9948
  426MOL0     H57497   3.313   0.554   9.742  1.7383  0.1127 -0.1686
  426MOL0     H57498   3.299   0.499   9.964 -0.5661  0.1636  3.8041
  426MOL0     H57499   3.193   0.390  10.036  3.4791  0.0700 -0.0129
  426MOL0     H57500   3.100   0.464   9.770  3.6787 -1.3855  0.0868
  426MOL0     H57501   3.107   0.599   9.888 -0.0532 -0.8347 -1.4701
  426MOL0     H57502   2.882   0.500   9.904 -1.4193 -1.6398  0.4999
  426MOL0     H57503   2.984   0.478  10.054  0.6767 -0.4736 -0.8960
  426MOL0     H57504   3.025   0.239   9.971 -0.8372 -2.9322 -0.7294
  426MOL0     H57505   2.856   0.271  10.009  2.9735 -1.1153  1.8197
  426MOL0     H57506   2.772   0.230   9.619  0.0378  2.1273 -0.2565
  426MOL0     H57507   3.372   0.126   9.714  1.9840 -0.3420 -2.2884
  426MOL0     H57508   3.413   0.037   9.511  1.3655 -0.6644  3.6073
  426MOL0     H57509   3.514   0.111   9.381 -0.5380 -2.7630 -0.6434
  426MOL0     H57510   3.582   0.080   9.538 -0.5121  1.7598  1.5258
  427MOL0     O57511  10.155   0.304   1.821  0.0970  0.3822 -0.2634
  427MOL0     C57512  10.265   0.340   1.854 -0.6280  0.4967  0.2695
  427MOL0     O57513  10.381   0.369   1.772  0.1071 -0.0794 -0.3017
  427MOL0     C57514  10.356   0.375   1.636  0.0166  0.0719  0.0589
  427MOL0     C57515  10.341   0.500   1.577  0.2164 -0.4634 -0.3082
  427MOL0     C57516  10.342   0.517   1.443 -0.4447  0.0669 -0.8013
  427MOL0     C57517  10.342   0.407   1.364 -0.1472  0.3405  0.6811
  427MOL0     O57518  10.367   0.414   1.225  0.4831 -0.0085 -0.0258
  427MOL0     C57519  10.365   0.542   1.154 -0.1994 -0.2220  0.1525
  427MOL0     C57520  10.413   0.544   1.010 -0.8242 -0.4939  0.8755
  427MOL0     C57521  10.305   0.493   0.910 -0.5728  0.7149 -0.1419
  427MOL0     C57522  10.378   0.508   0.772 -0.3497  0.0603 -0.6508
  427MOL0     C57523  10.280   0.473   0.668  0.2383 -0.3065 -0.0438
  427MOL0     C57524  10.343   0.473   0.528  0.2610 -0.1773  0.1292
  427MOL0     C57525  10.254   0.387   0.430  0.0040  0.2665 -0.7956
  427MOL0     C57526  10.332   0.383   0.299  0.2435 -0.0783  1.0439
  427MOL0     N57527  10.298   0.504   0.217 -0.1910  0.0523  0.5774
  427MOL0     C57528  10.369   0.618   0.226  0.3819 -0.3656  0.3782
  427MOL0     C57529  10.337   0.697   0.125  0.7310 -0.9479 -0.3294
  427MOL0     C57530  10.389   0.839   0.120 -0.7679 -0.0780  0.6037
  427MOL0     C57531  10.418   0.894  -0.017  0.1503 -0.4814 -0.4009
  427MOL0     C57532  10.438   1.045  -0.019  0.7762  0.2214  0.0618
  427MOL0     C57533  10.464   1.095  -0.163 -0.5538 -0.1918  0.4404
  427MOL0     O57534  10.436   1.238  -0.180 -0.2320  0.0014 -0.2615
  427MOL0     C57535  10.493   1.306  -0.286 -0.6986 -0.8884  0.8411
  427MOL0     C57536  10.491   1.449  -0.266 -0.1993  0.9273 -0.2386
  427MOL0     C57537  10.542   1.527  -0.367 -0.5858 -0.6316  0.3736
  427MOL0     C57538  10.609   1.477  -0.482  0.0360 -0.3833  0.5246
  427MOL0     C57539  10.670   1.576  -0.576 -0.0802  0.3665 -0.5163
  427MOL0     O57540  10.713   1.695  -0.531 -0.8012 -0.0385  0.8170
  427MOL0     C57541  10.820   1.762  -0.590 -0.6142 -0.5960 -0.6616
  427MOL0     C57542  10.826   1.898  -0.579  0.3489  0.5061 -0.1677
  427MOL0     C57543  10.914   1.970  -0.666  0.5611 -0.3459 -0.9971
  427MOL0     C57544  11.011   1.901  -0.739  0.1297  0.5019 -0.1989
  427MOL0     O57545  11.106   1.973  -0.809 -0.5703 -1.2525  0.6232
  427MOL0     C57546  11.159   2.090  -0.740 -0.5508  0.6404  0.3296
  427MOL0     C57547  11.116   2.206  -0.827  0.5463  0.2467 -0.0315
  427MOL0     C57548  11.183   2.336  -0.769 -0.4791  0.7118  0.5588
  427MOL0     C57549  11.110   2.395  -0.653 -0.1244  0.1718  0.0713
  427MOL0     C57550  11.156   2.534  -0.620 -0.0593 -1.4454 -0.0702
  427MOL0     C57551  11.299   2.554  -0.581 -0.2559 -0.2518 -0.4414
  427MOL0     C57552  11.335   2.706  -0.566 -0.4747 -0.5154 -0.2013
  427MOL0     C57553  11.451   2.737  -0.476  1.0731 -0.1577 -0.1941
  427MOL0    Cl57554  11.599   2.699  -0.566 -0.6558  0.4592  0.5514
  427MOL0     C57555  11.001   1.764  -0.747 -0.4524 -0.6443 -0.4311
  427MOL0     C57556  10.911   1.692  -0.673 -0.2161  0.1211  0.4169
  427MOL0     O57557  10.677   1.534  -0.687  0.7033 -0.3570 -0.0655
  427MOL0     C57558  10.615   1.337  -0.494 -0.4557 -0.1425  0.3939
  427MOL0     C57559  10.560   1.254  -0.395 -0.0242  0.9051 -0.1082
  427MOL0     N57560  10.255   0.622   0.047 -1.0936  0.6339  0.4140
  427MOL0     N57561  10.222   0.513   0.101  0.5941 -0.5460 -0.6459
  427MOL0     C57562  10.343   0.277   1.417  0.1610  0.1258 -0.8219
  427MOL0     C57563  10.365   0.261   1.559 -0.6332 -0.5949  0.0931
  427MOL0     C57564  10.282   0.364   1.999  0.5148 -0.0035  0.7808
  427MOL0     C57565  10.404   0.428   2.042  0.2646  0.2007  0.2791
  427MOL0     C57566  10.415   0.479   2.175 -0.5565  0.4400  0.2214
  427MOL0     C57567  10.315   0.451   2.271 -0.0474 -0.0323 -0.5913
  427MOL0     O57568  10.329   0.486   2.402  0.3990  0.4375  0.5158
  427MOL0     C57569  10.464   0.527   2.448  0.5656 -0.3517  0.7323
  427MOL0     C57570  10.466   0.529   2.595 -0.7329  0.3943 -0.3358
  427MOL0     C57571  10.448   0.382   2.662  0.0619  0.5750  0.4525
  427MOL0     C57572  10.531   0.374   2.789 -0.9764 -0.3433  0.5396
  427MOL0     C57573  10.539   0.239   2.831 -0.7067  0.2197 -0.5659
  427MOL0     C57574  10.575   0.126   2.855  0.6226 -0.7627  0.4947
  427MOL0     C57575  10.197   0.397   2.219 -0.6239  0.7550 -0.1370
  427MOL0     C57576  10.173   0.349   2.087 -0.5388 -1.0541 -0.2712
  427MOL0     C57577  10.033   0.287   2.064  0.7351 -0.0860 -0.4756
  427MOL0     H57578  10.340   0.588   1.639 -1.3404  0.5467 -1.6760
  427MOL0     H57579  10.356   0.618   1.406 -0.9686  0.1653 -0.7353
  427MOL0     H57580  10.265   0.588   1.158 -0.6637 -1.2113  0.2226
  427MOL0     H57581  10.441   0.599   1.209 -1.6969  1.6478  0.3936
  427MOL0     H57582  10.503   0.484   0.994  1.4340  3.2257 -1.8084
  427MOL0     H57583  10.434   0.648   0.985  0.3427 -1.1875 -1.2018
  427MOL0     H57584  10.213   0.553   0.906 -2.1312 -1.6395 -1.4172
  427MOL0     H57585  10.282   0.388   0.928 -0.6215  0.8938  0.9137
  427MOL0     H57586  10.412   0.612   0.765  0.9258 -0.0259  2.7878
  427MOL0     H57587  10.463   0.440   0.775  1.2904  2.0012 -0.4812
  427MOL0     H57588  10.238   0.374   0.686 -3.0140  0.5430 -2.0339
  427MOL0     H57589  10.192   0.537   0.658  2.3041  2.5446 -1.2804
  427MOL0     H57590  10.332   0.575   0.489 -0.7297 -0.0996  0.5795
  427MOL0     H57591  10.440   0.422   0.529 -0.8919 -2.5905 -1.3460
  427MOL0     H57592  10.152   0.427   0.430  0.5592  1.8026  0.5184
  427MOL0     H57593  10.251   0.283   0.464  1.3329  0.0207 -1.3475
  427MOL0     H57594  10.440   0.380   0.309  0.2573 -2.6130  0.6199
  427MOL0     H57595  10.310   0.290   0.246 -0.7246  0.9998 -0.5602
  427MOL0     H57596  10.449   0.646   0.294  1.8625  1.1333 -1.8503
  427MOL0     H57597  10.312   0.907   0.157 -2.4969 -3.0546  2.9001
  427MOL0     H57598  10.481   0.853   0.178 -0.8327 -4.1421  2.0165
  427MOL0     H57599  10.503   0.836  -0.053  0.7951 -0.2705  0.7350
  427MOL0     H57600  10.331   0.865  -0.077  1.1469 -2.5219 -0.9501
  427MOL0     H57601  10.532   1.066   0.032  1.6944  0.0972 -1.4972
  427MOL0     H57602  10.349   1.099   0.013 -0.0473  0.9308 -3.1051
  427MOL0     H57603  10.410   1.048  -0.245 -1.9822  0.5043  0.9448
  427MOL0     H57604  10.572   1.091  -0.182 -1.1302  2.9823 -6.3071
  427MOL0     H57605  10.481   1.488  -0.166  0.7049  0.7708 -0.0796
  427MOL0     H57606  10.528   1.633  -0.346 -0.8369 -0.2964 -1.3017
  427MOL0     H57607  10.771   1.945  -0.499  2.4205 -1.4753  2.6096
  427MOL0     H57608  10.905   2.078  -0.674  0.2985 -0.4172 -1.7625
  427MOL0     H57609  11.130   2.109  -0.637  0.1848 -0.4695  0.7614
  427MOL0     H57610  11.268   2.077  -0.736 -0.7604 -0.9913  1.8680
  427MOL0     H57611  11.150   2.193  -0.930  0.2641 -3.6797  0.2153
  427MOL0     H57612  11.007   2.214  -0.832  0.4089 -1.7568 -1.5726
  427MOL0     H57613  11.279   2.300  -0.732  0.3330  2.6449  0.4485
  427MOL0     H57614  11.206   2.405  -0.850 -2.3983  2.1290  1.1320
  427MOL0     H57615  11.125   2.333  -0.565  0.8214 -1.5619 -1.2456
  427MOL0     H57616  11.004   2.401  -0.680 -0.0373 -0.6079 -0.4786
  427MOL0     H57617  11.097   2.568  -0.534  0.1957 -4.3717  1.3933
  427MOL0     H57618  11.125   2.600  -0.702  3.2212 -0.1262 -0.4051
  427MOL0     H57619  11.319   2.512  -0.482 -1.1600  1.5758  0.5511
  427MOL0     H57620  11.355   2.500  -0.659 -0.3897  0.4006 -0.9955
  427MOL0     H57621  11.253   2.771  -0.534 -0.2977 -0.5551  0.3270
  427MOL0     H57622  11.379   2.738  -0.661  0.8965  2.0374  1.1784
  427MOL0     H57623  11.445   2.846  -0.467 -3.1102 -0.1153 -1.4290
  427MOL0     H57624  11.439   2.684  -0.381  2.2458 -0.4206 -0.1801
  427MOL0     H57625  11.076   1.723  -0.813 -0.7076 -0.6317 -0.7305
  427MOL0     H57626  10.911   1.584  -0.660 -0.5872  0.1275  0.4910
  427MOL0     H57627  10.675   1.303  -0.578 -1.4574  2.9489 -1.7645
  427MOL0     H57628  10.569   1.149  -0.420  0.0624  0.4048  1.8682
  427MOL0     H57629  10.354   0.190   1.353  1.5293  0.3608 -0.9498
  427MOL0     H57630  10.394   0.169   1.607 -2.3782 -1.2329  0.0285
  427MOL0     H57631  10.488   0.444   1.976  0.1582  0.3966  0.1930
  427MOL0     H57632  10.506   0.535   2.195 -0.1688  1.6279 -3.8873
  427MOL0     H57633  10.481   0.624   2.401  2.5780  0.5249  3.0846
  427MOL0     H57634  10.551   0.476   2.405  1.3352  1.4922  0.0023
  427MOL0     H57635  10.373   0.579   2.624  0.1910  2.5273 -0.8580
  427MOL0     H57636  10.558   0.566   2.641 -0.5208 -2.5658  1.9777
  427MOL0     H57637  10.495   0.301   2.605 -0.6587  0.8753 -0.5843
  427MOL0     H57638  10.342   0.373   2.685 -0.9758  3.3750 -2.5199
  427MOL0     H57639  10.633   0.414   2.782 -0.8969 -0.0343  2.7220
  427MOL0     H57640  10.476   0.428   2.866 -1.6969 -0.4931  0.1365
  427MOL0     H57641  10.591   0.023   2.879 -2.2904 -1.4008  0.1327
  427MOL0     H57642  10.122   0.374   2.294 -2.5206 -1.4436 -2.5191
  427MOL0     H57643  10.029   0.178   2.064 -0.2252 -0.1606 -4.2086
  427MOL0     H57644   9.964   0.323   2.142  2.0916  2.8482 -0.5030
  427MOL0     H57645   9.980   0.326   1.977  3.1896  1.5229 -1.3435
  428MOL0     O57646   8.699   2.584   6.837  0.2853 -0.8232 -0.0713
  428MOL0     C57647   8.589   2.602   6.896  0.0896  0.8140  1.0923
  428MOL0     O57648   8.495   2.503   6.911 -0.1827  0.3670 -1.1292
  428MOL0     C57649   8.546   2.372   6.914  0.8376 -0.0300 -0.2881
  428MOL0     C57650   8.492   2.289   6.817  0.3484  0.2981  0.3124
  428MOL0     C57651   8.541   2.163   6.797 -0.5028  0.6245  0.1224
  428MOL0     C57652   8.642   2.118   6.876 -0.6822  0.6773  0.6331
  428MOL0     O57653   8.697   1.996   6.858  0.0772  0.5877 -0.5401
  428MOL0     C57654   8.623   1.888   6.922  0.6617 -0.6206  0.1697
  428MOL0     C57655   8.693   1.755   6.891  0.3826  0.4948  1.0174
  428MOL0     C57656   8.689   1.737   6.738 -0.8953  0.0427  0.2884
  428MOL0     C57657   8.805   1.648   6.692  0.0597  0.0853 -0.1780
  428MOL0     C57658   8.812   1.623   6.550 -0.5299  0.2388  0.8094
  428MOL0     C57659   8.935   1.538   6.507  1.3199 -0.3592  0.0837
  428MOL0     C57660   8.943   1.511   6.351  0.1969  0.0451 -0.2717
  428MOL0     C57661   9.061   1.431   6.313  0.5559  0.4900 -0.2921
  428MOL0     N57662   9.072   1.296   6.376  0.9907  0.0493 -0.2922
  428MOL0     C57663   8.981   1.195   6.384 -0.4379  0.7179  0.1595
  428MOL0     C57664   9.044   1.097   6.456  0.3698 -0.1709 -0.6871
  428MOL0     C57665   8.985   0.967   6.508  0.2390  0.5965 -0.3079
  428MOL0     C57666   9.063   0.904   6.626  1.2464 -0.5883  0.9374
  428MOL0     C57667   9.051   0.993   6.750 -0.1183 -0.5901  0.5785
  428MOL0     C57668   9.121   0.922   6.869 -0.8711  0.9600 -0.4166
  428MOL0     O57669   9.134   1.020   6.986  0.0607 -0.1418  0.2687
  428MOL0     C57670   9.258   1.072   6.998 -0.2575  0.1488  0.1217
  428MOL0     C57671   9.290   1.119   7.129 -0.2272  0.1126  0.1542
  428MOL0     C57672   9.414   1.184   7.148 -0.5441  0.9928  0.5015
  428MOL0     C57673   9.505   1.206   7.047  0.4604  0.3503  0.0507
  428MOL0     C57674   9.627   1.289   7.058 -0.0152  0.4311  0.0303
  428MOL0     O57675   9.639   1.344   7.181  1.4098 -0.0175 -0.1333
  428MOL0     C57676   9.730   1.441   7.203 -0.4616 -0.1899  1.0521
  428MOL0     C57677   9.691   1.564   7.259 -0.7615 -0.4420  0.2873
  428MOL0     C57678   9.776   1.667   7.303 -1.1373 -0.0846 -0.5342
  428MOL0     C57679   9.917   1.646   7.295 -0.2028 -1.3974 -0.4264
  428MOL0     O57680  10.020   1.735   7.321  0.4725  0.5256 -0.0698
  428MOL0     C57681  10.016   1.804   7.442 -0.8540  0.9620  0.6043
  428MOL0     C57682  10.169   1.839   7.450  0.1456  0.7155 -0.5255
  428MOL0     C57683  10.215   1.889   7.586 -0.6599  0.1427  0.1742
  428MOL0     C57684  10.287   2.021   7.567  0.0054  0.2027  0.2680
  428MOL0     C57685  10.393   2.023   7.682 -0.0200  0.2735 -0.4396
  428MOL0     C57686  10.541   1.981   7.652 -0.2035 -0.4845 -0.4235
  428MOL0     C57687  10.585   2.071   7.522 -0.6568 -0.2158 -0.3906
  428MOL0     C57688  10.732   2.074   7.508 -0.4346  0.4889 -0.3547
  428MOL0    Cl57689  10.791   1.909   7.464 -0.4391  0.0292 -0.8169
  428MOL0     C57690   9.963   1.526   7.249 -0.7769 -0.3747 -0.3146
  428MOL0     C57691   9.877   1.427   7.200 -0.1198 -0.0822  0.8014
  428MOL0     O57692   9.713   1.296   6.970  0.3944 -0.1383  0.2267
  428MOL0     C57693   9.463   1.164   6.917 -0.4146  0.9331  1.1133
  428MOL0     C57694   9.344   1.098   6.891  0.5470 -0.8528  0.7341
  428MOL0     N57695   9.166   1.142   6.501  0.1210 -0.4599 -0.6299
  428MOL0     N57696   9.184   1.255   6.452 -0.0857  0.0632  0.5387
  428MOL0     C57697   8.693   2.198   6.973  0.3291 -0.4169  0.3236
  428MOL0     C57698   8.649   2.331   6.997 -1.0744  0.2527  0.5739
  428MOL0     C57699   8.554   2.742   6.930  0.8342  0.4902  0.0674
  428MOL0     C57700   8.458   2.745   7.033  0.4044 -0.7666 -0.0334
  428MOL0     C57701   8.429   2.865   7.091 -0.8417 -0.0094 -0.2447
  428MOL0     C57702   8.490   2.986   7.051 -0.7951 -0.1111  0.0945
  428MOL0     O57703   8.467   3.118   7.093  0.4864  0.5004 -0.8672
  428MOL0     C57704   8.410   3.132   7.220  0.5495 -0.2222  0.3376
  428MOL0     C57705   8.498   3.074   7.331 -0.0395 -0.4217  0.3512
  428MOL0     C57706   8.478   3.163   7.451  0.1787  0.2594  0.1699
  428MOL0     C57707   8.601   3.161   7.542 -0.4964  0.1344 -0.7553
  428MOL0     C57708   8.598   3.261   7.645  0.4113  0.0348 -0.1347
  428MOL0     C57709   8.607   3.339   7.737  0.5623  0.8484 -0.6018
  428MOL0     C57710   8.587   2.984   6.962 -1.2008  0.5142 -0.8504
  428MOL0     C57711   8.619   2.861   6.902  0.2208 -0.2621  0.2661
  428MOL0     C57712   8.715   2.873   6.783 -0.0199  0.2072  0.2735
  428MOL0     H57713   8.414   2.333   6.755  2.4542  2.9943 -0.6123
  428MOL0     H57714   8.509   2.095   6.719 -0.2493  0.6461  0.0004
  428MOL0     H57715   8.608   1.901   7.029 -0.1141  0.4976 -0.0550
  428MOL0     H57716   8.522   1.888   6.879  1.9350  1.1124 -3.1850
  428MOL0     H57717   8.638   1.670   6.932  1.0901 -1.4429 -1.7815
  428MOL0     H57718   8.796   1.757   6.926  0.4721  0.5288  0.7528
  428MOL0     H57719   8.704   1.832   6.685  4.1115 -1.4605 -1.6013
  428MOL0     H57720   8.592   1.689   6.718 -0.6651 -1.4203  2.3719
  428MOL0     H57721   8.897   1.704   6.712 -1.2466  1.7126  1.7102
  428MOL0     H57722   8.804   1.547   6.734 -0.5152 -1.7014 -3.9982
  428MOL0     H57723   8.719   1.573   6.522  0.0778 -0.9736  0.8865
  428MOL0     H57724   8.793   1.720   6.503 -1.5704  0.0914  0.9071
  428MOL0     H57725   9.027   1.590   6.533  0.8562  0.9300 -0.7942
  428MOL0     H57726   8.941   1.443   6.562 -1.5923 -1.0318 -0.5607
  428MOL0     H57727   8.946   1.609   6.302  0.0665 -0.3892 -1.1725
  428MOL0     H57728   8.850   1.457   6.329  0.2350 -0.7086  1.2906
  428MOL0     H57729   9.068   1.421   6.204  1.8531  0.1504 -0.1938
  428MOL0     H57730   9.152   1.485   6.340  0.4841 -0.5524  2.2789
  428MOL0     H57731   8.879   1.195   6.348  0.3685  2.3564 -2.4300
  428MOL0     H57732   8.879   0.977   6.533 -0.3730 -1.6846 -1.6713
  428MOL0     H57733   8.980   0.893   6.427  0.9166 -1.5803  1.5285
  428MOL0     H57734   9.031   0.804   6.656  1.1392 -0.8739 -0.0938
  428MOL0     H57735   9.169   0.892   6.601  1.8187  2.3122  1.6383
  428MOL0     H57736   8.943   0.993   6.767 -0.5241  0.7812 -1.5734
  428MOL0     H57737   9.086   1.095   6.734  0.8188 -1.1044 -0.8000
  428MOL0     H57738   9.219   0.890   6.833 -1.4473  0.4228 -1.5906
  428MOL0     H57739   9.068   0.831   6.899 -2.1953  2.0598  0.6720
  428MOL0     H57740   9.213   1.118   7.206 -1.1706 -0.6267 -0.7715
  428MOL0     H57741   9.448   1.235   7.238  2.7760  1.0157 -0.6271
  428MOL0     H57742   9.584   1.580   7.255 -0.9946 -2.0416 -1.1040
  428MOL0     H57743   9.728   1.749   7.355 -1.8956 -1.6050  1.2519
  428MOL0     H57744   9.956   1.896   7.444 -1.6931  0.4514  2.9599
  428MOL0     H57745   9.990   1.749   7.533  0.6766  1.2465  1.2347
  428MOL0     H57746  10.216   1.743   7.426 -1.7473 -0.9476  1.8612
  428MOL0     H57747  10.199   1.904   7.367 -0.7014  1.1762 -0.4777
  428MOL0     H57748  10.134   1.906   7.657 -1.8431 -1.2568 -0.7753
  428MOL0     H57749  10.281   1.813   7.627 -0.9576  0.0272  0.4392
  428MOL0     H57750  10.224   2.107   7.592 -0.4381 -0.3162  1.0088
  428MOL0     H57751  10.328   2.033   7.467  3.0768 -0.8816  1.2723
  428MOL0     H57752  10.358   1.980   7.776 -1.5547  0.6054 -0.8322
  428MOL0     H57753  10.398   2.130   7.705 -1.4543  0.2853 -0.1012
  428MOL0     H57754  10.598   2.005   7.742  1.8625 -0.7657 -1.5918
  428MOL0     H57755  10.557   1.874   7.637  2.8388 -0.3856  1.3648
  428MOL0     H57756  10.545   2.172   7.529 -3.6375 -1.3448  5.4180
  428MOL0     H57757  10.543   2.023   7.433  1.9018  1.2881 -2.5400
  428MOL0     H57758  10.740   2.156   7.436 -0.2726  0.5760 -0.2397
  428MOL0     H57759  10.787   2.111   7.595 -0.6103  3.6940 -1.4717
  428MOL0     H57760  10.070   1.506   7.257 -0.3330  2.2926  2.1017
  428MOL0     H57761   9.922   1.333   7.171  0.2382  1.0708 -2.8677
  428MOL0     H57762   9.534   1.188   6.838 -1.0920  1.8098  0.7544
  428MOL0     H57763   9.317   1.075   6.788  1.2453  0.6866  0.1888
  428MOL0     H57764   8.763   2.154   7.043  0.9580 -2.9681 -1.7552
  428MOL0     H57765   8.690   2.394   7.075 -0.7266 -0.4935  1.0097
  428MOL0     H57766   8.404   2.655   7.059 -2.3023  0.1345 -2.1137
  428MOL0     H57767   8.336   2.862   7.146 -0.2648 -2.0278  0.7166
  428MOL0     H57768   8.325   3.064   7.212  1.6023 -1.3483 -4.0042
  428MOL0     H57769   8.369   3.233   7.233 -1.9998 -0.7847 -2.2840
  428MOL0     H57770   8.602   3.067   7.297 -0.1317 -3.3879  0.4399
  428MOL0     H57771   8.465   2.971   7.347  2.0911 -0.9371  1.9401
  428MOL0     H57772   8.409   3.109   7.516 -0.0722 -1.6927 -1.6201
  428MOL0     H57773   8.444   3.266   7.434 -1.0578 -0.3180 -1.0194
  428MOL0     H57774   8.612   3.062   7.586 -2.3089  0.4006  0.3791
  428MOL0     H57775   8.687   3.175   7.476  0.9173  3.6261  1.5602
  428MOL0     H57776   8.605   3.414   7.814  4.1715 -0.9921  1.5260
  428MOL0     H57777   8.643   3.074   6.937  0.6204 -0.0372  1.0043
  428MOL0     H57778   8.675   2.809   6.704 -2.2969  2.0895 -0.2257
  428MOL0     H57779   8.716   2.970   6.732  0.1535 -0.4629 -1.0341
  428MOL0     H57780   8.816   2.845   6.813  0.1045 -2.4762 -2.1836
  429MOL0     O57781   6.861   9.962  11.259 -0.1852  0.5502  0.6461
  429MOL0     C57782   6.971   9.993  11.303  0.2686 -0.3518  1.0372
  429MOL0     O57783   6.999   9.985  11.435 -1.0120 -0.2921  0.0230
  429MOL0     C57784   6.901   9.984  11.533  0.4276  0.4543  1.0423
  429MOL0     C57785   6.904   9.883  11.633  0.7255 -0.2690 -0.9576
  429MOL0     C57786   6.807   9.885  11.740 -0.3569  0.4108 -0.5357
  429MOL0     C57787   6.707   9.982  11.745 -0.6876 -0.2593  1.0754
  429MOL0     O57788   6.608   9.976  11.844 -0.2320 -0.2343  0.1111
  429MOL0     C57789   6.571   9.844  11.898 -0.5730  0.3543  0.8031
  429MOL0     C57790   6.417   9.851  11.924  0.3375  0.5936 -0.0835
  429MOL0     C57791   6.340   9.715  11.936 -0.6322 -0.6096 -1.1245
  429MOL0     C57792   6.427   9.581  11.991  0.4282 -0.4148  0.5749
  429MOL0     C57793   6.338   9.464  11.994 -0.2614  0.6993  0.9353
  429MOL0     C57794   6.412   9.332  11.990 -0.1664 -0.1841  0.4916
  429MOL0     C57795   6.431   9.285  12.133 -0.2389  0.4646  0.2315
  429MOL0     C57796   6.502   9.149  12.150  0.1063 -0.5326 -0.0830
  429MOL0     N57797   6.537   9.118  12.289  0.3859  0.4803 -0.6620
  429MOL0     C57798   6.660   9.092  12.347  0.1532 -0.1824 -0.5585
  429MOL0     C57799   6.624   9.079  12.481 -1.2253 -0.6817 -0.1122
  429MOL0     C57800   6.722   9.065  12.593  0.2835  0.3765 -0.4577
  429MOL0     C57801   6.773   9.199  12.645  0.2097  0.9450 -0.8897
  429MOL0     C57802   6.868   9.184  12.774  1.4690 -0.5970  0.5552
  429MOL0     C57803   6.946   9.317  12.799 -0.1471  0.7281 -0.0345
  429MOL0     O57804   6.848   9.424  12.807 -0.5535 -0.1803 -0.4273
  429MOL0     C57805   6.891   9.555  12.795  0.4347 -0.0779 -0.0583
  429MOL0     C57806   7.028   9.614  12.802 -0.2057 -0.2749 -0.7507
  429MOL0     C57807   7.057   9.753  12.786  0.9712 -0.7371 -0.1481
  429MOL0     C57808   6.947   9.838  12.761  0.4686  0.3828  0.5780
  429MOL0     C57809   6.957   9.984  12.774 -0.2150 -0.9083  0.1260
  429MOL0     O57810   7.069  10.032  12.825 -0.8366 -0.0641 -1.1660
  429MOL0     C57811   7.083  10.171  12.835 -0.4696 -0.4632 -1.6118
  429MOL0     C57812   7.044  10.232  12.950  0.0503 -0.0958 -0.1061
  429MOL0     C57813   7.059  10.375  12.955 -0.1907 -0.7047 -0.0817
  429MOL0     C57814   7.111  10.450  12.845 -0.0567  0.2422 -0.3980
  429MOL0     O57815   7.123  10.589  12.861 -0.0139  0.1006  0.8475
  429MOL0     C57816   7.118  10.666  12.739  0.2976  0.8995 -0.0544
  429MOL0     C57817   7.149  10.814  12.787 -0.2857  0.7569 -1.5579
  429MOL0     C57818   7.015  10.860  12.813  0.3399 -0.0026  0.5645
  429MOL0     C57819   7.027  10.993  12.895 -0.2916 -0.9542  0.9753
  429MOL0     C57820   6.889  11.042  12.931 -0.2367 -0.8357 -0.2995
  429MOL0     C57821   6.809  11.109  12.828  1.0031 -0.6875 -0.1575
  429MOL0     C57822   6.885  11.203  12.736 -0.3940  0.5288 -0.5879
  429MOL0     C57823   6.785  11.274  12.643 -0.0653 -0.0967 -0.1559
  429MOL0    Cl57824   6.831  11.442  12.613  0.3077 -0.6181  0.2030
  429MOL0     C57825   7.157  10.369  12.728 -0.3824 -0.4349 -1.0304
  429MOL0     C57826   7.145  10.236  12.731 -0.4238  0.7160  0.0168
  429MOL0     O57827   6.861  10.047  12.741  0.5086  0.5319  0.1744
  429MOL0     C57828   6.819   9.785  12.748  0.5455  0.4758  0.5407
  429MOL0     C57829   6.795   9.650  12.774 -0.0781  0.2528 -0.0566
  429MOL0     N57830   6.489   9.092  12.494 -0.1683 -0.8322 -0.3316
  429MOL0     N57831   6.431   9.113  12.375  0.2171  0.1789 -0.3775
  429MOL0     C57832   6.694  10.067  11.639  0.4852  0.3545 -0.3211
  429MOL0     C57833   6.787  10.068  11.534  0.3772  0.6610  0.6670
  429MOL0     C57834   7.086  10.013  11.197  0.9676 -1.4637 -0.0921
  429MOL0     C57835   7.198  10.087  11.238  1.8089 -0.2395 -0.7614
  429MOL0     C57836   7.297  10.115  11.147 -0.7463  0.1167 -0.4469
  429MOL0     C57837   7.284  10.082  11.010 -0.5653 -0.3215  0.2725
  429MOL0     O57838   7.377  10.118  10.915  0.8543  0.4314  0.3160
  429MOL0     C57839   7.472  10.221  10.939  0.1686 -0.4301 -0.0864
  429MOL0     C57840   7.503  10.301  10.814  0.0421 -0.0349 -0.7010
  429MOL0     C57841   7.535  10.194  10.707  0.5234 -0.2713  0.6383
  429MOL0     C57842   7.593  10.289  10.589  0.5882 -0.8949  0.2860
  429MOL0     C57843   7.732  10.335  10.614 -0.1904  0.5261  0.1584
  429MOL0     C57844   7.840  10.386  10.641  0.9717 -0.9238  0.0806
  429MOL0     C57845   7.177  10.011  10.967  0.5430  0.2829  1.0216
  429MOL0     C57846   7.078   9.967  11.060 -0.6755  0.6254 -0.3210
  429MOL0     C57847   6.970   9.885  10.998 -0.9047 -0.1636  0.4280
  429MOL0     H57848   6.982   9.808  11.626 -0.3673 -1.4465 -0.8813
  429MOL0     H57849   6.801   9.805  11.813 -0.4807 -1.2928 -2.3030
  429MOL0     H57850   6.585   9.754  11.837 -2.1900  0.7297 -0.1993
  429MOL0     H57851   6.623   9.822  11.991 -2.4510  1.6724  2.2289
  429MOL0     H57852   6.370   9.900  11.838  0.2827  2.0455  0.7381
  429MOL0     H57853   6.407   9.907  12.017  0.2587 -0.1913  0.3799
  429MOL0     H57854   6.288   9.701  11.841 -5.1059  2.5365  0.4961
  429MOL0     H57855   6.255   9.737  12.001  1.3743  1.9523  0.8359
  429MOL0     H57856   6.497   9.565  11.908 -1.2059 -0.6356 -0.8313
  429MOL0     H57857   6.484   9.593  12.083 -3.1463 -1.2862  3.1070
  429MOL0     H57858   6.272   9.468  12.082 -2.4427 -1.9988 -0.4317
  429MOL0     H57859   6.266   9.460  11.912  1.1078 -1.7658 -0.2382
  429MOL0     H57860   6.358   9.257  11.932  2.5061 -2.0461  0.1784
  429MOL0     H57861   6.505   9.328  11.931 -0.9068  1.3219 -0.8317
  429MOL0     H57862   6.336   9.277  12.186 -1.2020 -1.6468 -1.6559
  429MOL0     H57863   6.492   9.352  12.195 -0.7290  1.9675 -0.8452
  429MOL0     H57864   6.442   9.062  12.124 -0.9816 -0.0306  0.6753
  429MOL0     H57865   6.594   9.149  12.090  2.4790  1.1197  3.2845
  429MOL0     H57866   6.757   9.082  12.300  1.4959  1.4083  1.6800
  429MOL0     H57867   6.685   9.016  12.684  1.4094 -0.1217 -0.2617
  429MOL0     H57868   6.798   8.997  12.554  0.0097  1.0140 -2.1688
  429MOL0     H57869   6.815   9.260  12.565 -2.5253  1.9161 -1.7054
  429MOL0     H57870   6.682   9.255  12.672  0.3105  0.7992 -0.2226
  429MOL0     H57871   6.943   9.110  12.747 -0.9099 -1.6849 -4.1988
  429MOL0     H57872   6.803   9.158  12.858  0.7666  0.2516  0.2978
  429MOL0     H57873   7.022   9.337  12.724 -3.7300  3.1184 -3.4555
  429MOL0     H57874   6.994   9.304  12.896 -0.2710 -0.0621 -0.0701
  429MOL0     H57875   7.110   9.542  12.807 -1.7006 -2.2086 -2.4547
  429MOL0     H57876   7.155   9.788  12.816  1.5747 -2.1285 -0.4293
  429MOL0     H57877   7.003  10.176  13.034 -0.6115  0.7278  0.1334
  429MOL0     H57878   7.017  10.432  13.038  1.0978  0.5785 -0.2778
  429MOL0     H57879   7.201  10.646  12.670  2.4630  6.2657  0.5775
  429MOL0     H57880   7.023  10.656  12.684  1.4278  2.4511 -2.4615
  429MOL0     H57881   7.202  10.825  12.882  1.8897 -3.2304 -2.0785
  429MOL0     H57882   7.201  10.875  12.713  1.8263 -0.6964 -1.3434
  429MOL0     H57883   6.965  10.875  12.717 -1.1181 -1.9469  0.9632
  429MOL0     H57884   6.959  10.788  12.873 -0.5726  0.8331  0.7528
  429MOL0     H57885   7.088  11.072  12.851  0.7484 -1.2355  1.8706
  429MOL0     H57886   7.086  10.979  12.986  0.9998 -0.6495  0.2249
  429MOL0     H57887   6.896  11.113  13.014 -4.2668 -0.9123  0.3019
  429MOL0     H57888   6.834  10.961  12.979 -1.3818 -0.0312 -0.2160
  429MOL0     H57889   6.765  11.034  12.762  2.8174  0.3619 -2.7366
  429MOL0     H57890   6.732  11.154  12.892 -0.5454 -2.1839 -0.8880
  429MOL0     H57891   6.960  11.150  12.676  2.4850  1.7367  1.6731
  429MOL0     H57892   6.936  11.271  12.804 -0.0121  0.9338 -1.2668
  429MOL0     H57893   6.770  11.237  12.541 -4.5671  2.4989 -0.6902
  429MOL0     H57894   6.681  11.257  12.669  0.5005 -0.7388  1.8960
  429MOL0     H57895   7.200  10.420  12.643 -0.8181  1.5731 -0.1024
  429MOL0     H57896   7.168  10.174  12.645 -0.2177  0.6848  0.0922
  429MOL0     H57897   6.730   9.840  12.717  0.1025  1.0653  2.6628
  429MOL0     H57898   6.694   9.612  12.767 -0.7333  1.9742 -0.4845
  429MOL0     H57899   6.601  10.118  11.618  0.9454  0.6932 -1.6819
  429MOL0     H57900   6.781  10.133  11.447  2.2801 -1.8805 -1.5122
  429MOL0     H57901   7.213  10.111  11.343  0.7970 -2.4722 -0.0510
  429MOL0     H57902   7.380  10.177  11.178 -0.0938 -0.1881 -1.5343
  429MOL0     H57903   7.558  10.172  10.986 -1.7555 -2.4394  1.5553
  429MOL0     H57904   7.441  10.301  11.006 -0.2030  1.8820 -2.8298
  429MOL0     H57905   7.586  10.369  10.835  1.2971 -1.8772  0.7367
  429MOL0     H57906   7.407  10.352  10.806 -0.9967 -1.6259  0.7406
  429MOL0     H57907   7.444  10.140  10.682  1.8796 -2.5572  0.3509
  429MOL0     H57908   7.608  10.120  10.741  2.5874  2.6582  3.1832
  429MOL0     H57909   7.604  10.230  10.498  2.0959 -1.9726  1.1293
  429MOL0     H57910   7.530  10.374  10.560  0.8527 -1.7363 -3.1522
  429MOL0     H57911   7.932  10.434  10.669  0.1286 -0.0303  1.3734
  429MOL0     H57912   7.163   9.970  10.868 -3.7184  2.4669  0.4799
  429MOL0     H57913   7.020   9.836  10.915  4.5168 -0.7820  3.5878
  429MOL0     H57914   6.932   9.805  11.063  0.9500 -1.4736 -0.0276
  429MOL0     H57915   6.889   9.950  10.962 -0.6302 -0.7586 -1.3571
  430MOL0     O57916   4.938   1.228   7.606  0.5936  0.0225 -0.3872
  430MOL0     C57917   5.003   1.205   7.706  0.2046  1.1859  1.0200
  430MOL0     O57918   5.041   1.297   7.800 -0.2824  0.0266  0.3146
  430MOL0     C57919   5.017   1.427   7.779 -0.0865 -0.2683 -0.9479
  430MOL0     C57920   4.901   1.491   7.825 -0.1048  0.2466  0.5225
  430MOL0     C57921   4.891   1.632   7.838  0.1708  0.9771  0.3265
  430MOL0     C57922   4.995   1.701   7.785 -0.5462 -0.3722  0.3049
  430MOL0     O57923   4.993   1.844   7.774  0.0299  0.4148 -0.1294
  430MOL0     C57924   5.014   1.922   7.890 -0.5840 -0.6254  0.8633
  430MOL0     C57925   5.131   2.026   7.875  1.2353  0.2876 -0.6533
  430MOL0     C57926   5.081   2.140   7.786  0.2426  0.2272 -0.2550
  430MOL0     C57927   5.199   2.178   7.701  0.7232 -0.7413  0.2781
  430MOL0     C57928   5.328   2.227   7.769  1.1112 -0.4476 -0.0764
  430MOL0     C57929   5.387   2.365   7.715 -1.2138 -0.2060  0.1000
  430MOL0     C57930   5.509   2.409   7.808 -0.8776  0.0497  0.7483
  430MOL0     C57931   5.566   2.549   7.773  0.2434  0.2611  0.4749
  430MOL0     N57932   5.466   2.656   7.766 -0.7581  0.0455 -0.0399
  430MOL0     C57933   5.472   2.750   7.868  0.1093 -0.7723 -1.0846
  430MOL0     C57934   5.399   2.858   7.819  0.1861  0.4999  0.1454
  430MOL0     C57935   5.348   3.004   7.862 -0.3445  0.8057  0.1754
  430MOL0     C57936   5.448   3.113   7.889  0.0346 -0.6632  0.0967
  430MOL0     C57937   5.410   3.214   8.002  0.4595 -0.4770  0.0402
  430MOL0     C57938   5.524   3.310   8.020 -0.8177  0.2060 -0.7557
  430MOL0     O57939   5.642   3.243   8.074  0.3121 -0.2845  0.3570
  430MOL0     C57940   5.749   3.321   8.079 -1.4113  1.2883 -0.4440
  430MOL0     C57941   5.740   3.459   8.052 -0.6024  0.4345  0.2158
  430MOL0     C57942   5.863   3.526   8.033  0.5510 -0.7661  0.0243
  430MOL0     C57943   5.993   3.465   8.046 -0.1598  0.4484 -0.6073
  430MOL0     C57944   6.114   3.545   8.018 -0.4836  0.4186  0.3907
  430MOL0     O57945   6.231   3.498   8.064 -0.5250 -0.1536  0.0786
  430MOL0     C57946   6.354   3.553   8.037 -0.1046 -1.3817 -0.4623
  430MOL0     C57947   6.409   3.582   7.916  0.0440 -0.2231  0.3612
  430MOL0     C57948   6.518   3.675   7.908  0.4979  1.4145  0.8180
  430MOL0     C57949   6.592   3.700   8.024 -0.4000  0.3374  0.5559
  430MOL0     O57950   6.690   3.795   8.020 -0.0966  0.1448  0.5979
  430MOL0     C57951   6.802   3.766   8.106  0.5413 -0.4768 -0.1712
  430MOL0     C57952   6.809   3.872   8.210 -0.1878  0.3511 -1.0006
  430MOL0     C57953   6.940   3.880   8.284  1.4024  0.5005  0.8760
  430MOL0     C57954   6.937   4.009   8.376 -0.7114  0.4494 -0.0754
  430MOL0     C57955   7.058   4.039   8.480 -0.2091  0.0465 -0.1172
  430MOL0     C57956   7.196   4.023   8.404  0.0104 -0.1570 -0.7728
  430MOL0     C57957   7.308   4.113   8.473 -0.0052 -0.0096 -0.4626
  430MOL0     C57958   7.343   4.060   8.609  0.0179  0.1326 -0.0792
  430MOL0    Cl57959   7.409   3.902   8.590  0.6704  0.3089 -0.2467
  430MOL0     C57960   6.537   3.654   8.149  0.4655 -0.4642 -0.1832
  430MOL0     C57961   6.414   3.588   8.157 -0.3745  0.6139  0.3791
  430MOL0     O57962   6.097   3.650   7.960  0.2861  0.2904  0.3121
  430MOL0     C57963   5.992   3.326   8.075 -0.5584 -0.9446 -0.5953
  430MOL0     C57964   5.873   3.251   8.085 -0.1862  0.3476 -0.7706
  430MOL0     N57965   5.348   2.820   7.697  0.1537 -0.5155 -0.1375
  430MOL0     N57966   5.391   2.701   7.661 -0.6195 -0.1481 -0.1989
  430MOL0     C57967   5.107   1.642   7.737  0.2047  0.1006  1.5076
  430MOL0     C57968   5.120   1.500   7.734 -0.4134 -0.0059  0.4016
  430MOL0     C57969   5.043   1.067   7.734  0.5762  0.0870 -0.7247
  430MOL0     C57970   5.094   1.038   7.865  0.6253 -0.2997  0.1335
  430MOL0     C57971   5.152   0.922   7.890  0.0698 -0.9204 -0.1523
  430MOL0     C57972   5.161   0.812   7.813  0.5998 -0.5198 -0.4521
  430MOL0     O57973   5.225   0.701   7.859 -0.4738 -0.2328  0.3299
  430MOL0     C57974   5.280   0.603   7.769 -0.0776  0.3915  0.7837
  430MOL0     C57975   5.395   0.514   7.826  0.0173  0.4645  0.4155
  430MOL0     C57976   5.498   0.485   7.713 -0.0648 -0.7737 -0.0341
  430MOL0     C57977   5.441   0.377   7.611  0.5282 -0.7070 -1.1312
  430MOL0     C57978   5.346   0.435   7.513  0.7917  0.2837 -0.1311
  430MOL0     C57979   5.266   0.489   7.437 -0.0337 -0.1420 -0.4813
  430MOL0     C57980   5.106   0.832   7.682  0.4858 -0.0326 -0.4843
  430MOL0     C57981   5.057   0.957   7.641 -0.1090 -0.3765  0.8631
  430MOL0     C57982   5.018   0.969   7.493  0.0673 -0.6017 -1.4701
  430MOL0     H57983   4.832   1.425   7.876 -0.7415  0.2413 -0.3212
  430MOL0     H57984   4.803   1.675   7.885  0.5246  0.4958  1.4682
  430MOL0     H57985   4.918   1.973   7.900  0.0814  0.9878 -0.5486
  430MOL0     H57986   5.035   1.858   7.976  3.0549  0.0574  0.6547
  430MOL0     H57987   5.213   1.967   7.833 -1.1273 -3.2774 -0.7235
  430MOL0     H57988   5.158   2.067   7.973 -0.2269 -1.1019  0.4023
  430MOL0     H57989   5.064   2.228   7.849 -1.2928  0.7381 -1.3174
  430MOL0     H57990   4.991   2.116   7.728  0.3750  2.8398 -1.6826
  430MOL0     H57991   5.217   2.099   7.627  1.3207  0.4199 -0.8581
  430MOL0     H57992   5.158   2.261   7.644  0.9467 -0.6043  0.3149
  430MOL0     H57993   5.324   2.231   7.879 -1.4502 -2.2981 -0.0162
  430MOL0     H57994   5.403   2.154   7.736  1.3164  0.5992 -2.0226
  430MOL0     H57995   5.416   2.355   7.610  3.8195 -4.4995  1.4630
  430MOL0     H57996   5.310   2.443   7.715  1.7182  2.9293  1.6691
  430MOL0     H57997   5.592   2.341   7.786 -0.3316  0.9383  0.0046
  430MOL0     H57998   5.462   2.387   7.904 -1.4780 -2.7027 -0.0810
  430MOL0     H57999   5.637   2.567   7.854 -0.2911 -2.5407  1.6609
  430MOL0     H58000   5.627   2.547   7.683  0.8866  3.6664  0.6729
  430MOL0     H58001   5.537   2.736   7.954  0.9619 -2.3270 -1.9343
  430MOL0     H58002   5.281   3.044   7.785 -2.1545 -0.9103  0.7843
  430MOL0     H58003   5.282   2.992   7.948 -2.1513 -3.7069 -1.5318
  430MOL0     H58004   5.543   3.065   7.913 -0.4231 -0.9046  1.5433
  430MOL0     H58005   5.460   3.177   7.801  2.8491 -0.1661  0.7653
  430MOL0     H58006   5.403   3.154   8.093 -1.0744  1.1090  1.0099
  430MOL0     H58007   5.312   3.256   7.981  1.0133  2.4554  2.6363
  430MOL0     H58008   5.502   3.388   8.093  2.8304  1.6175 -0.9429
  430MOL0     H58009   5.546   3.354   7.922  0.0388 -2.6834 -1.9891
  430MOL0     H58010   5.651   3.521   8.045 -0.5457  0.7956  2.0556
  430MOL0     H58011   5.864   3.632   8.012  0.3415 -0.9104 -0.7740
  430MOL0     H58012   6.362   3.579   7.818  0.8444 -0.7322 -0.0079
  430MOL0     H58013   6.549   3.724   7.817 -2.1513  3.0436  0.7116
  430MOL0     H58014   6.802   3.674   8.164 -3.0650 -0.5705 -0.0848
  430MOL0     H58015   6.893   3.770   8.045  1.4326  4.5148  1.0079
  430MOL0     H58016   6.801   3.964   8.150  0.1559  0.3037 -1.1200
  430MOL0     H58017   6.730   3.871   8.286  2.0220  1.5619  1.5323
  430MOL0     H58018   6.952   3.789   8.345 -1.4560 -1.8126 -1.6759
  430MOL0     H58019   7.031   3.889   8.224  2.2102 -1.8632  1.6232
  430MOL0     H58020   6.841   4.013   8.428 -0.2250 -1.9236  1.1304
  430MOL0     H58021   6.947   4.094   8.307 -0.6646  1.3951  1.0529
  430MOL0     H58022   7.056   3.976   8.569 -1.8431 -1.5667 -1.2105
  430MOL0     H58023   7.036   4.140   8.515 -1.4160 -0.0751 -0.4609
  430MOL0     H58024   7.222   3.917   8.406 -2.6441 -0.8730 -1.3747
  430MOL0     H58025   7.178   4.047   8.298 -2.7521 -0.8021 -0.5189
  430MOL0     H58026   7.279   4.219   8.475 -1.9054 -0.4984 -0.2918
  430MOL0     H58027   7.393   4.122   8.404 -0.3919  2.5840 -0.7117
  430MOL0     H58028   7.413   4.141   8.629  1.7131 -0.5754 -2.6248
  430MOL0     H58029   7.260   4.056   8.680  0.2485 -1.2527  0.1414
  430MOL0     H58030   6.583   3.697   8.237 -2.2454  1.5415  0.3944
  430MOL0     H58031   6.379   3.567   8.258  1.4166  0.9528  1.1253
  430MOL0     H58032   6.089   3.278   8.085 -1.9357 -3.4473  2.8232
  430MOL0     H58033   5.876   3.143   8.100  4.1411  0.2560 -1.0147
  430MOL0     H58034   5.196   1.702   7.721  1.3446 -1.8177  0.2680
  430MOL0     H58035   5.216   1.454   7.714  0.9059  1.8026  2.1785
  430MOL0     H58036   5.111   1.119   7.935  1.5223 -0.4664  0.1189
  430MOL0     H58037   5.206   0.914   7.984 -1.9029  3.3521  1.5718
  430MOL0     H58038   5.321   0.659   7.685  1.9244  3.1678  3.3969
  430MOL0     H58039   5.197   0.536   7.746  0.2990 -0.2455  1.2426
  430MOL0     H58040   5.370   0.416   7.869  3.9486 -1.3248 -0.8804
  430MOL0     H58041   5.454   0.571   7.897  1.9520 -1.2698  0.2837
  430MOL0     H58042   5.579   0.435   7.767 -0.5555 -1.8344 -0.2638
  430MOL0     H58043   5.538   0.577   7.668  0.2217 -0.1302  1.4644
  430MOL0     H58044   5.523   0.335   7.552  1.0502 -0.1979 -0.7765
  430MOL0     H58045   5.402   0.289   7.663  1.3709 -0.1410  0.5131
  430MOL0     H58046   5.180   0.514   7.377  0.9999 -0.5043 -2.1611
  430MOL0     H58047   5.112   0.744   7.619  4.5311  0.3845 -0.9291
  430MOL0     H58048   5.074   1.050   7.444  0.0974 -0.4598 -1.2014
  430MOL0     H58049   5.035   0.873   7.442 -3.1921 -1.5473 -1.0036
  430MOL0     H58050   4.910   0.982   7.489 -0.1386 -1.1642  0.9786
  431MOL0     O58051  10.544   9.191   9.139  0.1252  0.3919  0.0483
  431MOL0     C58052  10.597   9.152   9.243 -0.4138 -0.9646  0.5801
  431MOL0     O58053  10.569   9.204   9.367 -1.1989 -0.4769 -0.3461
  431MOL0     C58054  10.500   9.320   9.384 -0.5766 -0.3248  0.2000
  431MOL0     C58055  10.562   9.444   9.354  0.1705 -0.5484 -0.1143
  431MOL0     C58056  10.500   9.560   9.393 -0.1793 -0.5434 -0.4313
  431MOL0     C58057  10.371   9.554   9.462  0.6756 -0.7382  0.0362
  431MOL0     O58058  10.316   9.662   9.533  0.3498 -0.6044 -0.5080
  431MOL0     C58059  10.395   9.776   9.571 -0.3837  0.5863  1.6293
  431MOL0     C58060  10.331   9.863   9.678  0.1392 -0.2731  0.4067
  431MOL0     C58061  10.295   9.777   9.804 -0.2098  0.7581  0.1593
  431MOL0     C58062  10.257   9.852   9.929 -0.6879 -0.2615 -0.3545
  431MOL0     C58063  10.313   9.796  10.070  0.4021  0.6475 -0.0182
  431MOL0     C58064  10.282   9.640  10.093  0.5384 -0.9413  0.1412
  431MOL0     C58065  10.130   9.608  10.075  0.4552  0.1054  0.6098
  431MOL0     C58066  10.128   9.456  10.064 -0.6671 -0.5900  0.9772
  431MOL0     N58067   9.990   9.413  10.052 -0.0177  0.1027 -0.3413
  431MOL0     C58068   9.898   9.426   9.946 -0.6210 -0.9607  0.0925
  431MOL0     C58069   9.779   9.393  10.003  0.4117 -0.2265 -0.6779
  431MOL0     C58070   9.636   9.395   9.951 -0.0169 -0.7070 -0.1065
  431MOL0     C58071   9.564   9.269  10.001  0.5554  0.6758  0.5305
  431MOL0     C58072   9.415   9.269   9.955  0.0678  0.5097 -0.9374
  431MOL0     C58073   9.345   9.144  10.001  0.1356  0.0635 -0.8669
  431MOL0     O58074   9.228   9.129   9.919  0.4088 -0.4601  0.0471
  431MOL0     C58075   9.143   9.023   9.942 -0.5760 -0.1068  0.1324
  431MOL0     C58076   9.036   9.011   9.848 -1.5259  0.3724  0.0560
  431MOL0     C58077   8.954   8.903   9.854  0.3011 -0.4109  0.0662
  431MOL0     C58078   8.973   8.806   9.951  0.5568 -0.5230  0.3232
  431MOL0     C58079   8.870   8.696   9.954  0.0536 -0.1201  0.1521
  431MOL0     O58080   8.795   8.672   9.842 -0.2080 -0.3041 -0.7978
  431MOL0     C58081   8.704   8.560   9.828 -0.6980 -1.0283  0.1375
  431MOL0     C58082   8.713   8.439   9.899  0.2934 -0.2556  0.7380
  431MOL0     C58083   8.623   8.326   9.879  0.0645 -0.9486 -0.2934
  431MOL0     C58084   8.519   8.341   9.787  0.0401 -0.2086 -0.7089
  431MOL0     O58085   8.407   8.260   9.776 -0.2096  1.0517 -0.6585
  431MOL0     C58086   8.348   8.217   9.903 -0.4999  0.4606 -0.6850
  431MOL0     C58087   8.198   8.195   9.887  0.4591  0.0259 -0.3810
  431MOL0     C58088   8.175   8.038   9.885  0.0925 -0.2930  0.6776
  431MOL0     C58089   8.028   8.002   9.836  0.0289  0.5266  0.4364
  431MOL0     C58090   8.021   7.844   9.848 -0.2510  0.1695 -0.1640
  431MOL0     C58091   7.898   7.811   9.771 -0.3137  0.6356 -0.3279
  431MOL0     C58092   7.887   7.658   9.779  0.5236 -0.7660  0.6143
  431MOL0     C58093   7.757   7.617   9.719  0.3692 -0.3718  0.3640
  431MOL0    Cl58094   7.763   7.437   9.720  0.1987  0.3120  0.4463
  431MOL0     C58095   8.523   8.458   9.711 -0.5409  0.1037 -0.5172
  431MOL0     C58096   8.612   8.560   9.727  0.0523 -0.0835 -0.1468
  431MOL0     O58097   8.876   8.618  10.047 -1.0046  0.5936  0.1108
  431MOL0     C58098   9.073   8.818  10.048 -0.2252  0.2880 -1.0493
  431MOL0     C58099   9.163   8.922  10.039  0.5659  0.7269  0.3038
  431MOL0     N58100   9.801   9.380  10.143  0.1966  0.3400  0.0847
  431MOL0     N58101   9.923   9.406  10.167  0.4371 -0.8469  0.0883
  431MOL0     C58102  10.310   9.431   9.489  0.1558  0.1657  1.5967
  431MOL0     C58103  10.373   9.319   9.441  0.1890  0.5814  0.5590
  431MOL0     C58104  10.702   9.048   9.218  0.3390  0.1653  0.6970
  431MOL0     C58105  10.657   8.911   9.197 -0.5631 -0.2134 -0.0945
  431MOL0     C58106  10.744   8.813   9.145  0.7375 -0.9339 -0.9832
  431MOL0     C58107  10.879   8.849   9.121  0.3785  0.2461  0.0622
  431MOL0     O58108  10.971   8.760   9.071 -0.2739  0.2768  0.4309
  431MOL0     C58109  10.939   8.614   9.063  0.6123 -0.0164  0.2931
  431MOL0     C58110  10.880   8.588   8.926 -0.0007  0.0603 -0.3478
  431MOL0     C58111  10.880   8.432   8.916 -0.3094 -0.5091 -0.2201
  431MOL0     C58112  10.786   8.390   8.804 -0.7812 -0.2692 -0.3670
  431MOL0     C58113  10.640   8.400   8.845  0.3776  0.3587  0.9414
  431MOL0     C58114  10.519   8.405   8.858  0.1566 -0.3945  1.2644
  431MOL0     C58115  10.915   8.979   9.134 -0.0359  0.2108 -0.0920
  431MOL0     C58116  10.831   9.080   9.182 -0.3395  0.7132  0.6035
  431MOL0     C58117  10.887   9.212   9.192 -0.6562 -0.1875 -0.4959
  431MOL0     H58118  10.662   9.449   9.312 -0.6744  2.1867 -2.1269
  431MOL0     H58119  10.547   9.657   9.377  1.7367 -1.6761 -2.1059
  431MOL0     H58120  10.489   9.738   9.612 -0.3638 -0.5901  0.5427
  431MOL0     H58121  10.422   9.846   9.492  1.1934  0.1248  1.7234
  431MOL0     H58122  10.242   9.912   9.638  0.9761  0.7392 -0.2796
  431MOL0     H58123  10.400   9.944   9.707  2.6073 -2.2594  0.4203
  431MOL0     H58124  10.384   9.719   9.830  0.6677  1.7890 -0.4718
  431MOL0     H58125  10.212   9.708   9.784  0.9425 -1.9058  3.6439
  431MOL0     H58126  10.296   9.954   9.916 -0.0245 -0.5727 -0.8686
  431MOL0     H58127  10.149   9.862   9.943 -0.2167  0.5740  5.4636
  431MOL0     H58128  10.420   9.807  10.091  0.5803 -0.4147 -0.3168
  431MOL0     H58129  10.264   9.852  10.150  0.3062  0.1544  0.2731
  431MOL0     H58130  10.345   9.590  10.019 -1.1434 -1.4440 -1.0277
  431MOL0     H58131  10.301   9.602  10.194  1.7602  0.9601  0.6603
  431MOL0     H58132  10.080   9.652   9.988 -0.3101 -1.7629  0.0380
  431MOL0     H58133  10.071   9.643  10.160 -1.2324 -0.2767 -0.3541
  431MOL0     H58134  10.192   9.430   9.979  0.2725  1.7373  0.9000
  431MOL0     H58135  10.173   9.407  10.151 -2.1552 -0.5312  1.8136
  431MOL0     H58136   9.914   9.457   9.843 -1.1095 -1.4555 -0.1416
  431MOL0     H58137   9.583   9.486   9.980  3.4706  1.3739  0.2869
  431MOL0     H58138   9.643   9.403   9.842 -1.1479  3.6531 -0.0318
  431MOL0     H58139   9.622   9.180   9.972  2.1976  1.2826  1.7541
  431MOL0     H58140   9.564   9.270  10.111  1.2118  0.8670  0.5311
  431MOL0     H58141   9.416   9.258   9.846  1.4146 -3.1106 -0.6980
  431MOL0     H58142   9.356   9.352   9.996  3.6389  2.4691  0.6808
  431MOL0     H58143   9.320   9.149  10.108 -1.4375  2.6594 -1.2827
  431MOL0     H58144   9.399   9.051   9.981 -1.2037 -1.0976  0.6288
  431MOL0     H58145   9.041   9.090   9.774  0.4134  1.6249  1.4315
  431MOL0     H58146   8.874   8.878   9.785 -0.3253 -2.0378  1.3256
  431MOL0     H58147   8.784   8.426   9.980  1.7959 -0.2790 -0.5564
  431MOL0     H58148   8.630   8.242   9.947  0.0814  0.2142  1.2128
  431MOL0     H58149   8.397   8.123   9.929 -3.3995 -1.0601 -0.2807
  431MOL0     H58150   8.368   8.297   9.974  0.5101 -0.7106  0.3963
  431MOL0     H58151   8.138   8.239   9.967 -0.6199  2.3951 -2.3623
  431MOL0     H58152   8.161   8.251   9.801 -0.8414  1.1918  0.8842
  431MOL0     H58153   8.234   7.991   9.806 -0.6128  1.8535 -1.2453
  431MOL0     H58154   8.192   7.999   9.986  1.0238 -0.1366  0.5917
  431MOL0     H58155   8.005   8.024   9.731 -1.8223 -1.2119  0.4188
  431MOL0     H58156   7.947   8.049   9.892 -5.2563 -0.9000 -4.9877
  431MOL0     H58157   8.015   7.818   9.953 -2.0695  1.7774  0.1965
  431MOL0     H58158   8.114   7.807   9.803  0.4324  0.2915  1.1213
  431MOL0     H58159   7.815   7.858   9.824  0.8748  1.7564  0.5981
  431MOL0     H58160   7.909   7.843   9.667  1.2248  3.3004  0.5573
  431MOL0     H58161   7.890   7.612   9.878  1.5688 -1.2845  0.3567
  431MOL0     H58162   7.965   7.612   9.718 -2.2323  1.4026 -5.3122
  431MOL0     H58163   7.675   7.653   9.782  0.7611 -0.4704  0.9377
  431MOL0     H58164   7.740   7.658   9.619 -3.1189 -2.3460 -0.0280
  431MOL0     H58165   8.465   8.457   9.619  1.2488 -0.2552 -1.6750
  431MOL0     H58166   8.603   8.640   9.654 -0.0889  0.1509  0.1266
  431MOL0     H58167   9.068   8.750  10.132 -1.1279  1.9731  0.3341
  431MOL0     H58168   9.241   8.931  10.115  0.9500  1.8388 -0.2072
  431MOL0     H58169  10.221   9.421   9.550 -0.1491 -0.1569  1.1070
  431MOL0     H58170  10.352   9.213   9.449  0.1283  0.3024 -2.1615
  431MOL0     H58171  10.551   8.900   9.218 -0.3577 -0.8881  0.6550
  431MOL0     H58172  10.710   8.710   9.137 -3.4984  0.3439 -2.0270
  431MOL0     H58173  10.886   8.574   9.151  3.9745 -4.3296  0.6966
  431MOL0     H58174  11.038   8.568   9.073  0.8888  0.5275  0.1048
  431MOL0     H58175  10.946   8.613   8.842 -0.9475 -2.7119 -2.0433
  431MOL0     H58176  10.776   8.617   8.908 -0.7590 -2.5134 -0.5289
  431MOL0     H58177  10.843   8.396   9.012 -4.7627 -1.1099 -1.9283
  431MOL0     H58178  10.984   8.403   8.897 -0.6101 -1.5869 -0.2820
  431MOL0     H58179  10.827   8.436   8.713  0.9465 -2.5378 -0.8422
  431MOL0     H58180  10.810   8.283   8.793 -1.4639 -0.6018  1.0685
  431MOL0     H58181  10.414   8.426   8.866  0.3751  2.4857 -1.4025
  431MOL0     H58182  11.018   8.991   9.102  0.9238 -4.5384  0.5367
  431MOL0     H58183  10.892   9.270   9.100 -0.3608  2.4709  1.0756
  431MOL0     H58184  10.826   9.278   9.254 -1.2153 -2.1905  1.1921
  431MOL0     H58185  10.989   9.207   9.231 -1.1939 -0.8647  0.8733
  432MOL0     O58186   2.007  11.172  11.196  0.5490  0.3128 -0.4487
  432MOL0     C58187   2.085  11.264  11.195 -0.0329 -0.4979  0.3785
  432MOL0     O58188   2.139  11.320  11.078 -1.2013  0.1037  0.9495
  432MOL0     C58189   2.108  11.276  10.948 -0.1960 -0.2861  0.2303
  432MOL0     C58190   2.202  11.186  10.893  1.1654  0.7962  0.4662
  432MOL0     C58191   2.191  11.144  10.756 -0.0561  0.6623  1.1356
  432MOL0     C58192   2.091  11.210  10.684 -0.8075 -0.8495 -0.4497
  432MOL0     O58193   2.083  11.195  10.549  0.6025  0.3075  0.6073
  432MOL0     C58194   2.162  11.090  10.470  1.0072 -0.7375 -0.8803
  432MOL0     C58195   2.103  11.075  10.333  0.1142 -0.8506 -0.0933
  432MOL0     C58196   1.962  11.017  10.337  0.5610 -0.4020 -0.1270
  432MOL0     C58197   1.894  10.980  10.198 -0.3571  0.3084  0.3296
  432MOL0     C58198   1.918  11.087  10.095  0.4261  0.6689  0.8395
  432MOL0     C58199   1.868  11.228  10.140  0.3173 -0.1349  0.1536
  432MOL0     C58200   1.885  11.332  10.038  0.0727 -0.3351  0.0067
  432MOL0     C58201   1.811  11.460  10.078  0.5299  0.1922 -0.5310
  432MOL0     N58202   1.865  11.529  10.196  0.1309 -0.0758 -0.5067
  432MOL0     C58203   1.787  11.554  10.301 -0.0026 -0.1451 -0.0807
  432MOL0     C58204   1.864  11.591  10.403  0.1267 -0.3255 -0.0462
  432MOL0     C58205   1.826  11.661  10.537 -0.3995  0.8511  0.0956
  432MOL0     C58206   1.937  11.661  10.644  0.2053  0.3937  0.6953
  432MOL0     C58207   1.901  11.748  10.758 -0.5520  0.2976 -0.2620
  432MOL0     C58208   2.000  11.739  10.880  0.2455  0.6314  0.5753
  432MOL0     O58209   2.129  11.772  10.832 -0.7258 -0.5200 -0.0036
  432MOL0     C58210   2.227  11.731  10.914 -0.5355  0.5296 -0.9838
  432MOL0     C58211   2.259  11.804  11.031 -0.0942  0.0147 -0.3208
  432MOL0     C58212   2.371  11.775  11.109 -0.6066  0.5330 -0.1032
  432MOL0     C58213   2.449  11.667  11.087  0.1848 -0.3795  0.4768
  432MOL0     C58214   2.575  11.625  11.165 -0.0903  0.5051  0.0150
  432MOL0     O58215   2.584  11.653  11.296 -0.2727  0.1775  0.4962
  432MOL0     C58216   2.698  11.602  11.344  0.1643  0.1381 -0.7975
  432MOL0     C58217   2.814  11.669  11.317 -0.1320 -0.8725  0.8892
  432MOL0     C58218   2.942  11.622  11.359  0.2498  0.5648  1.1380
  432MOL0     C58219   2.939  11.507  11.435 -0.4849  0.2776 -0.0462
  432MOL0     O58220   3.063  11.455  11.470 -0.1718 -0.5190  0.0747
  432MOL0     C58221   3.097  11.321  11.438 -0.3005 -0.6378 -0.7085
  432MOL0     C58222   3.235  11.298  11.495 -0.0989 -0.1478 -0.3594
  432MOL0     C58223   3.339  11.365  11.414 -0.3715 -0.3740 -0.2677
  432MOL0     C58224   3.484  11.357  11.463  0.4455 -0.3414 -0.5861
  432MOL0     C58225   3.592  11.413  11.371  0.7324 -0.1842  0.2053
  432MOL0     C58226   3.645  11.294  11.279  0.1943 -0.3277  0.4617
  432MOL0     C58227   3.721  11.368  11.164 -0.1800  0.7073  0.2456
  432MOL0     C58228   3.879  11.363  11.183  0.1306 -0.2375  0.1729
  432MOL0    Cl58229   3.921  11.420  11.357  0.0585  0.5049 -0.1570
  432MOL0     C58230   2.822  11.446  11.478  0.0834 -0.2866 -0.4465
  432MOL0     C58231   2.699  11.497  11.433 -0.2200  0.2424  0.2028
  432MOL0     O58232   2.660  11.561  11.094  0.7097 -0.4759 -0.2202
  432MOL0     C58233   2.415  11.587  10.974 -0.9672  0.1197  0.3299
  432MOL0     C58234   2.310  11.615  10.893  0.6815 -1.2641 -0.3738
  432MOL0     N58235   1.993  11.595  10.364 -0.0646 -0.3506  0.0160
  432MOL0     N58236   2.000  11.545  10.245 -0.9163  0.0423 -0.1149
  432MOL0     C58237   1.992  11.289  10.739  0.2028  0.0532 -0.4739
  432MOL0     C58238   2.000  11.325  10.869 -0.3954  0.5279  0.0636
  432MOL0     C58239   2.141  11.329  11.326 -0.2876 -1.3515  0.1146
  432MOL0     C58240   2.217  11.451  11.312  0.3499  0.1890 -0.6020
  432MOL0     C58241   2.298  11.508  11.414 -0.4492  0.7301  0.3711
  432MOL0     C58242   2.287  11.447  11.542 -0.3277  0.0137 -0.7223
  432MOL0     O58243   2.371  11.500  11.636 -0.1806  0.4839  0.1544
  432MOL0     C58244   2.329  11.499  11.779  0.4273  0.6002  0.5655
  432MOL0     C58245   2.439  11.427  11.858  0.6211 -0.4683  0.2454
  432MOL0     C58246   2.578  11.495  11.843 -0.8760 -0.0242 -0.7718
  432MOL0     C58247   2.702  11.412  11.899  0.1979 -0.3726  0.8809
  432MOL0     C58248   2.684  11.402  12.045  0.4307  0.2958 -0.4076
  432MOL0     C58249   2.670  11.385  12.171  0.3919 -0.4770  0.5213
  432MOL0     C58250   2.218  11.329  11.556  0.1241  0.1474  0.4037
  432MOL0     C58251   2.154  11.265  11.450  0.5067 -1.2707 -0.2370
  432MOL0     C58252   2.095  11.133  11.470  0.0466  0.5232 -0.7207
  432MOL0     H58253   2.277  11.145  10.959 -0.0777  2.8522  3.3428
  432MOL0     H58254   2.262  11.078  10.708  0.5662  2.2990 -0.3420
  432MOL0     H58255   2.264  11.130  10.467  1.0593  0.0628  3.7991
  432MOL0     H58256   2.173  10.993  10.520  2.4281  1.0845  2.6932
  432MOL0     H58257   2.161  10.999  10.278  0.1188 -0.7571 -0.2186
  432MOL0     H58258   2.117  11.174  10.289  2.8181 -0.3438  1.6740
  432MOL0     H58259   1.897  11.093  10.381 -1.1182 -1.4024 -0.7849
  432MOL0     H58260   1.954  10.924  10.393 -1.4736 -1.2763 -1.7141
  432MOL0     H58261   1.926  10.882  10.161 -1.2065  0.4616 -0.8902
  432MOL0     H58262   1.788  10.969  10.221 -1.5065 -2.4987 -4.7609
  432MOL0     H58263   2.021  11.093  10.061  0.3625  1.5776  0.7919
  432MOL0     H58264   1.853  11.061  10.011  0.2209  1.4048  0.7656
  432MOL0     H58265   1.760  11.235  10.156  0.5523  1.7342  1.2056
  432MOL0     H58266   1.915  11.267  10.231 -0.7053 -1.1322  1.1448
  432MOL0     H58267   1.856  11.295   9.940 -2.8830 -0.7977  0.9362
  432MOL0     H58268   1.991  11.351  10.021 -0.4584  1.6828 -1.4862
  432MOL0     H58269   1.830  11.524   9.991  0.3775  0.7016 -0.1998
  432MOL0     H58270   1.703  11.448  10.088  0.4554  1.1564  0.0094
  432MOL0     H58271   1.680  11.558  10.318  0.3610 -0.6289  2.7504
  432MOL0     H58272   1.799  11.760  10.498 -2.1606 -0.4972 -2.4480
  432MOL0     H58273   1.735  11.612  10.572  0.5558 -1.7973 -0.9207
  432MOL0     H58274   1.958  11.560  10.680  0.9207 -0.4366 -1.8534
  432MOL0     H58275   2.036  11.692  10.608  1.3430 -0.0939  3.1662
  432MOL0     H58276   1.801  11.713  10.784 -0.3218 -2.6780 -2.7781
  432MOL0     H58277   1.906  11.848  10.713  1.3777 -0.8945 -2.9959
  432MOL0     H58278   1.992  11.644  10.934  3.4861 -0.1110 -0.0698
  432MOL0     H58279   1.981  11.818  10.954 -0.6273  0.5654  0.4362
  432MOL0     H58280   2.212  11.900  11.050  1.5030  0.5337  1.4213
  432MOL0     H58281   2.378  11.854  11.183 -1.9890  1.7348 -1.2240
  432MOL0     H58282   2.805  11.764  11.265 -0.2859  1.1664  4.3288
  432MOL0     H58283   3.027  11.683  11.330  0.6449 -0.5780 -0.2265
  432MOL0     H58284   3.035  11.251  11.495  3.2222 -1.2261  2.8704
  432MOL0     H58285   3.112  11.305  11.331  0.4350 -0.0598 -0.6996
  432MOL0     H58286   3.235  11.326  11.600 -2.5044 -0.3962 -0.2253
  432MOL0     H58287   3.256  11.191  11.487  0.1572 -0.4609  3.0244
  432MOL0     H58288   3.355  11.322  11.314  0.2599  1.4139 -0.9815
  432MOL0     H58289   3.324  11.470  11.386 -0.3334  0.2262  1.8350
  432MOL0     H58290   3.511  11.258  11.501 -2.1726 -0.3983  1.4425
  432MOL0     H58291   3.494  11.414  11.556 -2.3999  0.3048 -0.5737
  432MOL0     H58292   3.665  11.473  11.426 -0.8893  1.4784  0.6467
  432MOL0     H58293   3.538  11.494  11.321 -1.3499 -1.9141 -0.4934
  432MOL0     H58294   3.712  11.229  11.335  0.6111 -1.6020 -1.4080
  432MOL0     H58295   3.565  11.231  11.238  0.9375 -1.6393  0.9663
  432MOL0     H58296   3.695  11.474  11.159 -1.2922  0.3956 -1.4015
  432MOL0     H58297   3.684  11.315  11.076 -1.9296  0.6880  0.9494
  432MOL0     H58298   3.920  11.262  11.179 -0.6486 -0.5839  0.6937
  432MOL0     H58299   3.916  11.437  11.110  3.7932  0.5274  2.5330
  432MOL0     H58300   2.820  11.357  11.540  1.8295 -2.8740 -3.7146
  432MOL0     H58301   2.603  11.459  11.466  0.0629 -1.5586 -0.9540
  432MOL0     H58302   2.481  11.504  10.953 -0.0100  0.8389  0.4256
  432MOL0     H58303   2.283  11.555  10.808  0.6356  0.3214 -1.5313
  432MOL0     H58304   1.919  11.327  10.669 -2.3320 -3.3866  0.0284
  432MOL0     H58305   1.928  11.402  10.894 -2.5970 -0.0418 -3.6203
  432MOL0     H58306   2.220  11.499  11.215 -0.4811 -0.2569 -0.8515
  432MOL0     H58307   2.369  11.588  11.397 -0.5717  0.5537 -1.1234
  432MOL0     H58308   2.237  11.446  11.806 -0.0970  1.5355  0.6543
  432MOL0     H58309   2.329  11.606  11.797  4.0512  1.3413 -2.4864
  432MOL0     H58310   2.463  11.322  11.841 -2.6321 -1.2043 -0.3553
  432MOL0     H58311   2.407  11.425  11.962  0.3470  1.4269  0.2276
  432MOL0     H58312   2.574  11.583  11.908  1.2032 -2.3153  2.8322
  432MOL0     H58313   2.600  11.517  11.739 -0.1393  0.3833 -0.5404
  432MOL0     H58314   2.704  11.312  11.855 -3.0860 -0.1881  0.0514
  432MOL0     H58315   2.798  11.461  11.880 -0.3523  0.0626 -1.0707
  432MOL0     H58316   2.665  11.376  12.278  5.1517 -1.2737  0.8657
  432MOL0     H58317   2.236  11.269  11.645 -0.0745 -0.7315 -0.1399
  432MOL0     H58318   2.132  11.086  11.561  2.9826  1.4666 -1.3240
  432MOL0     H58319   1.986  11.133  11.467 -0.0705  0.6996  1.7333
  432MOL0     H58320   2.130  11.061  11.395 -0.7663 -0.7705  0.1045
  433MOL0     O58321   7.231   7.113   8.479  0.0773 -0.2418 -0.9114
  433MOL0     C58322   7.280   7.224   8.461 -1.5063  0.0891 -0.1977
  433MOL0     O58323   7.235   7.345   8.505 -0.2403 -0.4316 -0.4861
  433MOL0     C58324   7.120   7.354   8.571  0.3431  0.7507  0.4124
  433MOL0     C58325   7.004   7.279   8.538  0.1637  0.2003  0.4245
  433MOL0     C58326   6.884   7.307   8.609 -1.2476 -0.5800 -0.2629
  433MOL0     C58327   6.883   7.414   8.700  0.3322  0.2345 -0.2894
  433MOL0     O58328   6.761   7.453   8.762 -0.5214  0.0655  0.7046
  433MOL0     C58329   6.718   7.381   8.876 -0.5306 -0.1599  0.0692
  433MOL0     C58330   6.584   7.427   8.939 -0.1704  0.0046  0.9772
  433MOL0     C58331   6.598   7.519   9.052  0.3548  0.6502 -0.4011
  433MOL0     C58332   6.465   7.585   9.080 -0.2766  0.6892  0.1003
  433MOL0     C58333   6.440   7.723   9.149  0.0215  0.3009  0.3204
  433MOL0     C58334   6.507   7.838   9.082 -0.7875 -0.0960  0.5690
  433MOL0     C58335   6.491   7.960   9.170 -0.9891 -0.3663  0.2313
  433MOL0     C58336   6.584   8.085   9.131  0.5257  0.9972 -0.5180
  433MOL0     N58337   6.575   8.202   9.224 -0.6427 -0.1188 -0.2705
  433MOL0     C58338   6.634   8.323   9.194 -0.0365 -0.6136  0.2387
  433MOL0     C58339   6.605   8.399   9.302 -0.9646 -0.1660  0.6633
  433MOL0     C58340   6.657   8.543   9.311 -1.3000 -0.5029  0.0551
  433MOL0     C58341   6.597   8.654   9.220  0.5452 -0.2066 -1.1403
  433MOL0     C58342   6.672   8.653   9.076 -0.1423 -0.4794  0.4570
  433MOL0     C58343   6.655   8.780   9.003 -0.5187  0.0048 -0.0188
  433MOL0     O58344   6.730   8.776   8.879  0.0895 -0.0230  0.3769
  433MOL0     C58345   6.742   8.896   8.820  0.2410 -0.4891  1.3130
  433MOL0     C58346   6.878   8.945   8.795  0.0397  0.3250 -0.0595
  433MOL0     C58347   6.903   9.052   8.706  0.5094 -0.2939 -0.1515
  433MOL0     C58348   6.798   9.123   8.654  0.7696 -0.1988  0.2651
  433MOL0     C58349   6.834   9.242   8.559 -1.3399  0.6418  0.1123
  433MOL0     O58350   6.959   9.282   8.567  0.1953 -0.5052  0.5503
  433MOL0     C58351   7.003   9.363   8.459 -0.7782  1.2547 -0.2511
  433MOL0     C58352   7.013   9.315   8.326  0.5462 -0.0608 -0.2073
  433MOL0     C58353   7.049   9.396   8.216  0.1805  0.6632 -0.1508
  433MOL0     C58354   7.061   9.532   8.239 -0.6965 -1.0331 -1.1273
  433MOL0     O58355   7.069   9.639   8.146 -0.7089  0.3479 -0.0932
  433MOL0     C58356   7.096   9.612   8.011  0.1656  0.3503  0.0811
  433MOL0     C58357   7.185   9.717   7.961 -0.4743  0.2317 -0.4203
  433MOL0     C58358   7.165   9.725   7.802  0.2358  0.4227 -0.0653
  433MOL0     C58359   7.210   9.853   7.747  0.7741 -0.4119  0.1112
  433MOL0     C58360   7.189   9.856   7.591  0.3149  0.8210  0.3801
  433MOL0     C58361   7.160   9.998   7.535  0.1970 -1.0872 -0.2108
  433MOL0     C58362   7.278  10.088   7.548 -0.4813 -0.5983  1.0473
  433MOL0     C58363   7.342  10.142   7.419  1.2283 -0.5616 -0.2494
  433MOL0    Cl58364   7.418  10.015   7.328  0.1382 -0.3049  0.0997
  433MOL0     C58365   7.048   9.591   8.369 -0.5340  0.1117  0.0708
  433MOL0     C58366   7.018   9.503   8.473 -0.1746 -0.1144 -0.0499
  433MOL0     O58367   6.753   9.274   8.474 -0.4123 -0.0123  0.1078
  433MOL0     C58368   6.661   9.092   8.685 -0.0997 -0.1461  0.2194
  433MOL0     C58369   6.638   8.980   8.762  0.2174 -0.1317 -1.1638
  433MOL0     N58370   6.516   8.335   9.381 -0.5462  0.0816 -1.2269
  433MOL0     N58371   6.499   8.209   9.333  0.4889 -0.3574  0.0425
  433MOL0     C58372   7.005   7.473   8.743  0.5281 -0.4413  0.1926
  433MOL0     C58373   7.125   7.447   8.677  0.4015  0.9121  0.3794
  433MOL0     C58374   7.410   7.215   8.383 -0.3759 -0.3121  0.1413
  433MOL0     C58375   7.449   7.092   8.327  0.1568 -0.1211 -0.3131
  433MOL0     C58376   7.563   7.077   8.258  0.1727  0.8862  0.5416
  433MOL0     C58377   7.639   7.180   8.226 -0.3405 -0.9459  0.0272
  433MOL0     O58378   7.742   7.143   8.149 -0.9991  0.9719  0.3658
  433MOL0     C58379   7.810   7.248   8.073  0.3884 -0.7451 -0.5065
  433MOL0     C58380   7.891   7.204   7.961 -0.1186  0.0024 -0.3806
  433MOL0     C58381   7.810   7.169   7.834  0.7447 -0.2733 -1.2879
  433MOL0     C58382   7.880   7.106   7.722 -0.5728 -0.5083 -0.3497
  433MOL0     C58383   7.795   7.111   7.603 -1.3228 -0.4616  0.2358
  433MOL0     C58384   7.730   7.124   7.502  0.2119  0.2254 -0.7556
  433MOL0     C58385   7.598   7.307   8.278 -0.0494  0.4000 -0.3376
  433MOL0     C58386   7.496   7.328   8.354  1.3129 -0.0437  0.2743
  433MOL0     C58387   7.467   7.470   8.397  0.3891  0.8339  0.0953
  433MOL0     H58388   6.996   7.199   8.465  3.6081  0.1825 -0.0688
  433MOL0     H58389   6.796   7.247   8.587 -0.1994 -1.2523 -3.0100
  433MOL0     H58390   6.726   7.273   8.860  1.0000  0.2304 -2.2009
  433MOL0     H58391   6.787   7.402   8.958 -0.8879 -0.5921  0.4836
  433MOL0     H58392   6.520   7.346   8.975 -2.6692  1.6968  0.5987
  433MOL0     H58393   6.540   7.473   8.849  1.4445  1.7726  1.0396
  433MOL0     H58394   6.685   7.585   9.038  1.4889 -0.8233 -0.6007
  433MOL0     H58395   6.629   7.467   9.143 -2.8855 -2.1358 -0.6998
  433MOL0     H58396   6.428   7.612   8.980 -1.8451  3.4854  1.3186
  433MOL0     H58397   6.406   7.502   9.120  2.6014 -1.4821  0.1467
  433MOL0     H58398   6.332   7.741   9.149 -0.0414  0.0253  1.9633
  433MOL0     H58399   6.479   7.721   9.251  0.4810  2.5244  0.2317
  433MOL0     H58400   6.612   7.815   9.099 -1.5140 -4.1381  0.5700
  433MOL0     H58401   6.492   7.860   8.976 -0.8630  1.2032  0.8384
  433MOL0     H58402   6.511   7.924   9.271 -1.8805 -1.3546  0.0724
  433MOL0     H58403   6.387   7.995   9.171 -0.6432  1.0013 -2.5333
  433MOL0     H58404   6.690   8.056   9.131  0.7903  1.9233 -0.1283
  433MOL0     H58405   6.545   8.117   9.034  1.6067 -0.6127 -1.5322
  433MOL0     H58406   6.688   8.351   9.105 -0.9837  0.8435  0.0886
  433MOL0     H58407   6.651   8.569   9.417  0.6905  0.2586  0.0129
  433MOL0     H58408   6.765   8.540   9.295 -1.3034 -3.3140  0.0130
  433MOL0     H58409   6.490   8.642   9.203  0.5589 -0.0435 -1.3470
  433MOL0     H58410   6.617   8.744   9.278  0.5923 -1.7661  1.4238
  433MOL0     H58411   6.641   8.567   9.016  0.0589 -0.1418 -0.1415
  433MOL0     H58412   6.777   8.641   9.101 -0.3401  2.3917  3.1791
  433MOL0     H58413   6.703   8.849   9.073  0.6765 -0.7652 -0.0439
  433MOL0     H58414   6.548   8.799   8.989 -0.0418  1.8518 -1.6566
  433MOL0     H58415   6.964   8.885   8.822 -1.1474 -2.6362 -2.2595
  433MOL0     H58416   7.000   9.076   8.664 -0.1960 -0.5176 -1.9980
  433MOL0     H58417   6.997   9.208   8.321  0.9751 -0.2968  2.2173
  433MOL0     H58418   7.057   9.353   8.116 -0.0678 -1.1969  0.5920
  433MOL0     H58419   7.155   9.521   8.000  0.8677  0.6851  0.9474
  433MOL0     H58420   7.006   9.598   7.950  0.2100 -0.8226  0.2710
  433MOL0     H58421   7.153   9.811   8.007 -0.2761 -0.7829  1.9399
  433MOL0     H58422   7.289   9.697   7.988 -0.3582  0.6721 -0.5437
  433MOL0     H58423   7.224   9.642   7.761 -2.2307 -2.2374  1.4076
  433MOL0     H58424   7.058   9.720   7.782  0.2803  0.4224 -0.3039
  433MOL0     H58425   7.310   9.872   7.785  0.3398  0.6905  0.7534
  433MOL0     H58426   7.144   9.927   7.793  3.1971  0.6218  2.1425
  433MOL0     H58427   7.100   9.793   7.578 -0.6946  1.8943  1.7698
  433MOL0     H58428   7.269   9.804   7.537 -2.0161 -0.3909 -2.1843
  433MOL0     H58429   7.144  10.000   7.427  2.5729 -0.0704 -0.6151
  433MOL0     H58430   7.074  10.037   7.590  3.2920  1.0604  3.5907
  433MOL0     H58431   7.354  10.043   7.613  1.3362  1.1097  0.2241
  433MOL0     H58432   7.250  10.181   7.598  2.2102  0.9255 -0.0541
  433MOL0     H58433   7.263  10.185   7.357  1.3690 -0.6655 -0.4997
  433MOL0     H58434   7.407  10.226   7.446  0.0353  0.7253 -1.2268
  433MOL0     H58435   7.052   9.699   8.365  1.5057  0.0851  0.1270
  433MOL0     H58436   6.999   9.543   8.572  1.4349 -0.2007  0.3224
  433MOL0     H58437   6.574   9.153   8.665  0.7324  1.7295  1.8807
  433MOL0     H58438   6.533   8.955   8.772  0.5477 -1.1123  0.0140
  433MOL0     H58439   7.004   7.537   8.831 -2.0315  0.5913 -0.4810
  433MOL0     H58440   7.216   7.498   8.708  0.8949  0.9271 -1.0443
  433MOL0     H58441   7.398   6.998   8.344 -1.8532  0.8641 -0.5617
  433MOL0     H58442   7.602   6.977   8.241  0.0465  0.7897  0.8129
  433MOL0     H58443   7.871   7.313   8.137 -0.3882  1.3603 -1.8102
  433MOL0     H58444   7.726   7.304   8.031 -0.7877  0.8297  3.4665
  433MOL0     H58445   7.945   7.113   7.990  3.2867  1.9008 -0.2154
  433MOL0     H58446   7.960   7.280   7.922  1.5370 -0.8882  0.6900
  433MOL0     H58447   7.765   7.265   7.805  0.5140  0.6790  1.8609
  433MOL0     H58448   7.734   7.097   7.866  1.0854 -0.4105 -0.7751
  433MOL0     H58449   7.977   7.157   7.719 -1.2334  0.7416 -1.5123
  433MOL0     H58450   7.906   7.002   7.744  3.0132  0.2317 -0.4793
  433MOL0     H58451   7.659   7.119   7.422 -1.7653  3.3670  0.6400
  433MOL0     H58452   7.651   7.398   8.249  1.3838  0.5272  2.3195
  433MOL0     H58453   7.370   7.501   8.357 -0.4363 -1.7273 -0.0624
  433MOL0     H58454   7.469   7.472   8.506  3.3530  5.9331  0.2290
  433MOL0     H58455   7.549   7.534   8.364 -0.4692  1.5740 -0.6718
  434MOL0     O58456  10.639   2.321  10.226 -0.8750 -0.5823  0.4997
  434MOL0     C58457  10.663   2.285  10.340  0.4640 -0.1678 -0.8396
  434MOL0     O58458  10.626   2.173  10.394 -0.2108 -0.2548 -0.1144
  434MOL0     C58459  10.617   2.060  10.309 -0.1415  0.0099  0.3721
  434MOL0     C58460  10.730   1.977  10.300  0.9326 -1.0996 -0.2326
  434MOL0     C58461  10.729   1.856  10.229  0.0872 -0.7785 -0.1843
  434MOL0     C58462  10.614   1.816  10.168  0.2007 -0.5952  0.2466
  434MOL0     O58463  10.605   1.700  10.101 -0.4537 -0.2482  0.4963
  434MOL0     C58464  10.706   1.673  10.002 -0.8002  0.0141 -0.1160
  434MOL0     C58465  10.741   1.522  10.006 -0.4803  0.0740  0.3408
  434MOL0     C58466  10.744   1.460  10.148 -1.4389 -0.5823  0.1858
  434MOL0     C58467  10.793   1.311  10.142  0.1700 -0.1119 -0.0341
  434MOL0     C58468  10.715   1.203  10.066  0.8803 -0.4351 -0.5418
  434MOL0     C58469  10.556   1.196  10.108 -0.4843  0.8045 -0.0037
  434MOL0     C58470  10.500   1.067  10.044 -0.4615  0.1826  0.7030
  434MOL0     C58471  10.354   1.052  10.079  0.3215 -0.0589  0.4535
  434MOL0     N58472  10.270   1.158  10.052 -0.6775  0.1026  0.6087
  434MOL0     C58473  10.238   1.252  10.144  1.3137  0.3435 -0.3525
  434MOL0     C58474  10.166   1.349  10.081 -0.0291 -0.1746 -1.0198
  434MOL0     C58475  10.135   1.484  10.144  0.6562 -0.3255 -0.4225
  434MOL0     C58476  10.236   1.596  10.105  0.0657  0.3169 -0.3788
  434MOL0     C58477  10.258   1.617   9.951 -0.0917  0.0546 -0.6473
  434MOL0     C58478  10.123   1.654   9.883  0.6344  0.2465 -0.0953
  434MOL0     O58479  10.146   1.695   9.752 -0.3030  0.5421  0.7928
  434MOL0     C58480  10.036   1.689   9.662 -0.7266  0.0459  1.1035
  434MOL0     C58481   9.898   1.690   9.690 -0.3181 -0.0581  0.5398
  434MOL0     C58482   9.800   1.714   9.593 -0.4773 -0.0771  0.1353
  434MOL0     C58483   9.843   1.714   9.458 -0.1336 -0.0410 -0.1354
  434MOL0     C58484   9.742   1.745   9.345  0.2691  1.3671 -0.6604
  434MOL0     O58485   9.800   1.815   9.240  0.1211  0.2643 -0.6078
  434MOL0     C58486   9.727   1.853   9.131 -0.0067  0.5273 -0.6312
  434MOL0     C58487   9.699   1.766   9.027 -0.8258 -0.0721  0.8567
  434MOL0     C58488   9.638   1.817   8.917 -0.0784 -0.4195 -0.3149
  434MOL0     C58489   9.599   1.946   8.904  0.4464  0.0580  0.6893
  434MOL0     O58490   9.537   1.983   8.790  0.3354 -0.5953 -0.6097
  434MOL0     C58491   9.415   2.064   8.796 -0.3047 -0.8778 -0.3598
  434MOL0     C58492   9.342   2.080   8.659  0.5677 -0.0050  0.9906
  434MOL0     C58493   9.257   1.954   8.625  0.4051  0.1943 -0.3918
  434MOL0     C58494   9.326   1.813   8.629  0.1566  0.6030  0.1497
  434MOL0     C58495   9.237   1.716   8.566  0.3892  0.8485  0.4184
  434MOL0     C58496   9.310   1.580   8.549 -0.3410  0.0866  0.1234
  434MOL0     C58497   9.367   1.518   8.666  0.5585 -0.4467  0.8493
  434MOL0     C58498   9.288   1.422   8.743  1.0375  0.2471 -0.3186
  434MOL0    Cl58499   9.183   1.308   8.646  0.1622 -0.3832 -0.1120
  434MOL0     C58500   9.629   2.043   9.002  0.1277  0.0633 -0.1842
  434MOL0     C58501   9.695   1.990   9.118 -0.8789  0.7136  0.6082
  434MOL0     O58502   9.621   1.723   9.353  0.2090  0.5443  0.0266
  434MOL0     C58503   9.978   1.699   9.431  0.5799  0.1350  0.2763
  434MOL0     C58504  10.075   1.688   9.529  1.1867 -0.6765  0.4269
  434MOL0     N58505  10.146   1.299   9.952  0.2796 -0.2938  0.1797
  434MOL0     N58506  10.191   1.182   9.941 -0.1774 -0.6186 -0.0867
  434MOL0     C58507  10.494   1.883  10.189 -0.5498  1.3624  0.1350
  434MOL0     C58508  10.494   2.011  10.256 -0.7964 -0.3367 -0.2446
  434MOL0     C58509  10.718   2.385  10.435  0.2411 -0.6235  0.5127
  434MOL0     C58510  10.753   2.510  10.394  0.1456 -0.5347 -0.4919
  434MOL0     C58511  10.783   2.621  10.470 -0.5516  0.0879  1.3805
  434MOL0     C58512  10.796   2.600  10.611 -0.1358 -0.1489  0.7808
  434MOL0     O58513  10.860   2.685  10.694 -1.0261  0.2795 -0.0989
  434MOL0     C58514  10.896   2.818  10.648  0.1855 -0.0516  0.3393
  434MOL0     C58515  10.970   2.886  10.762  0.0093 -0.2851 -0.4079
  434MOL0     C58516  10.910   2.861  10.904 -0.0399 -0.4513 -0.4380
  434MOL0     C58517  10.978   2.960  11.004 -0.6414 -0.1909 -0.2907
  434MOL0     C58518  10.920   2.949  11.141  0.0372 -0.0291 -0.3029
  434MOL0     C58519  10.867   2.946  11.255 -0.3294 -0.7003  0.3371
  434MOL0     C58520  10.758   2.473  10.658  1.3521 -0.4596 -0.1706
  434MOL0     C58521  10.717   2.364  10.578  0.1413 -0.7113 -0.1544
  434MOL0     C58522  10.679   2.226  10.647 -0.2439  0.2790  0.4442
  434MOL0     H58523  10.822   2.016  10.343  0.3324  0.4887 -0.3236
  434MOL0     H58524  10.816   1.791  10.230  0.1877 -0.6431  1.0792
  434MOL0     H58525  10.668   1.688   9.901  0.3578 -0.4337 -0.6468
  434MOL0     H58526  10.797   1.733  10.012  0.7636 -2.2793  0.3252
  434MOL0     H58527  10.835   1.511   9.950  1.7162 -1.4308  3.9604
  434MOL0     H58528  10.667   1.473   9.942 -0.4832  2.1807 -1.4035
  434MOL0     H58529  10.642   1.479  10.183 -2.4576  1.8026 -3.5964
  434MOL0     H58530  10.813   1.530  10.196 -1.3478 -0.8318  0.4189
  434MOL0     H58531  10.885   1.312  10.082 -0.3538 -2.4216 -0.9699
  434MOL0     H58532  10.809   1.270  10.243 -1.8251 -0.7671  0.0520
  434MOL0     H58533  10.710   1.239   9.963 -2.2978  0.0725 -0.2999
  434MOL0     H58534  10.766   1.106  10.065  2.6297  0.4249  0.1851
  434MOL0     H58535  10.540   1.191  10.216 -3.8676 -1.6163 -0.4529
  434MOL0     H58536  10.503   1.281  10.066 -3.1014 -1.1784 -1.0001
  434MOL0     H58537  10.547   0.974  10.079 -0.3981 -0.2967 -0.6095
  434MOL0     H58538  10.503   1.083   9.936 -3.3003  4.5938  1.0280
  434MOL0     H58539  10.311   0.959  10.040  0.3553  1.0549 -2.4986
  434MOL0     H58540  10.350   1.039  10.188  1.4053 -3.9752  0.1608
  434MOL0     H58541  10.279   1.242  10.244  1.4945 -1.7003 -0.5844
  434MOL0     H58542  10.038   1.519  10.108  0.7770  0.3008 -0.1529
  434MOL0     H58543  10.123   1.470  10.252 -1.6903  1.0539 -0.4437
  434MOL0     H58544  10.186   1.682  10.150 -0.2781  1.4496 -2.7594
  434MOL0     H58545  10.327   1.571  10.159 -0.5103 -1.3616 -0.0961
  434MOL0     H58546  10.312   1.533   9.908  0.0086 -2.2291  3.4489
  434MOL0     H58547  10.320   1.708   9.952  1.0641 -0.6285  2.2056
  434MOL0     H58548  10.050   1.712   9.941 -0.6826 -0.9751 -0.4710
  434MOL0     H58549  10.066   1.561   9.883 -0.3292  0.8147 -1.1613
  434MOL0     H58550   9.862   1.687   9.792 -1.5610 -0.5296  0.1055
  434MOL0     H58551   9.699   1.738   9.623  0.1375 -0.3093  2.6190
  434MOL0     H58552   9.711   1.658   9.028 -0.2212 -0.0784  3.8853
  434MOL0     H58553   9.621   1.742   8.840  0.3083  0.6153 -1.4467
  434MOL0     H58554   9.356   2.005   8.867  1.6682 -2.8864 -0.2740
  434MOL0     H58555   9.430   2.162   8.843  0.9263 -0.9258 -0.6192
  434MOL0     H58556   9.280   2.170   8.669  0.0538 -0.4716  2.1306
  434MOL0     H58557   9.430   2.089   8.593 -0.5088 -1.3529 -0.7236
  434MOL0     H58558   9.168   1.952   8.689  1.3633 -1.7586  1.0202
  434MOL0     H58559   9.226   1.963   8.521  2.7574  0.7290 -1.1107
  434MOL0     H58560   9.339   1.786   8.734  0.6174 -2.5495 -0.6175
  434MOL0     H58561   9.425   1.812   8.581 -0.6335  1.7303 -1.6166
  434MOL0     H58562   9.208   1.746   8.464 -1.3748  3.0817  1.4776
  434MOL0     H58563   9.146   1.704   8.626  1.3056 -1.9816  1.4005
  434MOL0     H58564   9.232   1.514   8.510 -0.7156 -0.6659  2.0404
  434MOL0     H58565   9.385   1.604   8.473 -0.8441 -0.4604 -0.5516
  434MOL0     H58566   9.414   1.589   8.735  2.2872 -0.0881 -0.6123
  434MOL0     H58567   9.455   1.463   8.630 -1.1803 -2.6838 -0.2529
  434MOL0     H58568   9.355   1.365   8.808  0.8724  2.6977  2.1749
  434MOL0     H58569   9.222   1.474   8.812 -2.0725 -2.5408 -0.9376
  434MOL0     H58570   9.597   2.147   8.998 -1.8903 -0.5443 -1.1740
  434MOL0     H58571   9.722   2.062   9.194  0.7843  1.7023 -0.8344
  434MOL0     H58572  10.011   1.711   9.328 -2.4058  0.4573 -0.7274
  434MOL0     H58573  10.180   1.671   9.503  0.7192 -2.0057 -0.7237
  434MOL0     H58574  10.396   1.843  10.163 -0.0299  0.2910 -0.2227
  434MOL0     H58575  10.396   2.050  10.280 -0.3530  0.5534  0.1599
  434MOL0     H58576  10.739   2.520  10.287  1.8345 -1.8879 -0.8965
  434MOL0     H58577  10.816   2.713  10.421 -1.0684  1.1261  2.9151
  434MOL0     H58578  10.807   2.876  10.624 -0.9515 -0.8736  2.3414
  434MOL0     H58579  10.969   2.816  10.566  1.6481  2.1285  1.5004
  434MOL0     H58580  10.960   2.994  10.745 -0.7905 -0.0380  1.3534
  434MOL0     H58581  11.076   2.859  10.758 -0.0978 -0.9482  0.6882
  434MOL0     H58582  10.933   2.762  10.943 -2.5593 -0.4314  1.3131
  434MOL0     H58583  10.801   2.856  10.903 -0.2174  1.0079  2.2102
  434MOL0     H58584  11.083   2.930  11.003 -0.5811  0.0197 -0.3088
  434MOL0     H58585  10.981   3.063  10.966  2.5009 -0.1782 -0.2492
  434MOL0     H58586  10.821   2.955  11.351  3.2156  2.3311  2.0130
  434MOL0     H58587  10.770   2.446  10.763  2.8885 -3.3503 -0.9846
  434MOL0     H58588  10.753   2.148  10.630  0.1734  1.0547 -1.5350
  434MOL0     H58589  10.689   2.254  10.752 -0.6951  2.6407 -0.1026
  434MOL0     H58590  10.572   2.208  10.630 -0.7889  0.6797  3.0382
  435MOL0     O58591   4.248   1.036   0.264  0.3083 -0.4128  0.2879
  435MOL0     C58592   4.223   0.996   0.376  0.1843 -0.0732  0.1046
  435MOL0     O58593   4.152   1.076   0.458  0.2425 -0.2545 -0.4867
  435MOL0     C58594   4.129   1.204   0.424  0.1400 -0.2852  0.1591
  435MOL0     C58595   4.004   1.238   0.365 -0.3087  0.2441  0.8578
  435MOL0     C58596   3.977   1.374   0.335  0.4820 -0.5980  0.5702
  435MOL0     C58597   4.077   1.477   0.346 -0.1621 -0.3496  0.0154
  435MOL0     O58598   4.035   1.593   0.289  0.2236 -0.0365  0.9215
  435MOL0     C58599   4.140   1.664   0.213  0.1438 -0.2514 -0.0350
  435MOL0     C58600   4.211   1.770   0.304 -0.4874  0.1557 -0.2610
  435MOL0     C58601   4.321   1.867   0.238  0.3351  0.6765 -0.5477
  435MOL0     C58602   4.253   1.958   0.136 -0.9093  0.4236 -0.8392
  435MOL0     C58603   4.351   2.048   0.074 -0.2628  0.3425  0.3271
  435MOL0     C58604   4.275   2.154  -0.014  0.3888  0.3399 -0.7924
  435MOL0     C58605   4.364   2.255  -0.076  0.3040 -0.2136  0.8372
  435MOL0     C58606   4.397   2.364   0.025  1.0170 -1.1811  0.2451
  435MOL0     N58607   4.278   2.425   0.090 -0.1636  0.3957  0.1645
  435MOL0     C58608   4.174   2.480   0.032 -0.9397 -0.8088 -0.0304
  435MOL0     C58609   4.142   2.580   0.119  0.5214 -0.0679 -0.7733
  435MOL0     C58610   4.039   2.687   0.091 -0.4563 -0.5892 -0.1707
  435MOL0     C58611   4.093   2.804   0.013 -0.3332  0.3278 -0.0899
  435MOL0     C58612   4.007   2.926   0.034  0.4516 -0.3858  0.3046
  435MOL0     C58613   4.067   3.054  -0.032  0.9961  0.6753 -0.2150
  435MOL0     O58614   4.029   3.178   0.034  0.2096 -0.2281  0.5016
  435MOL0     C58615   3.903   3.230   0.017 -0.1966  0.1651 -1.0538
  435MOL0     C58616   3.798   3.156  -0.041  0.0188 -0.0684  0.1480
  435MOL0     C58617   3.666   3.203  -0.029 -0.0470 -0.0218 -0.1457
  435MOL0     C58618   3.638   3.330   0.025  0.5236  0.1789 -0.7596
  435MOL0     C58619   3.504   3.387   0.018 -0.5062  0.6506  0.2171
  435MOL0     O58620   3.483   3.515   0.051 -0.6653  0.2888  1.0222
  435MOL0     C58621   3.364   3.574   0.020 -0.5850  1.0072  0.4305
  435MOL0     C58622   3.269   3.585   0.119  1.0231 -0.0615  0.9002
  435MOL0     C58623   3.151   3.638   0.083  0.1516 -0.2507 -0.4656
  435MOL0     C58624   3.123   3.691  -0.044 -0.4317  0.3034  0.2496
  435MOL0     O58625   2.998   3.751  -0.061 -0.3914  0.4970 -0.6446
  435MOL0     C58626   2.916   3.716  -0.176 -0.0566 -0.1478 -0.1428
  435MOL0     C58627   2.831   3.596  -0.155 -0.5927  0.1507 -0.0834
  435MOL0     C58628   2.721   3.627  -0.057  0.7932  0.4729  0.3414
  435MOL0     C58629   2.624   3.511  -0.063  0.1564 -0.3613 -0.2109
  435MOL0     C58630   2.519   3.513   0.047 -0.1135 -0.1275  0.2183
  435MOL0     C58631   2.571   3.467   0.187  0.1687 -0.2277 -0.2537
  435MOL0     C58632   2.453   3.460   0.279 -0.8352  0.2688  0.4846
  435MOL0     C58633   2.512   3.419   0.418  0.8447 -0.0672 -0.4614
  435MOL0    Cl58634   2.459   3.534   0.555  0.4442 -0.2079  0.5970
  435MOL0     C58635   3.216   3.683  -0.146 -0.1231  0.4947  0.0551
  435MOL0     C58636   3.336   3.619  -0.110  0.4174  0.2672 -0.6186
  435MOL0     O58637   3.418   3.306  -0.023 -0.2101 -0.0295 -0.1453
  435MOL0     C58638   3.741   3.405   0.081  0.5162  0.3813 -0.4814
  435MOL0     C58639   3.871   3.357   0.082  0.2058 -0.5405 -0.1422
  435MOL0     N58640   4.216   2.566   0.240  0.5076 -0.4330  0.3136
  435MOL0     N58641   4.290   2.470   0.218  0.1912 -0.6051  0.7235
  435MOL0     C58642   4.196   1.438   0.400  0.2804 -0.1603  0.1344
  435MOL0     C58643   4.223   1.306   0.445  0.0998 -0.3379 -0.3834
  435MOL0     C58644   4.298   0.860   0.401 -0.2436 -0.7034 -0.0897
  435MOL0     C58645   4.303   0.761   0.310 -0.1028 -0.2112 -0.0601
  435MOL0     C58646   4.389   0.652   0.320  0.1967  0.1405  0.0970
  435MOL0     C58647   4.470   0.638   0.431  0.2506  0.1351 -0.8111
  435MOL0     O58648   4.525   0.515   0.470 -1.5103 -0.6872  0.0818
  435MOL0     C58649   4.585   0.436   0.370  0.3378  0.2194 -0.0002
  435MOL0     C58650   4.699   0.357   0.438  0.0798 -0.2229  0.0168
  435MOL0     C58651   4.798   0.297   0.346  0.5041 -0.1066 -0.2340
  435MOL0     C58652   4.867   0.166   0.399  1.0145  0.1590  0.1337
  435MOL0     C58653   5.003   0.195   0.441  0.1727 -0.1142 -0.1488
  435MOL0     C58654   5.114   0.216   0.484  0.7492 -0.3876  0.7636
  435MOL0     C58655   4.466   0.739   0.525  0.0942 -0.0894  0.2153
  435MOL0     C58656   4.387   0.853   0.505 -0.4537 -0.8412  0.2690
  435MOL0     C58657   4.392   0.960   0.615  0.0855  0.4093  1.4954
  435MOL0     H58658   3.924   1.164   0.360  0.0032 -0.0463 -2.8831
  435MOL0     H58659   3.873   1.401   0.324  0.6420 -0.1401  0.1373
  435MOL0     H58660   4.217   1.593   0.182 -1.5919 -0.2587 -5.3140
  435MOL0     H58661   4.104   1.715   0.123  1.6353 -0.6243 -0.8704
  435MOL0     H58662   4.255   1.722   0.392  1.1701  0.9475 -0.6023
  435MOL0     H58663   4.142   1.833   0.361  0.1136  2.5300 -1.9936
  435MOL0     H58664   4.382   1.813   0.166 -1.8445  0.5751 -2.4314
  435MOL0     H58665   4.389   1.918   0.307  0.8773 -0.5556 -0.1347
  435MOL0     H58666   4.222   1.906   0.045  0.2494  4.1238 -3.5834
  435MOL0     H58667   4.173   2.019   0.179 -0.0634  1.9439 -1.3421
  435MOL0     H58668   4.407   2.105   0.149 -1.7801 -0.9785  2.5900
  435MOL0     H58669   4.420   1.998   0.006 -1.4971  1.4801 -1.8819
  435MOL0     H58670   4.231   2.102  -0.099 -0.6421 -1.5591  0.8382
  435MOL0     H58671   4.189   2.203   0.032  1.4994  2.7313 -1.0545
  435MOL0     H58672   4.322   2.303  -0.165 -0.6069 -1.6416  0.4679
  435MOL0     H58673   4.456   2.205  -0.110 -0.9990 -1.5553 -0.8851
  435MOL0     H58674   4.464   2.319   0.098  0.8800  0.2729  1.3260
  435MOL0     H58675   4.457   2.443  -0.020  1.7928 -0.4848  2.3563
  435MOL0     H58676   4.135   2.461  -0.068 -1.0059 -0.4779 -0.0669
  435MOL0     H58677   3.957   2.642   0.034  0.2131 -0.6615 -1.1018
  435MOL0     H58678   3.996   2.713   0.188  0.0201  1.9943 -0.5658
  435MOL0     H58679   4.200   2.821   0.031  0.3045 -1.9517 -1.2934
  435MOL0     H58680   4.083   2.777  -0.093  0.1017 -1.8543  0.3693
  435MOL0     H58681   3.999   2.949   0.141  1.0681  1.6314 -0.0458
  435MOL0     H58682   3.905   2.897   0.009  1.0211 -4.9018  2.2435
  435MOL0     H58683   4.042   3.058  -0.138 -3.8341  1.0912  0.6870
  435MOL0     H58684   4.175   3.046  -0.016  0.7149 -0.5190  1.3930
  435MOL0     H58685   3.822   3.060  -0.085  1.4527 -0.5727  1.9513
  435MOL0     H58686   3.588   3.140  -0.073  0.4151 -0.4608 -0.3469
  435MOL0     H58687   3.294   3.548   0.218 -0.9527 -0.3832  1.3307
  435MOL0     H58688   3.067   3.661   0.147 -1.8894  0.7707 -3.3047
  435MOL0     H58689   2.851   3.802  -0.192  0.7026  1.1034  2.8402
  435MOL0     H58690   2.971   3.705  -0.270 -0.5036 -0.8087 -0.3340
  435MOL0     H58691   2.784   3.567  -0.249  0.3568  0.7577 -0.7698
  435MOL0     H58692   2.902   3.525  -0.111  2.2144  1.2110 -2.5352
  435MOL0     H58693   2.766   3.632   0.042  2.7131  0.7847 -0.5030
  435MOL0     H58694   2.676   3.724  -0.080 -0.5223  0.6347  3.1984
  435MOL0     H58695   2.687   3.421  -0.063 -0.7644 -1.0917 -2.5005
  435MOL0     H58696   2.580   3.507  -0.164  0.5913  3.1887 -0.6774
  435MOL0     H58697   2.449   3.438   0.009  0.8817 -1.0612  0.1498
  435MOL0     H58698   2.463   3.606   0.048 -1.4955 -0.9303  0.2421
  435MOL0     H58699   2.604   3.363   0.177 -2.5826 -1.0178 -2.4501
  435MOL0     H58700   2.651   3.529   0.228 -1.3993  0.0808  2.5388
  435MOL0     H58701   2.377   3.398   0.231  1.0299  0.7481 -3.5792
  435MOL0     H58702   2.427   3.566   0.280 -1.6832  0.0597  1.9171
  435MOL0     H58703   2.473   3.320   0.445 -0.6780  0.5790 -0.1750
  435MOL0     H58704   2.621   3.421   0.410  0.8371 -0.8583 -0.8526
  435MOL0     H58705   3.201   3.732  -0.242  0.3089 -2.9894 -2.0002
  435MOL0     H58706   3.421   3.609  -0.176  0.5096 -1.0428 -0.3304
  435MOL0     H58707   3.717   3.501   0.126  0.9791  0.2838 -0.0198
  435MOL0     H58708   3.961   3.399   0.125  0.9625 -1.4165 -0.8360
  435MOL0     H58709   4.263   1.519   0.429  1.5350 -1.0182 -0.2739
  435MOL0     H58710   4.314   1.295   0.503 -0.5634  0.0349  0.7702
  435MOL0     H58711   4.255   0.775   0.214 -1.5206  2.9907  0.9732
  435MOL0     H58712   4.407   0.582   0.239 -0.0007 -0.2686  0.4050
  435MOL0     H58713   4.615   0.493   0.282 -1.5504  0.5178 -0.5038
  435MOL0     H58714   4.516   0.355   0.342  1.4278 -0.4220 -0.8925
  435MOL0     H58715   4.652   0.291   0.512  1.3480 -0.5701  0.5486
  435MOL0     H58716   4.753   0.419   0.509  1.7759 -1.3460 -0.2270
  435MOL0     H58717   4.872   0.370   0.312  1.3998 -0.4281  0.9954
  435MOL0     H58718   4.737   0.270   0.259  1.6747 -0.3862 -0.9856
  435MOL0     H58719   4.802   0.122   0.475  1.6198  1.7870  1.6920
  435MOL0     H58720   4.874   0.095   0.317 -2.2733 -1.8193  1.3815
  435MOL0     H58721   5.215   0.218   0.518  1.3252 -1.8267 -0.7209
  435MOL0     H58722   4.519   0.737   0.620  1.0954 -0.8483 -0.3367
  435MOL0     H58723   4.469   0.952   0.692  0.8559  4.6641  1.4080
  435MOL0     H58724   4.424   1.053   0.567 -2.1386 -0.1939 -1.4590
  435MOL0     H58725   4.298   0.972   0.669 -0.6208 -1.4149  0.7450
  436MOL0     O58726   3.747   7.087  10.249  0.4232  1.3210 -0.0218
  436MOL0     C58727   3.817   7.118  10.149 -0.7427  0.2456 -0.2412
  436MOL0     O58728   3.815   7.056  10.032  0.7667 -0.0491  0.5431
  436MOL0     C58729   3.772   6.924  10.031 -0.6140 -0.6015  0.1800
  436MOL0     C58730   3.863   6.812  10.034  0.4139 -0.0951 -0.0524
  436MOL0     C58731   3.810   6.680  10.015 -0.2486 -0.5826  0.2288
  436MOL0     C58732   3.677   6.667   9.997 -0.2598  0.1119 -0.2338
  436MOL0     O58733   3.620   6.536   9.995 -0.7187 -0.8205 -0.2366
  436MOL0     C58734   3.547   6.508   9.874  0.8326  0.4356 -0.1262
  436MOL0     C58735   3.551   6.368   9.838 -0.2302 -0.5070 -0.2167
  436MOL0     C58736   3.513   6.345   9.692  1.0722  0.4514 -0.1838
  436MOL0     C58737   3.484   6.197   9.668  0.4499  0.5911 -0.2918
  436MOL0     C58738   3.437   6.152   9.528 -0.4782 -1.0041  0.3301
  436MOL0     C58739   3.539   6.190   9.410  0.5537  0.3408 -0.7500
  436MOL0     C58740   3.485   6.128   9.278 -0.0768  0.0583  0.3661
  436MOL0     C58741   3.584   6.153   9.164 -0.4702  0.4855  0.1930
  436MOL0     N58742   3.609   6.291   9.130 -0.0628 -0.2155 -0.8953
  436MOL0     C58743   3.521   6.390   9.101  0.0497 -1.3483  0.2969
  436MOL0     C58744   3.594   6.502   9.077  0.4963 -0.4532  0.3892
  436MOL0     C58745   3.535   6.632   9.026  0.0567  0.4637  0.6101
  436MOL0     C58746   3.553   6.730   9.141  0.1802 -0.2477 -0.0431
  436MOL0     C58747   3.463   6.690   9.269  0.5702 -0.1173 -0.4163
  436MOL0     C58748   3.491   6.780   9.394 -1.1207 -0.4425 -0.0274
  436MOL0     O58749   3.454   6.728   9.520  0.8836  0.2379 -0.2356
  436MOL0     C58750   3.399   6.810   9.613  0.7669  0.8498  0.0986
  436MOL0     C58751   3.462   6.929   9.637 -0.6133 -0.5711  0.1152
  436MOL0     C58752   3.416   7.019   9.739 -0.9345 -1.4245  0.0054
  436MOL0     C58753   3.309   6.979   9.815  0.0516  0.4921  0.4098
  436MOL0     C58754   3.263   7.071   9.927 -0.6436 -0.0208 -0.2835
  436MOL0     O58755   3.136   7.039   9.983 -0.6817  0.2501  0.3136
  436MOL0     C58756   3.080   7.099  10.092 -0.3850  0.5998  0.5534
  436MOL0     C58757   3.151   7.150  10.210 -0.3329  0.2560  0.7119
  436MOL0     C58758   3.094   7.216  10.313 -1.0475 -0.2298  0.0114
  436MOL0     C58759   2.962   7.216  10.318 -0.1442  0.9095  0.3892
  436MOL0     O58760   2.900   7.278  10.424 -0.3736 -0.4968 -0.1002
  436MOL0     C58761   2.760   7.280  10.448 -0.4539 -0.2240  0.3413
  436MOL0     C58762   2.713   7.428  10.452  0.1621  0.1263  0.5248
  436MOL0     C58763   2.575   7.451  10.418 -0.5992  0.6514  0.3788
  436MOL0     C58764   2.476   7.361  10.497  0.0067 -0.1612 -0.1473
  436MOL0     C58765   2.347   7.354  10.418  0.2213 -0.4583 -0.0622
  436MOL0     C58766   2.255   7.255  10.500 -0.3986 -0.3161  0.3618
  436MOL0     C58767   2.111   7.263  10.437 -0.5129 -0.0785 -0.5142
  436MOL0     C58768   2.016   7.160  10.478 -0.1294  0.3529 -0.2486
  436MOL0    Cl58769   1.872   7.151  10.387  0.1163 -0.7545  0.0759
  436MOL0     C58770   2.886   7.162  10.210 -0.5245  0.9501  0.3583
  436MOL0     C58771   2.940   7.098  10.099  0.1867  0.3445 -0.0637
  436MOL0     O58772   3.338   7.153   9.969 -0.8538 -0.1186  0.3511
  436MOL0     C58773   3.239   6.857   9.794 -0.6718  0.4442 -0.7535
  436MOL0     C58774   3.292   6.769   9.696 -0.1641 -0.1809 -0.4561
  436MOL0     N58775   3.729   6.477   9.100  0.5294  0.0328  0.1401
  436MOL0     N58776   3.728   6.348   9.128 -0.8484 -0.3306 -0.0072
  436MOL0     C58777   3.588   6.779   9.982  0.1976 -0.9166  0.7717
  436MOL0     C58778   3.641   6.912   9.993  0.3376  0.5195 -0.6258
  436MOL0     C58779   3.910   7.239  10.156  0.0101 -1.5348  0.0340
  436MOL0     C58780   3.924   7.317  10.045 -0.0814  0.1256 -0.7660
  436MOL0     C58781   4.017   7.416  10.027  0.1100 -0.2579  0.0996
  436MOL0     C58782   4.106   7.453  10.129 -0.1319 -0.0834  0.5422
  436MOL0     O58783   4.191   7.564  10.121  0.0912 -0.3635 -0.0362
  436MOL0     C58784   4.236   7.592   9.982  0.2113 -0.0831 -0.1688
  436MOL0     C58785   4.331   7.709   9.988  1.4560  1.0249 -0.1062
  436MOL0     C58786   4.252   7.839   9.999  0.2405 -0.2575 -0.1446
  436MOL0     C58787   4.339   7.962   9.964  0.2213  0.1757  0.0937
  436MOL0     C58788   4.354   7.978   9.818 -0.4438  0.4387  0.3513
  436MOL0     C58789   4.379   8.004   9.703 -0.7902  0.5983  0.2421
  436MOL0     C58790   4.095   7.379  10.242 -0.2241  0.5474  0.7522
  436MOL0     C58791   3.998   7.271  10.260 -0.2161 -0.2805 -0.9210
  436MOL0     C58792   3.993   7.191  10.387  0.3723 -0.0139 -0.1272
  436MOL0     H58793   3.966   6.845  10.024  0.1099  0.6014 -1.2018
  436MOL0     H58794   3.856   6.582  10.027 -1.3877 -1.6914 -3.3532
  436MOL0     H58795   3.445   6.538   9.898  1.4251  0.3989  2.8363
  436MOL0     H58796   3.570   6.573   9.789 -1.1730 -0.6166 -1.5450
  436MOL0     H58797   3.487   6.334   9.920 -0.6034 -1.1793 -0.7692
  436MOL0     H58798   3.649   6.320   9.845 -0.2086 -0.5278 -0.6302
  436MOL0     H58799   3.593   6.393   9.636  2.0815 -1.9764 -0.9704
  436MOL0     H58800   3.415   6.388   9.668  0.3225 -0.8614  0.4055
  436MOL0     H58801   3.570   6.138   9.701 -0.3616 -1.3000 -1.3530
  436MOL0     H58802   3.404   6.166   9.737  2.5218 -4.2835  0.3278
  436MOL0     H58803   3.415   6.044   9.533 -4.2416 -0.3385  2.0813
  436MOL0     H58804   3.338   6.195   9.511 -0.8400 -0.3382  3.5265
  436MOL0     H58805   3.542   6.299   9.409  1.9155  0.3195 -1.5423
  436MOL0     H58806   3.641   6.152   9.420  0.0496 -1.3377 -1.6288
  436MOL0     H58807   3.387   6.173   9.259  0.7808  1.1678 -1.6788
  436MOL0     H58808   3.468   6.020   9.283 -0.8345  0.1016 -0.8625
  436MOL0     H58809   3.683   6.113   9.186  0.8145  1.0936 -3.7030
  436MOL0     H58810   3.538   6.112   9.073 -1.9039  4.1494 -0.8934
  436MOL0     H58811   3.412   6.384   9.101 -0.0987  0.7873  0.5579
  436MOL0     H58812   3.577   6.661   8.929  0.7355 -4.1165 -0.7282
  436MOL0     H58813   3.430   6.611   9.004  1.0697 -3.4539 -1.3034
  436MOL0     H58814   3.662   6.733   9.153  0.1174  0.0081  0.5002
  436MOL0     H58815   3.519   6.830   9.111 -0.6914 -1.2325 -2.5500
  436MOL0     H58816   3.495   6.589   9.298 -1.1150 -0.6015 -0.1374
  436MOL0     H58817   3.357   6.686   9.243  0.4584 -3.4425  0.1271
  436MOL0     H58818   3.442   6.877   9.376 -1.2302 -0.5576 -0.3707
  436MOL0     H58819   3.597   6.806   9.393 -0.7547 -1.8505 -0.2825
  436MOL0     H58820   3.544   6.959   9.572 -0.0627  0.8924  1.4270
  436MOL0     H58821   3.471   7.109   9.763 -3.1450  0.0665 -0.2054
  436MOL0     H58822   3.258   7.134  10.207 -0.4333 -0.2928 -0.3565
  436MOL0     H58823   3.148   7.266  10.393 -3.9541  1.4613  1.0763
  436MOL0     H58824   2.695   7.233  10.374 -1.2646  2.4993 -0.7578
  436MOL0     H58825   2.742   7.228  10.543 -1.1305 -4.5612 -1.9056
  436MOL0     H58826   2.728   7.456  10.557  2.2018 -3.0022  1.1992
  436MOL0     H58827   2.781   7.489  10.392  0.4465  3.0350  3.4822
  436MOL0     H58828   2.539   7.550  10.448 -3.0771  0.0149 -0.3122
  436MOL0     H58829   2.559   7.439  10.310  2.3629 -1.0336  0.0036
  436MOL0     H58830   2.469   7.378  10.604 -2.4228 -0.5080 -0.1988
  436MOL0     H58831   2.514   7.260  10.478 -2.9023 -0.9621 -2.5593
  436MOL0     H58832   2.363   7.324  10.314 -1.1973 -1.2335 -0.0806
  436MOL0     H58833   2.290   7.447  10.423 -0.7648 -1.0755  0.5803
  436MOL0     H58834   2.280   7.149  10.487 -0.3553 -0.0609 -2.0946
  436MOL0     H58835   2.251   7.272  10.608 -3.3670 -2.0890  0.6288
  436MOL0     H58836   2.120   7.263  10.328 -0.9272  2.0671 -0.5867
  436MOL0     H58837   2.066   7.359  10.463 -0.8922 -0.4933  0.3762
  436MOL0     H58838   2.066   7.063  10.469 -0.7614  0.0388 -0.4249
  436MOL0     H58839   1.986   7.172  10.582 -0.7073  3.0124 -0.6491
  436MOL0     H58840   2.778   7.166  10.219 -0.5358 -0.5998  1.2194
  436MOL0     H58841   2.885   7.051  10.018 -0.6286  0.2173  0.5532
  436MOL0     H58842   3.155   6.820   9.852  0.0875  0.1194  0.1579
  436MOL0     H58843   3.242   6.674   9.684 -0.8573  0.3774 -2.3660
  436MOL0     H58844   3.482   6.764   9.961  0.3755 -2.0764  0.6254
  436MOL0     H58845   3.574   6.996   9.980  0.1594  0.2709 -1.3726
  436MOL0     H58846   3.855   7.302   9.963 -0.2521 -1.1482 -0.4096
  436MOL0     H58847   4.026   7.470   9.934  1.5466  0.0622  0.3960
  436MOL0     H58848   4.152   7.620   9.917 -2.0528 -2.4165  1.5121
  436MOL0     H58849   4.276   7.501   9.936 -0.0177 -0.5476  0.5299
  436MOL0     H58850   4.382   7.712   9.891  1.7318  0.8463  0.0347
  436MOL0     H58851   4.404   7.692  10.068 -1.3346 -0.2946  2.3532
  436MOL0     H58852   4.232   7.847  10.106  1.0997 -0.2777  0.0257
  436MOL0     H58853   4.159   7.842   9.941  1.3344 -0.0574 -1.9825
  436MOL0     H58854   4.281   8.043  10.010  2.1540  1.1318  0.9710
  436MOL0     H58855   4.434   7.949  10.017 -1.2474 -1.5312  2.5100
  436MOL0     H58856   4.411   8.004   9.601 -0.5011  0.1600  0.3254
  436MOL0     H58857   4.165   7.407  10.320 -1.5428  0.7475  1.9098
  436MOL0     H58858   4.031   7.091  10.361  1.8198  0.2110  0.9993
  436MOL0     H58859   4.052   7.226  10.472  0.1258  0.3681 -0.1129
  436MOL0     H58860   3.888   7.193  10.419  0.5208  2.9975  0.4289
  437MOL0     O58861   7.062   7.244   9.056  0.1129  0.1285  0.3430
  437MOL0     C58862   7.112   7.150   8.991  0.3385  0.6510  0.7326
  437MOL0     O58863   7.049   7.029   8.958  0.5784 -0.1067  0.1169
  437MOL0     C58864   6.932   7.001   9.013  0.3944 -0.0250  0.0282
  437MOL0     C58865   6.818   7.032   8.937  0.6581  0.3849 -0.0503
  437MOL0     C58866   6.685   6.987   8.983  0.5293  0.3511  0.4452
  437MOL0     C58867   6.670   6.915   9.102  0.3279  0.1667 -0.2471
  437MOL0     O58868   6.537   6.878   9.132  0.1964  0.2283  0.1357
  437MOL0     C58869   6.514   6.802   9.245 -1.1497  0.1067  0.0552
  437MOL0     C58870   6.502   6.880   9.372 -0.2214 -0.8238 -0.0088
  437MOL0     C58871   6.422   6.825   9.484  0.1502  0.0087  0.9950
  437MOL0     C58872   6.459   6.676   9.502 -0.0869 -0.0474 -0.3103
  437MOL0     C58873   6.482   6.643   9.648 -0.6152 -0.2897 -0.3293
  437MOL0     C58874   6.617   6.697   9.693 -0.1381 -0.4414 -0.0478
  437MOL0     C58875   6.654   6.672   9.844  0.1142 -0.5863  1.1228
  437MOL0     C58876   6.651   6.526   9.891 -0.1681  1.1319 -0.4409
  437MOL0     N58877   6.760   6.453   9.827 -0.9223 -0.0133  0.6503
  437MOL0     C58878   6.894   6.458   9.847 -0.9974  0.0508 -0.6422
  437MOL0     C58879   6.957   6.360   9.786  0.1463 -0.3945  0.2777
  437MOL0     C58880   7.101   6.364   9.764  0.1815  0.3990  0.3154
  437MOL0     C58881   7.139   6.430   9.624 -0.2003  0.0211 -0.0795
  437MOL0     C58882   7.273   6.505   9.625  0.3173  0.0129  0.1910
  437MOL0     C58883   7.404   6.440   9.591 -0.1249 -0.3285  0.3660
  437MOL0     O58884   7.517   6.534   9.617  0.6003 -0.5708 -1.1648
  437MOL0     C58885   7.561   6.616   9.515 -0.5326 -0.2642  0.4226
  437MOL0     C58886   7.683   6.681   9.521  0.5518  0.4228 -0.1713
  437MOL0     C58887   7.730   6.754   9.417  0.9587  0.2805 -0.0297
  437MOL0     C58888   7.652   6.780   9.313  0.2377  0.4081  0.4020
  437MOL0     C58889   7.701   6.859   9.201 -0.7073  0.0293 -0.6021
  437MOL0     O58890   7.839   6.884   9.194  0.4037 -0.4656  0.1098
  437MOL0     C58891   7.884   6.912   9.064  0.1868 -0.2628  0.5029
  437MOL0     C58892   7.993   6.840   9.016 -0.1562  0.9066  0.1316
  437MOL0     C58893   8.058   6.887   8.900  0.2558  0.6949  1.3612
  437MOL0     C58894   8.026   7.002   8.841 -0.6320 -0.4496 -1.1606
  437MOL0     O58895   8.096   7.062   8.732  0.2731  0.6533 -0.2925
  437MOL0     C58896   8.216   7.002   8.677  0.1382 -0.1806  0.3035
  437MOL0     C58897   8.265   7.103   8.563  0.4535 -0.0828 -0.9055
  437MOL0     C58898   8.268   7.249   8.607 -0.1405  0.1632  0.4189
  437MOL0     C58899   8.361   7.271   8.723 -0.0203  0.4127 -0.5180
  437MOL0     C58900   8.387   7.426   8.719  0.0226  1.1204 -0.8782
  437MOL0     C58901   8.500   7.448   8.620  0.4728 -0.9293  0.3359
  437MOL0     C58902   8.551   7.593   8.638 -0.8905  0.4407  0.3248
  437MOL0     C58903   8.689   7.597   8.703  0.3049 -1.3336 -0.2246
  437MOL0    Cl58904   8.777   7.751   8.672 -0.5195  0.4554  0.0498
  437MOL0     C58905   7.924   7.073   8.898 -0.2059 -0.3888  0.0153
  437MOL0     C58906   7.850   7.031   9.004  0.1464 -0.1106  0.0683
  437MOL0     O58907   7.617   6.899   9.117  0.5242  0.2027 -0.0707
  437MOL0     C58908   7.517   6.734   9.303  0.9535  0.7119 -0.8976
  437MOL0     C58909   7.483   6.649   9.400  0.5258 -0.2437 -0.0774
  437MOL0     N58910   6.865   6.289   9.727 -0.0160 -0.0535  0.5098
  437MOL0     N58911   6.748   6.346   9.737 -0.2568  0.7551  0.3859
  437MOL0     C58912   6.787   6.878   9.167  0.3811 -0.1145 -1.1015
  437MOL0     C58913   6.909   6.932   9.138 -0.3403  0.0721 -0.1318
  437MOL0     C58914   7.243   7.169   8.927  0.0447  0.6125 -0.5403
  437MOL0     C58915   7.270   7.298   8.897 -0.2662  0.0701  0.4154
  437MOL0     C58916   7.389   7.327   8.826 -0.0364 -0.3273  0.7081
  437MOL0     C58917   7.475   7.229   8.782  0.4521 -0.2823  0.8491
  437MOL0     O58918   7.585   7.262   8.708  0.3046  1.4368  0.6741
  437MOL0     C58919   7.676   7.358   8.757  0.3837  0.5853  2.0648
  437MOL0     C58920   7.756   7.405   8.636 -0.1757 -0.2979 -0.2195
  437MOL0     C58921   7.856   7.307   8.585  0.4373  0.4618 -0.3139
  437MOL0     C58922   7.926   7.354   8.451 -0.0993 -0.6693  0.5370
  437MOL0     C58923   8.026   7.463   8.466 -0.4718  0.4281 -1.0845
  437MOL0     C58924   8.110   7.544   8.505 -0.3235  0.1716  0.4827
  437MOL0     C58925   7.450   7.100   8.824  0.3068 -1.1184  0.9133
  437MOL0     C58926   7.336   7.066   8.890  0.3111 -0.3519 -0.0916
  437MOL0     C58927   7.324   6.924   8.937 -0.3300  0.0786  0.6411
  437MOL0     H58928   6.826   7.086   8.843  0.6193  0.6241  0.0835
  437MOL0     H58929   6.601   7.028   8.929 -0.7218 -1.5216  0.8601
  437MOL0     H58930   6.417   6.757   9.225 -0.6997 -0.2763 -1.3784
  437MOL0     H58931   6.588   6.725   9.266  0.5072  1.8912  1.1008
  437MOL0     H58932   6.460   6.974   9.338  1.3615 -0.1792 -0.2962
  437MOL0     H58933   6.603   6.904   9.408 -0.8584 -0.1164  1.3733
  437MOL0     H58934   6.314   6.841   9.470  0.3458  1.0155  0.5234
  437MOL0     H58935   6.451   6.885   9.571  2.8623 -1.4173  1.1608
  437MOL0     H58936   6.375   6.621   9.460 -0.6274  0.6908 -0.2081
  437MOL0     H58937   6.547   6.644   9.445 -0.7575  1.1881 -2.1445
  437MOL0     H58938   6.398   6.684   9.704 -1.3009 -1.2548 -0.6305
  437MOL0     H58939   6.482   6.535   9.665 -1.6755 -0.0679  1.3403
  437MOL0     H58940   6.700   6.673   9.627  0.8869 -2.5849  1.8785
  437MOL0     H58941   6.609   6.805   9.682  0.5625 -0.1523  1.8796
  437MOL0     H58942   6.582   6.722   9.910  0.3848  0.6272  0.5212
  437MOL0     H58943   6.752   6.715   9.867  1.3126 -1.9740 -1.0422
  437MOL0     H58944   6.659   6.527  10.000 -0.5873 -1.5146 -0.3261
  437MOL0     H58945   6.553   6.478   9.881  1.1060 -1.4182 -1.2574
  437MOL0     H58946   6.952   6.528   9.906 -2.3858 -0.2220  1.1325
  437MOL0     H58947   7.145   6.428   9.841 -0.3943 -0.5606  1.4905
  437MOL0     H58948   7.142   6.262   9.761  3.5735  1.6516 -3.0156
  437MOL0     H58949   7.149   6.356   9.543 -1.2193 -1.4451  1.0857
  437MOL0     H58950   7.062   6.505   9.603 -2.3839 -1.7695  1.0241
  437MOL0     H58951   7.286   6.556   9.721 -0.5184  2.1947 -0.8002
  437MOL0     H58952   7.265   6.584   9.550 -1.4704 -0.2736  0.0399
  437MOL0     H58953   7.404   6.402   9.489 -0.3028 -2.6815  1.1829
  437MOL0     H58954   7.421   6.357   9.660  2.6900  1.3555  1.8854
  437MOL0     H58955   7.741   6.688   9.612 -1.5748  4.9310  1.1532
  437MOL0     H58956   7.831   6.791   9.427 -0.0021  2.6171  1.9665
  437MOL0     H58957   8.027   6.752   9.069 -1.4116  0.4064  0.1600
  437MOL0     H58958   8.146   6.838   8.860  0.4366  3.2697 -1.8698
  437MOL0     H58959   8.293   6.985   8.753 -1.3599 -2.1767  1.4667
  437MOL0     H58960   8.188   6.912   8.622 -1.6291  0.3188  0.3298
  437MOL0     H58961   8.364   7.093   8.518  0.6664  0.3033 -0.5244
  437MOL0     H58962   8.191   7.094   8.482  1.7678  1.0997 -2.2849
  437MOL0     H58963   8.303   7.304   8.519  1.0913  0.9744  1.3763
  437MOL0     H58964   8.170   7.297   8.620 -0.7747 -1.1092  0.4326
  437MOL0     H58965   8.449   7.206   8.731 -0.9442 -0.7010  3.9978
  437MOL0     H58966   8.321   7.236   8.819  1.0094 -1.2691 -0.6449
  437MOL0     H58967   8.429   7.445   8.818  0.7692  2.5757 -1.4458
  437MOL0     H58968   8.299   7.489   8.707 -1.2837 -0.5338 -0.3383
  437MOL0     H58969   8.583   7.377   8.632  1.2941 -0.2928 -1.2133
  437MOL0     H58970   8.476   7.430   8.514  1.9495 -0.7190 -0.0667
  437MOL0     H58971   8.475   7.652   8.691 -3.6851 -2.9289  0.4779
  437MOL0     H58972   8.554   7.628   8.534 -2.6273 -0.6685 -0.1473
  437MOL0     H58973   8.675   7.584   8.810  1.3658 -0.0060  0.0914
  437MOL0     H58974   8.757   7.521   8.663  0.4153 -0.2578 -2.2753
  437MOL0     H58975   7.894   7.169   8.856  0.5088 -0.8017 -1.5124
  437MOL0     H58976   7.769   7.087   9.048 -1.2524 -3.2387  1.7983
  437MOL0     H58977   7.444   6.738   9.223 -3.3267 -1.6239  2.4407
  437MOL0     H58978   7.387   6.598   9.387  0.3574  0.2137 -0.6927
  437MOL0     H58979   6.790   6.821   9.259  2.0234  3.5426  1.2858
  437MOL0     H58980   6.995   6.901   9.195 -0.1985  1.3754  0.4108
  437MOL0     H58981   7.208   7.376   8.941  2.1860  3.7041 -2.0184
  437MOL0     H58982   7.419   7.428   8.800 -2.2045 -0.0606 -1.0552
  437MOL0     H58983   7.739   7.313   8.834  2.4403  0.6956  0.5152
  437MOL0     H58984   7.621   7.443   8.799 -2.3445 -1.3277  2.6330
  437MOL0     H58985   7.805   7.496   8.673  0.8059  0.0431 -2.2311
  437MOL0     H58986   7.691   7.438   8.555 -0.7240 -0.4684  0.1503
  437MOL0     H58987   7.814   7.209   8.559 -1.0522  0.7619  0.8170
  437MOL0     H58988   7.927   7.291   8.667  0.4849  1.4823 -0.1512
  437MOL0     H58989   7.981   7.266   8.416  0.3070 -1.1271  2.2469
  437MOL0     H58990   7.846   7.368   8.378  1.0804 -0.6614 -0.8037
  437MOL0     H58991   8.182   7.610   8.549 -0.3401 -0.6006  1.7160
  437MOL0     H58992   7.512   7.016   8.796 -0.9095 -1.0900 -2.2600
  437MOL0     H58993   7.414   6.869   8.905 -1.2061 -0.0234 -1.8769
  437MOL0     H58994   7.321   6.915   9.046 -1.1110 -0.9454  0.5479
  437MOL0     H58995   7.241   6.866   8.897 -1.0732  0.2828  1.8556
  438MOL0     O58996   9.378   2.453   5.434  0.0668 -0.4587 -0.3461
  438MOL0     C58997   9.438   2.552   5.445 -1.1662 -0.5617  0.1276
  438MOL0     O58998   9.481   2.606   5.565 -0.1948 -0.3189 -0.5995
  438MOL0     C58999   9.442   2.551   5.678 -0.8058  0.3640  0.2700
  438MOL0     C59000   9.309   2.533   5.707  0.0946  0.0188  0.1792
  438MOL0     C59001   9.273   2.472   5.823  0.5343  1.1340 -0.3593
  438MOL0     C59002   9.369   2.424   5.918 -0.8729 -0.2490  0.5893
  438MOL0     O59003   9.324   2.366   6.030 -0.8371  0.5087 -0.0333
  438MOL0     C59004   9.375   2.231   6.049  0.0742  0.0130 -0.1137
  438MOL0     C59005   9.348   2.133   5.941 -0.1380 -0.0738  0.2921
  438MOL0     C59006   9.201   2.114   5.922  1.0032  0.4058  0.3822
  438MOL0     C59007   9.181   1.975   5.845 -0.3993  0.7935 -0.9514
  438MOL0     C59008   9.200   1.843   5.938 -0.2112  0.2597 -0.2284
  438MOL0     C59009   9.168   1.717   5.853  0.0222 -0.1399 -0.6317
  438MOL0     C59010   9.166   1.587   5.934  0.0098 -0.0310 -0.0961
  438MOL0     C59011   9.102   1.479   5.850  0.9359  0.2929 -0.2498
  438MOL0     N59012   9.093   1.347   5.920  0.1188  0.0773  0.3885
  438MOL0     C59013   9.192   1.264   5.939 -0.1084  0.0653  0.6464
  438MOL0     C59014   9.145   1.170   6.026 -1.0986  0.2597  0.2987
  438MOL0     C59015   9.225   1.061   6.084  0.1222 -0.5113  0.4995
  438MOL0     C59016   9.282   0.962   5.977  0.9022 -0.9258 -0.4893
  438MOL0     C59017   9.392   0.874   6.033  0.5555  0.2584  0.2793
  438MOL0     C59018   9.422   0.764   5.942 -0.2749 -0.2545 -0.1289
  438MOL0     O59019   9.331   0.657   5.966  0.3184  0.2818  0.3982
  438MOL0     C59020   9.349   0.561   6.065  0.2971  0.2131 -0.0825
  438MOL0     C59021   9.441   0.565   6.176  0.6834 -0.1770  0.5024
  438MOL0     C59022   9.456   0.451   6.257  0.3144 -0.3781  0.1290
  438MOL0     C59023   9.378   0.332   6.243  0.0573  0.3900 -0.1456
  438MOL0     C59024   9.379   0.228   6.348 -0.1524 -0.5390 -0.0401
  438MOL0     O59025   9.327   0.109   6.313 -0.0766  0.3948  0.0167
  438MOL0     C59026   9.299   0.021   6.411  0.5643 -0.2441 -0.4101
  438MOL0     C59027   9.317  -0.120   6.389  0.2142 -1.0966  1.1271
  438MOL0     C59028   9.256  -0.215   6.469 -0.2795  1.1930  0.2330
  438MOL0     C59029   9.194  -0.181   6.591 -0.4576 -0.5773 -0.1741
  438MOL0     O59030   9.132  -0.269   6.678  0.6430  0.2847  0.2622
  438MOL0     C59031   9.134  -0.404   6.646 -0.0966  0.7904 -0.4160
  438MOL0     C59032   9.105  -0.483   6.775  0.2481 -0.1695 -0.0005
  438MOL0     C59033   8.953  -0.483   6.801  0.3139  0.1770 -0.1881
  438MOL0     C59034   8.914  -0.505   6.947 -0.5647 -0.5100  0.2301
  438MOL0     C59035   8.777  -0.564   6.968  0.0693  0.3689  0.3895
  438MOL0     C59036   8.752  -0.597   7.119 -0.7295 -0.2258 -0.9095
  438MOL0     C59037   8.612  -0.644   7.164 -0.5606  0.7139  0.9318
  438MOL0     C59038   8.583  -0.669   7.307 -0.8984 -1.2659 -0.4051
  438MOL0    Cl59039   8.543  -0.505   7.377  0.3583 -0.1622 -0.3106
  438MOL0     C59040   9.174  -0.038   6.614  0.4516 -1.0347  0.3150
  438MOL0     C59041   9.218   0.058   6.521  0.1668  0.2214  0.0920
  438MOL0     O59042   9.443   0.246   6.456 -0.2158 -0.2503  0.3362
  438MOL0     C59043   9.287   0.334   6.131  0.1213  0.1009  0.0218
  438MOL0     C59044   9.285   0.444   6.037  1.2498 -0.5398  0.1194
  438MOL0     N59045   9.014   1.188   6.053  0.7875  0.2335  0.1423
  438MOL0     N59046   8.985   1.293   5.989 -0.7733 -0.7080 -0.4470
  438MOL0     C59047   9.500   2.456   5.892 -0.6526  0.5103  0.0129
  438MOL0     C59048   9.539   2.519   5.779 -0.0140  0.7984 -0.1800
  438MOL0     C59049   9.485   2.627   5.317 -0.0426 -0.1630 -0.1806
  438MOL0     C59050   9.566   2.743   5.340  0.2545  0.0023 -0.0040
  438MOL0     C59051   9.633   2.803   5.232  0.9071  0.1216 -0.2938
  438MOL0     C59052   9.607   2.767   5.100 -0.6967 -0.5883  0.2477
  438MOL0     O59053   9.681   2.818   5.000  0.0588 -0.2017 -0.0452
  438MOL0     C59054   9.620   2.829   4.873  1.2685 -0.1660  0.1390
  438MOL0     C59055   9.695   2.941   4.783  0.6686  0.5861  0.7934
  438MOL0     C59056   9.616   2.997   4.662 -0.4764 -0.3949  0.0282
  438MOL0     C59057   9.654   3.140   4.651  0.0332 -1.4827 -0.4615
  438MOL0     C59058   9.555   3.203   4.559 -0.9619  0.0147  0.4071
  438MOL0     C59059   9.469   3.259   4.507  0.7059 -0.0799 -0.2678
  438MOL0     C59060   9.510   2.661   5.076  0.7485  0.6550 -0.8248
  438MOL0     C59061   9.454   2.582   5.184  0.5724  0.9685 -0.4359
  438MOL0     C59062   9.359   2.475   5.147 -0.7960 -1.4278 -0.0515
  438MOL0     H59063   9.227   2.554   5.640  1.6747  1.7386 -1.3211
  438MOL0     H59064   9.178   2.427   5.848  2.6781 -2.7966  1.6092
  438MOL0     H59065   9.482   2.237   6.070 -0.4606  3.1400  2.5522
  438MOL0     H59066   9.325   2.182   6.132  3.0248 -0.2402  1.6592
  438MOL0     H59067   9.391   2.041   5.981 -1.1094 -0.9428 -0.6342
  438MOL0     H59068   9.399   2.156   5.847 -0.6761 -1.0264 -0.2488
  438MOL0     H59069   9.158   2.190   5.857  2.9446 -0.5221 -2.1211
  438MOL0     H59070   9.143   2.131   6.014 -1.9600  1.1041 -1.4996
  438MOL0     H59071   9.084   1.960   5.797 -0.5128 -2.2318 -0.0229
  438MOL0     H59072   9.268   1.963   5.780  1.5928  3.2918  1.0334
  438MOL0     H59073   9.302   1.820   5.970 -1.0272 -5.6371 -0.7060
  438MOL0     H59074   9.140   1.832   6.029  0.9221  1.2758  0.6778
  438MOL0     H59075   9.066   1.738   5.820  0.5390  0.9157 -1.6267
  438MOL0     H59076   9.236   1.713   5.768  2.2453  1.7567  0.9239
  438MOL0     H59077   9.119   1.596   6.032  1.7207  0.7301  0.6951
  438MOL0     H59078   9.271   1.570   5.961  0.8077  3.8442 -0.1638
  438MOL0     H59079   9.002   1.517   5.828  1.0428  1.1900  0.7040
  438MOL0     H59080   9.153   1.461   5.755 -3.5590  1.2410 -3.1033
  438MOL0     H59081   9.288   1.254   5.888 -1.7164 -3.9172 -2.0287
  438MOL0     H59082   9.305   1.110   6.140  0.0188  0.2481  0.0008
  438MOL0     H59083   9.160   1.009   6.154  0.3533  1.5101  2.3415
  438MOL0     H59084   9.202   0.904   5.930  0.8750  0.3835 -2.1614
  438MOL0     H59085   9.336   1.030   5.910  2.5126 -0.1457  1.4784
  438MOL0     H59086   9.361   0.835   6.130 -2.0884  1.8111  0.1625
  438MOL0     H59087   9.479   0.940   6.046  0.6211  0.4083 -0.8339
  438MOL0     H59088   9.521   0.724   5.960 -1.7614 -4.4224 -0.2172
  438MOL0     H59089   9.411   0.802   5.840  4.0365 -0.4243 -0.8105
  438MOL0     H59090   9.497   0.658   6.184  0.4347  0.1733 -1.2984
  438MOL0     H59091   9.529   0.460   6.336  2.4521 -2.0046 -1.5340
  438MOL0     H59092   9.375  -0.156   6.304  0.2121  0.3260  0.4952
  438MOL0     H59093   9.251  -0.319   6.437 -0.4517  1.1846  0.2871
  438MOL0     H59094   9.055  -0.416   6.572  0.5642 -0.1198 -0.9990
  438MOL0     H59095   9.222  -0.437   6.590  1.4502  1.0025  1.7427
  438MOL0     H59096   9.152  -0.579   6.753  1.6306  0.5279 -0.1977
  438MOL0     H59097   9.154  -0.427   6.855 -0.7693  1.9822 -0.8122
  438MOL0     H59098   8.907  -0.388   6.775  0.5268  0.3812  0.1701
  438MOL0     H59099   8.910  -0.570   6.749  0.5537  1.2162 -2.1784
  438MOL0     H59100   8.916  -0.408   6.996 -2.8758 -0.7760  0.9963
  438MOL0     H59101   8.979  -0.577   6.998 -0.3507  1.2233  2.5023
  438MOL0     H59102   8.771  -0.653   6.905 -0.2945 -0.9549  2.2062
  438MOL0     H59103   8.705  -0.494   6.925  1.1905  2.1246  1.2501
  438MOL0     H59104   8.822  -0.678   7.141 -0.5117  0.5923  1.8261
  438MOL0     H59105   8.791  -0.518   7.183  1.9898 -1.8077 -0.4494
  438MOL0     H59106   8.593  -0.735   7.106  3.2990 -0.5360  1.3328
  438MOL0     H59107   8.541  -0.568   7.129 -1.6554  0.2631  2.0993
  438MOL0     H59108   8.492  -0.730   7.299 -0.8126 -1.7308  1.6688
  438MOL0     H59109   8.663  -0.717   7.364  1.4114  1.1540 -1.4016
  438MOL0     H59110   9.125  -0.012   6.708  2.1596 -1.2295  1.3079
  438MOL0     H59111   9.197   0.164   6.534  2.8230  0.7838  0.3455
  438MOL0     H59112   9.216   0.253   6.122 -1.5250  1.1218  2.6329
  438MOL0     H59113   9.209   0.457   5.961 -2.4827  2.0489  3.8260
  438MOL0     H59114   9.577   2.431   5.964 -0.4998 -0.1526 -0.3775
  438MOL0     H59115   9.639   2.546   5.746 -0.4696  2.3179 -0.3470
  438MOL0     H59116   9.610   2.767   5.435  0.1277  0.8922 -0.1655
  438MOL0     H59117   9.704   2.871   5.277 -0.8145  0.0643  2.7566
  438MOL0     H59118   9.518   2.864   4.883  1.7608  1.1688  0.6167
  438MOL0     H59119   9.611   2.742   4.807 -0.7914 -0.2811  0.5116
  438MOL0     H59120   9.772   2.876   4.742  2.1206  1.7048  1.6679
  438MOL0     H59121   9.734   3.017   4.851 -0.0828  0.4757  1.3622
  438MOL0     H59122   9.510   2.994   4.689 -0.5639  1.9316  0.1287
  438MOL0     H59123   9.644   2.933   4.577  3.0946 -2.4035  2.4498
  438MOL0     H59124   9.633   3.190   4.746 -1.7912 -3.1327  0.0809
  438MOL0     H59125   9.760   3.153   4.625 -0.0591  0.2483 -0.0518
  438MOL0     H59126   9.388   3.313   4.462 -0.3465 -0.9579  0.5020
  438MOL0     H59127   9.478   2.629   4.978 -2.6170  1.4149 -0.0858
  438MOL0     H59128   9.402   2.378   5.175 -0.7985 -1.2641  0.5288
  438MOL0     H59129   9.263   2.491   5.195 -0.4757 -2.9526  1.1881
  438MOL0     H59130   9.352   2.462   5.038  0.8946  0.7126 -0.5065
  439MOL0     O59131   3.073  11.150   8.088  0.2072  0.5784  0.3025
  439MOL0     C59132   2.985  11.082   8.030 -0.0134 -0.5631  1.4083
  439MOL0     O59133   2.972  11.081   7.891 -0.3610  1.0801 -0.5298
  439MOL0     C59134   3.078  11.114   7.809 -0.4709  0.2968  0.5754
  439MOL0     C59135   3.212  11.079   7.837 -0.3958 -0.5717 -0.3538
  439MOL0     C59136   3.317  11.140   7.762  0.0372 -1.1362  1.0988
  439MOL0     C59137   3.283  11.231   7.658 -0.2546 -0.0343  0.3929
  439MOL0     O59138   3.385  11.297   7.591 -0.8639 -0.0540  0.3947
  439MOL0     C59139   3.521  11.261   7.614 -0.2312  0.1572 -0.9200
  439MOL0     C59140   3.598  11.319   7.491 -0.4550 -0.9872  0.2154
  439MOL0     C59141   3.753  11.286   7.499  0.6329 -0.0801  0.9336
  439MOL0     C59142   3.807  11.294   7.366  0.6701 -0.1938  0.4701
  439MOL0     C59143   3.951  11.260   7.358 -0.7811 -1.7323 -1.0587
  439MOL0     C59144   4.006  11.266   7.221  0.3870 -0.5660  0.2557
  439MOL0     C59145   4.148  11.216   7.221  0.8159 -0.1129  0.2652
  439MOL0     C59146   4.248  11.301   7.307  0.4378  0.6687 -0.6856
  439MOL0     N59147   4.318  11.420   7.249  0.5111  0.5726  0.5140
  439MOL0     C59148   4.250  11.534   7.205  0.6958  1.4852  0.0722
  439MOL0     C59149   4.335  11.593   7.125 -0.0767  0.5015 -0.9405
  439MOL0     C59150   4.313  11.717   7.046 -0.1333  0.0073  0.5703
  439MOL0     C59151   4.441  11.794   7.010 -0.2482 -0.2590 -0.0460
  439MOL0     C59152   4.502  11.862   7.137 -0.0269 -0.3691  0.1940
  439MOL0     C59153   4.420  11.975   7.203 -0.4973  0.7375 -0.8223
  439MOL0     O59154   4.397  12.085   7.117 -1.1415 -0.0458  0.0832
  439MOL0     C59155   4.320  12.189   7.174 -0.3921  0.3121  1.5788
  439MOL0     C59156   4.217  12.161   7.257  0.1255  0.1227 -0.7854
  439MOL0     C59157   4.143  12.269   7.325  0.8258 -0.0672  0.1306
  439MOL0     C59158   4.162  12.404   7.286  0.1749  0.1446  0.8320
  439MOL0     C59159   4.096  12.507   7.357  1.2463 -0.1867 -0.8539
  439MOL0     O59160   4.104  12.645   7.306 -0.7012  0.6475  0.0969
  439MOL0     C59161   4.056  12.753   7.373  0.5539 -0.2844 -1.1786
  439MOL0     C59162   3.921  12.790   7.373 -0.1433 -0.4331  0.4227
  439MOL0     C59163   3.867  12.884   7.448 -0.3440 -0.4982  1.0854
  439MOL0     C59164   3.932  12.957   7.540 -0.4498 -0.5262 -0.1910
  439MOL0     O59165   3.893  13.067   7.614  0.3660 -0.3431  0.8495
  439MOL0     C59166   3.767  13.063   7.684 -0.7797 -0.1249  0.3173
  439MOL0     C59167   3.799  13.096   7.833 -0.0817 -0.0783 -0.2307
  439MOL0     C59168   3.690  13.065   7.929  0.3819 -0.0441 -0.2217
  439MOL0     C59169   3.705  13.146   8.059 -0.2186  0.7957  0.8325
  439MOL0     C59170   3.592  13.088   8.150  0.9787  0.3945  0.3253
  439MOL0     C59171   3.556  13.169   8.275  0.0019 -0.8698 -0.3733
  439MOL0     C59172   3.444  13.101   8.354 -0.0246  0.6229 -0.6365
  439MOL0     C59173   3.400  13.185   8.480 -0.7439 -0.1882  0.3687
  439MOL0    Cl59174   3.533  13.186   8.595 -0.1459 -0.3683 -0.0593
  439MOL0     C59175   4.070  12.932   7.544 -0.5321  0.5062 -0.1551
  439MOL0     C59176   4.137  12.840   7.459  0.3647 -0.4190 -0.1653
  439MOL0     O59177   4.038  12.473   7.468 -0.4726  0.1010  0.2657
  439MOL0     C59178   4.263  12.424   7.189  0.1597 -0.1243  0.5189
  439MOL0     C59179   4.343  12.320   7.133  0.0254  0.0140 -0.1436
  439MOL0     N59180   4.456  11.517   7.124 -0.8670 -0.8054 -1.4388
  439MOL0     N59181   4.444  11.419   7.190 -1.0633  0.0981 -0.0579
  439MOL0     C59182   3.148  11.248   7.617 -0.2868 -0.3399  0.5986
  439MOL0     C59183   3.050  11.188   7.691  0.2051  0.6771 -0.3359
  439MOL0     C59184   2.895  11.004   8.108 -0.4105  0.4645 -0.9168
  439MOL0     C59185   2.763  10.997   8.051  0.2066 -0.4288 -0.1787
  439MOL0     C59186   2.663  10.936   8.115 -0.5778  1.2569 -0.6070
  439MOL0     C59187   2.691  10.873   8.244 -0.0503 -0.2319  0.3169
  439MOL0     O59188   2.576  10.829   8.311 -0.0950  0.1469  0.0195
  439MOL0     C59189   2.579  10.798   8.455  0.1685  0.2688  0.5185
  439MOL0     C59190   2.602  10.921   8.548  0.0221  0.4118  0.6724
  439MOL0     C59191   2.487  11.017   8.545  0.6786  0.3987  0.0696
  439MOL0     C59192   2.501  11.132   8.645 -0.3912  0.6752  0.1680
  439MOL0     C59193   2.373  11.190   8.641  0.4859  0.0467 -0.1574
  439MOL0     C59194   2.254  11.225   8.644 -0.5024 -0.6811  0.9757
  439MOL0     C59195   2.819  10.880   8.290  0.3477  0.7676 -0.5722
  439MOL0     C59196   2.929  10.939   8.229 -0.3934  0.2377  0.2217
  439MOL0     C59197   3.063  10.934   8.283  0.5616  1.2349 -0.1735
  439MOL0     H59198   3.224  11.020   7.926  0.2591  2.0080  1.4007
  439MOL0     H59199   3.418  11.106   7.786  0.0041 -2.6937 -0.7274
  439MOL0     H59200   3.558  11.310   7.705 -2.3194  0.7511 -0.3443
  439MOL0     H59201   3.542  11.157   7.639 -2.0078 -0.0589 -0.2053
  439MOL0     H59202   3.585  11.427   7.488  0.6529 -0.7269  2.6756
  439MOL0     H59203   3.561  11.274   7.398 -0.5810  0.3502 -0.4024
  439MOL0     H59204   3.759  11.178   7.516  2.2677 -0.1520  0.0671
  439MOL0     H59205   3.805  11.350   7.571 -0.9080  0.2186  1.8313
  439MOL0     H59206   3.748  11.230   7.301  0.0706  3.6083 -3.1396
  439MOL0     H59207   3.805  11.395   7.323  3.7599 -0.0184  0.4999
  439MOL0     H59208   3.999  11.331   7.427 -0.6905 -1.5813 -1.2770
  439MOL0     H59209   3.968  11.158   7.395 -2.5972 -2.2634 -1.5745
  439MOL0     H59210   3.946  11.204   7.154  1.2917  0.1604 -1.2836
  439MOL0     H59211   4.013  11.368   7.181  1.9946  0.7374  3.4596
  439MOL0     H59212   4.195  11.203   7.123  1.3331 -0.6462  0.5754
  439MOL0     H59213   4.156  11.111   7.251  2.2662 -0.4747 -1.2562
  439MOL0     H59214   4.221  11.333   7.408 -0.8623  3.4376 -1.8184
  439MOL0     H59215   4.327  11.227   7.320 -0.1544  0.3349  1.4197
  439MOL0     H59216   4.147  11.558   7.229  0.1841 -0.2928 -0.2253
  439MOL0     H59217   4.278  11.680   6.949 -0.2088 -2.8870  1.6141
  439MOL0     H59218   4.236  11.781   7.091 -0.8096  2.0338 -3.0456
  439MOL0     H59219   4.516  11.733   6.959 -2.7150 -2.5458 -1.2012
  439MOL0     H59220   4.416  11.880   6.946 -1.3453  0.4873  1.3207
  439MOL0     H59221   4.597  11.907   7.106  0.1796  0.9727  2.5339
  439MOL0     H59222   4.516  11.786   7.214 -3.4704  0.6050  1.9486
  439MOL0     H59223   4.473  12.019   7.288  0.9390 -1.1878 -0.6375
  439MOL0     H59224   4.333  11.928   7.251 -0.2190  1.5863  0.5807
  439MOL0     H59225   4.203  12.058   7.287  0.7689 -0.3639 -2.1111
  439MOL0     H59226   4.080  12.238   7.408  0.4093  1.2162  0.3110
  439MOL0     H59227   3.855  12.747   7.299  1.3590 -1.8950 -0.1280
  439MOL0     H59228   3.765  12.904   7.415  0.6693 -1.7257 -3.5155
  439MOL0     H59229   3.693  13.134   7.647 -0.9888  0.8491  2.4354
  439MOL0     H59230   3.737  12.959   7.666 -5.3129  0.9355  0.5122
  439MOL0     H59231   3.885  13.039   7.870  0.8459  2.4712  1.8490
  439MOL0     H59232   3.838  13.198   7.839 -0.3702 -0.0554  2.0358
  439MOL0     H59233   3.593  13.084   7.882  0.5225  1.9499  0.2147
  439MOL0     H59234   3.702  12.963   7.965 -1.8461  0.4020  2.0279
  439MOL0     H59235   3.698  13.254   8.042 -0.6586  0.7377  0.6527
  439MOL0     H59236   3.799  13.116   8.106 -1.0375  0.9250  2.6370
  439MOL0     H59237   3.627  12.988   8.178  0.5298 -0.2715 -1.3715
  439MOL0     H59238   3.504  13.064   8.091  0.7217 -2.6577  1.7439
  439MOL0     H59239   3.645  13.187   8.336 -0.4887 -0.8817  0.3493
  439MOL0     H59240   3.518  13.267   8.246  1.0134  0.0960  1.3664
  439MOL0     H59241   3.474  13.001   8.385  2.3771  1.9186  1.6340
  439MOL0     H59242   3.360  13.084   8.286  0.6896 -1.1997 -1.1298
  439MOL0     H59243   3.377  13.286   8.445  2.1913  1.1019  1.8087
  439MOL0     H59244   3.320  13.133   8.533 -1.2161  2.1493  2.1158
  439MOL0     H59245   4.132  12.968   7.626  0.2036 -0.0150 -0.4620
  439MOL0     H59246   4.237  12.802   7.480 -0.3655 -1.1288  2.4653
  439MOL0     H59247   4.271  12.527   7.159  0.5019 -0.3747 -0.2758
  439MOL0     H59248   4.423  12.339   7.063  3.9939 -0.5965  3.7848
  439MOL0     H59249   3.139  11.314   7.532  0.9916 -0.2406  0.5110
  439MOL0     H59250   2.949  11.223   7.669 -0.7583 -1.9234 -0.4050
  439MOL0     H59251   2.735  11.050   7.961  0.2411 -2.1738 -1.2629
  439MOL0     H59252   2.562  10.960   8.082 -0.4693  0.5978 -1.4515
  439MOL0     H59253   2.663  10.729   8.458  1.2861  1.2890 -2.8370
  439MOL0     H59254   2.489  10.754   8.500 -2.6365  1.6360 -3.2385
  439MOL0     H59255   2.689  10.981   8.519  0.8782 -0.8058  0.6567
  439MOL0     H59256   2.609  10.891   8.653  1.4387  1.3428  0.8679
  439MOL0     H59257   2.397  10.966   8.581  1.3247  0.5477  2.0083
  439MOL0     H59258   2.467  11.058   8.446  1.8038  0.5378 -0.1098
  439MOL0     H59259   2.541  11.086   8.735  0.0119 -1.4119 -0.9966
  439MOL0     H59260   2.577  11.206   8.619 -1.4994  0.4880 -4.4930
  439MOL0     H59261   2.153  11.260   8.653 -0.3731  0.0167 -0.1428
  439MOL0     H59262   2.843  10.819   8.376  0.2948  1.7839  0.1858
  439MOL0     H59263   3.145  10.948   8.213  3.1872 -3.6434  1.4632
  439MOL0     H59264   3.074  11.025   8.343 -2.5172  1.4642  0.2465
  439MOL0     H59265   3.087  10.840   8.334  2.0856  3.0503  2.7486
  440MOL0     O59266   6.188   0.136   9.516 -0.1118  0.4785 -0.3507
  440MOL0     C59267   6.265   0.187   9.599  0.0253  0.9174  0.5478
  440MOL0     O59268   6.291   0.320   9.603 -1.2568 -0.6582 -0.0786
  440MOL0     C59269   6.252   0.405   9.504  0.0040 -0.4233  0.0270
  440MOL0     C59270   6.130   0.476   9.499 -0.1644  0.1303  0.2590
  440MOL0     C59271   6.100   0.552   9.387 -0.0714  0.1745 -0.3932
  440MOL0     C59272   6.191   0.591   9.279  0.0805  0.3380 -0.4689
  440MOL0     O59273   6.160   0.684   9.183  0.0645  0.3046  0.0590
  440MOL0     C59274   6.227   0.814   9.193  0.7961  0.2027 -0.3070
  440MOL0     C59275   6.219   0.877   9.056  0.0447  0.1646  0.1886
  440MOL0     C59276   6.260   0.785   8.933 -0.3554 -0.2761  1.2250
  440MOL0     C59277   6.395   0.725   8.953 -0.2270  0.2941 -0.3233
  440MOL0     C59278   6.472   0.684   8.823  0.9323  0.3876  0.1884
  440MOL0     C59279   6.496   0.789   8.717 -0.2739 -0.7350 -0.3763
  440MOL0     C59280   6.628   0.748   8.648  0.7451 -0.1852 -0.2172
  440MOL0     C59281   6.696   0.863   8.576 -0.0493 -0.0037  0.2596
  440MOL0     N59282   6.622   0.901   8.460 -0.0153  0.1612  0.2007
  440MOL0     C59283   6.593   0.821   8.359  0.4443 -0.5957  1.3731
  440MOL0     C59284   6.490   0.887   8.290 -0.3499  1.1483  0.0736
  440MOL0     C59285   6.405   0.840   8.185  1.0659 -0.2725  0.4301
  440MOL0     C59286   6.474   0.871   8.050  0.2452 -0.0250  0.2656
  440MOL0     C59287   6.404   0.803   7.939  0.0448  0.9585  0.5816
  440MOL0     C59288   6.452   0.863   7.808 -0.4630  0.4624  0.6122
  440MOL0     O59289   6.402   1.000   7.797  0.6814 -0.6859  0.4000
  440MOL0     C59290   6.471   1.102   7.733 -0.8529  0.9337 -0.0068
  440MOL0     C59291   6.557   1.072   7.627  0.2226  0.0195 -0.2449
  440MOL0     C59292   6.632   1.162   7.556 -0.4168 -0.1756  0.5774
  440MOL0     C59293   6.612   1.306   7.574  1.2305 -0.0581 -0.9404
  440MOL0     C59294   6.683   1.418   7.505  1.0563 -1.2193  0.1882
  440MOL0     O59295   6.654   1.542   7.542 -0.9866 -0.2909 -0.6659
  440MOL0     C59296   6.718   1.647   7.488  1.1066  0.3953 -0.1576
  440MOL0     C59297   6.841   1.684   7.539  0.3861 -0.1457 -0.4303
  440MOL0     C59298   6.896   1.791   7.477  0.0845  0.2479 -0.5844
  440MOL0     C59299   6.841   1.851   7.366  0.9703 -0.4393  0.0601
  440MOL0     O59300   6.898   1.955   7.296  0.0227 -0.1520 -0.6339
  440MOL0     C59301   7.038   1.982   7.313 -0.1225 -0.5499  0.1326
  440MOL0     C59302   7.094   2.099   7.235 -0.7465 -0.5691 -0.1543
  440MOL0     C59303   7.046   2.097   7.084 -0.5172 -0.3388 -0.6454
  440MOL0     C59304   7.109   1.991   6.998 -0.4179 -0.4226  0.9536
  440MOL0     C59305   7.061   2.018   6.848 -0.0803  0.9874  0.1077
  440MOL0     C59306   7.104   1.901   6.752  0.3207  0.8149 -1.1780
  440MOL0     C59307   7.051   1.921   6.615 -0.5873  0.6356 -1.0549
  440MOL0     C59308   7.090   1.815   6.516  0.7744  0.8413  0.5720
  440MOL0    Cl59309   7.025   1.642   6.544 -0.2249 -0.0092 -0.3031
  440MOL0     C59310   6.712   1.831   7.325 -0.0162 -0.3142 -0.9279
  440MOL0     C59311   6.644   1.726   7.387 -0.1203 -1.2212  0.2306
  440MOL0     O59312   6.754   1.389   7.409 -0.3192 -0.0357 -0.4478
  440MOL0     C59313   6.515   1.332   7.681  1.1640 -0.1491 -0.3169
  440MOL0     C59314   6.442   1.237   7.756 -0.0457 -0.0755  1.3611
  440MOL0     N59315   6.467   1.001   8.343  0.1421 -0.1725 -0.2762
  440MOL0     N59316   6.536   1.013   8.450 -0.4932 -0.2618  0.5326
  440MOL0     C59317   6.314   0.518   9.283  0.5087 -0.6850 -0.6580
  440MOL0     C59318   6.337   0.427   9.394 -0.0542  0.1156  0.0664
  440MOL0     C59319   6.353   0.101   9.680  0.0401 -0.1425  0.6436
  440MOL0     C59320   6.383   0.156   9.805 -0.0096 -0.2747  0.2550
  440MOL0     C59321   6.460   0.091   9.904 -0.1839 -0.7121  0.0687
  440MOL0     C59322   6.509  -0.038   9.884  0.4109 -0.1044  0.5154
  440MOL0     O59323   6.576  -0.097   9.990 -0.5554 -0.7537  1.0180
  440MOL0     C59324   6.656  -0.219   9.962  0.3661  0.3372  0.2554
  440MOL0     C59325   6.770  -0.191   9.852  0.2780  0.0616 -0.6281
  440MOL0     C59326   6.917  -0.223   9.899  0.4052  0.4118  0.2371
  440MOL0     C59327   7.006  -0.236   9.780 -0.0265 -0.3634  0.0616
  440MOL0     C59328   7.134  -0.304   9.801 -0.9793  0.1451  0.7886
  440MOL0     C59329   7.250  -0.347   9.800 -0.3217  0.2088  0.4616
  440MOL0     C59330   6.478  -0.096   9.760 -0.5834  0.4646  1.1421
  440MOL0     C59331   6.399  -0.031   9.659 -0.2248  0.0477  0.1429
  440MOL0     C59332   6.358  -0.110   9.533 -0.6930  0.2075 -1.1364
  440MOL0     H59333   6.063   0.445   9.578  0.6800 -3.7602 -0.3631
  440MOL0     H59334   6.002   0.598   9.381 -0.8693 -1.5697 -1.9612
  440MOL0     H59335   6.176   0.871   9.272 -0.3786  4.3421 -3.6465
  440MOL0     H59336   6.329   0.787   9.219  0.2401 -2.5367 -0.6918
  440MOL0     H59337   6.280   0.969   9.053 -1.8096  1.4327 -0.5367
  440MOL0     H59338   6.114   0.890   9.030  0.1554  1.2484  0.2373
  440MOL0     H59339   6.259   0.853   8.848 -0.1327 -2.0991 -0.2967
  440MOL0     H59340   6.188   0.705   8.912 -1.2426  0.9469 -0.5956
  440MOL0     H59341   6.456   0.805   8.997  1.1133 -0.3081 -1.0205
  440MOL0     H59342   6.391   0.636   9.016  0.7311  0.4619 -0.0085
  440MOL0     H59343   6.569   0.643   8.851  0.9070  0.8196  0.9555
  440MOL0     H59344   6.418   0.600   8.778  3.9319 -1.0619 -0.9418
  440MOL0     H59345   6.409   0.798   8.651  1.3403  0.3961 -2.4319
  440MOL0     H59346   6.518   0.882   8.769  0.2113 -1.0031 -0.0872
  440MOL0     H59347   6.613   0.670   8.573 -1.3787 -0.3915  0.3540
  440MOL0     H59348   6.699   0.715   8.725 -0.2451  0.7064  1.1159
  440MOL0     H59349   6.692   0.951   8.640 -1.2777 -0.5961  1.0328
  440MOL0     H59350   6.803   0.851   8.558 -0.1082  0.4656 -0.4399
  440MOL0     H59351   6.629   0.721   8.335 -0.5451 -0.3268 -1.7257
  440MOL0     H59352   6.395   0.731   8.188  0.8938 -0.3219 -1.0027
  440MOL0     H59353   6.311   0.893   8.202  1.2444 -0.4496  2.0864
  440MOL0     H59354   6.490   0.979   8.040 -0.9140  0.3350  1.8316
  440MOL0     H59355   6.574   0.825   8.058  0.8240  1.2254  0.4485
  440MOL0     H59356   6.296   0.819   7.935 -0.8482 -3.8832 -1.9546
  440MOL0     H59357   6.434   0.698   7.941 -0.2049  0.8901  2.6522
  440MOL0     H59358   6.417   0.799   7.726 -0.1089  2.6546 -1.3579
  440MOL0     H59359   6.561   0.855   7.814 -0.6299 -0.9838  2.5777
  440MOL0     H59360   6.567   0.969   7.596 -1.1247 -0.1516 -0.1572
  440MOL0     H59361   6.696   1.139   7.472 -2.0988  1.5443 -1.2877
  440MOL0     H59362   6.883   1.614   7.611 -0.7869 -1.3203 -0.8500
  440MOL0     H59363   6.996   1.818   7.512 -0.4107 -1.0294  2.0480
  440MOL0     H59364   7.064   2.020   7.412  0.7772 -1.8840  0.4366
  440MOL0     H59365   7.106   1.901   7.285  0.8569  0.3468 -0.1440
  440MOL0     H59366   7.068   2.191   7.287 -3.1256  0.0847 -2.3071
  440MOL0     H59367   7.203   2.101   7.241 -0.8263 -1.1444  2.4430
  440MOL0     H59368   6.937   2.087   7.078 -0.6115 -2.2151  2.2981
  440MOL0     H59369   7.088   2.187   7.038  0.7151 -0.0597  0.9245
  440MOL0     H59370   7.077   1.898   7.046  0.8602 -0.7426  1.1990
  440MOL0     H59371   7.217   1.982   6.987 -0.4652 -0.1798  0.2210
  440MOL0     H59372   7.104   2.113   6.815 -0.9306  1.5232  0.5049
  440MOL0     H59373   6.952   2.023   6.846 -0.2037 -0.8950  0.2784
  440MOL0     H59374   7.212   1.898   6.735  0.3172 -0.4555 -1.0614
  440MOL0     H59375   7.070   1.808   6.797  3.6809 -0.3830 -0.8210
  440MOL0     H59376   7.095   2.014   6.579 -1.9604  1.9497  0.5081
  440MOL0     H59377   6.943   1.936   6.607 -0.5628  0.8457 -0.9878
  440MOL0     H59378   7.062   1.839   6.413  1.1470 -1.6509 -0.1797
  440MOL0     H59379   7.199   1.806   6.512  0.7418  0.0136  1.1875
  440MOL0     H59380   6.682   1.866   7.226  0.2607  0.4912 -0.7327
  440MOL0     H59381   6.544   1.697   7.356  0.4890 -2.7927 -0.3898
  440MOL0     H59382   6.476   1.433   7.699 -0.9555 -1.2457  1.9292
  440MOL0     H59383   6.372   1.276   7.828  0.4574  0.9028  1.3430
  440MOL0     H59384   6.387   0.525   9.203 -0.5628 -1.4109 -1.7313
  440MOL0     H59385   6.432   0.374   9.386  1.7630  2.8952  1.3776
  440MOL0     H59386   6.361   0.260   9.829 -2.3226 -0.7796  0.4970
  440MOL0     H59387   6.479   0.135  10.001 -2.8306 -3.9479  2.2861
  440MOL0     H59388   6.592  -0.303   9.933  0.1841  0.1409  1.2173
  440MOL0     H59389   6.704  -0.245  10.056 -0.0012 -1.8144 -0.0975
  440MOL0     H59390   6.766  -0.087   9.820 -2.5998 -0.2496 -1.5970
  440MOL0     H59391   6.749  -0.251   9.762 -2.9947 -0.6013  0.4519
  440MOL0     H59392   6.919  -0.320   9.949 -2.0141  1.2717  2.2662
  440MOL0     H59393   6.963  -0.149   9.965  0.3273  0.5878  0.0948
  440MOL0     H59394   6.954  -0.295   9.705  0.1924  1.6449 -1.7869
  440MOL0     H59395   7.022  -0.139   9.732 -0.1184 -0.7377 -0.7340
  440MOL0     H59396   7.347  -0.385   9.823 -0.0869  2.1137  3.1712
  440MOL0     H59397   6.524  -0.193   9.745  0.5872  0.8598  2.0283
  440MOL0     H59398   6.291  -0.196   9.544 -1.9084  1.3221  0.5459
  440MOL0     H59399   6.305  -0.051   9.457  0.4619  0.5956 -1.6670
  440MOL0     H59400   6.451  -0.142   9.485  0.2253 -1.8117  1.7473
  441MOL0     O59401  10.379   7.067   1.572  0.3471 -0.2597  0.3724
  441MOL0     C59402  10.250   7.066   1.578  0.9112  0.5645 -1.2645
  441MOL0     O59403  10.173   7.084   1.693 -1.1113 -0.3797  0.0722
  441MOL0     C59404  10.223   7.174   1.789 -0.2807  0.5146 -0.5159
  441MOL0     C59405  10.320   7.273   1.771 -0.1285  0.2460  0.1375
  441MOL0     C59406  10.371   7.353   1.879  0.1560 -0.4353 -0.1691
  441MOL0     C59407  10.328   7.311   2.009 -1.3855 -1.2897 -0.0760
  441MOL0     O59408  10.377   7.359   2.128 -0.1995 -0.9489  0.0116
  441MOL0     C59409  10.395   7.504   2.140  0.4787  0.3737  0.0903
  441MOL0     C59410  10.260   7.582   2.117 -0.2343 -0.3831 -0.4408
  441MOL0     C59411  10.148   7.578   2.227  0.5245  0.4946  0.7679
  441MOL0     C59412  10.173   7.657   2.359  0.3595 -0.1983  0.1513
  441MOL0     C59413  10.032   7.716   2.398 -0.7135  0.1332  0.2070
  441MOL0     C59414   9.935   7.602   2.436 -1.0442 -0.6209 -0.7291
  441MOL0     C59415   9.803   7.651   2.500 -1.0534 -0.0273 -0.7121
  441MOL0     C59416   9.689   7.647   2.408 -0.0162 -0.1298  1.0359
  441MOL0     N59417   9.706   7.749   2.296 -0.2854  0.7547  0.1634
  441MOL0     C59418   9.683   7.881   2.323 -0.4405  0.6788 -1.4483
  441MOL0     C59419   9.710   7.954   2.215  1.4151  0.3418  0.6367
  441MOL0     C59420   9.678   8.097   2.199 -0.3039 -0.5145  0.0489
  441MOL0     C59421   9.523   8.134   2.213 -0.3940 -0.7204  0.5450
  441MOL0     C59422   9.510   8.276   2.162 -0.9846 -0.5349 -0.8140
  441MOL0     C59423   9.364   8.331   2.181 -0.9537 -0.0511 -0.4023
  441MOL0     O59424   9.318   8.325   2.313  0.0667 -0.9825  0.4105
  441MOL0     C59425   9.291   8.440   2.381 -0.3015  1.0036  0.3997
  441MOL0     C59426   9.376   8.540   2.393  0.2697 -1.1626 -0.4078
  441MOL0     C59427   9.344   8.664   2.473  0.7572 -0.4044  0.0992
  441MOL0     C59428   9.212   8.681   2.518 -1.2550  0.7066 -0.0995
  441MOL0     C59429   9.165   8.804   2.590  0.7111  0.2565 -0.4884
  441MOL0     O59430   9.030   8.812   2.617 -0.3767  0.4541  0.2245
  441MOL0     C59431   8.990   8.923   2.695  0.4446  0.4838 -0.1990
  441MOL0     C59432   8.971   9.054   2.645 -0.9869  0.4661 -0.1862
  441MOL0     C59433   8.926   9.160   2.728 -0.2681  0.3643  0.2641
  441MOL0     C59434   8.886   9.133   2.856 -0.7705  0.5027 -0.0183
  441MOL0     O59435   8.835   9.238   2.930  0.5105 -0.3895  0.2834
  441MOL0     C59436   8.766   9.214   3.056  0.2595 -0.2215  1.4361
  441MOL0     C59437   8.706   9.346   3.098  0.2829 -0.2803  0.2923
  441MOL0     C59438   8.641   9.333   3.232 -0.2839  0.0846  0.5032
  441MOL0     C59439   8.581   9.472   3.271 -0.8052  0.2955  0.0068
  441MOL0     C59440   8.513   9.458   3.412 -0.6230 -0.5981  0.5812
  441MOL0     C59441   8.469   9.597   3.449  0.5013 -0.1804 -0.2021
  441MOL0     C59442   8.390   9.576   3.577 -0.5415 -0.7504  0.4374
  441MOL0     C59443   8.311   9.705   3.615  0.2987 -0.1894  0.7734
  441MOL0    Cl59444   8.180   9.750   3.512 -0.1342  0.5172 -0.4858
  441MOL0     C59445   8.916   9.004   2.911  0.2457  0.6849 -0.6332
  441MOL0     C59446   8.953   8.894   2.831  0.0274  0.1189  0.5025
  441MOL0     O59447   9.246   8.877   2.633 -0.6515  0.2281 -0.6725
  441MOL0     C59448   9.129   8.576   2.496  0.3543  0.1463  0.1526
  441MOL0     C59449   9.163   8.455   2.433  0.3153 -0.2046  0.3598
  441MOL0     N59450   9.721   7.862   2.111 -1.6324  0.0236  1.2100
  441MOL0     N59451   9.718   7.740   2.155  0.6288 -0.0493  0.0141
  441MOL0     C59452  10.223   7.219   2.031 -0.0170 -0.5185 -1.4426
  441MOL0     C59453  10.175   7.146   1.927 -0.2398 -0.4893 -0.0797
  441MOL0     C59454  10.169   6.999   1.472  0.1422 -0.3585  0.3407
  441MOL0     C59455  10.068   6.904   1.501  0.0671 -0.5851 -0.5826
  441MOL0     C59456  10.007   6.818   1.410 -0.3555 -0.3502 -0.9527
  441MOL0     C59457  10.040   6.839   1.275  0.0839  0.2693 -0.3524
  441MOL0     O59458   9.985   6.751   1.189  0.1668  0.4015 -0.6007
  441MOL0     C59459  10.054   6.702   1.071 -0.3950  0.6715  0.5753
  441MOL0     C59460   9.964   6.613   0.989  0.2840  0.9229 -0.0421
  441MOL0     C59461  10.022   6.549   0.862 -0.0561  0.9916  0.2881
  441MOL0     C59462  10.079   6.650   0.752  0.1750  1.2582 -1.0373
  441MOL0     C59463   9.975   6.731   0.687  0.3928 -0.1197 -0.8006
  441MOL0     C59464   9.912   6.809   0.623 -0.0615  0.7355 -0.2078
  441MOL0     C59465  10.127   6.943   1.232 -0.9393  0.6867 -0.5229
  441MOL0     C59466  10.190   7.021   1.328 -0.4973 -0.0128 -0.2068
  441MOL0     C59467  10.290   7.121   1.297 -0.2208 -0.0059  0.9810
  441MOL0     H59468  10.359   7.298   1.673 -1.4768 -3.2640 -1.4833
  441MOL0     H59469  10.441   7.431   1.850 -0.1720 -0.8076 -2.0733
  441MOL0     H59470  10.416   7.520   2.246  1.6678  0.1411 -0.1007
  441MOL0     H59471  10.479   7.539   2.080 -1.8168  0.2528 -3.4505
  441MOL0     H59472  10.218   7.543   2.023  1.3731 -1.5128 -0.7251
  441MOL0     H59473  10.262   7.689   2.094 -1.5165  0.0146  1.1270
  441MOL0     H59474  10.145   7.474   2.261 -0.7745 -0.5970 -2.3700
  441MOL0     H59475  10.052   7.603   2.181 -0.8520 -0.9746  2.6769
  441MOL0     H59476  10.211   7.603   2.446  3.6060  2.4651  0.5840
  441MOL0     H59477  10.236   7.740   2.326 -0.2218 -1.1034 -3.6702
  441MOL0     H59478  10.047   7.784   2.483 -2.5213 -1.0344  1.5178
  441MOL0     H59479   9.986   7.766   2.313  1.6826 -0.6195 -1.6387
  441MOL0     H59480   9.904   7.537   2.353  0.6780 -1.7606 -0.5290
  441MOL0     H59481   9.987   7.533   2.503  0.5354 -2.1510 -3.3408
  441MOL0     H59482   9.825   7.748   2.546 -1.2952  0.6003 -1.8839
  441MOL0     H59483   9.769   7.588   2.583  0.0086  0.2363 -0.0583
  441MOL0     H59484   9.680   7.548   2.361 -1.7368  1.1902 -1.7014
  441MOL0     H59485   9.597   7.665   2.463 -1.4495  0.4510 -1.4029
  441MOL0     H59486   9.651   7.909   2.423 -1.1295 -2.0569 -0.8249
  441MOL0     H59487   9.728   8.150   2.281 -3.4993  3.7414 -0.3880
  441MOL0     H59488   9.731   8.126   2.108 -0.2742 -0.6387  0.0261
  441MOL0     H59489   9.458   8.066   2.157 -0.3966  0.1478 -0.5238
  441MOL0     H59490   9.491   8.126   2.318 -1.3053 -3.5273  0.1411
  441MOL0     H59491   9.536   8.269   2.056  0.1988 -3.2499 -0.4465
  441MOL0     H59492   9.585   8.345   2.202  1.7934 -1.8438 -3.2704
  441MOL0     H59493   9.295   8.270   2.122 -0.9735  0.5970 -1.0529
  441MOL0     H59494   9.375   8.436   2.153 -2.6648 -0.0957 -1.3371
  441MOL0     H59495   9.478   8.533   2.356  0.1758  1.2740 -1.3500
  441MOL0     H59496   9.413   8.748   2.481  1.8130 -1.1023 -1.2645
  441MOL0     H59497   8.991   9.068   2.539 -2.0680  0.1060 -0.4575
  441MOL0     H59498   8.909   9.261   2.692 -1.6918 -0.0610 -0.3364
  441MOL0     H59499   8.695   9.131   3.050 -1.1300  1.0448 -1.5448
  441MOL0     H59500   8.840   9.182   3.130 -0.5511  0.2962  2.5070
  441MOL0     H59501   8.775   9.430   3.106 -2.1924  1.8338  0.8609
  441MOL0     H59502   8.638   9.384   3.021  0.8862  1.2736  0.4908
  441MOL0     H59503   8.557   9.266   3.210  1.2234 -1.3322 -1.3180
  441MOL0     H59504   8.710   9.292   3.306  0.1114 -1.6964 -0.7780
  441MOL0     H59505   8.510   9.497   3.192  1.1795 -0.9162 -2.3022
  441MOL0     H59506   8.658   9.551   3.270 -0.2903 -0.1989 -0.5030
  441MOL0     H59507   8.594   9.432   3.481  0.9352  2.5391  0.1083
  441MOL0     H59508   8.437   9.380   3.410  0.9745 -2.2383  1.3969
  441MOL0     H59509   8.544   9.676   3.447 -1.0872  1.3951 -0.3962
  441MOL0     H59510   8.404   9.624   3.365  1.8714 -0.7097 -1.4611
  441MOL0     H59511   8.449   9.532   3.658  2.5138  0.1509 -1.1677
  441MOL0     H59512   8.314   9.504   3.544  1.6678 -2.1131 -2.1234
  441MOL0     H59513   8.272   9.707   3.717 -0.7020  0.1815  0.4006
  441MOL0     H59514   8.387   9.783   3.601  1.2020 -0.9994  1.0310
  441MOL0     H59515   8.885   8.988   3.013  0.6802 -0.6484 -0.6944
  441MOL0     H59516   8.969   8.803   2.889  3.8554  1.9088  2.6864
  441MOL0     H59517   9.026   8.580   2.530 -0.2895  0.0913 -1.6578
  441MOL0     H59518   9.085   8.380   2.428  0.3288 -0.1544 -0.6781
  441MOL0     H59519  10.191   7.194   2.132  1.8739 -2.2054 -1.2026
  441MOL0     H59520  10.087   7.084   1.940  0.7632 -1.7007  1.1183
  441MOL0     H59521  10.035   6.898   1.605 -1.4616  1.6968 -0.8717
  441MOL0     H59522   9.934   6.743   1.437 -0.0173 -0.8453 -1.3883
  441MOL0     H59523  10.137   6.641   1.106  0.1659  2.5339  2.7288
  441MOL0     H59524  10.099   6.787   1.018  2.0582 -0.9749 -0.1587
  441MOL0     H59525   9.881   6.678   0.958 -0.3093  0.2660  0.1473
  441MOL0     H59526   9.921   6.536   1.054 -1.4077  0.8587 -1.1769
  441MOL0     H59527   9.942   6.489   0.818  0.5946  0.1730  0.1845
  441MOL0     H59528  10.101   6.480   0.895  0.6353  2.1106  1.0324
  441MOL0     H59529  10.140   6.723   0.806 -1.7107  1.7502  0.5531
  441MOL0     H59530  10.136   6.593   0.678  0.2894 -2.2169  1.4909
  441MOL0     H59531   9.858   6.883   0.567  2.4709  1.8508 -1.3130
  441MOL0     H59532  10.150   6.967   1.129 -2.4309  2.6124 -0.4562
  441MOL0     H59533  10.249   7.172   1.209  0.7664 -0.7780  0.0436
  441MOL0     H59534  10.314   7.197   1.371  1.5603  0.3892  0.0500
  441MOL0     H59535  10.389   7.076   1.285 -0.0676  0.2208  1.3809
  442MOL0     O59536   8.983   3.041   0.479  0.0126  0.4434  0.5810
  442MOL0     C59537   9.087   3.096   0.516 -0.2254  0.5345  0.4648
  442MOL0     O59538   9.191   3.110   0.424  0.1630 -0.2775  0.3251
  442MOL0     C59539   9.160   3.067   0.293 -0.6985 -0.2863  0.0527
  442MOL0     C59540   9.147   2.931   0.255  0.2546 -0.0836 -0.1031
  442MOL0     C59541   9.139   2.898   0.117 -1.0539 -0.0000 -0.0285
  442MOL0     C59542   9.145   3.004   0.019 -0.5833 -0.5042 -0.5018
  442MOL0     O59543   9.155   2.964  -0.112  0.2741 -0.6581 -0.1248
  442MOL0     C59544   9.275   2.997  -0.171 -1.5620 -0.1663 -0.5421
  442MOL0     C59545   9.266   3.117  -0.267 -0.3593  0.0334  0.7032
  442MOL0     C59546   9.401   3.173  -0.320  0.0273  0.6322  0.4618
  442MOL0     C59547   9.474   3.254  -0.219 -0.8274 -0.5028  0.6152
  442MOL0     C59548   9.545   3.377  -0.293 -0.3361 -0.2837 -0.2516
  442MOL0     C59549   9.647   3.335  -0.392 -0.1207 -0.6834 -0.5215
  442MOL0     C59550   9.720   3.453  -0.470  0.8386 -0.2752  0.7064
  442MOL0     C59551   9.635   3.504  -0.594  0.1200  0.4178 -0.3225
  442MOL0     N59552   9.617   3.414  -0.703 -0.3980  0.3219 -0.3026
  442MOL0     C59553   9.491   3.373  -0.743 -0.3884  0.0251  0.3686
  442MOL0     C59554   9.500   3.353  -0.874  0.0248 -0.1254 -0.3334
  442MOL0     C59555   9.383   3.335  -0.971 -0.1933  0.5867  0.0690
  442MOL0     C59556   9.359   3.179  -1.000  0.8808 -0.9827 -0.0569
  442MOL0     C59557   9.487   3.107  -1.050  0.3899  0.3070  0.1954
  442MOL0     C59558   9.438   2.982  -1.140 -0.0320  0.4154  0.3176
  442MOL0     O59559   9.334   2.925  -1.079  0.0829  1.5687  0.5339
  442MOL0     C59560   9.283   2.808  -1.146  0.7936 -0.0931  0.1535
  442MOL0     C59561   9.343   2.737  -1.253 -1.3214  0.3719  0.4168
  442MOL0     C59562   9.327   2.596  -1.276 -0.0168 -0.5688  0.5914
  442MOL0     C59563   9.226   2.529  -1.205  0.0135 -0.2995 -0.0056
  442MOL0     C59564   9.204   2.384  -1.231  0.5382 -0.6737  1.1147
  442MOL0     O59565   9.304   2.322  -1.310  0.6321  0.4098  0.7573
  442MOL0     C59566   9.294   2.185  -1.302 -0.5225 -0.4969  0.0700
  442MOL0     C59567   9.376   2.121  -1.212  0.0280  0.4482  0.6502
  442MOL0     C59568   9.368   1.978  -1.198  0.9088  0.0276  0.2360
  442MOL0     C59569   9.285   1.901  -1.279  1.5485  0.3964 -0.7685
  442MOL0     O59570   9.281   1.766  -1.283 -0.1750 -0.0313  0.2151
  442MOL0     C59571   9.336   1.697  -1.171 -0.0596  1.0743  0.1978
  442MOL0     C59572   9.359   1.560  -1.230 -0.1770 -0.0785 -1.0999
  442MOL0     C59573   9.223   1.491  -1.243 -0.1525  1.2196  0.7962
  442MOL0     C59574   9.245   1.361  -1.323  0.1047  1.1575  0.3269
  442MOL0     C59575   9.347   1.255  -1.256  0.4226 -0.1431 -0.0174
  442MOL0     C59576   9.360   1.113  -1.315  0.3357 -0.1733 -0.6351
  442MOL0     C59577   9.326   1.103  -1.470  0.3014 -0.6247  0.0256
  442MOL0     C59578   9.341   0.964  -1.509 -0.6659 -0.0214  0.3986
  442MOL0    Cl59579   9.232   0.848  -1.425 -0.2744 -0.1362 -0.2506
  442MOL0     C59580   9.206   1.966  -1.376 -0.8662  0.3211  0.7382
  442MOL0     C59581   9.211   2.111  -1.390 -0.4382  0.3895  0.8420
  442MOL0     O59582   9.104   2.326  -1.190  0.0901  0.4274 -0.2234
  442MOL0     C59583   9.150   2.602  -1.115  1.1800  0.4065 -0.5629
  442MOL0     C59584   9.176   2.741  -1.084 -0.6755  0.2867  0.1347
  442MOL0     N59585   9.637   3.370  -0.912 -0.1562 -0.7653 -0.2950
  442MOL0     N59586   9.706   3.400  -0.803  0.2562  0.0994 -0.0715
  442MOL0     C59587   9.159   3.136   0.060  0.1306 -0.3571 -0.1987
  442MOL0     C59588   9.171   3.167   0.203 -0.4831 -0.0275 -0.3410
  442MOL0     C59589   9.098   3.162   0.640  0.1967 -0.2239 -0.1779
  442MOL0     C59590   9.144   3.295   0.640  0.2470 -0.0044 -0.2044
  442MOL0     C59591   9.144   3.379   0.758 -0.4302 -0.0331  0.5201
  442MOL0     C59592   9.100   3.324   0.874 -0.2839 -0.0794 -1.4074
  442MOL0     O59593   9.106   3.393   0.994 -0.2283 -0.3899 -0.2184
  442MOL0     C59594   9.223   3.360   1.071  0.2673  1.2459 -0.1738
  442MOL0     C59595   9.279   3.492   1.135  0.0116  1.0996 -0.3847
  442MOL0     C59596   9.415   3.551   1.083  0.1715  0.5334 -0.0862
  442MOL0     C59597   9.425   3.700   1.065  0.3019 -0.8652  0.2141
  442MOL0     C59598   9.560   3.749   1.028  0.9989 -0.8763  0.6369
  442MOL0     C59599   9.666   3.779   0.982  1.0890  1.1512 -0.1643
  442MOL0     C59600   9.051   3.192   0.875  0.6578 -0.4442 -0.1024
  442MOL0     C59601   9.051   3.108   0.763  0.6193  0.3716 -0.8000
  442MOL0     C59602   8.994   2.970   0.770 -0.1386  0.3205  0.2098
  442MOL0     H59603   9.138   2.856   0.333 -2.6986  0.1894 -0.0950
  442MOL0     H59604   9.121   2.799   0.075  0.6198  0.2636 -1.4965
  442MOL0     H59605   9.344   3.021  -0.089 -2.0283 -0.0074 -0.1899
  442MOL0     H59606   9.329   2.915  -0.219  3.2781  1.3615  1.6308
  442MOL0     H59607   9.206   3.196  -0.220 -0.3443  1.3505 -1.3887
  442MOL0     H59608   9.218   3.071  -0.353  1.0054 -2.0553  0.9784
  442MOL0     H59609   9.381   3.227  -0.413  2.5971  1.0521  0.0826
  442MOL0     H59610   9.456   3.090  -0.366 -1.7280  0.4130 -1.3993
  442MOL0     H59611   9.401   3.292  -0.146  0.6733 -0.2711  2.0553
  442MOL0     H59612   9.551   3.188  -0.177 -0.3645 -0.4140 -0.0739
  442MOL0     H59613   9.462   3.427  -0.344 -0.9382 -1.7598 -0.7660
  442MOL0     H59614   9.581   3.444  -0.214 -1.9500 -2.2430  2.3033
  442MOL0     H59615   9.729   3.278  -0.347 -1.1538 -0.1114  2.2786
  442MOL0     H59616   9.605   3.268  -0.467 -1.4253 -3.0780  2.1457
  442MOL0     H59617   9.815   3.426  -0.516 -0.7100  0.8802 -3.7275
  442MOL0     H59618   9.738   3.536  -0.401 -2.5061 -1.1486  2.8906
  442MOL0     H59619   9.538   3.526  -0.549  1.0410 -1.1437  2.6827
  442MOL0     H59620   9.688   3.589  -0.637  2.1370 -0.2387  0.7526
  442MOL0     H59621   9.394   3.378  -0.693 -0.9767  2.7294 -0.8731
  442MOL0     H59622   9.299   3.376  -0.915 -0.4482  0.8266 -0.4775
  442MOL0     H59623   9.402   3.391  -1.064 -0.8468 -2.4635 -2.0527
  442MOL0     H59624   9.320   3.131  -0.910  0.0652 -0.8656 -0.3390
  442MOL0     H59625   9.273   3.184  -1.068  0.6523  3.8777  0.2359
  442MOL0     H59626   9.541   3.068  -0.963  2.0501 -0.4582 -1.1180
  442MOL0     H59627   9.546   3.178  -1.108 -1.7854  2.3669  0.3411
  442MOL0     H59628   9.520   2.914  -1.163 -1.6920 -0.9586 -1.9289
  442MOL0     H59629   9.404   3.034  -1.231  1.3598 -0.3361 -0.6602
  442MOL0     H59630   9.423   2.794  -1.298  1.4128 -0.2184  4.0659
  442MOL0     H59631   9.390   2.538  -1.342 -0.8705  0.9955 -1.7464
  442MOL0     H59632   9.433   2.180  -1.141  2.5676  1.5077 -2.0882
  442MOL0     H59633   9.439   1.930  -1.131 -1.6710 -4.2945  0.2814
  442MOL0     H59634   9.437   1.733  -1.148  1.4105 -1.3843 -1.9108
  442MOL0     H59635   9.274   1.693  -1.081  0.5753  1.5554  0.6760
  442MOL0     H59636   9.413   1.563  -1.325  0.7187  0.5142 -0.5918
  442MOL0     H59637   9.411   1.504  -1.152  0.1746 -2.0000 -2.6429
  442MOL0     H59638   9.170   1.465  -1.151 -2.8510  1.2889 -0.6462
  442MOL0     H59639   9.160   1.559  -1.301 -0.2516  2.0639  1.8612
  442MOL0     H59640   9.266   1.379  -1.429 -5.2591 -3.7941 -2.1170
  442MOL0     H59641   9.151   1.305  -1.325 -0.2019  1.6422  0.8207
  442MOL0     H59642   9.335   1.243  -1.148  0.6388  1.8468  0.2696
  442MOL0     H59643   9.449   1.295  -1.260  1.7703 -3.1837  0.6807
  442MOL0     H59644   9.463   1.076  -1.308 -0.0593 -1.0331  1.2836
  442MOL0     H59645   9.291   1.051  -1.257  0.1144 -3.2508 -3.8643
  442MOL0     H59646   9.390   1.156  -1.540  0.5361 -1.6579 -0.5679
  442MOL0     H59647   9.219   1.126  -1.482  0.8281  0.2970 -4.3552
  442MOL0     H59648   9.328   0.955  -1.617  2.1732  1.0138 -0.1202
  442MOL0     H59649   9.443   0.927  -1.500 -0.6174 -0.5658 -1.7489
  442MOL0     H59650   9.157   1.906  -1.453  2.6298 -2.3784  0.3277
  442MOL0     H59651   9.154   2.162  -1.467  0.2794 -1.9319 -1.3911
  442MOL0     H59652   9.076   2.544  -1.061  0.4937  3.5857  2.2213
  442MOL0     H59653   9.122   2.801  -1.011  2.5689  0.9962  2.1815
  442MOL0     H59654   9.163   3.213  -0.017  2.3210  0.0319  0.2426
  442MOL0     H59655   9.178   3.270   0.234  0.8555  0.6170 -2.5433
  442MOL0     H59656   9.186   3.330   0.545 -2.4793  0.2655 -1.4018
  442MOL0     H59657   9.180   3.481   0.749 -0.2254 -0.2178 -1.2219
  442MOL0     H59658   9.295   3.302   1.013 -1.2046 -1.4148  0.4959
  442MOL0     H59659   9.186   3.286   1.142 -0.8872  0.7337 -1.2519
  442MOL0     H59660   9.286   3.473   1.243  2.9038 -0.0690 -0.6873
  442MOL0     H59661   9.194   3.560   1.123 -2.5307 -1.6778  0.5597
  442MOL0     H59662   9.445   3.519   0.983  2.1636  1.1341  0.2865
  442MOL0     H59663   9.495   3.515   1.148  1.5692  0.3884 -1.8126
  442MOL0     H59664   9.358   3.743   0.990  1.0061  1.3275  0.7384
  442MOL0     H59665   9.409   3.744   1.164  3.6151 -0.9523  0.8965
  442MOL0     H59666   9.764   3.799   0.943  1.1005 -0.4276 -0.9998
  442MOL0     H59667   9.019   3.150   0.970  3.6256 -0.1682  1.1497
  442MOL0     H59668   8.902   2.956   0.713  2.0470 -1.4225 -3.1822
  442MOL0     H59669   9.055   2.887   0.733 -0.4490 -1.3909  3.1435
  442MOL0     H59670   8.973   2.953   0.877  1.5952  0.0546  0.5305
  443MOL0     O59671   6.720   1.934   2.233  0.4081 -0.3432 -0.5501
  443MOL0     C59672   6.833   1.954   2.183 -0.0739 -0.1179 -0.2433
  443MOL0     O59673   6.946   1.963   2.260 -0.0779 -0.4566  0.3129
  443MOL0     C59674   6.937   1.932   2.395 -0.4297 -0.0526 -0.0570
  443MOL0     C59675   6.900   1.802   2.428 -0.3477  0.2643 -0.6339
  443MOL0     C59676   6.888   1.760   2.564  0.0344  0.4614 -0.7228
  443MOL0     C59677   6.931   1.841   2.671 -0.4200 -0.2786 -0.2045
  443MOL0     O59678   6.924   1.797   2.805 -0.1540 -0.0024  0.3249
  443MOL0     C59679   6.928   1.903   2.911 -0.4502 -0.0651 -0.6958
  443MOL0     C59680   6.915   1.834   3.042  0.4609 -0.6685 -0.1591
  443MOL0     C59681   7.024   1.736   3.084  0.3197 -0.7449  0.9423
  443MOL0     C59682   7.143   1.806   3.147 -0.8839 -0.5048  0.5118
  443MOL0     C59683   7.228   1.700   3.226 -0.4886  1.3867  0.7719
  443MOL0     C59684   7.272   1.578   3.138  0.9435 -1.3135 -0.0527
  443MOL0     C59685   7.351   1.479   3.222 -0.1611 -0.9768  0.6299
  443MOL0     C59686   7.413   1.368   3.144  0.4183  0.8265  0.3980
  443MOL0     N59687   7.510   1.394   3.047  1.0232 -0.3724  1.2832
  443MOL0     C59688   7.473   1.434   2.917 -0.6423 -0.3316 -1.1604
  443MOL0     C59689   7.598   1.437   2.856  0.2359  0.4618  0.1195
  443MOL0     C59690   7.593   1.463   2.702  0.3480 -0.9101  0.2778
  443MOL0     C59691   7.722   1.409   2.623  0.1761  0.0785 -0.2289
  443MOL0     C59692   7.710   1.418   2.468 -0.8844  0.2609  0.4795
  443MOL0     C59693   7.706   1.566   2.410  1.3546  1.2097  1.2503
  443MOL0     O59694   7.783   1.652   2.489 -0.1727  0.1517 -0.2411
  443MOL0     C59695   7.804   1.775   2.436  0.3216 -0.3462 -0.0319
  443MOL0     C59696   7.922   1.840   2.469  0.1832 -0.4971  0.9597
  443MOL0     C59697   7.954   1.964   2.411 -0.3019  0.7393 -1.0723
  443MOL0     C59698   7.863   2.031   2.325 -0.7835  0.0742 -0.8775
  443MOL0     C59699   7.899   2.169   2.272  0.1420  0.4315 -0.2689
  443MOL0     O59700   7.787   2.232   2.219  0.8923  0.4612 -0.4345
  443MOL0     C59701   7.790   2.348   2.136  0.5366 -0.8121  0.1342
  443MOL0     C59702   7.890   2.441   2.127  0.0238  0.0326 -0.0654
  443MOL0     C59703   7.886   2.552   2.041  0.4627  0.4927 -0.1101
  443MOL0     C59704   7.771   2.587   1.970  0.3539 -0.6333  0.3134
  443MOL0     O59705   7.767   2.692   1.880  0.6556 -0.1979  0.0382
  443MOL0     C59706   7.666   2.794   1.899  0.6283  0.2191 -0.2011
  443MOL0     C59707   7.696   2.886   2.014 -0.4307  0.2191  0.4238
  443MOL0     C59708   7.573   2.984   2.043 -0.3422  0.2493 -0.2568
  443MOL0     C59709   7.598   3.088   2.150 -0.8474  0.1023 -0.5530
  443MOL0     C59710   7.483   3.175   2.189  1.0506 -0.4395 -0.3430
  443MOL0     C59711   7.341   3.119   2.193 -0.0430  0.5043  0.5541
  443MOL0     C59712   7.239   3.186   2.278  0.1989  0.0568  0.1832
  443MOL0     C59713   7.191   3.129   2.408 -0.1483 -0.3680 -0.8480
  443MOL0    Cl59714   7.052   3.014   2.389 -0.2086  0.1397 -0.1196
  443MOL0     C59715   7.667   2.497   1.981  0.2283  0.5100 -0.7877
  443MOL0     C59716   7.675   2.381   2.063 -0.0769  0.4873  0.8782
  443MOL0     O59717   8.008   2.206   2.258 -0.1010 -0.3482  0.2497
  443MOL0     C59718   7.742   1.970   2.307  0.5296  0.7873 -0.6257
  443MOL0     C59719   7.714   1.844   2.357 -0.5310  0.2353 -0.9151
  443MOL0     N59720   7.689   1.394   2.944 -0.0522 -0.3822 -0.0219
  443MOL0     N59721   7.642   1.369   3.057 -0.1212  0.2178 -0.2598
  443MOL0     C59722   6.979   1.972   2.627 -0.4640  0.2575 -0.2655
  443MOL0     C59723   6.980   2.023   2.493  0.0445  0.0477 -0.0483
  443MOL0     C59724   6.851   1.983   2.039 -0.0990 -0.3896 -0.7321
  443MOL0     C59725   6.985   1.970   1.997 -0.4058 -0.0404 -0.0456
  443MOL0     C59726   7.023   2.015   1.875  0.1426  0.5009 -0.4224
  443MOL0     C59727   6.919   2.064   1.786 -0.0607 -0.4599 -0.6942
  443MOL0     O59728   6.950   2.135   1.669 -0.1612 -0.4282  0.0334
  443MOL0     C59729   7.086   2.137   1.615 -0.2019 -1.0428  0.5047
  443MOL0     C59730   7.177   2.232   1.688  0.0643 -0.7148  0.3478
  443MOL0     C59731   7.097   2.368   1.726  0.3492  0.6287 -0.5715
  443MOL0     C59732   7.041   2.443   1.603 -0.0435 -0.9263 -0.7713
  443MOL0     C59733   7.140   2.452   1.501  0.8509 -0.1891  0.1540
  443MOL0     C59734   7.211   2.462   1.405  0.0357  0.8915 -1.0749
  443MOL0     C59735   6.784   2.054   1.819  0.1287 -0.5628 -0.4668
  443MOL0     C59736   6.750   2.014   1.951 -0.3305 -0.5209 -0.7135
  443MOL0     C59737   6.606   1.993   1.980  0.6771 -0.0541  0.0686
  443MOL0     H59738   6.860   1.732   2.356 -2.5012 -0.2755  0.9917
  443MOL0     H59739   6.856   1.662   2.595 -2.1921  1.5606  0.7075
  443MOL0     H59740   7.018   1.965   2.906  1.3026 -2.5646 -3.1713
  443MOL0     H59741   6.842   1.969   2.897  1.1642  1.6706 -3.2031
  443MOL0     H59742   6.819   1.782   3.050 -0.1741  0.7763  3.0412
  443MOL0     H59743   6.904   1.919   3.109 -1.1063 -0.3559 -0.7539
  443MOL0     H59744   7.043   1.681   2.991  2.9234  5.4413 -2.8232
  443MOL0     H59745   6.979   1.666   3.155 -0.0466 -2.6144 -1.0208
  443MOL0     H59746   7.202   1.866   3.078  0.1436 -1.0716  0.8783
  443MOL0     H59747   7.106   1.881   3.218 -0.7052  0.0728  0.0038
  443MOL0     H59748   7.322   1.737   3.267 -0.2260  0.8649  0.6423
  443MOL0     H59749   7.159   1.660   3.301  0.4217 -4.9670 -1.2137
  443MOL0     H59750   7.189   1.535   3.081 -0.7143  2.7529 -1.1277
  443MOL0     H59751   7.345   1.617   3.066 -0.0074  1.3097  0.2866
  443MOL0     H59752   7.289   1.441   3.304 -1.3749  2.5398  1.5235
  443MOL0     H59753   7.436   1.534   3.261  0.7508 -0.3020 -2.0863
  443MOL0     H59754   7.458   1.298   3.215 -0.6105 -0.8539 -0.5246
  443MOL0     H59755   7.325   1.320   3.099  1.3180 -0.0333 -0.5080
  443MOL0     H59756   7.375   1.445   2.873 -0.8112  1.6429 -0.4286
  443MOL0     H59757   7.504   1.430   2.648  2.1440  0.7606 -4.1698
  443MOL0     H59758   7.602   1.572   2.691  1.4079 -0.9026  1.0567
  443MOL0     H59759   7.805   1.470   2.661 -1.1719  1.7988  0.0668
  443MOL0     H59760   7.745   1.303   2.639 -0.7062 -1.1255 -5.2823
  443MOL0     H59761   7.617   1.366   2.442 -1.6076  0.4804  2.4799
  443MOL0     H59762   7.790   1.372   2.410 -0.2881  2.0267 -0.1732
  443MOL0     H59763   7.599   1.586   2.420  1.4077  1.3237  1.6343
  443MOL0     H59764   7.740   1.567   2.306  0.6356  1.7405  1.0160
  443MOL0     H59765   8.001   1.794   2.527 -1.4102 -0.7984  3.0093
  443MOL0     H59766   8.040   2.022   2.443 -0.1768 -0.4117  0.8095
  443MOL0     H59767   7.979   2.429   2.187  0.8946  2.4076 -0.7616
  443MOL0     H59768   7.971   2.619   2.043  2.3002 -1.7359  0.2534
  443MOL0     H59769   7.650   2.851   1.807  4.6815  0.9711 -0.6491
  443MOL0     H59770   7.570   2.748   1.921 -0.2927  2.6001  1.1284
  443MOL0     H59771   7.730   2.831   2.102  1.2987 -2.1583 -1.5807
  443MOL0     H59772   7.789   2.939   1.989 -2.5344  3.2516 -1.8262
  443MOL0     H59773   7.540   3.020   1.945  0.7389  0.1307 -0.6851
  443MOL0     H59774   7.494   2.919   2.081  0.7012 -0.2350  1.1690
  443MOL0     H59775   7.680   3.154   2.121  0.2808 -1.4730 -1.0213
  443MOL0     H59776   7.624   3.037   2.243 -2.4068 -2.3890 -1.3786
  443MOL0     H59777   7.479   3.252   2.112  0.4380  0.3567  0.4705
  443MOL0     H59778   7.503   3.229   2.282 -3.0139  1.2824 -0.2886
  443MOL0     H59779   7.305   3.110   2.090  2.9943 -2.5821 -0.4232
  443MOL0     H59780   7.366   3.019   2.231  2.2091  0.9363  0.3630
  443MOL0     H59781   7.149   3.196   2.218 -0.6743  0.2305  1.4730
  443MOL0     H59782   7.276   3.288   2.292  0.9865  0.0241 -1.4532
  443MOL0     H59783   7.266   3.088   2.476  1.2357  0.4008 -1.8734
  443MOL0     H59784   7.147   3.213   2.463 -0.1252  0.7406 -2.4668
  443MOL0     H59785   7.572   2.516   1.932 -2.1748 -0.2232  3.1682
  443MOL0     H59786   7.586   2.319   2.062  0.1443  0.0975 -1.9190
  443MOL0     H59787   7.660   2.013   2.251  2.2669  2.6974 -1.8572
  443MOL0     H59788   7.623   1.798   2.320  0.3790 -3.1331  0.5591
  443MOL0     H59789   7.015   2.046   2.697 -1.3694  1.0936 -0.6499
  443MOL0     H59790   7.030   2.118   2.479  1.5612 -0.5435  1.0324
  443MOL0     H59791   7.057   1.928   2.066 -0.5855 -1.4048 -0.6620
  443MOL0     H59792   7.126   2.002   1.843 -0.0034 -1.5296 -0.1470
  443MOL0     H59793   7.074   2.168   1.511 -1.0647 -3.2542 -0.1267
  443MOL0     H59794   7.124   2.034   1.620  2.7032 -0.0864  0.0368
  443MOL0     H59795   7.260   2.250   1.618 -0.9610  1.2111 -0.4371
  443MOL0     H59796   7.219   2.174   1.770  0.5415 -2.1809 -0.8712
  443MOL0     H59797   7.155   2.434   1.791 -1.9158  0.4624  1.7888
  443MOL0     H59798   7.014   2.336   1.789 -0.1811  3.4517  0.2637
  443MOL0     H59799   6.955   2.382   1.572 -1.4012  0.9734 -0.9221
  443MOL0     H59800   6.988   2.536   1.624 -2.8412 -2.5903  0.1135
  443MOL0     H59801   7.274   2.466   1.318  2.2989  1.7131  0.4979
  443MOL0     H59802   6.715   2.086   1.741  1.7280 -1.5268 -2.3599
  443MOL0     H59803   6.544   1.984   1.891  0.7619 -2.7741  0.1899
  443MOL0     H59804   6.588   1.901   2.036 -2.4070  1.1313  1.2266
  443MOL0     H59805   6.577   2.074   2.046 -1.8887 -0.3519 -0.6010
  444MOL0     O59806   8.072   9.922   8.944 -0.6029  0.0388 -0.0128
  444MOL0     C59807   8.118   9.823   8.890  0.2048  0.2574 -0.6529
  444MOL0     O59808   8.040   9.722   8.830 -0.2533 -0.3678  0.2016
  444MOL0     C59809   7.908   9.737   8.807  0.1260  0.6840  0.3702
  444MOL0     C59810   7.828   9.759   8.918  0.7153  0.7186 -0.4818
  444MOL0     C59811   7.688   9.781   8.898  0.3172 -0.1652  1.0411
  444MOL0     C59812   7.628   9.773   8.765 -0.5025  0.4620  0.5883
  444MOL0     O59813   7.498   9.802   8.738  0.8100 -0.0457  0.8218
  444MOL0     C59814   7.460   9.848   8.604 -0.6301  0.2069  0.2472
  444MOL0     C59815   7.328   9.919   8.635 -0.0326 -0.6950  0.4943
  444MOL0     C59816   7.257   9.945   8.497 -1.2719  0.1429 -0.4803
  444MOL0     C59817   7.134  10.044   8.505  0.1648  0.2469 -0.8466
  444MOL0     C59818   7.105  10.097   8.369 -1.2586 -0.1190 -0.2304
  444MOL0     C59819   6.993  10.209   8.358 -0.6572 -0.3623  0.0107
  444MOL0     C59820   6.893  10.189   8.241 -0.6103  0.1092 -0.4680
  444MOL0     C59821   6.835  10.323   8.195  0.1185 -0.1860  0.4575
  444MOL0     N59822   6.750  10.302   8.077 -0.4024 -0.1885  0.1139
  444MOL0     C59823   6.613  10.294   8.081 -0.2671  0.7163  0.0023
  444MOL0     C59824   6.573  10.254   7.954 -0.8766  0.6408 -0.3737
  444MOL0     C59825   6.430  10.229   7.913 -0.5085  0.0384  0.3860
  444MOL0     C59826   6.317  10.288   7.997 -0.1716  0.0848  0.0094
  444MOL0     C59827   6.297  10.433   7.974 -1.0127 -0.4931 -0.1659
  444MOL0     C59828   6.257  10.486   7.833  0.1168  0.6607  0.1190
  444MOL0     O59829   6.377  10.528   7.773  0.3078 -0.5573  0.2934
  444MOL0     C59830   6.378  10.546   7.634 -0.4648 -1.2528 -0.7650
  444MOL0     C59831   6.493  10.519   7.572  0.1771 -0.7694 -0.5453
  444MOL0     C59832   6.493  10.531   7.436  0.6243 -0.2500  0.7063
  444MOL0     C59833   6.377  10.558   7.353 -0.4934  0.4616  0.2196
  444MOL0     C59834   6.382  10.579   7.208 -0.4970  0.3879 -0.2569
  444MOL0     O59835   6.510  10.584   7.146  0.9486 -0.1602 -0.1484
  444MOL0     C59836   6.534  10.615   7.015  0.5600  0.2945 -0.1220
  444MOL0     C59837   6.468  10.724   6.951 -0.0810 -0.3637 -0.6770
  444MOL0     C59838   6.501  10.763   6.827 -0.4770 -0.2383  0.1545
  444MOL0     C59839   6.604  10.696   6.757 -0.3488 -1.0398 -0.7557
  444MOL0     O59840   6.630  10.748   6.636  0.1259 -0.0325  1.2597
  444MOL0     C59841   6.700  10.678   6.538 -0.1252 -0.4137  0.5065
  444MOL0     C59842   6.593  10.618   6.442 -0.6483 -0.0088 -0.4279
  444MOL0     C59843   6.517  10.735   6.374  0.5599  0.1708  0.4280
  444MOL0     C59844   6.380  10.764   6.437  0.3407  0.9637 -0.1653
  444MOL0     C59845   6.335  10.895   6.378 -0.0189 -0.9756 -0.5605
  444MOL0     C59846   6.184  10.925   6.388 -0.1231 -0.4653  0.1433
  444MOL0     C59847   6.130  11.052   6.313  0.5029 -0.0923  0.4577
  444MOL0     C59848   5.978  11.039   6.292 -0.6891 -0.3575 -0.3982
  444MOL0    Cl59849   5.882  11.188   6.223  0.0912  0.1047  0.1742
  444MOL0     C59850   6.666  10.588   6.818  0.1029 -0.5717 -0.1162
  444MOL0     C59851   6.632  10.547   6.948  0.3284  0.3998 -0.0484
  444MOL0     O59852   6.276  10.596   7.152 -0.7714 -0.1359  0.8363
  444MOL0     C59853   6.253  10.563   7.420 -0.0400  0.8090  0.1416
  444MOL0     C59854   6.257  10.574   7.560 -0.6229  0.8078  0.4269
  444MOL0     N59855   6.692  10.248   7.874  0.6026 -0.4375  1.1330
  444MOL0     N59856   6.794  10.271   7.952  0.8085  0.9930 -0.5374
  444MOL0     C59857   7.712   9.735   8.664  0.3906 -0.1730  0.5785
  444MOL0     C59858   7.855   9.733   8.679  0.0403  0.0460 -0.2038
  444MOL0     C59859   8.263   9.805   8.883 -0.2317 -0.1062  0.1574
  444MOL0     C59860   8.318   9.688   8.935 -0.6946  0.6591  0.3192
  444MOL0     C59861   8.450   9.666   8.929 -0.3060  0.3419 -0.0660
  444MOL0     C59862   8.537   9.762   8.887 -0.1080  0.2240 -0.5062
  444MOL0     O59863   8.677   9.772   8.886  0.5571 -0.4374 -0.0161
  444MOL0     C59864   8.747   9.689   8.978 -0.7431 -0.4034  0.5651
  444MOL0     C59865   8.900   9.724   8.968  0.1995 -0.1457 -0.3135
  444MOL0     C59866   8.942   9.836   9.071  0.9414  0.5857  0.5095
  444MOL0     C59867   9.080   9.894   9.033  0.0642 -0.4725 -0.2405
  444MOL0     C59868   9.085   9.993   8.921  1.3601 -0.5036 -0.1321
  444MOL0     C59869   9.096  10.070   8.824  0.6613 -0.6432 -0.5930
  444MOL0     C59870   8.485   9.880   8.840 -0.8879  1.1421  0.2201
  444MOL0     C59871   8.351   9.911   8.836  0.1065  0.4799 -0.1568
  444MOL0     C59872   8.308  10.037   8.765  0.6396  0.2622  1.7176
  444MOL0     H59873   7.877   9.793   9.008 -2.3047  1.5816  0.9915
  444MOL0     H59874   7.621   9.817   8.976 -0.1802  2.8702 -0.6245
  444MOL0     H59875   7.538   9.912   8.561 -0.0655 -0.8642 -0.3633
  444MOL0     H59876   7.428   9.761   8.546 -0.9141 -1.2647  2.4867
  444MOL0     H59877   7.358  10.007   8.694 -2.3733  0.6501 -0.1852
  444MOL0     H59878   7.266   9.870   8.711  1.3801  0.1662  2.2688
  444MOL0     H59879   7.239   9.841   8.465 -1.3469  0.8396 -2.8838
  444MOL0     H59880   7.329   9.979   8.423  0.4501 -2.9612 -0.3906
  444MOL0     H59881   7.045   9.995   8.547 -0.6176 -0.3694 -3.0855
  444MOL0     H59882   7.150  10.122   8.581  0.5813 -0.7518  0.1196
  444MOL0     H59883   7.199  10.143   8.337 -1.1838  0.0706  0.2500
  444MOL0     H59884   7.076  10.013   8.306 -0.9739 -0.2606 -0.1770
  444MOL0     H59885   6.951  10.243   8.453 -2.1283 -0.0576 -0.7120
  444MOL0     H59886   7.043  10.298   8.320 -0.3164 -0.2950  0.6174
  444MOL0     H59887   6.810  10.126   8.275 -0.0929 -1.1343 -1.4650
  444MOL0     H59888   6.941  10.145   8.153 -3.1728 -0.3972 -1.7223
  444MOL0     H59889   6.778  10.374   8.274 -2.5868  3.0116 -3.1783
  444MOL0     H59890   6.903  10.401   8.160 -0.9428  0.4449 -0.2695
  444MOL0     H59891   6.553  10.304   8.172  1.0327  4.7525  0.6300
  444MOL0     H59892   6.427  10.276   7.814 -1.0500  1.1045  0.8877
  444MOL0     H59893   6.413  10.122   7.900 -0.5597  0.0003  0.7753
  444MOL0     H59894   6.226  10.231   7.972 -0.4900  0.2355  0.7959
  444MOL0     H59895   6.343  10.271   8.102  2.6722  2.8676 -0.0943
  444MOL0     H59896   6.386  10.484   8.013  0.3737 -1.8737 -1.3729
  444MOL0     H59897   6.216  10.463   8.041 -1.9131  1.2252 -1.9197
  444MOL0     H59898   6.197  10.576   7.845  0.6307  1.0029  0.1581
  444MOL0     H59899   6.211  10.403   7.778  2.2061 -0.9803  0.7144
  444MOL0     H59900   6.578  10.482   7.628  0.6775 -2.4002 -2.2629
  444MOL0     H59901   6.590  10.519   7.388 -0.5633 -0.4808 -1.8486
  444MOL0     H59902   6.389  10.776   7.004  1.1508  0.1943  0.6625
  444MOL0     H59903   6.449  10.831   6.759  0.0771  0.3605  0.3280
  444MOL0     H59904   6.767  10.747   6.487  1.0218 -2.5618 -1.0438
  444MOL0     H59905   6.766  10.605   6.585  0.6319  0.9096  1.5578
  444MOL0     H59906   6.645  10.565   6.362  1.3936  0.8431  0.2759
  444MOL0     H59907   6.521  10.548   6.485 -1.5732  0.3436 -1.3444
  444MOL0     H59908   6.576  10.826   6.391  0.7180  0.2924 -0.6543
  444MOL0     H59909   6.512  10.719   6.266 -2.0102 -1.4256  0.7198
  444MOL0     H59910   6.399  10.763   6.544  2.0886 -0.0411 -0.4472
  444MOL0     H59911   6.313  10.680   6.413 -0.9747  3.0912 -5.3563
  444MOL0     H59912   6.358  10.897   6.271 -0.1502 -1.7677 -0.6092
  444MOL0     H59913   6.391  10.978   6.422  0.8105 -0.5238 -2.3652
  444MOL0     H59914   6.133  10.832   6.362 -0.2970 -0.5676  0.8151
  444MOL0     H59915   6.161  10.964   6.488 -0.8423 -1.2641  0.3054
  444MOL0     H59916   6.182  11.049   6.216 -1.8610 -0.8657 -0.8653
  444MOL0     H59917   6.152  11.146   6.364 -1.5979 -0.6547  2.5947
  444MOL0     H59918   5.964  10.952   6.228 -2.9335 -0.9003  0.7474
  444MOL0     H59919   5.933  11.019   6.390 -0.1492 -2.6245 -0.5760
  444MOL0     H59920   6.754  10.547   6.770 -0.4270  2.2521 -4.0081
  444MOL0     H59921   6.683  10.465   6.998  1.6328  0.0881 -1.7747
  444MOL0     H59922   6.154  10.578   7.377 -0.3441  3.0292  1.4975
  444MOL0     H59923   6.168  10.592   7.618 -1.3059 -0.2695 -0.2531
  444MOL0     H59924   7.680   9.725   8.561  0.0153 -0.5703  0.7313
  444MOL0     H59925   7.926   9.730   8.598  2.5363  1.3224  1.7876
  444MOL0     H59926   8.263   9.599   8.964 -1.3101  0.4417 -1.4339
  444MOL0     H59927   8.491   9.577   8.974  3.5961  1.2378 -1.4551
  444MOL0     H59928   8.724   9.584   8.959  1.2348 -0.4097 -2.5586
  444MOL0     H59929   8.711   9.706   9.080 -1.6095  1.5095  0.0013
  444MOL0     H59930   8.917   9.748   8.863  1.0718 -2.9295 -0.8768
  444MOL0     H59931   8.964   9.638   8.989 -0.4156 -0.0303  2.3873
  444MOL0     H59932   8.945   9.792   9.171  1.6869 -0.6097 -0.0214
  444MOL0     H59933   8.874   9.920   9.056  1.6530  1.0826 -0.0449
  444MOL0     H59934   9.114   9.956   9.116 -1.9803  2.3780 -1.3520
  444MOL0     H59935   9.157   9.819   9.012 -0.7178 -1.1544 -0.7249
  444MOL0     H59936   9.110  10.133   8.739 -0.0180 -1.0094 -0.9825
  444MOL0     H59937   8.554   9.959   8.814  0.7186 -0.2777  0.0249
  444MOL0     H59938   8.212  10.020   8.715  1.4944  1.0529 -0.2998
  444MOL0     H59939   8.314  10.131   8.821  3.0657  0.6489  0.9188
  444MOL0     H59940   8.371  10.051   8.677  0.5644 -1.7680  1.2927
  445MOL0     O59941  10.062  10.212   5.026  0.1922  0.4059 -0.0428
  445MOL0     C59942   9.946  10.249   5.028  0.0089  0.4516 -0.2895
  445MOL0     O59943   9.908  10.387   5.024  0.2643  0.8395 -0.0374
  445MOL0     C59944  10.006  10.481   5.000  0.6561 -0.1449  0.5755
  445MOL0     C59945  10.077  10.472   4.879  1.2411  0.3882  0.2464
  445MOL0     C59946  10.191  10.547   4.861 -1.2706 -0.0911  0.3629
  445MOL0     C59947  10.232  10.635   4.952  1.3253 -0.0635 -0.3886
  445MOL0     O59948  10.354  10.704   4.946 -0.8219 -0.1617 -0.0491
  445MOL0     C59949  10.474  10.620   4.943  0.2528 -0.5901  0.5604
  445MOL0     C59950  10.549  10.642   5.069 -0.0944 -0.4611 -0.6637
  445MOL0     C59951  10.700  10.623   5.043  0.3695  1.0964  0.9520
  445MOL0     C59952  10.774  10.637   5.174  0.4002 -0.2475 -0.0214
  445MOL0     C59953  10.925  10.628   5.175 -0.2456  0.4751  0.0816
  445MOL0     C59954  10.974  10.482   5.146 -0.0381 -0.6461 -0.5454
  445MOL0     C59955  11.126  10.465   5.170  0.5580 -0.2239  0.0909
  445MOL0     C59956  11.189  10.351   5.090  0.2152 -0.6980  0.0825
  445MOL0     N59957  11.228  10.390   4.951  0.3328 -0.1256 -0.0455
  445MOL0     C59958  11.279  10.303   4.862 -0.1178  0.6871  0.3753
  445MOL0     C59959  11.262  10.354   4.744 -0.0299 -0.6762  1.1698
  445MOL0     C59960  11.299  10.295   4.607 -0.1731 -0.0156 -0.3989
  445MOL0     C59961  11.208  10.174   4.571  0.1747  0.5341 -0.1023
  445MOL0     C59962  11.249  10.040   4.642 -0.4018 -0.6292  0.2297
  445MOL0     C59963  11.183   9.918   4.575 -0.3149 -0.2535 -0.2509
  445MOL0     O59964  11.217   9.786   4.626 -0.1933 -0.3473  0.6038
  445MOL0     C59965  11.137   9.681   4.593  0.8376 -0.5166 -0.0975
  445MOL0     C59966  10.998   9.685   4.632 -0.1908 -0.6115  0.6267
  445MOL0     C59967  10.916   9.580   4.592  0.0201 -1.0003 -0.5088
  445MOL0     C59968  10.967   9.475   4.520 -0.0801 -1.2014 -0.5853
  445MOL0     C59969  10.888   9.367   4.459 -0.1388 -0.5032  1.0857
  445MOL0     O59970  10.749   9.375   4.472  0.3019 -0.4613  0.0117
  445MOL0     C59971  10.672   9.280   4.414 -0.5139  0.0149 -0.7717
  445MOL0     C59972  10.692   9.138   4.434  0.4242  0.3757 -0.4269
  445MOL0     C59973  10.650   9.049   4.334 -0.8459  0.4153  0.0790
  445MOL0     C59974  10.571   9.087   4.222  0.2807 -0.7275  0.5036
  445MOL0     O59975  10.547   8.989   4.124  0.2377 -0.1116  0.6514
  445MOL0     C59976  10.467   9.034   4.014  0.4365 -0.5261  0.7940
  445MOL0     C59977  10.430   8.919   3.927 -0.6795  0.4586  0.0098
  445MOL0     C59978  10.301   8.848   3.956 -0.5550  0.2271 -0.1138
  445MOL0     C59979  10.245   8.790   3.828  0.1759  1.0921  0.0414
  445MOL0     C59980  10.118   8.705   3.874  0.0737  0.7773 -0.0511
  445MOL0     C59981  10.063   8.617   3.767  0.5459 -0.1799  0.0433
  445MOL0     C59982  10.045   8.677   3.623  0.5571 -0.4825 -0.0689
  445MOL0     C59983   9.966   8.585   3.530 -0.4760  0.6110 -0.4619
  445MOL0    Cl59984  10.043   8.426   3.533  0.2939 -0.0597  0.6770
  445MOL0     C59985  10.548   9.225   4.202 -0.6715 -0.0300 -0.1787
  445MOL0     C59986  10.596   9.314   4.300 -0.2738 -0.1977 -0.3813
  445MOL0     O59987  10.941   9.283   4.394  0.3274  0.0496 -1.0982
  445MOL0     C59988  11.102   9.467   4.499  0.2436 -0.3426 -0.2930
  445MOL0     C59989  11.189   9.568   4.548  0.6388 -0.1918  0.3428
  445MOL0     N59990  11.219  10.477   4.761  0.0612 -0.8643  0.5625
  445MOL0     N59991  11.192  10.495   4.881  0.3424  0.1897 -0.2797
  445MOL0     C59992  10.154  10.646   5.071  0.2032 -0.0507  0.0096
  445MOL0     C59993  10.040  10.579   5.096 -0.3020  0.4233  0.6460
  445MOL0     C59994   9.835  10.139   5.038 -0.6993 -0.0416  0.8528
  445MOL0     C59995   9.731  10.121   4.931 -0.2296 -0.6136 -0.2057
  445MOL0     C59996   9.635  10.023   4.942  0.3599 -0.8768 -0.3595
  445MOL0     C59997   9.632   9.941   5.049  0.3433  0.0429 -0.0681
  445MOL0     O59998   9.547   9.836   5.037  0.5728 -0.2122  0.3029
  445MOL0     C59999   9.539   9.730   5.132  0.4194  0.5142  0.5170
  445MOL0     C60000   9.466   9.606   5.070 -0.9064 -0.0734 -0.6243
  445MOL0     C60001   9.539   9.564   4.943 -0.3019  0.0927 -1.6625
  445MOL0     C60002   9.448   9.468   4.862  0.3653 -0.0296  0.1587
  445MOL0     C60003   9.344   9.528   4.780 -0.7033 -0.3929 -0.1729
  445MOL0     C60004   9.237   9.578   4.735 -0.2072  1.2150 -0.6732
  445MOL0     C60005   9.727   9.951   5.153 -0.3250  0.0386 -0.5018
  445MOL0     C60006   9.824  10.053   5.153 -0.3800 -0.4069  0.8175
  445MOL0     C60007   9.933  10.040   5.255 -0.3247  0.3957 -0.9576
  445MOL0     H60008  10.035  10.424   4.791 -1.3010  2.7349  0.0605
  445MOL0     H60009  10.251  10.527   4.773  1.1301 -3.2844  2.5101
  445MOL0     H60010  10.469  10.511   4.933  2.8353 -0.9304  1.9647
  445MOL0     H60011  10.524  10.661   4.854 -0.1895 -1.3732 -0.0737
  445MOL0     H60012  10.517  10.569   5.145 -1.3226 -0.9154 -1.5954
  445MOL0     H60013  10.534  10.744   5.105 -2.8863 -1.1905  0.5102
  445MOL0     H60014  10.733  10.698   4.972  0.9782  1.4727  1.6216
  445MOL0     H60015  10.730  10.522   5.014 -0.8514  0.5483  1.4849
  445MOL0     H60016  10.742  10.734   5.211  0.9180 -1.3421  3.6937
  445MOL0     H60017  10.736  10.574   5.255 -0.2943  2.0366  1.5253
  445MOL0     H60018  10.981  10.686   5.101  4.0653  1.5720  3.7401
  445MOL0     H60019  10.966  10.676   5.264  2.6132  0.5934 -1.1935
  445MOL0     H60020  10.926  10.411   5.216  0.5405 -2.3491 -1.8115
  445MOL0     H60021  10.940  10.438   5.052 -2.0207 -0.1228 -0.1322
  445MOL0     H60022  11.150  10.462   5.277 -2.2532 -2.1214  0.8132
  445MOL0     H60023  11.176  10.557   5.142 -3.8928  2.9219  1.3184
  445MOL0     H60024  11.279  10.323   5.145 -1.9771 -0.2783  4.2963
  445MOL0     H60025  11.125  10.264   5.106 -1.8615  1.1153  2.5061
  445MOL0     H60026  11.324  10.207   4.886  1.5044  2.0325  3.2984
  445MOL0     H60027  11.290  10.380   4.539  2.1974  1.3454  0.8613
  445MOL0     H60028  11.403  10.261   4.604  0.2475  0.9947  1.2871
  445MOL0     H60029  11.107  10.197   4.605  0.2713 -0.1112  0.6553
  445MOL0     H60030  11.208  10.167   4.462 -5.5214  2.6719 -0.5383
  445MOL0     H60031  11.212  10.053   4.744 -4.8054 -1.4787 -1.0658
  445MOL0     H60032  11.359  10.039   4.642 -0.3401 -3.8930 -0.3109
  445MOL0     H60033  11.204   9.920   4.468 -1.4662  0.0872 -0.4810
  445MOL0     H60034  11.074   9.925   4.574 -0.6123 -3.3529 -0.7152
  445MOL0     H60035  10.950   9.773   4.676  0.1665  0.8503 -1.7449
  445MOL0     H60036  10.811   9.571   4.619  0.8850 -1.7435  3.0919
  445MOL0     H60037  10.753   9.097   4.515 -3.7286  0.1561  2.9271
  445MOL0     H60038  10.676   8.943   4.338 -1.0595  0.3264 -0.6687
  445MOL0     H60039  10.377   9.089   4.043  0.0380 -0.0552 -1.1790
  445MOL0     H60040  10.520   9.107   3.952 -0.9409 -2.0750 -2.4542
  445MOL0     H60041  10.421   8.951   3.823 -1.4273 -3.6583 -1.3561
  445MOL0     H60042  10.519   8.856   3.925  1.6151  3.4693 -1.3115
  445MOL0     H60043  10.341   8.779   4.030  1.3764  0.3094 -1.0313
  445MOL0     H60044  10.219   8.910   3.993 -0.5400 -0.0624  0.3987
  445MOL0     H60045  10.320   8.729   3.778 -0.4108  0.0602  0.3934
  445MOL0     H60046  10.214   8.870   3.760  0.6573 -0.3073 -1.9277
  445MOL0     H60047  10.042   8.777   3.907  0.5984  1.1185  0.4284
  445MOL0     H60048  10.141   8.644   3.962  3.5268 -0.2408 -1.5061
  445MOL0     H60049  10.126   8.527   3.764  3.7172  1.8768 -1.8224
  445MOL0     H60050   9.962   8.593   3.802  0.2645  0.3832 -0.3832
  445MOL0     H60051  10.140   8.705   3.576  0.5624 -0.0313  0.2097
  445MOL0     H60052   9.981   8.764   3.637  1.7616  0.7638 -1.8379
  445MOL0     H60053   9.865   8.569   3.570 -0.9372 -0.4493 -1.9783
  445MOL0     H60054   9.960   8.623   3.428 -0.9461  0.2329 -0.5752
  445MOL0     H60055  10.509   9.256   4.106  0.8451  0.8090 -0.5554
  445MOL0     H60056  10.587   9.420   4.283  3.6515  0.1930 -0.8918
  445MOL0     H60057  11.140   9.387   4.436 -0.4274 -2.2324  1.5683
  445MOL0     H60058  11.296   9.579   4.537  0.5296  2.7262  1.3699
  445MOL0     H60059  10.194  10.711   5.148  1.2350 -0.6299 -0.0242
  445MOL0     H60060   9.995  10.569   5.195  4.1373 -2.9864  2.6999
  445MOL0     H60061   9.727  10.173   4.836  2.9045  0.3835  0.1133
  445MOL0     H60062   9.573   9.991   4.859  1.8681 -1.0547 -1.4416
  445MOL0     H60063   9.482   9.757   5.222  2.8149 -1.7563  2.9203
  445MOL0     H60064   9.640   9.695   5.156  0.0196 -1.5814 -0.6066
  445MOL0     H60065   9.360   9.631   5.056 -1.2393 -0.0104  1.7251
  445MOL0     H60066   9.456   9.519   5.135 -0.6638 -1.6871 -2.6098
  445MOL0     H60067   9.631   9.518   4.980 -0.8317 -0.0391 -0.4666
  445MOL0     H60068   9.564   9.650   4.881  0.3169 -0.1611 -1.7690
  445MOL0     H60069   9.511   9.404   4.800 -0.3029 -0.3169 -0.2311
  445MOL0     H60070   9.407   9.401   4.937 -0.6103 -0.1015 -0.4270
  445MOL0     H60071   9.147   9.615   4.690 -1.5260 -0.5947  0.3462
  445MOL0     H60072   9.731   9.878   5.234 -0.5778  2.5160  1.8726
  445MOL0     H60073   9.891  10.000   5.348 -2.0973  2.8579 -0.5919
  445MOL0     H60074  10.004   9.972   5.206  2.6582  1.1234  2.0406
  445MOL0     H60075   9.982  10.133   5.285 -1.0585  0.6087 -0.3914
  446MOL0     O60076   8.922   3.621   7.962 -0.2205  0.2405  0.4472
  446MOL0     C60077   9.006   3.706   7.934  1.1934  0.3499  0.8482
  446MOL0     O60078   9.079   3.712   7.819 -0.9292  0.3878  0.2533
  446MOL0     C60079   9.050   3.620   7.717 -0.2641  0.0110 -0.6580
  446MOL0     C60080   9.161   3.574   7.652 -0.3338  0.3224  0.7048
  446MOL0     C60081   9.149   3.513   7.529  0.0289  0.4097 -0.9264
  446MOL0     C60082   9.015   3.498   7.472  0.6053  0.3090  0.8461
  446MOL0     O60083   8.985   3.439   7.349 -0.2577 -0.1129  0.4195
  446MOL0     C60084   9.048   3.316   7.330  0.5589  0.7596  0.2414
  446MOL0     C60085   8.962   3.213   7.404  0.1888  0.3214 -0.1679
  446MOL0     C60086   9.038   3.077   7.423  1.0769 -1.0353  0.0661
  446MOL0     C60087   9.143   3.076   7.539 -0.4456 -0.5474  0.3635
  446MOL0     C60088   9.175   2.933   7.596  0.3684 -0.1910  1.1682
  446MOL0     C60089   9.264   2.853   7.496 -0.5464  0.4218 -0.6093
  446MOL0     C60090   9.328   2.734   7.580 -0.8406  0.8230  0.0016
  446MOL0     C60091   9.424   2.658   7.486 -0.7528 -0.2813  0.0081
  446MOL0     N60092   9.553   2.736   7.482 -0.6939  0.0708  0.2055
  446MOL0     C60093   9.649   2.718   7.582 -0.0922 -0.7120  0.2048
  446MOL0     C60094   9.755   2.784   7.530 -0.5986 -0.1017  0.1368
  446MOL0     C60095   9.891   2.805   7.598 -0.0672  0.0105  0.2411
  446MOL0     C60096   9.949   2.668   7.622 -0.4315 -0.2576  0.6811
  446MOL0     C60097  10.071   2.659   7.711 -0.4725  0.6944  0.6255
  446MOL0     C60098  10.077   2.539   7.799 -1.0308  0.4146 -0.3844
  446MOL0     O60099  10.142   2.422   7.743 -0.2142 -0.1536 -0.1960
  446MOL0     C60100  10.283   2.429   7.733  0.7061  0.3934 -0.9424
  446MOL0     C60101  10.367   2.436   7.839 -0.6922 -0.6951  1.0379
  446MOL0     C60102  10.508   2.433   7.822  0.7077 -0.1337 -0.4914
  446MOL0     C60103  10.561   2.432   7.698 -0.4877 -0.1977 -0.2087
  446MOL0     C60104  10.711   2.426   7.680 -0.2599 -0.8023  0.2969
  446MOL0     O60105  10.794   2.409   7.782 -0.2143  0.2283 -1.0046
  446MOL0     C60106  10.933   2.427   7.788 -1.1493  0.7975 -1.1291
  446MOL0     C60107  11.007   2.494   7.693 -0.8380  0.4669 -0.7139
  446MOL0     C60108  11.147   2.482   7.693 -0.0262 -0.2422 -0.5197
  446MOL0     C60109  11.216   2.394   7.777  0.4763  0.5932  0.3508
  446MOL0     O60110  11.355   2.370   7.764  0.4662  0.2937  0.5212
  446MOL0     C60111  11.407   2.261   7.833 -0.6225  0.0651 -0.0912
  446MOL0     C60112  11.544   2.230   7.767  0.0845 -0.0459  0.1937
  446MOL0     C60113  11.596   2.099   7.819  0.3650 -0.2945  0.1112
  446MOL0     C60114  11.693   2.035   7.721  0.9410 -0.2210  0.2214
  446MOL0     C60115  11.771   1.915   7.784  0.4430  0.1943 -0.0905
  446MOL0     C60116  11.867   1.957   7.893 -0.5568  0.3441  0.0881
  446MOL0     C60117  11.979   1.856   7.914 -0.6819  0.8388 -0.5235
  446MOL0     C60118  12.098   1.913   7.990  0.0376 -0.6512 -0.3453
  446MOL0    Cl60119  12.226   1.792   7.980  0.1003 -0.2339 -0.3794
  446MOL0     C60120  11.142   2.319   7.872  0.5995 -0.7292  0.8401
  446MOL0     C60121  11.005   2.333   7.871  0.3733  0.1656  0.6373
  446MOL0     O60122  10.756   2.423   7.570 -1.1339 -0.3573  1.3321
  446MOL0     C60123  10.477   2.432   7.593  0.0794 -0.2090  0.4077
  446MOL0     C60124  10.332   2.428   7.607 -0.6056 -0.4404 -1.3449
  446MOL0     N60125   9.714   2.845   7.413  0.6551  0.4843  0.0961
  446MOL0     N60126   9.591   2.818   7.384  0.2175  0.6399  0.4354
  446MOL0     C60127   8.903   3.547   7.547 -0.6709 -0.5008 -0.7557
  446MOL0     C60128   8.919   3.603   7.669  0.2553  0.7649  0.1545
  446MOL0     C60129   9.043   3.805   8.037  0.3445  0.4800 -0.3206
  446MOL0     C60130   9.168   3.859   8.031  0.0514 -0.0650 -0.1444
  446MOL0     C60131   9.229   3.946   8.124  1.1389  0.2161 -0.3257
  446MOL0     C60132   9.154   3.988   8.236  0.3294 -0.5941  1.0624
  446MOL0     O60133   9.220   4.079   8.316  0.3596  0.0298 -0.0884
  446MOL0     C60134   9.148   4.128   8.424  0.0164 -1.1655  0.0782
  446MOL0     C60135   9.244   4.214   8.509 -0.7588  0.7186 -0.2115
  446MOL0     C60136   9.191   4.260   8.641 -0.0924 -0.3338 -0.4677
  446MOL0     C60137   9.096   4.389   8.630 -0.4352  0.0699  0.1293
  446MOL0     C60138   9.160   4.508   8.568 -0.4030  0.5704 -0.3657
  446MOL0     C60139   9.206   4.616   8.547  0.5418 -0.5599 -0.4833
  446MOL0     C60140   9.022   3.939   8.250 -0.3771 -0.3988  0.5099
  446MOL0     C60141   8.965   3.851   8.150 -0.6289  0.1129  0.0445
  446MOL0     C60142   8.823   3.796   8.177 -0.4051  1.5145  0.6977
  446MOL0     H60143   9.264   3.592   7.682  0.4732  1.2699 -2.2953
  446MOL0     H60144   9.239   3.484   7.477 -0.0967 -1.7844 -0.0213
  446MOL0     H60145   9.052   3.278   7.227  1.4687 -3.5313  1.6598
  446MOL0     H60146   9.149   3.293   7.362  1.8010  0.9114 -3.1534
  446MOL0     H60147   8.866   3.200   7.352 -1.3854  1.1736  2.3246
  446MOL0     H60148   8.926   3.253   7.499  0.0724  4.0613 -1.5954
  446MOL0     H60149   9.085   3.063   7.325 -1.9795  4.3378 -2.6883
  446MOL0     H60150   8.961   3.000   7.434  0.8790 -1.1472 -1.7617
  446MOL0     H60151   9.235   3.127   7.510 -2.2137  1.3463 -2.3975
  446MOL0     H60152   9.112   3.138   7.624  0.3640  2.1324 -1.1677
  446MOL0     H60153   9.230   2.936   7.691  1.8403 -2.3043  0.4521
  446MOL0     H60154   9.083   2.875   7.612 -0.6599  0.7519 -0.9139
  446MOL0     H60155   9.207   2.805   7.416 -0.5768 -0.9439  0.2012
  446MOL0     H60156   9.338   2.915   7.444 -0.6387 -0.3265 -1.6639
  446MOL0     H60157   9.241   2.669   7.596 -0.5589 -0.8014 -4.0393
  446MOL0     H60158   9.381   2.761   7.672  1.0314 -0.8124 -0.5292
  446MOL0     H60159   9.432   2.551   7.506 -3.7675 -1.1367 -2.4316
  446MOL0     H60160   9.390   2.660   7.382  0.6264 -0.2711 -0.4612
  446MOL0     H60161   9.624   2.662   7.672 -1.5969 -0.1738  0.1449
  446MOL0     H60162   9.966   2.857   7.537 -0.7641 -1.2530 -1.7943
  446MOL0     H60163   9.875   2.859   7.692 -1.0606 -1.8131  1.1902
  446MOL0     H60164   9.870   2.603   7.659 -0.2806 -1.0709 -0.3632
  446MOL0     H60165   9.974   2.628   7.523 -0.2418  0.0035  0.6221
  446MOL0     H60166  10.089   2.745   7.776  0.0223  1.7100 -0.7969
  446MOL0     H60167  10.166   2.650   7.657 -0.0857 -2.0802  1.5945
  446MOL0     H60168   9.976   2.507   7.829 -1.2597  1.6716  0.2255
  446MOL0     H60169  10.132   2.568   7.888 -0.1418  1.7318 -1.3288
  446MOL0     H60170  10.326   2.437   7.939  1.4079 -2.2408  1.9925
  446MOL0     H60171  10.558   2.428   7.918 -0.5722  3.4812  0.5018
  446MOL0     H60172  10.960   2.563   7.624 -0.5691  3.6368  2.0092
  446MOL0     H60173  11.213   2.543   7.633  1.5449 -1.5597 -0.2009
  446MOL0     H60174  11.412   2.277   7.941 -0.5398  0.6343 -0.1784
  446MOL0     H60175  11.333   2.183   7.810 -3.2193  2.8090 -1.8200
  446MOL0     H60176  11.527   2.215   7.660  2.6145 -2.6966  0.0668
  446MOL0     H60177  11.617   2.310   7.783  1.2072 -1.6111  3.8854
  446MOL0     H60178  11.638   2.124   7.917 -0.2045  2.6079 -0.2857
  446MOL0     H60179  11.509   2.039   7.845  0.6514 -1.2797 -1.1237
  446MOL0     H60180  11.764   2.113   7.693  0.0422  1.8926  3.3802
  446MOL0     H60181  11.645   1.992   7.633  1.5939  0.7195 -0.6177
  446MOL0     H60182  11.832   1.867   7.706 -0.2932 -3.7144  1.4972
  446MOL0     H60183  11.711   1.832   7.822  0.1434  0.1881 -0.5683
  446MOL0     H60184  11.916   2.042   7.845  1.3231 -0.8061 -0.1516
  446MOL0     H60185  11.814   1.998   7.979  1.2915  1.4337  0.7825
  446MOL0     H60186  12.010   1.815   7.817  0.1571 -2.4918  1.0019
  446MOL0     H60187  11.937   1.774   7.973 -1.9837  1.8000 -0.0610
  446MOL0     H60188  12.136   1.992   7.924  1.3304 -0.7201  0.2843
  446MOL0     H60189  12.077   1.957   8.088 -0.2284 -0.5262 -0.4565
  446MOL0     H60190  11.184   2.264   7.956  2.5034  3.8699  3.2733
  446MOL0     H60191  10.943   2.276   7.939  0.4245  0.0685  0.6026
  446MOL0     H60192  10.514   2.433   7.491 -2.3010  1.1508 -0.5268
  446MOL0     H60193  10.251   2.432   7.535 -2.1351 -2.1526  0.1568
  446MOL0     H60194   8.806   3.529   7.503 -0.3736  0.7301 -1.9398
  446MOL0     H60195   8.838   3.639   7.731  2.0903  0.5706  2.7999
  446MOL0     H60196   9.239   3.837   7.952 -2.6895  1.9366 -3.4552
  446MOL0     H60197   9.333   3.974   8.113  0.6321  1.5540 -2.1355
  446MOL0     H60198   9.122   4.037   8.478  1.8727 -2.0001 -0.3530
  446MOL0     H60199   9.061   4.190   8.400  0.5025  0.1623  1.5303
  446MOL0     H60200   9.275   4.303   8.454 -1.4108  1.3206  0.3746
  446MOL0     H60201   9.337   4.158   8.527 -0.2789  0.7714 -2.2627
  446MOL0     H60202   9.277   4.285   8.703 -2.4174  3.1406  1.6882
  446MOL0     H60203   9.148   4.177   8.698 -0.2859 -2.1442 -3.0710
  446MOL0     H60204   9.019   4.359   8.558 -0.0201 -0.4706 -0.0955
  446MOL0     H60205   9.059   4.418   8.729 -1.2374 -2.2185  0.5511
  446MOL0     H60206   9.236   4.708   8.501 -0.2769  0.9747  1.8549
  446MOL0     H60207   8.978   3.960   8.346 -2.0076  0.6295 -0.4144
  446MOL0     H60208   8.828   3.687   8.180  1.4515  1.4941 -1.1400
  446MOL0     H60209   8.775   3.842   8.264 -1.6990 -1.1144  1.4737
  446MOL0     H60210   8.763   3.828   8.091 -0.8428 -2.4942 -0.6651
  447MOL0     O60211   7.543   1.700   3.467 -0.5801  0.7937 -0.5247
  447MOL0     C60212   7.669   1.695   3.473  0.4736 -0.4327 -0.5869
  447MOL0     O60213   7.744   1.748   3.376  0.0899 -0.1680 -0.5514
  447MOL0     C60214   7.686   1.803   3.269  0.1671  0.3144 -0.5007
  447MOL0     C60215   7.646   1.935   3.265 -0.7079  0.8144  0.0604
  447MOL0     C60216   7.567   1.980   3.156 -0.2249  0.1505  0.6966
  447MOL0     C60217   7.532   1.906   3.045 -0.1285 -0.6141 -0.1787
  447MOL0     O60218   7.446   1.946   2.945 -0.1020  0.0764 -0.1761
  447MOL0     C60219   7.455   1.900   2.814 -0.7559  0.1094  1.1666
  447MOL0     C60220   7.348   1.966   2.737 -0.9233  0.3697  0.8130
  447MOL0     C60221   7.377   2.112   2.709  0.9446 -0.4684 -0.3382
  447MOL0     C60222   7.301   2.171   2.595 -0.2872 -0.3716  0.5394
  447MOL0     C60223   7.361   2.134   2.450  0.0156  0.6273  0.2931
  447MOL0     C60224   7.260   2.180   2.338  0.2923  0.0308 -0.3882
  447MOL0     C60225   7.310   2.184   2.197  0.2424  0.4791  0.7340
  447MOL0     C60226   7.233   2.268   2.092  0.5005  0.2053 -0.1911
  447MOL0     N60227   7.268   2.410   2.107 -0.0893 -0.2749 -0.0742
  447MOL0     C60228   7.227   2.499   2.203 -0.8720  0.9295 -0.3398
  447MOL0     C60229   7.274   2.618   2.176 -0.7955 -0.6670  0.5754
  447MOL0     C60230   7.231   2.736   2.244 -0.5472 -0.3443  0.2485
  447MOL0     C60231   7.300   2.748   2.383 -0.5387  0.2710  0.3854
  447MOL0     C60232   7.461   2.769   2.374 -0.3746  0.4623 -1.2394
  447MOL0     C60233   7.524   2.634   2.390 -0.4835  1.0150  0.3885
  447MOL0     O60234   7.662   2.656   2.400  0.2283 -0.0427  0.1682
  447MOL0     C60235   7.738   2.552   2.452 -0.6272  0.3688  1.3869
  447MOL0     C60236   7.696   2.413   2.457  0.2754 -0.0310  0.6554
  447MOL0     C60237   7.764   2.324   2.544 -0.5642  0.2430  0.6937
  447MOL0     C60238   7.891   2.358   2.599 -0.2436 -0.1452 -0.3920
  447MOL0     C60239   7.970   2.263   2.676 -0.0008  0.5245  0.0782
  447MOL0     O60240   7.898   2.157   2.711  0.7774  0.7625  0.0277
  447MOL0     C60241   7.948   2.059   2.789 -0.3397  0.3667  0.0155
  447MOL0     C60242   7.896   1.927   2.769  0.7130 -0.1899 -1.1915
  447MOL0     C60243   7.944   1.813   2.843  0.3199  0.1820  0.7241
  447MOL0     C60244   8.035   1.823   2.943 -0.4278  0.4555 -0.3471
  447MOL0     O60245   8.081   1.715   3.017  0.5481 -0.1400 -0.4375
  447MOL0     C60246   8.012   1.582   3.003 -1.1478 -0.2953 -0.3033
  447MOL0     C60247   8.076   1.471   3.089 -0.8919 -0.5867  0.2884
  447MOL0     C60248   8.065   1.507   3.233  0.0634  0.1242  0.1631
  447MOL0     C60249   8.057   1.385   3.316  0.4305  0.2786  0.8713
  447MOL0     C60250   8.059   1.439   3.462 -0.4934  0.2001 -0.0009
  447MOL0     C60251   8.021   1.344   3.574 -0.1697  0.1000  0.0670
  447MOL0     C60252   8.120   1.234   3.606  0.4142  0.1003  0.1524
  447MOL0     C60253   8.253   1.277   3.690  0.7845  0.2779 -0.1175
  447MOL0    Cl60254   8.368   1.160   3.694  0.0646 -0.0497 -0.2600
  447MOL0     C60255   8.092   1.948   2.957  0.3294 -0.2713  0.3600
  447MOL0     C60256   8.049   2.066   2.889 -0.0740 -0.3739  0.7898
  447MOL0     O60257   8.091   2.284   2.703 -0.0781  0.5106 -0.0936
  447MOL0     C60258   7.939   2.494   2.580 -0.9391 -1.1038 -0.1103
  447MOL0     C60259   7.867   2.578   2.498  0.5457  0.4982 -0.0101
  447MOL0     N60260   7.357   2.602   2.069 -0.0595  0.0828  0.4226
  447MOL0     N60261   7.347   2.481   2.024 -0.5050 -1.0358 -0.6235
  447MOL0     C60262   7.574   1.766   3.060  0.2379 -0.0378  0.0233
  447MOL0     C60263   7.654   1.718   3.159 -0.3215 -0.0214 -0.4686
  447MOL0     C60264   7.738   1.663   3.599 -0.5975  0.4384 -1.1327
  447MOL0     C60265   7.865   1.718   3.618  0.6565  0.3963 -0.2448
  447MOL0     C60266   7.938   1.703   3.734  1.2055  0.0023  0.3473
  447MOL0     C60267   7.886   1.621   3.835 -0.1557 -0.3702  0.3021
  447MOL0     O60268   7.950   1.593   3.954  0.3411 -0.0297  0.1926
  447MOL0     C60269   8.075   1.660   3.982 -0.4970  0.2532  0.0638
  447MOL0     C60270   8.109   1.608   4.124 -0.1391 -1.1074  0.1894
  447MOL0     C60271   8.251   1.651   4.157  0.4071 -0.6690  0.2571
  447MOL0     C60272   8.271   1.811   4.166  0.1685  0.4598 -0.2364
  447MOL0     C60273   8.410   1.841   4.201  0.9127  0.2832  0.1716
  447MOL0     C60274   8.523   1.867   4.231 -0.2465 -0.0226  0.0160
  447MOL0     C60275   7.760   1.566   3.816  1.3097 -0.1304  0.3683
  447MOL0     C60276   7.686   1.590   3.702  0.3828  0.0997  0.6214
  447MOL0     C60277   7.555   1.531   3.687  0.0854 -0.3546 -0.8687
  447MOL0     H60278   7.678   2.003   3.342  2.9789 -0.8964  0.2212
  447MOL0     H60279   7.519   2.077   3.158  0.3282  0.4192  2.2779
  447MOL0     H60280   7.550   1.912   2.763 -0.7266 -1.2465  0.8500
  447MOL0     H60281   7.444   1.791   2.811 -1.6017  0.1832  1.2384
  447MOL0     H60282   7.259   1.964   2.801 -2.1945  1.2644 -0.8243
  447MOL0     H60283   7.325   1.905   2.649 -1.8770 -0.5760  1.6816
  447MOL0     H60284   7.482   2.131   2.686  0.2632  0.9187 -2.6110
  447MOL0     H60285   7.344   2.168   2.797 -1.3256 -0.1184 -1.3625
  447MOL0     H60286   7.196   2.140   2.594 -1.0042  1.7653  2.1606
  447MOL0     H60287   7.300   2.280   2.607 -0.3550 -0.4197  0.9583
  447MOL0     H60288   7.452   2.195   2.457 -1.0385  2.1624  1.4806
  447MOL0     H60289   7.385   2.030   2.429 -3.4326 -0.2979  0.2965
  447MOL0     H60290   7.172   2.115   2.327  0.9282 -0.4388 -3.9293
  447MOL0     H60291   7.224   2.280   2.364 -0.6606 -0.3215 -0.2824
  447MOL0     H60292   7.309   2.083   2.156 -0.1553  1.0729 -0.7714
  447MOL0     H60293   7.417   2.208   2.191  1.3351 -3.0879  2.8632
  447MOL0     H60294   7.261   2.235   1.992 -3.0324  0.2947 -1.3565
  447MOL0     H60295   7.125   2.251   2.098  0.3874  1.3149  2.9309
  447MOL0     H60296   7.148   2.480   2.275 -1.5782  0.7099 -1.1589
  447MOL0     H60297   7.254   2.826   2.186  2.4233 -0.2618  1.3767
  447MOL0     H60298   7.124   2.717   2.252 -0.9314  0.8117 -1.6630
  447MOL0     H60299   7.249   2.833   2.431  1.0815  1.3805  0.2126
  447MOL0     H60300   7.285   2.651   2.430  1.0749 -2.4149 -4.0028
  447MOL0     H60301   7.484   2.829   2.462 -2.0333 -0.5504 -0.0618
  447MOL0     H60302   7.477   2.815   2.276 -0.4471 -0.9463 -1.9369
  447MOL0     H60303   7.506   2.571   2.303  1.6361  0.3417  0.3705
  447MOL0     H60304   7.497   2.583   2.483  1.7060  2.0212  1.6565
  447MOL0     H60305   7.610   2.379   2.401  0.7186 -0.1625  0.0388
  447MOL0     H60306   7.715   2.230   2.569  2.0971 -2.1846 -2.3009
  447MOL0     H60307   7.818   1.922   2.695  0.7581  3.9790 -1.7508
  447MOL0     H60308   7.889   1.723   2.817  1.2817  0.1193 -1.3190
  447MOL0     H60309   7.907   1.587   3.031 -0.9947  0.5010  0.1509
  447MOL0     H60310   8.019   1.546   2.900 -0.2317  1.1948 -0.8056
  447MOL0     H60311   8.034   1.370   3.076 -0.0175 -0.9559  0.2992
  447MOL0     H60312   8.182   1.464   3.062 -0.7594 -1.7839  1.0494
  447MOL0     H60313   8.148   1.571   3.262 -0.2200  0.4219  0.3350
  447MOL0     H60314   7.969   1.555   3.256  0.9422  0.5283  3.4738
  447MOL0     H60315   8.140   1.315   3.298  0.5306  0.2863  1.2825
  447MOL0     H60316   7.967   1.326   3.299  0.7565 -1.1777  3.5921
  447MOL0     H60317   7.986   1.521   3.460 -0.7983  0.0210  1.9042
  447MOL0     H60318   8.161   1.469   3.489  0.1173 -0.2916 -1.6039
  447MOL0     H60319   8.023   1.396   3.670  1.1208 -0.2828  0.2759
  447MOL0     H60320   7.928   1.295   3.543  0.7562 -1.0837 -0.9321
  447MOL0     H60321   8.151   1.189   3.511  1.1186  1.6997 -0.4162
  447MOL0     H60322   8.084   1.149   3.665  0.1217 -0.1209 -0.3403
  447MOL0     H60323   8.306   1.364   3.650  2.2916 -1.5451 -2.3626
  447MOL0     H60324   8.225   1.308   3.791  1.0697  1.7358 -0.4641
  447MOL0     H60325   8.157   1.977   3.039 -0.7109  2.3920  0.3482
  447MOL0     H60326   8.100   2.156   2.920  1.3599  0.5276 -3.5581
  447MOL0     H60327   8.019   2.546   2.633 -1.4007  3.0689 -3.0272
  447MOL0     H60328   7.883   2.685   2.489 -1.4433  0.9229  0.9546
  447MOL0     H60329   7.538   1.702   2.980  1.1618 -2.0595  1.1364
  447MOL0     H60330   7.693   1.617   3.156  0.7814  0.4187 -1.9464
  447MOL0     H60331   7.922   1.749   3.531  2.2610 -1.9473 -0.1541
  447MOL0     H60332   8.039   1.742   3.747  0.9029  0.2941  2.1615
  447MOL0     H60333   8.062   1.767   3.996 -0.6152  0.0581  1.5803
  447MOL0     H60334   8.151   1.635   3.908 -2.2581  1.3497 -2.2793
  447MOL0     H60335   8.087   1.502   4.142 -0.9146 -2.1811 -5.3047
  447MOL0     H60336   8.036   1.665   4.183  0.1838  0.6036 -0.9810
  447MOL0     H60337   8.326   1.607   4.090  0.8936  0.5170 -0.0043
  447MOL0     H60338   8.285   1.615   4.255  0.4165 -1.4724 -0.0324
  447MOL0     H60339   8.255   1.857   4.068 -0.8268  0.3166 -0.1531
  447MOL0     H60340   8.193   1.860   4.226 -0.2691  2.7456 -2.5161
  447MOL0     H60341   8.625   1.872   4.263 -0.8157 -1.5048  2.4167
  447MOL0     H60342   7.718   1.512   3.901  3.1569 -3.1986 -0.5096
  447MOL0     H60343   7.516   1.457   3.758 -2.0626  1.6394  0.1715
  447MOL0     H60344   7.479   1.610   3.686  0.8297  0.4412 -3.6545
  447MOL0     H60345   7.547   1.474   3.593 -1.3367 -2.8156  0.6201
  448MOL0     O60346   8.254   7.120   6.917 -0.3764  0.1203 -0.5926
  448MOL0     C60347   8.293   7.187   7.009 -0.6928  0.7298  0.3233
  448MOL0     O60348   8.416   7.192   7.064  0.4623  0.0907 -0.0278
  448MOL0     C60349   8.503   7.086   7.054  2.0076 -0.2310 -0.6079
  448MOL0     C60350   8.454   6.956   7.023 -0.0291  0.1469 -0.1386
  448MOL0     C60351   8.553   6.852   7.008 -0.7169 -0.5065  1.0098
  448MOL0     C60352   8.684   6.874   7.038  0.2608  0.5151  0.0841
  448MOL0     O60353   8.767   6.761   7.031 -0.2648  0.5086 -0.1930
  448MOL0     C60354   8.907   6.777   7.025 -1.0704  0.0354 -0.1699
  448MOL0     C60355   8.975   6.779   7.157 -0.2759 -0.3610 -1.0020
  448MOL0     C60356   8.921   6.677   7.244  0.1009 -0.2025 -0.5169
  448MOL0     C60357   8.964   6.528   7.228  0.0800 -0.5528  0.2317
  448MOL0     C60358   9.118   6.513   7.260 -0.2449 -0.2043 -0.2099
  448MOL0     C60359   9.173   6.383   7.213  0.6949 -0.3763 -0.9431
  448MOL0     C60360   9.311   6.354   7.255 -0.8635  0.4509  0.6186
  448MOL0     C60361   9.371   6.229   7.188  0.0502 -0.3569  0.1453
  448MOL0     N60362   9.512   6.217   7.220 -0.0402 -0.7074  0.4089
  448MOL0     C60363   9.577   6.244   7.341 -0.0237  0.5446 -0.6583
  448MOL0     C60364   9.705   6.275   7.311  0.3617 -0.3580  0.7246
  448MOL0     C60365   9.822   6.298   7.403 -0.0562  0.2433  0.3213
  448MOL0     C60366   9.867   6.179   7.484 -0.0328  0.0171 -0.3750
  448MOL0     C60367   9.890   6.062   7.396 -0.7114  0.8108  1.1474
  448MOL0     C60368   9.912   5.934   7.482 -0.7772 -0.1857 -0.8872
  448MOL0     O60369  10.043   5.938   7.532  0.5209 -0.3101  0.2999
  448MOL0     C60370  10.083   5.829   7.611  0.2366  0.5668 -0.2216
  448MOL0     C60371  10.002   5.714   7.639  0.1458  0.1806 -0.0111
  448MOL0     C60372  10.048   5.623   7.723  0.7107  1.3667 -0.4296
  448MOL0     C60373  10.169   5.620   7.785  0.7415 -0.6111 -1.1360
  448MOL0     C60374  10.203   5.518   7.879  0.7092  1.2617 -0.9078
  448MOL0     O60375  10.290   5.565   7.979 -0.8180  0.5823 -0.5723
  448MOL0     C60376  10.331   5.480   8.073  0.3104  0.0276 -0.6797
  448MOL0     C60377  10.415   5.370   8.052 -0.0138 -0.1112  0.7742
  448MOL0     C60378  10.474   5.286   8.145  0.4580  0.3034 -0.2230
  448MOL0     C60379  10.431   5.297   8.278 -0.1592  0.1076 -0.8477
  448MOL0     O60380  10.498   5.227   8.372 -0.4475 -0.2928  0.7977
  448MOL0     C60381  10.509   5.089   8.341  0.0675 -0.0066 -0.5719
  448MOL0     C60382  10.652   5.047   8.295  0.8801 -0.0646  0.6385
  448MOL0     C60383  10.638   4.889   8.287 -0.6101  0.5891  0.4831
  448MOL0     C60384  10.651   4.821   8.428  0.6742  0.1597 -0.1438
  448MOL0     C60385  10.657   4.665   8.427 -0.5841 -0.3480 -0.0786
  448MOL0     C60386  10.563   4.587   8.334 -0.4723 -0.0164 -0.9167
  448MOL0     C60387  10.441   4.543   8.418 -0.4216  0.1096  0.9683
  448MOL0     C60388  10.361   4.650   8.487 -0.1138  0.6914  0.1041
  448MOL0    Cl60389  10.260   4.748   8.368 -0.4067  0.1512  0.0742
  448MOL0     C60390  10.344   5.395   8.308  0.8916 -0.6592 -0.5413
  448MOL0     C60391  10.304   5.500   8.207  0.5243 -0.9377  0.2788
  448MOL0     O60392  10.142   5.409   7.884  0.1603 -0.7609 -0.3889
  448MOL0     C60393  10.248   5.732   7.760 -0.4987 -0.5471  0.5498
  448MOL0     C60394  10.206   5.826   7.664  0.1804 -0.4150  0.1265
  448MOL0     N60395   9.714   6.254   7.173  0.0700 -1.5113 -0.0398
  448MOL0     N60396   9.601   6.222   7.117 -0.4830 -0.9556 -0.5741
  448MOL0     C60397   8.720   6.995   7.068 -0.5564 -0.3471 -0.0326
  448MOL0     C60398   8.632   7.098   7.071 -0.1666  0.4190 -0.7944
  448MOL0     C60399   8.192   7.267   7.072  0.8804  0.6625 -0.7298
  448MOL0     C60400   8.222   7.398   7.116  0.2537 -0.2590  0.2586
  448MOL0     C60401   8.126   7.478   7.173  0.4373 -0.0444  0.5361
  448MOL0     C60402   7.995   7.427   7.181  1.6993  0.0643 -0.1070
  448MOL0     O60403   7.898   7.516   7.207 -0.0976 -0.5599  0.1331
  448MOL0     C60404   7.839   7.503   7.336 -0.3010  0.4365 -0.7559
  448MOL0     C60405   7.932   7.558   7.441  0.0467 -0.4694 -0.1499
  448MOL0     C60406   7.873   7.504   7.571 -0.4230  0.2561 -0.1865
  448MOL0     C60407   7.922   7.595   7.689  0.5307 -0.3480  0.4648
  448MOL0     C60408   7.829   7.598   7.807 -0.2035  0.7819  0.0434
  448MOL0     C60409   7.750   7.576   7.900  0.8103 -0.1896  0.1320
  448MOL0     C60410   7.963   7.291   7.161 -0.3988  0.6552 -0.0634
  448MOL0     C60411   8.065   7.206   7.110  0.5824  0.0862 -0.1163
  448MOL0     C60412   8.036   7.055   7.073 -0.2105  0.0707 -0.1974
  448MOL0     H60413   8.348   6.939   7.008 -0.8499  4.5895 -0.8676
  448MOL0     H60414   8.533   6.759   6.956  4.9635  0.0576 -3.0958
  448MOL0     H60415   8.952   6.692   6.973  1.3429  2.7956 -3.0457
  448MOL0     H60416   8.923   6.862   6.958 -1.8823  0.8891  0.6838
  448MOL0     H60417   8.972   6.875   7.210  1.1950 -1.0915  0.5100
  448MOL0     H60418   9.078   6.758   7.131 -0.0689 -1.5362  0.6084
  448MOL0     H60419   8.812   6.682   7.246  0.0668 -0.3280 -1.4747
  448MOL0     H60420   8.946   6.697   7.348 -0.5070 -1.2914 -0.1472
  448MOL0     H60421   8.919   6.458   7.299  1.1225  0.1023  1.6029
  448MOL0     H60422   8.955   6.504   7.122  3.2003 -0.2826 -0.1816
  448MOL0     H60423   9.178   6.600   7.233 -1.8427  1.6324  1.7241
  448MOL0     H60424   9.132   6.507   7.369  1.7526 -2.0452 -0.5094
  448MOL0     H60425   9.110   6.302   7.250 -0.3620  1.1690  0.7886
  448MOL0     H60426   9.164   6.378   7.104 -0.4886 -1.0170 -0.8341
  448MOL0     H60427   9.322   6.345   7.364 -1.5394  0.7512  0.7157
  448MOL0     H60428   9.373   6.439   7.224  0.2360 -0.5352  0.0276
  448MOL0     H60429   9.318   6.140   7.222 -0.6630  0.7594  2.1899
  448MOL0     H60430   9.356   6.240   7.080  1.4820  1.2004  0.0686
  448MOL0     H60431   9.531   6.265   7.437  3.5354 -1.5868  1.6946
  448MOL0     H60432   9.912   6.323   7.347  0.1979 -1.5720 -0.1510
  448MOL0     H60433   9.798   6.382   7.469  0.2843 -0.3689  1.2452
  448MOL0     H60434   9.964   6.188   7.532  1.2520  0.1161 -2.8303
  448MOL0     H60435   9.799   6.154   7.566 -0.0867 -2.8093 -1.1623
  448MOL0     H60436   9.982   6.060   7.337 -1.3885 -0.3423  0.1051
  448MOL0     H60437   9.808   6.035   7.329  1.5563  0.1484 -1.5424
  448MOL0     H60438   9.898   5.846   7.418 -1.6565  0.1822 -1.2127
  448MOL0     H60439   9.852   5.914   7.571 -0.9723 -0.7463 -1.1368
  448MOL0     H60440   9.904   5.706   7.594  0.8852 -0.2207 -1.5986
  448MOL0     H60441   9.984   5.537   7.737  2.7735 -0.4426 -1.4359
  448MOL0     H60442  10.436   5.344   7.949 -1.9149 -2.0816  0.8287
  448MOL0     H60443  10.558   5.227   8.109  1.9655  0.9103  2.1166
  448MOL0     H60444  10.482   5.042   8.436 -0.8612  1.1616 -0.2346
  448MOL0     H60445  10.430   5.075   8.268  0.3741  1.7558 -1.2995
  448MOL0     H60446  10.667   5.081   8.192 -2.0966  0.5147  0.2997
  448MOL0     H60447  10.744   5.079   8.346  0.1903 -0.1330  1.9742
  448MOL0     H60448  10.544   4.862   8.238  0.4511 -1.1697 -0.7134
  448MOL0     H60449  10.708   4.852   8.210 -0.7669  0.1872  0.5316
  448MOL0     H60450  10.561   4.850   8.483  0.3143 -1.3816  0.1450
  448MOL0     H60451  10.735   4.852   8.491 -0.2234  1.3375  0.5052
  448MOL0     H60452  10.657   4.629   8.530 -1.3162  0.7121  0.3070
  448MOL0     H60453  10.757   4.649   8.384 -0.3574  1.4858 -0.3257
  448MOL0     H60454  10.515   4.643   8.254 -3.6136 -2.8598 -1.2612
  448MOL0     H60455  10.616   4.508   8.280  1.5050  1.0496 -0.6388
  448MOL0     H60456  10.488   4.470   8.485  1.8402  1.1848  0.6528
  448MOL0     H60457  10.377   4.498   8.341  2.4499  3.6363 -4.1439
  448MOL0     H60458  10.290   4.609   8.559 -0.1528  1.0719  0.2901
  448MOL0     H60459  10.427   4.701   8.558  0.8404  1.3734 -1.2330
  448MOL0     H60460  10.324   5.413   8.413  4.1749  0.3759  0.0088
  448MOL0     H60461  10.236   5.578   8.238  0.0438 -0.0411 -2.7164
  448MOL0     H60462  10.354   5.743   7.781 -0.1916  0.2510 -1.2266
  448MOL0     H60463  10.263   5.908   7.624 -3.2080  2.6729  1.0987
  448MOL0     H60464   8.815   7.011   7.117 -1.1904 -1.0188  1.4604
  448MOL0     H60465   8.664   7.199   7.095 -0.4516 -0.3746  3.8772
  448MOL0     H60466   8.318   7.447   7.098  0.2255  0.0956  1.0399
  448MOL0     H60467   8.154   7.579   7.197 -1.1656  0.3131  1.0534
  448MOL0     H60468   7.809   7.399   7.355  4.1411 -1.0776 -0.9038
  448MOL0     H60469   7.749   7.565   7.340  1.7089  3.5450 -0.3365
  448MOL0     H60470   7.940   7.667   7.434  0.0654 -0.5458 -1.5483
  448MOL0     H60471   8.034   7.520   7.432  0.0059 -0.6552  0.1657
  448MOL0     H60472   7.909   7.401   7.583 -1.4330 -0.1717 -0.7335
  448MOL0     H60473   7.764   7.513   7.571 -0.2612  3.0540 -0.5874
  448MOL0     H60474   8.028   7.575   7.709  0.4614 -2.6407 -1.0651
  448MOL0     H60475   7.910   7.699   7.656  0.7465  0.7217  3.4915
  448MOL0     H60476   7.691   7.559   7.988 -1.1254  0.1340 -1.0696
  448MOL0     H60477   7.860   7.259   7.170  0.0210 -0.0548  3.2349
  448MOL0     H60478   8.121   6.987   7.078  0.3355  0.8176  1.8858
  448MOL0     H60479   7.962   7.012   7.141 -0.7661 -2.0970 -2.0747
  448MOL0     H60480   7.992   7.059   6.973  1.1418 -0.6411 -0.8458
  449MOL0     O60481   8.170   0.573   5.899 -0.1508  0.5949 -0.3505
  449MOL0     C60482   8.070   0.620   5.950  0.4515 -0.3190  0.4071
  449MOL0     O60483   7.942   0.587   5.914 -0.4668 -0.0380  0.3808
  449MOL0     C60484   7.922   0.460   5.863 -0.9645  0.3975 -0.8664
  449MOL0     C60485   7.916   0.353   5.954 -0.9795  0.0621 -0.9274
  449MOL0     C60486   7.867   0.227   5.921 -1.1958 -0.4037  0.1186
  449MOL0     C60487   7.831   0.206   5.786 -0.1547 -0.1616  0.0209
  449MOL0     O60488   7.813   0.079   5.753 -0.2107 -0.6446 -0.9605
  449MOL0     C60489   7.830   0.048   5.616 -0.2766  0.1345  0.3033
  449MOL0     C60490   7.691   0.039   5.547 -0.0004 -0.0789  0.0814
  449MOL0     C60491   7.694  -0.014   5.406 -0.4133  0.1719 -0.3338
  449MOL0     C60492   7.548  -0.033   5.367  0.1010  0.6822 -0.5049
  449MOL0     C60493   7.520  -0.100   5.231 -0.6846  0.4256  0.8656
  449MOL0     C60494   7.562  -0.243   5.225  0.6405 -0.1297 -0.4751
  449MOL0     C60495   7.497  -0.317   5.097  0.4730 -0.3448  0.8651
  449MOL0     C60496   7.345  -0.331   5.111  0.6292 -0.7086 -1.2981
  449MOL0     N60497   7.289  -0.448   5.042  0.4699  1.0360 -1.0739
  449MOL0     C60498   7.316  -0.488   4.918  0.2060  0.1413  0.4803
  449MOL0     C60499   7.245  -0.599   4.886  0.6464 -0.3196 -0.1011
  449MOL0     C60500   7.248  -0.672   4.756 -0.3238  0.0863 -0.1627
  449MOL0     C60501   7.222  -0.578   4.642 -0.1990  0.1185  0.5193
  449MOL0     C60502   7.234  -0.655   4.506 -0.9188 -0.6371  0.5639
  449MOL0     C60503   7.183  -0.565   4.394 -0.3299  0.1978  0.3069
  449MOL0     O60504   7.042  -0.534   4.416  0.2780  0.0021  1.3016
  449MOL0     C60505   6.967  -0.473   4.317  0.4720 -0.7850 -0.1328
  449MOL0     C60506   6.828  -0.441   4.329 -0.5776 -0.0245  0.5167
  449MOL0     C60507   6.749  -0.385   4.231  0.8155  0.2410 -0.6664
  449MOL0     C60508   6.807  -0.353   4.111  0.9906 -1.1135  0.1521
  449MOL0     C60509   6.726  -0.301   3.995 -0.4298 -0.8664  0.4832
  449MOL0     O60510   6.797  -0.226   3.911  0.1513  0.1837  0.2473
  449MOL0     C60511   6.715  -0.188   3.811  0.2334  0.4023  0.7811
  449MOL0     C60512   6.684  -0.053   3.806 -0.9985 -0.8675  0.1667
  449MOL0     C60513   6.615   0.002   3.707 -0.6499 -0.4474  0.6762
  449MOL0     C60514   6.551  -0.083   3.612 -0.1823  0.6525 -0.6289
  449MOL0     O60515   6.481  -0.036   3.505  0.0346 -0.1732 -0.5086
  449MOL0     C60516   6.387   0.066   3.542 -0.5859 -0.6175 -0.1641
  449MOL0     C60517   6.328   0.116   3.416 -0.3172  0.5657  0.0022
  449MOL0     C60518   6.213   0.213   3.463 -0.7369 -0.3653  0.2654
  449MOL0     C60519   6.099   0.229   3.361  0.0929 -0.3396 -0.2818
  449MOL0     C60520   6.031   0.111   3.292 -0.2031  0.5989  0.3920
  449MOL0     C60521   5.953   0.022   3.399 -0.4729  0.1695  0.1367
  449MOL0     C60522   5.887  -0.104   3.347  0.6457  0.3849 -0.1468
  449MOL0     C60523   5.988  -0.216   3.320  0.6194  0.1597  0.7797
  449MOL0    Cl60524   5.903  -0.357   3.275 -0.2157 -0.0848  0.2504
  449MOL0     C60525   6.580  -0.228   3.604 -0.2224 -0.2933 -0.3006
  449MOL0     C60526   6.666  -0.270   3.710  0.1099  0.0952 -0.1467
  449MOL0     O60527   6.600  -0.314   4.003 -0.0985 -0.2399 -0.5930
  449MOL0     C60528   6.936  -0.378   4.086  0.4574  0.7459 -0.2371
  449MOL0     C60529   7.019  -0.444   4.187  0.2149 -0.3886  0.9398
  449MOL0     N60530   7.156  -0.621   4.998  0.3084  0.5307  0.9354
  449MOL0     N60531   7.181  -0.528   5.087  0.7363  0.8076  0.1412
  449MOL0     C60532   7.829   0.311   5.695  0.0458 -0.0009  0.4697
  449MOL0     C60533   7.873   0.433   5.730 -0.2168 -0.3424  0.0088
  449MOL0     C60534   8.084   0.734   6.048  0.1809 -1.4757 -1.2051
  449MOL0     C60535   7.975   0.744   6.135 -0.2568 -0.0780 -1.1443
  449MOL0     C60536   7.973   0.841   6.236  0.4339 -0.3300 -1.2450
  449MOL0     C60537   8.074   0.932   6.247  0.3586 -1.4980 -0.0205
  449MOL0     O60538   8.078   1.024   6.346  0.0146 -0.4050  0.1473
  449MOL0     C60539   7.964   1.109   6.346  1.2555  0.6742 -0.1378
  449MOL0     C60540   8.012   1.231   6.427  0.9087  0.2567 -0.6379
  449MOL0     C60541   8.128   1.319   6.363 -0.0074 -0.4646  0.1316
  449MOL0     C60542   8.085   1.438   6.275  0.6366 -0.0614  0.7504
  449MOL0     C60543   8.203   1.486   6.208 -0.7266  0.5473  0.3414
  449MOL0     C60544   8.294   1.515   6.131  0.7496 -0.5621 -0.2840
  449MOL0     C60545   8.175   0.932   6.149  0.7168 -0.7249  1.1330
  449MOL0     C60546   8.189   0.831   6.057  0.1471 -0.3251 -0.8791
  449MOL0     C60547   8.302   0.839   5.955 -0.0134 -0.4737  0.1972
  449MOL0     H60548   7.948   0.366   6.057 -0.5916  0.0452 -1.0479
  449MOL0     H60549   7.872   0.156   6.003  3.3310  1.1227  1.4397
  449MOL0     H60550   7.889   0.111   5.549 -5.1208  0.3447 -4.3656
  449MOL0     H60551   7.880  -0.050   5.609  2.1502  1.2600  0.8431
  449MOL0     H60552   7.637   0.133   5.560  3.9628  2.5520 -1.0049
  449MOL0     H60553   7.644  -0.040   5.607 -2.0258  0.9669 -0.0237
  449MOL0     H60554   7.736  -0.114   5.421  1.4053  0.6030 -2.0885
  449MOL0     H60555   7.751   0.041   5.330  1.5319 -1.3013 -0.0282
  449MOL0     H60556   7.504  -0.088   5.451  2.2638  0.8749  0.8340
  449MOL0     H60557   7.505   0.065   5.346  0.5398  0.9620 -0.1391
  449MOL0     H60558   7.416  -0.090   5.201 -0.0944  0.6225 -1.2779
  449MOL0     H60559   7.588  -0.043   5.167  0.1478 -0.2909  1.0936
  449MOL0     H60560   7.671  -0.255   5.227  1.0423  2.3125 -2.3240
  449MOL0     H60561   7.517  -0.291   5.312  0.6360  0.4031 -0.1785
  449MOL0     H60562   7.536  -0.417   5.077 -0.8559 -0.4670 -1.4919
  449MOL0     H60563   7.522  -0.259   5.008  1.6953 -0.3485  1.1950
  449MOL0     H60564   7.305  -0.339   5.213  0.6644  1.0308 -1.1165
  449MOL0     H60565   7.294  -0.237   5.089 -1.2382 -0.8943  1.6388
  449MOL0     H60566   7.383  -0.443   4.845  2.7314 -3.4782  0.3011
  449MOL0     H60567   7.346  -0.715   4.737 -2.0911 -4.0095 -1.0087
  449MOL0     H60568   7.177  -0.755   4.765  0.1829 -0.5105 -1.4965
  449MOL0     H60569   7.123  -0.534   4.659  0.9769  2.3858  1.9362
  449MOL0     H60570   7.297  -0.499   4.637  0.8223 -0.7813  1.1274
  449MOL0     H60571   7.183  -0.752   4.514 -1.8863 -0.0897  1.2295
  449MOL0     H60572   7.336  -0.686   4.485 -1.3034 -0.7534 -1.3640
  449MOL0     H60573   7.186  -0.617   4.298  1.8854  1.3162 -0.2872
  449MOL0     H60574   7.250  -0.479   4.399 -1.0724  0.7062  3.1414
  449MOL0     H60575   6.796  -0.453   4.432  1.1716  1.7995  1.3458
  449MOL0     H60576   6.645  -0.356   4.244  0.6153 -1.2704  1.5590
  449MOL0     H60577   6.727   0.004   3.888  1.3086  0.7473 -2.0126
  449MOL0     H60578   6.603   0.109   3.716 -0.4072 -0.3026 -0.5740
  449MOL0     H60579   6.317   0.014   3.609  2.2754 -0.9007  2.8572
  449MOL0     H60580   6.426   0.146   3.605 -2.5188  0.0093  0.2895
  449MOL0     H60581   6.401   0.177   3.362 -0.1936 -0.0236 -0.5033
  449MOL0     H60582   6.299   0.031   3.353  2.5776 -0.6289  0.1190
  449MOL0     H60583   6.173   0.175   3.557  0.0581 -0.1010  0.7146
  449MOL0     H60584   6.249   0.311   3.495  0.7580  0.0939 -2.4509
  449MOL0     H60585   6.142   0.290   3.281 -1.2657  0.4119 -0.4756
  449MOL0     H60586   6.025   0.286   3.418  2.8587  2.8253  0.4911
  449MOL0     H60587   6.111   0.045   3.257 -0.9789 -0.3754  0.4171
  449MOL0     H60588   5.962   0.141   3.212 -0.9235  0.0526  0.7944
  449MOL0     H60589   6.028  -0.003   3.474 -0.6112  2.5072  1.1628
  449MOL0     H60590   5.884   0.087   3.454  0.8370  1.1739  0.6801
  449MOL0     H60591   5.835  -0.079   3.254  0.4441 -0.4770 -0.2759
  449MOL0     H60592   5.809  -0.132   3.418  0.9367  2.6396  1.1708
  449MOL0     H60593   6.055  -0.177   3.242  1.8016  2.2759  2.7078
  449MOL0     H60594   6.045  -0.228   3.413 -1.5435  2.1536  2.4805
  449MOL0     H60595   6.538  -0.278   3.518 -0.6633  0.3700 -0.4804
  449MOL0     H60596   6.700  -0.372   3.720 -0.0929  0.0762  0.3665
  449MOL0     H60597   6.987  -0.358   3.992  0.7544  3.5508  0.4254
  449MOL0     H60598   7.119  -0.464   4.147  0.5025  0.2629  1.3332
  449MOL0     H60599   7.781   0.306   5.598 -2.7142  0.6068  1.7044
  449MOL0     H60600   7.869   0.517   5.660  0.9253 -1.4695 -1.4830
  449MOL0     H60601   7.898   0.668   6.140 -0.8173  0.5292 -0.2093
  449MOL0     H60602   7.887   0.850   6.303 -0.7759  2.5447 -2.9790
  449MOL0     H60603   7.879   1.060   6.394  1.4020  0.1489 -0.4118
  449MOL0     H60604   7.943   1.135   6.242  2.2460 -1.4836 -0.9472
  449MOL0     H60605   8.056   1.197   6.521 -1.3397  1.9677  1.1331
  449MOL0     H60606   7.931   1.300   6.451 -0.8657 -0.9264 -2.7706
  449MOL0     H60607   8.186   1.252   6.300 -0.3871 -0.9188  0.2586
  449MOL0     H60608   8.191   1.367   6.438 -1.5928  2.0914 -0.0300
  449MOL0     H60609   8.010   1.404   6.203  2.4275  0.7474 -1.6159
  449MOL0     H60610   8.039   1.523   6.324  0.3776  0.9864 -1.2105
  449MOL0     H60611   8.372   1.515   6.057  0.7631 -0.0480 -0.2766
  449MOL0     H60612   8.251   1.009   6.159  1.0946 -0.9552  0.1119
  449MOL0     H60613   8.264   0.790   5.865  0.0202 -1.3001  0.6199
  449MOL0     H60614   8.321   0.942   5.924  0.2280 -1.0036 -1.5346
  449MOL0     H60615   8.398   0.800   5.989  0.5079  1.8784  1.6225
  450MOL0     O60616   6.707   4.517   9.294 -0.2079 -0.5345  0.2978
  450MOL0     C60617   6.724   4.462   9.398  0.7815  1.0189 -0.5421
  450MOL0     O60618   6.651   4.468   9.505  0.0261  0.5546  0.3219
  450MOL0     C60619   6.573   4.578   9.528 -0.1183  0.7470  0.5185
  450MOL0     C60620   6.489   4.637   9.432  0.2996 -0.2833 -0.0044
  450MOL0     C60621   6.392   4.734   9.474  0.1505  0.0781 -0.6981
  450MOL0     C60622   6.385   4.782   9.604 -0.0046 -0.0856  0.1928
  450MOL0     O60623   6.309   4.895   9.631  0.4769  0.1237 -0.3077
  450MOL0     C60624   6.274   4.932   9.769  0.3216  0.0051 -0.5393
  450MOL0     C60625   6.152   5.031   9.767 -0.0171 -0.2022 -0.7064
  450MOL0     C60626   6.060   5.005   9.892  0.2773  1.1360 -0.6132
  450MOL0     C60627   5.948   5.107   9.899 -0.4339 -0.0041  0.3333
  450MOL0     C60628   5.828   5.060   9.808  0.3665 -1.0117  0.3764
  450MOL0     C60629   5.729   4.961   9.875  0.3844 -0.3800  0.4502
  450MOL0     C60630   5.604   4.931   9.785 -0.3806 -0.1741 -0.6188
  450MOL0     C60631   5.617   4.810   9.694  0.6031  0.1744  0.1326
  450MOL0     N60632   5.484   4.750   9.662 -1.2724 -0.2571  0.1059
  450MOL0     C60633   5.388   4.816   9.597  0.4020  0.7693 -0.0778
  450MOL0     C60634   5.283   4.726   9.612 -0.0101  0.1447 -0.0066
  450MOL0     C60635   5.151   4.741   9.536  0.0235 -0.4722  0.5826
  450MOL0     C60636   5.160   4.672   9.403  0.9981  0.2319  0.1196
  450MOL0     C60637   5.024   4.697   9.332  0.3342 -0.4065 -0.3495
  450MOL0     C60638   4.968   4.574   9.271 -0.2095  0.1928  0.3854
  450MOL0     O60639   5.057   4.521   9.170 -0.3749 -0.0382 -0.1784
  450MOL0     C60640   5.035   4.397   9.124  0.4980  0.5299  0.0346
  450MOL0     C60641   4.902   4.331   9.139 -0.3005 -1.5450 -0.6512
  450MOL0     C60642   4.894   4.200   9.090 -0.9209 -0.8005  1.1727
  450MOL0     C60643   5.006   4.143   9.025  0.5470  0.3633  0.6115
  450MOL0     C60644   4.997   4.014   8.963 -0.4388  0.4721 -0.2376
  450MOL0     O60645   5.079   3.983   8.859  0.5285 -0.0863  0.2466
  450MOL0     C60646   5.135   3.864   8.867  0.0092  0.1427  0.2521
  450MOL0     C60647   5.208   3.824   8.980 -0.6879  0.2821  0.1783
  450MOL0     C60648   5.297   3.715   8.978 -0.1641 -0.5783  0.3302
  450MOL0     C60649   5.299   3.636   8.868 -0.0108  0.2441 -0.3591
  450MOL0     O60650   5.379   3.527   8.871  0.1708  0.7546 -0.1440
  450MOL0     C60651   5.333   3.424   8.958 -0.6913  1.2260 -0.2923
  450MOL0     C60652   5.414   3.399   9.077 -0.3635  0.2342 -0.3652
  450MOL0     C60653   5.352   3.290   9.165  0.6717 -0.6498 -0.4434
  450MOL0     C60654   5.427   3.253   9.289  0.4096  0.0182 -0.2216
  450MOL0     C60655   5.346   3.161   9.391  0.2642  0.2576 -0.1076
  450MOL0     C60656   5.295   3.024   9.332  0.6558  0.0986 -0.8744
  450MOL0     C60657   5.270   2.927   9.448  0.4203  0.3343  0.1233
  450MOL0     C60658   5.257   2.788   9.381 -0.1543 -0.0198 -0.3028
  450MOL0    Cl60659   5.236   2.664   9.506  0.2716  0.3996 -0.4871
  450MOL0     C60660   5.237   3.679   8.753  0.1752  0.1913 -0.2249
  450MOL0     C60661   5.149   3.786   8.745 -0.0506 -0.8387  0.2585
  450MOL0     O60662   4.924   3.934   9.017 -0.5374  0.1171  0.3025
  450MOL0     C60663   5.118   4.211   9.011  0.2228 -0.7713  0.8742
  450MOL0     C60664   5.135   4.341   9.052  0.4408  0.4615 -0.5169
  450MOL0     N60665   5.317   4.626   9.692  0.2607  0.3064  0.1056
  450MOL0     N60666   5.434   4.644   9.732 -0.0008 -0.2278  0.1501
  450MOL0     C60667   6.464   4.717   9.702  0.6081  0.1462  0.0629
  450MOL0     C60668   6.551   4.614   9.662 -0.4228 -0.3379 -0.4997
  450MOL0     C60669   6.825   4.348   9.403 -0.4083 -0.1848  0.5792
  450MOL0     C60670   6.865   4.300   9.536  0.0843 -0.4722  0.1373
  450MOL0     C60671   6.950   4.193   9.551  1.2161  0.4219  0.2532
  450MOL0     C60672   7.011   4.131   9.438 -0.7554  0.0206 -0.3694
  450MOL0     O60673   7.116   4.047   9.475  0.6255 -0.8133  0.0038
  450MOL0     C60674   7.198   3.991   9.365 -0.3879 -0.3107 -0.1013
  450MOL0     C60675   7.130   3.879   9.287 -1.3248 -0.6924  0.5680
  450MOL0     C60676   7.045   3.791   9.377  0.4948 -0.1132  0.6610
  450MOL0     C60677   6.960   3.688   9.280 -0.3922 -1.1396 -0.9995
  450MOL0     C60678   7.048   3.582   9.239  0.5154 -0.0213  0.5341
  450MOL0     C60679   7.106   3.476   9.215 -0.1453 -0.4947  0.4632
  450MOL0     C60680   6.981   4.177   9.303 -0.5886  0.2690 -0.3261
  450MOL0     C60681   6.901   4.293   9.290  0.7649  0.1451 -0.4600
  450MOL0     C60682   6.896   4.352   9.153 -0.0953 -0.3105 -0.0247
  450MOL0     H60683   6.478   4.608   9.328 -2.4018 -0.8184  0.3353
  450MOL0     H60684   6.316   4.777   9.410 -2.7109 -0.9247  1.7737
  450MOL0     H60685   6.246   4.843   9.827 -2.3941  1.6808  0.9532
  450MOL0     H60686   6.351   4.978   9.831 -0.9105  0.2194  0.9088
  450MOL0     H60687   6.084   5.021   9.682 -3.4726  1.6387  1.6063
  450MOL0     H60688   6.197   5.131   9.764 -1.7180  0.7087  1.5503
  450MOL0     H60689   6.123   5.008   9.982  2.0784 -1.7596 -1.6669
  450MOL0     H60690   6.019   4.905   9.882 -4.1184  2.3359  2.2849
  450MOL0     H60691   5.906   5.100  10.000 -4.0398 -1.7039 -1.1189
  450MOL0     H60692   5.972   5.211   9.874 -0.3710 -0.7209 -3.0075
  450MOL0     H60693   5.777   5.155   9.790  4.7734  1.4538 -0.3604
  450MOL0     H60694   5.858   5.015   9.713 -1.6553  0.1078 -0.8515
  450MOL0     H60695   5.780   4.865   9.891  0.1893 -0.4524  0.6531
  450MOL0     H60696   5.705   4.996   9.976  0.7194  2.7718 -0.4851
  450MOL0     H60697   5.577   5.009   9.713  0.1439 -0.3281 -0.9857
  450MOL0     H60698   5.518   4.925   9.852 -1.6766  4.9635 -1.3714
  450MOL0     H60699   5.663   4.839   9.600  1.3610 -0.4125  0.3157
  450MOL0     H60700   5.683   4.730   9.730 -2.6004 -3.0624 -0.5568
  450MOL0     H60701   5.379   4.910   9.544  0.2329  1.5185  1.2418
  450MOL0     H60702   5.066   4.713   9.600  0.0374  3.6687  2.7907
  450MOL0     H60703   5.134   4.849   9.535  7.2986  1.1778  1.3450
  450MOL0     H60704   5.241   4.715   9.344  1.2984 -1.1327 -0.5045
  450MOL0     H60705   5.181   4.566   9.420  1.6504  0.1920 -0.8631
  450MOL0     H60706   5.031   4.781   9.262 -1.2980  1.3660  1.4874
  450MOL0     H60707   4.952   4.733   9.406  1.2416  0.7008  0.0187
  450MOL0     H60708   4.885   4.617   9.213  1.6835  3.3581 -0.1937
  450MOL0     H60709   4.942   4.505   9.352  1.9096  0.2034  1.1440
  450MOL0     H60710   4.839   4.374   9.216  1.4481 -0.4158  0.2243
  450MOL0     H60711   4.802   4.144   9.102 -1.0704 -1.9558 -3.5209
  450MOL0     H60712   5.187   3.886   9.066 -0.1884  1.7005 -0.6942
  450MOL0     H60713   5.365   3.690   9.058  0.4396  0.5723  0.2077
  450MOL0     H60714   5.233   3.457   8.987  0.0451  1.5156  2.1160
  450MOL0     H60715   5.332   3.333   8.896  2.3631 -0.3721  1.7517
  450MOL0     H60716   5.515   3.378   9.042  0.3651  0.6173  1.3964
  450MOL0     H60717   5.419   3.496   9.127  1.1087  0.3329 -0.6555
  450MOL0     H60718   5.259   3.327   9.208  1.2845 -0.8846  1.1749
  450MOL0     H60719   5.327   3.207   9.099  2.3254 -0.5150 -1.2871
  450MOL0     H60720   5.459   3.347   9.336 -0.8762 -0.1224  1.0166
  450MOL0     H60721   5.511   3.194   9.251  1.5528 -0.2461  2.4787
  450MOL0     H60722   5.259   3.219   9.423 -0.3674  1.2075 -3.2738
  450MOL0     H60723   5.402   3.130   9.480  1.1145 -3.0773 -1.6356
  450MOL0     H60724   5.197   3.035   9.286  0.1289  1.7353  0.5378
  450MOL0     H60725   5.375   2.982   9.270  1.0105 -2.4526  1.1463
  450MOL0     H60726   5.193   2.961   9.518  1.4587 -0.9670  1.9667
  450MOL0     H60727   5.365   2.925   9.503  0.7845 -0.5731 -0.5043
  450MOL0     H60728   5.170   2.804   9.316 -0.3069  1.6355  0.2665
  450MOL0     H60729   5.345   2.769   9.319 -0.5278 -3.6013  0.0460
  450MOL0     H60730   5.264   3.624   8.664 -3.4511 -1.1275 -0.6677
  450MOL0     H60731   5.100   3.803   8.650 -0.1242 -2.3396  0.0007
  450MOL0     H60732   5.207   4.165   8.969 -1.1182 -2.7408  0.0134
  450MOL0     H60733   5.230   4.389   9.030  2.4972 -2.3805  1.4841
  450MOL0     H60734   6.459   4.754   9.804  0.4498 -1.0110  0.4998
  450MOL0     H60735   6.619   4.564   9.731 -1.1254 -0.3324  0.2151
  450MOL0     H60736   6.818   4.349   9.621  0.3403 -1.1454  0.6752
  450MOL0     H60737   6.987   4.145   9.641  1.7711 -1.0532 -0.7149
  450MOL0     H60738   7.288   3.953   9.415 -2.3720 -2.6696  1.9381
  450MOL0     H60739   7.232   4.061   9.289 -1.3639  1.1949  0.8084
  450MOL0     H60740   7.205   3.822   9.232 -0.6414 -1.4164  2.1717
  450MOL0     H60741   7.076   3.923   9.203  2.5909  1.0427 -1.2993
  450MOL0     H60742   6.971   3.849   9.433 -2.0024 -1.0427 -1.4467
  450MOL0     H60743   7.100   3.726   9.446  3.0711 -0.6677 -1.7333
  450MOL0     H60744   6.882   3.641   9.342 -0.5021 -3.3019 -2.6321
  450MOL0     H60745   6.914   3.741   9.197  0.9514  1.2865 -0.2750
  450MOL0     H60746   7.163   3.386   9.215  0.0517 -0.4129 -1.5692
  450MOL0     H60747   7.040   4.138   9.221  3.7394 -1.8365  3.3392
  450MOL0     H60748   6.902   4.461   9.160 -1.7417 -0.3000  3.1800
  450MOL0     H60749   6.985   4.315   9.101 -0.1476 -2.1128  1.0734
  450MOL0     H60750   6.803   4.313   9.109 -0.4089  0.5758 -0.1521
  451MOL0     O60751   3.878   9.918   9.663  0.5760  0.1666 -0.0431
  451MOL0     C60752   3.804   9.903   9.562  0.9342 -0.6599 -0.8096
  451MOL0     O60753   3.667   9.864   9.566  0.8665  0.4881  1.0361
  451MOL0     C60754   3.619   9.799   9.678  0.0133 -0.3415  0.6859
  451MOL0     C60755   3.566   9.673   9.664  0.3718  0.9841  0.0716
  451MOL0     C60756   3.493   9.612   9.773  0.6297 -0.6770  0.5977
  451MOL0     C60757   3.500   9.673   9.896  0.7250  0.7105  0.5088
  451MOL0     O60758   3.432   9.618  10.006 -0.3235  0.1254  0.1970
  451MOL0     C60759   3.469   9.653  10.138  0.3557  0.3047  0.0933
  451MOL0     C60760   3.435   9.546  10.239 -0.3983 -0.0792 -0.2173
  451MOL0     C60761   3.511   9.410  10.212  0.7472 -0.0971 -0.5007
  451MOL0     C60762   3.409   9.312  10.150  0.4659  0.3693  0.2697
  451MOL0     C60763   3.475   9.204  10.066 -0.5458 -0.4832 -0.9978
  451MOL0     C60764   3.502   9.242   9.921 -0.1417  0.0235  0.0540
  451MOL0     C60765   3.560   9.135   9.825 -0.1354 -0.5755  0.2944
  451MOL0     C60766   3.572   9.170   9.683 -0.7239  0.3249 -0.4635
  451MOL0     N60767   3.637   9.068   9.603 -0.0252  0.5175 -0.0574
  451MOL0     C60768   3.600   8.937   9.586  1.1077 -0.1224 -0.5112
  451MOL0     C60769   3.672   8.906   9.474  0.2562 -0.1413  0.4929
  451MOL0     C60770   3.660   8.786   9.378 -0.3862  0.1784  0.5676
  451MOL0     C60771   3.772   8.677   9.407 -0.0230  0.8969  1.2755
  451MOL0     C60772   3.732   8.568   9.513 -0.7888  0.4891  0.9682
  451MOL0     C60773   3.843   8.477   9.564 -0.8603  0.6924 -0.5796
  451MOL0     O60774   3.890   8.381   9.466 -0.7043 -0.0808  0.1272
  451MOL0     C60775   3.950   8.267   9.506  0.0800 -0.1357 -1.0381
  451MOL0     C60776   3.990   8.238   9.640 -0.0017 -0.1866  0.8625
  451MOL0     C60777   4.037   8.113   9.669 -0.0790  0.4626  0.5960
  451MOL0     C60778   4.038   8.014   9.569 -0.0415 -0.7284 -0.4266
  451MOL0     C60779   4.072   7.879   9.612  0.0858  0.2334 -0.0441
  451MOL0     O60780   4.142   7.804   9.532 -0.3811 -0.3354  0.3737
  451MOL0     C60781   4.172   7.683   9.572  0.1619 -0.0201  0.8198
  451MOL0     C60782   4.310   7.660   9.590 -0.0924  0.0376 -0.2601
  451MOL0     C60783   4.357   7.533   9.631  0.0626 -0.5606  0.2820
  451MOL0     C60784   4.261   7.430   9.645 -0.4093 -0.8886 -1.2496
  451MOL0     O60785   4.317   7.310   9.689  1.0632 -0.2760 -0.3405
  451MOL0     C60786   4.238   7.203   9.751 -0.8850  0.4785  0.3827
  451MOL0     C60787   4.331   7.117   9.843 -0.2356 -0.4184 -0.0858
  451MOL0     C60788   4.363   7.196   9.974  1.2357 -0.5080 -0.2249
  451MOL0     C60789   4.466   7.115  10.058 -0.1372 -0.8087  0.2194
  451MOL0     C60790   4.415   6.981  10.104  0.4946  0.5134 -0.0633
  451MOL0     C60791   4.523   6.919  10.194  0.2351  0.2421 -0.3125
  451MOL0     C60792   4.631   6.849  10.117  0.4458  0.4829 -0.7153
  451MOL0     C60793   4.714   6.769  10.212  0.2347 -1.4569  0.8299
  451MOL0    Cl60794   4.833   6.669  10.123 -0.3856  0.4415  0.3479
  451MOL0     C60795   4.122   7.450   9.608 -0.4409  0.4058  0.8058
  451MOL0     C60796   4.074   7.579   9.577 -0.3700  0.9161  1.2081
  451MOL0     O60797   4.030   7.844   9.723 -0.2553  0.3589  0.1102
  451MOL0     C60798   4.012   8.052   9.436  0.2761 -0.0259  0.2017
  451MOL0     C60799   3.966   8.173   9.410 -0.5169  0.1613 -0.0138
  451MOL0     N60800   3.762   9.012   9.440  0.0402 -0.2941  0.9378
  451MOL0     N60801   3.739   9.107   9.526 -0.1572 -0.6169  0.7245
  451MOL0     C60802   3.564   9.791   9.907  0.3027 -0.2996 -0.1030
  451MOL0     C60803   3.625   9.851   9.806  0.0045 -0.2442 -0.4627
  451MOL0     C60804   3.878   9.903   9.433 -0.0643  0.3348  0.1816
  451MOL0     C60805   4.023   9.908   9.428  0.1218 -0.4326 -0.4736
  451MOL0     C60806   4.101   9.911   9.313  0.8119  0.4618  0.6130
  451MOL0     C60807   4.036   9.916   9.194  0.4201 -0.2604  0.1314
  451MOL0     O60808   4.093   9.932   9.069  1.2650 -0.6014 -0.3670
  451MOL0     C60809   4.185  10.042   9.063 -0.0924  0.4296  0.4998
  451MOL0     C60810   4.124  10.122   8.957 -0.0946  0.0331 -0.3210
  451MOL0     C60811   4.206  10.243   8.926  0.2628 -0.2419 -0.2521
  451MOL0     C60812   4.127  10.317   8.812  0.9244  0.3464  0.3541
  451MOL0     C60813   4.107  10.247   8.688 -0.4939  0.0812 -0.2036
  451MOL0     C60814   4.093  10.186   8.585  0.7579  0.3182  0.6319
  451MOL0     C60815   3.899   9.917   9.193  0.6508 -0.5966 -0.0162
  451MOL0     C60816   3.815   9.906   9.307  0.0141  0.6125  0.5257
  451MOL0     C60817   3.662   9.892   9.286  0.0519 -0.3344  0.6966
  451MOL0     H60818   3.574   9.628   9.565  2.1977  0.2115  0.5440
  451MOL0     H60819   3.438   9.520   9.758  2.1328 -1.6264  0.6661
  451MOL0     H60820   3.577   9.665  10.143  0.5217 -1.2609  1.3617
  451MOL0     H60821   3.423   9.748  10.166  0.3844 -0.4660  3.0992
  451MOL0     H60822   3.326   9.541  10.241 -0.3655 -2.2211 -0.9838
  451MOL0     H60823   3.453   9.581  10.341 -0.3117  0.5996 -0.4590
  451MOL0     H60824   3.541   9.373  10.311 -0.1545 -1.0040 -0.5513
  451MOL0     H60825   3.598   9.442  10.154  1.8190  1.2280  1.6731
  451MOL0     H60826   3.346   9.276  10.232  2.2416  0.7850  1.8660
  451MOL0     H60827   3.334   9.361  10.087 -2.1341  1.2189  3.6826
  451MOL0     H60828   3.558   9.151  10.115 -2.0869 -3.0954 -1.0573
  451MOL0     H60829   3.406   9.119  10.070  0.6486 -1.4459  1.1085
  451MOL0     H60830   3.411   9.281   9.875  0.6353  1.6176 -0.2262
  451MOL0     H60831   3.569   9.328   9.906  1.5058 -1.4798 -1.7850
  451MOL0     H60832   3.494   9.050   9.843  2.7132 -2.6839  1.4246
  451MOL0     H60833   3.664   9.122   9.854  0.2158  0.9368 -0.1826
  451MOL0     H60834   3.472   9.175   9.639 -1.6917 -2.6137  1.1065
  451MOL0     H60835   3.629   9.262   9.674 -2.2255  1.3054 -0.3815
  451MOL0     H60836   3.524   8.879   9.636 -0.1615  2.7445  1.1521
  451MOL0     H60837   3.562   8.739   9.387  1.0621 -4.4032 -3.3419
  451MOL0     H60838   3.656   8.821   9.274  0.3770  0.5274  0.6462
  451MOL0     H60839   3.784   8.636   9.307 -2.0305  0.7837  1.0314
  451MOL0     H60840   3.868   8.722   9.434  0.3171  0.1485  1.3399
  451MOL0     H60841   3.654   8.500   9.478  0.6247 -1.9270  2.2383
  451MOL0     H60842   3.683   8.624   9.593  0.3076  0.7788  1.4568
  451MOL0     H60843   3.811   8.421   9.652 -0.0891 -1.9833 -1.9031
  451MOL0     H60844   3.925   8.546   9.585  0.6445 -0.9215 -1.0204
  451MOL0     H60845   4.000   8.299   9.730 -1.1110 -1.7408  2.1030
  451MOL0     H60846   4.066   8.102   9.773 -3.4809  1.3262  1.7833
  451MOL0     H60847   4.369   7.748   9.567  1.8523 -1.3455 -0.9303
  451MOL0     H60848   4.462   7.520   9.654  0.4632 -2.7181 -2.2330
  451MOL0     H60849   4.158   7.248   9.811  2.0661  3.8160  2.2440
  451MOL0     H60850   4.193   7.148   9.668 -2.7405  0.7875  1.1143
  451MOL0     H60851   4.275   7.023   9.845  0.7428 -1.0155  2.1434
  451MOL0     H60852   4.424   7.097   9.790  0.4120  2.4928 -0.2422
  451MOL0     H60853   4.401   7.296   9.949 -0.0572 -0.3989 -1.9736
  451MOL0     H60854   4.274   7.214  10.036  1.4444  2.3297 -0.5861
  451MOL0     H60855   4.494   7.166  10.150  0.7003 -2.4661  0.9191
  451MOL0     H60856   4.558   7.111   9.999 -0.8777  1.2694 -1.2197
  451MOL0     H60857   4.389   6.908  10.027  1.3438  3.3078 -3.2233
  451MOL0     H60858   4.331   6.997  10.173  0.9479  1.9088  0.1963
  451MOL0     H60859   4.568   6.991  10.263 -0.3093  0.5956 -0.3207
  451MOL0     H60860   4.469   6.854  10.264  4.5100 -3.6971 -0.2143
  451MOL0     H60861   4.694   6.926  10.073  0.3840  0.9858  0.0530
  451MOL0     H60862   4.586   6.797  10.032 -0.6765  3.2195 -1.9118
  451MOL0     H60863   4.768   6.827  10.287 -2.3501  2.6357 -0.1347
  451MOL0     H60864   4.645   6.705  10.268 -1.8000 -3.5492 -3.5703
  451MOL0     H60865   4.040   7.379   9.616 -0.4675  0.3570  0.1306
  451MOL0     H60866   3.969   7.593   9.554 -0.2740  0.9138  0.7433
  451MOL0     H60867   4.015   7.973   9.362 -3.7762 -0.5993  0.4108
  451MOL0     H60868   3.933   8.205   9.312 -0.1676 -0.2669 -0.2713
  451MOL0     H60869   3.579   9.855   9.993 -2.8420  3.4080 -2.0138
  451MOL0     H60870   3.677   9.946   9.821  0.5976 -0.9115  2.0854
  451MOL0     H60871   4.067   9.911   9.527 -3.7472 -0.2909  1.4291
  451MOL0     H60872   4.208   9.926   9.315  1.0198  0.0479 -2.4996
  451MOL0     H60873   4.280   9.993   9.038 -0.5988 -0.9160  1.0800
  451MOL0     H60874   4.200  10.095   9.157 -0.0764 -1.3108  1.5388
  451MOL0     H60875   4.026  10.159   8.988  0.5540  0.0451  1.8871
  451MOL0     H60876   4.120  10.065   8.864 -0.0677 -3.6317  1.7500
  451MOL0     H60877   4.306  10.217   8.892  0.3013  0.8299 -0.9893
  451MOL0     H60878   4.223  10.314   9.007  0.4238  0.8498 -1.2258
  451MOL0     H60879   4.033  10.350   8.857  1.0293 -0.2288  1.0259
  451MOL0     H60880   4.184  10.405   8.783  0.9480 -0.6713 -3.0905
  451MOL0     H60881   4.058  10.145   8.492  1.6709  1.2451 -0.1520
  451MOL0     H60882   3.857   9.931   9.093  2.7305 -4.4944 -1.6318
  451MOL0     H60883   3.598   9.954   9.349 -0.1396  3.4052 -2.7133
  451MOL0     H60884   3.636   9.923   9.184  3.8537  3.4073  0.5548
  451MOL0     H60885   3.633   9.788   9.300  2.5789 -1.2157 -0.0072
  452MOL0     O60886   7.808   1.266   1.195 -0.0730  0.0205  0.5461
  452MOL0     C60887   7.700   1.204   1.185 -1.3991  0.1517  0.3001
  452MOL0     O60888   7.704   1.067   1.173  0.1252 -0.6049 -0.3498
  452MOL0     C60889   7.817   0.991   1.186 -0.5313  0.3340 -0.3459
  452MOL0     C60890   7.941   1.032   1.112  0.1786  0.8203  0.0985
  452MOL0     C60891   8.055   0.964   1.127 -0.6766 -0.5769 -0.4924
  452MOL0     C60892   8.054   0.847   1.203  0.6618 -0.7388  0.2474
  452MOL0     O60893   8.172   0.777   1.195 -0.1246 -0.2919  0.4391
  452MOL0     C60894   8.175   0.651   1.259 -0.8272  0.0095  0.9188
  452MOL0     C60895   8.328   0.602   1.245  0.2774  0.2347  0.2527
  452MOL0     C60896   8.370   0.546   1.111  0.0885  1.3268  1.1571
  452MOL0     C60897   8.527   0.543   1.111 -0.1262 -0.1603 -0.6458
  452MOL0     C60898   8.596   0.443   1.015  0.0337  0.3330  0.3584
  452MOL0     C60899   8.564   0.486   0.873  0.3459 -0.2547  0.3163
  452MOL0     C60900   8.604   0.398   0.754 -0.2885  0.6676 -0.0843
  452MOL0     C60901   8.763   0.355   0.760 -0.0883 -0.4255 -0.4129
  452MOL0     N60902   8.856   0.465   0.760 -0.2752 -0.4411  1.1521
  452MOL0     C60903   8.858   0.567   0.665 -0.3311  1.5454  0.6036
  452MOL0     C60904   8.954   0.651   0.711 -0.1661  0.7510 -1.0969
  452MOL0     C60905   9.015   0.761   0.633  1.1454  0.3186 -0.2009
  452MOL0     C60906   9.073   0.873   0.716 -0.1805  0.4101  0.2740
  452MOL0     C60907   9.145   0.991   0.630  0.3862 -0.1132 -0.1722
  452MOL0     C60908   9.039   1.060   0.540 -0.4350  0.5168 -0.3464
  452MOL0     O60909   9.083   1.184   0.494 -0.8791 -0.5591 -0.0126
  452MOL0     C60910   9.007   1.232   0.395  0.1284  0.1865 -0.4643
  452MOL0     C60911   8.885   1.304   0.412 -0.3826 -0.3136  0.0399
  452MOL0     C60912   8.804   1.339   0.301  0.6444 -0.1633  0.8760
  452MOL0     C60913   8.843   1.304   0.170 -0.6841 -0.7459 -0.7020
  452MOL0     C60914   8.769   1.342   0.052 -0.2572  0.5923  0.2837
  452MOL0     O60915   8.824   1.307  -0.071  0.3977 -0.3149 -1.0241
  452MOL0     C60916   8.743   1.305  -0.188 -0.0030  0.1103  0.2139
  452MOL0     C60917   8.650   1.199  -0.203 -0.4423 -0.2200  0.2381
  452MOL0     C60918   8.572   1.194  -0.317 -0.5994  0.2325 -0.0476
  452MOL0     C60919   8.586   1.295  -0.410  0.8364  0.4010  0.4009
  452MOL0     O60920   8.525   1.287  -0.534 -0.9798 -0.1419  0.2591
  452MOL0     C60921   8.436   1.167  -0.564  0.2778 -0.2339 -0.2190
  452MOL0     C60922   8.384   1.193  -0.710 -0.0884  0.7725 -0.7609
  452MOL0     C60923   8.267   1.288  -0.725  0.5360  0.1036  0.0018
  452MOL0     C60924   8.309   1.438  -0.712  0.7132  0.2503 -0.7798
  452MOL0     C60925   8.408   1.497  -0.817  0.3203 -0.0206  0.5145
  452MOL0     C60926   8.337   1.509  -0.958 -0.4719 -0.1024 -0.0185
  452MOL0     C60927   8.301   1.659  -1.002 -0.1175 -0.5569  0.0114
  452MOL0     C60928   8.411   1.736  -1.071  0.5992  0.4029 -0.3309
  452MOL0    Cl60929   8.329   1.849  -1.191  0.2013  0.4069 -0.1349
  452MOL0     C60930   8.673   1.402  -0.396  0.7592  0.6641 -0.5831
  452MOL0     C60931   8.761   1.404  -0.289  1.3818 -0.0391 -0.4450
  452MOL0     O60932   8.660   1.403   0.064 -0.3241 -0.2989 -0.2067
  452MOL0     C60933   8.960   1.231   0.154  0.4262  0.3621  0.2223
  452MOL0     C60934   9.038   1.203   0.266  0.7358  0.4628 -0.0085
  452MOL0     N60935   9.004   0.598   0.832  0.0598  0.0006 -0.4672
  452MOL0     N60936   8.944   0.489   0.862  1.1572 -0.3422  0.6250
  452MOL0     C60937   7.933   0.800   1.270 -0.7477 -0.4828 -0.6625
  452MOL0     C60938   7.813   0.872   1.260 -0.4798 -0.4216  0.6245
  452MOL0     C60939   7.582   1.279   1.226 -0.0698 -0.7856  0.5109
  452MOL0     C60940   7.462   1.206   1.226 -0.3708 -0.1900  0.0283
  452MOL0     C60941   7.338   1.255   1.251 -0.9389 -0.4513 -0.4207
  452MOL0     C60942   7.333   1.386   1.290  0.0267 -0.5896 -0.0898
  452MOL0     O60943   7.209   1.432   1.326  0.5328  0.1836 -0.6437
  452MOL0     C60944   7.123   1.458   1.209 -0.1177 -0.4698  0.2306
  452MOL0     C60945   6.982   1.459   1.256  0.4241  0.1374  0.1662
  452MOL0     C60946   6.924   1.316   1.269  0.0611  0.1528  0.0130
  452MOL0     C60947   6.772   1.307   1.285 -1.1854  0.5562 -0.6788
  452MOL0     C60948   6.733   1.384   1.409 -0.6850  0.5231  0.6606
  452MOL0     C60949   6.701   1.445   1.503  0.0255 -0.8281  0.6377
  452MOL0     C60950   7.442   1.470   1.281 -0.1409 -0.3756 -0.2490
  452MOL0     C60951   7.568   1.420   1.248 -0.0725 -0.1023  0.1944
  452MOL0     C60952   7.682   1.529   1.244 -0.0195 -0.3267  0.1377
  452MOL0     H60953   7.935   1.119   1.048  2.9971 -0.7829 -2.6478
  452MOL0     H60954   8.145   0.966   1.066 -2.6100  1.2631 -3.5249
  452MOL0     H60955   8.144   0.647   1.364  2.3294  1.2167  2.0386
  452MOL0     H60956   8.116   0.575   1.207 -3.7138  2.5940  0.1684
  452MOL0     H60957   8.352   0.521   1.315 -0.2047 -1.5012 -1.4903
  452MOL0     H60958   8.380   0.696   1.266 -0.5560  0.7516  0.0405
  452MOL0     H60959   8.350   0.616   1.030  0.4272 -1.5243 -1.5609
  452MOL0     H60960   8.323   0.453   1.078 -3.8511  3.1711  1.0506
  452MOL0     H60961   8.561   0.642   1.079  0.7371 -0.1122  0.3707
  452MOL0     H60962   8.554   0.513   1.213  0.7960  0.2688 -0.7551
  452MOL0     H60963   8.704   0.438   1.026  0.2434 -1.6215 -1.7648
  452MOL0     H60964   8.554   0.345   1.037 -3.0364  1.3012 -0.6208
  452MOL0     H60965   8.456   0.467   0.868 -0.1052  2.3012 -2.4344
  452MOL0     H60966   8.571   0.594   0.856 -3.5976 -0.0015 -0.7659
  452MOL0     H60967   8.585   0.439   0.655  0.4426 -0.2403 -0.6188
  452MOL0     H60968   8.549   0.303   0.751  0.8287 -0.0062 -0.0449
  452MOL0     H60969   8.781   0.305   0.856 -2.3363  0.6762  0.6606
  452MOL0     H60970   8.784   0.291   0.674  0.4684  1.3566 -1.6523
  452MOL0     H60971   8.802   0.565   0.572  2.0068 -0.8708 -0.9182
  452MOL0     H60972   9.092   0.726   0.564  1.4194  1.1156 -0.3070
  452MOL0     H60973   8.938   0.799   0.565  0.5048  0.6995  0.7282
  452MOL0     H60974   9.006   0.914   0.793 -0.3678 -2.3258  1.6978
  452MOL0     H60975   9.152   0.820   0.769 -0.3166 -1.0929 -0.9554
  452MOL0     H60976   9.237   0.960   0.580 -0.0567 -0.8764 -0.5351
  452MOL0     H60977   9.175   1.069   0.701 -0.2731 -1.8836  2.1664
  452MOL0     H60978   8.952   1.072   0.606 -1.2319 -1.6276 -0.9388
  452MOL0     H60979   9.024   0.987   0.459  2.2270 -1.2014  0.5860
  452MOL0     H60980   8.857   1.320   0.515 -0.9741 -2.4273  0.2463
  452MOL0     H60981   8.707   1.385   0.316  0.9661  1.5675 -1.6257
  452MOL0     H60982   8.642   1.123  -0.126  3.6728 -1.6735 -0.5409
  452MOL0     H60983   8.515   1.102  -0.325 -0.5105  0.2652 -1.1216
  452MOL0     H60984   8.490   1.072  -0.563 -3.1392 -2.3602 -1.4989
  452MOL0     H60985   8.350   1.159  -0.498 -0.9982 -1.4409 -1.9306
  452MOL0     H60986   8.471   1.232  -0.763  0.4665  2.4041  1.2189
  452MOL0     H60987   8.350   1.095  -0.744 -0.0536  0.3158  0.4963
  452MOL0     H60988   8.233   1.278  -0.828  1.0730  0.9161 -0.2676
  452MOL0     H60989   8.190   1.258  -0.653 -3.7217  0.8921 -3.7666
  452MOL0     H60990   8.354   1.448  -0.613  2.9171 -2.6884 -1.3492
  452MOL0     H60991   8.225   1.509  -0.705  1.9990  1.6820  2.6633
  452MOL0     H60992   8.491   1.427  -0.826 -1.2155 -1.8822  0.3174
  452MOL0     H60993   8.440   1.599  -0.794  4.1255 -0.5769 -1.5694
  452MOL0     H60994   8.409   1.472  -1.031 -1.4197  1.5336 -1.8900
  452MOL0     H60995   8.247   1.448  -0.972 -0.5350  0.6654 -4.2185
  452MOL0     H60996   8.268   1.707  -0.910 -0.1864 -1.4550  0.4662
  452MOL0     H60997   8.217   1.655  -1.072 -1.8806 -0.9304  2.0405
  452MOL0     H60998   8.457   1.800  -0.995  2.4569 -0.7378 -0.4444
  452MOL0     H60999   8.489   1.678  -1.120  0.2163 -0.2487 -0.1884
  452MOL0     H61000   8.669   1.480  -0.470 -0.3857 -0.7815 -2.1242
  452MOL0     H61001   8.842   1.475  -0.274  2.4269 -1.5805  1.8167
  452MOL0     H61002   8.992   1.186   0.061  0.0099  0.7793 -0.1256
  452MOL0     H61003   9.117   1.132   0.243  0.0109  0.0534 -1.3412
  452MOL0     H61004   7.940   0.704   1.320 -0.1891 -0.1863 -0.1610
  452MOL0     H61005   7.720   0.837   1.303  0.1017 -0.1746  2.1279
  452MOL0     H61006   7.474   1.102   1.199  1.1656  0.0013 -0.1480
  452MOL0     H61007   7.257   1.194   1.287  0.3913 -1.3365  1.2394
  452MOL0     H61008   7.121   1.378   1.134 -0.1534  0.8013 -1.1640
  452MOL0     H61009   7.153   1.540   1.144  3.0566 -2.3047 -0.8307
  452MOL0     H61010   6.922   1.510   1.180 -0.1008 -0.8199 -0.0869
  452MOL0     H61011   6.974   1.502   1.356  1.6697  0.7589  0.0196
  452MOL0     H61012   6.981   1.270   1.350  0.4836 -0.8124 -0.8141
  452MOL0     H61013   6.952   1.258   1.181 -2.1052 -3.5695  1.5670
  452MOL0     H61014   6.723   1.351   1.197 -4.2317  1.2520  1.1934
  452MOL0     H61015   6.748   1.202   1.304  1.9440 -0.2478 -0.7401
  452MOL0     H61016   6.654   1.522   1.560  1.5234  2.4252 -2.1695
  452MOL0     H61017   7.422   1.574   1.306 -0.2974  0.1789 -2.4650
  452MOL0     H61018   7.633   1.622   1.215  1.1176 -0.1572 -1.3705
  452MOL0     H61019   7.723   1.547   1.344  1.7105 -0.4307 -0.5193
  452MOL0     H61020   7.761   1.507   1.173 -1.0408  1.9445 -1.8390
  453MOL0     O61021   3.059  10.534   9.477  0.1344 -0.2427 -0.4002
  453MOL0     C61022   3.033  10.644   9.520 -0.4611 -0.3889  0.6061
  453MOL0     O61023   3.114  10.754   9.511 -0.2667 -0.1221  0.2558
  453MOL0     C61024   3.230  10.745   9.436 -0.2748 -0.2547 -0.4617
  453MOL0     C61025   3.340  10.780   9.504 -0.5524  0.0058 -0.3793
  453MOL0     C61026   3.452  10.793   9.421  0.5320 -1.5451  0.4714
  453MOL0     C61027   3.460  10.778   9.282  0.9852 -1.2948 -0.6497
  453MOL0     O61028   3.580  10.786   9.221 -0.4295 -0.8046  0.0626
  453MOL0     C61029   3.625  10.681   9.135 -0.2815 -0.5110 -0.7130
  453MOL0     C61030   3.774  10.693   9.098 -0.5503  0.6323 -0.7495
  453MOL0     C61031   3.819  10.824   9.039 -0.2045 -0.2886 -0.7954
  453MOL0     C61032   3.972  10.846   9.034  0.7337 -0.4164 -0.3737
  453MOL0     C61033   4.015  10.989   9.030 -0.0507  0.7571 -0.4131
  453MOL0     C61034   3.927  11.092   8.939  0.0773 -0.8385 -0.2387
  453MOL0     C61035   3.963  11.244   8.952 -1.2755 -0.0668 -0.3355
  453MOL0     C61036   3.903  11.293   9.088 -0.5727 -0.6274  0.6154
  453MOL0     N61037   3.760  11.287   9.117 -0.3399 -0.1847 -0.1667
  453MOL0     C61038   3.701  11.201   9.201 -0.0277  0.4195  0.3386
  453MOL0     C61039   3.570  11.225   9.207  0.3949  0.4630  0.7897
  453MOL0     C61040   3.476  11.142   9.287  1.4258  0.2202 -1.0058
  453MOL0     C61041   3.399  11.212   9.390  0.5808 -0.5125  0.6550
  453MOL0     C61042   3.334  11.127   9.495  0.5611 -0.0907 -0.1496
  453MOL0     C61043   3.284  11.212   9.609 -0.5500  0.9680 -0.0272
  453MOL0     O61044   3.222  11.130   9.714 -0.8403  0.5248  0.9602
  453MOL0     C61045   3.184  11.206   9.825 -0.1763  0.3862  0.9427
  453MOL0     C61046   3.155  11.343   9.821 -0.7965  1.3469  0.5842
  453MOL0     C61047   3.126  11.422   9.926 -0.8841  0.4466 -0.6227
  453MOL0     C61048   3.110  11.357  10.050  0.6869 -0.3403 -0.2674
  453MOL0     C61049   3.093  11.438  10.178 -0.9252 -0.8355  0.8652
  453MOL0     O61050   3.083  11.577  10.157 -0.3984  0.2712 -0.5228
  453MOL0     C61051   3.080  11.668  10.254  0.6609  0.8101  0.6975
  453MOL0     C61052   3.176  11.764  10.254 -1.1466  0.6320 -0.6631
  453MOL0     C61053   3.174  11.872  10.335 -0.7350  0.3533  0.6079
  453MOL0     C61054   3.069  11.891  10.421  0.9409  0.5147  0.9886
  453MOL0     O61055   3.063  12.008  10.494 -1.0154 -0.2808  0.3353
  453MOL0     C61056   2.975  12.012  10.605  0.9753  0.5956 -0.7104
  453MOL0     C61057   3.003  12.139  10.687  0.0350 -0.8127  0.6354
  453MOL0     C61058   2.896  12.159  10.803 -1.2715  0.0262  0.4685
  453MOL0     C61059   2.928  12.282  10.885 -0.4690 -0.0903 -0.2454
  453MOL0     C61060   2.893  12.421  10.817  0.5445  0.1596  0.9628
  453MOL0     C61061   2.900  12.531  10.916  0.3502 -0.5530  0.4554
  453MOL0     C61062   2.828  12.665  10.861  0.7651  0.6039 -0.1428
  453MOL0     C61063   2.921  12.745  10.767 -0.0937 -0.1988  0.2460
  453MOL0    Cl61064   2.845  12.821  10.628 -0.0545 -0.1866 -0.6160
  453MOL0     C61065   2.965  11.792  10.414  0.9107 -0.9925  0.1325
  453MOL0     C61066   2.966  11.682  10.336 -0.2862  0.1167  0.1564
  453MOL0     O61067   3.098  11.381  10.293 -0.0803 -0.5150 -0.0992
  453MOL0     C61068   3.128  11.218  10.065  0.7805 -0.9426 -0.4216
  453MOL0     C61069   3.162  11.145   9.948  0.7911  0.1938  0.5758
  453MOL0     N61070   3.552  11.338   9.123 -0.0265  0.6108  0.1483
  453MOL0     N61071   3.667  11.366   9.067 -0.2461  0.3417 -0.0022
  453MOL0     C61072   3.339  10.739   9.219  0.1196 -0.3558  0.4779
  453MOL0     C61073   3.225  10.723   9.299 -0.7903 -0.4296 -0.4273
  453MOL0     C61074   2.893  10.668   9.580  0.1231  0.2176  0.4380
  453MOL0     C61075   2.837  10.793   9.560 -1.4674 -0.1846 -0.4055
  453MOL0     C61076   2.718  10.818   9.617  0.3171 -0.0361 -0.1322
  453MOL0     C61077   2.641  10.737   9.694 -1.2159  1.0810 -0.3436
  453MOL0     O61078   2.526  10.759   9.761  0.3608 -0.0773 -0.3925
  453MOL0     C61079   2.509  10.900   9.797  0.1659  0.4984 -0.5672
  453MOL0     C61080   2.384  10.893   9.878  0.0107  0.3485 -0.2307
  453MOL0     C61081   2.349  11.020   9.963 -0.4484 -0.1745 -0.8628
  453MOL0     C61082   2.299  11.133   9.879  0.3440  0.2681 -0.1514
  453MOL0     C61083   2.272  11.238   9.982 -0.5097 -0.7828  0.0237
  453MOL0     C61084   2.268  11.310  10.082 -0.0792 -0.1022 -0.1391
  453MOL0     C61085   2.692  10.601   9.710  0.5329 -0.3080 -0.7766
  453MOL0     C61086   2.814  10.573   9.649 -0.7984  1.0033  0.1925
  453MOL0     C61087   2.874  10.437   9.682 -0.0319 -0.0518  0.2472
  453MOL0     H61088   3.333  10.797   9.611 -0.1027 -0.7245 -0.2261
  453MOL0     H61089   3.546  10.818   9.468  0.8149  1.5803 -1.4590
  453MOL0     H61090   3.624  10.584   9.185  0.4622  0.1055  0.5638
  453MOL0     H61091   3.573  10.672   9.039 -0.4013 -0.2927 -0.6713
  453MOL0     H61092   3.806  10.614   9.029 -3.0543 -0.1912 -1.0683
  453MOL0     H61093   3.824  10.672   9.193 -3.7316 -3.7523  0.2825
  453MOL0     H61094   3.765  10.908   9.085 -1.8960 -1.3865 -0.6580
  453MOL0     H61095   3.781  10.816   8.937 -3.0469 -1.4541  0.2435
  453MOL0     H61096   4.021  10.800   9.120  1.6419  0.5428 -0.3631
  453MOL0     H61097   3.997  10.791   8.943 -0.2010 -2.2052  0.3952
  453MOL0     H61098   4.017  11.023   9.134  2.6569 -2.1282  0.6281
  453MOL0     H61099   4.119  10.998   8.997  0.0167  3.1085  0.2981
  453MOL0     H61100   3.953  11.067   8.836  0.1631  0.0395 -0.4355
  453MOL0     H61101   3.818  11.076   8.938 -0.1346  0.5014 -0.0765
  453MOL0     H61102   3.933  11.309   8.869  1.9262 -0.4695 -1.9497
  453MOL0     H61103   4.072  11.246   8.956 -1.3048  0.6522  0.4615
  453MOL0     H61104   3.946  11.253   9.180  2.4365 -0.5504 -0.6648
  453MOL0     H61105   3.945  11.394   9.080  0.6507 -1.2591 -4.1947
  453MOL0     H61106   3.764  11.130   9.255  2.4906  1.4708 -1.0638
  453MOL0     H61107   3.402  11.088   9.227 -0.0832  0.6865  0.3780
  453MOL0     H61108   3.542  11.069   9.335  0.2440 -2.1443 -2.7678
  453MOL0     H61109   3.474  11.274   9.439  3.8376 -1.2046 -3.0296
  453MOL0     H61110   3.318  11.270   9.345  1.0261  3.5899  4.4393
  453MOL0     H61111   3.420  11.075   9.539  0.9275 -1.1720 -2.0423
  453MOL0     H61112   3.255  11.067   9.449 -0.0366  0.6474 -0.1074
  453MOL0     H61113   3.215  11.278   9.556  0.3908 -1.4468 -4.8685
  453MOL0     H61114   3.372  11.258   9.655 -1.0712 -0.1263  2.1959
  453MOL0     H61115   3.145  11.399   9.729  0.5022  3.2202  1.5401
  453MOL0     H61116   3.104  11.528   9.926 -3.0977  0.0264 -0.6101
  453MOL0     H61117   3.254  11.741  10.182  0.6858 -1.0282  1.6897
  453MOL0     H61118   3.257  11.942  10.324 -0.5437 -0.0223 -0.5148
  453MOL0     H61119   2.871  12.003  10.573  0.4325 -0.2721  1.1457
  453MOL0     H61120   2.984  11.928  10.674 -1.9615  0.2418 -0.6356
  453MOL0     H61121   3.108  12.142  10.716  0.1372 -1.8332  0.3930
  453MOL0     H61122   2.984  12.219  10.614 -0.1724 -1.7213 -0.3255
  453MOL0     H61123   2.794  12.156  10.763 -0.4891  1.2223 -1.8464
  453MOL0     H61124   2.899  12.073  10.871 -2.5943 -1.2307 -0.9745
  453MOL0     H61125   3.033  12.285  10.917 -0.7311  4.9081  0.9844
  453MOL0     H61126   2.854  12.275  10.965 -1.5685 -1.4576 -1.3357
  453MOL0     H61127   2.800  12.428  10.760  0.3280  1.0258  1.4090
  453MOL0     H61128   2.972  12.448  10.746 -0.2733  1.7278  0.6130
  453MOL0     H61129   2.855  12.490  11.007 -0.1706 -0.3322  0.3050
  453MOL0     H61130   3.007  12.549  10.931  0.6209 -1.1802 -0.6139
  453MOL0     H61131   2.801  12.734  10.941  0.8722  0.9770 -0.4237
  453MOL0     H61132   2.739  12.642  10.802  0.2500  1.1774  0.3902
  453MOL0     H61133   2.974  12.815  10.833  2.7963 -1.7802 -0.2053
  453MOL0     H61134   2.991  12.679  10.716 -0.1716 -1.1032  1.2789
  453MOL0     H61135   2.873  11.794  10.472  1.0494  0.4228  0.3221
  453MOL0     H61136   2.884  11.610  10.335 -0.0457 -0.2227  2.0013
  453MOL0     H61137   3.115  11.175  10.164  0.4958 -0.5365 -0.2826
  453MOL0     H61138   3.167  11.037   9.945 -0.8287 -0.0440 -5.1300
  453MOL0     H61139   3.331  10.717   9.113  1.8280  2.3569 -0.3102
  453MOL0     H61140   3.130  10.708   9.248 -2.1924  0.4093  1.7950
  453MOL0     H61141   2.891  10.879   9.522  1.0735  0.0255  3.1968
  453MOL0     H61142   2.675  10.918   9.610 -0.3779 -0.0553  2.6528
  453MOL0     H61143   2.499  10.971   9.715  2.0169 -2.8756 -4.0379
  453MOL0     H61144   2.592  10.931   9.861 -1.6822  1.7601  1.3470
  453MOL0     H61145   2.393  10.817   9.956  1.0143 -1.3379 -1.9203
  453MOL0     H61146   2.299  10.865   9.815 -0.3191 -0.5808  0.6019
  453MOL0     H61147   2.437  11.049  10.021 -0.9132 -1.0118  0.2832
  453MOL0     H61148   2.276  10.996  10.040  0.0072 -3.0890 -1.2350
  453MOL0     H61149   2.372  11.171   9.807  1.2636  0.2298  0.7369
  453MOL0     H61150   2.206  11.095   9.836  0.0643  0.7007  0.0678
  453MOL0     H61151   2.243  11.368  10.169 -0.9463  0.0394 -0.4773
  453MOL0     H61152   2.632  10.534   9.770  0.7707  0.5470  0.4783
  453MOL0     H61153   2.867  10.380   9.589  1.2832 -0.8329  0.5931
  453MOL0     H61154   2.979  10.440   9.714 -0.5208 -1.5330  2.1393
  453MOL0     H61155   2.820  10.376   9.754  1.2416 -0.0697  1.2374
  454MOL0     O61156  11.169   9.965   6.463  0.5327 -0.4283  0.9864
  454MOL0     C61157  11.206   9.954   6.581  0.8519  0.0247  0.7047
  454MOL0     O61158  11.270   9.848   6.635  1.0512 -0.2508 -0.0839
  454MOL0     C61159  11.296   9.736   6.558  0.0333  0.1600 -0.7672
  454MOL0     C61160  11.186   9.649   6.534 -0.3025 -0.5322 -0.8279
  454MOL0     C61161  11.208   9.550   6.439  0.0755  0.0317  0.0202
  454MOL0     C61162  11.335   9.526   6.388  0.2689 -0.5313  0.0891
  454MOL0     O61163  11.337   9.419   6.303 -0.6777 -0.4066  0.0024
  454MOL0     C61164  11.466   9.372   6.249  0.8049  0.4107  0.3136
  454MOL0     C61165  11.446   9.256   6.147 -0.2508  0.8059 -0.5120
  454MOL0     C61166  11.354   9.314   6.040 -0.9990  0.3813  0.2324
  454MOL0     C61167  11.312   9.196   5.946  0.5214  0.7777 -0.0996
  454MOL0     C61168  11.207   9.230   5.841 -0.4385  0.1404 -0.0709
  454MOL0     C61169  11.244   9.352   5.752 -0.1199 -0.1687  0.6808
  454MOL0     C61170  11.126   9.361   5.641 -0.6028 -0.2044  0.3348
  454MOL0     C61171  11.154   9.461   5.528  0.9662 -0.8640  0.5519
  454MOL0     N61172  11.037   9.485   5.442  0.2077 -0.0622 -0.5397
  454MOL0     C61173  11.024   9.602   5.374 -0.3258  0.0578  0.9331
  454MOL0     C61174  10.916   9.585   5.290  0.1137 -0.7689 -0.5068
  454MOL0     C61175  10.886   9.699   5.195  0.1457 -0.0374  0.2992
  454MOL0     C61176  10.739   9.693   5.147 -0.7433 -0.3761 -0.2571
  454MOL0     C61177  10.699   9.571   5.063 -0.5724  0.2378  0.5943
  454MOL0     C61178  10.553   9.579   5.028  0.5069  0.1910 -0.0953
  454MOL0     O61179  10.542   9.662   4.907  0.1638  0.0724 -0.3522
  454MOL0     C61180  10.462   9.620   4.803  0.3068  0.2075  0.2086
  454MOL0     C61181  10.488   9.672   4.672 -0.5057 -0.0038 -0.2894
  454MOL0     C61182  10.429   9.610   4.558 -1.0982  0.3929  0.7387
  454MOL0     C61183  10.340   9.510   4.572  0.0094 -0.3478 -0.5921
  454MOL0     C61184  10.282   9.437   4.451 -0.3738  0.1827  0.8298
  454MOL0     O61185  10.188   9.339   4.473  0.0433 -0.2257 -0.2235
  454MOL0     C61186  10.112   9.292   4.371 -0.9358 -0.5502 -0.4782
  454MOL0     C61187   9.979   9.299   4.399  0.1023  0.5769 -0.3914
  454MOL0     C61188   9.889   9.258   4.306 -0.9461  0.5952  0.2310
  454MOL0     C61189   9.931   9.204   4.178 -0.8169 -0.4688  1.4311
  454MOL0     O61190   9.830   9.154   4.099 -0.2245 -0.3528  0.8296
  454MOL0     C61191   9.864   9.053   4.005 -0.1020  0.1877 -0.2935
  454MOL0     C61192   9.738   9.057   3.909  0.0686 -0.1755 -0.8709
  454MOL0     C61193   9.721   8.928   3.828  0.3587 -0.3271 -0.4402
  454MOL0     C61194   9.665   8.814   3.919  1.1367 -0.2716  0.9078
  454MOL0     C61195   9.638   8.697   3.825 -0.0076  0.3960 -0.7467
  454MOL0     C61196   9.561   8.583   3.895 -0.0664  0.1355 -0.3625
  454MOL0     C61197   9.591   8.450   3.824 -0.2478  0.3616 -0.0503
  454MOL0     C61198   9.539   8.332   3.899 -0.3248  0.8194 -0.7063
  454MOL0    Cl61199   9.370   8.314   3.847  0.0403  0.2102  0.1067
  454MOL0     C61200  10.068   9.199   4.148  0.3377  0.0143 -0.6344
  454MOL0     C61201  10.156   9.249   4.242 -0.7763 -0.0810 -0.1310
  454MOL0     O61202  10.321   9.465   4.330  0.7364 -0.1148 -0.0617
  454MOL0     C61203  10.293   9.469   4.706 -0.2421  0.2000  1.6589
  454MOL0     C61204  10.361   9.525   4.817 -0.0249 -0.1568 -0.4049
  454MOL0     N61205  10.855   9.461   5.323 -0.0169  0.4418  0.1370
  454MOL0     N61206  10.932   9.401   5.411 -0.4849  0.3705 -0.2482
  454MOL0     C61207  11.442   9.610   6.419 -0.4725 -0.3767  1.0803
  454MOL0     C61208  11.416   9.722   6.492  0.7418  0.4769 -0.7610
  454MOL0     C61209  11.162  10.056   6.680  0.3361  0.0029 -0.0334
  454MOL0     C61210  11.254  10.079   6.785  0.2051  0.2352 -0.4488
  454MOL0     C61211  11.236  10.175   6.878  0.0843 -1.6616  0.5496
  454MOL0     C61212  11.127  10.265   6.865 -0.1203  0.1141  0.6496
  454MOL0     O61213  11.092  10.363   6.958 -0.1187  0.8497  0.1076
  454MOL0     C61214  11.186  10.401   7.059 -0.2615 -0.2031  0.0936
  454MOL0     C61215  11.135  10.537   7.112  0.2017 -0.1686  0.4418
  454MOL0     C61216  11.202  10.542   7.244  0.9342 -0.5714 -0.3135
  454MOL0     C61217  11.354  10.550   7.237  0.3329  0.3685  0.0349
  454MOL0     C61218  11.393  10.603   7.370 -0.1587 -0.1569  1.0502
  454MOL0     C61219  11.416  10.642   7.481  0.5772 -0.2908 -0.2625
  454MOL0     C61220  11.026  10.234   6.772  0.2807 -0.3378 -0.0484
  454MOL0     C61221  11.042  10.136   6.680 -0.5732  0.1148  1.2530
  454MOL0     C61222  10.939  10.129   6.567  0.2265 -0.1737  0.3809
  454MOL0     H61223  11.086   9.653   6.577 -1.1486  1.0716 -2.7991
  454MOL0     H61224  11.123   9.486   6.420 -0.4427  0.6316  0.2629
  454MOL0     H61225  11.501   9.462   6.198 -0.0309 -0.6950 -2.4136
  454MOL0     H61226  11.530   9.350   6.335  1.6625  1.0925 -0.1330
  454MOL0     H61227  11.393   9.173   6.196  1.1880  0.4178  0.4417
  454MOL0     H61228  11.543   9.223   6.107  0.2511 -0.9737  1.9293
  454MOL0     H61229  11.406   9.394   5.987  3.3033 -0.0382  3.3206
  454MOL0     H61230  11.261   9.352   6.084 -1.6831 -1.8298  0.8331
  454MOL0     H61231  11.392   9.163   5.880 -0.4827  2.5013 -2.3476
  454MOL0     H61232  11.266   9.115   6.002  2.8999 -0.4731  0.1693
  454MOL0     H61233  11.169   9.146   5.782 -1.7157 -1.7905  3.2169
  454MOL0     H61234  11.122   9.272   5.896  0.6957  0.2948  1.6546
  454MOL0     H61235  11.251   9.445   5.809  1.9686 -0.0930  0.3605
  454MOL0     H61236  11.338   9.336   5.700  0.9684  2.4251  1.6636
  454MOL0     H61237  11.032   9.403   5.680 -0.2263  2.7785 -1.6588
  454MOL0     H61238  11.107   9.262   5.599  1.9496 -1.7059  2.4593
  454MOL0     H61239  11.179   9.556   5.575 -1.1500 -0.7565  1.5462
  454MOL0     H61240  11.242   9.424   5.474 -0.4185 -2.7799 -0.5406
  454MOL0     H61241  11.080   9.695   5.373  3.1279 -1.8237 -1.1043
  454MOL0     H61242  10.886   9.784   5.263  1.3293 -2.6134  3.8320
  454MOL0     H61243  10.953   9.711   5.110 -1.8904  0.0896 -1.3646
  454MOL0     H61244  10.684   9.699   5.241  0.5249  0.7189  0.4542
  454MOL0     H61245  10.706   9.790   5.107 -2.4411  0.0836  2.0144
  454MOL0     H61246  10.711   9.481   5.126 -0.1299  0.3308  0.6442
  454MOL0     H61247  10.760   9.563   4.973 -1.1039  1.5818  0.1016
  454MOL0     H61248  10.494   9.638   5.099  1.2511  1.9118 -0.8257
  454MOL0     H61249  10.510   9.480   5.014 -1.5814  1.2294 -1.7134
  454MOL0     H61250  10.566   9.747   4.664  2.2972 -2.6556  0.1418
  454MOL0     H61251  10.468   9.645   4.463 -0.1163  0.9531  1.3308
  454MOL0     H61252   9.930   9.335   4.489 -4.6956  0.3011 -2.5903
  454MOL0     H61253   9.783   9.276   4.319 -0.8521  0.8336  0.6858
  454MOL0     H61254   9.952   9.081   3.946  0.3062  0.7940  0.5845
  454MOL0     H61255   9.882   8.963   4.065  1.8490  0.3130 -0.6223
  454MOL0     H61256   9.647   9.072   3.967 -1.0519 -0.1806 -2.5839
  454MOL0     H61257   9.737   9.147   3.846  3.0775 -0.8196 -2.0372
  454MOL0     H61258   9.669   8.942   3.732  1.2312 -2.5874 -1.3162
  454MOL0     H61259   9.822   8.895   3.803  0.2128 -2.3539  1.3823
  454MOL0     H61260   9.570   8.835   3.969 -1.1092 -4.0009 -1.3435
  454MOL0     H61261   9.730   8.790   4.003  0.4332 -0.5640  1.3805
  454MOL0     H61262   9.737   8.658   3.796  0.1161 -2.0648  2.4485
  454MOL0     H61263   9.576   8.733   3.743 -0.0538  3.2783  0.4528
  454MOL0     H61264   9.585   8.581   4.001 -1.1133 -0.5739 -0.1268
  454MOL0     H61265   9.453   8.596   3.887 -0.2778 -1.0158  0.5427
  454MOL0     H61266   9.700   8.449   3.824 -0.1972  2.0978  0.6918
  454MOL0     H61267   9.558   8.463   3.720  1.2313  1.4446 -0.4210
  454MOL0     H61268   9.597   8.240   3.895 -1.0757  0.3651 -1.3662
  454MOL0     H61269   9.546   8.360   4.005  0.9225  0.3991 -0.6654
  454MOL0     H61270  10.100   9.163   4.050 -1.4083 -5.0326  0.3515
  454MOL0     H61271  10.263   9.260   4.223 -0.5124  2.3001  2.1036
  454MOL0     H61272  10.209   9.401   4.711  0.7008 -1.2110 -0.4400
  454MOL0     H61273  10.323   9.498   4.915 -2.3368  2.1457 -0.5569
  454MOL0     H61274  11.539   9.613   6.371 -0.4829  1.9243  1.1164
  454MOL0     H61275  11.501   9.786   6.513  0.8705  0.2659 -0.6369
  454MOL0     H61276  11.350  10.029   6.789  1.4511  2.3142 -2.0190
  454MOL0     H61277  11.309  10.199   6.955  0.9814 -0.2657 -0.6749
  454MOL0     H61278  11.278  10.419   7.002 -2.0615  1.3404 -2.5611
  454MOL0     H61279  11.203  10.328   7.139  2.5503  0.3410  0.0950
  454MOL0     H61280  11.026  10.539   7.117  0.2055 -0.1133  0.5003
  454MOL0     H61281  11.162  10.623   7.051 -0.3101  0.9183  1.7075
  454MOL0     H61282  11.170  10.462   7.312  2.4663 -1.4786 -0.6205
  454MOL0     H61283  11.157  10.630   7.291  0.6244 -2.1305  2.5665
  454MOL0     H61284  11.400  10.451   7.226  1.0209  0.5743  1.0210
  454MOL0     H61285  11.386  10.620   7.159 -1.8734  0.5421 -0.7920
  454MOL0     H61286  11.422  10.678   7.582 -1.1278 -0.0217 -0.2162
  454MOL0     H61287  10.936  10.295   6.772 -0.2476 -0.8085  4.1688
  454MOL0     H61288  10.844  10.167   6.606  1.0592  2.7865 -0.1847
  454MOL0     H61289  10.969  10.199   6.488  0.1854 -2.7364 -2.0772
  454MOL0     H61290  10.937  10.025   6.535  1.7919 -1.3076  3.5500
  455MOL0     O61291  11.425  10.910  11.290  0.2257 -0.2814 -0.2681
  455MOL0     C61292  11.419  11.030  11.266  0.1041  0.2990  0.6266
  455MOL0     O61293  11.317  11.092  11.197 -0.7387  0.2143  0.3260
  455MOL0     C61294  11.207  11.029  11.162  0.6149  0.0651  0.3560
  455MOL0     C61295  11.131  10.959  11.251 -0.3854 -0.5748  0.1457
  455MOL0     C61296  11.003  10.909  11.228 -0.4533  0.7363  0.4781
  455MOL0     C61297  10.961  10.911  11.094  0.4375  0.9444  0.3977
  455MOL0     O61298  10.836  10.863  11.056 -0.7385  0.6302  0.4157
  455MOL0     C61299  10.779  10.756  11.135  0.2651  0.1700  0.5040
  455MOL0     C61300  10.640  10.723  11.074  0.6640  0.1660  0.0550
  455MOL0     C61301  10.567  10.608  11.150 -0.1354 -0.6360 -0.3278
  455MOL0     C61302  10.417  10.610  11.109  0.1105  0.3592 -0.2685
  455MOL0     C61303  10.329  10.526  11.202  0.0622 -0.7492 -0.4258
  455MOL0     C61304  10.314  10.373  11.180 -0.2705 -0.4658  0.9463
  455MOL0     C61305  10.239  10.311  11.291 -0.4075 -0.5343  0.5710
  455MOL0     C61306  10.222  10.160  11.289  0.6729 -0.5856 -0.6605
  455MOL0     N61307  10.186  10.107  11.422  0.4150  0.7123 -0.2939
  455MOL0     C61308  10.098  10.162  11.510 -0.2275 -0.7199 -0.5781
  455MOL0     C61309  10.109  10.079  11.619 -0.1962  0.5907  0.0325
  455MOL0     C61310  10.030  10.080  11.751 -0.1708 -0.0237 -0.7623
  455MOL0     C61311   9.884  10.057  11.711  0.0616  0.4494  0.1893
  455MOL0     C61312   9.831   9.935  11.644 -0.0712 -0.2583 -0.0963
  455MOL0     C61313   9.839   9.819  11.747 -0.6365 -0.7875 -0.5265
  455MOL0     O61314   9.790   9.714  11.663 -0.3772 -0.1639 -0.6566
  455MOL0     C61315   9.745   9.598  11.720 -0.6367 -1.0862 -0.3692
  455MOL0     C61316   9.681   9.501  11.651 -0.0938  0.6618 -0.6657
  455MOL0     C61317   9.632   9.386  11.704  0.4285  0.7916  0.7254
  455MOL0     C61318   9.648   9.358  11.836  0.4349  0.1612 -0.3427
  455MOL0     C61319   9.579   9.243  11.902  0.5935  0.4579  1.4162
  455MOL0     O61320   9.577   9.115  11.844 -0.2827 -0.0443  0.0950
  455MOL0     C61321   9.527   9.006  11.912  0.1167 -1.9422 -0.1827
  455MOL0     C61322   9.444   8.915  11.845 -1.2274 -0.2961 -0.3693
  455MOL0     C61323   9.383   8.810  11.908 -0.4229  1.3179 -0.5826
  455MOL0     C61324   9.413   8.771  12.043 -0.9254  0.1522  0.2659
  455MOL0     O61325   9.365   8.655  12.089  0.0496  0.5321 -0.0808
  455MOL0     C61326   9.402   8.620  12.219  0.6998  0.4487 -0.3403
  455MOL0     C61327   9.348   8.479  12.249  0.4864 -0.2324 -0.7237
  455MOL0     C61328   9.338   8.447  12.402  1.1149  0.2320 -0.0656
  455MOL0     C61329   9.359   8.295  12.441  0.1282 -0.7150  0.7197
  455MOL0     C61330   9.224   8.225  12.461  0.6326 -0.0086  0.6823
  455MOL0     C61331   9.243   8.075  12.453  0.2192 -0.1847 -0.5745
  455MOL0     C61332   9.274   8.005  12.322 -0.7574  0.5245 -0.2515
  455MOL0     C61333   9.172   7.889  12.291 -0.0689 -0.4871 -0.3296
  455MOL0    Cl61334   9.176   7.754  12.412 -0.5608  0.0653  0.4050
  455MOL0     C61335   9.503   8.866  12.111 -0.6385  1.0449  0.8866
  455MOL0     C61336   9.568   8.978  12.045 -0.0188  0.2336 -0.3606
  455MOL0     O61337   9.516   9.260  12.005 -0.0112  0.0145  0.0452
  455MOL0     C61338   9.715   9.449  11.911  0.0259 -0.3618  0.6944
  455MOL0     C61339   9.769   9.566  11.856  0.7299  0.2324  0.0494
  455MOL0     N61340  10.197   9.975  11.592 -0.1479 -0.5811 -0.7280
  455MOL0     N61341  10.243  10.003  11.473  0.8512  0.7097  0.2841
  455MOL0     C61342  11.033  10.981  10.994  0.3953 -0.1936 -0.1443
  455MOL0     C61343  11.158  11.037  11.031 -0.3142  0.5200 -0.5957
  455MOL0     C61344  11.522  11.118  11.323  0.2818  0.1650 -0.2267
  455MOL0     C61345  11.494  11.254  11.361  0.1348 -0.4830  1.0528
  455MOL0     C61346  11.580  11.341  11.417 -0.5887  0.4607  1.0016
  455MOL0     C61347  11.716  11.299  11.449  0.4834 -0.1136  0.7264
  455MOL0     O61348  11.808  11.362  11.524 -0.4778  0.0435 -0.7377
  455MOL0     C61349  11.783  11.367  11.671 -0.1623  0.0502 -0.0454
  455MOL0     C61350  11.796  11.233  11.738  0.4734  0.8471 -0.3022
  455MOL0     C61351  11.762  11.245  11.890  0.8683  0.1870  0.7964
  455MOL0     C61352  11.792  11.112  11.963 -0.6306 -0.3051 -0.8193
  455MOL0     C61353  11.668  11.025  11.971 -0.5561 -0.6165  0.0053
  455MOL0     C61354  11.568  10.961  12.002  0.7879 -0.7609 -0.5347
  455MOL0     C61355  11.751  11.163  11.414  0.8857  0.2294  0.2471
  455MOL0     C61356  11.659  11.078  11.349  0.3085  0.6948 -0.4008
  455MOL0     C61357  11.709  10.942  11.296 -0.4383  0.0847 -0.7053
  455MOL0     H61358  11.160  10.960  11.356 -0.4073 -0.8891  0.1562
  455MOL0     H61359  10.941  10.871  11.309  0.5907  2.1699  2.0254
  455MOL0     H61360  10.847  10.671  11.143 -0.0826 -0.3883 -1.9159
  455MOL0     H61361  10.765  10.799  11.235 -0.9335 -2.2462  1.4588
  455MOL0     H61362  10.654  10.695  10.969 -1.4788 -5.4583  0.9364
  455MOL0     H61363  10.572  10.808  11.080  1.0404  0.5014 -0.3233
  455MOL0     H61364  10.572  10.614  11.259 -1.8818 -2.0020 -0.1161
  455MOL0     H61365  10.617  10.520  11.108  1.2150 -0.4306  0.7870
  455MOL0     H61366  10.378  10.710  11.131 -0.0979  0.0533  0.7870
  455MOL0     H61367  10.405  10.579  11.004 -1.9876 -1.4745  0.4399
  455MOL0     H61368  10.377  10.531  11.300  2.4585 -3.3773 -1.3402
  455MOL0     H61369  10.226  10.563  11.199 -0.1180 -1.1844  0.1709
  455MOL0     H61370  10.257  10.350  11.090 -0.5231  1.0918  0.6675
  455MOL0     H61371  10.408  10.323  11.160  1.0122  2.1127  0.0200
  455MOL0     H61372  10.141  10.358  11.301 -0.2781 -0.0175 -0.4528
  455MOL0     H61373  10.303  10.340  11.375 -0.2183 -0.3508  0.3670
  455MOL0     H61374  10.133  10.140  11.229 -1.0217  0.1535  1.4705
  455MOL0     H61375  10.307  10.103  11.252  1.3972  1.0572 -1.6457
  455MOL0     H61376  10.048  10.259  11.506  0.2030 -0.1408  3.5490
  455MOL0     H61377  10.075  10.007  11.818  2.3453  0.1816 -2.0810
  455MOL0     H61378  10.035  10.175  11.805  2.8934 -0.1359 -0.6645
  455MOL0     H61379   9.825  10.083  11.800  0.6220  2.1632  0.1063
  455MOL0     H61380   9.864  10.140  11.643  2.1436  0.4781 -0.4791
  455MOL0     H61381   9.894   9.926  11.555  0.3405 -0.5788  0.2216
  455MOL0     H61382   9.723   9.942  11.627 -0.1421  1.4729  0.8548
  455MOL0     H61383   9.770   9.840  11.829  1.0346 -1.0422  1.0267
  455MOL0     H61384   9.940   9.799  11.785 -0.5861 -0.8429 -0.6894
  455MOL0     H61385   9.669   9.515  11.544  1.5819 -0.0594 -0.9742
  455MOL0     H61386   9.585   9.315  11.637 -0.7152  0.2109  2.0865
  455MOL0     H61387   9.413   8.934  11.743 -2.2784 -2.5821 -0.5383
  455MOL0     H61388   9.316   8.744  11.853  0.8563  0.5306 -1.2245
  455MOL0     H61389   9.511   8.619  12.227  0.7181 -3.4130  0.9579
  455MOL0     H61390   9.352   8.687  12.289 -1.6959 -1.3638 -0.1623
  455MOL0     H61391   9.241   8.475  12.226  0.8935  0.6900 -3.1168
  455MOL0     H61392   9.402   8.404  12.192 -1.7437 -1.2230 -1.6597
  455MOL0     H61393   9.399   8.513  12.464 -1.7110 -0.7895  4.2060
  455MOL0     H61394   9.241   8.484  12.436  2.0008  2.4688  0.1865
  455MOL0     H61395   9.429   8.283  12.525 -0.4443 -0.3866  1.2510
  455MOL0     H61396   9.401   8.264  12.345 -0.2131  2.5613 -0.6213
  455MOL0     H61397   9.153   8.244  12.380  0.4909 -1.2535  0.4994
  455MOL0     H61398   9.161   8.238  12.550 -0.1773  1.1446 -0.0333
  455MOL0     H61399   9.323   8.045  12.522  0.3311 -0.5492 -0.8596
  455MOL0     H61400   9.149   8.033  12.489 -0.6903 -1.4119 -3.9446
  455MOL0     H61401   9.375   7.963  12.316 -1.7254 -1.9973  0.2313
  455MOL0     H61402   9.256   8.084  12.248 -0.3796  0.0055 -0.8979
  455MOL0     H61403   9.070   7.929  12.291  1.5815  4.4475 -1.1155
  455MOL0     H61404   9.204   7.845  12.197  3.6370 -3.0985  1.8689
  455MOL0     H61405   9.529   8.856  12.216 -0.6570  0.6357  0.8525
  455MOL0     H61406   9.624   9.048  12.106  0.8660  0.9778 -1.9521
  455MOL0     H61407   9.722   9.439  12.018 -1.4559 -0.7290  0.7892
  455MOL0     H61408   9.809   9.635  11.930 -1.4172  1.1294  0.4806
  455MOL0     H61409  11.006  10.971  10.889  0.0421 -1.4632  0.0506
  455MOL0     H61410  11.211  11.087  10.950  0.1794  0.8770 -0.0572
  455MOL0     H61411  11.399  11.300  11.334 -0.1111 -1.4001  0.3166
  455MOL0     H61412  11.553  11.440  11.452 -2.4164 -1.4513  5.8820
  455MOL0     H61413  11.678  11.396  11.663 -0.0229  0.3864 -0.7125
  455MOL0     H61414  11.840  11.453  11.705  0.3715  0.1616 -1.1586
  455MOL0     H61415  11.898  11.195  11.724 -0.5782 -1.9428 -0.9622
  455MOL0     H61416  11.716  11.173  11.694  1.1343  0.1957 -0.6439
  455MOL0     H61417  11.661  11.282  11.911 -0.1238 -2.0645  0.3189
  455MOL0     H61418  11.835  11.320  11.920 -1.1801  1.3826  3.1718
  455MOL0     H61419  11.872  11.057  11.914  0.4348  0.2635  0.2337
  455MOL0     H61420  11.825  11.140  12.064  1.6221 -1.3295 -1.2092
  455MOL0     H61421  11.479  10.904  12.015 -0.1852  1.2314  2.8880
  455MOL0     H61422  11.846  11.113  11.428 -0.3487 -1.6620  2.7121
  455MOL0     H61423  11.682  10.863  11.366 -1.0451  0.3215 -0.6694
  455MOL0     H61424  11.670  10.932  11.194  1.1711  1.2523 -1.4961
  455MOL0     H61425  11.818  10.930  11.289  0.3428  1.4033  4.7263
  456MOL0     O61426   9.360   6.307   6.616 -0.1042  0.4528 -0.3221
  456MOL0     C61427   9.260   6.320   6.688  0.4275  0.6667 -0.0268
  456MOL0     O61428   9.218   6.229   6.778 -0.0391  0.4948  0.0259
  456MOL0     C61429   9.298   6.126   6.827 -0.0963 -1.0697  0.1654
  456MOL0     C61430   9.441   6.122   6.815  0.8354 -0.7330  0.4489
  456MOL0     C61431   9.513   6.012   6.874  0.4626  0.3854  0.0336
  456MOL0     C61432   9.454   5.918   6.950  0.2179 -0.3575  0.2267
  456MOL0     O61433   9.516   5.820   7.027 -0.9990 -0.7279 -0.1637
  456MOL0     C61434   9.648   5.867   7.077  0.4796 -0.0053  0.0546
  456MOL0     C61435   9.693   5.781   7.197  0.6640 -0.1277 -0.0988
  456MOL0     C61436   9.733   5.639   7.150  0.0756  1.1330  0.8852
  456MOL0     C61437   9.793   5.555   7.261  0.3006  0.6018 -0.0471
  456MOL0     C61438   9.870   5.432   7.203  0.2382  0.4135  0.3158
  456MOL0     C61439   9.939   5.368   7.322  1.0741  0.2206  0.6868
  456MOL0     C61440  10.016   5.241   7.271  0.8381  0.1162 -0.4956
  456MOL0     C61441  10.100   5.168   7.373 -0.4139 -0.0343  0.0094
  456MOL0     N61442  10.015   5.103   7.467  0.3087 -0.1376 -0.2953
  456MOL0     C61443   9.974   5.156   7.590 -0.0197 -0.0052 -0.4310
  456MOL0     C61444   9.950   5.046   7.672 -0.3639  0.9935  1.6614
  456MOL0     C61445   9.914   5.036   7.811  1.3928  0.0647  0.1748
  456MOL0     C61446  10.029   5.056   7.912 -0.3510 -1.3436 -0.4357
  456MOL0     C61447  10.124   4.938   7.922  0.4435 -0.3091  1.3740
  456MOL0     C61448  10.236   4.961   8.026  0.4230 -0.8531  0.2676
  456MOL0     O61449  10.317   5.072   7.979 -0.5263 -0.5797 -0.7251
  456MOL0     C61450  10.389   5.061   7.866  0.4391  0.3687 -0.4503
  456MOL0     C61451  10.516   5.009   7.875  0.4099  0.0395 -0.8680
  456MOL0     C61452  10.596   5.012   7.761 -0.0334 -0.2189  0.8764
  456MOL0     C61453  10.544   5.055   7.633 -0.0443  1.2087 -0.3232
  456MOL0     C61454  10.627   5.048   7.514  0.0061 -0.8122  0.4844
  456MOL0     O61455  10.570   5.102   7.408 -0.5933  0.3663 -0.2385
  456MOL0     C61456  10.633   5.111   7.284 -0.7694  0.7682 -0.6674
  456MOL0     C61457  10.769   5.129   7.261 -0.8943  0.4203  0.1565
  456MOL0     C61458  10.818   5.152   7.136 -0.7235  0.1737 -0.1839
  456MOL0     C61459  10.732   5.136   7.024  0.8967  0.5883 -0.2403
  456MOL0     O61460  10.775   5.147   6.894  0.4439 -0.9545 -1.1099
  456MOL0     C61461  10.881   5.240   6.865 -0.7055 -0.2987 -0.1171
  456MOL0     C61462  10.815   5.374   6.831  0.3162  0.7816 -0.6529
  456MOL0     C61463  10.912   5.478   6.802 -0.0017  1.1023  0.4215
  456MOL0     C61464  10.842   5.615   6.781 -0.5772 -0.2148 -0.8474
  456MOL0     C61465  10.936   5.738   6.762  0.2152  0.6871  0.0358
  456MOL0     C61466  10.866   5.866   6.784 -0.0010 -0.4845 -0.7949
  456MOL0     C61467  10.947   5.996   6.790  1.3295  0.1135  0.4244
  456MOL0     C61468  10.870   6.123   6.781  0.3187  0.1234  0.5597
  456MOL0    Cl61469  10.777   6.141   6.638  0.4041 -0.2148  0.1422
  456MOL0     C61470  10.596   5.093   7.043 -0.2285 -0.1291  0.3598
  456MOL0     C61471  10.550   5.094   7.176  0.9164 -0.8980  0.0226
  456MOL0     O61472  10.743   5.006   7.521 -0.0616 -0.8558 -0.4142
  456MOL0     C61473  10.408   5.091   7.630 -0.6043  0.0082 -0.3849
  456MOL0     C61474  10.334   5.101   7.739 -0.8625 -0.3848  0.5683
  456MOL0     N61475   9.960   4.934   7.581 -0.3052  0.2064  0.1105
  456MOL0     N61476  10.013   4.966   7.473 -0.3708 -0.5170 -0.1052
  456MOL0     C61477   9.313   5.917   6.950  0.9021 -0.0866  0.3520
  456MOL0     C61478   9.227   6.023   6.888  0.3637  1.1050  0.3600
  456MOL0     C61479   9.162   6.426   6.650  0.2985  1.1760 -0.9915
  456MOL0     C61480   9.065   6.460   6.739 -0.5005 -0.5308 -0.7559
  456MOL0     C61481   8.963   6.552   6.717 -0.4881 -0.7323 -0.2316
  456MOL0     C61482   8.954   6.607   6.588 -0.4632 -0.3070  0.5711
  456MOL0     O61483   8.850   6.681   6.540  0.0872 -1.0479 -0.0178
  456MOL0     C61484   8.733   6.678   6.618 -0.0505  0.1404 -0.3520
  456MOL0     C61485   8.673   6.532   6.625  0.7191  0.3878 -0.2112
  456MOL0     C61486   8.564   6.520   6.739 -0.6099  0.7879 -0.5697
  456MOL0     C61487   8.455   6.626   6.731  0.3034  0.2804 -0.1111
  456MOL0     C61488   8.352   6.612   6.834 -0.8195  0.0488 -0.3797
  456MOL0     C61489   8.259   6.603   6.911 -0.2382  0.0577  0.5979
  456MOL0     C61490   9.046   6.567   6.490 -0.0473 -0.6440 -0.2539
  456MOL0     C61491   9.151   6.473   6.516  0.7049  0.8595 -0.2859
  456MOL0     C61492   9.237   6.426   6.394  0.3985 -0.2386  0.5196
  456MOL0     H61493   9.487   6.212   6.776 -0.4553  0.7076  2.0584
  456MOL0     H61494   9.621   6.013   6.875  0.6940 -2.4429 -3.5589
  456MOL0     H61495   9.735   5.860   7.011  0.9175 -1.3822  0.7266
  456MOL0     H61496   9.636   5.969   7.115 -1.6707  0.5720 -1.9342
  456MOL0     H61497   9.611   5.778   7.269  2.3711 -2.7549  1.9215
  456MOL0     H61498   9.780   5.831   7.240 -0.1539  0.2299  1.1832
  456MOL0     H61499   9.798   5.647   7.063  0.0480 -1.9467  0.4813
  456MOL0     H61500   9.650   5.579   7.111  2.1696 -0.9154 -0.6805
  456MOL0     H61501   9.859   5.620   7.317  2.8223 -2.1919  0.4592
  456MOL0     H61502   9.713   5.523   7.329 -0.7353  1.1422 -0.9811
  456MOL0     H61503   9.804   5.358   7.157  0.7624 -1.9652  3.0953
  456MOL0     H61504   9.947   5.451   7.127  0.0451  0.8329  0.2187
  456MOL0     H61505  10.008   5.442   7.363  2.3352 -0.9520  0.7728
  456MOL0     H61506   9.859   5.339   7.390 -1.1063  2.7605 -0.6372
  456MOL0     H61507  10.080   5.265   7.185 -0.0593 -2.8357 -2.1052
  456MOL0     H61508   9.942   5.170   7.233  1.1991 -0.7324  0.3286
  456MOL0     H61509  10.165   5.101   7.316  1.8628 -0.5760  3.0223
  456MOL0     H61510  10.174   5.231   7.422  0.4998 -0.8329 -0.3133
  456MOL0     H61511   9.978   5.262   7.614  1.6519  0.1158 -1.0999
  456MOL0     H61512   9.834   5.110   7.823 -0.1075 -1.3396 -0.6986
  456MOL0     H61513   9.873   4.937   7.829 -0.3749  1.0061  1.6373
  456MOL0     H61514  10.082   5.148   7.886  0.2079  0.2065  4.9865
  456MOL0     H61515  10.001   5.082   8.014  1.1344 -2.6297  0.3486
  456MOL0     H61516  10.169   4.906   7.828 -2.0760 -3.3146  1.0249
  456MOL0     H61517  10.068   4.850   7.954 -0.1684  0.9941  4.2472
  456MOL0     H61518  10.294   4.868   8.035  0.5325 -0.7231  0.9040
  456MOL0     H61519  10.201   4.979   8.128 -1.0799  2.1266 -0.6625
  456MOL0     H61520  10.556   4.980   7.972 -4.3974  1.5582  1.9145
  456MOL0     H61521  10.701   4.988   7.777 -0.5657 -1.7447  2.3121
  456MOL0     H61522  10.824   5.143   7.354 -0.3162  1.0720 -0.2758
  456MOL0     H61523  10.924   5.178   7.140  0.5520 -4.1415  0.0282
  456MOL0     H61524  10.964   5.251   6.936 -0.3358 -0.5847 -0.5029
  456MOL0     H61525  10.933   5.203   6.776  1.4592  1.2782  0.4197
  456MOL0     H61526  10.752   5.364   6.743 -0.4959  0.1840 -0.0205
  456MOL0     H61527  10.761   5.419   6.915  1.8893 -0.6020  1.1930
  456MOL0     H61528  10.985   5.484   6.883  0.0871  0.7745  0.3648
  456MOL0     H61529  10.956   5.441   6.709 -2.9143  1.2322 -1.1084
  456MOL0     H61530  10.779   5.626   6.870 -1.4224 -1.4735 -1.2615
  456MOL0     H61531  10.764   5.617   6.703 -0.6884  0.5898 -0.7255
  456MOL0     H61532  10.979   5.740   6.661  1.9992 -1.7177  0.6623
  456MOL0     H61533  11.015   5.733   6.837 -0.5046 -1.5181  0.7351
  456MOL0     H61534  10.783   5.882   6.714 -2.5512  0.9518  2.2436
  456MOL0     H61535  10.821   5.846   6.882 -1.3749  1.1448 -1.0480
  456MOL0     H61536  11.016   5.988   6.706  0.7920 -3.2597  0.1489
  456MOL0     H61537  11.005   5.995   6.882  1.6443  0.0373  0.2258
  456MOL0     H61538  10.793   6.117   6.858 -0.3148  4.4471  0.4877
  456MOL0     H61539  10.929   6.211   6.807  0.7655 -0.3683  1.2149
  456MOL0     H61540  10.526   5.084   6.961  0.1893 -1.7147  0.1523
  456MOL0     H61541  10.443   5.092   7.196  1.0593 -1.6902  0.7384
  456MOL0     H61542  10.358   5.109   7.535 -0.2792 -1.5654 -0.9035
  456MOL0     H61543  10.235   5.137   7.714 -0.1576  1.1749 -0.0848
  456MOL0     H61544   9.269   5.838   7.010 -0.0664  1.4992  1.8259
  456MOL0     H61545   9.120   6.034   6.905 -0.4821 -0.2592 -3.1891
  456MOL0     H61546   9.076   6.412   6.836 -0.2869 -1.9874 -1.4689
  456MOL0     H61547   8.886   6.554   6.793 -2.0600  0.2201 -1.7606
  456MOL0     H61548   8.658   6.737   6.563 -1.4612 -2.5436 -1.4982
  456MOL0     H61549   8.753   6.718   6.717 -0.2619  0.7042 -0.5309
  456MOL0     H61550   8.752   6.459   6.645  2.8486  1.8859 -2.6119
  456MOL0     H61551   8.626   6.517   6.527 -0.0625  0.8441  0.0831
  456MOL0     H61552   8.594   6.524   6.844 -3.4940  2.2533  0.2833
  456MOL0     H61553   8.510   6.426   6.731 -0.2987  0.6911 -1.7067
  456MOL0     H61554   8.502   6.722   6.757 -0.5198 -0.0865  3.2214
  456MOL0     H61555   8.409   6.636   6.632 -1.5890 -0.5913  0.6308
  456MOL0     H61556   8.188   6.576   6.987 -0.0910  0.7587  0.9904
  456MOL0     H61557   9.028   6.606   6.390 -2.1572  1.1247  0.7064
  456MOL0     H61558   9.344   6.446   6.404  0.1466  0.5234  1.9828
  456MOL0     H61559   9.215   6.320   6.378 -0.9708  0.1878 -0.6924
  456MOL0     H61560   9.205   6.489   6.311 -0.5935 -0.9373  0.3508
  457MOL0     O61561   3.314   2.392   0.062 -0.4602 -0.4874 -0.6165
  457MOL0     C61562   3.373   2.364  -0.037 -0.2811 -1.2639 -0.0658
  457MOL0     O61563   3.469   2.441  -0.093  0.3476 -0.4799 -0.5260
  457MOL0     C61564   3.513   2.553  -0.026 -0.3145  0.1897 -0.6692
  457MOL0     C61565   3.544   2.660  -0.114 -0.2956 -0.6042 -0.0741
  457MOL0     C61566   3.583   2.780  -0.054  0.3325  0.3002 -0.5457
  457MOL0     C61567   3.597   2.800   0.087  0.4361 -0.3773 -0.6868
  457MOL0     O61568   3.633   2.916   0.149 -0.6385 -0.8204  0.3170
  457MOL0     C61569   3.578   2.952   0.281 -0.3649 -0.3049  0.9986
  457MOL0     C61570   3.565   3.106   0.291  0.7496  0.3089  0.2175
  457MOL0     C61571   3.508   3.151   0.435 -1.0583 -0.3057  0.0881
  457MOL0     C61572   3.528   3.304   0.453 -0.1311 -0.3880 -0.4236
  457MOL0     C61573   3.670   3.349   0.474 -0.7927 -0.2704 -0.2877
  457MOL0     C61574   3.684   3.500   0.478  0.6284  0.3635  0.1510
  457MOL0     C61575   3.823   3.552   0.459 -0.3076 -0.5913 -0.3536
  457MOL0     C61576   3.905   3.547   0.591  0.4805  0.0483  0.4528
  457MOL0     N61577   3.942   3.404   0.629 -0.5403 -0.9767 -0.8400
  457MOL0     C61578   3.968   3.294   0.542 -0.6448 -0.5364  0.3604
  457MOL0     C61579   3.993   3.201   0.635 -0.7939  0.1423 -0.5895
  457MOL0     C61580   3.989   3.055   0.597  0.2812 -1.2960 -0.3957
  457MOL0     C61581   4.128   2.999   0.633  0.0143 -0.6344 -1.0551
  457MOL0     C61582   4.162   2.864   0.570  0.4136  0.0258 -0.1734
  457MOL0     C61583   4.293   2.811   0.625 -0.0913 -0.8121  0.4372
  457MOL0     O61584   4.307   2.665   0.607 -0.1820 -0.1037 -0.3852
  457MOL0     C61585   4.442   2.637   0.606  0.0043  1.0244 -0.8607
  457MOL0     C61586   4.531   2.646   0.717  0.2011 -1.1435 -0.8550
  457MOL0     C61587   4.662   2.598   0.713  0.7948 -0.8386  0.0417
  457MOL0     C61588   4.711   2.544   0.597 -0.3111 -0.1664  0.0826
  457MOL0     C61589   4.850   2.497   0.595  0.0967  0.1802 -0.3808
  457MOL0     O61590   4.923   2.465   0.707  0.3015 -0.0827 -0.3951
  457MOL0     C61591   5.014   2.367   0.720 -0.4906 -0.3851 -0.2522
  457MOL0     C61592   5.104   2.323   0.622  0.8271  0.4584 -0.7330
  457MOL0     C61593   5.195   2.221   0.651 -0.2736  0.0499 -0.3468
  457MOL0     C61594   5.203   2.162   0.777 -0.2253  0.3022  0.4049
  457MOL0     O61595   5.263   2.046   0.826 -0.3323 -0.3349  0.8680
  457MOL0     C61596   5.360   1.986   0.737  0.9266 -0.1628  0.2381
  457MOL0     C61597   5.493   2.035   0.747 -0.2335  0.5718 -0.4443
  457MOL0     C61598   5.603   1.927   0.721  0.4346 -0.6090  0.1576
  457MOL0     C61599   5.738   1.958   0.787 -0.4745  0.0710 -0.0885
  457MOL0     C61600   5.834   1.988   0.673  0.6972  1.0159  0.0932
  457MOL0     C61601   5.963   2.035   0.735 -0.0289 -0.5000  0.3874
  457MOL0     C61602   6.068   2.090   0.624 -0.2618 -0.0256  0.5962
  457MOL0     C61603   6.111   1.981   0.527  0.6129  0.4685  0.2707
  457MOL0    Cl61604   6.239   2.053   0.431  0.6196  0.3230 -0.1135
  457MOL0     C61605   5.113   2.212   0.877  1.1319  0.3897 -0.3612
  457MOL0     C61606   5.025   2.315   0.853 -0.0971 -0.7711  0.2369
  457MOL0     O61607   4.894   2.486   0.478  0.3202 -0.3999 -0.1976
  457MOL0     C61608   4.624   2.539   0.485  0.4526  0.4311 -0.1065
  457MOL0     C61609   4.490   2.577   0.489  0.2912  0.3839 -0.4994
  457MOL0     N61610   4.022   3.259   0.765 -0.9289  0.2025  0.0330
  457MOL0     N61611   3.974   3.382   0.760  0.2794  0.1738 -0.3959
  457MOL0     C61612   3.580   2.690   0.169  0.1799 -1.0607 -0.2607
  457MOL0     C61613   3.532   2.567   0.112 -0.3735  0.4022  1.3216
  457MOL0     C61614   3.335   2.247  -0.105 -0.1237  0.2588  0.0835
  457MOL0     C61615   3.200   2.226  -0.132  0.9810  0.3063 -0.1006
  457MOL0     C61616   3.164   2.105  -0.195 -0.6204 -0.6148 -0.2071
  457MOL0     C61617   3.250   2.004  -0.228  0.1322  0.6513 -0.0920
  457MOL0     O61618   3.219   1.881  -0.290  0.0745 -0.5772  0.1479
  457MOL0     C61619   3.085   1.825  -0.262 -0.9211  0.7995 -0.5321
  457MOL0     C61620   3.104   1.673  -0.214  0.0259 -0.0232  0.6990
  457MOL0     C61621   3.125   1.573  -0.333 -0.1295  0.0191  0.5851
  457MOL0     C61622   3.220   1.454  -0.293  1.1143 -0.0960  0.1981
  457MOL0     C61623   3.239   1.357  -0.401  0.6346  0.6626  0.1885
  457MOL0     C61624   3.274   1.289  -0.497 -0.1358 -0.3396 -0.0648
  457MOL0     C61625   3.388   2.030  -0.199 -0.7758  0.0539  0.0563
  457MOL0     C61626   3.434   2.151  -0.143  0.0067  1.3452  0.2090
  457MOL0     C61627   3.578   2.155  -0.094  0.8260 -1.2242  0.2736
  457MOL0     H61628   3.519   2.656  -0.220 -3.0549  2.6969  0.2817
  457MOL0     H61629   3.608   2.865  -0.118  2.9058  0.5505  0.6739
  457MOL0     H61630   3.487   2.892   0.289 -0.9232  0.3371 -0.3054
  457MOL0     H61631   3.648   2.927   0.361 -1.3338  1.2175  2.3876
  457MOL0     H61632   3.490   3.127   0.215  3.1998  2.5013 -1.7683
  457MOL0     H61633   3.654   3.162   0.262 -0.1086  1.8905  0.4873
  457MOL0     H61634   3.567   3.109   0.517  1.9466  0.9235 -1.2960
  457MOL0     H61635   3.402   3.127   0.449 -1.1793 -1.6714 -2.4830
  457MOL0     H61636   3.493   3.340   0.356  0.4754  2.4478  0.2923
  457MOL0     H61637   3.464   3.351   0.529 -2.3863 -1.7338 -1.3862
  457MOL0     H61638   3.696   3.321   0.577  0.8071 -3.3961 -1.4079
  457MOL0     H61639   3.726   3.302   0.392 -1.8123 -0.1873 -1.0481
  457MOL0     H61640   3.627   3.545   0.396 -1.8200 -1.0160  1.0077
  457MOL0     H61641   3.629   3.532   0.567 -0.0076 -0.2383 -0.0118
  457MOL0     H61642   3.817   3.658   0.433  0.4369 -0.8517 -1.6995
  457MOL0     H61643   3.869   3.498   0.375  0.9572  0.7661 -0.5718
  457MOL0     H61644   4.004   3.591   0.570 -0.4853  0.4265 -4.2262
  457MOL0     H61645   3.853   3.597   0.673  1.2716 -1.3049  1.8341
  457MOL0     H61646   3.935   3.274   0.440  0.3738 -0.6753  0.0395
  457MOL0     H61647   3.913   2.996   0.648 -0.4771  0.6967  0.9231
  457MOL0     H61648   3.955   3.047   0.493 -3.1307 -1.2463  0.6004
  457MOL0     H61649   4.205   3.065   0.590  0.0210  1.2913  1.6142
  457MOL0     H61650   4.148   2.994   0.740 -0.7342  0.4319 -0.8466
  457MOL0     H61651   4.160   2.892   0.465  1.4592  2.5594  0.4185
  457MOL0     H61652   4.074   2.800   0.587  0.2756  0.7168  2.0068
  457MOL0     H61653   4.307   2.833   0.731 -0.5526  2.7721 -0.1232
  457MOL0     H61654   4.376   2.864   0.577  0.4937 -1.8881  0.2220
  457MOL0     H61655   4.476   2.695   0.797 -2.1680 -1.2200 -2.3669
  457MOL0     H61656   4.726   2.600   0.802  1.6214 -1.7182 -0.5074
  457MOL0     H61657   5.096   2.342   0.516 -3.5146  0.3450 -0.6209
  457MOL0     H61658   5.256   2.176   0.573  1.5056 -1.7874  1.9463
  457MOL0     H61659   5.349   1.879   0.754  1.3823 -0.4962 -1.3696
  457MOL0     H61660   5.315   1.991   0.637 -0.9679  1.3046  1.0921
  457MOL0     H61661   5.508   2.113   0.672 -1.7080  1.1451 -0.1724
  457MOL0     H61662   5.507   2.094   0.838  1.1626 -0.9556  0.4050
  457MOL0     H61663   5.562   1.852   0.790 -3.2528  2.2178  1.4161
  457MOL0     H61664   5.604   1.895   0.617 -2.1133  2.3646 -0.9445
  457MOL0     H61665   5.779   1.870   0.836  2.1595 -0.6856 -3.2824
  457MOL0     H61666   5.738   2.047   0.851 -1.0690  0.4487 -0.5957
  457MOL0     H61667   5.793   2.078   0.627 -0.9244  1.1125  1.6154
  457MOL0     H61668   5.840   1.907   0.600 -3.3008  2.7591 -2.4870
  457MOL0     H61669   5.946   2.122   0.799 -2.2550  0.0711 -0.8668
  457MOL0     H61670   6.020   1.953   0.779 -0.0727 -0.9251 -0.3247
  457MOL0     H61671   6.151   2.129   0.684 -1.4960 -0.0401  2.4096
  457MOL0     H61672   6.019   2.169   0.567 -2.7907 -0.8772  1.4317
  457MOL0     H61673   6.157   1.892   0.572 -1.2917 -1.8022 -1.9758
  457MOL0     H61674   6.037   1.936   0.459  1.7412 -1.9810  0.5560
  457MOL0     H61675   5.103   2.186   0.982 -2.8706  1.3996 -0.3338
  457MOL0     H61676   4.965   2.366   0.927 -1.1887  0.1321 -1.2210
  457MOL0     H61677   4.656   2.497   0.390  2.6499 -2.0581  1.5816
  457MOL0     H61678   4.423   2.547   0.410  1.4145 -0.4688 -1.1400
  457MOL0     H61679   3.612   2.701   0.273  1.7904  3.4737 -1.0066
  457MOL0     H61680   3.520   2.477   0.171 -1.0604 -1.3132 -1.2441
  457MOL0     H61681   3.125   2.295  -0.096  0.0008  0.5294 -2.4139
  457MOL0     H61682   3.057   2.093  -0.202 -0.4894 -1.5194 -0.8868
  457MOL0     H61683   3.023   1.833  -0.352 -1.2152 -2.2216 -0.7236
  457MOL0     H61684   3.038   1.877  -0.178  3.2276 -0.5061  2.9504
  457MOL0     H61685   2.999   1.654  -0.188 -0.7424 -1.0097 -2.7284
  457MOL0     H61686   3.185   1.655  -0.143  1.1712  1.1433 -0.2821
  457MOL0     H61687   3.169   1.637  -0.410  0.8291 -0.5910  0.6161
  457MOL0     H61688   3.029   1.528  -0.359  1.2733 -2.3913 -0.8132
  457MOL0     H61689   3.316   1.497  -0.264  1.2731 -0.5901  0.4049
  457MOL0     H61690   3.168   1.408  -0.209 -1.0202  3.2880  0.9660
  457MOL0     H61691   3.314   1.235  -0.581 -0.1050 -0.1017 -0.2036
  457MOL0     H61692   3.460   1.955  -0.228 -1.7299 -1.5102  1.5427
  457MOL0     H61693   3.573   2.178   0.013  2.8620  3.7698 -0.3994
  457MOL0     H61694   3.628   2.059  -0.109 -3.1063 -3.3773 -0.4680
  457MOL0     H61695   3.633   2.239  -0.138  0.3844 -0.7619  0.5941
  458MOL0     O61696   0.719  10.161   3.876  0.2076 -0.3774 -0.0767
  458MOL0     C61697   0.685  10.159   3.993  0.2670  0.8312  0.3603
  458MOL0     O61698   0.579  10.091   4.028 -0.4608 -0.2319 -0.1637
  458MOL0     C61699   0.482  10.050   3.932  0.2018 -0.0850  0.9148
  458MOL0     C61700   0.432   9.920   3.933 -0.1169  0.9866 -0.1869
  458MOL0     C61701   0.331   9.873   3.844  1.1678  0.5156 -0.9747
  458MOL0     C61702   0.268   9.963   3.765  0.5874  0.3103 -0.7245
  458MOL0     O61703   0.152   9.927   3.692 -0.5240  0.1546  0.1466
  458MOL0     C61704   0.151   9.799   3.628 -0.6671  0.9459  0.3955
  458MOL0     C61705   0.210   9.790   3.479 -0.3779 -0.2243  0.3664
  458MOL0     C61706   0.326   9.874   3.424 -0.1261  0.0194 -0.4915
  458MOL0     C61707   0.460   9.834   3.492  0.8439 -0.5081  0.1340
  458MOL0     C61708   0.558   9.951   3.464 -0.1591 -0.4258 -0.1534
  458MOL0     C61709   0.683   9.936   3.544 -0.0166 -1.0566  0.7394
  458MOL0     C61710   0.791  10.041   3.518  0.0129 -0.3699  0.6070
  458MOL0     C61711   0.909  10.019   3.610  0.1179  1.4484  0.8656
  458MOL0     N61712   1.015  10.121   3.593 -1.0274  0.0158  0.2687
  458MOL0     C61713   0.998  10.257   3.616 -0.1435  1.3550  0.2546
  458MOL0     C61714   1.118  10.308   3.590 -0.7981 -0.6444  0.5880
  458MOL0     C61715   1.145  10.458   3.575  0.3605 -0.5277 -0.9794
  458MOL0     C61716   1.232  10.489   3.453 -0.0086  0.1702 -1.0681
  458MOL0     C61717   1.170  10.474   3.312  0.3234 -0.1620 -0.0091
  458MOL0     C61718   1.104  10.338   3.283 -0.4289 -0.7248  0.9177
  458MOL0     O61719   1.070  10.362   3.142  0.0511 -0.0476 -0.1576
  458MOL0     C61720   0.965  10.289   3.092 -0.1823 -0.5535  0.1223
  458MOL0     C61721   0.907  10.351   2.981 -0.7360 -0.4696  0.0951
  458MOL0     C61722   0.801  10.288   2.908  0.4594  0.5634  0.0267
  458MOL0     C61723   0.759  10.157   2.951 -0.0199  0.9667  0.4634
  458MOL0     C61724   0.653  10.077   2.874  0.0718  1.0161 -0.5515
  458MOL0     O61725   0.575  10.147   2.783 -0.6669 -1.2215  0.0932
  458MOL0     C61726   0.495  10.098   2.683 -0.1390  0.0930 -0.2324
  458MOL0     C61727   0.473   9.958   2.654  0.9593 -0.5166  0.0938
  458MOL0     C61728   0.399   9.909   2.547 -0.2663 -0.0440  0.2294
  458MOL0     C61729   0.345  10.003   2.455  0.0103 -0.1706  0.7547
  458MOL0     O61730   0.279   9.958   2.343  0.4244  0.8001  0.5971
  458MOL0     C61731   0.209  10.050   2.261  1.1257  0.3975 -0.4693
  458MOL0     C61732   0.143   9.981   2.136 -0.9979  0.6609 -0.4576
  458MOL0     C61733   0.076  10.098   2.054  0.0786  0.1110 -0.2949
  458MOL0     C61734   0.009  10.044   1.930 -0.0190  0.3679 -0.3475
  458MOL0     C61735  -0.064  10.162   1.860  0.3764  0.5203  0.9182
  458MOL0     C61736  -0.149  10.104   1.750  0.6491  0.5916  0.2583
  458MOL0     C61737  -0.181  10.198   1.646 -0.3195 -0.4564  0.6527
  458MOL0     C61738  -0.262  10.122   1.533  0.6142 -1.5831 -0.2896
  458MOL0    Cl61739  -0.384  10.241   1.438 -0.3543  0.6104 -0.3320
  458MOL0     C61740   0.361  10.139   2.480 -0.3067  0.2030 -0.5998
  458MOL0     C61741   0.430  10.186   2.592  0.0482 -1.3581  0.0623
  458MOL0     O61742   0.663   9.948   2.888  0.7201  0.0205  0.1356
  458MOL0     C61743   0.821  10.099   3.067  0.6089 -0.0609 -0.0736
  458MOL0     C61744   0.919  10.168   3.134 -0.5244  0.1951  0.0151
  458MOL0     N61745   1.205  10.212   3.549  0.8181  0.2166  0.0343
  458MOL0     N61746   1.143  10.101   3.564  0.1773  0.9497  0.4575
  458MOL0     C61747   0.324  10.089   3.755 -0.2003 -0.7584  0.2486
  458MOL0     C61748   0.417  10.136   3.842  0.3435  0.1189 -1.2686
  458MOL0     C61749   0.779  10.196   4.096  0.5974 -0.0964 -0.8093
  458MOL0     C61750   0.747  10.148   4.221  0.1593  0.5670  0.7444
  458MOL0     C61751   0.825  10.159   4.331  0.4483 -0.2715  0.5105
  458MOL0     C61752   0.950  10.227   4.321  0.4382  0.8895  0.4023
  458MOL0     O61753   1.033  10.259   4.422  0.2113 -0.1304  0.9799
  458MOL0     C61754   0.974  10.265   4.552  0.6084  0.0420 -0.6317
  458MOL0     C61755   0.992  10.133   4.623  0.3872 -0.0976  0.0700
  458MOL0     C61756   1.132  10.089   4.613  0.1776  0.6913 -1.0954
  458MOL0     C61757   1.172   9.986   4.711 -1.0253  0.7967 -0.9878
  458MOL0     C61758   1.241  10.046   4.830  0.4067 -1.1458  0.0070
  458MOL0     C61759   1.272  10.096   4.937 -0.3983  0.0919  0.3976
  458MOL0     C61760   0.985  10.275   4.193  0.4798  0.6711  0.3183
  458MOL0     C61761   0.895  10.264   4.080 -0.2391 -0.1885  0.0027
  458MOL0     C61762   0.940  10.329   3.949 -0.2580  0.2198  0.0222
  458MOL0     H61763   0.480   9.854   4.005 -1.2116  0.7220  0.3082
  458MOL0     H61764   0.292   9.771   3.846 -2.5065  1.7387 -2.1800
  458MOL0     H61765   0.199   9.727   3.694 -2.2677  2.2656  3.1808
  458MOL0     H61766   0.046   9.771   3.612 -1.2210  2.5467  1.1112
  458MOL0     H61767   0.121   9.819   3.423  0.2069  1.8897  0.4215
  458MOL0     H61768   0.237   9.687   3.455 -1.0698 -0.1504 -0.8021
  458MOL0     H61769   0.303   9.979   3.446 -1.2091 -0.2099 -0.4991
  458MOL0     H61770   0.344   9.866   3.316 -1.8647 -4.5984 -0.6646
  458MOL0     H61771   0.452   9.808   3.598  0.1104 -2.4986 -0.3582
  458MOL0     H61772   0.503   9.748   3.439  0.5549  1.3681 -3.4238
  458MOL0     H61773   0.596   9.936   3.362  3.5864  0.0640  1.0257
  458MOL0     H61774   0.505  10.047   3.467 -0.4627 -0.5556 -1.0540
  458MOL0     H61775   0.653   9.941   3.649 -1.0447 -1.1660  0.4561
  458MOL0     H61776   0.722   9.835   3.535 -0.8267 -1.3621  0.6239
  458MOL0     H61777   0.752  10.138   3.547 -3.9170 -1.0475 -1.6521
  458MOL0     H61778   0.827  10.040   3.415  1.4420 -0.3623  1.0921
  458MOL0     H61779   0.885  10.018   3.717 -1.1101 -2.5146  0.7029
  458MOL0     H61780   0.957   9.923   3.588  2.0480  2.5394  0.0605
  458MOL0     H61781   0.901  10.306   3.616 -0.9707 -0.1844 -1.2214
  458MOL0     H61782   1.048  10.508   3.573  1.9680  2.8313 -1.1716
  458MOL0     H61783   1.194  10.491   3.667 -0.7223 -0.1086 -0.5366
  458MOL0     H61784   1.265  10.594   3.455  2.1568 -0.3584 -3.3619
  458MOL0     H61785   1.327  10.434   3.456 -1.1015 -2.0203 -3.2339
  458MOL0     H61786   1.250  10.481   3.238 -0.2081 -2.2473 -0.8480
  458MOL0     H61787   1.098  10.555   3.296  0.8821 -0.0943 -2.7270
  458MOL0     H61788   1.013  10.304   3.333 -0.8558 -2.4192 -0.8771
  458MOL0     H61789   1.183  10.263   3.290  0.3749 -0.2854 -2.1304
  458MOL0     H61790   0.945  10.446   2.945 -4.1840  2.0792  2.4797
  458MOL0     H61791   0.747  10.340   2.829  0.6507  0.1428 -0.3850
  458MOL0     H61792   0.515   9.879   2.715  0.4202 -1.0578 -0.2251
  458MOL0     H61793   0.388   9.804   2.523  1.2887 -0.2810  0.4758
  458MOL0     H61794   0.136  10.097   2.328  1.6429 -0.8350  1.0230
  458MOL0     H61795   0.276  10.129   2.228  1.9887  0.5868  1.5560
  458MOL0     H61796   0.210   9.919   2.075  0.0690  1.3654 -0.0327
  458MOL0     H61797   0.068   9.919   2.186  0.8236 -0.5797  0.8898
  458MOL0     H61798  -0.004  10.136   2.118 -1.3723  0.0024 -1.9299
  458MOL0     H61799   0.153  10.174   2.042 -0.0883  0.7541  2.1831
  458MOL0     H61800  -0.049   9.953   1.948  1.6597 -0.4519  1.3278
  458MOL0     H61801   0.085  10.004   1.862 -0.9926 -4.4617  1.0185
  458MOL0     H61802   0.006  10.231   1.813 -0.2231  0.5670  0.0659
  458MOL0     H61803  -0.125  10.228   1.923 -1.1856  0.2087 -0.2113
  458MOL0     H61804  -0.082  10.035   1.697  0.6557  0.2175  0.7533
  458MOL0     H61805  -0.244  10.065   1.787 -1.9669  4.7571 -1.3553
  458MOL0     H61806  -0.097  10.252   1.602 -1.5141  2.0754  1.3065
  458MOL0     H61807  -0.243  10.277   1.689 -0.5823 -0.6005  0.5411
  458MOL0     H61808  -0.189  10.075   1.467  2.7839 -0.0458  0.8995
  458MOL0     H61809  -0.336  10.060   1.584 -5.6793  1.9872 -3.7677
  458MOL0     H61810   0.325  10.222   2.419 -0.0934  0.6564 -0.1125
  458MOL0     H61811   0.440  10.292   2.613 -1.9995 -1.2524  0.7063
  458MOL0     H61812   0.796  10.000   3.103  0.6042 -0.1528 -0.3323
  458MOL0     H61813   0.970  10.124   3.219 -1.7523 -2.4113 -0.4950
  458MOL0     H61814   0.289  10.167   3.688  1.8819 -0.4319 -0.5407
  458MOL0     H61815   0.442  10.241   3.846 -2.3356  0.7723  0.5842
  458MOL0     H61816   0.652  10.099   4.241 -1.4639  2.8965 -0.7848
  458MOL0     H61817   0.795  10.127   4.430  0.3673  0.0594  0.5946
  458MOL0     H61818   0.871  10.299   4.553  0.1420 -1.2753  1.5153
  458MOL0     H61819   1.041  10.340   4.594  1.0966 -0.9350  0.4038
  458MOL0     H61820   0.938  10.049   4.580 -1.7280  1.7839 -1.1671
  458MOL0     H61821   0.964  10.151   4.727 -1.6749 -0.1444 -0.4436
  458MOL0     H61822   1.198  10.175   4.625 -0.7388  1.1937  0.6067
  458MOL0     H61823   1.151  10.043   4.515 -0.3077  0.3797 -1.0474
  458MOL0     H61824   1.092   9.924   4.752  1.8438 -0.9269  2.5029
  458MOL0     H61825   1.243   9.920   4.660 -0.7611 -0.7192  1.2159
  458MOL0     H61826   1.317  10.125   5.029  1.9358 -1.4961 -0.1540
  458MOL0     H61827   1.080  10.326   4.187  0.9738 -0.4255 -2.5188
  458MOL0     H61828   0.853  10.371   3.896 -0.6586 -0.1097  0.4091
  458MOL0     H61829   1.010  10.412   3.962  0.6162 -0.2747 -1.4252
  458MOL0     H61830   0.973  10.254   3.877  0.6566  0.9083 -0.2877
  459MOL0     O61831   5.712   0.316   0.816  0.0336  0.7281 -0.4299
  459MOL0     C61832   5.804   0.395   0.827 -1.2191 -0.3197  0.3793
  459MOL0     O61833   5.913   0.385   0.755 -0.8776 -0.2632  0.2750
  459MOL0     C61834   5.922   0.298   0.651  0.3971  0.6969 -0.1571
  459MOL0     C61835   5.992   0.351   0.537 -0.0524 -0.4362 -0.7009
  459MOL0     C61836   6.022   0.265   0.433  1.0047 -0.4276  1.2002
  459MOL0     C61837   5.999   0.126   0.445  0.4951 -0.3933  0.2628
  459MOL0     O61838   6.014   0.037   0.340  0.0988 -0.0140 -0.3251
  459MOL0     C61839   5.938   0.044   0.221  0.6653 -0.1364  0.2902
  459MOL0     C61840   5.976  -0.078   0.137  0.1083 -0.3495  0.3229
  459MOL0     C61841   5.897  -0.076   0.007 -0.8086 -0.6113  0.7427
  459MOL0     C61842   5.950  -0.178  -0.093 -0.6172  0.3025 -0.3775
  459MOL0     C61843   5.893  -0.180  -0.234  1.0427 -0.3292  0.4622
  459MOL0     C61844   5.946  -0.067  -0.319  0.1645 -0.0561 -0.6331
  459MOL0     C61845   5.924  -0.078  -0.469  0.3411 -0.6478  0.9790
  459MOL0     C61846   5.804  -0.158  -0.531 -0.1264  0.4566  0.4342
  459MOL0     N61847   5.837  -0.221  -0.659 -0.0633  0.7051  0.9059
  459MOL0     C61848   5.779  -0.192  -0.780 -0.2066 -0.0717  0.5521
  459MOL0     C61849   5.839  -0.287  -0.869  1.5925 -0.9532  1.0324
  459MOL0     C61850   5.810  -0.290  -1.023  0.0232 -0.6237 -0.7118
  459MOL0     C61851   5.920  -0.237  -1.120 -0.0186  0.3617 -0.1539
  459MOL0     C61852   5.999  -0.367  -1.174  0.1404 -0.7823  0.5202
  459MOL0     C61853   6.121  -0.397  -1.083 -0.1434  1.4894  0.2804
  459MOL0     O61854   6.165  -0.513  -1.147 -0.9285  0.3637 -0.0822
  459MOL0     C61855   6.207  -0.624  -1.076  0.4066 -0.1802 -0.1465
  459MOL0     C61856   6.202  -0.738  -1.147 -0.0755  1.3116 -0.3916
  459MOL0     C61857   6.218  -0.860  -1.088 -0.2406  1.6348 -1.2778
  459MOL0     C61858   6.264  -0.867  -0.953 -0.2234  0.8337  0.6728
  459MOL0     C61859   6.281  -1.004  -0.893 -0.2558 -0.3897 -0.6963
  459MOL0     O61860   6.191  -1.087  -0.940  0.1531 -0.3759  0.3581
  459MOL0     C61861   6.168  -1.215  -0.893  0.0449  0.5946  0.0986
  459MOL0     C61862   6.130  -1.316  -0.984 -0.2274 -1.0481 -1.0633
  459MOL0     C61863   6.114  -1.450  -0.943  0.5859 -0.2449  1.1569
  459MOL0     C61864   6.124  -1.487  -0.806 -0.5572  0.3844  0.4223
  459MOL0     O61865   6.100  -1.607  -0.749 -0.0608  0.7470  0.1688
  459MOL0     C61866   6.054  -1.707  -0.831  0.4386  0.9845 -0.0728
  459MOL0     C61867   6.013  -1.831  -0.739 -0.8365 -0.5840 -1.3881
  459MOL0     C61868   5.941  -1.950  -0.800 -0.7590  0.1730 -0.7202
  459MOL0     C61869   5.993  -1.992  -0.938  0.7879 -0.7670 -0.9636
  459MOL0     C61870   6.076  -2.121  -0.939  0.0948  0.2491 -0.4279
  459MOL0     C61871   6.213  -2.090  -0.883 -0.4823 -0.3064  0.7178
  459MOL0     C61872   6.313  -2.208  -0.896  1.0978  0.1121 -0.2321
  459MOL0     C61873   6.279  -2.319  -0.800  0.8695  0.5404  0.0327
  459MOL0    Cl61874   6.269  -2.274  -0.628  0.0373 -0.7344 -0.3551
  459MOL0     C61875   6.166  -1.394  -0.716  0.9809 -0.4817 -0.2748
  459MOL0     C61876   6.191  -1.264  -0.758 -0.3059 -0.8427  0.1553
  459MOL0     O61877   6.375  -1.031  -0.818 -0.4555  0.1927  0.4407
  459MOL0     C61878   6.278  -0.754  -0.884 -0.8340 -0.4210  0.8899
  459MOL0     C61879   6.239  -0.628  -0.943 -0.5242 -0.4590  0.2735
  459MOL0     N61880   5.912  -0.374  -0.790 -0.2816 -1.0224 -0.5465
  459MOL0     N61881   5.915  -0.328  -0.664  1.0845  0.6116  0.4482
  459MOL0     C61882   5.949   0.078   0.568  0.2951  0.2552 -0.3851
  459MOL0     C61883   5.903   0.166   0.669  0.9368  0.8887 -0.2708
  459MOL0     C61884   5.791   0.501   0.931  0.2028  0.8900  0.1302
  459MOL0     C61885   5.704   0.473   1.036  0.8758 -1.2582 -0.1739
  459MOL0     C61886   5.669   0.582   1.126 -0.1997  0.4450  0.6695
  459MOL0     C61887   5.729   0.710   1.115 -0.2807  0.0243  0.7250
  459MOL0     O61888   5.711   0.811   1.198  1.0310 -0.9473  0.2018
  459MOL0     C61889   5.586   0.882   1.183 -0.4347 -0.2014  0.5609
  459MOL0     C61890   5.586   1.013   1.251 -0.8083 -0.3808 -0.3899
  459MOL0     C61891   5.624   1.007   1.402  0.1048 -0.0129 -0.0327
  459MOL0     C61892   5.563   0.894   1.489  0.3067 -0.5875 -0.3499
  459MOL0     C61893   5.422   0.915   1.495  0.1512  0.1795 -0.3955
  459MOL0     C61894   5.297   0.921   1.496 -0.4630 -0.8248 -0.0669
  459MOL0     C61895   5.820   0.717   1.006 -0.2255 -0.4351 -1.3258
  459MOL0     C61896   5.855   0.625   0.920  0.5229  1.0319 -0.0609
  459MOL0     C61897   5.945   0.663   0.811 -0.1428 -0.1167  0.1432
  459MOL0     H61898   6.016   0.457   0.532 -3.4782  0.6164  1.5360
  459MOL0     H61899   6.050   0.303   0.335  0.5892  0.6057  1.4733
  459MOL0     H61900   5.832   0.037   0.249  0.6535  2.7371  1.2744
  459MOL0     H61901   5.967   0.129   0.159  0.7464 -1.2275 -1.2477
  459MOL0     H61902   5.956  -0.168   0.196 -1.3340  0.9251  1.9001
  459MOL0     H61903   6.082  -0.063   0.118 -0.0509  1.6986  0.8014
  459MOL0     H61904   5.896   0.023  -0.040  3.1129 -0.5865  0.3781
  459MOL0     H61905   5.797  -0.114   0.030 -0.4484 -2.2134 -0.1580
  459MOL0     H61906   6.058  -0.165  -0.107  0.5925 -5.0307  1.3712
  459MOL0     H61907   5.935  -0.278  -0.049 -1.9184  1.1729  1.2473
  459MOL0     H61908   5.939  -0.267  -0.281 -0.0107 -0.4658 -0.3247
  459MOL0     H61909   5.787  -0.200  -0.247  1.2953 -1.3299 -0.1670
  459MOL0     H61910   5.904   0.028  -0.283  0.9778  0.4049 -0.8548
  459MOL0     H61911   6.055  -0.070  -0.309  0.0693  0.4694  0.8138
  459MOL0     H61912   6.005  -0.132  -0.519 -1.0733 -1.3187 -0.6666
  459MOL0     H61913   5.935   0.026  -0.502  0.6376  0.4899  4.2743
  459MOL0     H61914   5.772  -0.242  -0.469 -0.9270  1.1651  1.0016
  459MOL0     H61915   5.730  -0.085  -0.563  0.9157  1.6833  0.7211
  459MOL0     H61916   5.704  -0.116  -0.798  1.4892  3.1991  5.3779
  459MOL0     H61917   5.771  -0.388  -1.051  3.0311 -2.0545 -0.3128
  459MOL0     H61918   5.732  -0.214  -1.031  1.2304  1.4088  3.8057
  459MOL0     H61919   5.876  -0.191  -1.209  1.2803 -0.1080 -1.0672
  459MOL0     H61920   5.983  -0.163  -1.071 -1.6455  1.3783  0.4967
  459MOL0     H61921   6.037  -0.349  -1.275  2.4191 -1.9140  1.1073
  459MOL0     H61922   5.928  -0.449  -1.188 -0.5917  0.0625 -1.0475
  459MOL0     H61923   6.065  -0.428  -0.994 -2.2888 -3.1597 -2.3540
  459MOL0     H61924   6.191  -0.313  -1.076  1.0460  0.4183  1.7785
  459MOL0     H61925   6.182  -0.721  -1.252  2.7125 -1.2973 -1.5061
  459MOL0     H61926   6.210  -0.956  -1.138 -1.7329 -0.2135  2.1489
  459MOL0     H61927   6.125  -1.281  -1.087  1.2465  1.1305 -0.4623
  459MOL0     H61928   6.076  -1.513  -1.023 -0.5457  0.3021  1.2300
  459MOL0     H61929   5.967  -1.674  -0.888  2.6750  0.9528 -3.8409
  459MOL0     H61930   6.132  -1.727  -0.905  1.9222 -0.0783  1.6730
  459MOL0     H61931   6.107  -1.865  -0.693  0.2975  0.6625 -2.6552
  459MOL0     H61932   5.951  -1.785  -0.662  0.2169 -0.3454 -0.6499
  459MOL0     H61933   5.961  -2.031  -0.729 -2.2653  0.0676 -0.3754
  459MOL0     H61934   5.833  -1.933  -0.792 -0.7912  0.0330 -0.8473
  459MOL0     H61935   6.047  -1.907  -0.980  1.0134 -0.3708  0.0869
  459MOL0     H61936   5.904  -2.007  -0.999  0.2556  1.0775 -0.6850
  459MOL0     H61937   6.074  -2.151  -1.044 -0.1954  2.3795 -1.0750
  459MOL0     H61938   6.033  -2.198  -0.874  0.7434 -0.3348 -0.6856
  459MOL0     H61939   6.253  -2.003  -0.935 -2.7385  1.2673  1.4811
  459MOL0     H61940   6.213  -2.053  -0.780 -2.4137  1.8890  0.0134
  459MOL0     H61941   6.415  -2.176  -0.874  1.3263  0.1788 -1.3426
  459MOL0     H61942   6.322  -2.252  -0.996  0.7452 -0.2903 -0.0890
  459MOL0     H61943   6.176  -2.339  -0.831  0.5557  1.6122  0.3398
  459MOL0     H61944   6.343  -2.406  -0.814 -0.5660 -0.1623 -3.0722
  459MOL0     H61945   6.172  -1.417  -0.610  1.1566  0.0753 -0.1629
  459MOL0     H61946   6.234  -1.193  -0.689  1.2461 -2.3437  0.8066
  459MOL0     H61947   6.304  -0.765  -0.780 -0.1713  2.3092  1.0930
  459MOL0     H61948   6.240  -0.531  -0.895 -5.0426  1.7617 -3.3257
  459MOL0     H61949   5.940  -0.029   0.579 -0.4329  0.3689  0.2308
  459MOL0     H61950   5.855   0.121   0.754 -1.5724 -1.0196 -2.5478
  459MOL0     H61951   5.645   0.382   1.038 -0.8331 -0.4728 -4.3023
  459MOL0     H61952   5.591   0.579   1.201 -0.9718 -0.6749 -0.1401
  459MOL0     H61953   5.506   0.822   1.225 -3.0498  2.9142  0.4284
  459MOL0     H61954   5.566   0.902   1.077 -0.1077  0.3301  0.5905
  459MOL0     H61955   5.492   1.065   1.230  1.0117  3.6646  0.3830
  459MOL0     H61956   5.658   1.081   1.204 -3.1685  2.5332 -0.0870
  459MOL0     H61957   5.625   1.102   1.455  2.5732  0.6794 -1.1981
  459MOL0     H61958   5.732   0.994   1.393 -0.1142 -3.3980  0.6266
  459MOL0     H61959   5.582   0.800   1.437  2.1314 -0.6225  0.3269
  459MOL0     H61960   5.603   0.882   1.590  0.4955  0.4989 -0.2858
  459MOL0     H61961   5.192   0.918   1.520 -1.3344  0.9549 -3.1026
  459MOL0     H61962   5.878   0.809   1.011  2.5315 -2.1113 -0.7614
  459MOL0     H61963   5.898   0.646   0.714 -2.8533  4.9069  0.2591
  459MOL0     H61964   5.976   0.768   0.807 -0.5546 -0.0288 -1.4798
  459MOL0     H61965   6.039   0.607   0.819  0.5739  1.0348  0.0028
  460MOL0     O61966  10.494   3.188   9.061  0.3802  0.0764 -0.9984
  460MOL0     C61967  10.396   3.178   9.136 -0.7417 -0.3511  0.0305
  460MOL0     O61968  10.288   3.102   9.113  0.4410 -0.0697 -0.0537
  460MOL0     C61969  10.291   2.968   9.088 -0.2909 -0.2835  0.2955
  460MOL0     C61970  10.169   2.913   9.050  0.2788 -0.3170  1.1091
  460MOL0     C61971  10.148   2.773   9.043 -1.1046  0.2506  0.3774
  460MOL0     C61972  10.264   2.686   9.049  1.3212 -0.7852 -0.1514
  460MOL0     O61973  10.219   2.551   9.049 -0.4349  0.6462 -0.2170
  460MOL0     C61974  10.314   2.435   9.055  0.2391 -0.0392  0.4672
  460MOL0     C61975  10.265   2.293   9.067  0.7676  0.2260  0.0896
  460MOL0     C61976  10.141   2.259   8.973  0.2702 -0.5796  0.0248
  460MOL0     C61977  10.080   2.126   9.004 -0.7095 -0.5590  0.1943
  460MOL0     C61978  10.172   2.009   8.959  0.4936  0.2213  0.8009
  460MOL0     C61979  10.103   1.868   8.962  0.6586 -0.3813  0.2708
  460MOL0     C61980  10.180   1.772   8.872 -0.4589 -0.7227 -0.0337
  460MOL0     C61981  10.135   1.778   8.726  0.2857 -0.0914 -0.1528
  460MOL0     N61982  10.239   1.697   8.651  0.6804 -0.0621  0.5800
  460MOL0     C61983  10.330   1.763   8.575 -0.2246  0.5799  0.1992
  460MOL0     C61984  10.404   1.655   8.511  0.4505 -0.4725  0.1914
  460MOL0     C61985  10.503   1.673   8.404 -0.0960 -0.2219  0.8961
  460MOL0     C61986  10.640   1.605   8.434 -1.2592 -0.5891 -0.4999
  460MOL0     C61987  10.730   1.692   8.510 -0.4543 -0.5927  0.4577
  460MOL0     C61988  10.865   1.632   8.557  0.7748 -0.5911  0.3797
  460MOL0     O61989  10.942   1.560   8.458  1.4109 -0.1444  0.5420
  460MOL0     C61990  10.981   1.638   8.352 -0.4251  0.4996 -0.3509
  460MOL0     C61991  11.027   1.775   8.373  0.4134  0.0320  0.1236
  460MOL0     C61992  11.055   1.854   8.259  0.2993  0.0179 -0.8519
  460MOL0     C61993  11.056   1.790   8.134 -0.2736 -0.2305  0.0861
  460MOL0     C61994  11.086   1.873   8.020 -0.3287 -0.2735 -0.1867
  460MOL0     O61995  11.105   1.819   7.899 -0.3492  0.1113  0.3522
  460MOL0     C61996  11.126   1.902   7.791 -0.4547  0.7315  0.1595
  460MOL0     C61997  11.258   1.891   7.731  0.7108 -0.0441  0.4153
  460MOL0     C61998  11.308   1.968   7.624 -0.0911  0.2481  0.1018
  460MOL0     C61999  11.210   2.050   7.557  0.0519 -0.5576 -0.7195
  460MOL0     O62000  11.267   2.132   7.455 -0.6966 -0.2757  0.4085
  460MOL0     C62001  11.201   2.249   7.398 -0.6334 -0.2037 -0.5314
  460MOL0     C62002  11.140   2.219   7.261  0.3954 -0.5027 -0.0141
  460MOL0     C62003  11.232   2.187   7.148  0.5086  0.1479 -0.1345
  460MOL0     C62004  11.149   2.173   7.028 -0.1651 -0.3341  0.7880
  460MOL0     C62005  11.214   2.100   6.915  0.6506 -0.1841 -0.0407
  460MOL0     C62006  11.152   2.128   6.777 -0.0816 -0.0935  0.0451
  460MOL0     C62007  11.002   2.083   6.776  0.4536  1.2713  0.2714
  460MOL0     C62008  10.939   2.130   6.644 -0.3072 -0.2518 -0.5733
  460MOL0    Cl62009  11.024   2.027   6.523  0.1185  0.0445  0.2242
  460MOL0     C62010  11.075   2.067   7.609  0.6298 -0.2213  0.1681
  460MOL0     C62011  11.038   1.994   7.724 -0.3435 -0.0691  0.9337
  460MOL0     O62012  11.101   1.995   8.044  0.3478 -0.2962  0.2516
  460MOL0     C62013  11.017   1.660   8.126  0.5030 -0.2138  0.1784
  460MOL0     C62014  10.990   1.578   8.238  0.6661 -0.0444  0.0601
  460MOL0     N62015  10.348   1.538   8.571  0.6468  0.0694  0.2002
  460MOL0     N62016  10.245   1.560   8.647  0.3447 -0.5363 -0.6788
  460MOL0     C62017  10.386   2.744   9.073  0.6415 -0.3934  0.9102
  460MOL0     C62018  10.400   2.884   9.092  0.7937 -0.0033 -0.7396
  460MOL0     C62019  10.386   3.275   9.254  0.6184 -0.1565  0.1125
  460MOL0     C62020  10.289   3.378   9.260  0.8122  0.4179 -0.0048
  460MOL0     C62021  10.303   3.481   9.358  0.2483  0.1172  0.2289
  460MOL0     C62022  10.398   3.471   9.460 -0.9912 -0.3818  0.1492
  460MOL0     O62023  10.430   3.556   9.558  0.5276 -0.4934 -0.0366
  460MOL0     C62024  10.411   3.699   9.542 -0.0795  0.5654 -0.5124
  460MOL0     C62025  10.485   3.764   9.657  0.4356 -0.5479  0.3520
  460MOL0     C62026  10.634   3.758   9.654  0.4044  0.1223  1.3201
  460MOL0     C62027  10.684   3.675   9.767  0.9519 -0.0520  0.2599
  460MOL0     C62028  10.830   3.664   9.750 -0.5428  0.3216 -0.0031
  460MOL0     C62029  10.951   3.649   9.732 -0.1340 -0.2951 -0.4410
  460MOL0     C62030  10.492   3.369   9.456  0.0055 -0.2162 -0.2885
  460MOL0     C62031  10.481   3.269   9.360  0.0224 -0.5893 -0.3962
  460MOL0     C62032  10.586   3.164   9.379  0.3872  0.3879  0.2140
  460MOL0     H62033  10.087   2.976   9.016 -0.0212 -1.4436 -0.3756
  460MOL0     H62034  10.053   2.725   9.025 -0.3653 -1.2921  0.3776
  460MOL0     H62035  10.377   2.421   8.966  1.9629  0.5317  1.5573
  460MOL0     H62036  10.379   2.450   9.142 -0.4227  1.3230  0.7435
  460MOL0     H62037  10.234   2.288   9.172 -1.9380  2.1059 -0.5269
  460MOL0     H62038  10.341   2.218   9.042  1.1352  1.5765 -3.2726
  460MOL0     H62039  10.169   2.253   8.867 -1.4627  0.4863 -0.5399
  460MOL0     H62040  10.064   2.337   8.971  1.8423  1.0423 -0.0477
  460MOL0     H62041  10.061   2.116   9.111  0.1024 -1.0570  0.3017
  460MOL0     H62042   9.984   2.102   8.958 -0.9106  0.3637  0.1136
  460MOL0     H62043  10.217   2.025   8.860  0.3789 -2.1776  0.2847
  460MOL0     H62044  10.265   2.005   9.017  0.8595  0.4803  0.2409
  460MOL0     H62045  10.101   1.840   9.068 -1.3815 -0.8420  0.1518
  460MOL0     H62046   9.998   1.880   8.932  1.4651 -1.0656 -3.3188
  460MOL0     H62047  10.178   1.672   8.915 -2.3668 -0.9322 -0.5267
  460MOL0     H62048  10.281   1.814   8.877 -2.0093  3.8260 -1.2770
  460MOL0     H62049  10.037   1.731   8.716  0.4745 -1.0702  1.9741
  460MOL0     H62050  10.129   1.881   8.688  3.2020 -0.1090 -0.8691
  460MOL0     H62051  10.346   1.870   8.573  1.3601  0.4349  2.3091
  460MOL0     H62052  10.468   1.635   8.308  1.3829  2.2911 -0.7471
  460MOL0     H62053  10.521   1.779   8.384  3.5553 -0.9563 -0.4932
  460MOL0     H62054  10.630   1.509   8.485 -1.4029  0.0164  0.6401
  460MOL0     H62055  10.691   1.600   8.338 -1.3526  2.1442 -0.7518
  460MOL0     H62056  10.680   1.720   8.603 -0.9944  1.3117 -0.3629
  460MOL0     H62057  10.738   1.786   8.455 -2.4549 -0.0648  0.9867
  460MOL0     H62058  10.833   1.544   8.614  2.6447 -1.7756 -0.3098
  460MOL0     H62059  10.925   1.704   8.613 -0.0381  1.1805 -0.9617
  460MOL0     H62060  11.043   1.818   8.471 -0.3328 -1.6704  1.0315
  460MOL0     H62061  11.075   1.960   8.271  2.8075 -0.3526 -1.3311
  460MOL0     H62062  11.323   1.826   7.788 -0.1952 -0.0456  1.4913
  460MOL0     H62063  11.412   1.976   7.594  0.0464 -0.2867  0.4218
  460MOL0     H62064  11.142   2.297   7.477  2.2110  0.6991  1.2156
  460MOL0     H62065  11.279   2.321   7.371  2.3614 -2.7753  0.5768
  460MOL0     H62066  11.069   2.139   7.281  1.0938 -0.2704  4.4129
  460MOL0     H62067  11.081   2.308   7.240 -1.5179 -1.5415  0.6891
  460MOL0     H62068  11.315   2.258   7.140  0.8672 -0.3363 -0.7533
  460MOL0     H62069  11.282   2.091   7.164  0.8901  0.4121  0.2974
  460MOL0     H62070  11.127   2.273   6.991  1.5232 -0.2712 -0.1194
  460MOL0     H62071  11.063   2.105   7.033 -1.6661  0.9134 -3.6245
  460MOL0     H62072  11.211   1.993   6.940  3.3979  0.4160  4.0794
  460MOL0     H62073  11.320   2.130   6.916  1.2098 -2.0422  0.9316
  460MOL0     H62074  11.155   2.233   6.747 -1.0439 -0.3238 -0.9062
  460MOL0     H62075  11.224   2.078   6.711  0.9318  1.4873 -0.1007
  460MOL0     H62076  10.953   2.148   6.849  2.4975  2.1572  0.9297
  460MOL0     H62077  10.992   1.979   6.810 -3.1964  0.9690 -1.2680
  460MOL0     H62078  10.832   2.106   6.648 -0.6351  1.1611 -0.3344
  460MOL0     H62079  10.947   2.238   6.631  0.0958 -0.0694  1.0336
  460MOL0     H62080  11.005   2.133   7.558  1.0856  1.3201  1.4421
  460MOL0     H62081  10.937   2.008   7.761 -1.2784  1.2837 -1.8507
  460MOL0     H62082  11.019   1.626   8.023 -2.7578  0.5761 -0.2464
  460MOL0     H62083  10.966   1.474   8.217  0.7932  0.0501 -0.5714
  460MOL0     H62084  10.458   2.664   9.083  2.7146  1.3638  0.8425
  460MOL0     H62085  10.500   2.926   9.099 -0.1640  2.5242 -0.9721
  460MOL0     H62086  10.200   3.377   9.197  0.0329 -1.0283  1.0596
  460MOL0     H62087  10.241   3.569   9.369 -0.2398 -0.2337  0.3374
  460MOL0     H62088  10.303   3.709   9.556  0.2813  0.5118  3.5276
  460MOL0     H62089  10.436   3.745   9.446 -2.7024 -2.2460 -2.7513
  460MOL0     H62090  10.446   3.732   9.754 -0.0726  1.6342  0.9226
  460MOL0     H62091  10.471   3.873   9.653  1.2321 -0.4555 -0.0331
  460MOL0     H62092  10.670   3.861   9.650  0.4487  0.0694  0.0579
  460MOL0     H62093  10.664   3.714   9.558 -0.0989  2.6313 -0.0580
  460MOL0     H62094  10.658   3.719   9.863  3.1106  1.4252  0.2541
  460MOL0     H62095  10.640   3.576   9.758  1.7186 -0.3162 -0.7905
  460MOL0     H62096  11.058   3.642   9.724  0.3055  0.7978  3.0827
  460MOL0     H62097  10.562   3.367   9.539 -0.3061  3.0292  0.2060
  460MOL0     H62098  10.572   3.106   9.471  3.4786 -1.1153 -0.1655
  460MOL0     H62099  10.581   3.090   9.298  3.5925  0.1273  0.1492
  460MOL0     H62100  10.688   3.202   9.380  0.2220  0.8447  0.8397
  461MOL0     O62101   7.025   9.828   5.064 -0.5982 -0.1120 -0.7788
  461MOL0     C62102   7.073   9.910   4.982  0.8093 -0.4777 -0.0155
  461MOL0     O62103   7.052   9.893   4.845 -0.7160 -0.1067 -0.1315
  461MOL0     C62104   7.008   9.785   4.780  0.3458  0.4707  0.1466
  461MOL0     C62105   7.043   9.654   4.807 -0.2791 -0.4502  0.6316
  461MOL0     C62106   6.996   9.547   4.728 -0.7441  0.1757 -0.3900
  461MOL0     C62107   6.933   9.572   4.606  0.6194  0.3118  0.6488
  461MOL0     O62108   6.893   9.484   4.507 -0.7921  0.5718 -0.1420
  461MOL0     C62109   6.975   9.370   4.494 -0.4777  0.6443 -0.3973
  461MOL0     C62110   6.946   9.315   4.356  1.6517  0.6352 -1.0124
  461MOL0     C62111   7.027   9.184   4.326  0.1643 -0.1716 -0.0938
  461MOL0     C62112   7.032   9.153   4.169  0.8453 -1.0949 -0.3055
  461MOL0     C62113   7.052   9.013   4.129 -0.1891  0.7824  0.0516
  461MOL0     C62114   7.198   8.972   4.149  0.5239  0.8772 -0.6264
  461MOL0     C62115   7.210   8.838   4.073 -0.3919 -0.2546  0.4668
  461MOL0     C62116   7.348   8.772   4.119 -0.4385  0.3941  1.7889
  461MOL0     N62117   7.333   8.650   4.201  0.6961  0.1109 -0.0602
  461MOL0     C62118   7.309   8.530   4.144  0.2699  0.1894  1.1413
  461MOL0     C62119   7.321   8.438   4.238  0.0866  0.5894  0.7911
  461MOL0     C62120   7.317   8.287   4.213  0.0562  0.2664  0.5871
  461MOL0     C62121   7.189   8.225   4.264 -0.2743 -0.1473 -0.2278
  461MOL0     C62122   7.060   8.206   4.173 -0.7603  0.0621 -0.3553
  461MOL0     C62123   6.970   8.333   4.170 -0.9668  0.3646  0.4855
  461MOL0     O62124   6.910   8.346   4.295 -0.8034 -0.4885 -0.3280
  461MOL0     C62125   6.877   8.474   4.347 -0.8610  0.1950  0.1795
  461MOL0     C62126   6.828   8.470   4.475  0.6631 -0.9043 -0.2525
  461MOL0     C62127   6.797   8.592   4.545 -0.7343 -0.5440  0.6016
  461MOL0     C62128   6.801   8.718   4.478  0.2169  0.7263 -0.5403
  461MOL0     C62129   6.732   8.832   4.536 -0.5190  0.0855  0.3505
  461MOL0     O62130   6.753   8.947   4.472  0.5638 -0.0371 -0.5586
  461MOL0     C62131   6.711   9.060   4.533  0.4033 -0.1902  0.8644
  461MOL0     C62132   6.602   9.136   4.475 -0.0122 -1.3725  0.4009
  461MOL0     C62133   6.547   9.251   4.533 -0.5669  0.6024  0.1888
  461MOL0     C62134   6.588   9.284   4.659  0.5275 -1.1821  0.6686
  461MOL0     O62135   6.530   9.395   4.714 -0.5113  0.0230 -0.5876
  461MOL0     C62136   6.613   9.452   4.818  0.6408  0.0402  0.2025
  461MOL0     C62137   6.554   9.581   4.866  0.2087 -0.0795  0.0079
  461MOL0     C62138   6.646   9.672   4.942 -0.1933 -0.0310  0.1520
  461MOL0     C62139   6.674   9.607   5.077  0.1914  1.7387  0.3113
  461MOL0     C62140   6.715   9.704   5.192 -0.2557  0.2920  0.5256
  461MOL0     C62141   6.771   9.639   5.315 -0.6650 -0.8205 -0.0174
  461MOL0     C62142   6.794   9.735   5.429 -0.7169 -0.0142 -0.1477
  461MOL0     C62143   6.898   9.671   5.525  0.6185 -0.9715 -1.3010
  461MOL0    Cl62144   6.823   9.562   5.629 -0.0682 -0.0775 -0.3774
  461MOL0     C62145   6.691   9.213   4.719 -0.6836  0.4249  0.4141
  461MOL0     C62146   6.749   9.097   4.660 -1.1062  0.0443  1.1503
  461MOL0     O62147   6.659   8.819   4.636  0.2281  0.2115  0.1123
  461MOL0     C62148   6.848   8.720   4.347 -0.5849 -0.0040  0.1079
  461MOL0     C62149   6.892   8.599   4.279 -0.0496 -0.5550 -0.5383
  461MOL0     N62150   7.329   8.510   4.362 -0.0311  0.5810  0.0181
  461MOL0     N62151   7.344   8.636   4.332 -0.7929  0.1891  0.0989
  461MOL0     C62152   6.904   9.703   4.575 -0.1625 -0.1913  1.6372
  461MOL0     C62153   6.946   9.806   4.661 -1.0509 -0.4721 -0.2615
  461MOL0     C62154   7.146  10.033   5.028 -0.7108  0.1580  0.0559
  461MOL0     C62155   7.169  10.054   5.163  0.8627 -0.3335  0.3978
  461MOL0     C62156   7.236  10.159   5.214 -0.1949 -0.5265  0.1826
  461MOL0     C62157   7.293  10.258   5.132  0.9026  0.4744 -0.0358
  461MOL0     O62158   7.350  10.368   5.191  0.2507  0.0832 -0.3884
  461MOL0     C62159   7.380  10.479   5.099  0.1687 -0.1520 -0.3345
  461MOL0     C62160   7.470  10.586   5.163 -0.2002 -0.3284  0.3651
  461MOL0     C62161   7.490  10.710   5.082 -0.0042 -0.3075  0.5578
  461MOL0     C62162   7.552  10.696   4.937  0.5280 -0.6941 -0.7090
  461MOL0     C62163   7.697  10.697   4.943 -0.4458 -0.2460 -0.4234
  461MOL0     C62164   7.818  10.700   4.969  0.0185 -0.0741 -0.0227
  461MOL0     C62165   7.269  10.248   4.989 -0.7597  0.4005 -0.7207
  461MOL0     C62166   7.201  10.137   4.943  0.7453 -0.8254 -0.1856
  461MOL0     C62167   7.205  10.114   4.794  0.2124 -0.0777  0.1392
  461MOL0     H62168   7.083   9.644   4.908  1.4588  3.7767  0.5729
  461MOL0     H62169   7.022   9.446   4.759  3.1477  2.0270  3.3978
  461MOL0     H62170   7.080   9.397   4.512  0.0469 -0.5242 -1.5286
  461MOL0     H62171   6.946   9.301   4.574  3.1351  2.1088  2.4698
  461MOL0     H62172   6.985   9.393   4.289  1.0677  0.6728 -1.3168
  461MOL0     H62173   6.838   9.305   4.338  1.4597  0.2905  0.2623
  461MOL0     H62174   6.978   9.105   4.384  0.4459 -0.0291  0.3438
  461MOL0     H62175   7.132   9.194   4.354  0.3010 -3.0509  0.7619
  461MOL0     H62176   6.937   9.174   4.121  0.4494 -4.5603 -1.3286
  461MOL0     H62177   7.111   9.216   4.128  2.3938 -2.6609  0.1492
  461MOL0     H62178   6.998   8.956   4.205 -1.6008  3.0019  0.8118
  461MOL0     H62179   7.019   8.982   4.030 -0.2304 -1.5273  0.7406
  461MOL0     H62180   7.264   9.040   4.094  0.4394 -0.8599 -3.0417
  461MOL0     H62181   7.210   8.964   4.257 -0.3634  3.3754 -0.2785
  461MOL0     H62182   7.203   8.870   3.969 -0.9168 -2.0678 -0.1037
  461MOL0     H62183   7.137   8.760   4.097  0.5770 -0.4186  3.1500
  461MOL0     H62184   7.425   8.755   4.043 -0.4126 -1.4870  2.1839
  461MOL0     H62185   7.402   8.852   4.171  1.5981  1.0017 -1.0322
  461MOL0     H62186   7.316   8.512   4.037 -0.5751  1.9465  0.7395
  461MOL0     H62187   7.314   8.269   4.105 -2.8185 -0.3509  0.7067
  461MOL0     H62188   7.404   8.248   4.266 -0.7629 -0.2327  1.5837
  461MOL0     H62189   7.211   8.122   4.292 -0.2750 -0.0345  0.1929
  461MOL0     H62190   7.161   8.287   4.350 -1.7068  0.5434 -1.1450
  461MOL0     H62191   7.007   8.120   4.214  1.2864 -1.3007 -0.3840
  461MOL0     H62192   7.092   8.188   4.071  0.3057 -0.5342  0.0687
  461MOL0     H62193   6.896   8.322   4.090 -2.4974  2.0198  1.5849
  461MOL0     H62194   7.041   8.411   4.142  1.5951 -1.2984  1.9190
  461MOL0     H62195   6.828   8.371   4.521 -1.1980 -0.4779  0.7710
  461MOL0     H62196   6.765   8.587   4.648  0.4623  1.7509  1.1444
  461MOL0     H62197   6.576   9.128   4.370 -2.2726  0.7993  0.6911
  461MOL0     H62198   6.465   9.306   4.487 -0.6386  0.9120  0.6866
  461MOL0     H62199   6.623   9.388   4.907  3.0330  4.3491  3.3843
  461MOL0     H62200   6.716   9.477   4.793  0.7087  1.0197  1.4056
  461MOL0     H62201   6.517   9.635   4.779 -0.4364  0.3767  0.5536
  461MOL0     H62202   6.462   9.552   4.919 -1.5893 -3.1102 -4.1328
  461MOL0     H62203   6.742   9.692   4.892 -0.6807  2.3649  0.0494
  461MOL0     H62204   6.596   9.767   4.961 -0.2170  0.2595 -1.2715
  461MOL0     H62205   6.749   9.528   5.065  1.1695  2.9206 -1.8553
  461MOL0     H62206   6.587   9.556   5.120  1.8562 -1.3857  0.2258
  461MOL0     H62207   6.628   9.763   5.225 -1.4388 -1.6033  0.9317
  461MOL0     H62208   6.794   9.774   5.162  1.4581 -0.0770  3.7217
  461MOL0     H62209   6.702   9.559   5.342 -0.8987 -0.1101  1.5672
  461MOL0     H62210   6.863   9.592   5.278 -1.5238 -0.2729 -3.1997
  461MOL0     H62211   6.696   9.755   5.475 -0.2967  2.1330 -0.0683
  461MOL0     H62212   6.828   9.832   5.392  0.9457  0.7044  2.9672
  461MOL0     H62213   6.988   9.628   5.481  0.8593 -2.0604  0.2072
  461MOL0     H62214   6.927   9.749   5.596 -1.1199 -1.0350 -0.4631
  461MOL0     H62215   6.740   9.230   4.814  4.3783 -2.5064 -1.2732
  461MOL0     H62216   6.822   9.041   4.717 -0.2655  3.3509  3.6862
  461MOL0     H62217   6.844   8.806   4.281  0.9642 -1.3271 -1.8586
  461MOL0     H62218   6.915   8.606   4.174 -0.6141  1.3792 -0.5681
  461MOL0     H62219   6.846   9.709   4.484  1.5747 -1.5293  0.3733
  461MOL0     H62220   6.918   9.908   4.636  0.4862  0.0672  0.1219
  461MOL0     H62221   7.121   9.980   5.226 -1.8986 -0.5368 -1.7377
  461MOL0     H62222   7.250  10.177   5.320 -0.8696  0.6481  0.0886
  461MOL0     H62223   7.284  10.520   5.065 -0.0672 -1.5079 -1.3628
  461MOL0     H62224   7.420  10.434   5.008 -2.1879 -2.4846 -0.3332
  461MOL0     H62225   7.565  10.536   5.183 -0.1792  0.0966  1.3592
  461MOL0     H62226   7.427  10.609   5.261  0.5328  2.0479  0.1727
  461MOL0     H62227   7.551  10.780   5.139  0.9348 -0.3329 -0.3942
  461MOL0     H62228   7.395  10.759   5.058  0.3165 -0.7562 -1.8413
  461MOL0     H62229   7.518  10.603   4.889  0.8673 -1.1522 -0.0825
  461MOL0     H62230   7.522  10.785   4.883 -0.8808  0.1399  1.3247
  461MOL0     H62231   7.923  10.697   4.988  0.1349  0.1218 -0.6013
  461MOL0     H62232   7.304  10.312   4.908  0.5806 -1.9066 -2.0957
  461MOL0     H62233   7.267  10.028   4.766  0.6188  0.7577 -1.6907
  461MOL0     H62234   7.106  10.099   4.750 -0.9483  5.5102  0.1545
  461MOL0     H62235   7.254  10.193   4.736 -0.1260 -1.2181 -1.7955
  462MOL0     O62236  11.200   2.212   2.275  0.5594  0.2469  0.2063
  462MOL0     C62237  11.121   2.281   2.332 -0.8352 -0.0746 -0.1202
  462MOL0     O62238  11.144   2.415   2.357 -0.9993  0.0781 -0.1533
  462MOL0     C62239  11.228   2.491   2.281  0.4579 -0.5077 -0.4711
  462MOL0     C62240  11.258   2.470   2.151 -0.3174  0.7893 -0.5080
  462MOL0     C62241  11.332   2.570   2.085 -0.1874  0.3064 -0.8630
  462MOL0     C62242  11.377   2.684   2.148 -0.3085  0.3276 -0.1752
  462MOL0     O62243  11.460   2.780   2.095 -0.5581  0.1432 -0.1274
  462MOL0     C62244  11.529   2.760   1.972 -0.4103  0.1184  0.1259
  462MOL0     C62245  11.599   2.886   1.924 -0.4973 -0.2946  0.0088
  462MOL0     C62246  11.704   2.923   2.035 -0.1699  0.4937 -0.5775
  462MOL0     C62247  11.817   2.997   1.972 -0.3937 -0.2089 -0.0000
  462MOL0     C62248  11.929   3.050   2.083 -0.4132 -0.3695 -0.3979
  462MOL0     C62249  12.045   3.115   2.001  0.1602 -0.0632  0.1400
  462MOL0     C62250  12.148   3.181   2.099  0.4076  0.5010  0.1105
  462MOL0     C62251  12.179   3.095   2.220 -0.0256  1.1206  0.1186
  462MOL0     N62252  12.314   3.114   2.271  0.0948  0.7251  0.4971
  462MOL0     C62253  12.400   3.010   2.296  0.1006 -1.0899 -0.6070
  462MOL0     C62254  12.515   3.064   2.336 -0.6745  1.0432  0.5496
  462MOL0     C62255  12.638   2.993   2.365  0.5194  0.8949 -0.0540
  462MOL0     C62256  12.634   2.836   2.368 -0.4094  0.6499  0.3274
  462MOL0     C62257  12.765   2.768   2.399  0.5494 -0.1374 -0.6497
  462MOL0     C62258  12.872   2.788   2.288 -0.2146 -0.1516  0.3648
  462MOL0     O62259  12.993   2.736   2.352 -0.3110  0.4057  0.4797
  462MOL0     C62260  13.090   2.710   2.262  0.1935 -0.3851 -0.2246
  462MOL0     C62261  13.141   2.583   2.253  0.8591  0.9197  0.1790
  462MOL0     C62262  13.253   2.546   2.180 -0.2287 -0.2770  0.6267
  462MOL0     C62263  13.326   2.648   2.110  0.1594 -0.4531 -0.4530
  462MOL0     C62264  13.464   2.628   2.059  1.1265  0.2466  0.4064
  462MOL0     O62265  13.550   2.731   2.053 -0.1637 -0.5404  0.1666
  462MOL0     C62266  13.665   2.693   1.990  0.2916 -0.2765  0.7341
  462MOL0     C62267  13.682   2.725   1.856 -0.8392  0.3690  0.4524
  462MOL0     C62268  13.788   2.681   1.777  1.2410 -0.2692  0.2845
  462MOL0     C62269  13.890   2.601   1.835  0.1341 -0.0046  0.2840
  462MOL0     O62270  13.993   2.559   1.768  0.9079  0.9678 -0.7108
  462MOL0     C62271  14.034   2.597   1.633 -0.5773  0.8204  0.4680
  462MOL0     C62272  14.173   2.540   1.615  0.0739 -0.0356  1.1526
  462MOL0     C62273  14.238   2.585   1.478 -0.5280 -0.2628 -0.2702
  462MOL0     C62274  14.396   2.567   1.489 -1.4781 -0.6667  0.0756
  462MOL0     C62275  14.463   2.569   1.350 -0.2579  0.3834 -0.1841
  462MOL0     C62276  14.441   2.691   1.264  0.8242  0.0251  0.0629
  462MOL0     C62277  14.535   2.684   1.141  0.0999  0.4389  0.3635
  462MOL0     C62278  14.683   2.688   1.167  0.2963 -0.1302 -0.4481
  462MOL0    Cl62279  14.768   2.704   1.008 -0.0592  0.2705 -0.0557
  462MOL0     C62280  13.874   2.570   1.965 -0.0183  0.1724  0.4587
  462MOL0     C62281  13.766   2.611   2.047  0.2186 -0.1838  1.1767
  462MOL0     O62282  13.485   2.512   2.017 -0.4624 -0.1798  0.7162
  462MOL0     C62283  13.271   2.772   2.122 -0.3613 -1.3877  1.0452
  462MOL0     C62284  13.161   2.807   2.197 -0.1909  1.2996  1.0473
  462MOL0     N62285  12.500   3.198   2.347 -0.3781  0.3981  0.0185
  462MOL0     N62286  12.393   3.225   2.292  1.0645  0.3255 -0.3857
  462MOL0     C62287  11.348   2.702   2.280  0.1406  0.0533 -0.2855
  462MOL0     C62288  11.278   2.602   2.351  0.6707  0.7367  0.8993
  462MOL0     C62289  11.002   2.224   2.402 -0.4430  0.4233  0.7609
  462MOL0     C62290  10.941   2.308   2.502  0.2823 -0.2958 -0.3825
  462MOL0     C62291  10.845   2.261   2.583  0.5692 -0.4133 -0.1716
  462MOL0     C62292  10.794   2.133   2.580  0.3243  0.3471  0.2904
  462MOL0     O62293  10.702   2.073   2.668  0.5382 -0.4790 -0.1307
  462MOL0     C62294  10.624   2.164   2.754  0.0922  0.1748 -0.9913
  462MOL0     C62295  10.504   2.091   2.810  1.1207 -0.0031  0.3830
  462MOL0     C62296  10.421   2.011   2.698 -0.5711 -0.1745 -0.1028
  462MOL0     C62297  10.273   2.005   2.707 -0.2100 -0.5867  0.4173
  462MOL0     C62298  10.222   2.146   2.721  1.0650 -0.3321 -0.0005
  462MOL0     C62299  10.179   2.258   2.749  0.9112  0.3947 -0.8351
  462MOL0     C62300  10.852   2.052   2.477 -0.2162  0.0159 -1.0569
  462MOL0     C62301  10.949   2.093   2.389 -1.0235  0.4820 -0.4422
  462MOL0     C62302  11.002   1.993   2.283  0.1816 -0.7670 -0.0117
  462MOL0     H62303  11.223   2.386   2.093 -5.4435  0.9961  1.7085
  462MOL0     H62304  11.360   2.554   1.982 -1.7645 -3.2639 -0.8681
  462MOL0     H62305  11.607   2.686   1.990 -1.1661 -1.2092 -1.7836
  462MOL0     H62306  11.462   2.719   1.896  1.1162  1.0782 -1.8317
  462MOL0     H62307  11.524   2.963   1.902 -0.8410 -1.0592 -1.7084
  462MOL0     H62308  11.648   2.851   1.833  0.0673 -1.4414  0.7249
  462MOL0     H62309  11.746   2.832   2.079 -4.0778 -1.6003 -0.7512
  462MOL0     H62310  11.657   2.984   2.113 -1.4076 -1.6256  0.4070
  462MOL0     H62311  11.854   2.934   1.890  1.2241  0.8169 -0.1012
  462MOL0     H62312  11.775   3.089   1.929 -0.0712  0.7802  1.7112
  462MOL0     H62313  11.880   3.118   2.153 -0.3125 -2.1827  1.4976
  462MOL0     H62314  11.972   2.966   2.138 -1.5320  0.0129  1.0952
  462MOL0     H62315  12.097   3.042   1.938 -1.4838 -1.6404  0.5195
  462MOL0     H62316  12.008   3.198   1.941  0.2009 -1.2719 -1.6164
  462MOL0     H62317  12.095   3.271   2.134 -1.6063 -0.8910  0.8444
  462MOL0     H62318  12.227   3.221   2.035 -0.7675  2.3021 -0.3233
  462MOL0     H62319  12.108   3.119   2.299  1.6698 -0.6773  2.2997
  462MOL0     H62320  12.167   2.989   2.197 -1.9835  1.6077 -1.4723
  462MOL0     H62321  12.384   2.903   2.284 -0.3828 -0.7442 -4.2140
  462MOL0     H62322  12.700   3.025   2.280 -1.6027  2.9333 -0.9242
  462MOL0     H62323  12.685   3.023   2.459  0.2444  4.1951 -0.8429
  462MOL0     H62324  12.553   2.799   2.431 -1.5515  2.6861  0.1490
  462MOL0     H62325  12.605   2.800   2.268  1.7257  2.9355 -1.2284
  462MOL0     H62326  12.755   2.664   2.429  1.6154 -0.1800 -0.4113
  462MOL0     H62327  12.803   2.812   2.492 -1.2557 -1.0836  0.5883
  462MOL0     H62328  12.887   2.891   2.256 -2.4150 -0.4855 -2.0385
  462MOL0     H62329  12.837   2.726   2.205 -2.2928  0.1460  0.9740
  462MOL0     H62330  13.080   2.503   2.294  2.6808 -1.0421 -0.7886
  462MOL0     H62331  13.282   2.442   2.173 -0.2683 -0.2755  0.4309
  462MOL0     H62332  13.610   2.785   1.801 -0.2559 -0.5170 -1.3597
  462MOL0     H62333  13.786   2.703   1.671 -1.6761 -3.6379 -0.5650
  462MOL0     H62334  13.960   2.558   1.562  1.9112 -1.7662 -0.8830
  462MOL0     H62335  14.032   2.706   1.631  1.8035  0.9038 -1.1235
  462MOL0     H62336  14.245   2.571   1.691 -0.2924  4.9077 -0.1492
  462MOL0     H62337  14.158   2.433   1.601 -1.6206  0.3499 -0.4144
  462MOL0     H62338  14.213   2.516   1.397  0.6335  0.9968 -1.7519
  462MOL0     H62339  14.210   2.686   1.447  0.4648 -0.3344 -1.4938
  462MOL0     H62340  14.431   2.477   1.540 -0.9981 -1.5426 -1.7438
  462MOL0     H62341  14.452   2.642   1.545  4.0612 -4.7615  0.8781
  462MOL0     H62342  14.446   2.478   1.292  0.5435  0.4620 -0.5566
  462MOL0     H62343  14.570   2.559   1.368 -0.5473  0.7571  1.8982
  462MOL0     H62344  14.337   2.683   1.232 -0.1806  0.3914  2.9360
  462MOL0     H62345  14.463   2.785   1.316  1.5880  0.9922 -1.9277
  462MOL0     H62346  14.502   2.755   1.065  1.5480  1.0848  0.2888
  462MOL0     H62347  14.511   2.590   1.092 -2.3057  0.2126  1.8259
  462MOL0     H62348  14.702   2.770   1.237 -1.6312 -1.4588  1.8100
  462MOL0     H62349  14.713   2.599   1.224 -3.0657 -0.4134  1.1468
  462MOL0     H62350  13.940   2.508   2.025 -3.2297 -2.5035  1.5396
  462MOL0     H62351  13.757   2.582   2.151  0.2536 -0.9429  0.9800
  462MOL0     H62352  13.322   2.856   2.075 -0.2599 -1.0782  1.7082
  462MOL0     H62353  13.149   2.914   2.209 -3.4018  1.1502  0.0289
  462MOL0     H62354  11.369   2.795   2.332 -3.9610  0.8354  0.3651
  462MOL0     H62355  11.262   2.612   2.458  3.2366 -0.7921  1.5017
  462MOL0     H62356  10.970   2.412   2.516 -3.3762  1.1262 -1.8735
  462MOL0     H62357  10.806   2.337   2.651  4.5317  1.2386  0.5287
  462MOL0     H62358  10.581   2.253   2.706 -2.2360  0.8038  1.9742
  462MOL0     H62359  10.686   2.189   2.841 -0.0571 -3.0542  0.1461
  462MOL0     H62360  10.434   2.159   2.861 -0.1332 -1.0625  0.1465
  462MOL0     H62361  10.540   2.020   2.885 -1.6163 -2.0825 -0.0779
  462MOL0     H62362  10.462   1.910   2.705 -0.6495 -0.1312  1.2835
  462MOL0     H62363  10.446   2.039   2.595  0.0698 -3.0192 -0.8185
  462MOL0     H62364  10.231   1.954   2.619  0.9911 -0.6339 -0.1544
  462MOL0     H62365  10.241   1.960   2.801 -3.1020 -2.0060 -1.1005
  462MOL0     H62366  10.126   2.349   2.769  0.6061  0.3833 -1.5527
  462MOL0     H62367  10.834   1.945   2.482  2.6396 -0.4876  1.8947
  462MOL0     H62368  10.948   1.898   2.287 -2.1620  0.4726 -0.4404
  462MOL0     H62369  10.992   2.043   2.187  0.9706 -0.7076 -0.0692
  462MOL0     H62370  11.109   1.971   2.285  0.1655 -0.8028  0.9591
  463MOL0     O62371   2.910   3.340   9.863  0.2035  0.4367 -0.0078
  463MOL0     C62372   3.012   3.288   9.816 -0.8449 -1.0918  0.4623
  463MOL0     O62373   3.103   3.215   9.899 -0.6094 -0.2403  0.5949
  463MOL0     C62374   3.050   3.129   9.995 -0.2223 -0.1180  0.7003
  463MOL0     C62375   3.108   3.118  10.115 -0.7279  0.4724  0.0417
  463MOL0     C62376   3.064   3.020  10.208  0.8022 -0.2916 -0.1238
  463MOL0     C62377   2.952   2.936  10.188 -0.1906  0.7510  0.4637
  463MOL0     O62378   2.919   2.836  10.271  0.1760 -0.0167 -0.0306
  463MOL0     C62379   2.792   2.767  10.271  0.2284 -0.7770 -0.0447
  463MOL0     C62380   2.787   2.647  10.177  0.3667  0.3910  0.8482
  463MOL0     C62381   2.669   2.550  10.198 -0.1783  0.2179 -0.7937
  463MOL0     C62382   2.532   2.627  10.191  0.8176 -1.3342  0.4018
  463MOL0     C62383   2.416   2.538  10.204 -0.6190 -0.4414 -0.0973
  463MOL0     C62384   2.393   2.481  10.344  0.2834  0.3372 -1.2099
  463MOL0     C62385   2.269   2.393  10.382 -0.5463 -0.6513 -0.2171
  463MOL0     C62386   2.288   2.327  10.528  0.5182 -0.1467  0.9540
  463MOL0     N62387   2.186   2.231  10.559 -0.4163  0.7617 -0.6777
  463MOL0     C62388   2.165   2.194  10.689  0.5299  0.2799 -0.7648
  463MOL0     C62389   2.060   2.110  10.686 -1.0386  0.2563 -0.5563
  463MOL0     C62390   1.982   2.039  10.797 -0.0528  0.8985 -0.6565
  463MOL0     C62391   1.904   2.136  10.882 -0.2230 -0.6670 -0.1947
  463MOL0     C62392   1.804   2.229  10.811  1.1456 -0.0729 -0.3876
  463MOL0     C62393   1.737   2.323  10.913 -0.5733 -0.1528 -0.6085
  463MOL0     O62394   1.660   2.250  11.014  0.0314  0.2146 -0.1416
  463MOL0     C62395   1.602   2.336  11.102 -0.2074  0.8805 -0.6804
  463MOL0     C62396   1.597   2.474  11.108  1.0464 -1.0943 -0.2545
  463MOL0     C62397   1.523   2.536  11.215 -0.4381 -0.6935  0.4860
  463MOL0     C62398   1.452   2.467  11.312  0.3756  0.3299 -0.4232
  463MOL0     C62399   1.371   2.534  11.426  0.4200 -0.0146 -0.6059
  463MOL0     O62400   1.383   2.474  11.545  0.0800 -0.5227 -0.8225
  463MOL0     C62401   1.308   2.533  11.648  0.1779 -0.0340 -0.0944
  463MOL0     C62402   1.167   2.551  11.636 -0.6657 -0.6614 -0.7365
  463MOL0     C62403   1.094   2.606  11.741  0.1788 -1.3380 -0.3581
  463MOL0     C62404   1.155   2.667  11.853 -0.3262 -0.3972  0.5603
  463MOL0     O62405   1.075   2.738  11.937  0.4008 -0.4834  0.9921
  463MOL0     C62406   1.130   2.846  12.007 -1.0575  0.5910  0.1229
  463MOL0     C62407   1.165   2.970  11.933 -0.2559  0.1774  0.2651
  463MOL0     C62408   1.278   2.965  11.827  0.8898  0.3896  0.2519
  463MOL0     C62409   1.417   2.967  11.884 -0.8708  0.0281 -0.5387
  463MOL0     C62410   1.515   2.983  11.776 -0.0411  0.4054 -0.3507
  463MOL0     C62411   1.534   2.857  11.683 -0.0249 -1.1823  0.3562
  463MOL0     C62412   1.656   2.877  11.596 -0.0637 -1.5342 -0.2333
  463MOL0     C62413   1.675   2.758  11.503 -0.4917  0.6045  0.5302
  463MOL0    Cl62414   1.847   2.754  11.457  0.2563 -0.1936 -0.3952
  463MOL0     C62415   1.288   2.640  11.873  0.5812  0.6870  0.2913
  463MOL0     C62416   1.372   2.586  11.767  0.3940 -0.9759  0.2607
  463MOL0     O62417   1.319   2.641  11.402 -0.5440 -0.2778 -0.5316
  463MOL0     C62418   1.447   2.329  11.291  0.1817 -0.2985  0.1071
  463MOL0     C62419   1.531   2.265  11.198 -0.8945  0.8445  0.3294
  463MOL0     N62420   2.030   2.096  10.552 -0.0927 -0.1105 -0.6293
  463MOL0     N62421   2.104   2.174  10.478  0.6995  0.3923 -0.6002
  463MOL0     C62422   2.889   2.957  10.059 -0.5388 -0.2452 -0.5523
  463MOL0     C62423   2.934   3.053   9.965 -0.6922  0.1946  0.3541
  463MOL0     C62424   3.066   3.318   9.680 -0.2468 -0.4605 -0.2362
  463MOL0     C62425   3.202   3.285   9.663  0.5024 -0.8260 -0.5472
  463MOL0     C62426   3.253   3.301   9.534 -0.4370  0.4016  0.4996
  463MOL0     C62427   3.190   3.358   9.424  0.7730 -0.0744  0.4777
  463MOL0     O62428   3.256   3.386   9.310 -0.1904 -0.1741 -0.2312
  463MOL0     C62429   3.321   3.515   9.334 -0.1380 -0.7335 -0.0849
  463MOL0     C62430   3.386   3.559   9.204  0.5575  0.7157 -0.0055
  463MOL0     C62431   3.272   3.611   9.120  0.1431  0.2927  0.0200
  463MOL0     C62432   3.305   3.712   9.008 -0.3014 -0.2015  0.6362
  463MOL0     C62433   3.181   3.776   8.976 -0.3552 -0.0216 -1.2198
  463MOL0     C62434   3.077   3.823   8.935  0.6690  0.8327 -0.5088
  463MOL0     C62435   3.059   3.395   9.439  0.5672 -1.1672  0.3016
  463MOL0     C62436   2.989   3.368   9.559  0.4415 -0.3217 -0.1676
  463MOL0     C62437   2.842   3.399   9.543  0.3659 -0.7826 -0.1971
  463MOL0     H62438   3.186   3.191  10.133 -0.7563  0.6358 -0.4787
  463MOL0     H62439   3.100   3.019  10.311 -0.1649 -3.3326  0.2898
  463MOL0     H62440   2.772   2.728  10.371 -2.7288 -0.2443 -0.3356
  463MOL0     H62441   2.710   2.834  10.246 -0.1888 -1.4264 -0.4671
  463MOL0     H62442   2.882   2.593  10.180  0.6600  0.7787 -0.4966
  463MOL0     H62443   2.781   2.683  10.074 -0.2339 -1.6156  0.1288
  463MOL0     H62444   2.676   2.504  10.297  1.3927  1.2516 -0.3949
  463MOL0     H62445   2.673   2.470  10.122  1.8369  0.2535 -0.7676
  463MOL0     H62446   2.521   2.713  10.259  2.4289 -0.8255  0.0716
  463MOL0     H62447   2.525   2.675  10.093  2.4978  2.1781  1.7965
  463MOL0     H62448   2.327   2.584  10.159 -0.2519  0.0239 -0.3573
  463MOL0     H62449   2.435   2.448  10.145 -2.0911 -1.0666  0.3450
  463MOL0     H62450   2.479   2.417  10.367 -2.6066 -3.5992 -0.1946
  463MOL0     H62451   2.392   2.566  10.413 -0.7874 -1.5322  1.2140
  463MOL0     H62452   2.266   2.313  10.307  1.2427  2.2083 -3.6320
  463MOL0     H62453   2.182   2.458  10.372  0.1294 -0.0907 -3.7304
  463MOL0     H62454   2.384   2.276  10.515 -1.0775 -2.7167 -2.8386
  463MOL0     H62455   2.292   2.411  10.598  2.0630  0.0695  0.6315
  463MOL0     H62456   2.211   2.239  10.776 -0.7044  1.9084 -0.8910
  463MOL0     H62457   1.916   1.967  10.747 -3.0001  1.9285  1.5452
  463MOL0     H62458   2.045   1.984  10.867 -1.1277  0.3003 -0.1319
  463MOL0     H62459   1.847   2.083  10.959 -1.7183  1.2159  0.0605
  463MOL0     H62460   1.966   2.211  10.931 -5.3045  3.7090  0.4287
  463MOL0     H62461   1.723   2.168  10.770  0.9557  0.8561 -1.4520
  463MOL0     H62462   1.857   2.288  10.736  3.0379 -0.7115  0.3913
  463MOL0     H62463   1.672   2.399  10.868 -1.1704  1.1079  2.1679
  463MOL0     H62464   1.812   2.385  10.963 -1.9896  1.4143 -0.3054
  463MOL0     H62465   1.649   2.536  11.035  1.7963  1.8441  2.5215
  463MOL0     H62466   1.535   2.643  11.224 -4.0703 -0.2494  1.6456
  463MOL0     H62467   1.112   2.519  11.548 -2.0876 -2.2888  0.6765
  463MOL0     H62468   0.989   2.624  11.721  0.3060 -0.6003 -0.3894
  463MOL0     H62469   1.048   2.880  12.071 -0.8048 -1.7141  1.7739
  463MOL0     H62470   1.216   2.826  12.072 -1.2023 -0.5257 -0.0176
  463MOL0     H62471   1.077   3.008  11.880 -1.3042  1.7740  2.9660
  463MOL0     H62472   1.195   3.045  12.006 -1.0515  1.8130 -0.9979
  463MOL0     H62473   1.260   2.882  11.758  1.8276 -0.7758  1.3699
  463MOL0     H62474   1.262   3.059  11.772 -3.0288 -0.8908 -1.1415
  463MOL0     H62475   1.442   2.880  11.945 -2.8668 -0.1061  0.1480
  463MOL0     H62476   1.435   3.057  11.942  3.0015  0.3519 -1.9610
  463MOL0     H62477   1.609   3.015  11.821 -0.0260  0.2805 -0.2954
  463MOL0     H62478   1.486   3.072  11.719 -0.5873  1.1356  1.0357
  463MOL0     H62479   1.556   2.779  11.757 -0.6663 -0.6366  1.1423
  463MOL0     H62480   1.450   2.833  11.617  1.8240  2.5559 -3.9307
  463MOL0     H62481   1.748   2.885  11.654  2.7839  1.0247 -4.5058
  463MOL0     H62482   1.647   2.966  11.534  2.0987  0.8805  2.6426
  463MOL0     H62483   1.644   2.663  11.548 -1.0119  1.1153  1.2883
  463MOL0     H62484   1.617   2.778  11.413  0.7313 -0.5999 -0.5627
  463MOL0     H62485   1.334   2.660  11.969 -0.3514  0.5797  0.7685
  463MOL0     H62486   1.474   2.559  11.793 -0.0822 -1.5673  1.6273
  463MOL0     H62487   1.393   2.254  11.348  3.6149 -0.9390  2.8936
  463MOL0     H62488   1.518   2.158  11.185  0.7672  0.7985 -1.4309
  463MOL0     H62489   2.798   2.902  10.041 -0.3225 -1.7487  2.3389
  463MOL0     H62490   2.874   3.070   9.877 -1.3101  3.3164  1.2603
  463MOL0     H62491   3.263   3.249   9.744  1.7122  0.9134 -0.6409
  463MOL0     H62492   3.355   3.271   9.510 -0.1009  0.6331  1.5730
  463MOL0     H62493   3.396   3.509   9.413  0.1048 -0.2913 -0.2793
  463MOL0     H62494   3.244   3.582   9.372 -2.2642 -2.0864 -1.7575
  463MOL0     H62495   3.435   3.472   9.159 -1.5890 -0.6987  0.2629
  463MOL0     H62496   3.461   3.634   9.231  1.5685  1.4798 -4.2046
  463MOL0     H62497   3.188   3.656   9.175 -1.6814  0.8535 -2.9710
  463MOL0     H62498   3.238   3.516   9.078  2.8625 -0.1187 -1.4367
  463MOL0     H62499   3.383   3.778   9.045 -1.5878  2.4654 -1.0933
  463MOL0     H62500   3.335   3.661   8.916 -0.6346 -0.8383  0.8677
  463MOL0     H62501   2.987   3.865   8.895  0.3540  1.8154  1.1331
  463MOL0     H62502   3.019   3.453   9.356  1.2960 -0.5312  0.3855
  463MOL0     H62503   2.795   3.432   9.636 -0.0725 -3.5608  0.6615
  463MOL0     H62504   2.823   3.473   9.464 -1.9947 -0.7539  0.3400
  463MOL0     H62505   2.789   3.307   9.519 -0.8715  0.1587 -1.2035
  464MOL0     O62506   9.448   1.502   5.093  0.3613  0.2849  0.2253
  464MOL0     C62507   9.355   1.510   5.176 -0.2764 -0.6329 -0.0730
  464MOL0     O62508   9.233   1.460   5.160 -0.1468 -0.4390 -0.4739
  464MOL0     C62509   9.193   1.429   5.031 -0.0622 -0.0768 -0.3477
  464MOL0     C62510   9.151   1.298   5.004 -0.2853 -0.4637 -0.3422
  464MOL0     C62511   9.105   1.257   4.885 -0.0770  0.4641  0.2277
  464MOL0     C62512   9.104   1.348   4.786 -0.5064 -0.0421 -0.0921
  464MOL0     O62513   9.059   1.315   4.655  0.8079 -0.1858  0.2540
  464MOL0     C62514   8.971   1.206   4.639 -0.4207 -0.0164  0.0546
  464MOL0     C62515   8.839   1.237   4.701 -0.1228  0.2043  0.0236
  464MOL0     C62516   8.734   1.127   4.665  0.1121  0.5869 -1.0516
  464MOL0     C62517   8.707   1.129   4.509 -0.8075 -1.2772  0.2267
  464MOL0     C62518   8.584   1.039   4.490 -0.3480  0.1105  0.3056
  464MOL0     C62519   8.613   0.894   4.540 -0.2938  0.4011 -0.9524
  464MOL0     C62520   8.518   0.801   4.479  0.5921  0.2777  0.6827
  464MOL0     C62521   8.472   0.675   4.546 -0.2388  0.3308 -0.0376
  464MOL0     N62522   8.454   0.681   4.691 -0.4953  0.3515  0.4368
  464MOL0     C62523   8.328   0.664   4.726  0.3052  0.3389 -0.0389
  464MOL0     C62524   8.326   0.649   4.857 -0.1869  0.0811  0.2526
  464MOL0     C62525   8.207   0.659   4.946  0.4878 -0.3294 -0.0230
  464MOL0     C62526   8.082   0.587   4.884  0.1608  1.3387  0.0294
  464MOL0     C62527   8.111   0.434   4.861 -0.2559  0.5734 -0.0611
  464MOL0     C62528   7.989   0.363   4.825 -0.3065  0.4321 -1.1658
  464MOL0     O62529   7.893   0.380   4.929  0.2031 -0.4536  0.1245
  464MOL0     C62530   7.773   0.307   4.913  0.0887 -0.6678 -0.2979
  464MOL0     C62531   7.703   0.288   5.027  0.4646 -0.1849 -0.4147
  464MOL0     C62532   7.580   0.212   5.028  0.0616  0.7434  0.4247
  464MOL0     C62533   7.533   0.150   4.910  0.0209 -0.4289  0.8197
  464MOL0     C62534   7.404   0.077   4.901 -0.7928  0.0524 -1.0874
  464MOL0     O62535   7.357   0.053   4.774  0.4415  0.2304  0.0364
  464MOL0     C62536   7.244  -0.021   4.772 -0.6466  0.6317  0.1584
  464MOL0     C62537   7.120   0.039   4.762 -0.4960  0.1807  0.4316
  464MOL0     C62538   7.003  -0.027   4.741 -0.6319 -0.1235 -0.2909
  464MOL0     C62539   6.989  -0.160   4.748 -0.4442 -0.5109  0.8682
  464MOL0     O62540   6.857  -0.203   4.748 -0.6141 -0.4798  0.2516
  464MOL0     C62541   6.831  -0.334   4.695  0.4902 -0.0432 -0.2448
  464MOL0     C62542   6.809  -0.449   4.805  0.9153 -0.1599  0.3214
  464MOL0     C62543   6.787  -0.590   4.742 -0.4343 -0.2402  0.5938
  464MOL0     C62544   6.812  -0.714   4.827 -0.8737 -0.1489 -0.1651
  464MOL0     C62545   6.777  -0.836   4.740  0.2736 -0.0577 -0.0572
  464MOL0     C62546   6.895  -0.900   4.655  0.2561  0.4695 -0.6324
  464MOL0     C62547   6.854  -1.038   4.604 -0.3602  0.4876  0.3777
  464MOL0     C62548   6.745  -1.038   4.503  0.6970 -0.1551  0.1995
  464MOL0    Cl62549   6.797  -0.956   4.358 -0.4720  0.1846  0.2967
  464MOL0     C62550   7.110  -0.234   4.766  0.1112  0.2480  0.5915
  464MOL0     C62551   7.236  -0.164   4.773 -0.1496  0.1400 -0.0905
  464MOL0     O62552   7.352   0.052   5.011  0.2645  0.5050 -0.2606
  464MOL0     C62553   7.614   0.168   4.796  0.1627  0.0814  0.2055
  464MOL0     C62554   7.733   0.242   4.792 -0.0550  0.7078  0.4237
  464MOL0     N62555   8.460   0.645   4.894 -0.2979  0.6866 -0.4588
  464MOL0     N62556   8.545   0.665   4.789 -0.5509 -0.0359 -0.4296
  464MOL0     C62557   9.147   1.478   4.803 -0.2004 -0.4896  0.5224
  464MOL0     C62558   9.198   1.517   4.928  0.2770 -0.0972 -0.1621
  464MOL0     C62559   9.380   1.603   5.286  0.3585 -0.2638 -0.5761
  464MOL0     C62560   9.281   1.698   5.321  1.4497 -0.1199 -0.4320
  464MOL0     C62561   9.303   1.791   5.430  0.6154  0.4917  0.6808
  464MOL0     C62562   9.432   1.786   5.495  0.9223 -0.2018  0.7596
  464MOL0     O62563   9.459   1.871   5.589  0.3496  0.1537  0.9085
  464MOL0     C62564   9.413   2.006   5.580  0.6316 -0.1188 -0.2715
  464MOL0     C62565   9.479   2.101   5.482 -0.4105  0.4305 -0.3517
  464MOL0     C62566   9.614   2.159   5.527 -0.0395 -0.5847 -0.0518
  464MOL0     C62567   9.673   2.253   5.415  0.5491 -0.3709  0.2474
  464MOL0     C62568   9.786   2.326   5.471 -0.3767 -0.5295  0.2626
  464MOL0     C62569   9.889   2.386   5.518  0.1010 -0.0413  0.7460
  464MOL0     C62570   9.521   1.693   5.456  0.4194  0.0662 -0.4949
  464MOL0     C62571   9.498   1.596   5.361 -0.9579  0.4623  0.1853
  464MOL0     C62572   9.607   1.490   5.334 -0.1563  0.6054  0.1906
  464MOL0     H62573   9.141   1.226   5.085  2.2945 -2.3930 -1.6214
  464MOL0     H62574   9.091   1.150   4.870 -1.7380  1.0241 -3.4534
  464MOL0     H62575   8.957   1.191   4.531 -1.4344 -0.1749  0.1917
  464MOL0     H62576   9.009   1.115   4.685  0.2655  0.2389 -0.0016
  464MOL0     H62577   8.798   1.332   4.667 -1.7723  0.0736  1.5101
  464MOL0     H62578   8.853   1.248   4.809 -0.9231  0.9974  0.0549
  464MOL0     H62579   8.642   1.150   4.721  0.6654  0.6167 -0.1322
  464MOL0     H62580   8.767   1.029   4.700 -0.9765 -0.3921 -2.6547
  464MOL0     H62581   8.681   1.230   4.475 -0.0458 -1.7603 -1.9471
  464MOL0     H62582   8.780   1.088   4.438  0.7796  0.3688  0.8380
  464MOL0     H62583   8.488   1.071   4.531 -0.0095  0.2248  1.0431
  464MOL0     H62584   8.559   1.030   4.384  1.1334 -0.1099 -0.0558
  464MOL0     H62585   8.715   0.859   4.519 -0.0658 -0.7342  1.6108
  464MOL0     H62586   8.601   0.888   4.649  1.6278 -0.6705 -0.7501
  464MOL0     H62587   8.568   0.771   4.386  0.5249 -0.9475  1.0289
  464MOL0     H62588   8.420   0.844   4.453  0.2542 -0.4040  0.8109
  464MOL0     H62589   8.379   0.645   4.497  0.6666 -0.3310 -1.4011
  464MOL0     H62590   8.552   0.600   4.541 -0.3667  0.0781  1.3964
  464MOL0     H62591   8.246   0.678   4.656 -0.1692  0.6809  0.5713
  464MOL0     H62592   8.242   0.626   5.044  2.1277 -0.1074 -0.4913
  464MOL0     H62593   8.178   0.765   4.951  2.3302  0.2849 -1.1662
  464MOL0     H62594   7.999   0.592   4.955  1.4025 -2.6591  2.0668
  464MOL0     H62595   8.041   0.627   4.791 -1.2445  1.7273  0.7935
  464MOL0     H62596   8.159   0.397   4.952  3.3272  2.9005 -0.7921
  464MOL0     H62597   8.181   0.427   4.778  3.1861  0.2666  2.6161
  464MOL0     H62598   8.010   0.256   4.824 -0.5188  0.2665  1.7270
  464MOL0     H62599   7.958   0.382   4.722 -1.3047 -1.6534 -1.3138
  464MOL0     H62600   7.736   0.319   5.126  1.3972 -2.8612  0.2017
  464MOL0     H62601   7.510   0.191   5.108 -0.8949 -1.1073 -0.8234
  464MOL0     H62602   7.136   0.145   4.750 -0.1289 -0.0155 -1.0036
  464MOL0     H62603   6.918   0.040   4.728 -0.5451 -0.4200 -3.1677
  464MOL0     H62604   6.741  -0.325   4.633  0.9725  2.7988 -0.6563
  464MOL0     H62605   6.902  -0.367   4.619 -0.4061 -0.7784 -0.7922
  464MOL0     H62606   6.894  -0.449   4.874  2.4481  1.0137 -1.4779
  464MOL0     H62607   6.725  -0.416   4.868  1.2417 -0.4810  0.9387
  464MOL0     H62608   6.687  -0.594   4.698 -2.4951  4.5674  3.9612
  464MOL0     H62609   6.853  -0.597   4.655  1.1979  2.7214  1.4676
  464MOL0     H62610   6.755  -0.712   4.920  0.6836 -0.9645  0.8324
  464MOL0     H62611   6.916  -0.727   4.857 -0.9783 -2.5194 -0.5782
  464MOL0     H62612   6.686  -0.822   4.680  1.0579 -1.0836 -1.5736
  464MOL0     H62613   6.736  -0.897   4.821 -0.3915  2.7980  1.8808
  464MOL0     H62614   6.930  -0.841   4.569 -2.2270  1.4154 -1.0873
  464MOL0     H62615   6.979  -0.916   4.722  0.3067 -0.6988 -0.9636
  464MOL0     H62616   6.835  -1.110   4.683  1.0297 -0.1522  0.1702
  464MOL0     H62617   6.931  -1.090   4.545 -0.6159  2.0905 -1.4840
  464MOL0     H62618   6.735  -1.145   4.484  0.5966 -0.0202 -0.5036
  464MOL0     H62619   6.651  -0.994   4.540  0.8423 -1.4758  2.3551
  464MOL0     H62620   7.111  -0.343   4.764  2.1260  0.0577 -4.1562
  464MOL0     H62621   7.336  -0.207   4.772 -0.2502 -0.0971 -1.3626
  464MOL0     H62622   7.591   0.110   4.707 -2.3530  2.0026 -0.5056
  464MOL0     H62623   7.781   0.237   4.694  0.9529 -2.5665  0.9534
  464MOL0     H62624   9.166   1.549   4.723  1.7735 -0.3297  1.0723
  464MOL0     H62625   9.228   1.620   4.948  2.2512 -0.5476 -0.5484
  464MOL0     H62626   9.191   1.709   5.260 -0.4545 -2.7519  1.6536
  464MOL0     H62627   9.226   1.861   5.459 -0.5657  0.1209 -1.3190
  464MOL0     H62628   9.423   2.057   5.676 -1.3701 -1.4231  0.6950
  464MOL0     H62629   9.306   2.012   5.557  0.5111  0.5135  0.4123
  464MOL0     H62630   9.417   2.191   5.473 -1.8923 -0.5217 -0.0726
  464MOL0     H62631   9.466   2.055   5.384 -2.1471 -0.2899  0.1768
  464MOL0     H62632   9.681   2.077   5.552  1.9211  0.9538 -0.0346
  464MOL0     H62633   9.592   2.218   5.617  1.5588 -1.5242  1.0014
  464MOL0     H62634   9.692   2.187   5.329  0.1412  0.0913 -0.2063
  464MOL0     H62635   9.611   2.335   5.378 -0.6635 -1.2458  0.2872
  464MOL0     H62636   9.984   2.422   5.552  0.4381  2.3478 -2.2823
  464MOL0     H62637   9.616   1.699   5.509 -0.3884  3.2911  0.8706
  464MOL0     H62638   9.661   1.513   5.241  0.7081 -0.9994  0.2714
  464MOL0     H62639   9.668   1.486   5.425  0.9375 -1.5333 -0.5560
  464MOL0     H62640   9.557   1.396   5.312  1.5313  0.0333 -1.5009
  465MOL0     O62641   3.176  11.449   8.541  0.0360 -0.7003 -0.1763
  465MOL0     C62642   3.136  11.391   8.438  0.3475 -0.9470 -0.3984
  465MOL0     O62643   3.197  11.295   8.371 -0.5087  0.2287  0.3507
  465MOL0     C62644   3.323  11.244   8.394  0.0835  0.2021  0.1258
  465MOL0     C62645   3.361  11.138   8.309  0.4960  0.0111  0.0600
  465MOL0     C62646   3.483  11.071   8.331  0.6779  0.1578  0.0716
  465MOL0     C62647   3.561  11.094   8.448 -0.2844 -0.7848  0.4604
  465MOL0     O62648   3.659  11.016   8.503 -0.3609  0.0302 -0.3630
  465MOL0     C62649   3.727  10.929   8.417  0.0814 -0.1373  0.0869
  465MOL0     C62650   3.849  10.872   8.493 -0.0796  0.2556  1.0650
  465MOL0     C62651   3.875  10.745   8.410 -0.1110  0.1604 -0.7721
  465MOL0     C62652   3.828  10.621   8.489 -0.2224 -0.0353  0.4449
  465MOL0     C62653   3.862  10.491   8.425  0.5480  0.2445  0.0503
  465MOL0     C62654   3.769  10.375   8.464  0.5037  0.3918  0.2664
  465MOL0     C62655   3.762  10.338   8.609  0.2792 -0.0925 -0.4055
  465MOL0     C62656   3.705  10.196   8.619 -0.2874 -0.7078  0.2503
  465MOL0     N62657   3.629  10.174   8.738 -0.3306  0.0501 -0.2287
  465MOL0     C62658   3.538  10.267   8.789 -0.1806  0.1092 -0.0289
  465MOL0     C62659   3.537  10.243   8.926 -0.5503  1.0609  0.2277
  465MOL0     C62660   3.457  10.323   9.021 -0.5492 -0.6402 -0.5531
  465MOL0     C62661   3.452  10.252   9.153 -0.4713  0.9397  0.4042
  465MOL0     C62662   3.380  10.347   9.246  0.2820 -0.1428  0.4431
  465MOL0     C62663   3.374  10.285   9.388  0.2647 -0.0639  0.1272
  465MOL0     O62664   3.257  10.208   9.392  0.3674  0.8546  0.2426
  465MOL0     C62665   3.236  10.141   9.510  0.5992 -0.7450  0.8096
  465MOL0     C62666   3.104  10.156   9.559  0.3695 -1.2803 -0.2209
  465MOL0     C62667   3.063  10.096   9.679 -0.2807 -0.5415 -0.1529
  465MOL0     C62668   3.153  10.016   9.759  0.7003  0.0459  0.2944
  465MOL0     C62669   3.111   9.960   9.894  0.3679 -0.0535 -0.6619
  465MOL0     O62670   3.211   9.939   9.986  0.1858 -0.3539 -0.7507
  465MOL0     C62671   3.169   9.880  10.102 -0.7073 -0.4270 -0.1739
  465MOL0     C62672   3.201   9.938  10.225 -0.5782  0.1200 -0.5988
  465MOL0     C62673   3.163   9.869  10.345 -0.3307  0.2888 -0.1283
  465MOL0     C62674   3.119   9.738  10.339 -0.0164 -0.0116 -0.4873
  465MOL0     O62675   3.093   9.653  10.442  0.2707 -0.6310 -0.2354
  465MOL0     C62676   3.050   9.701  10.571  0.1708  0.1660 -0.1527
  465MOL0     C62677   3.162   9.714  10.671 -0.2536  0.6933  0.3420
  465MOL0     C62678   3.135   9.831  10.766 -0.1334  0.5785  0.4267
  465MOL0     C62679   3.254   9.875  10.842  0.3733  0.4536 -1.1689
  465MOL0     C62680   3.293   9.763  10.965 -0.0952 -0.0992 -0.0398
  465MOL0     C62681   3.439   9.789  11.013  0.5267 -1.2007  0.1346
  465MOL0     C62682   3.479   9.686  11.106  0.1112  0.5646 -0.2803
  465MOL0     C62683   3.572   9.717  11.225  0.1993  0.4393  1.0939
  465MOL0    Cl62684   3.718   9.817  11.159 -0.6923  0.1979  0.0832
  465MOL0     C62685   3.094   9.681  10.220 -0.1445  0.6552  0.1777
  465MOL0     C62686   3.122   9.744  10.102  0.4888 -0.6627 -0.4864
  465MOL0     O62687   2.990   9.933   9.911 -0.1451  0.2425  0.3935
  465MOL0     C62688   3.277   9.995   9.703  0.1233 -0.2138 -0.2818
  465MOL0     C62689   3.321  10.059   9.582 -0.6975 -0.3938  0.0889
  465MOL0     N62690   3.627  10.133   8.948 -0.6391 -0.8606  0.2285
  465MOL0     N62691   3.674  10.096   8.835 -0.5407  0.1245 -0.9156
  465MOL0     C62692   3.524  11.208   8.521  0.0911  0.3286 -0.2689
  465MOL0     C62693   3.413  11.287   8.490 -0.1246 -0.5044 -0.6381
  465MOL0     C62694   3.002  11.431   8.404  0.4196  0.3787  0.3063
  465MOL0     C62695   2.917  11.340   8.349  0.7883 -0.7590 -0.1945
  465MOL0     C62696   2.789  11.378   8.316 -0.3850 -0.2322  0.4047
  465MOL0     C62697   2.735  11.507   8.322  0.4328  0.0911  0.0721
  465MOL0     O62698   2.610  11.547   8.302 -0.1003 -0.4040 -0.7634
  465MOL0     C62699   2.500  11.494   8.380  0.9258 -0.6250 -0.3030
  465MOL0     C62700   2.384  11.459   8.293 -0.3531  0.8480  0.0383
  465MOL0     C62701   2.393  11.325   8.230 -0.8519  0.1851 -0.4369
  465MOL0     C62702   2.310  11.316   8.103 -0.3560  0.7252  0.6003
  465MOL0     C62703   2.320  11.183   8.054 -0.8396  0.3280 -0.3329
  465MOL0     C62704   2.329  11.061   8.030  0.1729  0.9837 -0.3980
  465MOL0     C62705   2.819  11.601   8.375 -0.9956  1.0106  0.5989
  465MOL0     C62706   2.954  11.569   8.414 -0.5676 -0.2029 -0.1982
  465MOL0     C62707   3.035  11.696   8.457 -0.2973  0.4230  0.6919
  465MOL0     H62708   3.309  11.105   8.220 -3.5215 -1.7623  2.7945
  465MOL0     H62709   3.521  10.990   8.270  0.2336 -1.0169  1.3078
  465MOL0     H62710   3.657  10.861   8.366  0.0402 -0.3919  0.4801
  465MOL0     H62711   3.779  10.989   8.342  2.0386 -2.5564 -0.6282
  465MOL0     H62712   3.833  10.858   8.600 -3.2398  1.7141  0.8699
  465MOL0     H62713   3.931  10.944   8.487 -0.5855  0.7390 -0.8571
  465MOL0     H62714   3.983  10.725   8.407 -0.3352 -1.5990  0.8872
  465MOL0     H62715   3.854  10.733   8.304  3.2727 -2.3098 -1.3407
  465MOL0     H62716   3.873  10.616   8.589 -0.2351 -1.3501  0.4043
  465MOL0     H62717   3.720  10.635   8.503 -0.1038  1.4520  0.0431
  465MOL0     H62718   3.861  10.508   8.317 -0.3097 -0.7059 -0.1070
  465MOL0     H62719   3.962  10.470   8.464  1.1850  4.2590  1.0093
  465MOL0     H62720   3.669  10.395   8.423  1.3325  3.1172 -0.5968
  465MOL0     H62721   3.820  10.288   8.421  2.4844  1.0006  1.2633
  465MOL0     H62722   3.699  10.411   8.661 -0.6243  1.4270 -3.3765
  465MOL0     H62723   3.864  10.338   8.649 -0.0049  0.2052  0.3368
  465MOL0     H62724   3.644  10.180   8.530 -0.4581  0.6488  0.1144
  465MOL0     H62725   3.796  10.136   8.624 -1.1437 -2.3020 -1.8014
  465MOL0     H62726   3.482  10.339   8.729 -1.2746  0.2259  1.0883
  465MOL0     H62727   3.519  10.413   9.031 -2.1704  0.4377  0.1554
  465MOL0     H62728   3.368  10.348   8.963  0.9406 -0.6712 -2.9874
  465MOL0     H62729   3.386  10.166   9.145 -0.6529  0.9357  1.7354
  465MOL0     H62730   3.553  10.228   9.187  0.1366 -2.5143 -3.0773
  465MOL0     H62731   3.276  10.359   9.216  0.6383 -0.4291 -0.9746
  465MOL0     H62732   3.439  10.440   9.250 -2.7200  1.8731  2.4108
  465MOL0     H62733   3.358  10.364   9.463 -2.8178 -2.6010  2.4213
  465MOL0     H62734   3.472  10.243   9.412  0.2912 -2.0818 -3.0266
  465MOL0     H62735   3.032  10.219   9.507  3.1712  1.9694 -0.5872
  465MOL0     H62736   2.965  10.118   9.720  0.4224  0.8359  0.8520
  465MOL0     H62737   3.234  10.040  10.237 -0.1079 -0.1800  0.7998
  465MOL0     H62738   3.182   9.941  10.424 -0.5487  0.6319 -0.3836
  465MOL0     H62739   2.998   9.795  10.550 -1.6545 -0.4637  1.3196
  465MOL0     H62740   2.982   9.625  10.610  3.1887 -3.7073 -1.6807
  465MOL0     H62741   3.183   9.622  10.725 -3.7130  0.3678  1.3457
  465MOL0     H62742   3.250   9.730  10.608 -0.8538  3.9668  0.1083
  465MOL0     H62743   3.104   9.917  10.706 -2.2539 -0.8652 -0.6921
  465MOL0     H62744   3.057   9.791  10.831  0.2275 -2.8680 -1.0171
  465MOL0     H62745   3.229   9.975  10.878 -1.9033  0.2533 -2.0516
  465MOL0     H62746   3.334   9.872  10.768  3.2288  2.2020  1.5814
  465MOL0     H62747   3.283   9.666  10.916 -0.9186 -0.4689  0.8455
  465MOL0     H62748   3.230   9.762  11.055  1.6032  0.9187  1.2399
  465MOL0     H62749   3.514   9.800  10.935  1.0596  0.5309  0.8540
  465MOL0     H62750   3.449   9.884  11.067  0.3893  0.8606 -3.2090
  465MOL0     H62751   3.515   9.600  11.049 -3.1441 -1.7967  0.8855
  465MOL0     H62752   3.393   9.642  11.159  2.4540 -0.3848  3.1222
  465MOL0     H62753   3.527   9.788  11.296  2.1546  3.1302 -0.2008
  465MOL0     H62754   3.594   9.619  11.269 -1.2449 -0.9467 -1.0579
  465MOL0     H62755   3.063   9.577  10.227 -0.7591  0.8659  0.6487
  465MOL0     H62756   3.096   9.698  10.007 -2.5684 -1.1371  0.4734
  465MOL0     H62757   3.358   9.960   9.766 -2.6439 -2.4766  2.3326
  465MOL0     H62758   3.423  10.048   9.544 -1.3672  0.7510 -2.2181
  465MOL0     H62759   3.590  11.245   8.598 -0.6882 -2.0100  1.6904
  465MOL0     H62760   3.393  11.370   8.557  1.1497 -0.6835 -0.0032
  465MOL0     H62761   2.939  11.234   8.337  2.0129 -0.4855 -0.5608
  465MOL0     H62762   2.724  11.294   8.295  1.3258 -1.4308 -0.3261
  465MOL0     H62763   2.467  11.576   8.444 -0.4216  0.5761 -2.4033
  465MOL0     H62764   2.523  11.405   8.440 -4.0521 -0.0229  3.1386
  465MOL0     H62765   2.368  11.531   8.212  0.1889 -0.5489 -1.3786
  465MOL0     H62766   2.289  11.453   8.346 -1.7241  3.2007 -1.9233
  465MOL0     H62767   2.361  11.269   8.317 -1.8139  1.4682  0.0729
  465MOL0     H62768   2.494  11.306   8.192 -1.0730  2.0215 -2.1306
  465MOL0     H62769   2.205  11.345   8.109 -1.1302 -1.5841 -0.6345
  465MOL0     H62770   2.347  11.386   8.027 -2.3303  0.0689 -1.0346
  465MOL0     H62771   2.345  10.957   8.009 -1.7317  0.6295 -0.3110
  465MOL0     H62772   2.786  11.701   8.353 -4.1772 -0.2589 -0.9729
  465MOL0     H62773   3.099  11.729   8.375  1.1596 -2.4316  0.5798
  465MOL0     H62774   2.963  11.777   8.475  0.1632  0.7661  1.0098
  465MOL0     H62775   3.101  11.676   8.542  2.8159 -3.5817 -2.3028
  466MOL0     O62776   8.793   5.957  10.386  0.0135  0.1854 -0.1538
  466MOL0     C62777   8.897   5.983  10.326  0.3589  0.3942 -1.1644
  466MOL0     O62778   8.945   6.107  10.308  0.2390 -0.4033  0.9045
  466MOL0     C62779   8.874   6.213  10.339  0.4789  0.0817 -0.3500
  466MOL0     C62780   8.935   6.310  10.409 -1.4953 -0.7190 -0.7056
  466MOL0     C62781   8.868   6.423  10.447 -0.6364 -0.7088  0.3454
  466MOL0     C62782   8.731   6.423  10.430 -0.1302 -0.1698  0.5417
  466MOL0     O62783   8.663   6.522  10.494 -0.1164  0.2183  0.0807
  466MOL0     C62784   8.556   6.471  10.585  0.2743 -0.0633  0.9105
  466MOL0     C62785   8.472   6.604  10.607 -0.6835  0.1946 -0.2009
  466MOL0     C62786   8.335   6.563  10.664  0.0849  0.0100  0.3899
  466MOL0     C62787   8.252   6.700  10.656  0.4489  0.2109  0.1076
  466MOL0     C62788   8.132   6.710  10.756 -0.3949 -0.7328  0.8107
  466MOL0     C62789   8.066   6.853  10.772  0.1540 -0.2874  0.3560
  466MOL0     C62790   8.160   6.951  10.837  0.2831  0.1841  0.3041
  466MOL0     C62791   8.161   6.914  10.984  0.2375  0.3581  0.2069
  466MOL0     N62792   8.214   7.015  11.069  0.2148  0.0791  0.8308
  466MOL0     C62793   8.338   7.061  11.060  0.2330 -0.2814 -0.0273
  466MOL0     C62794   8.329   7.175  11.130 -0.7470  0.5779 -0.4504
  466MOL0     C62795   8.451   7.263  11.150  0.5073 -0.0476  0.0240
  466MOL0     C62796   8.542   7.231  11.269  0.0276  0.4583 -0.0427
  466MOL0     C62797   8.616   7.098  11.235  0.3642 -0.7156 -0.1122
  466MOL0     C62798   8.731   7.069  11.322 -1.3890  0.0887  0.4948
  466MOL0     O62799   8.802   6.957  11.256  0.5989  0.2613 -0.6216
  466MOL0     C62800   8.929   6.970  11.202  0.3634 -0.4340 -0.4785
  466MOL0     C62801   9.008   6.862  11.180  0.9233  0.0094  0.4053
  466MOL0     C62802   9.133   6.877  11.120 -0.3982  0.1047 -0.2382
  466MOL0     C62803   9.175   7.000  11.072  0.9648 -0.4128 -0.1699
  466MOL0     C62804   9.308   7.015  11.001  0.3377  0.7780  0.4780
  466MOL0     O62805   9.361   7.146  10.974  0.6711 -0.0520  0.4263
  466MOL0     C62806   9.493   7.148  10.942 -0.3137  0.2358  0.4946
  466MOL0     C62807   9.591   7.074  11.007  0.2557  1.3243  0.1920
  466MOL0     C62808   9.721   7.068  10.960  0.3541  0.7602 -0.8424
  466MOL0     C62809   9.759   7.156  10.859 -0.1591 -0.1674 -0.0469
  466MOL0     O62810   9.885   7.159  10.805 -0.1901  0.0046 -0.2036
  466MOL0     C62811   9.998   7.087  10.865  0.7619  0.0673 -0.5207
  466MOL0     C62812  10.131   7.141  10.816  0.4643  0.5711 -0.7598
  466MOL0     C62813  10.246   7.098  10.905 -0.3212  0.4506 -0.3398
  466MOL0     C62814  10.377   7.171  10.861  0.1401 -0.1802  0.0235
  466MOL0     C62815  10.502   7.086  10.906  0.2418 -0.0843  0.3003
  466MOL0     C62816  10.518   6.956  10.829  0.3541 -0.2022  0.6418
  466MOL0     C62817  10.623   6.981  10.720 -0.1152  0.7243 -0.3650
  466MOL0     C62818  10.645   6.862  10.628  0.0629 -0.4497 -0.4120
  466MOL0    Cl62819  10.691   6.709  10.717 -0.0868  0.1636  0.1658
  466MOL0     C62820   9.664   7.241  10.795 -0.6787 -1.1101 -0.3540
  466MOL0     C62821   9.532   7.227  10.834 -0.0527 -0.2805  0.9867
  466MOL0     O62822   9.363   6.908  10.965 -0.1769  0.2108  0.5366
  466MOL0     C62823   9.080   7.104  11.075 -0.5314  0.2741 -0.3396
  466MOL0     C62824   8.970   7.095  11.150  0.3779  0.7397  0.2687
  466MOL0     N62825   8.206   7.192  11.187  0.1376  0.6784  0.2456
  466MOL0     N62826   8.137   7.095  11.142 -0.0950  0.2949 -0.4400
  466MOL0     C62827   8.667   6.333  10.338 -0.3216  0.0733  0.2878
  466MOL0     C62828   8.746   6.230  10.295  0.3406  0.1445  0.4498
  466MOL0     C62829   8.986   5.872  10.294 -0.0463  0.3709  0.5202
  466MOL0     C62830   9.100   5.908  10.222  0.7216  0.1501 -0.6238
  466MOL0     C62831   9.196   5.816  10.187 -0.4114  0.0483 -0.1774
  466MOL0     C62832   9.184   5.679  10.212 -0.1866 -0.1793 -0.0075
  466MOL0     O62833   9.276   5.590  10.180  0.0539  0.2775 -0.1708
  466MOL0     C62834   9.423   5.617  10.179  0.1887 -0.1553 -0.0606
  466MOL0     C62835   9.500   5.571  10.047 -1.0445  0.4145  0.1346
  466MOL0     C62836   9.529   5.421  10.033 -0.2881 -0.4991 -0.4365
  466MOL0     C62837   9.657   5.385  10.115 -0.1097 -0.1223  0.1938
  466MOL0     C62838   9.710   5.256  10.073 -0.4925  0.0479  0.2257
  466MOL0     C62839   9.758   5.145  10.053 -0.3591 -0.2930 -1.2450
  466MOL0     C62840   9.073   5.639  10.288 -0.5913  0.3188  0.3235
  466MOL0     C62841   8.977   5.727  10.335  0.0841 -0.3722 -0.3594
  466MOL0     C62842   8.874   5.678  10.427  0.8767  0.0521  0.0298
  466MOL0     H62843   9.037   6.287  10.437 -1.8194  0.2688  1.5455
  466MOL0     H62844   8.920   6.502  10.501 -0.6073  1.2831 -2.4084
  466MOL0     H62845   8.489   6.396  10.542 -0.6220  0.9750  0.4290
  466MOL0     H62846   8.594   6.441  10.683 -1.1376  1.0565  1.8405
  466MOL0     H62847   8.448   6.657  10.514 -1.9141 -1.6415 -0.9878
  466MOL0     H62848   8.531   6.668  10.674 -0.8928 -0.7651  0.9182
  466MOL0     H62849   8.346   6.534  10.768 -0.5456  1.0230  0.7562
  466MOL0     H62850   8.289   6.484  10.605  0.4203  0.6919 -0.8413
  466MOL0     H62851   8.323   6.780  10.680 -0.7561  1.2037  0.4654
  466MOL0     H62852   8.218   6.712  10.553 -5.3824 -2.2093  1.3254
  466MOL0     H62853   8.049   6.645  10.728  1.1177 -3.1503  1.6715
  466MOL0     H62854   8.155   6.678  10.858 -0.6940  0.7286  1.3616
  466MOL0     H62855   8.036   6.882  10.671 -0.5464  0.7531  0.8471
  466MOL0     H62856   7.972   6.855  10.827 -1.0446  2.5951 -1.5227
  466MOL0     H62857   8.122   7.053  10.824 -0.7864  0.0474  1.9722
  466MOL0     H62858   8.261   6.949  10.797  1.3806  2.5938  2.6147
  466MOL0     H62859   8.060   6.908  11.027  0.1661 -0.8096 -0.0831
  466MOL0     H62860   8.214   6.819  10.997  2.1321  1.4540  0.8153
  466MOL0     H62861   8.428   7.014  11.022  1.0086  0.7768  0.4480
  466MOL0     H62862   8.507   7.256  11.056  0.4123 -0.2640 -0.0177
  466MOL0     H62863   8.405   7.361  11.165 -2.1055 -1.0784 -0.6369
  466MOL0     H62864   8.608   7.317  11.283  0.2419  0.2259  0.3592
  466MOL0     H62865   8.491   7.216  11.364 -1.1115  1.0026 -0.5459
  466MOL0     H62866   8.649   7.108  11.131 -0.1091 -1.5262 -0.3483
  466MOL0     H62867   8.540   7.019  11.241 -0.1673 -0.6234 -3.2955
  466MOL0     H62868   8.691   7.036  11.418 -0.3265 -3.0857 -0.0219
  466MOL0     H62869   8.792   7.158  11.340 -1.3934 -0.1963  2.0591
  466MOL0     H62870   8.966   6.767  11.212  1.4597  0.0829  1.3563
  466MOL0     H62871   9.204   6.797  11.108 -0.0415  0.0904  1.6960
  466MOL0     H62872   9.567   6.996  11.078 -1.0537  0.9674 -0.6141
  466MOL0     H62873   9.795   7.008  11.014 -0.6358 -0.9930 -1.3375
  466MOL0     H62874   9.994   7.107  10.973  0.8730  1.2907 -0.7216
  466MOL0     H62875   9.992   6.979  10.848  0.1863 -0.3171  1.7945
  466MOL0     H62876  10.139   7.094  10.718 -0.8262 -1.7641  0.1616
  466MOL0     H62877  10.136   7.250  10.815 -0.7435  0.6392 -1.1031
  466MOL0     H62878  10.216   7.119  11.008  0.5253 -1.3954  0.3259
  466MOL0     H62879  10.256   6.990  10.911  1.2098  0.4870 -1.5929
  466MOL0     H62880  10.366   7.267  10.912 -0.7536  0.0018 -0.4902
  466MOL0     H62881  10.379   7.197  10.755 -2.3944 -3.4923 -1.0149
  466MOL0     H62882  10.490   7.069  11.014  0.8263  0.3222  0.4353
  466MOL0     H62883  10.589   7.152  10.908  2.0634 -2.3782  0.2108
  466MOL0     H62884  10.551   6.871  10.890  1.8264 -0.9661 -1.1219
  466MOL0     H62885  10.424   6.930  10.781  2.3099  1.9057 -5.2734
  466MOL0     H62886  10.721   6.991  10.767  0.2174 -0.6481 -0.7428
  466MOL0     H62887  10.607   7.079  10.673  1.8611  0.8787 -0.7715
  466MOL0     H62888  10.554   6.840  10.572  0.0773  1.0862 -1.0999
  466MOL0     H62889  10.728   6.886  10.560 -0.3401 -0.9280 -1.0838
  466MOL0     H62890   9.698   7.298  10.709 -1.7319 -0.7005 -0.5143
  466MOL0     H62891   9.446   7.272  10.784  0.3342  1.8243  2.0924
  466MOL0     H62892   9.103   7.203  11.038 -1.2559  0.5965  0.0766
  466MOL0     H62893   8.908   7.183  11.137  0.7346  0.6100 -3.4766
  466MOL0     H62894   8.563   6.341  10.307 -0.6234  1.1336  1.4706
  466MOL0     H62895   8.694   6.163  10.227 -0.4918 -0.0379  1.2513
  466MOL0     H62896   9.105   6.006  10.177  1.1438 -0.7084 -2.5552
  466MOL0     H62897   9.269   5.865  10.124 -0.1946 -1.7756 -1.4293
  466MOL0     H62898   9.459   5.576  10.274 -3.6272  1.1260  2.1361
  466MOL0     H62899   9.445   5.724  10.179  1.6381 -0.4196  0.6968
  466MOL0     H62900   9.600   5.615  10.040 -0.9212  0.1306  0.0955
  466MOL0     H62901   9.456   5.621   9.960  3.4430  3.1978 -0.8867
  466MOL0     H62902   9.558   5.405   9.929  3.4721  2.3580 -0.0524
  466MOL0     H62903   9.446   5.362  10.073 -1.1990  1.3893  0.6067
  466MOL0     H62904   9.738   5.457  10.104  0.5762 -0.1377  3.7626
  466MOL0     H62905   9.645   5.383  10.224  1.3032 -0.4428  0.3574
  466MOL0     H62906   9.790   5.044  10.034  1.6075 -0.1978  1.1055
  466MOL0     H62907   9.067   5.534  10.316 -1.1913  0.7751  2.0489
  466MOL0     H62908   8.880   5.720  10.528 -2.2755  0.2081  0.2518
  466MOL0     H62909   8.775   5.689  10.382  0.3696 -3.4661  0.0639
  466MOL0     H62910   8.879   5.572  10.454 -6.5470 -0.8454 -0.1828
  467MOL0     O62911  11.458   0.278   5.312 -0.7443  0.2138  0.5455
  467MOL0     C62912  11.466   0.205   5.414 -0.1652 -0.4993  0.2203
  467MOL0     O62913  11.530   0.078   5.411  0.6183 -0.2856 -0.1718
  467MOL0     C62914  11.550   0.014   5.289 -0.2121  0.0395 -0.3831
  467MOL0     C62915  11.677   0.029   5.236 -0.2329  0.1021  0.8451
  467MOL0     C62916  11.723  -0.050   5.127  0.3244 -0.0287  0.2936
  467MOL0     C62917  11.633  -0.142   5.062 -0.3065  0.0400  0.5121
  467MOL0     O62918  11.671  -0.218   4.956 -0.1818  0.2105  0.3406
  467MOL0     C62919  11.589  -0.335   4.916 -0.2275  0.5832 -0.1454
  467MOL0     C62920  11.495  -0.318   4.796 -0.0029 -0.6392 -0.2788
  467MOL0     C62921  11.574  -0.291   4.666 -0.0737  0.4279 -0.5647
  467MOL0     C62922  11.477  -0.286   4.547  0.5703  0.3419 -0.7140
  467MOL0     C62923  11.441  -0.433   4.504 -0.1290 -0.5522  0.8094
  467MOL0     C62924  11.494  -0.479   4.363 -0.9569  0.6657  0.1152
  467MOL0     C62925  11.443  -0.386   4.245 -0.0815 -0.8518 -0.3292
  467MOL0     C62926  11.523  -0.413   4.110  0.1718  0.0036 -0.7974
  467MOL0     N62927  11.470  -0.332   4.006  0.1962  0.0692  0.2179
  467MOL0     C62928  11.460  -0.376   3.876  0.1309  0.2470 -0.2318
  467MOL0     C62929  11.371  -0.295   3.812 -0.3620 -0.5751 -0.3319
  467MOL0     C62930  11.317  -0.308   3.670  0.8085 -0.3957  0.0070
  467MOL0     C62931  11.431  -0.329   3.569  0.2056 -0.2227  0.0878
  467MOL0     C62932  11.519  -0.199   3.570 -0.7552  0.3587 -0.5587
  467MOL0     C62933  11.645  -0.210   3.490  0.5710 -0.3747  0.1672
  467MOL0     O62934  11.609  -0.253   3.357 -0.3775 -0.3464 -0.6573
  467MOL0     C62935  11.689  -0.225   3.253 -1.0353  0.9225 -0.9047
  467MOL0     C62936  11.833  -0.226   3.265  1.0926 -0.0310 -0.5207
  467MOL0     C62937  11.908  -0.201   3.153 -0.1508 -0.4284 -0.6558
  467MOL0     C62938  11.849  -0.170   3.032 -0.4725  0.7519 -0.2450
  467MOL0     C62939  11.933  -0.140   2.912 -0.4747  0.5843 -0.5850
  467MOL0     O62940  12.068  -0.110   2.946  0.7130  0.2218 -0.1289
  467MOL0     C62941  12.147  -0.059   2.846 -0.6035  0.8903 -0.2261
  467MOL0     C62942  12.220  -0.130   2.759  0.5467  0.9146  0.3814
  467MOL0     C62943  12.285  -0.065   2.656 -0.7163  0.2161  0.0916
  467MOL0     C62944  12.286   0.080   2.651  0.0329  0.2670 -0.7479
  467MOL0     O62945  12.330   0.155   2.552  0.1247 -0.3478  0.0226
  467MOL0     C62946  12.413   0.089   2.453 -0.2522  0.7503 -1.7853
  467MOL0     C62947  12.462   0.184   2.339 -0.3130  0.1550 -1.0328
  467MOL0     C62948  12.587   0.125   2.260  0.4296 -0.5810  0.4406
  467MOL0     C62949  12.624   0.204   2.129 -0.5287 -0.3042  0.2709
  467MOL0     C62950  12.509   0.224   2.026 -0.6628 -0.3633 -0.6042
  467MOL0     C62951  12.560   0.254   1.888 -0.3735  0.0362  0.0289
  467MOL0     C62952  12.457   0.235   1.774  0.7433  0.4417 -0.3123
  467MOL0     C62953  12.505   0.279   1.636  0.7575  0.1250  0.0833
  467MOL0    Cl62954  12.687   0.258   1.606  0.1192 -0.4439 -0.2515
  467MOL0     C62955  12.226   0.149   2.757 -0.8086  0.1219 -0.0574
  467MOL0     C62956  12.146   0.079   2.846  0.9959  0.9817 -0.7167
  467MOL0     O62957  11.884  -0.142   2.801 -0.3635  0.4066  0.2602
  467MOL0     C62958  11.710  -0.183   3.016 -0.2580  0.6409  0.1397
  467MOL0     C62959  11.634  -0.211   3.128  0.7195  0.0586  0.5756
  467MOL0     N62960  11.343  -0.193   3.906  0.0769 -0.3971  0.1297
  467MOL0     N62961  11.388  -0.225   4.020 -0.2602 -0.3495 -0.4225
  467MOL0     C62962  11.504  -0.149   5.114 -0.2305 -0.2503  0.1712
  467MOL0     C62963  11.461  -0.070   5.218  0.9189 -0.1776  0.4731
  467MOL0     C62964  11.422   0.235   5.556 -0.4679 -0.8951  0.1474
  467MOL0     C62965  11.402   0.121   5.641 -0.0740  0.6171  0.4074
  467MOL0     C62966  11.348   0.140   5.766  0.0348 -0.8435  0.5904
  467MOL0     C62967  11.303   0.266   5.808 -1.0706  0.3347  0.4802
  467MOL0     O62968  11.235   0.282   5.927  0.0786 -0.6126  0.0692
  467MOL0     C62969  11.312   0.344   6.031  0.0212 -0.0149  0.2788
  467MOL0     C62970  11.232   0.348   6.156 -0.0008  0.3291  0.3009
  467MOL0     C62971  11.262   0.470   6.235  0.4001 -0.3994 -0.5663
  467MOL0     C62972  11.190   0.482   6.372 -0.7359  0.9703 -0.8212
  467MOL0     C62973  11.216   0.365   6.459 -0.5031 -0.1235 -0.3922
  467MOL0     C62974  11.235   0.270   6.538  0.0137  0.3309 -0.0730
  467MOL0     C62975  11.329   0.378   5.731  0.7427 -0.4233  1.1387
  467MOL0     C62976  11.391   0.369   5.602  0.0699 -0.2412 -0.8467
  467MOL0     C62977  11.416   0.496   5.513  0.3751  0.4912  0.1260
  467MOL0     H62978  11.749   0.084   5.296  1.3833 -0.3487 -0.5817
  467MOL0     H62979  11.824  -0.042   5.089  0.0583  0.2152 -0.3871
  467MOL0     H62980  11.668  -0.410   4.899 -1.0126  0.2583 -2.7164
  467MOL0     H62981  11.534  -0.382   4.998 -1.2362  0.9761 -0.5870
  467MOL0     H62982  11.430  -0.231   4.810  0.8762 -0.1533  0.9088
  467MOL0     H62983  11.426  -0.401   4.780 -1.0060  0.2615 -0.7973
  467MOL0     H62984  11.648  -0.370   4.651 -2.2463 -1.6874 -0.6364
  467MOL0     H62985  11.627  -0.196   4.679 -1.6606  1.4759 -1.4631
  467MOL0     H62986  11.380  -0.236   4.561  0.2166  0.7198 -3.7646
  467MOL0     H62987  11.521  -0.233   4.462 -0.9806 -1.1975 -2.5959
  467MOL0     H62988  11.479  -0.512   4.569  1.8807 -2.0502 -2.0058
  467MOL0     H62989  11.333  -0.446   4.493  0.0466 -1.1802 -0.3626
  467MOL0     H62990  11.603  -0.468   4.365 -0.6198 -0.8676 -3.1140
  467MOL0     H62991  11.469  -0.585   4.349  0.6207  0.3663 -0.6079
  467MOL0     H62992  11.457  -0.280   4.268 -1.0855 -0.9146  0.6762
  467MOL0     H62993  11.338  -0.410   4.229 -0.0722 -1.3551  0.2947
  467MOL0     H62994  11.627  -0.383   4.128  2.1339 -3.5250 -4.5542
  467MOL0     H62995  11.527  -0.514   4.069 -0.1908  0.3010 -1.5888
  467MOL0     H62996  11.503  -0.466   3.832 -1.7707  0.0787 -1.8816
  467MOL0     H62997  11.243  -0.389   3.658 -0.2863  0.6747 -0.7237
  467MOL0     H62998  11.269  -0.213   3.645 -1.9551 -0.8610  2.8369
  467MOL0     H62999  11.487  -0.418   3.600 -0.8781  0.1512  3.4171
  467MOL0     H63000  11.386  -0.350   3.471 -0.2793  1.2881 -0.0430
  467MOL0     H63001  11.548  -0.170   3.671 -1.1529 -1.7548  0.2118
  467MOL0     H63002  11.466  -0.114   3.525  1.4976  1.9196 -0.4071
  467MOL0     H63003  11.714  -0.277   3.541  0.2536 -0.4182  0.5418
  467MOL0     H63004  11.692  -0.111   3.484  1.3775 -0.8175 -1.7909
  467MOL0     H63005  11.896  -0.248   3.351  0.7768  2.0366  0.3116
  467MOL0     H63006  12.014  -0.222   3.146 -0.2525 -0.7034 -1.4633
  467MOL0     H63007  12.212  -0.239   2.765 -2.9149  0.8849 -1.7518
  467MOL0     H63008  12.330  -0.125   2.578  2.4418  2.9365 -0.4212
  467MOL0     H63009  12.502   0.045   2.498  0.4074  3.2337 -0.4875
  467MOL0     H63010  12.358   0.005   2.410 -0.1740  0.7550 -1.8967
  467MOL0     H63011  12.384   0.220   2.272  0.5738  0.2577 -2.0357
  467MOL0     H63012  12.495   0.278   2.386  2.7086 -0.6659 -1.3240
  467MOL0     H63013  12.678   0.128   2.321 -1.3596 -3.0524  3.5559
  467MOL0     H63014  12.560   0.021   2.243  0.2439 -0.7405  1.5965
  467MOL0     H63015  12.696   0.144   2.073  0.0231 -0.9669  1.6473
  467MOL0     H63016  12.653   0.307   2.150  1.7852 -1.0483  1.0813
  467MOL0     H63017  12.443   0.309   2.048  2.1457  1.6710  0.6649
  467MOL0     H63018  12.449   0.134   2.011  1.7247 -2.1997  0.0710
  467MOL0     H63019  12.608   0.351   1.869 -1.4218  0.9363  1.7913
  467MOL0     H63020  12.642   0.183   1.875 -1.2959 -1.2481  1.0139
  467MOL0     H63021  12.356   0.271   1.798  0.5123 -0.5693  0.2568
  467MOL0     H63022  12.454   0.126   1.767 -0.6382  0.3551  1.0498
  467MOL0     H63023  12.444   0.236   1.555  1.2376  1.4469 -1.0187
  467MOL0     H63024  12.492   0.386   1.650 -1.4455 -0.3295  2.0092
  467MOL0     H63025  12.229   0.257   2.762 -0.6758  0.2090 -1.5405
  467MOL0     H63026  12.106   0.142   2.925  0.3472 -0.0410 -0.2171
  467MOL0     H63027  11.668  -0.167   2.917 -1.9664  0.4673  0.8077
  467MOL0     H63028  11.527  -0.218   3.108  1.2450 -0.3963 -2.6278
  467MOL0     H63029  11.430  -0.215   5.071  0.9046 -2.0943  0.9311
  467MOL0     H63030  11.361  -0.090   5.257  0.3074  3.6100  1.1959
  467MOL0     H63031  11.411   0.018   5.608 -0.0197  0.8807 -0.4434
  467MOL0     H63032  11.316   0.067   5.840 -0.8952  0.8884  1.9455
  467MOL0     H63033  11.335   0.448   6.002  0.9926 -0.3237 -0.1068
  467MOL0     H63034  11.410   0.297   6.048 -0.2995 -0.5016  0.7850
  467MOL0     H63035  11.253   0.254   6.208 -0.5449 -1.2489 -2.1675
  467MOL0     H63036  11.125   0.350   6.135  0.1652 -2.4193 -1.1736
  467MOL0     H63037  11.240   0.562   6.181  0.7943  1.8890  2.8763
  467MOL0     H63038  11.369   0.476   6.258  0.0809  4.6255  0.6908
  467MOL0     H63039  11.245   0.564   6.419  0.9975 -0.4789 -0.1845
  467MOL0     H63040  11.085   0.505   6.350 -1.2458 -0.3692  0.0699
  467MOL0     H63041  11.237   0.201   6.620  1.0366  1.4231  0.8661
  467MOL0     H63042  11.308   0.476   5.772  0.1016  0.3202 -0.8198
  467MOL0     H63043  11.427   0.584   5.577  2.4590  0.7167 -0.4594
  467MOL0     H63044  11.500   0.479   5.444  0.8742 -0.6868  1.0018
  467MOL0     H63045  11.325   0.506   5.453 -0.2017 -1.7198  0.5551
  468MOL0     O63046   2.029   3.834  10.941  0.1121  0.5818  0.0090
  468MOL0     C63047   1.948   3.761  10.873  0.4071  0.4752  0.2545
  468MOL0     O63048   1.961   3.618  10.844  0.0573 -0.1689 -0.4378
  468MOL0     C63049   2.044   3.539  10.922  0.2986  0.3574 -0.6248
  468MOL0     C63050   2.076   3.570  11.053  0.7586 -0.4344 -0.8540
  468MOL0     C63051   2.165   3.494  11.132 -0.4953 -1.1244 -0.1941
  468MOL0     C63052   2.211   3.371  11.067  1.0928 -0.6831 -0.5037
  468MOL0     O63053   2.276   3.266  11.132  0.1973 -0.1333 -0.3495
  468MOL0     C63054   2.382   3.301  11.228  0.2123  0.4462 -0.3218
  468MOL0     C63055   2.517   3.243  11.208  1.0397  0.5912 -0.3458
  468MOL0     C63056   2.573   3.310  11.077  0.3212 -0.1743 -0.4746
  468MOL0     C63057   2.711   3.250  11.041  1.5822 -0.0680  0.0174
  468MOL0     C63058   2.703   3.092  11.027 -1.2629 -1.5612 -0.0364
  468MOL0     C63059   2.588   3.047  10.928 -0.9148 -0.1056 -0.2996
  468MOL0     C63060   2.601   2.896  10.894  0.0704 -0.0462 -0.3873
  468MOL0     C63061   2.475   2.861  10.820  0.4840 -0.0959  0.4789
  468MOL0     N63062   2.484   2.719  10.793  0.0081 -0.1984  0.8121
  468MOL0     C63063   2.584   2.647  10.722  0.3978 -0.2165  0.1161
  468MOL0     C63064   2.577   2.520  10.771 -0.0628  0.2387  0.2713
  468MOL0     C63065   2.666   2.399  10.742  0.0428  0.4477  0.8164
  468MOL0     C63066   2.702   2.413  10.595 -0.2532  1.2571 -0.3209
  468MOL0     C63067   2.798   2.293  10.553  1.0218 -0.0474 -0.5130
  468MOL0     C63068   2.746   2.152  10.550  0.4783  0.4494 -0.6450
  468MOL0     O63069   2.615   2.133  10.488  0.2582  0.0538 -0.7071
  468MOL0     C63070   2.593   2.117  10.355 -0.2107 -0.0324  0.5206
  468MOL0     C63071   2.671   2.177  10.255 -0.4877  0.0615 -0.4950
  468MOL0     C63072   2.632   2.156  10.126  0.3114 -0.5780  1.2466
  468MOL0     C63073   2.535   2.072  10.079  0.5121 -0.3032  0.3010
  468MOL0     C63074   2.521   2.039   9.935  0.4490 -0.1263 -0.2057
  468MOL0     O63075   2.606   2.095   9.846  0.4031 -0.2458  0.1935
  468MOL0     C63076   2.590   2.074   9.712 -0.7265  0.0571 -0.1136
  468MOL0     C63077   2.558   2.184   9.628  0.4335 -0.1864  0.1376
  468MOL0     C63078   2.539   2.171   9.487  0.0991  0.1434 -0.5957
  468MOL0     C63079   2.548   2.037   9.432  0.5403  0.8573 -0.2215
  468MOL0     O63080   2.534   2.014   9.295  0.1500 -0.0826  0.0973
  468MOL0     C63081   2.444   1.911   9.253  1.2647 -0.9510 -0.4204
  468MOL0     C63082   2.384   1.912   9.113 -0.0447 -0.4913  0.1727
  468MOL0     C63083   2.259   1.818   9.109  0.3801  0.2961 -0.5656
  468MOL0     C63084   2.169   1.858   8.996  0.0958  0.0494 -0.4441
  468MOL0     C63085   2.061   1.755   8.956  0.1368 -0.4201 -1.1544
  468MOL0     C63086   1.969   1.821   8.859  0.5095 -0.2424 -0.9908
  468MOL0     C63087   1.844   1.747   8.815 -0.3178  0.4305  0.2228
  468MOL0     C63088   1.754   1.833   8.722  0.4415  0.5423  0.7775
  468MOL0    Cl63089   1.838   1.895   8.569  0.0366 -0.2652 -0.1985
  468MOL0     C63090   2.588   1.926   9.514  0.1772 -0.2493  0.5456
  468MOL0     C63091   2.603   1.952   9.653 -0.2219  0.1835  0.8717
  468MOL0     O63092   2.428   1.957   9.904 -1.1614 -0.6284 -0.5748
  468MOL0     C63093   2.445   2.026  10.189  0.4997 -1.0317 -0.3476
  468MOL0     C63094   2.468   2.058  10.321  0.5124  0.4963 -0.7362
  468MOL0     N63095   2.474   2.521  10.866 -0.0929  0.7122 -0.5205
  468MOL0     N63096   2.417   2.633  10.873  0.1477  0.5384  0.4190
  468MOL0     C63097   2.178   3.339  10.938  0.4854 -0.0486 -0.6818
  468MOL0     C63098   2.096   3.421  10.864  0.7264 -0.2470  0.3628
  468MOL0     C63099   1.850   3.841  10.786 -0.2105  0.2344  0.2528
  468MOL0     C63100   1.793   3.765  10.680  0.6518 -0.4965 -0.1836
  468MOL0     C63101   1.696   3.811  10.599 -0.0005  0.3500 -0.0844
  468MOL0     C63102   1.663   3.939  10.607  0.2377 -0.8046 -0.9843
  468MOL0     O63103   1.569   3.986  10.515  0.0979  0.1047  0.2432
  468MOL0     C63104   1.616   4.099  10.448 -0.0809 -0.9969  0.2355
  468MOL0     C63105   1.646   4.064  10.303 -0.5943 -0.3904 -0.0117
  468MOL0     C63106   1.799   4.072  10.276  0.2071 -0.3204  0.0417
  468MOL0     C63107   1.843   4.211  10.227  0.2004 -0.2795 -0.1418
  468MOL0     C63108   1.848   4.314  10.339  0.4662  0.4577 -0.1977
  468MOL0     C63109   1.858   4.402  10.420  0.4122 -0.3830 -0.2798
  468MOL0     C63110   1.711   4.021  10.709 -0.4143 -0.6723 -0.1894
  468MOL0     C63111   1.807   3.972  10.803  0.2465  0.0648 -0.4593
  468MOL0     C63112   1.858   4.054  10.922  0.2727 -0.7432  0.4674
  468MOL0     H63113   2.028   3.654  11.101 -1.9786 -1.1965 -2.0821
  468MOL0     H63114   2.179   3.509  11.238 -0.0678 -3.5310  0.1489
  468MOL0     H63115   2.382   3.407  11.255  0.2050  0.7813 -1.5609
  468MOL0     H63116   2.354   3.251  11.320 -2.3261  0.2206 -1.1513
  468MOL0     H63117   2.503   3.135  11.197 -0.7012  0.8022 -0.4712
  468MOL0     H63118   2.584   3.265  11.292 -0.1229  1.4324  0.3786
  468MOL0     H63119   2.593   3.415  11.097  1.5733 -0.1690 -1.6523
  468MOL0     H63120   2.500   3.294  10.997 -0.8611 -0.0068  0.5486
  468MOL0     H63121   2.742   3.277  10.940  1.9858  0.5074  0.2949
  468MOL0     H63122   2.794   3.282  11.106  2.2303 -0.8393 -0.4043
  468MOL0     H63123   2.796   3.073  10.971  0.0388  2.2296  0.5575
  468MOL0     H63124   2.695   3.030  11.117 -3.2065 -2.3256 -0.6880
  468MOL0     H63125   2.491   3.048  10.979  0.4302 -2.7535  2.7339
  468MOL0     H63126   2.595   3.104  10.835 -1.3205 -1.6459 -1.3119
  468MOL0     H63127   2.624   2.846  10.988 -1.4073  0.7883  0.4589
  468MOL0     H63128   2.683   2.873  10.825 -1.0054  0.1304 -1.7631
  468MOL0     H63129   2.394   2.898  10.883 -0.0700  1.8722 -1.2967
  468MOL0     H63130   2.462   2.917  10.727 -0.9089 -2.2000 -0.6565
  468MOL0     H63131   2.657   2.691  10.654 -1.2579  0.8462 -1.0600
  468MOL0     H63132   2.758   2.407  10.802  1.0508  0.2394 -0.6618
  468MOL0     H63133   2.615   2.308  10.772 -4.4108  2.5552  0.4509
  468MOL0     H63134   2.614   2.415  10.529 -0.9159 -0.7988  0.4074
  468MOL0     H63135   2.758   2.504  10.571  0.1527  0.9565 -0.5283
  468MOL0     H63136   2.891   2.291  10.610  0.2585 -0.4846  0.7637
  468MOL0     H63137   2.834   2.316  10.452 -0.8477  0.2022 -1.1583
  468MOL0     H63138   2.730   2.129  10.656 -0.4802  1.1029 -0.6429
  468MOL0     H63139   2.825   2.088  10.510 -0.6214 -0.2089 -1.8293
  468MOL0     H63140   2.756   2.242  10.270  0.7648 -1.3464 -1.2646
  468MOL0     H63141   2.685   2.216  10.052 -0.0437  1.1561  2.3539
  468MOL0     H63142   2.548   2.278   9.681  4.6100  0.7008 -0.2960
  468MOL0     H63143   2.514   2.259   9.428 -1.8445  0.6747  0.9049
  468MOL0     H63144   2.482   1.808   9.262 -1.5262 -2.3695 -2.9308
  468MOL0     H63145   2.365   1.916   9.328  1.4011 -1.4833 -0.2350
  468MOL0     H63146   2.363   2.015   9.085  0.4163  0.1572  2.0709
  468MOL0     H63147   2.448   1.880   9.030 -0.4556  1.5144 -0.9782
  468MOL0     H63148   2.293   1.714   9.107  2.5006  0.6781  3.8177
  468MOL0     H63149   2.198   1.830   9.200 -5.9026 -2.0417 -3.8223
  468MOL0     H63150   2.225   1.851   8.902 -1.6616  0.5190 -1.5808
  468MOL0     H63151   2.130   1.960   8.994  0.0565  0.0438  0.0387
  468MOL0     H63152   2.003   1.736   9.047  0.5455  3.6451  0.1705
  468MOL0     H63153   2.101   1.663   8.912  2.8158  0.0649  0.0235
  468MOL0     H63154   1.922   1.907   8.907  0.2684  0.5005 -2.4874
  468MOL0     H63155   2.029   1.856   8.775 -0.3602  2.0153 -0.7385
  468MOL0     H63156   1.788   1.721   8.905  0.8872 -2.7176  0.1976
  468MOL0     H63157   1.877   1.651   8.774 -1.2237 -0.9458  2.5890
  468MOL0     H63158   1.673   1.771   8.682 -0.0619  2.9402 -2.2601
  468MOL0     H63159   1.712   1.909   8.788 -1.9569 -1.9504  2.3398
  468MOL0     H63160   2.606   1.831   9.465 -2.3543  1.1055 -3.5378
  468MOL0     H63161   2.621   1.869   9.721  0.7536 -1.4665 -1.2548
  468MOL0     H63162   2.357   1.969  10.159  0.6032 -0.8575 -1.0077
  468MOL0     H63163   2.394   2.023  10.392  0.0474 -0.3524 -1.6205
  468MOL0     H63164   2.197   3.243  10.892  2.7522 -0.2536  0.5694
  468MOL0     H63165   2.082   3.401  10.758 -0.2452 -1.6198  0.7241
  468MOL0     H63166   1.815   3.659  10.668 -1.4163 -0.8106 -2.0160
  468MOL0     H63167   1.644   3.760  10.518 -1.0750  0.2063  0.6753
  468MOL0     H63168   1.713   4.131  10.488 -1.0096  2.3756  0.0550
  468MOL0     H63169   1.535   4.172  10.447  1.7295  1.1588 -2.2115
  468MOL0     H63170   1.595   4.136  10.237 -3.8043  0.5466  3.1493
  468MOL0     H63171   1.607   3.964  10.283 -2.1683  0.3781 -1.0963
  468MOL0     H63172   1.817   4.011  10.187 -0.7175 -1.5500  0.6745
  468MOL0     H63173   1.855   4.031  10.361  1.1726  0.0524 -0.4050
  468MOL0     H63174   1.942   4.195  10.184 -0.4917 -4.5118 -0.5916
  468MOL0     H63175   1.792   4.257  10.141 -0.4255  2.9880  1.8009
  468MOL0     H63176   1.872   4.487  10.484 -1.3384  1.1787 -1.8563
  468MOL0     H63177   1.682   4.125  10.725 -2.3779 -0.7688 -2.5709
  468MOL0     H63178   1.819   4.011  11.015 -3.7648  0.4572 -0.4819
  468MOL0     H63179   1.967   4.053  10.926  0.3074  1.2810  1.3036
  468MOL0     H63180   1.814   4.152  10.901  0.0006 -0.5514  1.8203
  469MOL0     O63181   4.918   5.103   6.243 -0.1585  0.6444 -0.4298
  469MOL0     C63182   5.031   5.050   6.208 -0.7391 -0.0572 -0.9901
  469MOL0     O63183   5.152   5.107   6.214 -0.3232  0.1714  0.3876
  469MOL0     C63184   5.154   5.236   6.258  0.5088 -0.7397 -0.3723
  469MOL0     C63185   5.125   5.276   6.389  0.3956 -1.3214  0.4769
  469MOL0     C63186   5.105   5.415   6.418 -0.4664  1.4483 -0.2690
  469MOL0     C63187   5.121   5.511   6.320 -0.1830  0.9965 -0.8366
  469MOL0     O63188   5.095   5.646   6.334 -1.2754  0.0385  0.7192
  469MOL0     C63189   5.027   5.689   6.446 -0.0797 -0.2568 -0.6171
  469MOL0     C63190   5.016   5.836   6.425  0.3185 -1.1801  0.1755
  469MOL0     C63191   4.931   5.886   6.303 -0.0410 -0.8223 -0.2606
  469MOL0     C63192   4.789   5.826   6.309 -0.0200 -0.9574 -0.2498
  469MOL0     C63193   4.693   5.893   6.211  0.3453 -0.2173  0.3042
  469MOL0     C63194   4.607   6.004   6.277 -0.4294 -0.3924 -0.4269
  469MOL0     C63195   4.484   6.031   6.191 -0.3234  0.2002 -0.6480
  469MOL0     C63196   4.518   6.106   6.060 -0.6176 -0.5429 -0.5911
  469MOL0     N63197   4.555   6.246   6.098  1.0478  0.4253 -0.3244
  469MOL0     C63198   4.474   6.348   6.145  0.0493  0.3155  0.2188
  469MOL0     C63199   4.554   6.456   6.132 -0.7278  0.4858 -0.1191
  469MOL0     C63200   4.516   6.600   6.169 -0.1585  0.1608  0.4546
  469MOL0     C63201   4.374   6.639   6.120 -0.3783 -0.6026  1.9839
  469MOL0     C63202   4.368   6.658   5.968  0.2048 -0.2439  0.3134
  469MOL0     C63203   4.226   6.682   5.911  0.7859  1.5928 -0.4305
  469MOL0     O63204   4.149   6.563   5.930  0.5930  0.0561 -0.6472
  469MOL0     C63205   4.051   6.521   5.841  0.4544 -0.0928 -0.3656
  469MOL0     C63206   3.977   6.405   5.876 -0.9473 -0.4425  0.3761
  469MOL0     C63207   3.875   6.353   5.791  0.1099  0.1163 -0.2013
  469MOL0     C63208   3.840   6.428   5.677 -0.5580 -0.0942 -0.7444
  469MOL0     C63209   3.734   6.383   5.597  1.3056  0.4973  0.2757
  469MOL0     O63210   3.687   6.473   5.504  0.2662 -0.0375  0.3060
  469MOL0     C63211   3.583   6.433   5.421  0.1994  0.6002  0.6936
  469MOL0     C63212   3.599   6.428   5.280 -0.0041  0.7872 -0.9491
  469MOL0     C63213   3.499   6.377   5.200  0.4082 -0.7375  0.1742
  469MOL0     C63214   3.369   6.360   5.240 -0.2900 -0.2570 -0.4654
  469MOL0     O63215   3.273   6.338   5.150 -0.1212 -0.3729  0.3170
  469MOL0     C63216   3.134   6.313   5.183 -0.5431 -1.3340 -0.1552
  469MOL0     C63217   3.043   6.387   5.084 -0.8280 -0.7712 -0.9279
  469MOL0     C63218   3.064   6.328   4.936 -0.2031 -1.2506  0.3136
  469MOL0     C63219   2.959   6.364   4.832  0.6565 -0.0527 -1.1069
  469MOL0     C63220   2.966   6.317   4.694  0.5442  0.2386  0.1402
  469MOL0     C63221   3.003   6.172   4.673  0.5205  0.8646 -0.1732
  469MOL0     C63222   3.017   6.129   4.525 -1.0903 -0.3216  0.8900
  469MOL0     C63223   3.057   5.985   4.493  0.6729  0.6143 -0.0624
  469MOL0    Cl63224   3.070   5.986   4.316 -0.1991  0.1715  0.8292
  469MOL0     C63225   3.344   6.371   5.381 -0.6248  0.2594 -0.1009
  469MOL0     C63226   3.451   6.407   5.460 -1.0369 -0.0445 -0.4220
  469MOL0     O63227   3.673   6.280   5.632  0.8517 -0.6845 -0.1350
  469MOL0     C63228   3.923   6.536   5.638 -0.6011  0.2897 -1.0145
  469MOL0     C63229   4.022   6.586   5.718  0.4838  0.0734  0.2871
  469MOL0     N63230   4.675   6.418   6.072  0.6915  0.3264  0.5535
  469MOL0     N63231   4.672   6.293   6.051  0.6478  0.5755 -1.0752
  469MOL0     C63232   5.157   5.470   6.196 -0.3441  0.2167  0.6121
  469MOL0     C63233   5.175   5.338   6.163 -0.2141  0.5387 -0.3622
  469MOL0     C63234   5.037   4.901   6.187  0.4944  0.1920  1.3641
  469MOL0     C63235   5.048   4.849   6.052 -0.3118 -0.6679 -0.2626
  469MOL0     C63236   5.056   4.715   6.029  0.7908 -0.1324  0.5202
  469MOL0     C63237   5.054   4.635   6.139  0.1561 -0.1072  0.0294
  469MOL0     O63238   5.073   4.499   6.135  0.4214  0.6955 -0.3625
  469MOL0     C63239   4.958   4.434   6.065 -0.7535  0.2256  0.0974
  469MOL0     C63240   4.813   4.452   6.127  0.2650  0.0404 -0.6776
  469MOL0     C63241   4.725   4.337   6.078  0.0166  0.1435  0.1006
  469MOL0     C63242   4.596   4.343   6.153 -0.3020 -1.0409  0.0976
  469MOL0     C63243   4.502   4.243   6.105  0.2757  0.3612 -0.3550
  469MOL0     C63244   4.429   4.159   6.054 -0.2110  0.0886  0.3417
  469MOL0     C63245   5.032   4.677   6.270 -0.2122  0.9562  0.4714
  469MOL0     C63246   5.019   4.813   6.291  0.0138  0.0272  0.1167
  469MOL0     C63247   5.019   4.858   6.438 -0.2963  0.9727 -0.6460
  469MOL0     H63248   5.110   5.197   6.462  1.0086  0.6063  2.8178
  469MOL0     H63249   5.057   5.441   6.512 -1.4531 -0.4117 -0.2062
  469MOL0     H63250   4.929   5.644   6.465 -0.9186  1.9412  0.7392
  469MOL0     H63251   5.078   5.663   6.539 -1.2253  0.3864  0.2153
  469MOL0     H63252   5.112   5.886   6.410  0.2663 -1.2180 -0.2732
  469MOL0     H63253   4.976   5.878   6.518 -0.9727  1.6075 -1.5097
  469MOL0     H63254   4.983   5.858   6.211  0.5806  0.0834 -0.1910
  469MOL0     H63255   4.927   5.995   6.305  2.0208 -0.7178  0.2581
  469MOL0     H63256   4.784   5.720   6.285 -1.4149 -1.3522  1.5102
  469MOL0     H63257   4.750   5.831   6.412  0.1223  3.0598 -0.2161
  469MOL0     H63258   4.754   5.935   6.130 -1.8771  1.4103 -0.6048
  469MOL0     H63259   4.616   5.822   6.180 -2.3321  2.3571  0.6466
  469MOL0     H63260   4.574   5.967   6.374 -1.5177  1.1822 -0.1712
  469MOL0     H63261   4.661   6.097   6.293 -0.8963  0.8713 -4.8197
  469MOL0     H63262   4.411   6.077   6.259  0.4062 -3.7749  3.2687
  469MOL0     H63263   4.430   5.939   6.171 -1.5006  0.1144  2.3843
  469MOL0     H63264   4.588   6.045   6.002 -0.9940 -1.9812  0.3855
  469MOL0     H63265   4.429   6.105   5.996  1.5695  0.0968 -3.8729
  469MOL0     H63266   4.374   6.337   6.186 -0.7376 -1.3070 -1.9350
  469MOL0     H63267   4.511   6.598   6.278  1.5939 -5.5384  0.7691
  469MOL0     H63268   4.596   6.664   6.131  1.7720 -1.1893  2.0423
  469MOL0     H63269   4.309   6.561   6.162 -1.2213 -0.2314  1.4061
  469MOL0     H63270   4.342   6.730   6.171 -0.3546  0.6657 -0.1398
  469MOL0     H63271   4.379   6.560   5.921 -2.4073 -0.7003  0.4969
  469MOL0     H63272   4.449   6.723   5.933  0.7055 -0.5932  0.8056
  469MOL0     H63273   4.235   6.703   5.804  0.5510 -1.9729 -1.2635
  469MOL0     H63274   4.191   6.765   5.973 -1.3015 -2.1460  4.0108
  469MOL0     H63275   4.011   6.350   5.963 -0.0467 -0.4165  0.0469
  469MOL0     H63276   3.846   6.252   5.817 -0.5107  0.0765 -1.0084
  469MOL0     H63277   3.693   6.446   5.230 -0.9713  0.0612 -3.1403
  469MOL0     H63278   3.516   6.371   5.093 -2.8983 -1.6419 -0.3990
  469MOL0     H63279   3.112   6.206   5.179 -1.0080 -1.2776  0.6304
  469MOL0     H63280   3.108   6.348   5.283 -0.5453  1.1917 -0.9806
  469MOL0     H63281   2.938   6.393   5.114 -0.5233  2.3351 -0.1044
  469MOL0     H63282   3.078   6.491   5.082  2.7257 -1.8539 -2.1547
  469MOL0     H63283   3.165   6.352   4.899 -0.4986  1.0591  0.8749
  469MOL0     H63284   3.068   6.219   4.947  3.0902 -1.5595 -2.1923
  469MOL0     H63285   2.955   6.473   4.840  1.6422 -0.0041 -1.0866
  469MOL0     H63286   2.866   6.329   4.876  0.1015 -0.7386 -2.7273
  469MOL0     H63287   3.031   6.382   4.634  1.9468 -1.1691  0.0805
  469MOL0     H63288   2.869   6.330   4.646  0.0470  0.5967  1.1989
  469MOL0     H63289   3.100   6.152   4.719 -1.1768 -3.7978  2.0287
  469MOL0     H63290   2.927   6.104   4.714  2.3557 -1.2880 -0.1222
  469MOL0     H63291   3.083   6.196   4.470 -0.9507 -2.3835 -1.6640
  469MOL0     H63292   2.922   6.148   4.473 -0.9198 -1.1062  0.2780
  469MOL0     H63293   3.154   5.959   4.534  0.3943 -0.3691 -0.0174
  469MOL0     H63294   2.973   5.921   4.521  2.5564 -1.9212  0.0762
  469MOL0     H63295   3.252   6.335   5.427  0.4128 -0.1994  1.7226
  469MOL0     H63296   3.444   6.419   5.568  0.2095 -0.3829 -0.2969
  469MOL0     H63297   3.909   6.583   5.541 -2.8978 -0.1684 -0.9609
  469MOL0     H63298   4.073   6.670   5.672 -1.4377 -0.0046 -2.1855
  469MOL0     H63299   5.164   5.552   6.125  1.9371 -0.1241  0.3829
  469MOL0     H63300   5.215   5.310   6.066  1.2021  0.6771  0.1499
  469MOL0     H63301   5.063   4.923   5.974 -1.3896 -0.7808 -0.5929
  469MOL0     H63302   5.067   4.665   5.934  3.7584 -2.3200  1.8838
  469MOL0     H63303   4.981   4.327   6.059  0.4548  0.4484  0.4352
  469MOL0     H63304   4.952   4.480   5.965  1.1749 -1.4415 -0.8517
  469MOL0     H63305   4.768   4.548   6.098 -2.1369 -0.9804 -0.5527
  469MOL0     H63306   4.824   4.434   6.235 -0.4163  0.2989 -0.5613
  469MOL0     H63307   4.768   4.239   6.101  0.5578 -0.1035 -1.8143
  469MOL0     H63308   4.707   4.347   5.971  2.2355 -0.0553 -0.3507
  469MOL0     H63309   4.620   4.334   6.259  2.2139  1.5105 -0.1426
  469MOL0     H63310   4.550   4.440   6.130  1.4289  0.2969  1.9129
  469MOL0     H63311   4.357   4.090   6.015  0.0958 -1.5604  2.5371
  469MOL0     H63312   5.057   4.599   6.341  0.6041 -0.9468 -1.7826
  469MOL0     H63313   5.121   4.894   6.456  0.2596 -0.3764 -0.9593
  469MOL0     H63314   4.947   4.940   6.440 -2.1797 -0.6414  0.7526
  469MOL0     H63315   4.978   4.787   6.510 -1.0407  0.1481 -1.8503
  470MOL0     O63316   3.575   1.585   5.986 -0.8169 -0.0992  0.0871
  470MOL0     C63317   3.485   1.499   5.964 -0.5259 -0.5639  0.6885
  470MOL0     O63318   3.375   1.511   5.884 -0.2617  0.1892  0.7244
  470MOL0     C63319   3.350   1.630   5.820 -0.0907 -0.2808 -1.1485
  470MOL0     C63320   3.331   1.633   5.686 -0.2585 -0.0659  0.2024
  470MOL0     C63321   3.294   1.754   5.626  1.2099 -0.3525 -0.5331
  470MOL0     C63322   3.269   1.868   5.693  0.9733 -0.9214 -0.1987
  470MOL0     O63323   3.236   1.985   5.636  0.3439  0.1253 -0.0013
  470MOL0     C63324   3.221   1.997   5.498  0.1033  0.1373 -0.5347
  470MOL0     C63325   3.165   2.137   5.471  0.2473  0.4089  0.6243
  470MOL0     C63326   3.095   2.142   5.333 -0.9417  0.1379  0.3626
  470MOL0     C63327   3.204   2.110   5.216  1.5524  0.3468 -0.7894
  470MOL0     C63328   3.129   2.130   5.071  0.5124  0.9525  0.1481
  470MOL0     C63329   3.035   2.020   5.027 -0.5827  1.1756  0.1158
  470MOL0     C63330   3.011   2.019   4.873  0.0358 -0.1885 -0.5167
  470MOL0     C63331   2.897   2.115   4.838 -0.3672 -0.7229  0.1026
  470MOL0     N63332   2.761   2.067   4.855 -0.6352 -1.2202  0.4255
  470MOL0     C63333   2.690   1.997   4.763 -0.0627  0.3943  0.9227
  470MOL0     C63334   2.567   1.957   4.815 -0.3576  0.0402  0.6969
  470MOL0     C63335   2.463   1.876   4.746  0.3787  0.1988  0.8586
  470MOL0     C63336   2.488   1.729   4.745  0.2251  0.6283  0.6753
  470MOL0     C63337   2.364   1.641   4.713 -0.4826  0.3017  0.0996
  470MOL0     C63338   2.396   1.493   4.750  0.8131 -0.1259 -0.8669
  470MOL0     O63339   2.289   1.409   4.696 -0.9052  0.7585  0.7256
  470MOL0     C63340   2.304   1.275   4.709  0.2927 -0.6063  1.1084
  470MOL0     C63341   2.212   1.195   4.643 -0.3344  0.1338 -0.5940
  470MOL0     C63342   2.234   1.065   4.640  0.2122  0.5347  0.0233
  470MOL0     C63343   2.338   0.999   4.717 -0.7485 -1.5732 -0.3071
  470MOL0     C63344   2.361   0.853   4.711 -0.8669 -0.0459 -0.0334
  470MOL0     O63345   2.484   0.810   4.750  0.2892  0.3386 -0.5507
  470MOL0     C63346   2.492   0.676   4.782 -0.7829  0.2509  0.2648
  470MOL0     C63347   2.466   0.653   4.915 -0.2439 -0.3125 -0.1704
  470MOL0     C63348   2.483   0.524   4.971  0.1669  0.2230 -0.9354
  470MOL0     C63349   2.513   0.414   4.883  0.1287  0.0591 -0.3893
  470MOL0     O63350   2.508   0.278   4.916 -0.0749 -0.8063  0.3730
  470MOL0     C63351   2.584   0.244   5.031 -0.3711 -0.2114  0.3307
  470MOL0     C63352   2.484   0.193   5.144 -1.0184 -0.5620  0.3187
  470MOL0     C63353   2.567   0.113   5.247  0.4438  0.0008  0.1144
  470MOL0     C63354   2.478   0.062   5.362  0.3854 -0.1817 -0.0552
  470MOL0     C63355   2.561   0.001   5.477 -0.2790 -0.6044  0.6083
  470MOL0     C63356   2.651  -0.119   5.441  0.0057 -0.6411  0.5285
  470MOL0     C63357   2.559  -0.240   5.413 -1.3388  0.3141  0.1011
  470MOL0     C63358   2.631  -0.376   5.382  0.1063  0.0508 -1.1873
  470MOL0    Cl63359   2.736  -0.359   5.234 -0.1167  0.2210 -0.1073
  470MOL0     C63360   2.532   0.441   4.747 -0.3786 -0.3804  0.1398
  470MOL0     C63361   2.534   0.577   4.697 -1.0997  0.2371  0.4674
  470MOL0     O63362   2.271   0.779   4.678 -0.2001 -0.3072  0.2011
  470MOL0     C63363   2.437   1.082   4.773 -0.0212 -0.0903  0.3894
  470MOL0     C63364   2.413   1.217   4.774 -0.6103  0.4550 -1.1763
  470MOL0     N63365   2.555   2.036   4.920  0.7336  0.0045 -0.2000
  470MOL0     N63366   2.667   2.104   4.952 -0.3002  0.7235  0.4682
  470MOL0     C63367   3.279   1.868   5.830  0.4874 -0.8066 -0.5106
  470MOL0     C63368   3.320   1.747   5.893  0.0787  0.3012  0.1491
  470MOL0     C63369   3.482   1.395   6.062  0.2876  0.2958 -0.5752
  470MOL0     C63370   3.357   1.337   6.090 -0.4455  0.7505  0.5007
  470MOL0     C63371   3.335   1.229   6.180  0.2523 -0.3069  0.0190
  470MOL0     C63372   3.438   1.180   6.258 -1.1150  0.7753  0.3824
  470MOL0     O63373   3.413   1.081   6.346 -0.0397  1.5856  0.2698
  470MOL0     C63374   3.538   1.036   6.414 -0.2959  0.1741  0.2881
  470MOL0     C63375   3.498   0.923   6.516  0.2332  0.2509  0.4187
  470MOL0     C63376   3.384   0.974   6.607  0.0301  0.3273  0.0049
  470MOL0     C63377   3.379   0.898   6.729  0.4275 -0.0668  0.1317
  470MOL0     C63378   3.309   0.767   6.714 -1.2294  0.2429 -0.7310
  470MOL0     C63379   3.264   0.660   6.683  1.3343 -0.7157  0.1716
  470MOL0     C63380   3.564   1.245   6.235 -0.8265  0.0737  0.6323
  470MOL0     C63381   3.588   1.349   6.140 -0.8761 -0.6788 -0.7021
  470MOL0     C63382   3.735   1.398   6.135 -1.4079 -0.8391  0.3644
  470MOL0     H63383   3.347   1.543   5.627 -0.4121  1.6446 -2.6453
  470MOL0     H63384   3.295   1.761   5.517  2.5252  1.8075 -0.4230
  470MOL0     H63385   3.309   1.997   5.434 -0.0937  4.3399 -1.1316
  470MOL0     H63386   3.142   1.931   5.460  0.1519  0.9085 -2.0371
  470MOL0     H63387   3.239   2.216   5.483 -0.2243  0.7246  1.6011
  470MOL0     H63388   3.092   2.160   5.549 -0.0355  0.1250  0.4466
  470MOL0     H63389   3.047   2.239   5.320 -0.0504  0.5640  0.1202
  470MOL0     H63390   3.019   2.065   5.325  0.8681 -1.7612  0.5023
  470MOL0     H63391   3.278   2.191   5.217  1.2060  0.6610 -0.4878
  470MOL0     H63392   3.255   2.015   5.237  1.3438  0.9211  3.0196
  470MOL0     H63393   3.077   2.226   5.075 -0.5139  0.3761  1.2265
  470MOL0     H63394   3.201   2.126   4.988  0.2583  2.4738 -0.1649
  470MOL0     H63395   3.082   1.925   5.053 -2.9860 -0.2328 -0.4378
  470MOL0     H63396   2.937   2.012   5.075 -0.5930  0.7518  0.0239
  470MOL0     H63397   2.994   1.916   4.840 -0.0077  0.3750 -2.3665
  470MOL0     H63398   3.090   2.061   4.810 -1.0732  3.0909  0.0676
  470MOL0     H63399   2.907   2.208   4.895 -0.1708 -1.1093  0.6967
  470MOL0     H63400   2.899   2.140   4.731 -6.4339  0.7728  0.0021
  470MOL0     H63401   2.728   1.956   4.670 -1.9972 -0.0160  0.2493
  470MOL0     H63402   2.369   1.898   4.798  0.4150  2.6606  0.0117
  470MOL0     H63403   2.465   1.907   4.641 -0.7804  2.4924  1.4254
  470MOL0     H63404   2.563   1.720   4.666  0.5467  1.5314  0.8584
  470MOL0     H63405   2.534   1.695   4.838 -0.0029 -1.9116 -0.0638
  470MOL0     H63406   2.336   1.646   4.607  1.1091 -2.0063 -0.4968
  470MOL0     H63407   2.277   1.679   4.769 -0.9197  1.7728 -1.4870
  470MOL0     H63408   2.400   1.496   4.860 -1.2206 -1.7183 -0.6764
  470MOL0     H63409   2.498   1.464   4.722  1.8775  0.7824  1.7111
  470MOL0     H63410   2.139   1.235   4.574  1.2527  1.8766 -1.3715
  470MOL0     H63411   2.170   0.999   4.583  0.8112  1.1881 -1.4472
  470MOL0     H63412   2.435   0.725   4.990  2.2473  1.7728 -0.9671
  470MOL0     H63413   2.463   0.504   5.076  2.7367  0.6335 -0.2842
  470MOL0     H63414   2.652   0.162   5.008  2.6027  2.4221 -1.1227
  470MOL0     H63415   2.648   0.324   5.070  1.4094 -0.9322 -0.9437
  470MOL0     H63416   2.433   0.278   5.190  0.7270  0.5745  0.2277
  470MOL0     H63417   2.411   0.126   5.097 -0.5144 -1.8603  1.3158
  470MOL0     H63418   2.608   0.031   5.187  1.5679  1.1729 -0.7607
  470MOL0     H63419   2.650   0.176   5.282 -0.4059  0.4985  1.3039
  470MOL0     H63420   2.402  -0.001   5.315  0.7745 -1.6303  1.1816
  470MOL0     H63421   2.433   0.150   5.409  2.7766  0.7817  0.5869
  470MOL0     H63422   2.488  -0.029   5.553 -1.4254  0.7226  0.0691
  470MOL0     H63423   2.606   0.097   5.507 -1.4719  1.1677 -2.7289
  470MOL0     H63424   2.699  -0.092   5.346 -3.6703  2.6388 -0.6884
  470MOL0     H63425   2.729  -0.137   5.515  0.5380  0.2579  0.2055
  470MOL0     H63426   2.488  -0.220   5.331 -0.3184 -2.2429 -1.5188
  470MOL0     H63427   2.502  -0.249   5.506  0.3011 -1.3060  0.9930
  470MOL0     H63428   2.698  -0.401   5.465  1.0262 -1.0673 -2.2324
  470MOL0     H63429   2.565  -0.463   5.373  1.6415 -1.0398 -2.5358
  470MOL0     H63430   2.545   0.364   4.673 -2.0337 -0.0042 -0.6084
  470MOL0     H63431   2.558   0.611   4.597 -0.4471  3.8504  1.7058
  470MOL0     H63432   2.519   1.044   4.834  0.6407  0.4800 -0.1423
  470MOL0     H63433   2.488   1.283   4.818 -0.7535  0.7487 -1.3703
  470MOL0     H63434   3.262   1.964   5.878  1.1160  0.4493 -2.6414
  470MOL0     H63435   3.333   1.751   6.001 -1.1176 -2.0547  0.4453
  470MOL0     H63436   3.264   1.368   6.044  0.2376  3.4994  0.8244
  470MOL0     H63437   3.239   1.191   6.212 -1.1264  2.3363 -0.7558
  470MOL0     H63438   3.585   1.112   6.477  1.3642 -1.1426  0.7168
  470MOL0     H63439   3.609   0.999   6.340 -1.1527  1.0562 -1.0060
  470MOL0     H63440   3.573   0.894   6.591 -0.4767 -0.0470  1.0317
  470MOL0     H63441   3.463   0.837   6.458 -1.0219  2.6544 -2.6545
  470MOL0     H63442   3.287   0.962   6.559 -0.2794  0.1968  0.6654
  470MOL0     H63443   3.399   1.079   6.634  0.4517  1.1783 -3.1069
  470MOL0     H63444   3.476   0.889   6.779 -0.4715  1.6857  2.3555
  470MOL0     H63445   3.305   0.947   6.793 -1.4031 -2.4006 -0.0514
  470MOL0     H63446   3.231   0.559   6.670  3.7941 -1.8425  1.8663
  470MOL0     H63447   3.645   1.208   6.298 -0.9316 -0.3137  0.5447
  470MOL0     H63448   3.761   1.451   6.227  1.3959  2.7381 -2.2449
  470MOL0     H63449   3.794   1.306   6.128 -1.5959 -1.1299  2.1074
  470MOL0     H63450   3.759   1.466   6.053  1.1936 -1.3547  0.6415
  471MOL0     O63451   8.167   8.654   4.097 -0.4302  0.7000 -0.3992
  471MOL0     C63452   8.208   8.626   3.989 -0.6075 -0.1472 -0.0833
  471MOL0     O63453   8.335   8.572   3.967  1.0175 -1.1049  0.0641
  471MOL0     C63454   8.435   8.609   4.052  0.1034  0.4959 -0.4834
  471MOL0     C63455   8.499   8.733   4.050 -0.0292 -0.2923  0.2590
  471MOL0     C63456   8.601   8.765   4.144  0.3759  0.4105 -1.0020
  471MOL0     C63457   8.636   8.677   4.251  0.5109  0.3417  0.3555
  471MOL0     O63458   8.736   8.699   4.344  0.3597 -0.8740  0.6650
  471MOL0     C63459   8.827   8.802   4.317 -0.1480 -0.0267 -0.4191
  471MOL0     C63460   8.951   8.786   4.398  0.1879 -0.3617 -0.6206
  471MOL0     C63461   8.931   8.798   4.549  0.6296 -1.2719  1.2317
  471MOL0     C63462   8.913   8.943   4.583 -0.5601  0.8352 -0.5072
  471MOL0     C63463   8.786   8.964   4.682  0.5308  0.3008 -0.5862
  471MOL0     C63464   8.652   8.969   4.601  0.2475  0.1314 -0.0106
  471MOL0     C63465   8.538   9.026   4.691  0.6019  0.6310  0.4906
  471MOL0     C63466   8.409   9.027   4.603  0.1002  0.2039 -0.4032
  471MOL0     N63467   8.417   9.114   4.478  0.0222 -0.4263 -0.0280
  471MOL0     C63468   8.438   9.250   4.490  0.0291 -1.3188 -0.1433
  471MOL0     C63469   8.463   9.293   4.372  0.4412  0.4475 -0.1358
  471MOL0     C63470   8.496   9.433   4.335  0.8104  0.6893  0.3604
  471MOL0     C63471   8.406   9.478   4.219 -0.0215  0.0406 -0.6839
  471MOL0     C63472   8.257   9.485   4.259  0.1519  0.4578 -0.8723
  471MOL0     C63473   8.187   9.583   4.180 -1.1084  0.7702  0.1149
  471MOL0     O63474   8.198   9.543   4.042 -0.1182 -0.5835  0.0550
  471MOL0     C63475   8.106   9.580   3.956 -1.0069 -0.4566 -0.3743
  471MOL0     C63476   8.115   9.523   3.830  0.4856 -0.5704  0.3166
  471MOL0     C63477   8.024   9.557   3.730 -0.2475  0.0158  0.4563
  471MOL0     C63478   7.918   9.644   3.757  0.5965  0.0587  0.0121
  471MOL0     C63479   7.818   9.689   3.652  0.6865 -0.0167 -0.2262
  471MOL0     O63480   7.731   9.792   3.686  0.2557 -0.3804  0.2306
  471MOL0     C63481   7.618   9.791   3.609  0.5041  0.0767 -0.3227
  471MOL0     C63482   7.609   9.880   3.503  0.2252 -0.6055 -0.1625
  471MOL0     C63483   7.504   9.885   3.420 -0.2855 -0.8244  0.6869
  471MOL0     C63484   7.407   9.793   3.442  0.6392  1.1257  0.3495
  471MOL0     O63485   7.300   9.793   3.357  0.4661 -0.0152  0.1066
  471MOL0     C63486   7.332   9.778   3.219  0.1718 -1.1801  0.0885
  471MOL0     C63487   7.235   9.858   3.135  0.9344  0.2398 -0.0449
  471MOL0     C63488   7.255  10.010   3.152 -0.2372 -0.7515  0.5312
  471MOL0     C63489   7.143  10.083   3.058  0.1869  0.8945 -0.4451
  471MOL0     C63490   7.143  10.230   3.071 -0.4728  0.4651 -0.1402
  471MOL0     C63491   7.251  10.307   2.987  0.9241 -0.1300  0.6313
  471MOL0     C63492   7.242  10.293   2.831  0.3597  0.0596 -0.0276
  471MOL0     C63493   7.161  10.404   2.758 -0.5842  0.1421 -0.5598
  471MOL0    Cl63494   7.243  10.549   2.791  0.2671  0.0986 -0.1721
  471MOL0     C63495   7.405   9.703   3.546  0.5645 -0.1924 -0.2147
  471MOL0     C63496   7.512   9.700   3.626  1.0330  0.1417  0.2570
  471MOL0     O63497   7.822   9.631   3.546 -0.2414 -0.4497 -0.1155
  471MOL0     C63498   7.910   9.709   3.879  0.0735  0.1062 -0.6073
  471MOL0     C63499   8.008   9.673   3.977 -0.5228  0.1068 -0.1426
  471MOL0     N63500   8.454   9.190   4.279  1.2682 -0.2075 -0.1785
  471MOL0     N63501   8.419   9.079   4.345  0.1700 -0.0141  0.7609
  471MOL0     C63502   8.568   8.558   4.264  0.0285  0.2149  0.0551
  471MOL0     C63503   8.473   8.529   4.160  0.3552  0.0214  0.9253
  471MOL0     C63504   8.115   8.642   3.874 -0.0091  0.0458 -0.7090
  471MOL0     C63505   8.168   8.636   3.743 -0.2327  1.0570 -0.3279
  471MOL0     C63506   8.085   8.654   3.629 -0.2144 -0.1813  0.0181
  471MOL0     C63507   7.948   8.682   3.646  0.9393 -0.2146 -0.2940
  471MOL0     O63508   7.858   8.681   3.537  0.9413 -0.5606 -0.6577
  471MOL0     C63509   7.883   8.604   3.419 -0.2345 -0.7318 -0.1827
  471MOL0     C63510   7.800   8.678   3.307 -1.3811 -0.2272 -0.2286
  471MOL0     C63511   7.862   8.819   3.279  0.1751  0.5007  0.1257
  471MOL0     C63512   7.770   8.883   3.170  1.1663 -0.2049 -0.2119
  471MOL0     C63513   7.813   9.025   3.160 -0.5209 -0.6490 -0.0829
  471MOL0     C63514   7.840   9.138   3.155 -0.1614 -0.4640 -0.3877
  471MOL0     C63515   7.902   8.690   3.775  0.0536 -0.2765  0.4704
  471MOL0     C63516   7.971   8.670   3.886 -0.3550  1.0748 -0.8283
  471MOL0     C63517   7.887   8.681   4.019 -0.1074  0.5874 -0.9728
  471MOL0     H63518   8.478   8.801   3.967  1.2705 -0.7402 -0.4694
  471MOL0     H63519   8.638   8.866   4.130 -3.6305  2.2704  0.3558
  471MOL0     H63520   8.854   8.813   4.211  1.9193  1.1980  0.1668
  471MOL0     H63521   8.769   8.890   4.348 -1.6453 -1.2244  0.2552
  471MOL0     H63522   9.033   8.853   4.372  0.2648 -0.7118 -1.2965
  471MOL0     H63523   8.985   8.683   4.379 -0.5707 -0.5627 -0.9085
  471MOL0     H63524   9.017   8.758   4.604 -0.1588 -3.3482  1.0385
  471MOL0     H63525   8.844   8.740   4.582  1.4141 -2.6047  1.0398
  471MOL0     H63526   9.003   8.968   4.640 -1.0524 -1.4157  1.4240
  471MOL0     H63527   8.891   9.014   4.502 -2.7879 -0.4754 -1.1502
  471MOL0     H63528   8.770   8.887   4.758 -1.9900  1.2742 -0.0266
  471MOL0     H63529   8.801   9.054   4.741 -1.1983  2.6682 -3.4664
  471MOL0     H63530   8.660   9.032   4.512  3.5663 -0.7482 -0.4918
  471MOL0     H63531   8.620   8.873   4.559 -3.5265  0.9387  0.6910
  471MOL0     H63532   8.562   9.128   4.722 -2.5327  1.9688 -1.0678
  471MOL0     H63533   8.527   8.955   4.774 -1.2833 -0.3369 -0.5176
  471MOL0     H63534   8.374   8.927   4.576  2.3381 -0.5771 -0.6010
  471MOL0     H63535   8.335   9.069   4.671  2.1324  3.7462 -0.1665
  471MOL0     H63536   8.420   9.320   4.571 -1.9306  0.1016 -1.7019
  471MOL0     H63537   8.485   9.505   4.416 -0.4652  0.8074  0.1016
  471MOL0     H63538   8.595   9.449   4.291 -0.0267  2.2408 -1.0621
  471MOL0     H63539   8.436   9.581   4.198  2.1271 -0.7833 -1.9809
  471MOL0     H63540   8.420   9.418   4.128  2.8218 -1.0025  0.3339
  471MOL0     H63541   8.243   9.521   4.362  2.3519  0.7316 -0.6265
  471MOL0     H63542   8.209   9.387   4.246 -0.8660  0.9613 -1.0043
  471MOL0     H63543   8.224   9.684   4.200 -3.1590  1.4688  0.6012
  471MOL0     H63544   8.087   9.581   4.224 -1.4502 -1.4907 -0.6359
  471MOL0     H63545   8.192   9.454   3.796  2.3706  2.7249 -2.8714
  471MOL0     H63546   8.032   9.523   3.627 -3.0627  3.2999 -1.0556
  471MOL0     H63547   7.690   9.944   3.471 -2.1261  1.6997 -1.9549
  471MOL0     H63548   7.503   9.959   3.341  0.9210  0.0914  1.4968
  471MOL0     H63549   7.434   9.813   3.207  0.6827 -2.4080  0.7051
  471MOL0     H63550   7.325   9.672   3.193 -2.4137 -0.6234 -2.0599
  471MOL0     H63551   7.248   9.824   3.032 -2.0087 -0.3001 -0.3353
  471MOL0     H63552   7.132   9.824   3.153  0.5835  1.5984  0.6425
  471MOL0     H63553   7.258  10.047   3.255  2.5308  1.5435 -0.2347
  471MOL0     H63554   7.355  10.027   3.110 -1.1007 -2.1788 -2.3313
  471MOL0     H63555   7.045  10.039   3.082  1.6449 -1.7662  1.1002
  471MOL0     H63556   7.156  10.052   2.954  1.3492 -0.5614  0.1010
  471MOL0     H63557   7.167  10.259   3.174 -2.0735  0.7450  0.1892
  471MOL0     H63558   7.044  10.267   3.041  0.3955  1.8364 -1.4466
  471MOL0     H63559   7.233  10.413   3.003  2.3641  0.5356 -1.8001
  471MOL0     H63560   7.347  10.281   3.034 -0.9068 -2.6818  3.3933
  471MOL0     H63561   7.189  10.201   2.805 -2.9664  1.7481  0.2463
  471MOL0     H63562   7.343  10.290   2.789  0.1041 -1.0189 -0.6135
  471MOL0     H63563   7.167  10.388   2.650  1.1908  2.2898 -0.8511
  471MOL0     H63564   7.060  10.393   2.800 -0.6736  3.8537  0.5415
  471MOL0     H63565   7.327   9.629   3.564  0.9255 -1.3125 -2.8354
  471MOL0     H63566   7.507   9.641   3.717 -2.4722 -0.0466  0.0703
  471MOL0     H63567   7.837   9.785   3.905  0.6938 -0.2767  2.7656
  471MOL0     H63568   7.992   9.713   4.077  0.3492  4.3028 -1.5087
  471MOL0     H63569   8.590   8.488   4.344  3.4289  0.4076 -0.5554
  471MOL0     H63570   8.438   8.426   4.158 -3.2583  1.1123  0.8891
  471MOL0     H63571   8.273   8.614   3.731  0.0493 -0.5033  3.4112
  471MOL0     H63572   8.131   8.634   3.533 -0.0313 -1.0231  0.2719
  471MOL0     H63573   7.858   8.498   3.431 -1.4081 -0.8157 -2.7018
  471MOL0     H63574   7.988   8.599   3.389  0.0939 -2.3989  1.0837
  471MOL0     H63575   7.694   8.699   3.323 -1.2427  3.3382 -2.6195
  471MOL0     H63576   7.801   8.613   3.219 -2.7343 -0.8318  0.1762
  471MOL0     H63577   7.962   8.808   3.238  1.2946  1.6819  2.3792
  471MOL0     H63578   7.849   8.869   3.375 -0.0481  0.7353 -0.0234
  471MOL0     H63579   7.783   8.829   3.076  2.9501 -0.9988  0.4560
  471MOL0     H63580   7.665   8.878   3.198  0.8430 -2.8771 -1.5870
  471MOL0     H63581   7.863   9.240   3.178 -2.1820  0.2008 -1.0783
  471MOL0     H63582   7.794   8.694   3.775  0.0831  1.7116  0.8368
  471MOL0     H63583   7.786   8.720   4.001 -0.4192  0.9502  1.3303
  471MOL0     H63584   7.906   8.585   4.068  0.0866  1.6276  1.0851
  471MOL0     H63585   7.935   8.759   4.078  2.0952  1.0413 -3.1865
  472MOL0     O63586   1.268   6.604   4.939 -0.6258  0.3780 -0.1301
  472MOL0     C63587   1.196   6.550   5.028  0.2504  1.0338  0.9115
  472MOL0     O63588   1.094   6.616   5.093 -0.5332 -0.7105 -0.3137
  472MOL0     C63589   1.041   6.743   5.079  0.7227 -0.0420  0.5697
  472MOL0     C63590   0.927   6.773   5.167  0.9103 -0.2463  0.0475
  472MOL0     C63591   0.871   6.909   5.159  0.1697  0.4997  0.5244
  472MOL0     C63592   0.931   7.010   5.082  0.2910 -0.2986  0.8893
  472MOL0     O63593   0.872   7.130   5.084 -0.1296 -0.9365 -0.8239
  472MOL0     C63594   0.858   7.183   4.948  0.0934 -0.4059 -0.5945
  472MOL0     C63595   0.759   7.121   4.856 -0.4243  0.0812  0.6053
  472MOL0     C63596   0.619   7.084   4.916 -1.7038  0.0092 -0.2355
  472MOL0     C63597   0.512   7.075   4.805 -0.0116  0.5424 -0.0012
  472MOL0     C63598   0.365   7.028   4.851 -0.2573 -0.0805 -0.0062
  472MOL0     C63599   0.275   7.043   4.725 -0.4790 -0.5076 -0.2615
  472MOL0     C63600   0.138   6.983   4.735 -0.4579 -0.4652  0.3506
  472MOL0     C63601   0.062   6.992   4.600  0.2493  0.2640  0.1447
  472MOL0     N63602  -0.086   6.998   4.628  0.5389  0.3784 -0.3293
  472MOL0     C63603  -0.176   6.903   4.612  0.0371  0.5709 -0.5333
  472MOL0     C63604  -0.301   6.955   4.636  0.2331  0.0660  0.1472
  472MOL0     C63605  -0.428   6.872   4.647  1.1318  0.4487  0.7807
  472MOL0     C63606  -0.558   6.947   4.666 -1.1986  0.0084 -0.8450
  472MOL0     C63607  -0.678   6.858   4.704  0.1118  0.3751  0.5403
  472MOL0     C63608  -0.767   6.826   4.580  0.1613 -0.9245  0.3499
  472MOL0     O63609  -0.688   6.800   4.459 -0.1570  0.8047 -0.1955
  472MOL0     C63610  -0.735   6.704   4.369  0.7051 -0.4032  0.3331
  472MOL0     C63611  -0.798   6.740   4.248 -0.1615 -0.1042 -0.6908
  472MOL0     C63612  -0.839   6.641   4.156 -0.4148  0.3638  0.3882
  472MOL0     C63613  -0.820   6.503   4.176  0.6929  0.3703  0.2911
  472MOL0     C63614  -0.877   6.394   4.086  0.6407  0.2798 -0.7331
  472MOL0     O63615  -0.905   6.432   3.961  0.1108 -0.1871  0.0887
  472MOL0     C63616  -0.894   6.334   3.862 -0.1811  0.0960 -0.1942
  472MOL0     C63617  -0.803   6.231   3.847 -0.8997 -0.5879  0.0391
  472MOL0     C63618  -0.784   6.147   3.737  0.0784  0.2440 -0.8855
  472MOL0     C63619  -0.861   6.177   3.626  0.2399  1.8266  0.0110
  472MOL0     O63620  -0.830   6.107   3.516  0.2974 -0.2116 -0.4131
  472MOL0     C63621  -0.938   6.021   3.473 -0.3807 -0.2454 -0.1484
  472MOL0     C63622  -0.900   5.881   3.527  0.5176 -0.3486  0.6710
  472MOL0     C63623  -0.812   5.798   3.428 -0.4149 -0.2272 -0.2538
  472MOL0     C63624  -0.666   5.835   3.423  0.2840 -0.7152  0.2650
  472MOL0     C63625  -0.582   5.795   3.544  0.1718 -0.9768 -0.7245
  472MOL0     C63626  -0.601   5.652   3.598  0.0775  0.7904  0.5972
  472MOL0     C63627  -0.499   5.640   3.706 -0.2451 -0.2236 -0.1789
  472MOL0     C63628  -0.504   5.514   3.785 -1.1454  0.0756 -0.4353
  472MOL0    Cl63629  -0.501   5.362   3.689  0.8627  0.3757 -0.2462
  472MOL0     C63630  -0.958   6.279   3.631 -1.4050 -0.6444  0.1732
  472MOL0     C63631  -0.978   6.351   3.756 -0.0390  0.9006 -0.1086
  472MOL0     O63632  -0.896   6.281   4.130  0.3400 -0.2103 -0.0664
  472MOL0     C63633  -0.753   6.475   4.299  0.8752  0.9406  0.6326
  472MOL0     C63634  -0.723   6.570   4.391 -0.1581 -0.4253 -0.7283
  472MOL0     N63635  -0.280   7.088   4.656  0.5473 -0.8088 -0.1577
  472MOL0     N63636  -0.157   7.121   4.652 -0.7426 -0.0846  0.0667
  472MOL0     C63637   1.039   6.974   5.001 -0.0129 -0.4599 -0.5022
  472MOL0     C63638   1.093   6.843   4.992  0.7441  0.1415  0.4819
  472MOL0     C63639   1.213   6.413   5.086 -0.0403  0.3296  0.3419
  472MOL0     C63640   1.116   6.363   5.168  0.0388  0.7095  0.3961
  472MOL0     C63641   1.124   6.222   5.204  1.2757  0.1574  0.2299
  472MOL0     C63642   1.218   6.136   5.154 -0.2162  0.3741  0.1884
  472MOL0     O63643   1.231   5.999   5.186 -0.5124 -0.6162  0.6522
  472MOL0     C63644   1.135   5.926   5.258 -0.0920  0.5247 -0.8627
  472MOL0     C63645   1.161   5.920   5.414 -0.0242 -1.3064 -0.5100
  472MOL0     C63646   1.304   5.884   5.444 -0.7451 -0.5801  0.9127
  472MOL0     C63647   1.409   6.002   5.438 -0.0209  0.4331 -0.9201
  472MOL0     C63648   1.451   6.062   5.570  0.0478  0.7903 -0.7569
  472MOL0     C63649   1.473   6.101   5.682 -0.2024  0.0879  1.3936
  472MOL0     C63650   1.320   6.193   5.079  0.1274  0.4761 -0.3099
  472MOL0     C63651   1.325   6.334   5.048  0.0388  1.0853  0.6039
  472MOL0     C63652   1.444   6.377   4.968  0.4302 -0.4139 -0.0212
  472MOL0     H63653   0.880   6.708   5.241 -2.5099  0.4218 -1.3467
  472MOL0     H63654   0.779   6.932   5.211 -0.3235  2.9566 -1.2794
  472MOL0     H63655   0.831   7.288   4.960 -2.7166 -0.7285 -2.8191
  472MOL0     H63656   0.950   7.189   4.889 -0.2564  1.5490 -1.0114
  472MOL0     H63657   0.800   7.031   4.811  0.5221 -1.2458  3.8104
  472MOL0     H63658   0.738   7.180   4.766  0.9718 -1.9686 -1.1414
  472MOL0     H63659   0.588   7.160   4.988 -2.3678 -0.3063 -0.1874
  472MOL0     H63660   0.629   6.995   4.979 -0.3604  2.2803  3.0972
  472MOL0     H63661   0.505   7.180   4.774 -0.8615  0.4956  0.0242
  472MOL0     H63662   0.543   7.018   4.717  0.5704 -1.5633  1.4851
  472MOL0     H63663   0.375   6.925   4.884  0.8159  0.2246  0.6618
  472MOL0     H63664   0.326   7.084   4.936  0.3023  2.3820 -1.2689
  472MOL0     H63665   0.266   7.147   4.695 -1.9784 -0.6734 -0.4319
  472MOL0     H63666   0.323   6.989   4.643 -0.4866 -0.3800 -0.3483
  472MOL0     H63667   0.083   7.026   4.819 -2.6907 -5.3861  1.7717
  472MOL0     H63668   0.159   6.882   4.771  4.3465  0.7359  1.7744
  472MOL0     H63669   0.092   7.092   4.567 -2.4545  2.0610  2.6375
  472MOL0     H63670   0.093   6.918   4.526 -2.2603 -0.7903  0.0701
  472MOL0     H63671  -0.143   6.806   4.577  1.1921 -0.1383  2.2615
  472MOL0     H63672  -0.432   6.824   4.549 -1.5376 -0.1479  1.1258
  472MOL0     H63673  -0.426   6.799   4.728 -2.3689 -0.8092 -0.0888
  472MOL0     H63674  -0.536   7.017   4.748  1.7626 -0.7041 -0.9245
  472MOL0     H63675  -0.586   7.015   4.585  0.8338  3.9587  1.4530
  472MOL0     H63676  -0.747   6.915   4.768 -1.5108 -0.7074 -0.1803
  472MOL0     H63677  -0.639   6.771   4.757 -0.5404 -0.0730  0.2995
  472MOL0     H63678  -0.829   6.914   4.559 -0.7622 -1.3370  1.2382
  472MOL0     H63679  -0.836   6.747   4.610 -2.8302  1.4589  0.2010
  472MOL0     H63680  -0.815   6.847   4.236 -0.3409  0.0747  0.8803
  472MOL0     H63681  -0.897   6.685   4.075 -1.8682  1.0568  1.7747
  472MOL0     H63682  -0.737   6.218   3.933  0.8785 -2.1767 -1.4807
  472MOL0     H63683  -0.706   6.071   3.728  1.5360  1.5991 -0.1227
  472MOL0     H63684  -1.038   6.044   3.512 -0.0075 -3.4436  3.3348
  472MOL0     H63685  -0.945   6.025   3.364 -0.1489  1.3043 -0.1226
  472MOL0     H63686  -0.839   5.896   3.616  0.9723 -0.2415  0.3464
  472MOL0     H63687  -0.995   5.829   3.544 -0.0404 -0.2737 -1.7802
  472MOL0     H63688  -0.835   5.692   3.442 -0.4458 -0.0851  0.8957
  472MOL0     H63689  -0.849   5.825   3.329 -1.0450 -1.4059 -0.3616
  472MOL0     H63690  -0.660   5.942   3.400 -2.8423 -0.3587  0.6771
  472MOL0     H63691  -0.622   5.793   3.332  1.4722 -1.6219  1.2249
  472MOL0     H63692  -0.612   5.858   3.628  2.7751  1.4233 -1.4246
  472MOL0     H63693  -0.476   5.819   3.529  0.3628 -2.4676 -1.9540
  472MOL0     H63694  -0.703   5.640   3.636 -0.7512 -1.2814 -1.9985
  472MOL0     H63695  -0.579   5.577   3.522  0.2429 -0.2352  1.6203
  472MOL0     H63696  -0.518   5.729   3.767  0.2943  0.9793 -1.7178
  472MOL0     H63697  -0.400   5.655   3.663  0.0366  2.6042  1.2017
  472MOL0     H63698  -0.416   5.509   3.851 -2.5197 -0.7619  1.4246
  472MOL0     H63699  -0.580   5.514   3.863 -2.3831 -1.7929 -1.5854
  472MOL0     H63700  -1.015   6.299   3.541 -0.5960  2.2184  0.1883
  472MOL0     H63701  -1.047   6.434   3.751 -1.2252 -0.0696 -0.2104
  472MOL0     H63702  -0.728   6.370   4.312 -1.6166  0.3259  0.9934
  472MOL0     H63703  -0.670   6.538   4.481 -0.2630  2.7905  0.6250
  472MOL0     H63704   1.102   7.040   4.943  2.3771 -0.8185  1.5072
  472MOL0     H63705   1.184   6.833   4.935 -0.1948 -0.2224 -0.9933
  472MOL0     H63706   1.023   6.414   5.192 -1.4198 -1.5779 -0.0217
  472MOL0     H63707   1.052   6.189   5.279 -1.6159 -0.6931 -2.6843
  472MOL0     H63708   1.152   5.823   5.225  0.3013 -0.5457  2.2605
  472MOL0     H63709   1.033   5.956   5.233 -0.3354  1.5055  1.0686
  472MOL0     H63710   1.103   5.840   5.461  1.0749 -1.2180  1.0665
  472MOL0     H63711   1.133   6.011   5.468 -0.2726 -1.2545 -0.7260
  472MOL0     H63712   1.343   5.823   5.362  1.7153  1.6876  0.2273
  472MOL0     H63713   1.316   5.826   5.535 -1.9976 -0.4038  1.2078
  472MOL0     H63714   1.499   5.960   5.393  0.6455  2.3249 -1.4819
  472MOL0     H63715   1.382   6.084   5.371  2.7522  2.1184 -0.1423
  472MOL0     H63716   1.487   6.157   5.773  0.3445  1.0617  0.7300
  472MOL0     H63717   1.397   6.135   5.028  1.8654  1.6075  0.9269
  472MOL0     H63718   1.466   6.479   5.003 -2.5914 -0.4721  2.4705
  472MOL0     H63719   1.525   6.309   4.992 -0.7294 -1.5934  0.6905
  472MOL0     H63720   1.423   6.375   4.861 -5.2466 -0.8592  0.7680
  473MOL0     O63721  10.002   3.041   4.972 -0.0353 -0.6441 -0.8986
  473MOL0     C63722  10.121   3.064   4.985 -0.3422 -0.5631 -0.1446
  473MOL0     O63723  10.222   3.020   4.902 -0.3920 -0.0841 -0.0528
  473MOL0     C63724  10.181   2.949   4.788  0.0551  0.4109 -0.6028
  473MOL0     C63725  10.129   2.821   4.806  0.2847  0.3889 -0.1026
  473MOL0     C63726  10.052   2.756   4.710  0.3327  0.6795  0.3400
  473MOL0     C63727  10.042   2.813   4.577 -0.5152 -0.6973 -0.7614
  473MOL0     O63728   9.952   2.764   4.488 -0.4260  0.1068  0.3445
  473MOL0     C63729   9.879   2.640   4.521  0.2375 -0.6439  0.4251
  473MOL0     C63730   9.786   2.602   4.411  0.7606 -0.6485  0.4698
  473MOL0     C63731   9.851   2.563   4.276  0.3213 -0.4001 -0.9236
  473MOL0     C63732   9.741   2.511   4.181  0.7526 -0.1267  0.9598
  473MOL0     C63733   9.801   2.463   4.041 -0.3119 -0.1064  0.1576
  473MOL0     C63734   9.699   2.414   3.941  0.8584  1.0430  0.2699
  473MOL0     C63735   9.748   2.437   3.797  0.3442 -0.6508 -0.2395
  473MOL0     C63736   9.644   2.393   3.695  1.0431  0.7033 -0.1836
  473MOL0     N63737   9.682   2.416   3.554 -0.7007  0.5506  0.5090
  473MOL0     C63738   9.775   2.337   3.496 -0.5062 -0.0695 -0.9155
  473MOL0     C63739   9.809   2.405   3.385 -0.3531 -0.1348 -0.7093
  473MOL0     C63740   9.907   2.361   3.293  0.5401 -0.6065 -0.3446
  473MOL0     C63741  10.010   2.477   3.266 -0.0886  0.3484 -0.1770
  473MOL0     C63742  10.098   2.447   3.145 -0.6789  0.1610  0.6579
  473MOL0     C63743  10.188   2.562   3.098 -0.3435 -0.4276 -0.9027
  473MOL0     O63744  10.274   2.508   2.996 -0.4418  0.2161  0.4908
  473MOL0     C63745  10.392   2.574   2.960  0.9968 -0.2866 -0.8017
  473MOL0     C63746  10.463   2.517   2.865 -0.0161  0.3968  0.3734
  473MOL0     C63747  10.579   2.575   2.821 -0.4055 -0.1522  0.9104
  473MOL0     C63748  10.621   2.702   2.866 -0.0068  0.9304  0.7461
  473MOL0     C63749  10.729   2.778   2.802 -1.6867  0.4486 -0.0601
  473MOL0     O63750  10.715   2.913   2.810  0.3003 -0.1175 -0.3217
  473MOL0     C63751  10.810   2.998   2.759  0.4357 -0.4992 -0.3430
  473MOL0     C63752  10.874   2.966   2.635 -0.0638  0.7622  0.3519
  473MOL0     C63753  10.972   3.044   2.577  0.9765 -0.7381  0.0970
  473MOL0     C63754  11.019   3.163   2.646 -0.1081  0.3815 -0.8884
  473MOL0     O63755  11.118   3.249   2.609  0.4032  0.5423  0.4652
  473MOL0     C63756  11.142   3.265   2.463  0.9643 -0.6601 -0.1498
  473MOL0     C63757  11.016   3.314   2.388 -1.0782  0.1557 -1.3460
  473MOL0     C63758  10.972   3.455   2.452  0.1552 -0.7345  0.1459
  473MOL0     C63759  10.889   3.533   2.349 -0.0878  0.4851 -0.3102
  473MOL0     C63760  10.986   3.600   2.252 -0.9200  0.6171 -1.1921
  473MOL0     C63761  10.919   3.689   2.154  0.2135 -0.4398 -0.1645
  473MOL0     C63762  11.005   3.718   2.030  0.5670 -0.1548 -0.5644
  473MOL0     C63763  11.011   3.601   1.921 -1.0498  0.8356  0.3019
  473MOL0    Cl63764  11.080   3.652   1.766  0.3773 -0.3577  0.1394
  473MOL0     C63765  10.947   3.199   2.769  0.5015 -0.3185  0.1448
  473MOL0     C63766  10.851   3.117   2.830  0.4423 -0.8240 -0.2534
  473MOL0     O63767  10.826   2.717   2.755  0.4833 -0.2205 -0.7625
  473MOL0     C63768  10.537   2.769   2.957  0.1729  0.7974  0.4100
  473MOL0     C63769  10.425   2.706   3.005  0.1464 -0.0549  0.2537
  473MOL0     N63770   9.738   2.524   3.381  0.3581  0.4523 -0.4736
  473MOL0     N63771   9.669   2.526   3.488  0.5201  0.1108 -0.1977
  473MOL0     C63772  10.102   2.935   4.553 -0.0441  0.0148 -0.7600
  473MOL0     C63773  10.172   3.003   4.659  1.4309  0.6489  1.0459
  473MOL0     C63774  10.161   3.153   5.097 -0.0394  0.6671  0.2268
  473MOL0     C63775  10.104   3.124   5.222 -0.5218  0.3642  0.4969
  473MOL0     C63776  10.134   3.197   5.327 -0.3984 -1.1071  1.2996
  473MOL0     C63777  10.209   3.307   5.320 -0.9418  0.1474  0.9143
  473MOL0     O63778  10.246   3.386   5.430  0.5098  0.8263  0.4406
  473MOL0     C63779  10.279   3.315   5.548  0.7776 -0.2651 -0.0353
  473MOL0     C63780  10.402   3.364   5.585  0.1039  1.2359 -0.3949
  473MOL0     C63781  10.461   3.253   5.680 -0.0356  1.0972  0.3118
  473MOL0     C63782  10.595   3.281   5.741  0.2314  0.1974  0.1932
  473MOL0     C63783  10.608   3.411   5.811  0.1149  0.1613 -0.2462
  473MOL0     C63784  10.580   3.520   5.861 -0.5471  0.7371 -0.6239
  473MOL0     C63785  10.270   3.334   5.198  0.1356 -0.6877  0.4174
  473MOL0     C63786  10.250   3.260   5.081  0.5795 -0.0688 -0.4233
  473MOL0     C63787  10.336   3.301   4.958 -0.2423  0.3681  0.2009
  473MOL0     H63788  10.138   2.787   4.909  2.9716  0.2621 -0.3293
  473MOL0     H63789  10.003   2.664   4.742 -3.2340  1.1883 -3.0254
  473MOL0     H63790   9.952   2.561   4.539 -1.4094 -2.1140  0.9215
  473MOL0     H63791   9.834   2.653   4.620 -1.4030 -0.1337 -0.3657
  473MOL0     H63792   9.715   2.684   4.397 -2.9069 -3.3447  1.4716
  473MOL0     H63793   9.712   2.529   4.448 -4.3012  3.4420 -0.3675
  473MOL0     H63794   9.937   2.496   4.285  0.6311 -0.0770 -1.4145
  473MOL0     H63795   9.903   2.649   4.232 -0.1220 -0.0624 -0.8022
  473MOL0     H63796   9.686   2.432   4.233 -0.4366 -0.6156 -0.9258
  473MOL0     H63797   9.666   2.588   4.163 -0.5600 -0.9656  2.5794
  473MOL0     H63798   9.838   2.553   3.991  0.6531 -0.7056 -0.2400
  473MOL0     H63799   9.886   2.395   4.046 -1.1217 -1.2838 -1.3022
  473MOL0     H63800   9.678   2.308   3.956 -1.1875  1.6736  2.3781
  473MOL0     H63801   9.600   2.458   3.950  0.6800  0.4388  1.6851
  473MOL0     H63802   9.847   2.390   3.797  1.7067  1.6458  4.1383
  473MOL0     H63803   9.748   2.545   3.784 -3.0103 -0.4159  0.7065
  473MOL0     H63804   9.622   2.287   3.708 -2.6336  0.9314 -2.8777
  473MOL0     H63805   9.549   2.443   3.718  1.6746  1.5353  0.7485
  473MOL0     H63806   9.826   2.252   3.540 -0.5628  0.0166 -0.6805
  473MOL0     H63807   9.953   2.267   3.324 -0.4334 -1.0956 -0.3253
  473MOL0     H63808   9.851   2.340   3.201 -1.5750  1.6676  0.3164
  473MOL0     H63809   9.958   2.567   3.232  0.7943  0.7231 -0.5750
  473MOL0     H63810  10.060   2.508   3.359  0.5813 -0.2440 -0.3351
  473MOL0     H63811  10.052   2.407   3.055 -0.0943 -0.9111  0.8160
  473MOL0     H63812  10.156   2.357   3.169 -0.2850  0.7937  2.2047
  473MOL0     H63813  10.248   2.598   3.182  0.3620 -2.6878 -0.3472
  473MOL0     H63814  10.120   2.640   3.062 -0.2904  0.8244  1.4995
  473MOL0     H63815  10.428   2.429   2.812  0.0625  1.0604 -0.8077
  473MOL0     H63816  10.632   2.514   2.749 -2.1383 -3.5336  2.2898
  473MOL0     H63817  10.855   2.872   2.584  1.0348  0.6806  0.0664
  473MOL0     H63818  11.014   3.023   2.479  2.2895  0.5462  0.3346
  473MOL0     H63819  11.215   3.347   2.459  1.9457 -1.4291  1.0697
  473MOL0     H63820  11.175   3.173   2.415  0.7426 -1.6372  1.5041
  473MOL0     H63821  11.037   3.340   2.284 -0.4029  1.7400 -0.8536
  473MOL0     H63822  10.943   3.233   2.386  1.0131 -1.7901 -3.1326
  473MOL0     H63823  10.917   3.451   2.546  0.1036  1.6868  0.2724
  473MOL0     H63824  11.062   3.516   2.463 -0.4234  0.1117  0.2061
  473MOL0     H63825  10.830   3.603   2.408 -0.3774 -0.2834  0.3313
  473MOL0     H63826  10.816   3.473   2.294 -1.2901  3.0536 -1.6765
  473MOL0     H63827  11.045   3.529   2.194  0.8284  1.7215 -0.8461
  473MOL0     H63828  11.056   3.660   2.311 -0.0031  0.7325 -2.3437
  473MOL0     H63829  10.821   3.650   2.125 -0.2205  0.6882 -0.2970
  473MOL0     H63830  10.893   3.789   2.190 -0.8883  0.2214 -2.5494
  473MOL0     H63831  11.108   3.729   2.065  0.9754 -2.4074 -0.8825
  473MOL0     H63832  10.966   3.815   1.997  1.0410  1.0792  2.2066
  473MOL0     H63833  11.065   3.513   1.960 -0.7516  1.1462  0.6016
  473MOL0     H63834  10.910   3.570   1.895 -0.1034 -0.7684 -1.7340
  473MOL0     H63835  10.970   3.293   2.817 -1.7357 -0.2083  1.1152
  473MOL0     H63836  10.792   3.134   2.919  0.1387 -1.4758 -0.3274
  473MOL0     H63837  10.559   2.868   2.997 -2.3489  0.2072  3.6049
  473MOL0     H63838  10.366   2.762   3.077 -0.3152  3.1178 -2.3999
  473MOL0     H63839  10.112   2.986   4.458  1.3734  0.9791 -0.1091
  473MOL0     H63840  10.233   3.092   4.643 -0.4705  1.7120 -0.8868
  473MOL0     H63841  10.034   3.042   5.228  2.1716 -2.0490  1.0508
  473MOL0     H63842  10.086   3.181   5.423 -1.3593  3.9600  1.9351
  473MOL0     H63843  10.292   3.208   5.527 -3.6090 -0.8372 -0.8495
  473MOL0     H63844  10.207   3.325   5.630  1.2062  0.1560  0.2961
  473MOL0     H63845  10.381   3.458   5.637 -3.7631 -0.5738  1.8085
  473MOL0     H63846  10.463   3.388   5.497 -1.2807  1.9267 -1.2027
  473MOL0     H63847  10.457   3.152   5.637 -0.6151  0.4584  1.8009
  473MOL0     H63848  10.402   3.237   5.770  0.0024 -0.4970  0.0893
  473MOL0     H63849  10.616   3.204   5.816 -1.0981  0.4993  0.9064
  473MOL0     H63850  10.666   3.268   5.659 -1.0510 -4.3066 -0.4888
  473MOL0     H63851  10.563   3.608   5.919  0.3151  0.3541  0.2186
  473MOL0     H63852  10.338   3.418   5.209 -1.8900  1.2368 -0.9086
  473MOL0     H63853  10.296   3.384   4.900 -3.6357  0.4729  2.4535
  473MOL0     H63854  10.427   3.344   5.001  0.0705 -1.2376  1.2352
  473MOL0     H63855  10.369   3.216   4.896 -2.1229 -1.3694  1.4666
  474MOL0     O63856  10.071  11.297  10.656  0.3720 -0.3716 -0.3017
  474MOL0     C63857  10.056  11.226  10.764 -0.0413  0.1956  0.7331
  474MOL0     O63858  10.050  11.276  10.892  0.1160 -0.1881 -0.1044
  474MOL0     C63859  10.048  11.407  10.932  0.5340  0.3068  0.3760
  474MOL0     C63860  10.157  11.461  11.013  0.3048 -0.4987  0.5281
  474MOL0     C63861  10.154  11.591  11.069 -0.5328 -1.0707  0.2820
  474MOL0     C63862  10.038  11.661  11.039 -0.1952  0.1733  1.1819
  474MOL0     O63863  10.024  11.794  11.076  0.0553 -0.4145 -0.2669
  474MOL0     C63864  10.139  11.883  11.059  0.3079  0.5131  0.5376
  474MOL0     C63865  10.215  11.924  11.194  0.1082  0.2262 -0.4948
  474MOL0     C63866  10.267  12.071  11.185 -0.2913 -0.8364  0.6655
  474MOL0     C63867  10.369  12.095  11.076  0.2608 -0.5114 -0.4112
  474MOL0     C63868  10.429  12.238  11.084  0.1342 -0.1709  0.7151
  474MOL0     C63869  10.548  12.256  10.994  0.0502 -0.0142  0.0490
  474MOL0     C63870  10.546  12.223  10.844  1.0435 -0.2853  0.0465
  474MOL0     C63871  10.514  12.348  10.763 -0.3581  0.8294  0.0412
  474MOL0     N63872  10.633  12.417  10.716 -1.1992  0.7163 -1.3904
  474MOL0     C63873  10.742  12.475  10.784  0.4110  0.1254 -0.4027
  474MOL0     C63874  10.817  12.546  10.690 -0.1236  0.7826  0.3099
  474MOL0     C63875  10.946  12.630  10.716 -0.0240 -0.6385  0.1538
  474MOL0     C63876  10.960  12.743  10.612 -0.3551  0.0093  0.2656
  474MOL0     C63877  11.084  12.821  10.654  0.0664 -0.3402  0.6845
  474MOL0     C63878  11.225  12.758  10.674 -0.2475  0.0896  0.0672
  474MOL0     O63879  11.224  12.684  10.795 -0.3008  0.2325 -0.7144
  474MOL0     C63880  11.292  12.574  10.833 -0.4629 -0.0630  0.8444
  474MOL0     C63881  11.395  12.517  10.748  0.0038 -0.0026  0.9846
  474MOL0     C63882  11.458  12.400  10.787 -0.2846 -0.2216 -0.5725
  474MOL0     C63883  11.446  12.345  10.917  0.7002  0.7087 -0.1948
  474MOL0     C63884  11.526  12.226  10.958 -1.0534  0.2368  0.7869
  474MOL0     O63885  11.506  12.170  11.075  0.3068 -0.4317 -0.3625
  474MOL0     C63886  11.604  12.132  11.166 -0.7089  0.0673 -0.1258
  474MOL0     C63887  11.743  12.140  11.152  0.2412  0.1092  0.4725
  474MOL0     C63888  11.824  12.100  11.261 -0.4512 -0.0833 -0.0947
  474MOL0     C63889  11.777  12.055  11.387  0.0699 -0.2707 -0.0715
  474MOL0     O63890  11.856  12.053  11.500 -0.9106 -0.3092 -0.3406
  474MOL0     C63891  11.908  12.176  11.549  0.2307  1.1841 -0.4559
  474MOL0     C63892  11.801  12.274  11.588  0.8653 -0.0011 -0.0621
  474MOL0     C63893  11.715  12.216  11.710  0.2549 -0.8587 -0.7615
  474MOL0     C63894  11.708  12.307  11.838  1.1498 -0.4462  0.6314
  474MOL0     C63895  11.622  12.234  11.948  0.4481 -0.2587  0.8883
  474MOL0     C63896  11.573  12.332  12.060  0.0456 -0.3518  0.3541
  474MOL0     C63897  11.463  12.284  12.151 -0.4140 -0.7191 -0.1585
  474MOL0     C63898  11.514  12.205  12.278 -0.8223 -0.8424  0.9090
  474MOL0    Cl63899  11.538  12.026  12.253  0.2224 -0.0685  0.1380
  474MOL0     C63900  11.632  12.032  11.393 -0.0978  0.2538  0.9210
  474MOL0     C63901  11.553  12.063  11.283  0.2599 -0.4247  0.3559
  474MOL0     O63902  11.613  12.190  10.879 -1.2275 -0.5004  0.7953
  474MOL0     C63903  11.352  12.417  10.999  1.3430  0.5471  0.5687
  474MOL0     C63904  11.280  12.531  10.957 -0.9700 -0.4633 -0.1935
  474MOL0     N63905  10.751  12.540  10.565 -0.2226  0.6141  0.6453
  474MOL0     N63906  10.651  12.447  10.583  0.7732 -0.0959  0.2776
  474MOL0     C63907   9.934  11.614  10.956 -0.0348 -0.5691  0.8184
  474MOL0     C63908   9.946  11.487  10.888  0.1123 -0.2716  0.1616
  474MOL0     C63909  10.038  11.074  10.753 -0.0261 -0.0901 -1.0560
  474MOL0     C63910   9.999  11.003  10.865 -0.8462  0.2183 -0.3101
  474MOL0     C63911   9.962  10.866  10.861  0.0025 -0.9255  0.3646
  474MOL0     C63912   9.953  10.805  10.734  1.0215 -0.6081  0.3788
  474MOL0     O63913   9.903  10.682  10.695  0.5303 -0.4470  0.5187
  474MOL0     C63914   9.778  10.637  10.758  0.3010  0.9223  0.1118
  474MOL0     C63915   9.692  10.554  10.657 -0.4288  0.0606 -1.3909
  474MOL0     C63916   9.619  10.647  10.559 -0.3967  0.0435  0.4532
  474MOL0     C63917   9.516  10.567  10.488  0.1343  0.3966  0.5907
  474MOL0     C63918   9.453  10.645  10.378 -0.4597  0.1591 -0.2835
  474MOL0     C63919   9.391  10.705  10.295 -0.0529  0.3251  0.6338
  474MOL0     C63920  10.008  10.874  10.625  0.1760  0.7288  0.0991
  474MOL0     C63921  10.055  10.997  10.635  0.7158 -0.5564 -0.6136
  474MOL0     C63922  10.110  11.051  10.511  1.1394  0.5405  0.9316
  474MOL0     H63923  10.231  11.390  11.049  1.4957 -0.6553 -2.0266
  474MOL0     H63924  10.230  11.618  11.142 -1.1499 -2.2958  1.4302
  474MOL0     H63925  10.218  11.849  10.992 -1.5160  2.0150 -2.5655
  474MOL0     H63926  10.088  11.961  11.003  0.5179  0.2439 -0.0358
  474MOL0     H63927  10.299  11.857  11.215 -1.4303 -1.6154  0.1467
  474MOL0     H63928  10.144  11.927  11.277 -1.4597  1.5882 -1.8060
  474MOL0     H63929  10.311  12.103  11.281  1.9884 -0.3157 -0.4719
  474MOL0     H63930  10.182  12.139  11.170 -0.8803 -1.7491 -0.2223
  474MOL0     H63931  10.451  12.023  11.082 -2.1201 -3.3707  0.0347
  474MOL0     H63932  10.317  12.093  10.980  1.1789  0.1948 -0.9470
  474MOL0     H63933  10.359  12.317  11.056  1.0712  0.1293 -0.8721
  474MOL0     H63934  10.466  12.248  11.187  2.7125 -1.3160 -0.0307
  474MOL0     H63935  10.580  12.360  11.005  1.1418 -0.5151  2.0303
  474MOL0     H63936  10.635  12.203  11.034 -0.3944 -1.6649 -1.0658
  474MOL0     H63937  10.467  12.151  10.817 -3.2059  2.9085  2.6309
  474MOL0     H63938  10.651  12.196  10.837  0.8862 -1.9205  2.5312
  474MOL0     H63939  10.457  12.318  10.675 -3.6702  3.8329  0.9109
  474MOL0     H63940  10.447  12.423  10.807  0.1098  1.0748  0.3483
  474MOL0     H63941  10.770  12.480  10.889 -0.4810  0.6456 -0.1775
  474MOL0     H63942  10.954  12.655  10.822 -0.5723  1.1830 -0.1895
  474MOL0     H63943  11.024  12.556  10.699 -0.4130 -0.9786 -0.1844
  474MOL0     H63944  10.966  12.712  10.507  0.4179 -0.1472  0.3524
  474MOL0     H63945  10.873  12.810  10.609  2.6481  4.3071 -2.7523
  474MOL0     H63946  11.054  12.865  10.750 -0.0413  0.7609  0.1617
  474MOL0     H63947  11.069  12.915  10.599 -0.0835  0.7860  2.5476
  474MOL0     H63948  11.295  12.839  10.656 -0.3528  0.0439 -0.5581
  474MOL0     H63949  11.238  12.690  10.589  0.3591 -0.1544  0.3496
  474MOL0     H63950  11.407  12.549  10.645 -0.3956 -1.2323  0.5311
  474MOL0     H63951  11.523  12.352  10.715 -1.4113 -0.3347 -1.5429
  474MOL0     H63952  11.779  12.164  11.052 -1.5717 -1.7387 -0.7037
  474MOL0     H63953  11.930  12.114  11.282 -0.7299  1.9092  0.1960
  474MOL0     H63954  11.957  12.146  11.643 -2.3747  3.3949  1.7825
  474MOL0     H63955  11.972  12.225  11.475  1.1667  0.7273  0.0293
  474MOL0     H63956  11.835  12.375  11.612  1.6186 -0.4071  0.6055
  474MOL0     H63957  11.728  12.292  11.509  1.3121  0.8448 -0.2920
  474MOL0     H63958  11.611  12.190  11.688 -0.8352  1.4833  1.1045
  474MOL0     H63959  11.763  12.126  11.748  0.9349  0.5560  1.9581
  474MOL0     H63960  11.656  12.395  11.799  1.4478 -0.8365 -0.6956
  474MOL0     H63961  11.803  12.341  11.880  1.0039 -0.5332  1.0369
  474MOL0     H63962  11.679  12.154  11.996 -1.1812 -3.0503 -1.4777
  474MOL0     H63963  11.551  12.169  11.896  1.3960 -5.3888  5.1829
  474MOL0     H63964  11.661  12.374  12.109 -0.0746 -0.9508  1.1049
  474MOL0     H63965  11.519  12.414  12.013 -2.4031 -2.0496 -0.0115
  474MOL0     H63966  11.387  12.223  12.103 -2.5385  0.2594  1.7330
  474MOL0     H63967  11.400  12.364  12.191  3.6224  1.7061  2.0995
  474MOL0     H63968  11.609  12.250  12.309 -2.8366  4.7057  0.2729
  474MOL0     H63969  11.444  12.208  12.362  0.4781 -1.6759  2.0628
  474MOL0     H63970  11.587  11.989  11.482 -2.3364  0.9936  0.2207
  474MOL0     H63971  11.446  12.048  11.295  0.4940 -2.6646 -0.0182
  474MOL0     H63972  11.319  12.376  11.094  1.7510  2.0902  1.4135
  474MOL0     H63973  11.222  12.585  11.031  0.3686  1.7846 -0.6792
  474MOL0     H63974   9.845  11.669  10.928  0.5677 -1.0243 -2.3141
  474MOL0     H63975   9.884  11.449  10.807 -0.5886 -1.6888  1.3095
  474MOL0     H63976   9.993  11.052  10.962  2.9934 -0.0677  0.2255
  474MOL0     H63977   9.927  10.816  10.951  0.1818 -2.7028 -0.5133
  474MOL0     H63978   9.717  10.726  10.777 -0.6461 -0.1081  2.1877
  474MOL0     H63979   9.790  10.584  10.852 -1.8705  0.1934  0.0370
  474MOL0     H63980   9.624  10.486  10.709  0.9456  1.0013  1.9076
  474MOL0     H63981   9.767  10.493  10.604  0.0907  0.4963 -1.1596
  474MOL0     H63982   9.685  10.677  10.477 -0.0210 -0.1412  0.6881
  474MOL0     H63983   9.588  10.733  10.620 -1.2816  0.1185 -0.0816
  474MOL0     H63984   9.560  10.474  10.449 -1.6710 -2.7709  5.3182
  474MOL0     H63985   9.432  10.533  10.549  0.1842 -2.5464 -0.7607
  474MOL0     H63986   9.332  10.767  10.231 -0.5059  0.2790  1.0034
  474MOL0     H63987  10.015  10.821  10.531 -0.8788 -0.4003  0.6345
  474MOL0     H63988  10.140  10.969  10.445  0.1795 -0.5414  1.8118
  474MOL0     H63989  10.026  11.106  10.468  1.8293  1.4605  0.7128
  474MOL0     H63990  10.194  11.117  10.536  1.2732 -1.1668  6.2604
  475MOL0     O63991   9.833   4.977   4.082  0.2582 -0.0014  0.4848
  475MOL0     C63992   9.834   4.876   4.006 -1.1895 -0.4323 -0.2102
  475MOL0     O63993   9.732   4.825   3.933 -0.1589 -0.0649  0.3296
  475MOL0     C63994   9.616   4.894   3.932  0.5499 -0.3865 -0.4417
  475MOL0     C63995   9.540   4.913   4.052  0.2432  0.4546  0.3928
  475MOL0     C63996   9.407   4.968   4.047  0.6511 -0.3276 -0.2116
  475MOL0     C63997   9.351   5.017   3.926 -0.3428  0.6908  0.0342
  475MOL0     O63998   9.220   5.056   3.926 -0.3884  0.4679  0.2070
  475MOL0     C63999   9.159   5.053   3.796  0.2078  0.3633  0.3017
  475MOL0     C64000   9.014   5.098   3.807  0.6999  0.3978 -0.2616
  475MOL0     C64001   8.914   5.067   3.692  0.1925 -0.3979 -0.4692
  475MOL0     C64002   8.967   5.127   3.556  1.0228  0.5953  0.0782
  475MOL0     C64003   8.865   5.115   3.442 -0.0614  1.1267  0.8276
  475MOL0     C64004   8.737   5.195   3.457 -0.2433  0.3900 -0.2970
  475MOL0     C64005   8.739   5.334   3.531  0.0553 -0.3771  0.0762
  475MOL0     C64006   8.839   5.429   3.464  1.1063  0.0941  0.2905
  475MOL0     N64007   8.790   5.544   3.391  1.1426 -0.3761 -0.4124
  475MOL0     C64008   8.877   5.613   3.313 -0.3250  0.4935 -0.2798
  475MOL0     C64009   8.799   5.665   3.218  0.2496  0.9672  0.1031
  475MOL0     C64010   8.842   5.742   3.099  0.3725 -0.2237  0.5283
  475MOL0     C64011   8.735   5.810   3.006  0.4005 -0.0090 -0.4699
  475MOL0     C64012   8.782   5.834   2.857  0.2756  0.2043 -0.7841
  475MOL0     C64013   8.900   5.925   2.845  0.2365 -0.4868 -0.1387
  475MOL0     O64014   8.996   5.878   2.759  0.4641 -0.4453  0.0070
  475MOL0     C64015   9.003   5.906   2.629  0.3807  0.3917  0.2160
  475MOL0     C64016   9.120   5.885   2.556 -0.5165 -0.2424 -0.3062
  475MOL0     C64017   9.129   5.906   2.423  0.2962 -0.1755  0.3145
  475MOL0     C64018   9.016   5.962   2.351  0.9542  0.8140  1.0053
  475MOL0     C64019   9.008   5.990   2.210 -0.3292 -0.2124  0.2532
  475MOL0     O64020   9.113   5.941   2.130  0.2270 -1.1176 -0.4878
  475MOL0     C64021   9.105   5.968   1.993  0.0838  0.3395 -0.6488
  475MOL0     C64022   9.042   5.866   1.922  0.7303 -0.5996  0.3433
  475MOL0     C64023   9.005   5.892   1.789 -0.6390  0.3888 -0.2806
  475MOL0     C64024   9.040   6.007   1.721 -0.0539 -0.2814 -0.3554
  475MOL0     O64025   9.001   6.056   1.597 -0.1513  0.7094  0.0353
  475MOL0     C64026   8.966   5.957   1.494  0.5808  0.4187 -0.6163
  475MOL0     C64027   9.049   5.996   1.372  0.5772  0.5977 -0.6218
  475MOL0     C64028   9.017   6.125   1.315 -0.0834 -1.1295  0.3798
  475MOL0     C64029   9.094   6.249   1.369  0.2863 -0.2958  0.3563
  475MOL0     C64030   9.042   6.393   1.322 -0.0368  0.0458  1.3780
  475MOL0     C64031   9.039   6.413   1.169  0.0619 -0.4305  0.7522
  475MOL0     C64032   9.165   6.394   1.095 -0.5685 -0.5687 -0.7104
  475MOL0     C64033   9.183   6.481   0.971  0.4907  1.0941  0.0593
  475MOL0    Cl64034   9.177   6.652   1.018  0.4778 -0.0433 -0.0150
  475MOL0     C64035   9.128   6.093   1.795  0.2679  0.0023  0.4694
  475MOL0     C64036   9.158   6.082   1.931 -0.2316 -0.6391 -0.0093
  475MOL0     O64037   8.910   6.040   2.163  0.6126  0.0094 -0.1489
  475MOL0     C64038   8.890   5.987   2.426 -0.7640 -0.2685 -0.2658
  475MOL0     C64039   8.894   5.959   2.565  0.7522  0.4949  0.5230
  475MOL0     N64040   8.665   5.630   3.240 -0.5190 -0.0644  0.1201
  475MOL0     N64041   8.661   5.545   3.342  0.1770  0.4752  0.3114
  475MOL0     C64042   9.433   5.003   3.809  0.2264  0.9073 -0.4676
  475MOL0     C64043   9.561   4.939   3.809 -0.2898 -0.0898 -0.3967
  475MOL0     C64044   9.969   4.808   3.993  0.5259 -0.4545  0.4684
  475MOL0     C64045   9.964   4.670   3.960 -0.1625  0.7026 -0.3513
  475MOL0     C64046  10.083   4.591   3.980  0.0833 -0.9330  1.1971
  475MOL0     C64047  10.203   4.638   4.023  0.2139 -0.2020 -1.0157
  475MOL0     O64048  10.301   4.553   4.069  0.2059  1.1061  0.7118
  475MOL0     C64049  10.439   4.590   4.091  0.0096  0.3356  0.2979
  475MOL0     C64050  10.535   4.498   4.024  0.8184  0.5689 -0.3118
  475MOL0     C64051  10.684   4.535   4.040 -0.4773  0.7155  0.0516
  475MOL0     C64052  10.734   4.644   3.949  0.6811  0.1464 -0.4099
  475MOL0     C64053  10.691   4.773   3.999  0.4905 -1.0750 -0.6367
  475MOL0     C64054  10.647   4.877   4.040  0.5572 -0.6605 -1.4330
  475MOL0     C64055  10.207   4.774   4.047  0.2925  0.2965  0.2414
  475MOL0     C64056  10.091   4.858   4.030 -0.0401 -0.1804  0.3437
  475MOL0     C64057  10.116   5.003   4.060 -0.4037  0.3789 -0.2984
  475MOL0     H64058   9.580   4.885   4.149  0.9206 -3.4794 -0.8457
  475MOL0     H64059   9.344   4.983   4.135  1.4728  1.2895  0.1342
  475MOL0     H64060   9.212   5.132   3.742 -0.2667  0.2616 -0.3272
  475MOL0     H64061   9.169   4.954   3.751  1.8001 -0.1927  1.7522
  475MOL0     H64062   9.016   5.207   3.818 -0.1673  0.5938 -1.7626
  475MOL0     H64063   8.971   5.062   3.900  1.5587  1.3661  0.5443
  475MOL0     H64064   8.820   5.120   3.711  0.2596 -1.0928  2.1226
  475MOL0     H64065   8.903   4.958   3.686  2.8184 -0.7234 -0.4906
  475MOL0     H64066   8.999   5.231   3.570 -2.5592  1.8125  0.1364
  475MOL0     H64067   9.056   5.073   3.522  0.0317  0.8124 -3.2462
  475MOL0     H64068   8.912   5.139   3.346  1.2372  6.1015  2.4301
  475MOL0     H64069   8.837   5.009   3.447  1.3473  0.6439 -0.6466
  475MOL0     H64070   8.701   5.215   3.356 -1.5229  2.3944  0.4805
  475MOL0     H64071   8.662   5.127   3.499 -0.1936  1.3584  1.4772
  475MOL0     H64072   8.774   5.323   3.634  1.7384 -3.1721 -0.7109
  475MOL0     H64073   8.641   5.383   3.529  1.6130  3.0674  0.9984
  475MOL0     H64074   8.911   5.468   3.538  1.0562  1.3922 -0.3159
  475MOL0     H64075   8.900   5.371   3.394 -2.3991 -1.5476 -1.6232
  475MOL0     H64076   8.984   5.602   3.306 -0.5838 -2.0341 -1.1876
  475MOL0     H64077   8.914   5.820   3.125  1.0557 -0.7484  0.2461
  475MOL0     H64078   8.889   5.658   3.045  1.1468  0.2259  0.4874
  475MOL0     H64079   8.651   5.739   2.998  0.6202 -0.8228  2.9871
  475MOL0     H64080   8.693   5.895   3.059  0.1435 -1.9402  2.6918
  475MOL0     H64081   8.695   5.876   2.806 -0.7173  0.5440  1.0921
  475MOL0     H64082   8.793   5.734   2.815 -1.1577 -0.1821 -0.2988
  475MOL0     H64083   8.945   5.945   2.943 -1.6219 -0.9523  0.8731
  475MOL0     H64084   8.862   6.024   2.820  2.8407  0.1268 -2.0044
  475MOL0     H64085   9.208   5.854   2.613  0.6732 -1.0420 -2.4568
  475MOL0     H64086   9.225   5.885   2.376  0.6827  0.6439  0.7203
  475MOL0     H64087   9.006   5.774   1.967  2.9318  0.1588  4.0046
  475MOL0     H64088   8.935   5.825   1.740  0.7052  0.5172 -2.4999
  475MOL0     H64089   8.997   5.857   1.527  5.0737  2.1528  1.0935
  475MOL0     H64090   8.861   5.960   1.463 -0.0331 -2.1787  0.9077
  475MOL0     H64091   9.153   5.987   1.408 -0.4047  0.5108  2.5039
  475MOL0     H64092   9.033   5.915   1.300 -0.4137  1.5983 -1.5636
  475MOL0     H64093   9.037   6.106   1.209 -0.0773 -3.2733  0.7193
  475MOL0     H64094   8.909   6.137   1.330 -0.3110  3.0983 -2.8682
  475MOL0     H64095   9.201   6.249   1.346  0.2172  1.7587 -0.1563
  475MOL0     H64096   9.084   6.257   1.478 -1.8206  0.6228  0.1289
  475MOL0     H64097   9.104   6.468   1.374  0.3859 -0.4821  1.6402
  475MOL0     H64098   8.942   6.409   1.363  0.1206  1.3735  1.3176
  475MOL0     H64099   8.974   6.339   1.122 -0.7666 -0.2758  1.6062
  475MOL0     H64100   8.991   6.510   1.150 -0.9496 -0.3778  3.2245
  475MOL0     H64101   9.184   6.286   1.085  1.7378 -0.3836  0.9445
  475MOL0     H64102   9.245   6.430   1.160 -1.2586  1.1716 -0.7648
  475MOL0     H64103   9.270   6.460   0.909  0.8420 -3.3633  1.7394
  475MOL0     H64104   9.094   6.455   0.913  0.1192  0.6113  0.8173
  475MOL0     H64105   9.163   6.179   1.738 -0.3942 -0.3055 -0.4266
  475MOL0     H64106   9.222   6.159   1.972  0.8896 -2.1065  1.1192
  475MOL0     H64107   8.799   6.029   2.384 -5.2620 -4.3873  4.0242
  475MOL0     H64108   8.797   5.980   2.608  0.1884  1.1161 -0.9646
  475MOL0     H64109   9.402   5.045   3.714  2.1238  2.2790 -0.5271
  475MOL0     H64110   9.609   4.931   3.713  1.5903 -0.5956  0.5486
  475MOL0     H64111   9.867   4.621   3.950 -0.1283  0.1617  1.6649
  475MOL0     H64112  10.064   4.486   3.962 -2.2651 -0.0986 -2.0350
  475MOL0     H64113  10.460   4.602   4.198  0.4406 -1.4429  0.4527
  475MOL0     H64114  10.438   4.686   4.039  1.0211  0.9842  1.4252
  475MOL0     H64115  10.485   4.483   3.927  0.1300 -3.7476  0.4813
  475MOL0     H64116  10.530   4.402   4.075 -2.0914  0.6658 -0.2440
  475MOL0     H64117  10.730   4.444   3.999 -1.2608  2.2069 -4.7443
  475MOL0     H64118  10.717   4.560   4.142  1.0856  3.8186 -1.1004
  475MOL0     H64119  10.842   4.653   3.965  0.4106  0.9906  1.1601
  475MOL0     H64120  10.711   4.628   3.843 -1.2433 -1.0651  0.1438
  475MOL0     H64121  10.595   4.966   4.068 -0.0679 -1.5552  0.3517
  475MOL0     H64122  10.293   4.825   4.088 -1.5831  2.7972  1.3126
  475MOL0     H64123  10.050   5.028   4.144  0.1727 -1.9440  0.9109
  475MOL0     H64124  10.224   5.017   4.068 -0.0374  0.4436 -3.9207
  475MOL0     H64125  10.086   5.056   3.969 -1.0596 -1.5376 -1.2683
  476MOL0     O64126   0.898   2.780   3.908  0.3812  0.0812 -0.0082
  476MOL0     C64127   0.855   2.673   3.930 -0.9713 -0.1359 -0.0254
  476MOL0     O64128   0.789   2.648   4.049  0.1324  0.7166 -0.0792
  476MOL0     C64129   0.809   2.707   4.173 -0.2276  0.1873  0.4776
  476MOL0     C64130   0.921   2.774   4.203  0.1263  0.4664 -0.4543
  476MOL0     C64131   0.932   2.831   4.334  0.5060 -0.6293 -0.0427
  476MOL0     C64132   0.831   2.810   4.440  0.4236  0.3238 -0.3498
  476MOL0     O64133   0.852   2.868   4.563  0.0991  0.4943  0.7526
  476MOL0     C64134   0.746   2.880   4.650  0.1221 -1.0524  0.6949
  476MOL0     C64135   0.720   2.763   4.745 -0.5418 -0.5480  0.1010
  476MOL0     C64136   0.821   2.759   4.867  1.0269  0.4572 -0.0047
  476MOL0     C64137   0.772   2.684   4.991  0.4718  0.2905  0.0820
  476MOL0     C64138   0.892   2.670   5.097  0.3059  0.0296 -0.9201
  476MOL0     C64139   0.895   2.548   5.203  1.1357 -0.5487  0.2856
  476MOL0     C64140   0.979   2.590   5.314 -0.1602  0.4520  0.1118
  476MOL0     C64141   1.123   2.552   5.286 -0.8494 -0.2404 -0.0979
  476MOL0     N64142   1.197   2.556   5.414 -0.9042  0.0033 -0.5323
  476MOL0     C64143   1.294   2.455   5.442 -0.6463  0.0957 -0.5355
  476MOL0     C64144   1.313   2.480   5.580  0.3412  0.3674 -0.1579
  476MOL0     C64145   1.415   2.419   5.663  0.3419  0.3148 -0.3299
  476MOL0     C64146   1.558   2.472   5.636  0.4828  0.1360  0.7188
  476MOL0     C64147   1.572   2.607   5.709  0.0768 -0.1241  0.6798
  476MOL0     C64148   1.706   2.654   5.689 -0.1640 -0.1835  0.0677
  476MOL0     O64149   1.750   2.680   5.553  0.1428 -0.2161  0.2526
  476MOL0     C64150   1.702   2.795   5.499 -0.0355  0.8019 -0.1603
  476MOL0     C64151   1.613   2.783   5.392 -0.5171  0.0238  0.3008
  476MOL0     C64152   1.583   2.902   5.315 -0.1447  0.4542 -0.7657
  476MOL0     C64153   1.610   3.025   5.366 -0.5903 -1.0775 -0.3952
  476MOL0     C64154   1.546   3.152   5.309 -1.5583  0.5222 -0.0764
  476MOL0     O64155   1.575   3.275   5.348 -0.1799 -0.1398  0.4731
  476MOL0     C64156   1.523   3.387   5.286 -1.1451  0.3467 -0.6916
  476MOL0     C64157   1.509   3.402   5.148 -0.2123 -0.4877 -0.8236
  476MOL0     C64158   1.475   3.530   5.096 -1.5481  1.0150 -0.1335
  476MOL0     C64159   1.437   3.635   5.182  0.9115  0.7885 -0.8231
  476MOL0     O64160   1.410   3.766   5.145  0.2192  0.0303 -0.0019
  476MOL0     C64161   1.334   3.768   5.021  0.4859 -0.8789 -0.8768
  476MOL0     C64162   1.272   3.912   4.998 -0.5842 -0.6777  0.4281
  476MOL0     C64163   1.150   3.944   5.075 -0.3161 -0.9503  0.5092
  476MOL0     C64164   1.033   3.856   5.031 -0.2977 -0.9406 -0.4203
  476MOL0     C64165   0.906   3.906   5.092 -0.3620  0.3659 -0.4763
  476MOL0     C64166   0.785   3.818   5.056 -0.1199 -0.7856  0.5441
  476MOL0     C64167   0.652   3.895   5.045  0.5905 -0.5816  0.1031
  476MOL0     C64168   0.544   3.810   4.969 -0.5139 -0.1841  0.3950
  476MOL0    Cl64169   0.590   3.765   4.793  0.3419 -0.0275  0.2866
  476MOL0     C64170   1.450   3.618   5.320 -0.6341 -0.2282 -0.1420
  476MOL0     C64171   1.494   3.492   5.369 -0.1726 -0.5753 -0.5977
  476MOL0     O64172   1.472   3.128   5.221 -0.0222 -0.1919 -0.2994
  476MOL0     C64173   1.683   3.031   5.483 -0.8946 -0.9486  0.4240
  476MOL0     C64174   1.739   2.914   5.544 -0.3513  1.1846 -0.1969
  476MOL0     N64175   1.224   2.570   5.623 -1.0086 -0.5172 -0.3057
  476MOL0     N64176   1.150   2.613   5.525  0.7443  0.3799  0.2343
  476MOL0     C64177   0.716   2.749   4.392 -0.5054 -0.3498 -0.5250
  476MOL0     C64178   0.713   2.683   4.269  0.3223 -0.3517 -1.2572
  476MOL0     C64179   0.829   2.576   3.822  0.2929 -1.0388 -0.4445
  476MOL0     C64180   0.732   2.480   3.851 -0.4589  0.7459  0.7734
  476MOL0     C64181   0.733   2.369   3.766  0.0797 -0.4543 -0.1325
  476MOL0     C64182   0.823   2.355   3.665  1.1976  0.8860 -0.5305
  476MOL0     O64183   0.809   2.240   3.600  0.3125 -0.2902 -0.0026
  476MOL0     C64184   0.922   2.197   3.523 -0.1979  0.2365 -0.5404
  476MOL0     C64185   0.899   2.042   3.494 -0.3499 -0.2987 -0.2369
  476MOL0     C64186   1.025   1.985   3.435  0.1399 -0.2512 -0.8449
  476MOL0     C64187   1.019   1.826   3.434  0.1722  0.3495 -0.3576
  476MOL0     C64188   0.928   1.769   3.347  0.2695  0.4778  0.4116
  476MOL0     C64189   0.833   1.741   3.272 -0.2288  0.0725  0.2328
  476MOL0     C64190   0.908   2.453   3.633 -0.0908 -0.3126  0.5269
  476MOL0     C64191   0.911   2.570   3.707 -0.5715 -0.9996 -0.6416
  476MOL0     C64192   1.007   2.679   3.665  1.0023  0.4171 -0.0947
  476MOL0     H64193   0.999   2.788   4.129 -0.7864 -1.3008 -1.8112
  476MOL0     H64194   1.019   2.888   4.367 -0.3402 -0.0853  1.3340
  476MOL0     H64195   0.753   2.966   4.718 -3.9489 -2.8417  3.7556
  476MOL0     H64196   0.661   2.906   4.587  0.3943  1.1587  1.1407
  476MOL0     H64197   0.724   2.673   4.682  0.9961  1.6648 -3.2776
  476MOL0     H64198   0.617   2.778   4.778 -0.5706  0.1259 -0.2777
  476MOL0     H64199   0.844   2.851   4.921  0.1705  0.3081  0.6344
  476MOL0     H64200   0.916   2.719   4.831  0.7436 -0.7039  0.4919
  476MOL0     H64201   0.683   2.724   5.040  2.1892  3.5062  0.8540
  476MOL0     H64202   0.752   2.582   4.958 -1.0921  0.8972 -1.0168
  476MOL0     H64203   0.992   2.670   5.051  2.1355  2.8697  2.5521
  476MOL0     H64204   0.890   2.765   5.151 -1.1117 -1.0869  1.1309
  476MOL0     H64205   0.797   2.526   5.245 -0.2546 -0.5518 -2.6994
  476MOL0     H64206   0.934   2.460   5.152 -0.1104 -0.5316 -0.7453
  476MOL0     H64207   0.944   2.540   5.405 -1.2640 -0.0566 -0.5647
  476MOL0     H64208   0.977   2.696   5.342 -3.7018  0.8079 -0.9776
  476MOL0     H64209   1.126   2.448   5.252 -0.1180 -0.1711 -0.2641
  476MOL0     H64210   1.164   2.616   5.208  1.9616 -2.5962 -0.7544
  476MOL0     H64211   1.343   2.381   5.381 -0.7049 -0.3531 -0.0461
  476MOL0     H64212   1.397   2.436   5.770  2.9752  1.0725  0.0646
  476MOL0     H64213   1.415   2.310   5.657  1.0723  0.1969  1.2398
  476MOL0     H64214   1.625   2.398   5.681 -0.1044  0.8645  2.9114
  476MOL0     H64215   1.579   2.473   5.529 -0.7123  0.5754  0.4700
  476MOL0     H64216   1.554   2.595   5.816  1.8797  1.0819  1.1583
  476MOL0     H64217   1.489   2.670   5.677 -0.7888 -2.5654 -2.4092
  476MOL0     H64218   1.772   2.574   5.723  2.0619  0.7907 -1.6104
  476MOL0     H64219   1.730   2.743   5.748 -0.7901  0.1711 -0.1997
  476MOL0     H64220   1.586   2.684   5.358  3.7063 -0.9132 -0.9382
  476MOL0     H64221   1.525   2.897   5.224 -1.6716  1.6065  0.1022
  476MOL0     H64222   1.533   3.311   5.095 -0.1152  0.5650 -2.6693
  476MOL0     H64223   1.468   3.548   4.989  1.2796  1.5991 -0.2936
  476MOL0     H64224   1.407   3.750   4.941  1.5297 -2.4248  0.3560
  476MOL0     H64225   1.254   3.694   5.026 -0.1051 -0.1953  3.0854
  476MOL0     H64226   1.350   3.984   5.023  0.2207 -1.0669 -0.8582
  476MOL0     H64227   1.256   3.923   4.891  0.5935  0.2588  0.3285
  476MOL0     H64228   1.163   3.918   5.180  0.7887  1.0655  0.9321
  476MOL0     H64229   1.133   4.052   5.074  0.8559 -0.6935 -2.4714
  476MOL0     H64230   1.050   3.752   5.060 -2.0764 -0.4806  2.8518
  476MOL0     H64231   1.042   3.872   4.923  2.8864  3.1248  0.1678
  476MOL0     H64232   0.898   4.013   5.071 -1.8130  0.3927  0.0663
  476MOL0     H64233   0.923   3.888   5.198 -2.5953 -2.1055 -0.4500
  476MOL0     H64234   0.801   3.771   4.958  1.7476  3.9344 -1.7167
  476MOL0     H64235   0.773   3.740   5.132  1.3812 -0.8571  0.7369
  476MOL0     H64236   0.667   3.983   4.982 -2.1062  0.2111  0.4571
  476MOL0     H64237   0.622   3.918   5.148 -2.9583 -1.8900 -0.5082
  476MOL0     H64238   0.533   3.716   5.024  1.2274 -1.1052 -0.7592
  476MOL0     H64239   0.451   3.867   4.963  0.9777  2.2345 -3.6071
  476MOL0     H64240   1.423   3.705   5.377 -0.9157  0.6905 -1.6287
  476MOL0     H64241   1.486   3.475   5.476 -0.3762 -1.0519 -0.6857
  476MOL0     H64242   1.712   3.121   5.535 -2.1676  0.2916 -0.9203
  476MOL0     H64243   1.797   2.915   5.635  2.4499  3.2715 -1.8658
  476MOL0     H64244   0.629   2.739   4.456 -3.0831  2.4089 -3.2847
  476MOL0     H64245   0.620   2.627   4.257 -1.1080  1.6491 -0.2812
  476MOL0     H64246   0.665   2.475   3.936  0.1431  2.4348  1.3683
  476MOL0     H64247   0.668   2.286   3.793  1.4382 -1.9576 -1.2778
  476MOL0     H64248   1.017   2.214   3.576 -0.2701 -0.4055 -0.1960
  476MOL0     H64249   0.932   2.252   3.430  1.0916  2.0527  0.5984
  476MOL0     H64250   0.814   2.026   3.428 -0.7172 -2.7766  0.7388
  476MOL0     H64251   0.870   1.986   3.584  2.8440 -1.7606  0.0249
  476MOL0     H64252   1.105   2.013   3.503 -0.1261 -1.7791  0.1429
  476MOL0     H64253   1.037   2.019   3.331 -0.6875 -2.7490 -1.8388
  476MOL0     H64254   1.120   1.790   3.412  0.7982  1.6539  0.2751
  476MOL0     H64255   0.982   1.788   3.530  0.3310  0.2404 -0.3385
  476MOL0     H64256   0.756   1.714   3.202 -0.7535  0.4915  0.6357
  476MOL0     H64257   0.967   2.452   3.543  0.9970  2.9300  1.0718
  476MOL0     H64258   0.954   2.774   3.680 -0.8182 -0.6080  0.2884
  476MOL0     H64259   1.088   2.682   3.739 -0.3307 -1.7216  1.5624
  476MOL0     H64260   1.051   2.672   3.565 -1.5453  2.4333 -1.4911
  477MOL0     O64261   0.438  11.375   8.103 -0.2246 -0.0286 -0.4572
  477MOL0     C64262   0.327  11.366   8.141  0.3937  0.7987 -0.0025
  477MOL0     O64263   0.212  11.399   8.079 -0.1079 -0.3640  0.8279
  477MOL0     C64264   0.220  11.481   7.967 -0.1195  0.0138  0.2947
  477MOL0     C64265   0.315  11.579   7.936  0.3070  1.5750  0.1116
  477MOL0     C64266   0.315  11.646   7.820 -0.3986 -0.7201  0.8300
  477MOL0     C64267   0.226  11.615   7.716 -1.0669 -0.3194  0.1300
  477MOL0     O64268   0.236  11.675   7.590 -0.7483 -0.2997 -0.1362
  477MOL0     C64269   0.312  11.800   7.585  1.1319 -0.1511  0.6685
  477MOL0     C64270   0.272  11.873   7.446  0.3124 -0.6074  0.7917
  477MOL0     C64271   0.379  11.977   7.417  0.5053 -1.1520 -0.1344
  477MOL0     C64272   0.410  12.068   7.542  0.2062  0.2943  0.4892
  477MOL0     C64273   0.484  12.194   7.494 -0.7168  0.3704  0.2702
  477MOL0     C64274   0.635  12.165   7.467  0.2267  0.1107 -0.4062
  477MOL0     C64275   0.695  12.283   7.404 -0.5254 -0.8043  0.1078
  477MOL0     C64276   0.850  12.269   7.418  0.6376 -0.3648 -0.6378
  477MOL0     N64277   0.922  12.359   7.337  0.1592 -0.0618 -0.3204
  477MOL0     C64278   1.007  12.329   7.231  0.8256  0.5543  0.4834
  477MOL0     C64279   1.062  12.447   7.202  0.2424  0.4679 -0.0388
  477MOL0     C64280   1.175  12.473   7.101  0.1418 -0.3259 -0.7015
  477MOL0     C64281   1.226  12.353   7.028  0.0123  0.0378 -1.7550
  477MOL0     C64282   1.299  12.397   6.903 -0.0332  0.7094  0.3172
  477MOL0     C64283   1.340  12.299   6.800 -0.0916  1.0339  0.8992
  477MOL0     O64284   1.244  12.204   6.764 -0.2313  0.6146 -0.1067
  477MOL0     C64285   1.163  12.247   6.667 -0.1529  0.9915 -0.4815
  477MOL0     C64286   1.213  12.238   6.539  0.5521 -0.5931  0.7748
  477MOL0     C64287   1.132  12.268   6.428  0.3316 -1.1243  0.9294
  477MOL0     C64288   1.001  12.309   6.434 -0.0114  0.2996 -0.0010
  477MOL0     C64289   0.924  12.340   6.322  1.1577 -0.5283  0.6486
  477MOL0     O64290   0.954  12.264   6.213 -0.9873 -0.2723  0.2792
  477MOL0     C64291   0.877  12.282   6.099 -0.1887  0.3766  0.0266
  477MOL0     C64292   0.745  12.234   6.080  0.2962  0.7488  0.3823
  477MOL0     C64293   0.679  12.267   5.958  0.3815  0.4554  0.1280
  477MOL0     C64294   0.751  12.341   5.860 -0.4656 -0.0886  1.0442
  477MOL0     O64295   0.685  12.363   5.740  0.5877  0.5118 -0.2056
  477MOL0     C64296   0.763  12.412   5.634 -0.3136 -0.1980 -0.2504
  477MOL0     C64297   0.688  12.389   5.501  0.7640  0.3292 -0.0286
  477MOL0     C64298   0.749  12.458   5.377  0.4363  0.0809 -0.7638
  477MOL0     C64299   0.692  12.405   5.251  0.1784  0.6277 -0.1311
  477MOL0     C64300   0.771  12.469   5.131  0.8357 -0.2596  1.0447
  477MOL0     C64301   0.744  12.616   5.106 -0.5123 -0.5328  0.4953
  477MOL0     C64302   0.825  12.652   4.980 -0.7179  0.3215  0.7127
  477MOL0     C64303   0.972  12.669   5.014 -0.1213 -0.4045 -0.1032
  477MOL0    Cl64304   1.068  12.657   4.869  0.1662 -0.1219  0.0369
  477MOL0     C64305   0.884  12.371   5.888  0.1639  0.7355 -0.7643
  477MOL0     C64306   0.943  12.339   5.999 -0.0593  0.5465  0.3785
  477MOL0     O64307   0.827  12.408   6.344 -0.3122 -0.3701  0.1510
  477MOL0     C64308   0.960  12.322   6.567  0.2084  0.5846  0.7982
  477MOL0     C64309   1.035  12.294   6.678  1.0251 -0.0340 -0.0513
  477MOL0     N64310   1.019  12.554   7.285 -0.5641 -0.1102  0.3743
  477MOL0     N64311   0.941  12.494   7.361  0.3075  0.3229 -0.6019
  477MOL0     C64312   0.125  11.526   7.737 -0.1095  0.9695  0.5615
  477MOL0     C64313   0.122  11.465   7.860 -0.2070  0.3997 -1.2633
  477MOL0     C64314   0.313  11.299   8.274  0.2188  0.0701 -0.0494
  477MOL0     C64315   0.365  11.168   8.281  0.6746  0.1938 -0.2849
  477MOL0     C64316   0.354  11.085   8.394 -0.1087  0.4426 -0.6773
  477MOL0     C64317   0.288  11.131   8.510  0.6270  0.4389  0.3275
  477MOL0     O64318   0.276  11.041   8.607 -0.0083  0.2494  0.9711
  477MOL0     C64319   0.206  11.075   8.731 -0.3188  0.1133  0.9773
  477MOL0     C64320   0.187  10.933   8.802  0.4375 -0.7892 -0.6887
  477MOL0     C64321   0.098  10.836   8.729  0.0245  0.0737 -0.0073
  477MOL0     C64322   0.103  10.703   8.806 -0.7649  0.2939 -0.5799
  477MOL0     C64323   0.062  10.694   8.943 -0.4070  0.7655  0.5460
  477MOL0     C64324  -0.001  10.677   9.045  0.0280 -0.0504 -0.7693
  477MOL0     C64325   0.223  11.257   8.504 -0.3297 -0.4524 -0.3069
  477MOL0     C64326   0.236  11.344   8.387 -0.3886 -0.4860  0.1413
  477MOL0     C64327   0.177  11.484   8.403  0.0339  0.2038  0.5325
  477MOL0     H64328   0.387  11.610   8.010  4.6339 -2.6515 -1.7608
  477MOL0     H64329   0.383  11.730   7.819 -1.7500  0.5443  3.7167
  477MOL0     H64330   0.285  11.860   7.673 -0.8188 -0.8783  0.6247
  477MOL0     H64331   0.420  11.787   7.578  1.1991 -0.4137  1.9183
  477MOL0     H64332   0.173  11.921   7.445  0.8738  0.5924 -1.1965
  477MOL0     H64333   0.280  11.795   7.370 -0.9711 -0.5434  0.5668
  477MOL0     H64334   0.332  12.047   7.347  1.9358  0.8832  0.8370
  477MOL0     H64335   0.467  11.930   7.372  0.7993 -0.4351 -0.3333
  477MOL0     H64336   0.318  12.087   7.599 -0.1210 -0.4768  0.2333
  477MOL0     H64337   0.476  12.012   7.609 -0.6358 -0.9030  0.3578
  477MOL0     H64338   0.442  12.226   7.398 -2.1420 -4.6122 -1.0858
  477MOL0     H64339   0.475  12.263   7.578 -0.9721 -0.1532  0.6797
  477MOL0     H64340   0.685  12.158   7.564  0.0836 -4.8563 -0.4452
  477MOL0     H64341   0.646  12.078   7.402 -0.5867  0.1181 -0.5645
  477MOL0     H64342   0.666  12.378   7.451 -0.2481 -0.4302 -0.4644
  477MOL0     H64343   0.661  12.301   7.301 -4.0845  1.9600  1.5150
  477MOL0     H64344   0.871  12.288   7.524 -1.1950 -3.1125  0.3297
  477MOL0     H64345   0.875  12.164   7.397  0.3250 -0.2303 -1.7341
  477MOL0     H64346   1.022  12.228   7.193  0.8633  1.4262 -2.0046
  477MOL0     H64347   1.146  12.552   7.031 -0.1355 -1.9476 -2.5036
  477MOL0     H64348   1.253  12.526   7.156  3.8894 -1.3852 -4.4712
  477MOL0     H64349   1.308  12.308   7.085 -1.6943  0.3153  1.1404
  477MOL0     H64350   1.144  12.282   7.022  1.3624 -2.3462  3.0985
  477MOL0     H64351   1.390  12.450   6.932  1.8007 -1.9024 -0.3880
  477MOL0     H64352   1.233  12.466   6.848 -0.7642 -0.1963  0.0362
  477MOL0     H64353   1.429  12.237   6.817 -2.0875 -2.9020 -1.4103
  477MOL0     H64354   1.359  12.360   6.712 -1.5588  1.0262  0.5539
  477MOL0     H64355   1.319  12.219   6.526  0.0920 -2.8800 -0.0018
  477MOL0     H64356   1.166  12.261   6.326  1.8170  1.8374  1.1207
  477MOL0     H64357   0.685  12.186   6.156 -0.6563  1.4822  0.1050
  477MOL0     H64358   0.584  12.234   5.918  0.4966  0.4622 -0.1573
  477MOL0     H64359   0.780  12.518   5.656 -1.9095  0.2686 -1.1076
  477MOL0     H64360   0.865  12.374   5.622 -0.2758 -0.1861  0.0408
  477MOL0     H64361   0.692  12.280   5.498 -1.5881  0.2002  0.1753
  477MOL0     H64362   0.583  12.415   5.518  0.1490 -2.0875  0.1901
  477MOL0     H64363   0.739  12.567   5.379  0.3547  0.2859 -4.8025
  477MOL0     H64364   0.858  12.451   5.377  0.5213  0.9291 -2.2550
  477MOL0     H64365   0.586  12.433   5.244  0.6779  2.4735 -0.8798
  477MOL0     H64366   0.702  12.296   5.248 -1.0358  0.4697  0.6000
  477MOL0     H64367   0.734  12.419   5.041 -2.8939  1.1892  1.5746
  477MOL0     H64368   0.877  12.444   5.144  0.9262 -0.5075 -0.1007
  477MOL0     H64369   0.638  12.640   5.095 -0.2757  2.4362  3.0931
  477MOL0     H64370   0.779  12.682   5.186 -2.0574 -0.0195  0.7733
  477MOL0     H64371   0.776  12.741   4.940 -1.3331  0.2828  1.3548
  477MOL0     H64372   0.807  12.573   4.906 -1.0249  0.5287  0.5620
  477MOL0     H64373   0.990  12.767   5.060  2.0295 -2.3241  3.6582
  477MOL0     H64374   0.998  12.596   5.091  0.5875  0.5377  0.5697
  477MOL0     H64375   0.946  12.439   5.830  2.3333 -0.2030  0.3477
  477MOL0     H64376   1.049  12.363   5.996 -0.0652  0.6580  1.0137
  477MOL0     H64377   0.852  12.331   6.573  0.3481  1.1626  4.1680
  477MOL0     H64378   0.974  12.308   6.767  1.7280 -1.7117  0.7554
  477MOL0     H64379   0.042  11.509   7.669  0.0411 -0.5686  0.7254
  477MOL0     H64380   0.046  11.389   7.871  0.1895 -0.2833 -2.9247
  477MOL0     H64381   0.415  11.134   8.191 -0.7037 -0.0293 -1.0053
  477MOL0     H64382   0.404  10.989   8.385  0.8814  0.3623  3.5119
  477MOL0     H64383   0.105  11.110   8.705 -0.2456 -1.5193 -1.8551
  477MOL0     H64384   0.253  11.149   8.797  1.0659 -0.6700  0.9023
  477MOL0     H64385   0.147  10.954   8.901 -1.4218  0.7946 -1.7001
  477MOL0     H64386   0.286  10.891   8.820  0.4272  0.4357  3.1028
  477MOL0     H64387   0.128  10.809   8.627 -0.2844 -0.3484  0.0097
  477MOL0     H64388  -0.005  10.873   8.731 -0.4156 -1.0938  2.0933
  477MOL0     H64389   0.031  10.642   8.751 -1.4174 -0.2246  0.8165
  477MOL0     H64390   0.202  10.656   8.797 -1.4028 -0.9398 -1.3724
  477MOL0     H64391  -0.072  10.669   9.125 -0.9105 -2.3111 -1.7246
  477MOL0     H64392   0.166  11.294   8.589  0.3424  1.8973 -0.7880
  477MOL0     H64393   0.224  11.542   8.482  0.6492  0.2065  0.1734
  477MOL0     H64394   0.183  11.549   8.315 -2.5706  2.1622  1.6715
  477MOL0     H64395   0.069  11.469   8.418  0.1710  0.3401  1.7241
  478MOL0     O64396  11.203   7.343  11.323 -0.0468 -0.1211 -0.1397
  478MOL0     C64397  11.144   7.402  11.242  1.0665 -1.4658 -0.1878
  478MOL0     O64398  11.202   7.496  11.163  0.1762  0.1667 -0.6335
  478MOL0     C64399  11.322   7.550  11.190 -0.5966  0.5003  0.1404
  478MOL0     C64400  11.415   7.572  11.083  0.0887  0.0963 -0.0881
  478MOL0     C64401  11.539   7.637  11.098 -0.4876 -0.1740 -0.0043
  478MOL0     C64402  11.581   7.683  11.222 -0.3277 -1.3010 -0.1267
  478MOL0     O64403  11.711   7.740  11.236  0.0667 -0.7851  0.5708
  478MOL0     C64404  11.755   7.783  11.366 -0.2169 -0.7465  0.3006
  478MOL0     C64405  11.889   7.847  11.373  0.0034  0.1279 -0.1236
  478MOL0     C64406  11.972   7.822  11.252 -0.2990 -0.1663 -0.6443
  478MOL0     C64407  11.951   7.937  11.152 -0.1734  0.3217  0.4505
  478MOL0     C64408  12.003   7.893  11.012 -0.5883 -0.0491 -1.3851
  478MOL0     C64409  12.013   8.014  10.919 -0.5390 -1.1223 -0.5700
  478MOL0     C64410  12.067   7.973  10.781  1.0759  0.0323  0.4069
  478MOL0     C64411  11.968   7.993  10.667 -0.4267  0.1879 -0.1560
  478MOL0     N64412  11.951   8.129  10.621 -0.0650 -1.4283  0.3542
  478MOL0     C64413  12.018   8.239  10.660  0.4065 -0.0677  0.2582
  478MOL0     C64414  11.960   8.351  10.612  0.1265 -0.8032  0.1379
  478MOL0     C64415  11.995   8.495  10.654 -0.6654 -0.1508 -0.0977
  478MOL0     C64416  11.914   8.616  10.601  0.2460 -0.6624 -0.3702
  478MOL0     C64417  11.943   8.742  10.690 -0.2732  0.8237  0.1320
  478MOL0     C64418  11.854   8.861  10.666 -0.6782  1.0642 -0.7048
  478MOL0     O64419  11.720   8.839  10.681 -0.4423  1.3045 -0.2008
  478MOL0     C64420  11.626   8.932  10.700 -1.3609 -0.5022 -0.5153
  478MOL0     C64421  11.667   9.062  10.723  0.1246 -0.5924 -0.5977
  478MOL0     C64422  11.570   9.164  10.747  0.5751  0.8035  0.0302
  478MOL0     C64423  11.439   9.128  10.768 -0.6017  0.0232  0.7675
  478MOL0     C64424  11.345   9.237  10.805 -0.4070 -0.6356 -0.2503
  478MOL0     O64425  11.215   9.215  10.802  0.6028 -0.6586  0.4232
  478MOL0     C64426  11.125   9.318  10.818  0.5995  0.5282 -0.3706
  478MOL0     C64427  11.007   9.284  10.885  0.7831 -0.2228  1.0286
  478MOL0     C64428  10.915   9.379  10.910  0.0653 -0.3469  0.6879
  478MOL0     C64429  10.936   9.515  10.870 -0.5317 -0.2930 -0.4844
  478MOL0     O64430  10.854   9.619  10.907 -0.8336  0.1866 -0.3086
  478MOL0     C64431  10.726   9.597  10.958 -0.1287 -0.2367 -1.0316
  478MOL0     C64432  10.650   9.720  11.008  0.7009  1.3625 -0.4649
  478MOL0     C64433  10.713   9.774  11.141 -0.3130  0.4078 -1.0722
  478MOL0     C64434  10.621   9.877  11.210 -0.1034 -0.4263 -0.2135
  478MOL0     C64435  10.682   9.900  11.351  0.5373 -0.0215 -0.1677
  478MOL0     C64436  10.594   9.993  11.435 -0.1057 -0.6870  0.9828
  478MOL0     C64437  10.665  10.077  11.543 -0.5021 -0.1778 -0.3555
  478MOL0     C64438  10.775   9.992  11.610  0.1792 -1.2241  0.4376
  478MOL0    Cl64439  10.813  10.069  11.763 -0.8585 -0.0816  0.0696
  478MOL0     C64440  11.044   9.546  10.793 -1.3036  0.0462  0.0796
  478MOL0     C64441  11.141   9.447  10.764 -0.2669  0.9823 -0.0478
  478MOL0     O64442  11.395   9.347  10.827 -0.5315 -0.3758 -0.2384
  478MOL0     C64443  11.393   9.000  10.751 -0.2789  0.5298  0.0816
  478MOL0     C64444  11.491   8.901  10.724  0.7691  0.9662 -0.4197
  478MOL0     N64445  11.840   8.301  10.553 -0.5146  1.2153  0.3008
  478MOL0     N64446  11.845   8.177  10.555 -0.4144  0.7883  0.2473
  478MOL0     C64447  11.495   7.663  11.328  0.8005 -0.4522  0.1212
  478MOL0     C64448  11.368   7.594  11.310  1.6962 -0.9631 -1.2357
  478MOL0     C64449  10.998   7.402  11.248 -0.2257 -1.1611 -0.7241
  478MOL0     C64450  10.920   7.509  11.190  0.5371 -0.4840  0.3262
  478MOL0     C64451  10.784   7.506  11.207  0.4017  0.7816  0.4967
  478MOL0     C64452  10.709   7.393  11.256 -0.8922 -0.7127 -0.3582
  478MOL0     O64453  10.572   7.406  11.285  0.5699  0.5304 -0.4414
  478MOL0     C64454  10.478   7.476  11.207  0.0134  0.2199 -1.0212
  478MOL0     C64455  10.332   7.422  11.235 -0.4291 -0.3008 -0.3978
  478MOL0     C64456  10.228   7.484  11.144 -0.2127 -0.5327  0.2367
  478MOL0     C64457  10.086   7.431  11.187 -0.1346  1.0583 -0.0971
  478MOL0     C64458  10.055   7.456  11.332  0.0095  0.8559 -0.2528
  478MOL0     C64459  10.025   7.466  11.450 -0.2810 -0.3048 -0.2820
  478MOL0     C64460  10.787   7.292  11.309  0.8691  0.4933  0.6538
  478MOL0     C64461  10.923   7.292  11.299  0.7876 -0.5912  0.1751
  478MOL0     C64462  10.988   7.165  11.339 -0.7278 -0.1672 -0.0046
  478MOL0     H64463  11.371   7.554  10.986  0.0416  1.3402 -0.3062
  478MOL0     H64464  11.599   7.646  11.008  0.4271 -3.0807  0.2438
  478MOL0     H64465  11.681   7.849  11.413 -0.5326 -0.5726 -0.4305
  478MOL0     H64466  11.760   7.691  11.426 -0.0553 -2.0516 -1.6112
  478MOL0     H64467  11.938   7.815  11.465  0.1412 -0.5715 -0.4371
  478MOL0     H64468  11.872   7.955  11.377 -1.3457  0.0517 -2.2478
  478MOL0     H64469  11.963   7.723  11.209  3.2391 -1.2977  0.7898
  478MOL0     H64470  12.077   7.810  11.282 -0.7121  0.1031  1.0361
  478MOL0     H64471  11.846   7.965  11.138 -0.1258 -0.3817 -1.6651
  478MOL0     H64472  12.003   8.031  11.178 -1.6265  1.5812 -0.9853
  478MOL0     H64473  12.098   7.840  11.012  0.8105  2.3228 -1.0874
  478MOL0     H64474  11.929   7.823  10.972  0.7275 -2.6295  0.3835
  478MOL0     H64475  11.918   8.069  10.910  0.1902  0.2956  0.1035
  478MOL0     H64476  12.085   8.085  10.961 -0.7214 -1.0238 -0.4229
  478MOL0     H64477  12.095   7.868  10.795 -1.3498 -0.3047  4.1270
  478MOL0     H64478  12.158   8.029  10.762  0.3788  1.9260  2.3202
  478MOL0     H64479  12.013   7.930  10.590  1.8882  1.4028  0.1243
  478MOL0     H64480  11.867   7.957  10.690  0.5714 -4.2049 -1.6966
  478MOL0     H64481  12.108   8.240  10.720 -0.0305  0.2667  0.9202
  478MOL0     H64482  11.993   8.501  10.763 -0.3355  4.8462 -0.1285
  478MOL0     H64483  12.099   8.514  10.626 -0.8291 -4.7182 -5.5704
  478MOL0     H64484  11.937   8.638  10.496 -2.8460 -2.4901 -1.5883
  478MOL0     H64485  11.807   8.593  10.606 -0.4905  2.0736 -1.6625
  478MOL0     H64486  12.052   8.748  10.696 -0.2881  0.1042  1.4309
  478MOL0     H64487  11.913   8.703  10.788 -0.0108 -0.3996 -0.2529
  478MOL0     H64488  11.878   8.899  10.567  2.6783 -2.0862 -1.3188
  478MOL0     H64489  11.892   8.929  10.743  1.7001  0.8935 -1.6288
  478MOL0     H64490  11.773   9.080  10.715 -0.4647  3.2997 -1.3738
  478MOL0     H64491  11.600   9.268  10.755  2.2173  0.2075  4.1057
  478MOL0     H64492  10.995   9.187  10.932 -3.6751  0.2986  1.3714
  478MOL0     H64493  10.825   9.352  10.965  0.9404 -2.8922  0.9724
  478MOL0     H64494  10.667   9.561  10.873 -3.7378 -0.0375  1.1581
  478MOL0     H64495  10.726   9.536  11.050 -0.3047  2.0535  0.5671
  478MOL0     H64496  10.635   9.783  10.921 -2.0069 -1.5178 -2.2869
  478MOL0     H64497  10.555   9.677  11.040  1.3198 -0.0228 -0.3859
  478MOL0     H64498  10.741   9.693  11.209  3.0417  1.8909 -0.4957
  478MOL0     H64499  10.805   9.822  11.106 -0.4760 -0.9847 -3.6627
  478MOL0     H64500  10.522   9.832  11.219 -0.0918 -0.5494 -0.6611
  478MOL0     H64501  10.617   9.974  11.159  0.8446  0.2395  0.9053
  478MOL0     H64502  10.786   9.933  11.353  1.4620 -2.5039  3.5566
  478MOL0     H64503  10.697   9.813  11.416 -2.7800 -0.4225  0.2366
  478MOL0     H64504  10.548  10.071  11.373 -1.0097 -4.2584 -3.2799
  478MOL0     H64505  10.517   9.928  11.479 -0.3052  0.1878  1.9819
  478MOL0     H64506  10.595  10.107  11.622 -0.1741  1.4592 -0.6559
  478MOL0     H64507  10.712  10.166  11.502  1.9967 -0.7346  1.1089
  478MOL0     H64508  10.732   9.893  11.625  0.1216 -1.5949 -1.8564
  478MOL0     H64509  10.866   9.997  11.550  0.6316  4.8332  1.0023
  478MOL0     H64510  11.056   9.648  10.758  0.3412 -0.3638 -0.6568
  478MOL0     H64511  11.229   9.483  10.712 -1.7697  2.4251 -1.6969
  478MOL0     H64512  11.286   8.984  10.761 -0.8402 -1.1981 -5.3609
  478MOL0     H64513  11.459   8.799  10.705 -3.9815  2.4161 -1.7077
  478MOL0     H64514  11.509   7.691  11.432 -1.5041  1.7536 -0.0751
  478MOL0     H64515  11.300   7.573  11.391  2.9020 -1.2900 -0.2732
  478MOL0     H64516  10.959   7.589  11.128  1.5152 -0.7593  0.5657
  478MOL0     H64517  10.731   7.592  11.167  1.1077  1.0414  0.0887
  478MOL0     H64518  10.513   7.457  11.105  0.6774 -1.2212 -0.5580
  478MOL0     H64519  10.503   7.579  11.232  0.3937  0.0238 -0.5848
  478MOL0     H64520  10.317   7.429  11.343 -0.4021 -3.4699 -0.0740
  478MOL0     H64521  10.327   7.313  11.221  2.4197 -0.3877 -1.4060
  478MOL0     H64522  10.250   7.459  11.039  2.0435  2.4862 -0.1758
  478MOL0     H64523  10.223   7.593  11.150 -5.4837 -0.5347  0.0160
  478MOL0     H64524  10.013   7.482  11.123 -1.2933 -3.5022 -2.9042
  478MOL0     H64525  10.080   7.323  11.171 -0.8365  1.2159 -1.0264
  478MOL0     H64526  10.001   7.449  11.553 -0.7658  1.2804 -0.1076
  478MOL0     H64527  10.729   7.210  11.351  2.3020 -1.7867 -1.6040
  478MOL0     H64528  11.032   7.180  11.437 -0.6434 -2.6195  0.3786
  478MOL0     H64529  10.921   7.080  11.351 -2.5806  1.3151  0.6052
  478MOL0     H64530  11.062   7.140  11.262 -1.7592 -0.0444 -1.0639
  479MOL0     O64531   7.708   8.644   7.107 -1.0040  0.2622 -0.6127
  479MOL0     C64532   7.668   8.529   7.141  0.8511  0.5401  0.4267
  479MOL0     O64533   7.550   8.497   7.197 -0.5095 -0.3564 -0.4941
  479MOL0     C64534   7.462   8.606   7.225  0.0055  0.6534 -0.9950
  479MOL0     C64535   7.491   8.694   7.331 -0.0338 -0.1117  0.3712
  479MOL0     C64536   7.401   8.797   7.361 -0.1307  0.4037 -0.2682
  479MOL0     C64537   7.275   8.803   7.307  0.0919 -0.0132 -0.2378
  479MOL0     O64538   7.208   8.926   7.337 -0.0702 -0.2076 -0.1870
  479MOL0     C64539   7.070   8.946   7.301  0.0058  0.0051  0.1886
  479MOL0     C64540   7.019   9.058   7.392  0.7082 -0.0014 -0.2148
  479MOL0     C64541   6.871   9.067   7.395 -0.3649  0.8196  1.1243
  479MOL0     C64542   6.815   8.959   7.484 -0.5341  0.2606 -0.4128
  479MOL0     C64543   6.671   8.979   7.520 -0.0400 -0.6698  0.1351
  479MOL0     C64544   6.659   9.071   7.640  0.2437  1.0311  0.3815
  479MOL0     C64545   6.520   9.135   7.647 -0.3356  0.4427  0.7749
  479MOL0     C64546   6.407   9.035   7.674 -0.6738  1.2768  0.5784
  479MOL0     N64547   6.283   9.090   7.629  0.0462 -0.0806 -0.1427
  479MOL0     C64548   6.261   9.113   7.494 -0.7274 -0.0777 -0.4072
  479MOL0     C64549   6.152   9.188   7.485 -0.7338 -0.6410 -0.3541
  479MOL0     C64550   6.086   9.245   7.362 -1.4026  0.0812  0.3167
  479MOL0     C64551   5.954   9.318   7.396 -0.9597 -0.1099 -0.3505
  479MOL0     C64552   5.879   9.332   7.258  0.2769 -0.0518 -0.5551
  479MOL0     C64553   5.747   9.403   7.275 -0.8360 -1.1022  0.1839
  479MOL0     O64554   5.787   9.542   7.307  0.2128 -0.6015  0.4402
  479MOL0     C64555   5.742   9.633   7.211  0.5382 -0.1500 -0.1696
  479MOL0     C64556   5.842   9.726   7.158  0.0928  0.4077  0.3040
  479MOL0     C64557   5.803   9.830   7.070 -0.3383  0.1995 -0.3248
  479MOL0     C64558   5.665   9.836   7.029 -0.5548  0.7097  0.4296
  479MOL0     C64559   5.617   9.939   6.931 -0.0595  1.2015 -0.1451
  479MOL0     O64560   5.696  10.041   6.881  0.0997 -1.3957  0.0354
  479MOL0     C64561   5.642  10.137   6.791 -0.0334 -0.2663 -0.2814
  479MOL0     C64562   5.704  10.265   6.807  0.4775  0.3950 -0.0587
  479MOL0     C64563   5.657  10.376   6.729 -0.3643  0.9315  0.1832
  479MOL0     C64564   5.564  10.353   6.627 -0.6561 -0.0806 -0.1819
  479MOL0     O64565   5.530  10.462   6.556 -0.0105 -0.2181 -0.1634
  479MOL0     C64566   5.469  10.438   6.423  1.3637  0.0377 -0.2419
  479MOL0     C64567   5.504  10.551   6.321  1.1686 -0.2136 -0.1403
  479MOL0     C64568   5.421  10.675   6.357  1.1114  0.2192 -0.4556
  479MOL0     C64569   5.397  10.765   6.233  0.3718 -0.0220 -0.0572
  479MOL0     C64570   5.356  10.893   6.273 -0.5825  0.3735  0.2364
  479MOL0     C64571   5.316  10.974   6.158  0.6183  0.2485  0.6911
  479MOL0     C64572   5.175  10.965   6.092  0.5560 -0.4236 -0.2715
  479MOL0     C64573   5.178  11.036   5.942 -0.4963  0.0659  0.2226
  479MOL0    Cl64574   5.009  11.097   5.880 -0.0300  0.3304 -0.0003
  479MOL0     C64575   5.507  10.226   6.612 -0.1386 -0.7211 -0.4878
  479MOL0     C64576   5.541  10.122   6.694 -0.5058  0.0909 -0.0011
  479MOL0     O64577   5.500   9.920   6.910  0.1052 -0.3702  0.0862
  479MOL0     C64578   5.574   9.749   7.088 -0.2638  0.0723 -1.7597
  479MOL0     C64579   5.604   9.651   7.178 -0.2019  0.4424 -0.3856
  479MOL0     N64580   6.106   9.212   7.614 -0.2058  0.1749 -0.4079
  479MOL0     N64581   6.193   9.158   7.703 -0.2665  0.5226  0.5233
  479MOL0     C64582   7.232   8.707   7.215  0.4751  0.1705  0.3057
  479MOL0     C64583   7.325   8.608   7.171 -0.4422 -1.3887 -1.4314
  479MOL0     C64584   7.755   8.407   7.113 -0.8623 -0.7085 -0.6261
  479MOL0     C64585   7.697   8.278   7.115 -0.4540 -0.7778  0.2661
  479MOL0     C64586   7.758   8.163   7.057 -1.1045  0.1904  0.4910
  479MOL0     C64587   7.894   8.165   7.007  0.2918  0.2253  0.9106
  479MOL0     O64588   7.945   8.058   6.945 -1.2691 -0.5270  0.1809
  479MOL0     C64589   7.963   8.084   6.798 -0.2858  0.5656  0.2557
  479MOL0     C64590   7.876   7.976   6.722  0.5355 -0.3627 -0.0709
  479MOL0     C64591   7.735   7.973   6.764  0.0052 -0.5910 -0.7874
  479MOL0     C64592   7.660   8.105   6.732  0.7509 -0.7136 -0.2547
  479MOL0     C64593   7.528   8.103   6.803 -0.0354 -1.1580 -1.3247
  479MOL0     C64594   7.428   8.098   6.865  0.1572  0.0423 -1.1912
  479MOL0     C64595   7.954   8.297   7.014 -0.2576 -0.1836 -0.6659
  479MOL0     C64596   7.892   8.412   7.063 -0.2818  0.8322  1.8794
  479MOL0     C64597   7.953   8.545   7.040  0.3262  0.7899  0.1673
  479MOL0     H64598   7.582   8.697   7.390 -0.0174 -0.5584  0.3651
  479MOL0     H64599   7.426   8.865   7.442 -1.4123 -1.1413  1.5173
  479MOL0     H64600   7.056   8.970   7.195  2.6723  0.0754 -0.2000
  479MOL0     H64601   7.019   8.854   7.333 -3.1740  0.7481 -2.2053
  479MOL0     H64602   7.055   9.155   7.354 -1.5796  2.2375  2.8474
  479MOL0     H64603   7.069   9.057   7.489  0.2665  2.4537  0.1106
  479MOL0     H64604   6.829   9.033   7.300 -3.1765  1.0466  2.2100
  479MOL0     H64605   6.832   9.166   7.416  0.0843  1.0498  0.8854
  479MOL0     H64606   6.833   8.861   7.440 -2.4845 -1.6383  2.6729
  479MOL0     H64607   6.870   8.966   7.578 -1.0672 -0.4332 -0.0514
  479MOL0     H64608   6.615   9.030   7.442 -1.3205 -0.1528  1.3583
  479MOL0     H64609   6.616   8.888   7.548  2.2254 -2.4372 -0.8140
  479MOL0     H64610   6.668   9.013   7.733 -1.7619  0.5143  0.2983
  479MOL0     H64611   6.743   9.141   7.632  1.4458 -0.6208 -4.0609
  479MOL0     H64612   6.508   9.190   7.553 -0.8583 -1.6222 -0.4210
  479MOL0     H64613   6.521   9.209   7.728 -0.5700  2.9619 -1.3889
  479MOL0     H64614   6.423   8.936   7.629 -0.8901  0.9328  1.2385
  479MOL0     H64615   6.404   9.011   7.781  0.2663 -0.2563  0.2922
  479MOL0     H64616   6.332   9.082   7.417 -0.1902  0.3467 -0.0897
  479MOL0     H64617   6.152   9.316   7.310 -2.7865  0.5404 -0.8786
  479MOL0     H64618   6.074   9.165   7.288  3.4850  0.7564 -1.6063
  479MOL0     H64619   5.903   9.261   7.475  0.8455  1.1121  1.8213
  479MOL0     H64620   5.972   9.408   7.454  0.6588 -0.0240 -0.9564
  479MOL0     H64621   5.857   9.239   7.205 -3.3895 -0.9240  2.1083
  479MOL0     H64622   5.926   9.405   7.192 -0.4275 -0.4599 -1.5394
  479MOL0     H64623   5.676   9.371   7.351 -0.9822  2.3019  1.6548
  479MOL0     H64624   5.690   9.399   7.181 -0.3551 -1.4620 -0.0980
  479MOL0     H64625   5.947   9.715   7.185  1.6612 -1.9100 -5.2394
  479MOL0     H64626   5.874   9.895   7.019 -2.3862  1.3564 -1.8635
  479MOL0     H64627   5.785  10.266   6.879 -0.8436  1.4765  1.4753
  479MOL0     H64628   5.700  10.475   6.739  0.2530  0.5952  0.8859
  479MOL0     H64629   5.507  10.341   6.389  2.3039  0.0814  0.6258
  479MOL0     H64630   5.361  10.424   6.427  0.9036  2.6299 -1.7312
  479MOL0     H64631   5.609  10.581   6.316  0.7647  1.0757 -2.1160
  479MOL0     H64632   5.486  10.514   6.219  2.0399  0.4444 -0.5441
  479MOL0     H64633   5.322  10.648   6.395  1.4836 -0.9113 -0.2722
  479MOL0     H64634   5.466  10.730   6.441 -0.0786  0.7924 -0.1635
  479MOL0     H64635   5.319  10.716   6.175 -0.2572  1.4238 -0.4454
  479MOL0     H64636   5.489  10.773   6.174 -0.1933  1.7312 -0.7534
  479MOL0     H64637   5.439  10.948   6.319 -3.6153  2.7531  3.3476
  479MOL0     H64638   5.268  10.914   6.333  0.7720  6.2070  0.7914
  479MOL0     H64639   5.326  11.076   6.195  0.3914  0.1769  0.9552
  479MOL0     H64640   5.383  10.955   6.073 -3.7823  0.8937 -3.3990
  479MOL0     H64641   5.112  11.028   6.156  2.4531  0.5528  0.7157
  479MOL0     H64642   5.125  10.867   6.089 -4.1394  1.6716  0.8684
  479MOL0     H64643   5.264  11.103   5.940  2.6535 -3.5475  1.7317
  479MOL0     H64644   5.217  10.970   5.865 -2.9817  1.0335 -2.0083
  479MOL0     H64645   5.432  10.192   6.541  0.4943  1.2066 -2.1837
  479MOL0     H64646   5.485  10.031   6.680 -0.5094 -0.0224  0.6955
  479MOL0     H64647   5.470   9.764   7.061 -0.0613  2.4567 -1.4868
  479MOL0     H64648   5.535   9.589   7.233 -0.0539  2.4174  2.1908
  479MOL0     H64649   7.137   8.708   7.163  0.8723  0.3767 -0.4331
  479MOL0     H64650   7.294   8.548   7.087 -1.7721  0.1621 -2.0944
  479MOL0     H64651   7.593   8.270   7.144 -1.6803  1.0685 -3.1014
  479MOL0     H64652   7.706   8.068   7.056  1.9420 -1.6829  2.3709
  479MOL0     H64653   8.067   8.062   6.771 -0.3825 -1.1522  1.1570
  479MOL0     H64654   7.929   8.181   6.759 -2.7595  0.3381  1.6230
  479MOL0     H64655   7.921   7.881   6.754 -0.2044  0.5104  4.1797
  479MOL0     H64656   7.893   7.985   6.615  1.3467 -0.2339  0.0605
  479MOL0     H64657   7.735   7.947   6.871  0.8856 -0.2358 -0.6928
  479MOL0     H64658   7.670   7.907   6.706 -1.4567 -0.4471  0.6031
  479MOL0     H64659   7.717   8.194   6.759  0.4681  1.2053 -5.0831
  479MOL0     H64660   7.626   8.118   6.629  3.5183 -0.3450 -1.1908
  479MOL0     H64661   7.338   8.095   6.923  0.7062  1.4978 -0.1860
  479MOL0     H64662   8.040   8.315   6.951 -1.2596  0.3119 -1.9199
  479MOL0     H64663   8.057   8.536   7.007  0.2169  0.9099 -0.2253
  479MOL0     H64664   7.904   8.610   6.966  1.0333 -2.1464 -3.1558
  479MOL0     H64665   7.953   8.590   7.140  2.3655 -0.2938  0.7070
  480MOL0     O64666   5.131   8.844   3.465 -0.3153  0.0232 -0.1422
  480MOL0     C64667   5.049   8.801   3.383  0.4940  0.0667  0.2145
  480MOL0     O64668   4.963   8.700   3.412 -0.2898 -0.1669 -0.0224
  480MOL0     C64669   4.959   8.670   3.548  0.2662  0.5571  0.8219
  480MOL0     C64670   4.885   8.728   3.640 -0.4926  0.2604 -0.2865
  480MOL0     C64671   4.888   8.688   3.778 -0.1956 -0.0501  1.1582
  480MOL0     C64672   4.963   8.578   3.819  1.0471  0.8998  0.2872
  480MOL0     O64673   4.961   8.515   3.946 -0.4551  0.6253  0.0909
  480MOL0     C64674   4.887   8.569   4.058 -0.5369  0.1786 -0.0659
  480MOL0     C64675   4.829   8.444   4.129  1.2326 -0.4054 -0.0094
  480MOL0     C64676   4.700   8.404   4.061  0.2698  0.7218 -0.8146
  480MOL0     C64677   4.602   8.326   4.152 -0.6362  0.0243  0.3471
  480MOL0     C64678   4.553   8.402   4.279  0.0616  0.4233  0.4582
  480MOL0     C64679   4.493   8.542   4.248  0.1800  0.9373  0.2798
  480MOL0     C64680   4.429   8.608   4.369  0.1546  0.7292  1.6318
  480MOL0     C64681   4.379   8.745   4.321 -0.3051  0.1816  0.1934
  480MOL0     N64682   4.309   8.820   4.425  0.2484  0.3613  0.3528
  480MOL0     C64683   4.355   8.889   4.537 -0.3183 -0.5792 -0.4470
  480MOL0     C64684   4.246   8.910   4.613  0.4505  0.7578 -0.0448
  480MOL0     C64685   4.247   8.985   4.743 -0.2738 -0.4344 -0.0423
  480MOL0     C64686   4.342   9.101   4.740  0.4393 -0.0551 -0.0742
  480MOL0     C64687   4.336   9.198   4.850  0.1038  0.0746 -0.8410
  480MOL0     C64688   4.442   9.303   4.868  0.0233  0.1386  0.9768
  480MOL0     O64689   4.564   9.245   4.906 -0.8828 -0.5640 -0.4426
  480MOL0     C64690   4.685   9.310   4.871 -0.0281  1.3934  0.0632
  480MOL0     C64691   4.704   9.445   4.840 -0.5051 -0.2002  0.0366
  480MOL0     C64692   4.830   9.486   4.803  0.7965  0.8021  1.1081
  480MOL0     C64693   4.943   9.403   4.810  1.4151  0.5845 -1.0201
  480MOL0     C64694   5.082   9.446   4.804  0.2229 -0.3170 -0.2588
  480MOL0     O64695   5.176   9.390   4.893  0.3650  0.2914  0.1469
  480MOL0     C64696   5.306   9.430   4.908  0.4693 -0.2708  0.2784
  480MOL0     C64697   5.376   9.364   5.007  0.5164 -0.4177  0.2687
  480MOL0     C64698   5.507   9.393   5.038 -0.1973 -0.3547  0.7016
  480MOL0     C64699   5.579   9.500   4.969 -0.0878  0.2145 -0.1278
  480MOL0     O64700   5.706   9.531   4.990 -0.4094  0.3367  0.4723
  480MOL0     C64701   5.773   9.497   5.107  0.1561 -0.5049  0.6103
  480MOL0     C64702   5.892   9.598   5.135  0.3583  0.5912 -0.2501
  480MOL0     C64703   5.854   9.732   5.191  0.6176  0.1376  0.2744
  480MOL0     C64704   5.965   9.831   5.196 -0.3007  0.4057 -1.0094
  480MOL0     C64705   5.912   9.977   5.224 -0.5682  0.8095 -0.4078
  480MOL0     C64706   5.857   9.982   5.365  0.3773 -0.1618  0.3945
  480MOL0     C64707   5.967  10.001   5.473 -0.0588  0.6235 -0.1636
  480MOL0     C64708   5.913  10.074   5.602  0.2930 -0.3179  0.2530
  480MOL0    Cl64709   5.959  10.250   5.611  0.2718 -0.3921 -0.1127
  480MOL0     C64710   5.506   9.567   4.867  0.2658 -0.0550  0.3286
  480MOL0     C64711   5.372   9.534   4.838 -0.4590 -0.2335  0.0559
  480MOL0     O64712   5.103   9.541   4.733  0.4512 -0.0242 -0.0841
  480MOL0     C64713   4.921   9.269   4.832 -0.2835  0.5135 -0.0025
  480MOL0     C64714   4.798   9.218   4.878  0.7513 -0.4958  0.3080
  480MOL0     N64715   4.134   8.853   4.552  0.6182  0.3032 -0.8321
  480MOL0     N64716   4.176   8.794   4.445  0.7964 -0.7964  0.5066
  480MOL0     C64717   5.043   8.526   3.723  0.2106 -1.2388  1.1139
  480MOL0     C64718   5.040   8.562   3.591 -0.4448  0.3926 -0.7285
  480MOL0     C64719   5.040   8.847   3.241  0.9875 -0.2444  0.3449
  480MOL0     C64720   4.960   8.773   3.152  0.1777  0.1590  0.3724
  480MOL0     C64721   4.948   8.806   3.016  0.1609 -0.0792 -0.1586
  480MOL0     C64722   5.015   8.918   2.965 -0.6506 -0.7179  0.0192
  480MOL0     O64723   4.992   8.963   2.834 -0.0133 -0.0708 -0.1404
  480MOL0     C64724   4.862   8.927   2.780  0.3784 -0.1169  0.0320
  480MOL0     C64725   4.844   9.019   2.666  0.2462 -0.1415 -0.2165
  480MOL0     C64726   4.695   9.005   2.616  0.7427  1.0000  0.4117
  480MOL0     C64727   4.681   9.084   2.481  1.8823  0.0309  0.0656
  480MOL0     C64728   4.553   9.150   2.471  0.1430 -0.2794  0.3654
  480MOL0     C64729   4.450   9.212   2.469 -0.3395 -0.1787  0.0646
  480MOL0     C64730   5.092   8.991   3.055 -0.6946  0.5011 -0.6543
  480MOL0     C64731   5.112   8.957   3.189  0.5248 -0.1331 -0.6262
  480MOL0     C64732   5.228   9.033   3.260  0.3430  0.7238 -0.0943
  480MOL0     H64733   4.823   8.815   3.620  0.4939  0.9766 -0.2833
  480MOL0     H64734   4.815   8.733   3.844 -2.3265 -1.8230  0.1543
  480MOL0     H64735   4.970   8.614   4.113 -2.7814  4.0918  0.4342
  480MOL0     H64736   4.813   8.648   4.043 -1.7220 -0.7722  0.5315
  480MOL0     H64737   4.816   8.478   4.232 -0.0357 -0.1981 -0.2304
  480MOL0     H64738   4.894   8.356   4.137  2.7954  0.7160  0.2558
  480MOL0     H64739   4.735   8.346   3.975 -2.6709 -0.8602 -1.0792
  480MOL0     H64740   4.646   8.493   4.028 -1.0267  0.8745  1.4442
  480MOL0     H64741   4.509   8.295   4.104 -0.0066 -0.4743 -0.5870
  480MOL0     H64742   4.662   8.237   4.176 -1.4378 -0.4425  0.6653
  480MOL0     H64743   4.479   8.335   4.324 -2.0589 -1.2011 -4.6740
  480MOL0     H64744   4.631   8.415   4.355  0.4759  0.0505  0.1051
  480MOL0     H64745   4.578   8.593   4.201  0.9929  0.2051  0.9070
  480MOL0     H64746   4.416   8.536   4.171 -1.5462 -0.9235  2.0278
  480MOL0     H64747   4.492   8.619   4.458 -0.4119 -0.0058  2.1418
  480MOL0     H64748   4.336   8.562   4.404 -0.5135  1.5272  0.9511
  480MOL0     H64749   4.460   8.808   4.283  0.5462 -1.2428 -0.4376
  480MOL0     H64750   4.311   8.746   4.235 -0.6936 -0.3502  0.4847
  480MOL0     H64751   4.456   8.899   4.573 -1.6801  0.4559  3.5918
  480MOL0     H64752   4.142   9.012   4.757 -1.1596 -2.2457 -2.5326
  480MOL0     H64753   4.263   8.915   4.825 -2.0690 -1.9446 -0.9051
  480MOL0     H64754   4.445   9.065   4.733  0.1902 -1.6121  2.6967
  480MOL0     H64755   4.318   9.147   4.643  2.4130 -2.2802 -1.7401
  480MOL0     H64756   4.333   9.157   4.951 -2.1060 -0.0730 -0.9206
  480MOL0     H64757   4.242   9.254   4.853 -1.2424 -2.0554  2.5418
  480MOL0     H64758   4.416   9.378   4.943 -1.6942 -0.2836  0.8383
  480MOL0     H64759   4.440   9.356   4.772 -1.1141  0.1587  1.0022
  480MOL0     H64760   4.619   9.513   4.839 -1.6317 -1.5331  0.9526
  480MOL0     H64761   4.831   9.592   4.780 -1.1022  0.2109 -2.5060
  480MOL0     H64762   5.325   9.285   5.062  3.7310 -0.9709  2.7178
  480MOL0     H64763   5.538   9.332   5.123 -4.0979 -1.2313  1.6823
  480MOL0     H64764   5.705   9.503   5.192 -0.7806 -1.3272 -0.0574
  480MOL0     H64765   5.810   9.397   5.085  0.4325  0.4165 -4.3875
  480MOL0     H64766   5.951   9.541   5.208  1.6652  1.4680 -0.5948
  480MOL0     H64767   5.957   9.619   5.050  4.4487  1.3418  2.7647
  480MOL0     H64768   5.764   9.769   5.140 -1.7398 -1.3850  3.0377
  480MOL0     H64769   5.821   9.708   5.292 -2.3000  1.8006 -0.1639
  480MOL0     H64770   6.000   9.845   5.093 -1.6858 -0.5910 -1.6360
  480MOL0     H64771   6.043   9.802   5.268  0.1202 -0.5662 -1.8274
  480MOL0     H64772   5.838  10.000   5.147 -0.9785 -2.1689 -0.9921
  480MOL0     H64773   5.998  10.042   5.202 -0.6330 -0.1817 -4.3300
  480MOL0     H64774   5.795  10.072   5.372  3.0059  1.8901 -0.9055
  480MOL0     H64775   5.792   9.898   5.392 -2.6857  2.0858  0.5935
  480MOL0     H64776   6.048  10.064   5.435 -0.9771  0.7696 -1.9866
  480MOL0     H64777   6.022   9.910   5.497  1.4555  0.7792 -2.7030
  480MOL0     H64778   5.804  10.066   5.602 -0.1259  3.5466  1.3148
  480MOL0     H64779   5.958  10.019   5.685  1.8311 -1.1393 -1.0583
  480MOL0     H64780   5.554   9.655   4.825 -0.4890 -0.3536 -1.2559
  480MOL0     H64781   5.322   9.597   4.765 -2.4619 -2.5345 -0.7173
  480MOL0     H64782   5.009   9.208   4.811 -1.8207 -0.8852 -3.0554
  480MOL0     H64783   4.789   9.118   4.920  0.2484  0.4602  2.6362
  480MOL0     H64784   5.095   8.432   3.740 -0.5580 -1.8203  0.3803
  480MOL0     H64785   5.114   8.519   3.525  2.6606  4.6434 -0.4291
  480MOL0     H64786   4.892   8.691   3.173 -1.0955  0.2363 -2.7952
  480MOL0     H64787   4.882   8.743   2.958  0.6200 -1.1985  0.5023
  480MOL0     H64788   4.773   8.918   2.844  0.2029 -2.7468 -0.4644
  480MOL0     H64789   4.870   8.830   2.731 -0.2977  0.2193 -0.7531
  480MOL0     H64790   4.917   9.002   2.586  0.1176  1.7052 -0.7781
  480MOL0     H64791   4.857   9.123   2.698  3.5574 -0.5010 -0.0220
  480MOL0     H64792   4.626   9.029   2.697  0.9644  0.3502  0.8016
  480MOL0     H64793   4.672   8.900   2.596 -0.7880  1.5873 -1.1269
  480MOL0     H64794   4.756   9.160   2.457 -1.1072  3.3272  0.3068
  480MOL0     H64795   4.684   9.010   2.400 -1.1978  0.3651 -0.4594
  480MOL0     H64796   4.359   9.268   2.463  1.8045  3.5681 -0.7061
  480MOL0     H64797   5.148   9.079   3.025  1.6639 -1.4708 -2.4771
  480MOL0     H64798   5.314   8.966   3.257  1.3610  1.9479  0.5316
  480MOL0     H64799   5.256   9.133   3.226 -0.1402  1.4903  1.6650
  480MOL0     H64800   5.202   9.053   3.364  2.4167  2.2888  0.1890
  481MOL0     O64801   0.520   8.348   8.276 -0.8792  0.4456  1.0375
  481MOL0     C64802   0.541   8.447   8.348 -0.6474 -0.1718  0.3740
  481MOL0     O64803   0.637   8.452   8.442 -0.6907 -0.2774 -0.6043
  481MOL0     C64804   0.675   8.332   8.498 -0.1078  0.5802 -0.0451
  481MOL0     C64805   0.804   8.292   8.537 -0.0385  0.0662  0.4611
  481MOL0     C64806   0.838   8.166   8.603 -0.4694 -0.0215  0.4274
  481MOL0     C64807   0.731   8.088   8.652  0.3325 -0.4648  0.0791
  481MOL0     O64808   0.740   7.985   8.734 -0.3421  0.0868 -0.0844
  481MOL0     C64809   0.871   7.930   8.767 -0.5170  0.3491 -0.4029
  481MOL0     C64810   0.864   7.808   8.856  1.0359 -0.2137  0.2133
  481MOL0     C64811   0.753   7.816   8.969 -0.0232 -0.7075 -0.3439
  481MOL0     C64812   0.800   7.912   9.085  1.2163  0.0160 -0.3354
  481MOL0     C64813   0.677   7.955   9.174  0.3926 -0.4784 -0.0509
  481MOL0     C64814   0.727   8.018   9.310 -0.2660  0.7895  0.6484
  481MOL0     C64815   0.797   8.153   9.290 -0.6385  0.9121  0.1335
  481MOL0     C64816   0.801   8.232   9.423 -0.1707  0.0874  0.6013
  481MOL0     N64817   0.910   8.331   9.433 -0.6488 -0.7417  0.2882
  481MOL0     C64818   1.041   8.298   9.446 -0.8318 -0.3405  1.0922
  481MOL0     C64819   1.111   8.416   9.451 -0.0297 -0.4359 -0.8370
  481MOL0     C64820   1.246   8.453   9.491 -0.4358 -0.1046  0.7186
  481MOL0     C64821   1.346   8.352   9.442 -0.4184  0.2105  0.4107
  481MOL0     C64822   1.372   8.346   9.288 -0.6733  0.1010 -0.2919
  481MOL0     C64823   1.464   8.232   9.256  0.2113 -0.3499  0.4987
  481MOL0     O64824   1.387   8.105   9.278 -0.5332  0.2425 -0.3138
  481MOL0     C64825   1.461   7.989   9.250 -0.9495 -0.1115  0.4823
  481MOL0     C64826   1.579   7.976   9.170 -0.2519 -0.3868 -0.1327
  481MOL0     C64827   1.635   7.858   9.138 -0.4698  0.2366  0.4000
  481MOL0     C64828   1.585   7.734   9.182 -0.6428  0.2716  0.7631
  481MOL0     C64829   1.654   7.613   9.134  0.5798 -0.0435 -0.2510
  481MOL0     O64830   1.788   7.638   9.113  0.1179 -0.4301 -0.3496
  481MOL0     C64831   1.865   7.541   9.072  0.8779  0.2233  1.2551
  481MOL0     C64832   1.862   7.505   8.937 -1.2681  0.8156  0.5058
  481MOL0     C64833   1.932   7.393   8.892  1.1771  0.3766  0.4105
  481MOL0     C64834   2.012   7.323   8.975 -0.4638  0.6583 -0.4668
  481MOL0     O64835   2.100   7.234   8.933  0.7267  0.4715 -0.1459
  481MOL0     C64836   2.212   7.197   9.012 -0.5420  0.1774  0.2521
  481MOL0     C64837   2.272   7.066   8.949  0.1327  0.9889 -0.2203
  481MOL0     C64838   2.308   7.106   8.798 -0.6942  0.4462 -0.5746
  481MOL0     C64839   2.420   7.002   8.742 -0.6235  0.4035 -0.2927
  481MOL0     C64840   2.437   7.030   8.595  0.7495 -0.7688  0.0557
  481MOL0     C64841   2.540   6.940   8.532  0.2683  0.5182  0.0693
  481MOL0     C64842   2.588   6.992   8.385 -0.0961  0.1081 -0.1492
  481MOL0     C64843   2.669   6.877   8.329  0.1108 -0.7918  0.5809
  481MOL0    Cl64844   2.768   6.933   8.184  0.5374 -0.2769 -0.2929
  481MOL0     C64845   2.013   7.360   9.113 -0.4026 -0.5739  0.3121
  481MOL0     C64846   1.943   7.466   9.160  0.6334  0.9240  0.1678
  481MOL0     O64847   1.588   7.523   9.087  0.5139 -0.0692 -0.5251
  481MOL0     C64848   1.470   7.727   9.267 -1.1282 -0.3844  0.1376
  481MOL0     C64849   1.414   7.863   9.298  1.1735  0.2041  0.9100
  481MOL0     N64850   1.016   8.515   9.446 -0.5292  0.0562 -1.1568
  481MOL0     N64851   0.898   8.465   9.455  0.1107 -0.0465 -0.4916
  481MOL0     C64852   0.600   8.133   8.630 -0.1097  0.1390  0.7896
  481MOL0     C64853   0.572   8.244   8.549 -0.9148 -0.2040 -0.4408
  481MOL0     C64854   0.489   8.574   8.306 -0.2348 -0.1891 -0.2999
  481MOL0     C64855   0.570   8.664   8.250 -0.0530  0.8748 -0.0281
  481MOL0     C64856   0.514   8.783   8.204  0.6562  0.5106  0.4033
  481MOL0     C64857   0.378   8.809   8.200 -0.8867  0.1056  0.0839
  481MOL0     O64858   0.324   8.916   8.128  0.0259  0.4441  0.6848
  481MOL0     C64859   0.407   8.971   8.017 -0.2086 -0.0420 -0.5395
  481MOL0     C64860   0.353   9.091   7.957  0.2094  0.1826 -0.1409
  481MOL0     C64861   0.300   9.197   8.054 -0.0290 -0.3095  0.7759
  481MOL0     C64862   0.206   9.298   7.982 -0.7999  0.2129  0.8070
  481MOL0     C64863   0.201   9.427   8.054  1.9597  0.1811 -0.4386
  481MOL0     C64864   0.175   9.530   8.111  0.0510 -0.0740 -0.0137
  481MOL0     C64865   0.291   8.711   8.254 -0.1083 -1.5214 -0.6805
  481MOL0     C64866   0.350   8.599   8.322  0.7790 -0.7981  1.0605
  481MOL0     C64867   0.246   8.506   8.376 -0.3825  1.0360  0.7142
  481MOL0     H64868   0.882   8.363   8.512 -2.3842  3.3457  1.7993
  481MOL0     H64869   0.939   8.134   8.625 -0.4656  0.0096  0.4547
  481MOL0     H64870   0.924   7.906   8.674 -0.5442 -0.9757 -0.0881
  481MOL0     H64871   0.929   8.006   8.821 -1.1803  0.2809  0.4173
  481MOL0     H64872   0.962   7.803   8.905  0.6672  2.8659  1.5103
  481MOL0     H64873   0.847   7.721   8.792 -1.0956  1.7394 -2.0547
  481MOL0     H64874   0.734   7.719   9.015 -1.2520  0.0389  0.7785
  481MOL0     H64875   0.667   7.863   8.920  1.3700  1.0926 -1.2051
  481MOL0     H64876   0.846   7.856   9.167 -0.1250  2.2260  2.1052
  481MOL0     H64877   0.855   7.999   9.049 -0.6021  1.2738 -0.2467
  481MOL0     H64878   0.618   8.030   9.120  0.9894  0.6115  0.7746
  481MOL0     H64879   0.610   7.871   9.195  2.1953 -1.8547  0.4013
  481MOL0     H64880   0.631   8.035   9.360 -1.1105 -2.8964  0.5567
  481MOL0     H64881   0.792   7.956   9.373  1.7534 -0.1723 -2.2084
  481MOL0     H64882   0.731   8.207   9.221 -2.7481 -1.3167  0.2584
  481MOL0     H64883   0.899   8.135   9.254  0.1284  0.7760  2.2746
  481MOL0     H64884   0.713   8.296   9.419  1.7208  2.8620 -2.5492
  481MOL0     H64885   0.810   8.159   9.503  0.9360 -0.4062  0.0520
  481MOL0     H64886   1.088   8.201   9.456 -1.2526 -0.8525 -1.2616
  481MOL0     H64887   1.259   8.554   9.453  0.3468 -0.1519  0.8404
  481MOL0     H64888   1.260   8.454   9.600  0.6805  0.3596  0.5774
  481MOL0     H64889   1.439   8.386   9.488  0.7659 -0.3599 -1.4815
  481MOL0     H64890   1.311   8.254   9.476 -3.0709  0.2422 -1.8442
  481MOL0     H64891   1.412   8.443   9.257  1.1291 -0.8876 -1.2061
  481MOL0     H64892   1.274   8.327   9.244 -0.9263  0.8652 -0.0829
  481MOL0     H64893   1.562   8.230   9.305  0.8683 -0.2341 -0.7669
  481MOL0     H64894   1.480   8.229   9.148  0.2102  2.7669  0.3204
  481MOL0     H64895   1.628   8.058   9.119  0.2820  1.0857  2.5688
  481MOL0     H64896   1.720   7.862   9.071 -1.8620 -2.1390 -1.6976
  481MOL0     H64897   1.796   7.574   8.886  0.1497  2.7945  1.2412
  481MOL0     H64898   1.929   7.373   8.786 -0.7616 -2.5601  0.8880
  481MOL0     H64899   2.294   7.269   8.999 -0.9706  0.0513 -6.4522
  481MOL0     H64900   2.190   7.187   9.119 -1.1597  0.9544  0.2048
  481MOL0     H64901   2.358   7.037   9.010  1.1295  4.4959  0.2646
  481MOL0     H64902   2.197   6.986   8.949  0.0151  1.0959 -0.6463
  481MOL0     H64903   2.215   7.098   8.741  0.7404 -0.6954 -2.9649
  481MOL0     H64904   2.344   7.209   8.793  0.1773  0.1118 -1.7781
  481MOL0     H64905   2.376   6.902   8.755  0.5634 -0.3312 -1.6977
  481MOL0     H64906   2.510   7.013   8.804 -0.7835 -2.2820  0.5509
  481MOL0     H64907   2.456   7.135   8.569 -0.7169 -1.1198 -2.8614
  481MOL0     H64908   2.343   7.007   8.543  0.7481  1.2053 -0.9199
  481MOL0     H64909   2.628   6.938   8.598 -0.9069  2.3844  1.8329
  481MOL0     H64910   2.516   6.836   8.509  4.0751 -0.1071 -1.9218
  481MOL0     H64911   2.644   7.085   8.403 -0.8080  0.2006  1.7886
  481MOL0     H64912   2.501   7.011   8.321  0.1172  0.3818 -0.3658
  481MOL0     H64913   2.728   6.839   8.413  0.5167 -3.4188 -0.8083
  481MOL0     H64914   2.607   6.789   8.310 -2.3807  0.8401  0.7203
  481MOL0     H64915   2.064   7.305   9.192 -2.3426  0.6626  2.5578
  481MOL0     H64916   1.940   7.491   9.266 -3.0127 -0.9384  0.6667
  481MOL0     H64917   1.428   7.629   9.286  2.0813 -2.1910 -1.3058
  481MOL0     H64918   1.320   7.866   9.351  0.5642 -0.7694 -0.0684
  481MOL0     H64919   0.517   8.095   8.689  1.6238 -1.9178  2.0657
  481MOL0     H64920   0.467   8.267   8.536 -1.0740 -1.1999 -0.9846
  481MOL0     H64921   0.674   8.643   8.225 -0.8052 -2.6386 -0.6881
  481MOL0     H64922   0.581   8.843   8.142  1.6050 -2.1249 -1.2820
  481MOL0     H64923   0.428   8.901   7.935  0.1688 -1.3119  0.6161
  481MOL0     H64924   0.505   8.996   8.056  0.0304 -1.9054  0.1491
  481MOL0     H64925   0.275   9.066   7.885  0.4830 -1.1931  0.0008
  481MOL0     H64926   0.438   9.121   7.895  1.6152 -0.2674  1.4844
  481MOL0     H64927   0.389   9.242   8.100  0.9195 -0.6254 -0.7005
  481MOL0     H64928   0.257   9.144   8.140  1.5035 -3.1817 -0.0787
  481MOL0     H64929   0.249   9.323   7.885 -1.9132 -1.7094 -0.2339
  481MOL0     H64930   0.110   9.246   7.968 -1.2548  1.2480 -0.0622
  481MOL0     H64931   0.168   9.625   8.160 -0.0936  1.0133 -2.0565
  481MOL0     H64932   0.189   8.746   8.248  0.2857 -0.0493  0.6250
  481MOL0     H64933   0.278   8.425   8.442 -0.6495  0.5103  0.2116
  481MOL0     H64934   0.160   8.557   8.421 -0.8884  1.2204 -0.3996
  481MOL0     H64935   0.206   8.447   8.292  0.8381  1.0642  0.0960
  482MOL0     O64936  10.604   0.275   7.584 -0.3429 -0.0173  0.3074
  482MOL0     C64937  10.606   0.302   7.702  0.9105 -1.5702 -0.2053
  482MOL0     O64938  10.597   0.432   7.740 -0.0614 -0.4378 -0.4006
  482MOL0     C64939  10.523   0.527   7.662 -0.8346  0.1938 -0.1721
  482MOL0     C64940  10.564   0.570   7.542 -0.5180  0.3103  0.1669
  482MOL0     C64941  10.490   0.681   7.480 -0.0841  0.2457 -0.7320
  482MOL0     C64942  10.386   0.739   7.546  0.1914 -0.3486 -0.2654
  482MOL0     O64943  10.324   0.847   7.495 -0.3968  0.5980  0.2843
  482MOL0     C64944  10.212   0.909   7.562 -0.0357  0.2244  0.0636
  482MOL0     C64945  10.263   1.003   7.677  0.5646 -0.4826 -0.0544
  482MOL0     C64946  10.148   1.050   7.762  0.3861 -1.0069  0.7945
  482MOL0     C64947  10.075   0.948   7.852 -1.1893 -0.3419  0.5430
  482MOL0     C64948   9.963   0.998   7.937 -0.0021 -0.9847 -0.2441
  482MOL0     C64949   9.993   1.094   8.057 -0.0731 -1.2108  0.1976
  482MOL0     C64950   9.861   1.121   8.134  0.9803 -0.8755  0.2636
  482MOL0     C64951   9.891   1.184   8.271  0.1487  0.1352 -0.6656
  482MOL0     N64952   9.930   1.077   8.375 -0.1793 -0.0496  0.5536
  482MOL0     C64953   9.859   0.969   8.420 -0.0803  0.2085  0.1359
  482MOL0     C64954   9.944   0.905   8.503  0.2632 -0.0317 -0.8673
  482MOL0     C64955   9.910   0.772   8.577  0.5900 -0.0815 -0.2536
  482MOL0     C64956   9.930   0.793   8.723 -0.5270  0.0327  0.4081
  482MOL0     C64957   9.895   0.663   8.797  0.4001  0.2476  0.1577
  482MOL0     C64958   9.944   0.672   8.943  0.0919 -1.3277  0.1380
  482MOL0     O64959   9.863   0.582   9.020 -0.5335 -0.0349 -0.8666
  482MOL0     C64960   9.934   0.482   9.086  1.0612  0.1261  0.4237
  482MOL0     C64961  10.064   0.492   9.138  0.3010 -0.0832 -0.3454
  482MOL0     C64962  10.121   0.391   9.215  0.3010 -0.7238  0.8578
  482MOL0     C64963  10.049   0.268   9.223  0.4741 -0.7310 -0.3579
  482MOL0     C64964  10.102   0.154   9.299 -0.1699 -1.0859  0.3169
  482MOL0     O64965  10.017   0.054   9.310  0.3103 -0.1750 -0.3965
  482MOL0     C64966  10.070  -0.058   9.366  0.6908  0.2952 -0.7384
  482MOL0     C64967  10.105  -0.166   9.281 -0.0094  0.4082 -0.2391
  482MOL0     C64968  10.154  -0.285   9.337 -0.6620  0.3080 -1.1820
  482MOL0     C64969  10.190  -0.296   9.476  0.6640 -0.2873  0.1125
  482MOL0     O64970  10.233  -0.419   9.528  0.1387 -0.1375  0.6323
  482MOL0     C64971  10.295  -0.413   9.656  0.4416 -0.0202  0.9149
  482MOL0     C64972  10.371  -0.545   9.681  0.0057 -1.5405  0.3737
  482MOL0     C64973  10.501  -0.554   9.600 -0.2351 -0.6417  0.7507
  482MOL0     C64974  10.573  -0.691   9.622  0.1067 -0.4125  1.0870
  482MOL0     C64975  10.694  -0.712   9.533  1.0428 -0.3110  0.2849
  482MOL0     C64976  10.684  -0.689   9.369  0.4332  0.3305 -1.4619
  482MOL0     C64977  10.568  -0.751   9.291 -0.4173  0.4578  0.1986
  482MOL0     C64978  10.576  -0.909   9.309  0.4153 -0.1861  1.1119
  482MOL0    Cl64979  10.739  -0.981   9.274 -0.3164  0.4390 -0.0309
  482MOL0     C64980  10.157  -0.187   9.560 -0.3977  0.8392 -0.0316
  482MOL0     C64981  10.104  -0.067   9.503 -0.1428 -0.1492  0.1045
  482MOL0     O64982  10.223   0.155   9.337 -0.3830  0.1560 -0.2526
  482MOL0     C64983   9.926   0.257   9.163  0.5374 -0.3859 -0.8851
  482MOL0     C64984   9.868   0.362   9.096  0.7592 -0.6699  0.4988
  482MOL0     N64985  10.063   0.965   8.492  0.8990 -0.3087 -0.2837
  482MOL0     N64986  10.059   1.065   8.411  0.3371  0.1873  0.4941
  482MOL0     C64987  10.346   0.690   7.674 -0.1241 -0.2431  0.7256
  482MOL0     C64988  10.421   0.592   7.732 -0.0391  0.3564 -0.5214
  482MOL0     C64989  10.618   0.193   7.799 -0.0514  0.2445  0.3748
  482MOL0     C64990  10.670   0.223   7.917  0.1445 -0.0376 -1.3936
  482MOL0     C64991  10.677   0.125   8.022 -0.2501 -0.8280  0.2661
  482MOL0     C64992  10.641  -0.013   8.005 -0.7472  0.5402  0.0361
  482MOL0     O64993  10.668  -0.124   8.086  0.3617  0.9324 -0.2158
  482MOL0     C64994  10.698  -0.101   8.223  0.5799  1.2316 -0.3709
  482MOL0     C64995  10.578  -0.077   8.314  0.0452 -0.5773 -0.1260
  482MOL0     C64996  10.624  -0.059   8.465 -0.1464 -0.0737  0.5349
  482MOL0     C64997  10.737   0.054   8.498  0.0494  0.9598 -0.1932
  482MOL0     C64998  10.737   0.095   8.639 -0.5937  0.2520  0.7954
  482MOL0     C64999  10.710   0.131   8.747 -0.6513 -0.1893  0.1222
  482MOL0     C65000  10.596  -0.044   7.882  0.0987  0.2304 -0.3542
  482MOL0     C65001  10.590   0.053   7.779  0.1415 -0.5530 -0.1780
  482MOL0     C65002  10.537  -0.000   7.647 -0.0767 -0.9497 -0.3195
  482MOL0     H65003  10.657   0.530   7.504 -0.6467  1.1011 -1.0438
  482MOL0     H65004  10.538   0.733   7.397  0.4104  1.4736  0.2881
  482MOL0     H65005  10.164   0.965   7.481 -2.5110 -2.7299 -0.7088
  482MOL0     H65006  10.129   0.845   7.592  0.9571 -1.1728 -0.0617
  482MOL0     H65007  10.319   1.089   7.638  2.6397 -1.2444  1.0592
  482MOL0     H65008  10.345   0.962   7.738  0.9200 -0.3777 -0.4555
  482MOL0     H65009  10.070   1.098   7.702  0.0058  1.2048  2.9409
  482MOL0     H65010  10.186   1.136   7.818 -1.0004 -0.4452  0.9043
  482MOL0     H65011  10.029   0.870   7.791 -1.0116  0.3069 -0.4546
  482MOL0     H65012  10.141   0.893   7.920  0.2610 -0.4799 -0.8938
  482MOL0     H65013   9.889   1.036   7.867 -2.6726 -1.3518  2.1691
  482MOL0     H65014   9.915   0.913   7.987 -0.0579 -1.3752 -0.9562
  482MOL0     H65015  10.071   1.049   8.119  0.4184 -0.9866 -0.2477
  482MOL0     H65016  10.038   1.188   8.025 -0.1212 -0.5532  1.9703
  482MOL0     H65017   9.804   1.028   8.142  1.4451 -1.1841  0.0546
  482MOL0     H65018   9.799   1.192   8.080 -0.1159  1.9377  4.7024
  482MOL0     H65019   9.969   1.261   8.274  1.0718 -0.7883  0.8541
  482MOL0     H65020   9.797   1.233   8.297  0.8486  1.4479 -0.5198
  482MOL0     H65021   9.764   0.927   8.387  1.2352 -3.0601  0.1178
  482MOL0     H65022   9.810   0.737   8.552  0.3978  1.1462 -1.3166
  482MOL0     H65023   9.967   0.692   8.529 -0.6027 -1.2431  0.2318
  482MOL0     H65024  10.029   0.818   8.762 -0.2313  1.0326 -0.9100
  482MOL0     H65025   9.861   0.875   8.745  0.9827  0.9757  1.8448
  482MOL0     H65026   9.950   0.577   8.757  0.7138 -0.5205  2.1192
  482MOL0     H65027   9.786   0.665   8.796  0.3880  2.0255 -1.2107
  482MOL0     H65028   9.932   0.776   8.975  3.8314 -1.0006  0.8875
  482MOL0     H65029  10.051   0.651   8.948  0.1368 -1.2490 -0.4164
  482MOL0     H65030  10.125   0.576   9.108 -2.2016  1.9707 -0.0803
  482MOL0     H65031  10.224   0.417   9.238  0.3305  1.0476 -1.0233
  482MOL0     H65032  10.066  -0.162   9.180  1.7007 -0.3777 -0.9780
  482MOL0     H65033  10.177  -0.375   9.281  4.0426  0.6039 -0.1294
  482MOL0     H65034  10.374  -0.339   9.662  0.3390  0.2117 -0.2832
  482MOL0     H65035  10.224  -0.400   9.738 -0.0633  0.4097  0.4155
  482MOL0     H65036  10.402  -0.558   9.785  0.8506 -0.6868  0.2432
  482MOL0     H65037  10.310  -0.633   9.657 -1.4395 -1.1483  2.2747
  482MOL0     H65038  10.466  -0.547   9.497  0.3033 -0.1101  0.5938
  482MOL0     H65039  10.565  -0.466   9.616 -1.6630  0.2696  1.7128
  482MOL0     H65040  10.496  -0.763   9.597 -0.9681  1.1996 -0.5245
  482MOL0     H65041  10.590  -0.705   9.729 -0.3607 -1.6198  1.0152
  482MOL0     H65042  10.718  -0.817   9.553 -0.2481 -0.5947  0.4621
  482MOL0     H65043  10.772  -0.648   9.573  1.4771  0.4712 -1.6785
  482MOL0     H65044  10.664  -0.582   9.360  1.7043  0.4744 -3.1609
  482MOL0     H65045  10.777  -0.713   9.317  0.8105  0.3499 -0.8092
  482MOL0     H65046  10.574  -0.719   9.186 -0.8050  2.9867  0.9006
  482MOL0     H65047  10.470  -0.714   9.319  0.4158  0.8811  2.7715
  482MOL0     H65048  10.543  -0.937   9.409  0.4764 -0.8228  0.9596
  482MOL0     H65049  10.516  -0.968   9.239  0.8466  0.9690 -0.3050
  482MOL0     H65050  10.174  -0.196   9.666  0.9551  2.5587 -0.0666
  482MOL0     H65051  10.086   0.022   9.563  2.0714 -0.7439  1.7892
  482MOL0     H65052   9.868   0.165   9.165  1.5280 -1.0793 -2.0386
  482MOL0     H65053   9.773   0.361   9.044  1.4541  2.3086 -1.0425
  482MOL0     H65054  10.259   0.732   7.724 -0.4067 -0.1072  0.1314
  482MOL0     H65055  10.399   0.574   7.837 -0.7415 -1.2896 -0.9261
  482MOL0     H65056  10.708   0.324   7.930 -0.7007  0.1328 -0.0271
  482MOL0     H65057  10.721   0.163   8.113 -0.4011  1.9374 -0.7313
  482MOL0     H65058  10.774  -0.022   8.224  4.2124 -1.9292  1.0191
  482MOL0     H65059  10.760  -0.184   8.259  0.7313  1.8571  0.8924
  482MOL0     H65060  10.504  -0.157   8.314  0.3215 -0.8954 -2.0683
  482MOL0     H65061  10.519   0.007   8.278 -0.7604 -1.4863 -1.0086
  482MOL0     H65062  10.670  -0.152   8.500  1.5297 -1.4154 -4.4791
  482MOL0     H65063  10.545  -0.014   8.526  1.2185  2.1919  0.7709
  482MOL0     H65064  10.840   0.023   8.479 -0.5319 -1.4582  0.3652
  482MOL0     H65065  10.705   0.144   8.444  1.8138  1.2002 -0.9223
  482MOL0     H65066  10.694   0.175   8.844  1.8276  1.9733 -0.3194
  482MOL0     H65067  10.575  -0.150   7.867  1.6581 -0.3035  1.0198
  482MOL0     H65068  10.439   0.046   7.639  0.8074  0.7749 -1.9988
  482MOL0     H65069  10.601   0.029   7.563 -1.1271 -1.5047 -1.3421
  482MOL0     H65070  10.537  -0.109   7.653  0.7361 -0.9406 -0.0572
  483MOL0     O65071   7.425   5.894   9.296 -0.3070  0.5253  0.7924
  483MOL0     C65072   7.364   5.850   9.194 -0.1021 -0.1549  0.0239
  483MOL0     O65073   7.338   5.719   9.158 -0.4717 -0.8757 -0.8116
  483MOL0     C65074   7.382   5.614   9.248 -0.1143  0.8651  0.6097
  483MOL0     C65075   7.452   5.508   9.198  0.0256  0.5502 -0.7932
  483MOL0     C65076   7.505   5.405   9.285 -0.4743 -0.4938 -0.4574
  483MOL0     C65077   7.471   5.404   9.422 -0.0289  0.4975  0.6905
  483MOL0     O65078   7.513   5.305   9.510  0.5352  0.5528 -0.6528
  483MOL0     C65079   7.554   5.180   9.452 -0.2301 -0.0598  0.1807
  483MOL0     C65080   7.707   5.183   9.452 -0.5212  0.2593 -0.6324
  483MOL0     C65081   7.756   5.170   9.594 -0.6062 -0.7006  0.4148
  483MOL0     C65082   7.890   5.231   9.617 -0.5452 -0.0723  0.5539
  483MOL0     C65083   7.938   5.213   9.760  0.6500 -0.2022  0.2707
  483MOL0     C65084   8.061   5.288   9.804  0.7062 -0.0059 -0.8142
  483MOL0     C65085   8.040   5.434   9.823  0.0191  0.0282  0.4902
  483MOL0     C65086   8.161   5.496   9.893 -0.8957  0.4288  0.0754
  483MOL0     N65087   8.099   5.608   9.965  0.2876 -0.0752  0.5281
  483MOL0     C65088   8.068   5.595  10.100 -1.2861  0.1330  0.0428
  483MOL0     C65089   8.015   5.708  10.138  0.9083  0.2660  0.7248
  483MOL0     C65090   7.966   5.745  10.278 -0.2254 -0.6312  0.2995
  483MOL0     C65091   8.058   5.843  10.348 -0.9360 -0.5528  0.0938
  483MOL0     C65092   8.067   5.982  10.285  0.5686  0.6269 -0.0264
  483MOL0     C65093   8.124   6.081  10.378  0.5710 -1.2298 -0.7904
  483MOL0     O65094   8.030   6.118  10.486  0.3966 -0.0354  0.8966
  483MOL0     C65095   8.071   6.157  10.609 -0.0303 -0.3039  0.9700
  483MOL0     C65096   7.971   6.188  10.695 -0.0996 -0.0497 -1.1666
  483MOL0     C65097   8.000   6.247  10.823 -0.2886 -0.5809  0.5140
  483MOL0     C65098   8.135   6.278  10.860 -0.4591  0.4740  0.3662
  483MOL0     C65099   8.176   6.339  10.995 -0.4975 -0.6121 -0.0434
  483MOL0     O65100   8.303   6.312  11.042 -0.1647 -0.1539 -0.0389
  483MOL0     C65101   8.322   6.273  11.172 -0.0040 -0.4381 -0.0859
  483MOL0     C65102   8.321   6.137  11.199  0.1054 -0.1850 -0.2822
  483MOL0     C65103   8.336   6.095  11.338  0.6139 -0.9403  0.8513
  483MOL0     C65104   8.348   6.188  11.440  0.4711 -0.2322 -0.6285
  483MOL0     O65105   8.359   6.140  11.570  0.1426  0.0378 -0.4997
  483MOL0     C65106   8.406   6.224  11.672 -0.7576 -0.4740 -0.4619
  483MOL0     C65107   8.381   6.174  11.808  0.2066 -0.0308  0.1766
  483MOL0     C65108   8.473   6.247  11.916 -0.1074 -0.6588  0.6024
  483MOL0     C65109   8.550   6.162  12.008  0.0338  0.2132  0.2911
  483MOL0     C65110   8.645   6.235  12.101 -0.5473  0.9846  0.6436
  483MOL0     C65111   8.675   6.163  12.225  0.1547 -0.5992  0.5107
  483MOL0     C65112   8.730   6.267  12.329  0.4896  0.8926 -0.0482
  483MOL0     C65113   8.715   6.222  12.474 -0.1023  0.4719 -0.1419
  483MOL0    Cl65114   8.837   6.093  12.519  0.4773  0.5500 -0.6281
  483MOL0     C65115   8.345   6.327  11.408 -0.1046  0.3800  0.2430
  483MOL0     C65116   8.323   6.363  11.270  0.6844 -0.4935 -1.1918
  483MOL0     O65117   8.085   6.385  11.064  0.6667  0.3345 -0.6836
  483MOL0     C65118   8.238   6.251  10.769 -0.4387 -1.2467 -1.1127
  483MOL0     C65119   8.208   6.195  10.644 -0.2906 -0.5888 -0.2694
  483MOL0     N65120   7.993   5.780  10.025  1.1631  0.1811 -0.5399
  483MOL0     N65121   8.047   5.724   9.923  0.1202  0.4293  0.3908
  483MOL0     C65122   7.405   5.509   9.477  0.1092  0.3394  0.2708
  483MOL0     C65123   7.361   5.612   9.388 -0.0998  0.4191 -0.1622
  483MOL0     C65124   7.320   5.956   9.104  0.7971 -0.1972  0.7434
  483MOL0     C65125   7.336   5.927   8.963  0.1032  0.6343 -0.2885
  483MOL0     C65126   7.288   6.017   8.867 -0.4069 -0.4754 -0.1157
  483MOL0     C65127   7.227   6.134   8.911 -0.0358 -0.7298 -0.2773
  483MOL0     O65128   7.163   6.230   8.824 -0.2060  0.2782 -0.8262
  483MOL0     C65129   7.248   6.273   8.718 -0.0077 -0.1102  0.5393
  483MOL0     C65130   7.205   6.237   8.581 -0.3256 -0.4740  0.1348
  483MOL0     C65131   7.059   6.279   8.550  1.5712  1.1562  0.1480
  483MOL0     C65132   7.042   6.299   8.396 -0.8773 -0.2696  0.0520
  483MOL0     C65133   6.910   6.354   8.357  0.1756 -0.7315 -0.1364
  483MOL0     C65134   6.808   6.414   8.327  0.7993 -0.1853 -0.5640
  483MOL0     C65135   7.219   6.162   9.048  0.0311 -0.5650  0.7278
  483MOL0     C65136   7.272   6.080   9.147  0.4713 -0.1084 -0.2384
  483MOL0     C65137   7.248   6.109   9.296  0.3004  0.3349 -1.1659
  483MOL0     H65138   7.469   5.510   9.091 -2.4137 -2.5183 -1.3894
  483MOL0     H65139   7.571   5.337   9.232  0.1034  0.1031 -0.5199
  483MOL0     H65140   7.525   5.086   9.499  1.8628 -0.7167  0.2230
  483MOL0     H65141   7.517   5.171   9.349  1.0716  0.1323 -0.3267
  483MOL0     H65142   7.736   5.271   9.393  0.7045  0.8167  0.7686
  483MOL0     H65143   7.743   5.092   9.404  0.2387 -1.2152  2.4897
  483MOL0     H65144   7.768   5.065   9.622 -1.0217 -0.8001  0.2147
  483MOL0     H65145   7.688   5.221   9.662  0.4280  3.3521 -1.2563
  483MOL0     H65146   7.966   5.174   9.564  0.4331 -0.8643  2.6818
  483MOL0     H65147   7.893   5.333   9.576 -3.6560 -0.7767 -1.7482
  483MOL0     H65148   7.870   5.240   9.841 -1.0057 -0.0341 -1.0997
  483MOL0     H65149   7.953   5.105   9.773 -2.3266 -0.6378  0.9273
  483MOL0     H65150   8.089   5.252   9.903  0.8863 -0.7183 -1.1139
  483MOL0     H65151   8.143   5.258   9.739  1.0332  0.4911 -0.6324
  483MOL0     H65152   7.953   5.448   9.888 -2.8794  1.0706 -3.1946
  483MOL0     H65153   8.031   5.498   9.734  0.0276  0.6670  0.9446
  483MOL0     H65154   8.203   5.424   9.963 -0.2625 -0.1754 -0.9113
  483MOL0     H65155   8.237   5.522   9.819 -1.8661  1.8680 -0.4644
  483MOL0     H65156   8.085   5.503  10.155 -0.7276  1.1839  1.7029
  483MOL0     H65157   7.862   5.777  10.274 -0.6057 -1.7152  1.1203
  483MOL0     H65158   7.966   5.658  10.344  1.3199 -0.0768  1.1051
  483MOL0     H65159   8.024   5.851  10.452  0.4651 -0.0490  0.5410
  483MOL0     H65160   8.162   5.809  10.358 -0.2094  1.1387 -1.2009
  483MOL0     H65161   7.965   6.015  10.266  0.8910  1.3939 -0.4980
  483MOL0     H65162   8.117   5.984  10.187  0.4133 -2.3561 -0.2674
  483MOL0     H65163   8.148   6.180  10.338 -2.8026  0.3363  0.6903
  483MOL0     H65164   8.217   6.040  10.418  1.0944 -2.4341 -3.0845
  483MOL0     H65165   7.866   6.166  10.678 -0.3756  0.6365 -0.3896
  483MOL0     H65166   7.917   6.271  10.889  1.4376  0.7849  2.2814
  483MOL0     H65167   8.310   6.064  11.119  2.1668 -3.8381  2.4566
  483MOL0     H65168   8.346   5.991  11.366 -3.4470 -1.4171  0.9944
  483MOL0     H65169   8.513   6.246  11.659 -0.8166 -1.5062 -3.9397
  483MOL0     H65170   8.351   6.318  11.675  1.2611  0.7514  0.4063
  483MOL0     H65171   8.280   6.211  11.827  0.8193  1.4243  0.8192
  483MOL0     H65172   8.388   6.067  11.827 -3.4149 -0.6012 -0.9292
  483MOL0     H65173   8.538   6.322  11.870 -1.4385 -0.4329 -0.9841
  483MOL0     H65174   8.401   6.308  11.971 -3.4111 -0.9855 -2.9143
  483MOL0     H65175   8.625   6.101  11.956  1.0224  4.3465 -3.7380
  483MOL0     H65176   8.483   6.107  12.074 -0.7566  0.0013 -0.6701
  483MOL0     H65177   8.590   6.320  12.142  1.7040  1.3598  3.1818
  483MOL0     H65178   8.731   6.278  12.048  0.6923 -0.3384  1.4930
  483MOL0     H65179   8.587   6.109  12.261 -0.1626 -1.8979 -1.9393
  483MOL0     H65180   8.752   6.087  12.208  0.5666 -0.2248  0.7075
  483MOL0     H65181   8.675   6.360  12.317  0.8512  1.2999  1.2275
  483MOL0     H65182   8.835   6.296  12.316  0.4221  0.6694 -1.1650
  483MOL0     H65183   8.731   6.310  12.537  1.6061 -0.9447  1.5428
  483MOL0     H65184   8.611   6.196  12.495  0.3903  0.0062  1.9551
  483MOL0     H65185   8.344   6.412  11.476 -2.9544  0.3601  0.3846
  483MOL0     H65186   8.305   6.468  11.252 -2.4785 -1.0382 -1.7111
  483MOL0     H65187   8.333   6.289  10.807 -1.5860  1.5312 -0.7816
  483MOL0     H65188   8.296   6.187  10.581  0.5805  1.1142  0.6477
  483MOL0     H65189   7.384   5.520   9.583 -1.3482 -0.1887  0.0638
  483MOL0     H65190   7.288   5.685   9.422  0.2437  2.3567 -3.1519
  483MOL0     H65191   7.386   5.835   8.934  3.2416  0.6888  3.9258
  483MOL0     H65192   7.302   5.995   8.762  3.4627  0.9265 -0.0823
  483MOL0     H65193   7.353   6.247   8.739  0.0884  2.4774  4.3828
  483MOL0     H65194   7.256   6.382   8.715  0.5618 -0.1618 -1.9091
  483MOL0     H65195   7.227   6.130   8.574  4.2899  0.1353  1.8984
  483MOL0     H65196   7.267   6.289   8.507 -0.4166  1.1047  1.1126
  483MOL0     H65197   7.033   6.374   8.598  0.9879 -0.2621  2.8255
  483MOL0     H65198   6.994   6.200   8.589  3.0831 -0.6034 -0.7426
  483MOL0     H65199   7.115   6.373   8.359  1.3562 -0.4128  3.6997
  483MOL0     H65200   7.040   6.205   8.340 -1.0417 -1.3639  1.8305
  483MOL0     H65201   6.723   6.479   8.316  1.5141  1.1671  1.4451
  483MOL0     H65202   7.176   6.258   9.076  4.8188  2.5948 -1.4139
  483MOL0     H65203   7.250   6.031   9.373 -0.4862 -1.2634 -2.7116
  483MOL0     H65204   7.317   6.189   9.327 -1.9691  1.6600  0.8242
  483MOL0     H65205   7.148   6.152   9.306  0.7486  1.1575  0.1028
  484MOL0     O65206   1.426   3.388   4.686 -0.0270 -0.0080  0.0723
  484MOL0     C65207   1.332   3.428   4.615  0.1476 -0.1517  0.4990
  484MOL0     O65208   1.260   3.350   4.523  0.0771 -0.0836  0.0461
  484MOL0     C65209   1.296   3.215   4.513 -0.2790  0.5536  0.5475
  484MOL0     C65210   1.420   3.177   4.451 -0.4430 -0.4609 -0.5172
  484MOL0     C65211   1.466   3.045   4.444 -0.1143 -0.2364  0.0101
  484MOL0     C65212   1.386   2.946   4.484  0.7972  1.0476  0.0804
  484MOL0     O65213   1.436   2.818   4.478 -0.3773 -0.2851 -0.1384
  484MOL0     C65214   1.353   2.706   4.506 -0.3230 -0.4936  1.3687
  484MOL0     C65215   1.232   2.692   4.400  0.6284 -0.1521 -0.8352
  484MOL0     C65216   1.281   2.641   4.261 -0.6351 -0.2370 -0.7643
  484MOL0     C65217   1.285   2.487   4.250  0.0901 -0.4724  0.3384
  484MOL0     C65218   1.339   2.436   4.115  0.5922 -0.1566  0.4823
  484MOL0     C65219   1.216   2.403   4.019  0.4529  0.0058 -0.4861
  484MOL0     C65220   1.267   2.336   3.887  0.3473  0.1982 -0.2282
  484MOL0     C65221   1.373   2.406   3.805  0.3448  0.4600  0.1407
  484MOL0     N65222   1.403   2.361   3.668  0.8929  0.1109  0.6304
  484MOL0     C65223   1.339   2.416   3.560 -0.9706 -0.2187  0.0969
  484MOL0     C65224   1.367   2.337   3.452 -0.3016 -0.0440  1.0341
  484MOL0     C65225   1.312   2.373   3.314  0.1534  0.4527 -0.3698
  484MOL0     C65226   1.417   2.439   3.228  0.5975 -0.4393  0.0429
  484MOL0     C65227   1.554   2.359   3.221 -0.0792 -0.6994 -0.2627
  484MOL0     C65228   1.620   2.388   3.080  0.0305  0.5881 -1.0238
  484MOL0     O65229   1.630   2.529   3.065  0.6131 -0.2896  0.3144
  484MOL0     C65230   1.716   2.614   3.138 -0.7671  0.3378  0.2714
  484MOL0     C65231   1.826   2.563   3.203  0.3982 -0.1221 -0.4504
  484MOL0     C65232   1.919   2.652   3.262 -0.2506 -0.1701  0.6017
  484MOL0     C65233   1.918   2.790   3.238  0.0624  0.3887 -0.3343
  484MOL0     C65234   2.029   2.880   3.279 -0.8393 -0.4983  0.2568
  484MOL0     O65235   2.090   2.859   3.409  0.1629 -0.5913 -0.0546
  484MOL0     C65236   2.187   2.942   3.465  0.7634 -0.5901  0.4233
  484MOL0     C65237   2.182   2.963   3.605 -0.9778  0.5688  0.9212
  484MOL0     C65238   2.294   3.031   3.663 -1.1764  0.8295  0.4262
  484MOL0     C65239   2.409   3.063   3.592 -0.3138 -0.2408  0.4817
  484MOL0     O65240   2.525   3.094   3.658  0.8085  0.4450  0.4184
  484MOL0     C65241   2.598   3.201   3.592  0.5176  0.4905 -0.8428
  484MOL0     C65242   2.736   3.192   3.663  0.6537  0.0172 -0.0565
  484MOL0     C65243   2.817   3.306   3.595  0.7882  0.4714  0.4136
  484MOL0     C65244   2.944   3.319   3.674  0.7357 -1.3417  1.0510
  484MOL0     C65245   3.015   3.442   3.617  0.5932  0.0153 -0.2628
  484MOL0     C65246   3.140   3.480   3.704 -0.2133  0.1478 -1.0542
  484MOL0     C65247   3.223   3.577   3.629 -0.2892 -0.0523 -0.0420
  484MOL0     C65248   3.280   3.683   3.725  0.0909  0.2677  0.1488
  484MOL0    Cl65249   3.446   3.725   3.661  0.4822 -0.0628 -0.0811
  484MOL0     C65250   2.411   3.051   3.452  0.1657 -0.0718  0.2041
  484MOL0     C65251   2.298   2.991   3.386 -0.2241 -0.3996  0.2541
  484MOL0     O65252   2.058   2.972   3.190  0.1073  0.4416  0.1647
  484MOL0     C65253   1.799   2.840   3.177 -0.5624  0.6929 -0.0998
  484MOL0     C65254   1.700   2.754   3.124 -0.3709  0.8129  1.1671
  484MOL0     N65255   1.442   2.230   3.496 -1.4085 -0.0976 -1.1574
  484MOL0     N65256   1.459   2.245   3.626 -0.7374 -0.5903 -0.0275
  484MOL0     C65257   1.258   2.978   4.544  0.0123 -0.4538  0.6866
  484MOL0     C65258   1.214   3.116   4.562  0.2707  0.2924  0.1997
  484MOL0     C65259   1.291   3.564   4.630  0.5418 -0.2984 -0.1537
  484MOL0     C65260   1.157   3.609   4.617 -0.8281 -0.7082  0.1984
  484MOL0     C65261   1.121   3.751   4.611 -0.0915  0.2148 -0.3042
  484MOL0     C65262   1.219   3.846   4.630  1.2928  0.2591 -0.6956
  484MOL0     O65263   1.190   3.975   4.635 -0.4151  0.1116 -0.0937
  484MOL0     C65264   1.067   4.036   4.607  0.3659  0.6694  0.1965
  484MOL0     C65265   0.974   4.041   4.730  0.0352 -0.9090  0.6260
  484MOL0     C65266   0.848   4.129   4.702  0.7283 -0.2933  0.6204
  484MOL0     C65267   0.758   4.027   4.630  0.6309  0.5354  0.1869
  484MOL0     C65268   0.642   4.099   4.581 -1.2453  0.0026 -0.0352
  484MOL0     C65269   0.545   4.162   4.555  0.1697  0.7520 -0.2965
  484MOL0     C65270   1.350   3.806   4.663  0.4797  0.3497  0.8924
  484MOL0     C65271   1.385   3.668   4.650  0.0039  0.4468 -0.0773
  484MOL0     C65272   1.531   3.647   4.673 -0.4598  0.5696 -0.8210
  484MOL0     H65273   1.491   3.256   4.428 -1.1696  0.3279 -0.1038
  484MOL0     H65274   1.557   3.029   4.387 -0.8937  0.2154 -1.4082
  484MOL0     H65275   1.406   2.610   4.506  1.2388  0.2119 -2.0499
  484MOL0     H65276   1.317   2.722   4.608  2.0312 -0.3046  2.2292
  484MOL0     H65277   1.188   2.791   4.381 -1.8712 -0.7308  1.4554
  484MOL0     H65278   1.144   2.641   4.439 -0.5988  2.2054 -0.3205
  484MOL0     H65279   1.377   2.686   4.234 -0.0933 -1.1019 -0.2892
  484MOL0     H65280   1.209   2.673   4.184  0.7454  0.3679 -1.8395
  484MOL0     H65281   1.340   2.435   4.329 -0.9729 -0.0937  1.3461
  484MOL0     H65282   1.184   2.452   4.273  0.3612  0.3236  3.0327
  484MOL0     H65283   1.409   2.506   4.070 -1.3259  2.6600  1.5887
  484MOL0     H65284   1.395   2.343   4.132  1.0458  0.3855  2.1372
  484MOL0     H65285   1.147   2.333   4.066  1.8647 -2.5698 -2.0166
  484MOL0     H65286   1.170   2.498   3.991  2.8907  1.1634 -0.8534
  484MOL0     H65287   1.177   2.325   3.827  1.5827  0.1613 -2.1595
  484MOL0     H65288   1.301   2.236   3.918 -0.9553  0.1283  1.0872
  484MOL0     H65289   1.340   2.510   3.810 -0.0374  0.3003  1.2682
  484MOL0     H65290   1.469   2.409   3.857 -0.8563  3.5446  2.5141
  484MOL0     H65291   1.283   2.509   3.560 -0.9308 -0.1893  1.1020
  484MOL0     H65292   1.270   2.289   3.257 -0.4927  0.1688  0.5090
  484MOL0     H65293   1.228   2.438   3.342 -0.5915 -0.7119  0.1576
  484MOL0     H65294   1.384   2.464   3.126 -0.8260 -0.8007  0.4068
  484MOL0     H65295   1.433   2.537   3.275 -2.4009  1.3398 -2.2713
  484MOL0     H65296   1.525   2.256   3.243  0.7576 -0.7778  0.5324
  484MOL0     H65297   1.614   2.382   3.309 -1.5270  0.5766  0.4399
  484MOL0     H65298   1.568   2.352   2.991 -3.5164  0.9127  0.7342
  484MOL0     H65299   1.721   2.345   3.077  0.2285  0.7134  1.4623
  484MOL0     H65300   1.850   2.459   3.222  1.4557  0.3127  0.8207
  484MOL0     H65301   1.996   2.610   3.325  1.0657  2.7695  1.1275
  484MOL0     H65302   2.099   2.932   3.668 -2.5250  2.2685 -0.1759
  484MOL0     H65303   2.298   3.049   3.770 -0.8436 -1.3243  0.8283
  484MOL0     H65304   2.603   3.187   3.484 -3.8383 -0.3870 -1.1286
  484MOL0     H65305   2.551   3.293   3.629 -1.2766 -0.2486 -1.1448
  484MOL0     H65306   2.728   3.209   3.771 -0.2170  0.2551 -0.1490
  484MOL0     H65307   2.792   3.099   3.648  4.0431  2.0402 -0.9716
  484MOL0     H65308   2.836   3.271   3.493 -0.8050 -2.0606  0.9143
  484MOL0     H65309   2.755   3.396   3.589 -1.8838 -1.3335 -1.8896
  484MOL0     H65310   3.009   3.234   3.651  3.1621  1.2236 -3.0269
  484MOL0     H65311   2.935   3.317   3.783  1.6445  1.5384  1.2561
  484MOL0     H65312   2.942   3.522   3.630 -1.0499 -0.3284 -5.2498
  484MOL0     H65313   3.041   3.434   3.511 -2.9675  1.9016 -1.4347
  484MOL0     H65314   3.102   3.522   3.799 -0.4322  1.1978 -1.5904
  484MOL0     H65315   3.215   3.404   3.724  0.7503  2.0190  4.4168
  484MOL0     H65316   3.170   3.627   3.547 -1.8656 -2.4106 -0.5850
  484MOL0     H65317   3.301   3.517   3.580  0.9398  1.2848  0.2325
  484MOL0     H65318   3.221   3.774   3.738 -3.6662 -1.6958 -1.3835
  484MOL0     H65319   3.312   3.630   3.816  1.2386 -0.3148 -0.5772
  484MOL0     H65320   2.503   3.054   3.395 -1.1712 -1.8591 -2.2272
  484MOL0     H65321   2.308   2.980   3.278  4.2625  2.7189  0.0598
  484MOL0     H65322   1.782   2.942   3.146 -0.8012  0.7722  0.2800
  484MOL0     H65323   1.621   2.799   3.065 -1.5088 -0.3947  1.7051
  484MOL0     H65324   1.193   2.899   4.581 -2.1198 -0.1903 -2.1221
  484MOL0     H65325   1.131   3.142   4.626  0.9005  0.9488  0.7700
  484MOL0     H65326   1.076   3.539   4.600 -1.2803 -0.5133  1.5000
  484MOL0     H65327   1.017   3.782   4.606 -0.0038  0.9198  1.3856
  484MOL0     H65328   1.014   3.980   4.529 -0.0062 -0.5625  1.3134
  484MOL0     H65329   1.090   4.134   4.563  2.5015 -0.2620 -0.8866
  484MOL0     H65330   1.030   4.091   4.810  0.3094  1.3916 -0.9060
  484MOL0     H65331   0.949   3.936   4.749 -1.9267 -0.4117  1.0088
  484MOL0     H65332   0.877   4.211   4.636 -2.3710  1.2198  1.0132
  484MOL0     H65333   0.798   4.172   4.789  1.9743  1.2611  0.6116
  484MOL0     H65334   0.813   3.970   4.555 -0.2746  0.2960 -0.3143
  484MOL0     H65335   0.714   3.955   4.700  0.2052 -1.1263 -1.7052
  484MOL0     H65336   0.446   4.201   4.540 -1.6710 -2.4936  1.9562
  484MOL0     H65337   1.426   3.881   4.680  0.2938  1.0029 -0.9363
  484MOL0     H65338   1.584   3.731   4.629 -0.0176  0.4088 -0.6015
  484MOL0     H65339   1.549   3.635   4.780 -4.1559 -2.6618 -0.3157
  484MOL0     H65340   1.585   3.563   4.627  3.0195  1.0960  1.8602
  485MOL0     O65341  10.822  10.835   4.217 -0.2446 -0.5262 -0.2824
  485MOL0     C65342  10.910  10.900   4.153 -0.1861 -0.6532 -0.7006
  485MOL0     O65343  10.982  10.848   4.049  0.1938 -0.3373  0.2124
  485MOL0     C65344  10.973  10.720   4.008 -0.0266 -0.1833  0.7165
  485MOL0     C65345  10.977  10.604   4.094 -0.0038  0.3728 -0.0123
  485MOL0     C65346  10.958  10.477   4.043  0.0478  0.2563 -0.3376
  485MOL0     C65347  10.968  10.457   3.911 -0.0408  0.1714  0.2332
  485MOL0     O65348  10.939  10.347   3.833  0.0137 -0.1359  0.0190
  485MOL0     C65349  10.889  10.231   3.898 -0.4104 -0.0148  0.4343
  485MOL0     C65350  10.964  10.097   3.866  0.1301  0.0442  0.0520
  485MOL0     C65351  10.949  10.042   3.722 -1.3618 -0.0610  0.3474
  485MOL0     C65352  11.060   9.934   3.713  0.2309 -0.3654 -0.8256
  485MOL0     C65353  11.057   9.876   3.570  0.2717 -0.1555 -0.7809
  485MOL0     C65354  11.152   9.761   3.542  0.8467  0.0402 -0.8464
  485MOL0     C65355  11.144   9.711   3.395  0.5509 -0.3836  0.0443
  485MOL0     C65356  11.225   9.582   3.387 -0.0060  0.3830  0.5719
  485MOL0     N65357  11.142   9.462   3.431 -0.3730 -0.1973  0.1201
  485MOL0     C65358  11.039   9.405   3.362 -0.0851  0.2953 -0.0394
  485MOL0     C65359  11.016   9.277   3.411 -0.2167 -1.2515  1.0692
  485MOL0     C65360  10.897   9.195   3.355 -0.4238 -0.9321 -0.3848
  485MOL0     C65361  10.953   9.083   3.264 -0.5106  0.3290  0.2505
  485MOL0     C65362  10.871   8.969   3.207  0.7113  0.7244 -0.4308
  485MOL0     C65363  10.776   9.004   3.094 -0.9744 -0.7203  0.5425
  485MOL0     O65364  10.691   8.898   3.063  0.1870 -0.2287 -0.2716
  485MOL0     C65365  10.741   8.798   2.979 -0.8934 -1.3400 -0.3440
  485MOL0     C65366  10.748   8.670   3.032 -0.2261 -0.3499 -0.0741
  485MOL0     C65367  10.797   8.572   2.954  0.2330 -0.3525 -0.6656
  485MOL0     C65368  10.836   8.588   2.815 -0.8283  0.7975 -0.1325
  485MOL0     C65369  10.891   8.484   2.723 -0.5612  0.1503  0.1184
  485MOL0     O65370  10.835   8.477   2.598 -0.4944  0.5351  0.3248
  485MOL0     C65371  10.876   8.401   2.494  0.0903 -0.2720  0.7641
  485MOL0     C65372  10.941   8.284   2.505  0.4888  0.7819  0.1477
  485MOL0     C65373  10.986   8.214   2.393 -0.3905  0.2407 -0.8497
  485MOL0     C65374  10.952   8.268   2.265 -0.1964 -0.6460 -0.3723
  485MOL0     O65375  10.988   8.204   2.159  0.4305  0.1714 -0.0696
  485MOL0     C65376  11.112   8.259   2.098 -0.5480  0.0935  0.3292
  485MOL0     C65377  11.069   8.358   1.995 -0.8030 -0.5840 -0.2563
  485MOL0     C65378  11.180   8.413   1.906 -1.2037 -0.5896 -0.4867
  485MOL0     C65379  11.253   8.312   1.823 -0.7648 -1.3560 -0.2884
  485MOL0     C65380  11.350   8.355   1.725  0.3647 -0.3495  0.1464
  485MOL0     C65381  11.484   8.417   1.759 -0.0260 -0.3766 -0.6772
  485MOL0     C65382  11.590   8.457   1.658 -0.7997 -0.7040 -0.5132
  485MOL0     C65383  11.637   8.336   1.577  0.5802  0.0439 -0.0427
  485MOL0    Cl65384  11.707   8.398   1.423 -0.2533 -0.0294  0.4152
  485MOL0     C65385  10.878   8.377   2.256  1.0320  0.5612  0.1269
  485MOL0     C65386  10.834   8.435   2.367 -0.4441 -0.2263  0.2335
  485MOL0     O65387  10.992   8.430   2.752  0.0564  0.4098 -0.6388
  485MOL0     C65388  10.829   8.714   2.764 -0.0539  0.3384  0.5265
  485MOL0     C65389  10.780   8.822   2.841  0.5854 -0.7162 -0.4835
  485MOL0     N65390  11.098   9.270   3.524  0.6441 -0.5612 -0.0158
  485MOL0     N65391  11.169   9.377   3.537 -0.0085  0.2988  0.1968
  485MOL0     C65392  10.977  10.566   3.822  0.1089 -0.2224  0.8917
  485MOL0     C65393  10.961  10.692   3.869 -0.5499  0.2490 -0.3710
  485MOL0     C65394  10.958  11.030   4.208 -1.3433  0.3943  0.6433
  485MOL0     C65395  10.963  11.052   4.350  0.4222  0.3923 -0.4435
  485MOL0     C65396  11.029  11.176   4.395  1.1947  0.0619 -0.6315
  485MOL0     C65397  11.090  11.267   4.314 -1.1750 -0.2757  0.2274
  485MOL0     O65398  11.154  11.378   4.366 -0.4953 -0.1953  0.3869
  485MOL0     C65399  11.210  11.487   4.285  0.1533 -0.1733 -0.2607
  485MOL0     C65400  11.350  11.529   4.353  0.3396 -0.9758 -0.7154
  485MOL0     C65401  11.337  11.554   4.520 -0.3847 -0.0432 -0.1914
  485MOL0     C65402  11.468  11.593   4.585 -0.1503  0.5044  0.8827
  485MOL0     C65403  11.467  11.612   4.730 -0.2994 -0.2120  0.3708
  485MOL0     C65404  11.466  11.602   4.851  0.2964 -0.8870  0.6616
  485MOL0     C65405  11.077  11.243   4.176 -0.2265  0.2342  0.7452
  485MOL0     C65406  11.015  11.126   4.119  0.3732 -0.0895 -0.3497
  485MOL0     C65407  11.020  11.119   3.969 -0.0107 -0.2383 -0.5679
  485MOL0     H65408  10.973  10.622   4.201 -1.2252 -0.7552  0.1666
  485MOL0     H65409  10.953  10.399   4.119 -0.0748  0.3499 -0.2488
  485MOL0     H65410  10.897  10.234   4.007 -2.6343 -4.6250  0.9597
  485MOL0     H65411  10.784  10.214   3.872 -0.7587  1.5075  0.7351
  485MOL0     H65412  10.911  10.029   3.933 -2.6251  0.9244 -1.1092
  485MOL0     H65413  11.068  10.127   3.883  0.0020  1.8859 -2.1120
  485MOL0     H65414  10.973  10.113   3.642 -0.6333 -0.3835  0.2631
  485MOL0     H65415  10.846  10.007   3.711 -1.4825  0.3097  0.2862
  485MOL0     H65416  11.158   9.980   3.734 -0.0147  0.4058 -1.3265
  485MOL0     H65417  11.061   9.849   3.783  1.1910 -0.2568 -0.6872
  485MOL0     H65418  10.953   9.845   3.563 -0.0004  0.6843 -0.4961
  485MOL0     H65419  11.064   9.952   3.492  0.4320 -1.6011 -2.2306
  485MOL0     H65420  11.254   9.795   3.562  2.1952 -3.3167 -1.3220
  485MOL0     H65421  11.129   9.679   3.610  0.4779  2.1584  1.7127
  485MOL0     H65422  11.180   9.788   3.326 -1.2894  0.7296  0.2608
  485MOL0     H65423  11.042   9.695   3.359  0.5469 -1.9673  0.6584
  485MOL0     H65424  11.265   9.573   3.286  2.3799 -1.5531  1.5771
  485MOL0     H65425  11.312   9.591   3.453 -0.5667  1.3600  1.1917
  485MOL0     H65426  10.988   9.462   3.285 -0.3833  2.0283  1.3955
  485MOL0     H65427  10.842   9.160   3.442  2.6334 -2.1242  1.2387
  485MOL0     H65428  10.829   9.264   3.304  3.4156  2.0037 -2.0257
  485MOL0     H65429  11.003   9.137   3.182 -1.1199  0.3339 -0.1210
  485MOL0     H65430  11.030   9.040   3.329 -0.9798 -2.0403 -0.6871
  485MOL0     H65431  10.807   8.938   3.290 -0.1979  0.4963 -1.1931
  485MOL0     H65432  10.943   8.894   3.175  0.5912  0.1573  0.5826
  485MOL0     H65433  10.820   9.033   2.998  0.4499  0.0946  1.4113
  485MOL0     H65434  10.711   9.089   3.117 -0.6452 -0.8049  1.8316
  485MOL0     H65435  10.711   8.651   3.131  0.7974 -0.6002  0.2770
  485MOL0     H65436  10.801   8.475   3.002 -2.0142 -0.8823 -1.3950
  485MOL0     H65437  10.946   8.229   2.599 -1.6397 -2.7210 -1.5737
  485MOL0     H65438  11.037   8.118   2.393 -2.7330 -1.1135 -2.1901
  485MOL0     H65439  11.173   8.306   2.176 -3.6890 -1.0039  3.7680
  485MOL0     H65440  11.163   8.178   2.045 -2.6202 -1.0020 -0.0711
  485MOL0     H65441  10.995   8.313   1.928 -0.3410  0.5753 -1.6136
  485MOL0     H65442  11.046   8.453   2.043  0.7104 -0.7035  0.7740
  485MOL0     H65443  11.122   8.481   1.844 -0.3919 -1.0175 -1.7783
  485MOL0     H65444  11.241   8.475   1.973 -0.3701  0.2618 -1.9721
  485MOL0     H65445  11.179   8.252   1.771 -2.7069 -0.3384  1.1743
  485MOL0     H65446  11.314   8.256   1.895 -0.9816 -0.3809  0.7011
  485MOL0     H65447  11.300   8.424   1.656  4.0705  3.0039  0.4407
  485MOL0     H65448  11.376   8.266   1.667 -1.3633  0.1624 -1.5221
  485MOL0     H65449  11.459   8.503   1.822  0.1184 -2.4403  2.4493
  485MOL0     H65450  11.525   8.341   1.827 -0.8453  2.7749  3.8213
  485MOL0     H65451  11.676   8.507   1.704 -2.2780  2.7322 -1.2081
  485MOL0     H65452  11.551   8.535   1.592 -1.0534  0.3277  0.8020
  485MOL0     H65453  11.727   8.295   1.623 -0.4536 -3.4241 -0.8538
  485MOL0     H65454  11.562   8.260   1.556  1.6893 -0.1903 -4.1256
  485MOL0     H65455  10.837   8.410   2.160 -0.3237 -1.5765 -0.0963
  485MOL0     H65456  10.767   8.520   2.372  3.4416  3.0667  0.6914
  485MOL0     H65457  10.877   8.734   2.669  1.0987 -3.5176  0.1381
  485MOL0     H65458  10.764   8.919   2.794  0.4934  0.5728  2.0198
  485MOL0     H65459  10.990  10.556   3.714  0.7132  1.0269  0.8334
  485MOL0     H65460  10.939  10.779   3.808  0.4988  2.9487  2.7684
  485MOL0     H65461  10.923  10.976   4.416 -1.5607 -1.8606 -3.9603
  485MOL0     H65462  11.017  11.221   4.493  3.1114 -0.3182 -0.1967
  485MOL0     H65463  11.141  11.572   4.281 -0.2679 -0.4440  0.7843
  485MOL0     H65464  11.228  11.475   4.178  3.6857  2.4382 -0.1677
  485MOL0     H65465  11.371  11.622   4.298  0.2991 -1.9178 -2.3778
  485MOL0     H65466  11.430  11.457   4.334  0.6267 -0.3392 -2.0351
  485MOL0     H65467  11.303  11.467   4.578  0.3329 -0.6361 -0.6522
  485MOL0     H65468  11.258  11.630   4.522 -3.9766 -3.4978  1.1213
  485MOL0     H65469  11.541  11.513   4.568 -1.2916 -1.3367  3.8197
  485MOL0     H65470  11.513  11.674   4.527  1.6866 -0.7744  0.4376
  485MOL0     H65471  11.473  11.594   4.957  2.3273  2.2849  0.9340
  485MOL0     H65472  11.109  11.317   4.104 -3.7418  1.6366  0.4277
  485MOL0     H65473  11.122  11.087   3.942  0.4595  0.2491  0.5473
  485MOL0     H65474  10.951  11.055   3.913  1.8578 -0.3721 -2.9157
  485MOL0     H65475  11.013  11.222   3.931  0.1138 -0.0214 -0.0181
  486MOL0     O65476   4.359   9.450   8.306 -0.8184 -0.2829 -0.0645
  486MOL0     C65477   4.325   9.435   8.191 -0.4686  0.5181 -0.0566
  486MOL0     O65478   4.214   9.368   8.150  0.4399  0.3067 -0.8090
  486MOL0     C65479   4.114   9.320   8.230 -0.2714 -0.0378 -0.3808
  486MOL0     C65480   4.045   9.395   8.329 -0.1144 -0.2935 -0.1152
  486MOL0     C65481   3.941   9.342   8.404 -0.4564  0.0876  0.0693
  486MOL0     C65482   3.890   9.214   8.365 -0.1789  0.4574 -1.1925
  486MOL0     O65483   3.787   9.154   8.432 -0.0219  0.2337 -0.8727
  486MOL0     C65484   3.748   9.199   8.562 -0.2151 -0.0980  0.4311
  486MOL0     C65485   3.645   9.095   8.607 -0.5867  0.4800  0.5435
  486MOL0     C65486   3.507   9.133   8.560  1.1068  0.5476  0.4889
  486MOL0     C65487   3.407   9.097   8.668  0.6095  0.7297 -0.2248
  486MOL0     C65488   3.261   9.132   8.629 -1.3579 -0.0893 -1.3855
  486MOL0     C65489   3.232   9.289   8.652 -1.1160 -0.9047 -0.0774
  486MOL0     C65490   3.084   9.325   8.622  0.1586  0.6084 -0.9365
  486MOL0     C65491   2.993   9.243   8.703  0.1281  0.6452 -0.3714
  486MOL0     N65492   2.854   9.289   8.709 -0.4356 -0.1420  0.2440
  486MOL0     C65493   2.821   9.414   8.758 -0.5677 -0.7485  0.8981
  486MOL0     C65494   2.685   9.419   8.763 -0.2552 -0.1952  0.5654
  486MOL0     C65495   2.609   9.535   8.824 -0.5292  0.0109 -0.1022
  486MOL0     C65496   2.473   9.575   8.767  0.1648 -0.0662  0.9194
  486MOL0     C65497   2.422   9.679   8.867  1.2319 -0.7158 -0.1418
  486MOL0     C65498   2.277   9.727   8.831 -0.1122 -0.1651  0.5221
  486MOL0     O65499   2.220   9.796   8.949 -0.0485 -0.3971  0.3816
  486MOL0     C65500   2.113   9.875   8.930 -0.0644 -0.3899 -1.0410
  486MOL0     C65501   2.080   9.959   9.028  0.2750 -0.3738 -0.3029
  486MOL0     C65502   1.965  10.046   9.022  0.1037  0.7857  0.9310
  486MOL0     C65503   1.866  10.029   8.923  0.4140 -1.1119  1.0637
  486MOL0     C65504   1.764  10.131   8.904 -0.0982 -0.3139  0.5944
  486MOL0     O65505   1.775  10.244   8.980 -0.7644  0.1707  0.4816
  486MOL0     C65506   1.685  10.345   8.962 -0.8038 -0.3439  0.3321
  486MOL0     C65507   1.724  10.463   9.030 -0.7597  0.2254 -0.2239
  486MOL0     C65508   1.660  10.587   9.024  0.6345  0.3032  0.3974
  486MOL0     C65509   1.559  10.606   8.923  0.4702 -0.1713 -0.6676
  486MOL0     O65510   1.503  10.732   8.901  0.5112 -0.1884 -0.3057
  486MOL0     C65511   1.599  10.838   8.919  0.0251 -0.4610 -0.4424
  486MOL0     C65512   1.567  10.983   8.879 -0.5170  0.1371 -0.1833
  486MOL0     C65513   1.448  11.036   8.958 -1.1931  0.1657 -0.7390
  486MOL0     C65514   1.376  11.163   8.899 -0.5366  1.3515  1.0232
  486MOL0     C65515   1.481  11.259   8.840  0.0041  0.1817  0.3374
  486MOL0     C65516   1.435  11.407   8.857  0.2581  0.3364  0.4780
  486MOL0     C65517   1.547  11.506   8.824  0.4301  0.0392 -0.0525
  486MOL0     C65518   1.514  11.638   8.869  0.1534  0.1084 -1.0211
  486MOL0    Cl65519   1.590  11.756   8.773  0.7357 -0.0760 -0.1066
  486MOL0     C65520   1.516  10.494   8.847  0.1213 -0.1258 -0.1187
  486MOL0     C65521   1.580  10.367   8.865 -0.1403 -0.1954 -0.1691
  486MOL0     O65522   1.679  10.114   8.812 -0.7782  0.2011 -0.6114
  486MOL0     C65523   1.897   9.931   8.829 -0.4974 -0.1434  0.8663
  486MOL0     C65524   2.015   9.866   8.823  0.2163 -0.3487  0.2620
  486MOL0     N65525   2.634   9.301   8.716  0.1987  0.6755  0.3266
  486MOL0     N65526   2.738   9.224   8.695  0.4900  0.1422  0.1529
  486MOL0     C65527   3.950   9.138   8.259  0.1838  0.5341  0.5238
  486MOL0     C65528   4.070   9.192   8.203  0.1838 -0.2880 -0.2361
  486MOL0     C65529   4.410   9.490   8.078 -0.4484 -0.2150 -0.0940
  486MOL0     C65530   4.363   9.472   7.947  0.2025  0.4305  0.0675
  486MOL0     C65531   4.425   9.512   7.834 -0.1409  0.3086  0.0789
  486MOL0     C65532   4.545   9.589   7.845  0.0010 -0.4361 -0.0539
  486MOL0     O65533   4.622   9.636   7.733  0.2394 -0.5063  0.3197
  486MOL0     C65534   4.592   9.643   7.596  0.9494  0.3338 -0.0373
  486MOL0     C65535   4.476   9.757   7.567 -0.4919 -0.1160 -0.3523
  486MOL0     C65536   4.527   9.902   7.560 -0.1607 -1.0401 -0.1563
  486MOL0     C65537   4.423   9.998   7.528 -0.0160 -0.5649  0.4367
  486MOL0     C65538   4.331  10.006   7.642 -0.3507  0.4935 -0.7288
  486MOL0     C65539   4.258  10.034   7.731  0.0196 -0.0355  0.3574
  486MOL0     C65540   4.598   9.608   7.977  0.7432 -0.6101 -0.3328
  486MOL0     C65541   4.535   9.562   8.092  0.1357  0.0530  0.7511
  486MOL0     C65542   4.614   9.579   8.221  0.3953 -0.9584 -0.8851
  486MOL0     H65543   4.097   9.486   8.354  2.5410 -1.8231  0.3293
  486MOL0     H65544   3.902   9.389   8.494 -2.2835  0.0608 -0.6605
  486MOL0     H65545   3.826   9.192   8.638 -0.4918 -2.2750  0.5924
  486MOL0     H65546   3.705   9.298   8.577  0.4683 -0.1029  2.6847
  486MOL0     H65547   3.660   9.082   8.714 -1.3174 -0.6016  0.5264
  486MOL0     H65548   3.664   9.002   8.552 -1.2649  3.3529 -5.4613
  486MOL0     H65549   3.479   9.081   8.468  1.2790 -2.1962  1.9173
  486MOL0     H65550   3.489   9.239   8.538 -0.8642  0.7366  2.6479
  486MOL0     H65551   3.412   8.989   8.682  1.7075  0.9625  1.4518
  486MOL0     H65552   3.424   9.141   8.766  0.9690  0.5165 -0.1901
  486MOL0     H65553   3.249   9.120   8.521  2.5196  1.8964 -2.2096
  486MOL0     H65554   3.198   9.071   8.694 -0.5400  2.2118  1.7684
  486MOL0     H65555   3.248   9.318   8.756 -2.3099 -1.5863  0.3133
  486MOL0     H65556   3.299   9.345   8.587 -0.7009  0.6179  1.5755
  486MOL0     H65557   3.062   9.300   8.517 -2.6347  2.7408 -0.9744
  486MOL0     H65558   3.061   9.431   8.641 -0.1332  0.6247 -1.3441
  486MOL0     H65559   2.990   9.144   8.657  1.3852 -0.9039  2.6334
  486MOL0     H65560   3.030   9.228   8.804 -0.7677 -0.8784 -0.2326
  486MOL0     H65561   2.892   9.494   8.774  1.6129 -2.7816  1.9900
  486MOL0     H65562   2.596   9.513   8.930 -1.2350  1.5202  0.1476
  486MOL0     H65563   2.677   9.619   8.805 -1.6945  0.7259 -1.2321
  486MOL0     H65564   2.487   9.629   8.672 -0.6592 -2.6867 -0.8052
  486MOL0     H65565   2.416   9.482   8.760  0.7848 -0.3407 -2.2501
  486MOL0     H65566   2.496   9.759   8.871  4.0954 -3.2233  1.9647
  486MOL0     H65567   2.428   9.645   8.971  1.2536 -2.2620 -0.6205
  486MOL0     H65568   2.219   9.638   8.806 -2.2853  0.1084  3.9030
  486MOL0     H65569   2.285   9.800   8.750  1.8426 -1.8875 -0.9353
  486MOL0     H65570   2.147   9.960   9.114 -1.6970  0.3642  1.3037
  486MOL0     H65571   1.955  10.112   9.108 -1.2576 -1.1166  2.3133
  486MOL0     H65572   1.815  10.470   9.089  1.1952 -1.2469 -2.8223
  486MOL0     H65573   1.690  10.668   9.089  2.2901  0.5142 -0.5598
  486MOL0     H65574   1.612  10.832   9.028  2.0280  0.1947 -0.5908
  486MOL0     H65575   1.695  10.809   8.876 -0.7447 -1.6073 -1.4260
  486MOL0     H65576   1.656  11.043   8.899  0.0180 -0.4668 -0.7064
  486MOL0     H65577   1.545  10.975   8.772  0.2797 -0.5838 -0.3048
  486MOL0     H65578   1.377  10.953   8.962 -1.9679  0.8278 -0.5368
  486MOL0     H65579   1.478  11.056   9.062  1.7149 -0.9036 -1.2696
  486MOL0     H65580   1.317  11.219   8.972 -4.4734  3.0256 -2.9727
  486MOL0     H65581   1.321  11.123   8.814  3.8731 -1.6501 -0.8464
  486MOL0     H65582   1.511  11.236   8.737 -1.4334 -2.1869  0.3682
  486MOL0     H65583   1.574  11.247   8.896  1.6769  1.3165 -2.0156
  486MOL0     H65584   1.343  11.422   8.801 -0.9241  1.1134  2.5114
  486MOL0     H65585   1.408  11.419   8.963 -0.7209  0.1711  0.2606
  486MOL0     H65586   1.572  11.497   8.718 -0.6286 -0.9298 -0.2393
  486MOL0     H65587   1.634  11.477   8.885  0.7634  1.9466  0.4545
  486MOL0     H65588   1.406  11.651   8.868  0.2292  0.7976 -0.8940
  486MOL0     H65589   1.554  11.663   8.968  1.0913  0.0868 -1.3800
  486MOL0     H65590   1.441  10.508   8.770  1.0685  0.1201 -1.0036
  486MOL0     H65591   1.528  10.289   8.810  2.0889 -2.6356  0.9805
  486MOL0     H65592   1.837   9.921   8.739  3.8317  1.0340 -2.5101
  486MOL0     H65593   2.036   9.795   8.744 -0.2984 -0.2513  0.0306
  486MOL0     H65594   3.911   9.041   8.229  1.4401  0.3583 -0.6286
  486MOL0     H65595   4.130   9.131   8.135  1.8040 -0.8004  1.5822
  486MOL0     H65596   4.278   9.405   7.941  0.0289  0.1950  3.3232
  486MOL0     H65597   4.376   9.486   7.740 -1.8275 -1.3250  1.3413
  486MOL0     H65598   4.550   9.544   7.577 -0.9267  0.3196  3.4469
  486MOL0     H65599   4.679   9.667   7.535 -0.9090  3.0055 -1.8652
  486MOL0     H65600   4.392   9.742   7.635 -1.7012  2.2921 -1.2084
  486MOL0     H65601   4.429   9.731   7.472 -1.1219  2.4713 -0.8285
  486MOL0     H65602   4.611   9.905   7.490  1.0428 -0.7496  1.2733
  486MOL0     H65603   4.571   9.919   7.658 -2.0490  0.8338  0.4367
  486MOL0     H65604   4.460  10.100   7.511 -1.5939 -0.1136 -0.4732
  486MOL0     H65605   4.369   9.978   7.436  2.4588  1.9637 -1.7428
  486MOL0     H65606   4.210  10.046   7.826 -0.2933 -0.9788  0.3255
  486MOL0     H65607   4.699   9.649   7.984  2.5275 -4.7219  0.7818
  486MOL0     H65608   4.699   9.644   8.201 -2.0168  2.4519 -0.8432
  486MOL0     H65609   4.547   9.625   8.294 -3.4670 -4.5338 -1.7568
  486MOL0     H65610   4.642   9.482   8.264  2.6700 -0.2041 -0.5395
  487MOL0     O65611   8.602   9.988   2.772 -0.0950 -0.3197  0.2725
  487MOL0     C65612   8.571   9.924   2.678  0.0763  0.0492  0.1396
  487MOL0     O65613   8.467   9.833   2.669 -0.3487  0.6842  0.2410
  487MOL0     C65614   8.419   9.767   2.782  0.6514  0.2397  0.3547
  487MOL0     C65615   8.377   9.842   2.889 -0.3820  0.5600 -0.8757
  487MOL0     C65616   8.332   9.779   3.003  1.2044 -0.0553  0.1025
  487MOL0     C65617   8.303   9.644   3.002 -0.3415  0.2915  0.1484
  487MOL0     O65618   8.258   9.585   3.103 -0.2577 -0.6264 -0.4927
  487MOL0     C65619   8.180   9.658   3.205 -0.0464 -0.1047  0.5195
  487MOL0     C65620   8.042   9.682   3.139  0.1487  0.1364 -0.3929
  487MOL0     C65621   7.944   9.554   3.133 -0.8791  0.2597 -0.3295
  487MOL0     C65622   7.814   9.561   3.046  0.6527  0.1517 -1.1744
  487MOL0     C65623   7.809   9.463   2.921  0.4110  0.6672  0.1623
  487MOL0     C65624   7.923   9.499   2.827 -0.1927  1.1530 -0.1371
  487MOL0     C65625   7.879   9.470   2.679 -0.1342  0.5282 -0.3269
  487MOL0     C65626   7.867   9.321   2.650 -0.6589 -0.6968  0.2496
  487MOL0     N65627   7.736   9.258   2.687 -1.2385  0.6968  0.8739
  487MOL0     C65628   7.734   9.152   2.780  0.2691  0.1977  0.0553
  487MOL0     C65629   7.621   9.088   2.739  0.1561 -0.6937 -0.6549
  487MOL0     C65630   7.566   8.970   2.804 -0.0996  0.9059 -0.4880
  487MOL0     C65631   7.430   8.999   2.877 -0.3119  0.6369  0.1631
  487MOL0     C65632   7.310   8.998   2.788  0.9191  0.8080 -0.5047
  487MOL0     C65633   7.183   9.040   2.860  0.5483  0.3568  0.6786
  487MOL0     O65634   7.164   8.960   2.974 -0.2479  0.2826 -0.8956
  487MOL0     C65635   7.068   9.004   3.056  0.1292 -0.3851  1.0777
  487MOL0     C65636   7.074   9.105   3.147  0.1347  0.2507  0.2827
  487MOL0     C65637   6.952   9.147   3.214 -0.0788 -0.9148 -0.0524
  487MOL0     C65638   6.831   9.080   3.189  0.1199 -0.4793 -0.5280
  487MOL0     C65639   6.691   9.124   3.241  0.2482  0.3278 -0.5925
  487MOL0     O65640   6.697   9.237   3.314  0.1066  0.1901 -0.4498
  487MOL0     C65641   6.575   9.285   3.367 -0.8411  0.2897  0.4523
  487MOL0     C65642   6.494   9.218   3.457 -0.8073  0.1734  0.1424
  487MOL0     C65643   6.379   9.277   3.511  0.4588  0.4542 -0.4043
  487MOL0     C65644   6.331   9.387   3.450  0.0418 -0.0987 -0.5621
  487MOL0     O65645   6.205   9.418   3.497  0.4902 -0.0428 -0.0040
  487MOL0     C65646   6.158   9.548   3.477 -0.1306  1.2820 -0.6647
  487MOL0     C65647   6.068   9.591   3.590  0.2883 -0.3986 -0.2449
  487MOL0     C65648   6.126   9.586   3.729  0.0784 -0.2892 -0.8060
  487MOL0     C65649   6.235   9.682   3.749 -1.4064  0.2119 -0.1808
  487MOL0     C65650   6.305   9.672   3.881 -0.7170 -0.1503 -0.4319
  487MOL0     C65651   6.418   9.774   3.900  0.7839 -0.0462  0.1555
  487MOL0     C65652   6.484   9.766   4.040 -1.1365 -0.1995  1.0273
  487MOL0     C65653   6.590   9.876   4.059 -0.3032 -1.0764  0.4942
  487MOL0    Cl65654   6.516  10.040   4.030  0.0519 -0.2207 -0.1001
  487MOL0     C65655   6.396   9.442   3.343  0.3911 -0.5367 -0.1881
  487MOL0     C65656   6.517   9.396   3.304 -1.3613  0.1101 -0.2885
  487MOL0     O65657   6.594   9.048   3.227  0.0488  0.1202  0.0217
  487MOL0     C65658   6.841   8.961   3.114  0.1317  0.2687  0.2158
  487MOL0     C65659   6.956   8.928   3.043 -0.1283  0.3103 -0.5403
  487MOL0     N65660   7.565   9.150   2.633 -0.6578  0.9335 -0.4307
  487MOL0     N65661   7.620   9.265   2.612 -0.4240 -0.3613 -0.1087
  487MOL0     C65662   8.332   9.565   2.895 -0.8185 -0.4904 -0.0483
  487MOL0     C65663   8.388   9.630   2.785  0.8042  1.3197 -0.1900
  487MOL0     C65664   8.631   9.965   2.560 -0.2446 -0.0919  0.0822
  487MOL0     C65665   8.551   9.957   2.435 -0.1397 -0.5500 -0.2970
  487MOL0     C65666   8.593  10.023   2.323 -0.0269 -0.4904 -0.4218
  487MOL0     C65667   8.709  10.104   2.317 -0.1199 -0.0181  0.4900
  487MOL0     O65668   8.738  10.154   2.193 -0.3481  0.0364  0.3436
  487MOL0     C65669   8.856  10.232   2.166  0.7538 -0.4372  0.1038
  487MOL0     C65670   8.912  10.208   2.024 -0.9029 -0.3402 -0.7523
  487MOL0     C65671   9.036  10.280   1.990 -0.3606 -0.1524  0.0185
  487MOL0     C65672   9.030  10.292   1.839 -0.5143 -0.2175  0.9779
  487MOL0     C65673   9.159  10.324   1.773 -1.3252  0.4079  0.0192
  487MOL0     C65674   9.261  10.362   1.712  0.7593  0.0610  0.2481
  487MOL0     C65675   8.793  10.105   2.429 -0.9033  0.1153 -0.3332
  487MOL0     C65676   8.762  10.039   2.547  1.0941 -0.0488 -0.1737
  487MOL0     C65677   8.862  10.058   2.663  0.3714 -0.3172 -0.5559
  487MOL0     H65678   8.399   9.949   2.886  2.0166  0.2333  1.5818
  487MOL0     H65679   8.316   9.845   3.088  2.6016  1.1425 -0.5405
  487MOL0     H65680   8.170   9.593   3.292 -0.3313 -0.6558  0.0819
  487MOL0     H65681   8.221   9.755   3.235 -1.1117 -0.4670  3.4301
  487MOL0     H65682   8.063   9.722   3.039 -0.4361  0.6191 -0.3279
  487MOL0     H65683   7.988   9.759   3.195  0.2631  1.6651 -2.2594
  487MOL0     H65684   7.911   9.542   3.236  1.3795  0.6922  0.5087
  487MOL0     H65685   8.002   9.463   3.115 -1.1170 -0.2422  1.3022
  487MOL0     H65686   7.728   9.557   3.114  0.8926  0.2479 -0.8650
  487MOL0     H65687   7.799   9.663   3.011 -3.2139  0.2000  0.1275
  487MOL0     H65688   7.822   9.356   2.939  5.3935  0.9917 -0.0681
  487MOL0     H65689   7.712   9.478   2.873  1.3139  2.5936 -1.2326
  487MOL0     H65690   7.957   9.603   2.831  0.9734  0.7713  0.5622
  487MOL0     H65691   8.013   9.445   2.858  1.5282  3.6702 -0.4190
  487MOL0     H65692   7.960   9.511   2.618 -0.7987  0.7038 -1.1025
  487MOL0     H65693   7.786   9.508   2.636  0.3153 -1.5656 -3.5043
  487MOL0     H65694   7.869   9.324   2.541 -0.2182  0.9494  0.2759
  487MOL0     H65695   7.961   9.283   2.689  0.0786  1.8132  1.1087
  487MOL0     H65696   7.799   9.125   2.863 -0.2519 -4.5493 -0.7592
  487MOL0     H65697   7.562   8.886   2.734  0.5029 -1.0412  1.6890
  487MOL0     H65698   7.638   8.952   2.884 -0.0600  3.0812  0.0290
  487MOL0     H65699   7.419   8.913   2.944  0.2521 -0.8910 -1.5966
  487MOL0     H65700   7.436   9.090   2.937 -0.6707 -0.6870  2.3323
  487MOL0     H65701   7.296   8.898   2.745  2.3428  0.1855  0.4233
  487MOL0     H65702   7.319   9.058   2.697  1.9300 -1.3053 -1.8914
  487MOL0     H65703   7.101   9.033   2.788  2.5304  1.6571 -1.8778
  487MOL0     H65704   7.188   9.147   2.882  1.7765  0.4128  0.1981
  487MOL0     H65705   7.170   9.153   3.161  1.3282 -1.9901  0.3337
  487MOL0     H65706   6.958   9.241   3.268 -0.9974 -1.3968  0.9303
  487MOL0     H65707   6.530   9.121   3.490  6.5661  2.7236  1.6349
  487MOL0     H65708   6.312   9.219   3.573  0.9556 -1.2476 -1.4011
  487MOL0     H65709   6.240   9.617   3.456 -0.8190  3.1695  2.1909
  487MOL0     H65710   6.098   9.548   3.386 -1.8659  1.7068  0.4173
  487MOL0     H65711   6.025   9.690   3.574  3.2120  0.7647 -1.5727
  487MOL0     H65712   5.990   9.514   3.579 -0.3920  0.2359  0.0420
  487MOL0     H65713   6.050   9.608   3.804  1.0432 -3.3765  1.2562
  487MOL0     H65714   6.160   9.484   3.749 -2.0222 -1.1647 -1.4128
  487MOL0     H65715   6.181   9.778   3.749 -4.4013 -1.3310  0.7275
  487MOL0     H65716   6.309   9.652   3.675 -1.2084 -0.7709  0.3967
  487MOL0     H65717   6.337   9.568   3.895 -0.2119  0.0532 -0.0173
  487MOL0     H65718   6.228   9.710   3.949  0.8189  3.7652 -0.6278
  487MOL0     H65719   6.495   9.770   3.822 -2.0141 -2.3984 -2.7888
  487MOL0     H65720   6.365   9.870   3.889 -1.0790 -0.9825  0.5470
  487MOL0     H65721   6.551   9.680   4.039  1.1096  1.3769 -1.8357
  487MOL0     H65722   6.424   9.757   4.130 -0.3920  1.0901  1.6860
  487MOL0     H65723   6.621   9.867   4.163 -2.8404  1.2714  1.5885
  487MOL0     H65724   6.671   9.859   3.987  0.9115  2.8832  0.7024
  487MOL0     H65725   6.342   9.516   3.284  4.0450  2.0811 -0.5861
  487MOL0     H65726   6.566   9.439   3.217  0.1570  5.7516  2.9045
  487MOL0     H65727   6.750   8.907   3.088  0.9615 -1.5445  0.9373
  487MOL0     H65728   6.968   8.846   2.974  1.2096  1.5253 -1.8264
  487MOL0     H65729   8.315   9.457   2.895  2.4292 -1.1530 -1.5670
  487MOL0     H65730   8.408   9.578   2.692  1.1260 -1.1081  1.1590
  487MOL0     H65731   8.453   9.910   2.441 -0.3166 -0.0834  0.7850
  487MOL0     H65732   8.539  10.016   2.229 -1.9369  0.9829  0.4971
  487MOL0     H65733   8.932  10.217   2.243  2.7403  2.2413 -1.1957
  487MOL0     H65734   8.825  10.335   2.181  2.0235  0.0151 -0.2489
  487MOL0     H65735   8.826  10.232   1.960  1.1362  3.8740 -2.2635
  487MOL0     H65736   8.945  10.103   2.026 -1.0478 -0.3950  1.2936
  487MOL0     H65737   9.124  10.218   2.007 -1.1339 -2.1077 -2.5055
  487MOL0     H65738   9.047  10.377   2.041  1.9612 -0.6361  0.5440
  487MOL0     H65739   9.010  10.192   1.798 -0.3742  0.2721 -0.3239
  487MOL0     H65740   8.950  10.358   1.802 -3.1804 -4.9575 -3.1322
  487MOL0     H65741   9.328  10.412   1.645 -2.2210  3.3980 -0.5410
  487MOL0     H65742   8.883  10.165   2.439 -0.7677 -0.4888  3.0612
  487MOL0     H65743   8.829  10.122   2.745  1.4164 -2.0151  1.2880
  487MOL0     H65744   8.883   9.957   2.700 -0.6961 -1.9228 -3.9079
  487MOL0     H65745   8.954  10.095   2.618 -2.4598  1.4874 -5.6149
  488MOL0     O65746  11.303   4.854   7.393  0.7037 -0.4380 -0.1027
  488MOL0     C65747  11.301   4.736   7.422 -0.3843  0.2749  0.1107
  488MOL0     O65748  11.224   4.645   7.370  1.2429  0.1538  0.0852
  488MOL0     C65749  11.137   4.665   7.266 -0.1002  0.8139 -1.3783
  488MOL0     C65750  11.134   4.555   7.180  0.1428 -0.9993 -0.0711
  488MOL0     C65751  11.054   4.556   7.072 -0.2059 -0.8313  1.2026
  488MOL0     C65752  10.967   4.668   7.044  0.0817  0.2441 -0.3949
  488MOL0     O65753  10.878   4.658   6.944  0.0402 -0.4804  0.0499
  488MOL0     C65754  10.813   4.781   6.886 -0.6489  0.7154  0.0578
  488MOL0     C65755  10.676   4.736   6.827 -0.8581 -0.4469 -0.5149
  488MOL0     C65756  10.598   4.847   6.740  0.2017  0.5451  0.1253
  488MOL0     C65757  10.609   4.828   6.585 -0.0536 -0.3478 -0.1058
  488MOL0     C65758  10.552   4.944   6.513 -0.3272 -0.0318 -0.4412
  488MOL0     C65759  10.573   4.917   6.359  0.6126 -0.5067  0.1717
  488MOL0     C65760  10.510   4.796   6.314 -0.4297  0.9148  0.2287
  488MOL0     C65761  10.508   4.790   6.161 -0.8617  0.3839  0.4958
  488MOL0     N65762  10.386   4.843   6.097 -0.7551  0.6213 -0.3450
  488MOL0     C65763  10.284   4.761   6.075 -0.5052  0.6954 -0.1873
  488MOL0     C65764  10.180   4.843   6.042 -0.3718 -0.1289  0.3104
  488MOL0     C65765  10.041   4.794   6.022 -0.6270 -0.8721  0.4805
  488MOL0     C65766  10.016   4.707   5.903 -0.1414  0.8205  0.0202
  488MOL0     C65767  10.065   4.756   5.768 -0.5583  0.5515  0.1422
  488MOL0     C65768   9.988   4.872   5.721  0.1402  0.7636 -0.7056
  488MOL0     O65769   9.985   4.865   5.577  0.8195  0.4593  0.0876
  488MOL0     C65770   9.935   4.966   5.503 -0.1178  1.0159 -0.1607
  488MOL0     C65771   9.928   4.955   5.365  0.4910 -0.7608  0.3881
  488MOL0     C65772   9.889   5.068   5.290 -0.3495 -0.4580  0.0500
  488MOL0     C65773   9.837   5.193   5.353  0.2619  0.3353 -0.1284
  488MOL0     C65774   9.773   5.291   5.268  0.9393 -0.2911 -0.7820
  488MOL0     O65775   9.647   5.324   5.313 -0.8077  0.6840  0.2739
  488MOL0     C65776   9.570   5.420   5.252 -0.1557 -0.3816 -0.1607
  488MOL0     C65777   9.587   5.469   5.121  0.0660  0.7071 -0.0420
  488MOL0     C65778   9.500   5.559   5.062 -0.8707  0.3593  0.5597
  488MOL0     C65779   9.389   5.612   5.123 -0.0307 -0.4793 -0.1545
  488MOL0     O65780   9.298   5.693   5.059  0.1018  0.3944  0.7518
  488MOL0     C65781   9.192   5.755   5.135  0.0877 -0.2921  0.3166
  488MOL0     C65782   9.107   5.844   5.044  0.6223 -0.0760  1.1333
  488MOL0     C65783   9.035   5.758   4.936 -0.1298 -0.7278 -0.1103
  488MOL0     C65784   8.966   5.847   4.828 -0.3420 -0.2604 -0.2783
  488MOL0     C65785   8.952   5.758   4.702 -0.1597  0.3689  0.8840
  488MOL0     C65786   8.859   5.817   4.599  0.3739 -0.5657  0.7201
  488MOL0     C65787   8.897   5.947   4.527 -0.4735  0.6459  0.2498
  488MOL0     C65788   8.828   6.072   4.610 -0.1838 -0.2844  0.7469
  488MOL0    Cl65789   8.833   6.223   4.513  0.3111  0.1306  0.1923
  488MOL0     C65790   9.364   5.565   5.253 -0.6994 -0.1097 -0.1709
  488MOL0     C65791   9.452   5.473   5.312  0.0452  0.0276  0.2405
  488MOL0     O65792   9.844   5.350   5.195 -0.5542 -0.2635  0.6823
  488MOL0     C65793   9.855   5.199   5.492  0.9011  0.8550  1.0211
  488MOL0     C65794   9.901   5.085   5.564  0.7163 -0.2925 -0.7295
  488MOL0     N65795  10.237   4.972   6.032  0.5614 -0.0255  0.3043
  488MOL0     N65796  10.355   4.968   6.067  0.6609 -0.6329 -0.7796
  488MOL0     C65797  10.967   4.777   7.144 -0.4576 -0.4187 -0.6551
  488MOL0     C65798  11.049   4.766   7.248  0.1220 -0.6392  0.1208
  488MOL0     C65799  11.413   4.692   7.517  0.2434 -1.0315 -0.2602
  488MOL0     C65800  11.464   4.790   7.599  0.5286  0.4272  0.3454
  488MOL0     C65801  11.546   4.744   7.701 -0.0273 -1.0600 -0.5523
  488MOL0     C65802  11.588   4.618   7.722  0.2551  0.3683 -0.5861
  488MOL0     O65803  11.648   4.596   7.848 -0.4143 -0.1674  0.1547
  488MOL0     C65804  11.744   4.484   7.858 -0.1564 -0.0922  0.3028
  488MOL0     C65805  11.692   4.360   7.919  0.3995 -0.2424  0.1964
  488MOL0     C65806  11.799   4.253   7.966  0.7522  0.3987 -0.5234
  488MOL0     C65807  11.885   4.191   7.862  0.9159  1.0358  0.0359
  488MOL0     C65808  11.985   4.086   7.900  0.1146  0.2819  0.2011
  488MOL0     C65809  12.080   4.004   7.915  0.4586 -0.7499  0.0954
  488MOL0     C65810  11.552   4.518   7.633 -0.4467 -0.8572 -0.3250
  488MOL0     C65811  11.458   4.558   7.536  0.4913 -0.0209  0.7106
  488MOL0     C65812  11.424   4.450   7.439 -1.0031 -0.3722  0.1019
  488MOL0     H65813  11.196   4.468   7.202  4.2782  1.3668 -1.2156
  488MOL0     H65814  11.034   4.470   7.009 -2.2250 -0.8523  1.7906
  488MOL0     H65815  10.798   4.859   6.962  0.2179  2.1425 -1.1761
  488MOL0     H65816  10.863   4.806   6.792  1.4353 -2.6138  0.1441
  488MOL0     H65817  10.613   4.695   6.907 -1.6042  3.3209  1.0474
  488MOL0     H65818  10.691   4.649   6.763  0.6646  0.3724 -1.3426
  488MOL0     H65819  10.643   4.944   6.760  2.1523  0.2794 -2.4090
  488MOL0     H65820  10.492   4.844   6.765  0.1440 -2.1811 -0.1415
  488MOL0     H65821  10.714   4.812   6.557  0.1329  1.4814 -0.6017
  488MOL0     H65822  10.548   4.742   6.557 -1.2070  1.3767 -3.5237
  488MOL0     H65823  10.445   4.949   6.538 -0.4308  1.6659 -1.0365
  488MOL0     H65824  10.600   5.041   6.531  2.2893 -1.0505 -1.4755
  488MOL0     H65825  10.508   4.993   6.315 -0.3253 -0.1879  2.0076
  488MOL0     H65826  10.677   4.927   6.326 -0.3749  2.0323 -2.5977
  488MOL0     H65827  10.406   4.786   6.347  0.0580 -2.6901  1.1290
  488MOL0     H65828  10.562   4.711   6.360  0.6759  0.6407 -1.4342
  488MOL0     H65829  10.595   4.850   6.133 -0.8523 -0.4653 -1.4579
  488MOL0     H65830  10.523   4.687   6.128 -0.3207  0.7094 -0.3245
  488MOL0     H65831  10.277   4.658   6.110  1.0591  0.5619 -0.2129
  488MOL0     H65832  10.024   4.736   6.113  0.7158 -1.8539  0.1321
  488MOL0     H65833   9.987   4.889   6.025  0.5559 -0.1550 -0.2779
  488MOL0     H65834  10.059   4.610   5.930  0.8049  2.1741  3.9697
  488MOL0     H65835   9.911   4.677   5.899  1.0548 -4.2141 -1.3066
  488MOL0     H65836  10.046   4.682   5.690 -1.0511  2.6191 -1.8185
  488MOL0     H65837  10.167   4.795   5.771 -0.7928  1.1292  2.8588
  488MOL0     H65838  10.047   4.958   5.754 -0.9950  1.7068 -1.0516
  488MOL0     H65839   9.890   4.878   5.768  0.3069 -0.7494 -0.0919
  488MOL0     H65840   9.946   4.870   5.300 -2.0470  2.2083 -4.8211
  488MOL0     H65841   9.888   5.042   5.185 -1.6032  1.1936 -0.3911
  488MOL0     H65842   9.674   5.443   5.061  2.0569  2.6597  1.8009
  488MOL0     H65843   9.514   5.587   4.958  1.6934  1.4411  1.1290
  488MOL0     H65844   9.129   5.671   5.168  0.3409 -1.6214 -2.3182
  488MOL0     H65845   9.227   5.811   5.222  1.0587 -0.3686 -0.0206
  488MOL0     H65846   9.027   5.895   5.098  0.3986 -0.9206  1.6071
  488MOL0     H65847   9.172   5.921   5.000  0.0632 -0.0379  0.3548
  488MOL0     H65848   9.106   5.688   4.891 -1.7372 -2.7024  0.2664
  488MOL0     H65849   8.965   5.692   4.987 -2.0718  0.7999 -0.6743
  488MOL0     H65850   9.030   5.933   4.804  0.0799 -0.2150  0.9538
  488MOL0     H65851   8.867   5.880   4.861 -0.4304 -0.2798 -0.5202
  488MOL0     H65852   8.929   5.654   4.726 -1.9608  0.0733 -1.7605
  488MOL0     H65853   9.046   5.770   4.646 -1.0772  2.1867 -0.3482
  488MOL0     H65854   8.840   5.744   4.520  1.8776 -0.5592  0.3183
  488MOL0     H65855   8.768   5.831   4.658  1.2259 -0.5964  2.0964
  488MOL0     H65856   8.862   5.956   4.423  1.4296  1.6379 -0.3483
  488MOL0     H65857   9.006   5.949   4.521 -0.4720 -1.0840 -1.1566
  488MOL0     H65858   8.725   6.045   4.635 -0.1737 -0.7142  0.3302
  488MOL0     H65859   8.881   6.089   4.705  3.8804 -0.0557 -1.3230
  488MOL0     H65860   9.279   5.596   5.312 -1.6688 -0.3876 -1.3873
  488MOL0     H65861   9.443   5.443   5.416 -3.1148 -1.3087 -0.3325
  488MOL0     H65862   9.823   5.293   5.535 -0.4062  1.7280 -1.6493
  488MOL0     H65863   9.929   5.101   5.667 -0.0904 -2.1900 -0.1686
  488MOL0     H65864  10.911   4.871   7.146  0.3437  0.0599 -0.3386
  488MOL0     H65865  11.051   4.836   7.331  1.9863  1.7592 -1.8265
  488MOL0     H65866  11.458   4.898   7.597  2.0754  0.5212  0.2483
  488MOL0     H65867  11.569   4.813   7.783 -2.9601  0.5790 -0.9872
  488MOL0     H65868  11.832   4.513   7.916 -0.1227  1.5203 -0.5103
  488MOL0     H65869  11.791   4.465   7.761  1.8581  0.0479  1.1955
  488MOL0     H65870  11.612   4.313   7.861 -0.1500 -0.0288  0.7700
  488MOL0     H65871  11.637   4.382   8.011 -3.3400 -4.2623 -0.7054
  488MOL0     H65872  11.744   4.175   8.019  1.8955 -0.0486  0.0371
  488MOL0     H65873  11.861   4.286   8.049 -0.3824  0.1015  0.4662
  488MOL0     H65874  11.831   4.139   7.782  1.4940  1.7595 -0.8430
  488MOL0     H65875  11.937   4.276   7.818 -0.2004  1.8984  0.3202
  488MOL0     H65876  12.150   3.926   7.937  1.5396  0.0809 -0.3624
  488MOL0     H65877  11.567   4.414   7.659  0.6150 -0.8339 -0.8186
  488MOL0     H65878  11.346   4.386   7.482 -0.2424 -0.2681  1.7184
  488MOL0     H65879  11.397   4.488   7.340 -2.1782 -1.4198  0.0022
  488MOL0     H65880  11.518   4.396   7.430  1.2790  3.0933  1.0273
  489MOL0     O65881   2.329   4.713   1.777  0.0262 -0.8989 -0.3316
  489MOL0     C65882   2.430   4.666   1.729 -0.0343  0.3183  0.5733
  489MOL0     O65883   2.515   4.725   1.632 -0.5368 -0.6953  0.6270
  489MOL0     C65884   2.473   4.851   1.588 -0.7390 -0.6487 -0.7588
  489MOL0     C65885   2.425   4.863   1.459  0.8850 -0.3129 -0.3926
  489MOL0     C65886   2.380   4.994   1.417  0.5876  0.2237 -0.5073
  489MOL0     C65887   2.387   5.110   1.501 -0.7463  0.5616  0.5650
  489MOL0     O65888   2.345   5.233   1.457  0.6264 -0.4237  0.0226
  489MOL0     C65889   2.232   5.234   1.366  0.5996 -0.8193  1.0909
  489MOL0     C65890   2.266   5.271   1.231 -0.3719  0.3248  0.6387
  489MOL0     C65891   2.297   5.420   1.195 -0.4495 -0.0548 -0.1099
  489MOL0     C65892   2.171   5.508   1.180 -0.1390 -1.4521 -0.5052
  489MOL0     C65893   2.212   5.648   1.118  0.3190  1.3120 -0.3082
  489MOL0     C65894   2.075   5.721   1.105 -0.0207 -0.5614  0.7241
  489MOL0     C65895   2.097   5.872   1.059  0.4630 -0.4274  0.6388
  489MOL0     C65896   1.963   5.947   1.025  0.2597 -0.3350  0.6858
  489MOL0     N65897   1.912   5.881   0.905  0.6076  0.2858 -0.4536
  489MOL0     C65898   1.975   5.860   0.785  0.9494 -1.4315 -0.3793
  489MOL0     C65899   1.873   5.796   0.709  0.3460  0.4552  0.0579
  489MOL0     C65900   1.874   5.737   0.563 -0.0619  0.6655 -0.5558
  489MOL0     C65901   1.741   5.745   0.479 -0.1900 -0.6516  0.2721
  489MOL0     C65902   1.717   5.900   0.445 -1.1260 -0.3103 -0.4324
  489MOL0     C65903   1.582   5.929   0.381 -0.2160  0.0913 -0.3970
  489MOL0     O65904   1.574   5.875   0.249 -0.4395  0.5568 -0.0364
  489MOL0     C65905   1.453   5.862   0.191  1.0532 -0.5813 -0.1680
  489MOL0     C65906   1.442   5.778   0.081 -0.6004 -0.5896  0.3052
  489MOL0     C65907   1.327   5.760   0.001  0.1115  0.1227 -0.2297
  489MOL0     C65908   1.212   5.834   0.035 -0.8225 -0.0015  0.8752
  489MOL0     C65909   1.085   5.825  -0.053 -1.0313 -1.1605 -0.0143
  489MOL0     O65910   0.970   5.886  -0.010  0.7673  0.0368 -0.1434
  489MOL0     C65911   0.859   5.898  -0.093  0.6055 -0.2758  0.3088
  489MOL0     C65912   0.782   6.021  -0.092 -0.5490 -0.7217  1.3067
  489MOL0     C65913   0.665   6.035  -0.165  0.1012  0.1402 -0.0324
  489MOL0     C65914   0.609   5.935  -0.241  0.5195 -0.3981  0.4925
  489MOL0     O65915   0.487   5.930  -0.308 -0.0555  0.3447 -0.3326
  489MOL0     C65916   0.400   6.044  -0.295  0.0613 -0.5493  1.1701
  489MOL0     C65917   0.280   6.027  -0.380 -0.6628  0.8807 -0.1595
  489MOL0     C65918   0.159   6.121  -0.364  0.6085  0.9444 -0.6180
  489MOL0     C65919   0.066   6.076  -0.259 -0.4389 -0.9098  0.1910
  489MOL0     C65920  -0.054   6.171  -0.242 -0.4848 -0.4165 -0.2971
  489MOL0     C65921  -0.162   6.171  -0.359 -0.7138 -0.0475 -0.6740
  489MOL0     C65922  -0.263   6.062  -0.328  0.5359 -0.2231 -0.2179
  489MOL0     C65923  -0.336   5.996  -0.438 -0.3892 -0.8479  0.0152
  489MOL0    Cl65924  -0.432   6.116  -0.526 -0.4498  0.2628 -0.6769
  489MOL0     C65925   0.687   5.821  -0.252 -0.6264  0.3292 -0.1131
  489MOL0     C65926   0.809   5.806  -0.180 -1.2012  0.6327  1.0515
  489MOL0     O65927   1.100   5.763  -0.149  0.0192 -0.0531 -0.9272
  489MOL0     C65928   1.216   5.916   0.152 -0.4800 -0.2297 -0.0747
  489MOL0     C65929   1.335   5.936   0.226 -0.8302  0.8741 -0.3284
  489MOL0     N65930   1.772   5.777   0.795  0.7004 -0.0384 -0.1496
  489MOL0     N65931   1.790   5.824   0.914 -0.3772  0.1728  0.1628
  489MOL0     C65932   2.444   5.092   1.620 -0.0019  0.3097  0.1598
  489MOL0     C65933   2.486   4.964   1.677  0.2772 -0.3932  0.2353
  489MOL0     C65934   2.455   4.526   1.741 -0.4769 -0.2093 -0.6865
  489MOL0     C65935   2.513   4.460   1.629 -0.0711  0.2763  1.3369
  489MOL0     C65936   2.551   4.322   1.629  0.4275  0.3080 -0.3838
  489MOL0     C65937   2.537   4.253   1.747  0.3273  0.4761 -0.1549
  489MOL0     O65938   2.580   4.129   1.778  0.3741  0.0595  0.1231
  489MOL0     C65939   2.650   4.045   1.685 -0.3507  0.0179 -0.5314
  489MOL0     C65940   2.789   3.996   1.748 -0.0051 -0.5470  0.4082
  489MOL0     C65941   2.766   3.957   1.888 -0.3807  0.1312  0.3290
  489MOL0     C65942   2.883   3.865   1.940  0.7510 -0.1866  1.1717
  489MOL0     C65943   2.853   3.829   2.076  0.2642  0.0886 -0.1056
  489MOL0     C65944   2.826   3.775   2.181 -0.0892 -0.2071 -0.1768
  489MOL0     C65945   2.485   4.325   1.860 -0.3409  0.8293 -0.5897
  489MOL0     C65946   2.449   4.460   1.865 -0.5078 -0.2208 -0.0150
  489MOL0     C65947   2.416   4.523   2.001 -0.3617  0.2114 -0.2184
  489MOL0     H65948   2.421   4.774   1.397 -2.6896 -0.1717 -0.5818
  489MOL0     H65949   2.344   4.993   1.315  1.9864 -1.3681 -1.0355
  489MOL0     H65950   2.188   5.135   1.351 -0.0692 -0.5023  0.8902
  489MOL0     H65951   2.168   5.316   1.402  2.6933  1.4047  0.0074
  489MOL0     H65952   2.179   5.242   1.171  0.4083  1.6393 -1.2298
  489MOL0     H65953   2.345   5.201   1.204 -0.6945  0.3987 -0.6024
  489MOL0     H65954   2.338   5.423   1.094  2.2028  0.6201  0.8892
  489MOL0     H65955   2.355   5.478   1.268 -0.3387  2.4636 -2.0571
  489MOL0     H65956   2.098   5.461   1.113  0.2942  1.6647 -3.4234
  489MOL0     H65957   2.117   5.537   1.271 -0.9991  1.0118 -1.7174
  489MOL0     H65958   2.273   5.700   1.193  0.7745 -0.2440  0.4301
  489MOL0     H65959   2.271   5.636   1.027  2.2851  0.9499  0.9456
  489MOL0     H65960   2.019   5.670   1.025  2.7581  1.8558 -3.1498
  489MOL0     H65961   2.017   5.721   1.197 -1.5820  3.2458 -0.0549
  489MOL0     H65962   2.173   5.879   0.981  2.6639  2.4756  2.8375
  489MOL0     H65963   2.143   5.929   1.140 -1.0293  0.6854  0.7513
  489MOL0     H65964   1.889   5.945   1.105 -0.0700  1.2039  0.4681
  489MOL0     H65965   1.965   6.054   0.999 -1.1701  0.6036  3.9263
  489MOL0     H65966   2.072   5.892   0.749  0.1104  1.1978 -0.4847
  489MOL0     H65967   1.954   5.779   0.502  1.7359 -1.9800 -0.2184
  489MOL0     H65968   1.914   5.637   0.583  1.3857  1.3435  0.0956
  489MOL0     H65969   1.747   5.687   0.386  1.6701  1.0095 -0.7357
  489MOL0     H65970   1.657   5.706   0.537 -0.2820  0.1907  0.7327
  489MOL0     H65971   1.793   5.924   0.370 -1.2891  3.7045  0.5053
  489MOL0     H65972   1.733   5.956   0.538 -1.2855  0.4875 -0.8807
  489MOL0     H65973   1.569   6.037   0.364  2.2976  0.6536  0.7893
  489MOL0     H65974   1.500   5.902   0.449 -0.7681 -2.8932 -2.0735
  489MOL0     H65975   1.520   5.709   0.050 -0.0344  0.1085  0.1687
  489MOL0     H65976   1.322   5.682  -0.074  1.1989 -0.5810  0.3979
  489MOL0     H65977   0.813   6.103  -0.027  0.1366 -1.6059  2.1245
  489MOL0     H65978   0.606   6.126  -0.151  1.5147  1.0129  0.4804
  489MOL0     H65979   0.366   6.059  -0.192 -1.5343  2.5523  0.3325
  489MOL0     H65980   0.464   6.130  -0.320 -0.8868 -0.6240 -1.9701
  489MOL0     H65981   0.312   6.047  -0.482 -1.7754 -3.5532 -1.6003
  489MOL0     H65982   0.250   5.922  -0.374  1.2123  0.3359  0.4839
  489MOL0     H65983   0.197   6.221  -0.346  1.5923  0.9064 -2.2994
  489MOL0     H65984   0.103   6.116  -0.458  1.4557 -3.7761 -1.1210
  489MOL0     H65985   0.107   6.055  -0.159 -2.6043 -0.7350  1.1744
  489MOL0     H65986   0.032   5.977  -0.288 -2.4440 -0.6075  1.2910
  489MOL0     H65987  -0.010   6.271  -0.240 -2.5556  0.5272  0.3738
  489MOL0     H65988  -0.106   6.170  -0.146  0.3115  1.4253  0.1960
  489MOL0     H65989  -0.214   6.266  -0.346 -0.7337 -0.3718  2.0535
  489MOL0     H65990  -0.115   6.169  -0.458  0.1121 -1.2527 -0.2868
  489MOL0     H65991  -0.339   6.097  -0.258  0.8704  1.1359 -0.4975
  489MOL0     H65992  -0.208   5.981  -0.280  0.8349  0.2337  0.2167
  489MOL0     H65993  -0.267   5.946  -0.507  2.1099  2.7487 -0.3884
  489MOL0     H65994  -0.397   5.925  -0.382  0.7244 -2.4541 -0.7311
  489MOL0     H65995   0.671   5.737  -0.319  0.0855  1.2536 -1.4779
  489MOL0     H65996   0.859   5.709  -0.182 -3.9237 -0.8478 -0.2877
  489MOL0     H65997   1.126   5.970   0.179 -0.7151  1.0543 -3.0205
  489MOL0     H65998   1.347   6.009   0.305  2.3609  1.0139 -0.8305
  489MOL0     H65999   2.447   5.184   1.678  0.4130 -0.3060  1.1492
  489MOL0     H66000   2.527   4.957   1.777 -0.8231 -2.1696  0.5991
  489MOL0     H66001   2.548   4.516   1.542 -3.2354  2.5760  1.3873
  489MOL0     H66002   2.590   4.282   1.536 -2.1890 -2.5353 -0.4344
  489MOL0     H66003   2.658   4.082   1.583  2.5962  0.2827 -0.2911
  489MOL0     H66004   2.590   3.953   1.685 -0.8390  0.2777  1.5293
  489MOL0     H66005   2.869   4.070   1.739 -1.0004  0.2807 -3.1218
  489MOL0     H66006   2.827   3.909   1.695  3.5284  0.8398  0.4060
  489MOL0     H66007   2.666   3.913   1.893 -2.3260  4.1319  0.3733
  489MOL0     H66008   2.760   4.050   1.946  2.3614  0.6594 -0.0911
  489MOL0     H66009   2.887   3.772   1.883  4.0444  2.1772 -3.0271
  489MOL0     H66010   2.981   3.914   1.939  1.0804 -0.8059 -0.9699
  489MOL0     H66011   2.818   3.746   2.284 -1.4626  0.4533 -0.0775
  489MOL0     H66012   2.497   4.264   1.949 -2.1413 -0.7694 -1.3644
  489MOL0     H66013   2.315   4.560   1.980 -0.5997  0.8849  1.9258
  489MOL0     H66014   2.430   4.442   2.074  2.0406  1.2874  0.6007
  489MOL0     H66015   2.470   4.613   2.030 -2.5149  1.0712  1.3749
  490MOL0     O66016   4.972   0.117   4.409 -0.4047  0.5280  0.4783
  490MOL0     C66017   5.005   0.035   4.324  0.6598  0.3630 -0.0570
  490MOL0     O66018   5.101  -0.058   4.338 -0.4876  0.1969 -0.1016
  490MOL0     C66019   5.159  -0.079   4.462  0.7347 -0.4819 -0.0385
  490MOL0     C66020   5.269  -0.003   4.503  0.1754 -1.0901 -0.3173
  490MOL0     C66021   5.307  -0.007   4.637 -0.5958  0.1331  0.5790
  490MOL0     C66022   5.248  -0.095   4.732  0.1472  0.0147 -0.3437
  490MOL0     O66023   5.279  -0.102   4.863 -0.3270  0.0344  0.3825
  490MOL0     C66024   5.405  -0.037   4.898  0.4294 -0.5793 -0.2530
  490MOL0     C66025   5.515  -0.130   4.848  0.1159 -0.2331 -0.5415
  490MOL0     C66026   5.655  -0.076   4.892 -0.3091  0.5726  0.4461
  490MOL0     C66027   5.761  -0.197   4.906  0.2886 -0.6747 -0.2276
  490MOL0     C66028   5.756  -0.282   5.037  0.5420  1.4887 -0.1994
  490MOL0     C66029   5.639  -0.376   5.058  0.0917  0.3417  0.3771
  490MOL0     C66030   5.654  -0.494   5.150 -0.1040 -0.0138 -0.8040
  490MOL0     C66031   5.525  -0.572   5.169  0.0982  0.4271  1.3089
  490MOL0     N66032   5.560  -0.705   5.224  0.2022 -0.7997  0.2552
  490MOL0     C66033   5.581  -0.730   5.358  0.0022  0.2220 -0.0771
  490MOL0     C66034   5.633  -0.854   5.367  0.3987  0.6107 -0.4049
  490MOL0     C66035   5.689  -0.921   5.487 -0.2843 -0.1729 -0.4693
  490MOL0     C66036   5.818  -0.848   5.540  0.0185  1.0257 -0.1916
  490MOL0     C66037   5.941  -0.859   5.446 -0.5637  0.6089 -0.4763
  490MOL0     C66038   6.067  -0.790   5.498 -0.1822 -1.9998  1.0753
  490MOL0     O66039   6.034  -0.653   5.515  0.0923 -0.0194  0.1293
  490MOL0     C66040   6.047  -0.558   5.413 -0.8656  0.5791  0.3963
  490MOL0     C66041   6.114  -0.576   5.291 -0.2226 -1.2066 -0.1065
  490MOL0     C66042   6.126  -0.465   5.211 -0.7474 -0.4953  0.3935
  490MOL0     C66043   6.064  -0.341   5.229 -0.0968  0.2413 -0.1447
  490MOL0     C66044   6.101  -0.226   5.139 -0.2032  0.7981 -0.1055
  490MOL0     O66045   6.178  -0.250   5.031 -0.0644  0.0138 -0.1701
  490MOL0     C66046   6.257  -0.158   4.970 -0.3019  0.1054 -0.1933
  490MOL0     C66047   6.368  -0.207   4.897  0.0664  0.4029  0.4650
  490MOL0     C66048   6.446  -0.117   4.819 -0.4725  0.8362  0.3926
  490MOL0     C66049   6.427   0.018   4.818  0.6946 -0.1051 -0.3752
  490MOL0     O66050   6.517   0.104   4.756  1.0923 -0.0073 -0.8100
  490MOL0     C66051   6.519   0.245   4.794  0.7708 -0.3397  0.2143
  490MOL0     C66052   6.631   0.298   4.701 -0.5320 -0.4624  0.1165
  490MOL0     C66053   6.648   0.451   4.722  0.6233  0.8614 -0.5217
  490MOL0     C66054   6.740   0.476   4.847 -0.4808 -0.9252  0.5846
  490MOL0     C66055   6.783   0.626   4.838 -0.1199  0.1949 -0.2385
  490MOL0     C66056   6.857   0.672   4.963 -0.0109 -0.5436 -0.5109
  490MOL0     C66057   6.901   0.813   4.932 -0.1634 -1.2182  0.4075
  490MOL0     C66058   6.941   0.894   5.063  0.5341  0.3644 -1.1199
  490MOL0    Cl66059   6.829   0.867   5.199 -0.6530  0.0782 -0.3260
  490MOL0     C66060   6.323   0.062   4.894 -0.5767  0.9341 -1.0978
  490MOL0     C66061   6.234  -0.018   4.967 -1.2260  0.2110  0.1588
  490MOL0     O66062   6.078  -0.118   5.187 -0.5466 -0.1316  0.7502
  490MOL0     C66063   6.001  -0.322   5.354  0.1287  0.0417  0.1802
  490MOL0     C66064   5.982  -0.433   5.440  0.1924 -0.2928 -0.3015
  490MOL0     N66065   5.622  -0.909   5.247  0.8300  0.7298  0.2808
  490MOL0     N66066   5.584  -0.822   5.161 -0.5976  0.0993 -0.0710
  490MOL0     C66067   5.139  -0.169   4.680 -0.3536 -0.2598  0.6813
  490MOL0     C66068   5.089  -0.158   4.553  0.4880 -0.5878 -0.8814
  490MOL0     C66069   4.940   0.039   4.189  0.3551 -0.5104  0.2628
  490MOL0     C66070   4.863  -0.066   4.160  0.4854  1.0775  1.1439
  490MOL0     C66071   4.795  -0.072   4.038 -0.1579  0.8653 -1.3067
  490MOL0     C66072   4.784   0.042   3.960 -0.8416 -0.5660 -0.1920
  490MOL0     O66073   4.715   0.055   3.842  0.1423 -0.9251 -0.0063
  490MOL0     C66074   4.646  -0.062   3.794 -0.8154  0.9265 -0.8171
  490MOL0     C66075   4.549  -0.017   3.681  0.4685  0.4789  0.9498
  490MOL0     C66076   4.478  -0.137   3.611  0.7890  0.8520 -0.5806
  490MOL0     C66077   4.412  -0.083   3.485 -0.3594 -0.7609 -0.2899
  490MOL0     C66078   4.286  -0.016   3.517  0.5438 -0.6357 -0.6243
  490MOL0     C66079   4.177   0.037   3.539  1.0004  0.0725 -0.7584
  490MOL0     C66080   4.856   0.163   4.006  0.2196  0.3070 -0.3198
  490MOL0     C66081   4.925   0.165   4.130 -0.6360  0.7447  0.9948
  490MOL0     C66082   4.995   0.289   4.168 -0.4776  0.1290  0.7744
  490MOL0     H66083   5.329   0.055   4.433  1.2500 -1.2959  0.3958
  490MOL0     H66084   5.395   0.045   4.674  1.6587 -3.1401  0.2443
  490MOL0     H66085   5.416   0.064   4.859 -2.5745 -1.0839 -2.7537
  490MOL0     H66086   5.420  -0.037   5.007 -0.4437  1.3004 -0.1056
  490MOL0     H66087   5.509  -0.132   4.738  0.5030  1.2064 -0.6071
  490MOL0     H66088   5.490  -0.231   4.882  2.3850 -1.0185 -0.9924
  490MOL0     H66089   5.644  -0.030   4.990  1.2932  0.8188  0.5377
  490MOL0     H66090   5.678  -0.002   4.815  1.9077 -1.3736 -0.9298
  490MOL0     H66091   5.765  -0.254   4.813  2.8296  1.3488 -1.4712
  490MOL0     H66092   5.849  -0.133   4.912  0.0225 -0.3812  0.7290
  490MOL0     H66093   5.843  -0.348   5.030 -0.4182  0.1606  0.0180
  490MOL0     H66094   5.774  -0.224   5.128 -1.0865  0.7775  0.6061
  490MOL0     H66095   5.564  -0.307   5.098 -0.6885 -1.8324  2.9416
  490MOL0     H66096   5.614  -0.414   4.959 -1.5075  0.0073  0.8733
  490MOL0     H66097   5.689  -0.467   5.251  0.1193 -0.1728 -0.8372
  490MOL0     H66098   5.734  -0.561   5.117 -2.9687 -3.9297 -0.5708
  490MOL0     H66099   5.459  -0.517   5.237  0.3964  0.8858  1.2327
  490MOL0     H66100   5.471  -0.588   5.076  0.4030 -0.7381  1.3219
  490MOL0     H66101   5.572  -0.650   5.430  1.0941 -2.2595  3.0837
  490MOL0     H66102   5.607  -0.923   5.559  1.0401 -1.2970  1.0875
  490MOL0     H66103   5.717  -1.026   5.475 -0.4198 -0.1543 -0.9657
  490MOL0     H66104   5.793  -0.744   5.560 -0.1333  0.5738  2.3606
  490MOL0     H66105   5.836  -0.898   5.636  1.0597 -2.6155 -2.0606
  490MOL0     H66106   5.900  -0.810   5.358  0.1918  0.8002 -0.7270
  490MOL0     H66107   5.969  -0.963   5.424 -2.2315  0.0121  0.0486
  490MOL0     H66108   6.141  -0.799   5.418 -1.5188 -3.5969 -0.0531
  490MOL0     H66109   6.101  -0.833   5.593  2.7414 -0.0910  1.0064
  490MOL0     H66110   6.168  -0.666   5.264 -0.2788 -0.6885 -2.1277
  490MOL0     H66111   6.187  -0.489   5.124 -0.8709  3.7214 -1.1018
  490MOL0     H66112   6.397  -0.312   4.893  1.1176  0.7174 -1.0184
  490MOL0     H66113   6.533  -0.162   4.771 -2.0268 -3.6560  1.2946
  490MOL0     H66114   6.423   0.294   4.780  0.6226 -0.5078  0.6074
  490MOL0     H66115   6.556   0.249   4.897  0.5090 -3.6822  0.5724
  490MOL0     H66116   6.723   0.246   4.731 -0.2078  1.9439  3.8361
  490MOL0     H66117   6.613   0.275   4.595 -1.3652 -1.3089  0.4225
  490MOL0     H66118   6.696   0.487   4.630  1.9704 -0.7836 -0.5408
  490MOL0     H66119   6.560   0.512   4.743  1.6917  2.3091 -0.0955
  490MOL0     H66120   6.838   0.429   4.844  1.6255  3.0832  0.2050
  490MOL0     H66121   6.693   0.445   4.941 -1.2446  2.1163  1.3200
  490MOL0     H66122   6.700   0.697   4.832  1.6630  3.1272  3.9925
  490MOL0     H66123   6.841   0.636   4.746  1.7989 -3.5810  0.3683
  490MOL0     H66124   6.790   0.665   5.049  0.6595  0.1953  0.0828
  490MOL0     H66125   6.952   0.623   4.985  0.4823  1.9264  3.9290
  490MOL0     H66126   6.822   0.870   4.881 -1.3041 -1.4295  1.8764
  490MOL0     H66127   6.986   0.812   4.863  0.2688  0.4126  0.8566
  490MOL0     H66128   7.037   0.866   5.107 -0.7397 -0.4025  1.3631
  490MOL0     H66129   6.954   1.000   5.039  0.7174  0.9455  1.2795
  490MOL0     H66130   6.314   0.166   4.923 -2.0203  0.0267  2.1211
  490MOL0     H66131   6.145   0.020   5.016 -1.5112  1.0761 -0.9840
  490MOL0     H66132   5.957  -0.227   5.382 -1.5486 -0.8293  0.6216
  490MOL0     H66133   5.911  -0.437   5.522 -2.4038 -1.9557 -2.4548
  490MOL0     H66134   5.091  -0.250   4.734  1.8165 -0.4464  2.4574
  490MOL0     H66135   5.014  -0.230   4.523  1.9176 -1.8812 -1.4562
  490MOL0     H66136   4.877  -0.151   4.226  0.7142  0.2586  0.0681
  490MOL0     H66137   4.738  -0.162   4.014 -1.7962  1.2649  0.8755
  490MOL0     H66138   4.587  -0.115   3.870  1.0580  2.0303  1.5600
  490MOL0     H66139   4.714  -0.133   3.745  0.0146 -0.6671  2.3739
  490MOL0     H66140   4.595   0.055   3.613 -1.3229  2.1155  1.4037
  490MOL0     H66141   4.466   0.033   3.732 -0.1820  0.1335  0.2595
  490MOL0     H66142   4.400  -0.175   3.678  2.0092  0.6122  0.7507
  490MOL0     H66143   4.536  -0.226   3.587 -0.5991 -0.3456  0.3141
  490MOL0     H66144   4.484  -0.035   3.418 -2.0280 -0.8771 -2.2682
  490MOL0     H66145   4.370  -0.162   3.423 -2.8134  2.6565 -3.4517
  490MOL0     H66146   4.089   0.093   3.563  2.0738  1.1884  0.7967
  490MOL0     H66147   4.857   0.255   3.949 -2.0320 -1.0186 -2.6930
  490MOL0     H66148   4.951   0.328   4.260 -1.3985  0.2863  0.2784
  490MOL0     H66149   5.101   0.267   4.179 -0.3031  1.6103  2.4584
  490MOL0     H66150   4.984   0.372   4.097 -1.0802 -0.7857 -0.2350
  491MOL0     O66151   6.248   5.944   5.786 -0.2668  1.0678  0.0953
  491MOL0     C66152   6.353   5.893   5.823  0.7260  0.0444  0.4495
  491MOL0     O66153   6.415   5.922   5.939  0.2034 -0.5542  0.1140
  491MOL0     C66154   6.336   5.981   6.026  0.3129  0.1935 -0.0295
  491MOL0     C66155   6.292   6.114   6.034  0.1027  0.0524 -1.0340
  491MOL0     C66156   6.200   6.165   6.131 -0.5410  0.5297  0.8188
  491MOL0     C66157   6.152   6.074   6.228 -0.4294 -0.1483  0.3876
  491MOL0     O66158   6.065   6.090   6.333 -0.4272 -0.2755  0.4653
  491MOL0     C66159   6.097   6.213   6.405  0.6607 -0.1481  0.5221
  491MOL0     C66160   6.018   6.212   6.537 -0.5458 -0.9883  0.4209
  491MOL0     C66161   5.970   6.350   6.578  0.4332 -0.3839  0.9090
  491MOL0     C66162   5.917   6.346   6.718 -0.5884 -0.2511 -0.9531
  491MOL0     C66163   6.033   6.362   6.818 -0.0997  0.9155 -0.5898
  491MOL0     C66164   5.975   6.365   6.959  0.2781 -0.4866 -0.5278
  491MOL0     C66165   6.099   6.349   7.065  0.1585 -0.7632  0.1100
  491MOL0     C66166   6.061   6.321   7.215 -0.3915  0.5769 -0.5104
  491MOL0     N66167   5.989   6.439   7.272 -0.3915  0.5636 -0.9055
  491MOL0     C66168   5.854   6.446   7.290  0.0214  0.2514  0.6643
  491MOL0     C66169   5.821   6.572   7.324  0.2255 -0.3697 -0.2575
  491MOL0     C66170   5.685   6.634   7.373 -0.1045  0.0571 -0.1360
  491MOL0     C66171   5.644   6.593   7.518  1.1829 -0.5965  0.7396
  491MOL0     C66172   5.505   6.635   7.549 -0.1414  0.3095 -0.2445
  491MOL0     C66173   5.391   6.549   7.495  0.7847  0.4539 -0.1739
  491MOL0     O66174   5.351   6.466   7.603  0.6209 -0.7341 -0.3521
  491MOL0     C66175   5.407   6.347   7.620  0.3519  0.2815 -0.6616
  491MOL0     C66176   5.371   6.296   7.745 -0.3351 -0.5797 -0.2703
  491MOL0     C66177   5.428   6.175   7.781  0.0904  0.9906  0.1192
  491MOL0     C66178   5.523   6.104   7.713  0.1092  0.0518 -0.1918
  491MOL0     C66179   5.552   5.960   7.754 -1.1265  0.4258 -0.8213
  491MOL0     O66180   5.491   5.923   7.875 -0.2595 -0.5619  0.5210
  491MOL0     C66181   5.538   5.818   7.945 -0.0941  0.0684  1.1865
  491MOL0     C66182   5.458   5.734   8.006  0.1299  0.1461 -0.6532
  491MOL0     C66183   5.510   5.616   8.071 -0.4646 -0.5284 -0.0931
  491MOL0     C66184   5.647   5.589   8.067 -0.0245 -0.3273 -0.6550
  491MOL0     O66185   5.692   5.476   8.136  0.1970  0.4934  0.1046
  491MOL0     C66186   5.826   5.458   8.166  0.1382 -0.7363  1.2743
  491MOL0     C66187   5.865   5.313   8.182 -0.2108  0.3300  0.5466
  491MOL0     C66188   5.827   5.258   8.320 -0.0760 -0.8213 -0.1728
  491MOL0     C66189   5.859   5.108   8.324 -1.2496 -0.3065  0.4180
  491MOL0     C66190   5.833   5.039   8.457  0.3313 -0.4234  0.1566
  491MOL0     C66191   5.687   4.994   8.478 -0.2093 -0.2240  0.3081
  491MOL0     C66192   5.651   4.957   8.621  0.2740 -0.0890  0.0969
  491MOL0     C66193   5.611   5.085   8.705 -0.1857  0.3652 -0.0404
  491MOL0    Cl66194   5.576   5.025   8.868  0.0533  0.0120 -0.4050
  491MOL0     C66195   5.734   5.692   8.021  0.1453 -0.1225 -0.5948
  491MOL0     C66196   5.680   5.810   7.961 -1.1991  0.3791 -0.2132
  491MOL0     O66197   5.626   5.888   7.688  0.6212 -0.4770  0.2151
  491MOL0     C66198   5.571   6.166   7.600 -0.6781  0.5724  0.1722
  491MOL0     C66199   5.509   6.281   7.549 -0.6628  0.3804 -0.6289
  491MOL0     N66200   5.941   6.640   7.293  0.3726  0.8706 -0.4222
  491MOL0     N66201   6.045   6.554   7.280 -0.2297 -0.6779  0.0382
  491MOL0     C66202   6.188   5.938   6.216  0.6156  0.0810  0.3794
  491MOL0     C66203   6.290   5.892   6.121  0.2525  0.6937 -0.8533
  491MOL0     C66204   6.421   5.811   5.722  0.2284 -1.2449 -0.3504
  491MOL0     C66205   6.398   5.841   5.587 -0.0886  0.9846 -0.0817
  491MOL0     C66206   6.460   5.766   5.485 -0.1935 -0.2001  0.5142
  491MOL0     C66207   6.557   5.669   5.522 -0.8580 -0.3640 -0.1721
  491MOL0     O66208   6.633   5.594   5.436 -0.6984 -0.6922 -1.1373
  491MOL0     C66209   6.643   5.638   5.298  0.5597  0.4152  0.2038
  491MOL0     C66210   6.539   5.564   5.211 -0.8820  1.1607  0.6233
  491MOL0     C66211   6.548   5.609   5.056 -0.0204  0.0662  0.4003
  491MOL0     C66212   6.428   5.549   4.990 -0.2854  0.5247  0.8701
  491MOL0     C66213   6.398   5.579   4.845 -0.7966 -0.7239 -0.1654
  491MOL0     C66214   6.394   5.624   4.727  0.4126  0.0444 -0.5568
  491MOL0     C66215   6.588   5.656   5.652 -0.1492 -0.0865 -0.7248
  491MOL0     C66216   6.505   5.709   5.754 -0.3335  0.6891 -0.5721
  491MOL0     C66217   6.523   5.659   5.896 -0.4104 -0.6176 -0.2806
  491MOL0     H66218   6.331   6.180   5.957 -1.1341  1.2937 -0.6475
  491MOL0     H66219   6.177   6.270   6.147  0.8074  0.6643  2.1036
  491MOL0     H66220   6.204   6.205   6.423  0.7399  0.0599  0.1359
  491MOL0     H66221   6.076   6.292   6.333  0.5220 -0.4637  0.2148
  491MOL0     H66222   6.092   6.163   6.600  0.5199  2.0420  1.7054
  491MOL0     H66223   5.934   6.142   6.538 -1.2601 -0.2212 -1.2863
  491MOL0     H66224   5.891   6.382   6.509  2.2530 -0.4354 -1.3284
  491MOL0     H66225   6.058   6.414   6.563  1.6518 -1.9174  1.2155
  491MOL0     H66226   5.846   6.430   6.724 -1.3117 -0.8539 -0.8910
  491MOL0     H66227   5.844   6.267   6.740 -1.0197  0.7998  1.8398
  491MOL0     H66228   6.102   6.278   6.807 -0.6308  0.5235 -0.9556
  491MOL0     H66229   6.085   6.456   6.797  1.1736  0.2459 -0.4879
  491MOL0     H66230   5.905   6.443   6.990 -1.5730 -3.6433  4.5020
  491MOL0     H66231   5.913   6.275   6.961 -1.4773  0.5635  3.7454
  491MOL0     H66232   6.165   6.436   7.073  0.5218 -1.1390  1.3712
  491MOL0     H66233   6.154   6.264   7.025 -3.4707 -3.6133  0.6839
  491MOL0     H66234   6.002   6.229   7.223 -0.4940  0.6801 -0.0348
  491MOL0     H66235   6.151   6.297   7.272 -0.7693  0.8715  0.2290
  491MOL0     H66236   5.783   6.364   7.291  0.6195 -0.2895 -0.2537
  491MOL0     H66237   5.692   6.743   7.360 -1.5235  0.0975 -0.7428
  491MOL0     H66238   5.610   6.602   7.301  0.9271 -2.4057 -0.2218
  491MOL0     H66239   5.663   6.486   7.534 -2.1404 -1.5617 -0.9735
  491MOL0     H66240   5.704   6.642   7.595 -0.2338 -3.0116  3.6068
  491MOL0     H66241   5.508   6.738   7.512  1.6772  2.0406  4.0863
  491MOL0     H66242   5.484   6.653   7.655 -2.3841  0.5699 -0.6787
  491MOL0     H66243   5.419   6.493   7.406  0.5092 -1.6845  1.0362
  491MOL0     H66244   5.307   6.614   7.466 -0.1166 -1.7225 -2.8475
  491MOL0     H66245   5.305   6.354   7.809  0.9092  2.3374 -1.4364
  491MOL0     H66246   5.389   6.129   7.871  2.7126 -0.7565  0.4941
  491MOL0     H66247   5.352   5.757   8.003 -0.3114 -1.8050 -2.1730
  491MOL0     H66248   5.456   5.528   8.104  0.3239 -1.2849 -0.7527
  491MOL0     H66249   5.886   5.492   8.081  2.3799 -0.1769  2.9970
  491MOL0     H66250   5.847   5.514   8.257 -0.3090  1.0844  0.3094
  491MOL0     H66251   5.833   5.258   8.093  1.2705  1.4220 -0.7212
  491MOL0     H66252   5.974   5.309   8.168 -0.1651 -0.3630  1.0396
  491MOL0     H66253   5.878   5.303   8.405 -0.0507  0.9550 -1.0903
  491MOL0     H66254   5.727   5.283   8.357  0.8848  3.1030  0.1394
  491MOL0     H66255   5.967   5.100   8.315 -1.0587 -1.0516  2.7495
  491MOL0     H66256   5.814   5.051   8.242  3.3224 -0.2758 -2.4400
  491MOL0     H66257   5.878   5.102   8.535 -1.7673  0.2790  0.8701
  491MOL0     H66258   5.895   4.949   8.451  1.5071  0.4434 -5.5319
  491MOL0     H66259   5.628   5.078   8.439 -1.9777 -2.0346 -1.1255
  491MOL0     H66260   5.671   4.913   8.407 -2.4178  1.6961 -1.5775
  491MOL0     H66261   5.744   4.927   8.670 -0.1187 -0.9874  0.2998
  491MOL0     H66262   5.564   4.891   8.625 -2.6065  2.8580 -4.1915
  491MOL0     H66263   5.699   5.151   8.712 -1.1578  1.5422  1.7232
  491MOL0     H66264   5.530   5.146   8.665  0.8078 -0.2693 -3.3703
  491MOL0     H66265   5.842   5.689   8.034  0.1113 -1.3510 -0.4301
  491MOL0     H66266   5.740   5.895   7.932  0.6301 -0.4762  0.8525
  491MOL0     H66267   5.648   6.124   7.535  1.1984  2.7461  0.8923
  491MOL0     H66268   5.538   6.327   7.455 -0.9308  0.6977 -0.5586
  491MOL0     H66269   6.147   5.865   6.284 -0.8011 -2.1076 -2.5862
  491MOL0     H66270   6.310   5.787   6.107 -2.1948  0.2489 -1.5315
  491MOL0     H66271   6.337   5.927   5.564  0.3931  1.5851  0.8304
  491MOL0     H66272   6.435   5.798   5.384  2.0301  1.2059  0.3311
  491MOL0     H66273   6.745   5.623   5.260  1.2047  2.1588  1.1472
  491MOL0     H66274   6.618   5.743   5.308 -2.8152 -0.3899  1.4570
  491MOL0     H66275   6.441   5.576   5.258  1.1494  1.1751  5.5629
  491MOL0     H66276   6.563   5.457   5.205  0.9182  1.4311  1.9978
  491MOL0     H66277   6.640   5.567   5.016 -0.0563 -0.1562  0.5522
  491MOL0     H66278   6.554   5.713   5.022 -1.4579 -0.2815 -1.0701
  491MOL0     H66279   6.427   5.440   5.000 -1.1233 -0.2655 -4.6187
  491MOL0     H66280   6.350   5.593   5.052  0.2249  2.0451  0.4727
  491MOL0     H66281   6.398   5.673   4.631 -1.7925 -1.1136 -1.3122
  491MOL0     H66282   6.668   5.585   5.669  2.9067  1.9913 -4.7224
  491MOL0     H66283   6.582   5.725   5.960 -0.3806 -1.9622  1.1510
  491MOL0     H66284   6.428   5.650   5.950  0.9981  0.3245  2.5611
  491MOL0     H66285   6.579   5.568   5.871  1.3616  1.0546 -2.9599
  492MOL0     O66286   2.019   6.116   8.860  0.4990 -0.8925  0.2653
  492MOL0     C66287   2.075   6.220   8.873  0.7785 -0.2719  0.0106
  492MOL0     O66288   2.012   6.338   8.889 -0.5447 -0.3328  0.3860
  492MOL0     C66289   1.871   6.352   8.882 -1.2273 -0.3956 -0.5401
  492MOL0     C66290   1.786   6.279   8.807  0.5635  0.6837  0.2423
  492MOL0     C66291   1.652   6.304   8.805 -0.1862  0.0946  0.3062
  492MOL0     C66292   1.597   6.396   8.885 -0.2033 -0.2605  0.3566
  492MOL0     O66293   1.464   6.416   8.885 -0.5201 -0.6861 -0.3045
  492MOL0     C66294   1.437   6.539   8.825  0.8645  0.5051 -0.2877
  492MOL0     C66295   1.280   6.553   8.830  0.2302  0.6498 -0.2584
  492MOL0     C66296   1.227   6.700   8.862  0.3768  0.0792  0.3060
  492MOL0     C66297   1.217   6.777   8.737  0.6554  0.1893  0.4490
  492MOL0     C66298   1.172   6.923   8.751 -0.9725 -1.2362  0.7684
  492MOL0     C66299   1.249   7.024   8.659  0.3309 -0.0073  0.0508
  492MOL0     C66300   1.255   7.168   8.697  0.4134 -1.1046  0.1450
  492MOL0     C66301   1.104   7.221   8.727 -0.6678 -0.7975  0.0780
  492MOL0     N66302   1.116   7.360   8.758 -0.4842 -1.0590 -0.1609
  492MOL0     C66303   1.187   7.424   8.860 -0.2588 -0.7703 -0.1941
  492MOL0     C66304   1.173   7.555   8.831 -0.2436  0.6145 -0.1566
  492MOL0     C66305   1.224   7.664   8.911 -0.0495 -0.0813 -0.9951
  492MOL0     C66306   1.290   7.757   8.817  0.1476 -0.0021 -0.1550
  492MOL0     C66307   1.438   7.793   8.859 -0.8981 -0.2647  1.0092
  492MOL0     C66308   1.505   7.906   8.784 -0.1540 -0.0648 -0.3606
  492MOL0     O66309   1.645   7.884   8.786 -0.6889  0.1626  0.0598
  492MOL0     C66310   1.702   7.794   8.698 -0.4343 -0.6817  0.9069
  492MOL0     C66311   1.636   7.712   8.602  0.3155  0.6234 -0.3541
  492MOL0     C66312   1.716   7.624   8.524  0.2521 -0.1637 -0.1336
  492MOL0     C66313   1.855   7.605   8.548  0.6992  0.1944  0.2568
  492MOL0     C66314   1.922   7.506   8.471  0.5175 -0.6267  0.0240
  492MOL0     O66315   2.011   7.436   8.549  0.4058 -0.0172 -0.0624
  492MOL0     C66316   2.071   7.336   8.467  0.1763  0.1802 -0.7059
  492MOL0     C66317   2.147   7.355   8.350 -0.3669 -0.4143 -0.1095
  492MOL0     C66318   2.199   7.240   8.287  0.1426 -0.2412 -0.1421
  492MOL0     C66319   2.178   7.107   8.323 -0.2916 -0.5095  0.1522
  492MOL0     O66320   2.231   7.003   8.241  0.1270 -1.0324 -0.3754
  492MOL0     C66321   2.175   6.871   8.265  1.0132  0.0472  0.1714
  492MOL0     C66322   2.043   6.853   8.197 -0.2445  0.0045 -0.1014
  492MOL0     C66323   2.079   6.816   8.059  0.8196  0.4391  0.8790
  492MOL0     C66324   1.956   6.805   7.980  1.4003 -0.2862  0.3511
  492MOL0     C66325   1.994   6.771   7.841 -0.2442 -0.6816 -0.7989
  492MOL0     C66326   1.879   6.778   7.735  0.0189 -0.2567  0.8876
  492MOL0     C66327   1.743   6.717   7.789  0.8848 -0.3910 -0.2275
  492MOL0     C66328   1.769   6.566   7.806  0.6076  0.7971 -0.1690
  492MOL0    Cl66329   1.652   6.491   7.919 -0.0986 -0.1683 -0.5799
  492MOL0     C66330   2.086   7.097   8.432  0.6240 -0.3373  0.3736
  492MOL0     C66331   2.047   7.204   8.511 -0.4120 -0.2524 -0.6639
  492MOL0     O66332   1.889   7.476   8.355  0.6003  0.4015 -0.4561
  492MOL0     C66333   1.917   7.688   8.638  0.3433  0.4205 -0.5639
  492MOL0     C66334   1.834   7.781   8.717 -0.8545  0.0088  1.8713
  492MOL0     N66335   1.082   7.570   8.732 -0.4520 -0.2155 -0.3811
  492MOL0     N66336   1.056   7.457   8.684  0.2002 -0.0359 -0.2288
  492MOL0     C66337   1.678   6.468   8.973 -0.1861  0.4389 -0.4221
  492MOL0     C66338   1.814   6.439   8.965 -0.5759  0.5326  0.5925
  492MOL0     C66339   2.233   6.218   8.873  0.1878 -1.2996  0.3819
  492MOL0     C66340   2.294   6.332   8.821  1.3485 -0.4381  0.1807
  492MOL0     C66341   2.426   6.358   8.842  0.4351 -0.3568 -0.0850
  492MOL0     C66342   2.515   6.281   8.912  0.6057 -0.4126 -0.0872
  492MOL0     O66343   2.648   6.311   8.892 -0.1916  0.1459  0.3846
  492MOL0     C66344   2.715   6.316   8.751 -0.4188  0.0945 -0.6400
  492MOL0     C66345   2.785   6.185   8.724  0.3305  0.2539  0.4641
  492MOL0     C66346   2.895   6.127   8.816  0.7031 -0.6312  0.8582
  492MOL0     C66347   2.987   6.239   8.882  0.6593 -0.9701  0.2644
  492MOL0     C66348   3.106   6.178   8.949 -0.3989  0.6150 -0.5941
  492MOL0     C66349   3.207   6.137   8.998 -1.0989 -0.5962 -0.7829
  492MOL0     C66350   2.464   6.165   8.966  0.8389  0.5121  0.4610
  492MOL0     C66351   2.320   6.134   8.952  0.0351 -0.5247  0.6509
  492MOL0     C66352   2.285   6.001   9.012 -0.9674  1.1389 -0.2581
  492MOL0     H66353   1.828   6.195   8.752  0.8370  2.4578 -2.4314
  492MOL0     H66354   1.590   6.245   8.738  2.1609 -1.7148 -0.4018
  492MOL0     H66355   1.488   6.625   8.868  1.0881  1.2728 -2.0226
  492MOL0     H66356   1.470   6.532   8.721 -1.1264 -0.7198 -0.8948
  492MOL0     H66357   1.234   6.476   8.893 -1.1926  0.6673 -1.2217
  492MOL0     H66358   1.234   6.526   8.735 -0.5968 -0.5364  0.4476
  492MOL0     H66359   1.293   6.758   8.928 -0.7055  1.5684  0.1391
  492MOL0     H66360   1.130   6.696   8.912  0.0501  1.1678 -0.1970
  492MOL0     H66361   1.315   6.776   8.687  1.2736  2.5369  1.4499
  492MOL0     H66362   1.142   6.740   8.667  2.0702 -1.5436 -0.2362
  492MOL0     H66363   1.064   6.939   8.760 -0.8917  0.4856 -0.6104
  492MOL0     H66364   1.216   6.949   8.848  1.2149 -1.9737  0.0142
  492MOL0     H66365   1.349   6.983   8.644  0.0200  0.3264 -4.0304
  492MOL0     H66366   1.202   7.027   8.560  0.4035  0.9968  0.0345
  492MOL0     H66367   1.310   7.226   8.622  0.4314  1.0347  1.7009
  492MOL0     H66368   1.313   7.172   8.789 -1.5815  0.6801  1.4406
  492MOL0     H66369   1.047   7.206   8.635  0.1672  0.3629 -0.6595
  492MOL0     H66370   1.067   7.166   8.815 -1.4687  1.0224  0.9204
  492MOL0     H66371   1.229   7.371   8.945 -0.6985  0.4918  0.8552
  492MOL0     H66372   1.146   7.712   8.972  1.1707  0.9833 -0.2429
  492MOL0     H66373   1.296   7.634   8.988 -0.1608 -1.0021 -1.2356
  492MOL0     H66374   1.292   7.713   8.716 -2.9242  0.8577 -0.7227
  492MOL0     H66375   1.218   7.839   8.804 -0.4492 -0.1312  2.0335
  492MOL0     H66376   1.496   7.703   8.840 -2.3129 -0.4127 -4.6282
  492MOL0     H66377   1.431   7.814   8.966 -3.9493  0.1121  0.8257
  492MOL0     H66378   1.480   7.993   8.846  0.0848 -1.8177  2.3762
  492MOL0     H66379   1.474   7.932   8.683  1.0579  0.8814 -0.5165
  492MOL0     H66380   1.529   7.724   8.587  0.4314  2.5644  0.0383
  492MOL0     H66381   1.677   7.551   8.453 -1.5613 -0.2328  0.8811
  492MOL0     H66382   2.173   7.457   8.322  2.3921  0.5112  4.6772
  492MOL0     H66383   2.247   7.251   8.190 -1.4293 -2.6340 -1.2850
  492MOL0     H66384   2.241   6.791   8.229  0.3549  0.1990 -1.4737
  492MOL0     H66385   2.163   6.858   8.373  1.7844  0.0317  0.2583
  492MOL0     H66386   1.975   6.780   8.241 -2.2090  1.0763 -1.2118
  492MOL0     H66387   1.989   6.948   8.195  2.7588  1.8553  0.2586
  492MOL0     H66388   2.138   6.902   8.025 -0.4532  1.4190  1.0912
  492MOL0     H66389   2.137   6.725   8.045  0.2156 -0.2080  2.3898
  492MOL0     H66390   1.897   6.896   7.994  0.6118 -1.1219  3.1347
  492MOL0     H66391   1.902   6.714   8.009  2.0116 -1.4886 -2.0624
  492MOL0     H66392   2.047   6.675   7.850  0.1552 -0.4575 -0.7279
  492MOL0     H66393   2.075   6.840   7.816 -0.1705  0.4184  2.0799
  492MOL0     H66394   1.865   6.884   7.714 -0.0064 -0.6311 -1.2154
  492MOL0     H66395   1.904   6.735   7.637  0.1666  1.2708  0.2256
  492MOL0     H66396   1.664   6.730   7.715  0.4498 -0.2154  0.2666
  492MOL0     H66397   1.716   6.756   7.888  1.8469 -2.5397  0.9546
  492MOL0     H66398   1.768   6.522   7.705  2.2260 -3.9101  1.5945
  492MOL0     H66399   1.871   6.543   7.837  0.1929  0.9441  1.3577
  492MOL0     H66400   2.044   7.000   8.455 -1.5240  0.1715 -1.1338
  492MOL0     H66401   1.980   7.191   8.596 -1.3976  1.2592 -1.1745
  492MOL0     H66402   2.025   7.679   8.647  0.3731  0.9537 -0.3259
  492MOL0     H66403   1.896   7.848   8.776  2.5193  0.5725 -1.8300
  492MOL0     H66404   1.639   6.549   9.034  1.4235  0.6219  0.4356
  492MOL0     H66405   1.881   6.481   9.039  2.1598 -0.5053 -1.1553
  492MOL0     H66406   2.234   6.405   8.768  1.4499 -0.9594 -0.6674
  492MOL0     H66407   2.466   6.441   8.785 -0.2659 -2.2668 -3.6443
  492MOL0     H66408   2.791   6.395   8.747  1.2334 -1.4039 -0.3332
  492MOL0     H66409   2.641   6.342   8.675 -2.0466  1.4937  1.3242
  492MOL0     H66410   2.836   6.200   8.629  1.8553  0.6156  1.2990
  492MOL0     H66411   2.726   6.097   8.695  2.3147 -0.3617 -2.0386
  492MOL0     H66412   2.968   6.060   8.769 -0.6620 -2.7290  1.5767
  492MOL0     H66413   2.855   6.063   8.895  2.6675  0.3399  2.7285
  492MOL0     H66414   3.025   6.307   8.805  1.5384 -2.0685 -0.2909
  492MOL0     H66415   2.924   6.291   8.955 -1.7521 -1.6785 -1.2174
  492MOL0     H66416   3.307   6.104   9.015 -0.3563  0.8612 -2.0483
  492MOL0     H66417   2.536   6.112   9.027  0.2520 -0.9130 -0.0416
  492MOL0     H66418   2.337   5.917   8.967 -3.3901 -2.1723  2.5267
  492MOL0     H66419   2.313   5.993   9.117  0.8789 -0.6906 -0.8390
  492MOL0     H66420   2.182   5.966   9.002  0.3540 -4.8064  2.6388
  493MOL0     O66421   7.286   8.608   5.106  0.3641 -0.3110 -0.2639
  493MOL0     C66422   7.336   8.674   5.194  0.7133 -0.1765 -1.1059
  493MOL0     O66423   7.463   8.653   5.250  0.0914  0.9673  0.4227
  493MOL0     C66424   7.556   8.574   5.184  0.0591  0.1967  0.4069
  493MOL0     C66425   7.554   8.435   5.216 -0.7235 -0.2180 -0.2716
  493MOL0     C66426   7.647   8.350   5.139  1.2532  0.7105  0.0343
  493MOL0     C66427   7.749   8.409   5.066  0.7037 -0.3648 -0.5969
  493MOL0     O66428   7.852   8.337   5.006  0.4995  0.3970 -0.2401
  493MOL0     C66429   7.985   8.390   5.037  0.2587  0.0619 -0.0101
  493MOL0     C66430   8.094   8.285   5.009  0.5393 -0.6498  1.0252
  493MOL0     C66431   8.242   8.349   5.031 -0.9897 -0.4578  0.6643
  493MOL0     C66432   8.358   8.240   5.039 -0.6024 -0.3302 -0.2630
  493MOL0     C66433   8.491   8.308   5.054  0.2534  0.0778 -0.8008
  493MOL0     C66434   8.611   8.217   5.049 -0.0425 -1.1759 -0.2022
  493MOL0     C66435   8.617   8.105   5.151  0.1992 -0.3351 -0.1339
  493MOL0     C66436   8.741   8.008   5.146 -0.0863 -0.2730 -0.6009
  493MOL0     N66437   8.863   8.085   5.179 -0.5551 -0.2131  0.1938
  493MOL0     C66438   8.919   8.085   5.307 -0.1224 -0.6001 -0.6056
  493MOL0     C66439   9.023   8.180   5.305 -0.5953 -0.0971  0.5290
  493MOL0     C66440   9.128   8.229   5.407 -0.5998 -0.0076  0.4233
  493MOL0     C66441   9.269   8.254   5.348  0.4495  0.6971 -0.1434
  493MOL0     C66442   9.352   8.327   5.459  0.0099  0.5251 -0.4749
  493MOL0     C66443   9.354   8.478   5.450 -0.2128  0.1720 -0.0616
  493MOL0     O66444   9.247   8.537   5.517  0.8581 -0.1778 -0.0714
  493MOL0     C66445   9.246   8.668   5.537 -0.0014  0.1622 -0.1539
  493MOL0     C66446   9.334   8.758   5.480 -0.3367  0.0545  0.3858
  493MOL0     C66447   9.306   8.890   5.485 -0.7980  0.1222 -0.1937
  493MOL0     C66448   9.209   8.948   5.569 -1.6865  1.0528 -0.1659
  493MOL0     C66449   9.183   9.091   5.583  0.3851  0.3558  1.0978
  493MOL0     O66450   9.231   9.165   5.478  0.6863 -0.6753  0.0454
  493MOL0     C66451   9.179   9.286   5.450  0.5371 -0.2291 -0.0215
  493MOL0     C66452   9.041   9.306   5.436 -0.2957  0.0187  0.2979
  493MOL0     C66453   8.993   9.418   5.373 -0.2074 -0.8907 -0.7139
  493MOL0     C66454   9.086   9.522   5.332  0.1703  0.0323 -0.3337
  493MOL0     O66455   9.043   9.630   5.259 -0.9541  0.1238 -0.1271
  493MOL0     C66456   8.962   9.604   5.143  0.1879  0.4841  0.1064
  493MOL0     C66457   8.928   9.725   5.069  0.1485  0.1074  0.4863
  493MOL0     C66458   8.889   9.842   5.157 -0.1113  0.0466 -0.5298
  493MOL0     C66459   8.748   9.842   5.213 -0.1816 -0.0836  0.1015
  493MOL0     C66460   8.714   9.973   5.298  0.2875 -0.7469 -0.4894
  493MOL0     C66461   8.697  10.099   5.207  0.5214  0.1621  1.8414
  493MOL0     C66462   8.644  10.220   5.285  1.0237 -1.1397  0.8961
  493MOL0     C66463   8.594  10.340   5.205  1.0058  0.3426  0.2021
  493MOL0    Cl66464   8.436  10.284   5.132 -0.0480 -0.4858 -0.1356
  493MOL0     C66465   9.223   9.503   5.346  0.2739  0.7269  0.2641
  493MOL0     C66466   9.268   9.384   5.406  0.3782 -0.7508 -0.0074
  493MOL0     O66467   9.109   9.132   5.671 -0.4430  0.1887 -0.9840
  493MOL0     C66468   9.135   8.851   5.642 -0.1972 -0.3309  0.9696
  493MOL0     C66469   9.154   8.713   5.623  1.0766 -0.7777 -0.7001
  493MOL0     N66470   9.024   8.223   5.172 -0.1731  0.4314  0.3499
  493MOL0     N66471   8.937   8.162   5.095 -0.3681  0.6186 -0.0512
  493MOL0     C66472   7.736   8.551   5.036 -0.1563 -0.4421 -0.5758
  493MOL0     C66473   7.638   8.628   5.080  0.0265 -0.0207 -0.7485
  493MOL0     C66474   7.255   8.782   5.249 -0.3226  0.0938 -0.5159
  493MOL0     C66475   7.134   8.752   5.309 -0.4604 -0.2664 -0.1112
  493MOL0     C66476   7.030   8.843   5.330  0.1260 -0.3079 -0.2082
  493MOL0     C66477   7.059   8.976   5.300 -0.4310 -0.5587 -0.5512
  493MOL0     O66478   6.961   9.073   5.316 -0.1420 -0.0091  0.1504
  493MOL0     C66479   6.945   9.173   5.210 -1.0016 -0.0191  0.0374
  493MOL0     C66480   6.815   9.242   5.233 -0.5717 -0.0875 -0.4518
  493MOL0     C66481   6.696   9.145   5.224 -0.3876 -0.5804  0.2875
  493MOL0     C66482   6.553   9.203   5.219 -0.3630 -0.5949  0.2330
  493MOL0     C66483   6.536   9.291   5.343 -0.3317  1.1926  0.4721
  493MOL0     C66484   6.506   9.347   5.441  0.0794 -0.8420 -0.2149
  493MOL0     C66485   7.190   9.011   5.259 -0.4694 -0.2988  0.6589
  493MOL0     C66486   7.281   8.914   5.222 -0.0787  0.0376 -1.0420
  493MOL0     C66487   7.423   8.953   5.181 -1.2365 -0.5376  0.6156
  493MOL0     H66488   7.480   8.391   5.282 -1.5002  0.7707 -0.4554
  493MOL0     H66489   7.662   8.243   5.150  1.1934  0.8843  2.0395
  493MOL0     H66490   8.012   8.469   4.966  4.2431 -3.1429 -2.5316
  493MOL0     H66491   7.995   8.426   5.140  3.4600  0.3734 -0.3163
  493MOL0     H66492   8.084   8.251   4.906  2.8808  0.5803  0.2985
  493MOL0     H66493   8.086   8.190   5.064  0.0105 -0.8600  0.5821
  493MOL0     H66494   8.230   8.395   5.129 -0.9471  1.7701 -0.2995
  493MOL0     H66495   8.268   8.412   4.945  2.0329 -1.9428  0.3476
  493MOL0     H66496   8.349   8.173   5.125  3.5400 -0.9121 -0.0521
  493MOL0     H66497   8.362   8.178   4.949 -1.7071  0.3348 -0.7851
  493MOL0     H66498   8.501   8.385   4.976 -1.8672  0.0338 -1.1771
  493MOL0     H66499   8.495   8.369   5.144 -0.8729 -3.7305  2.0821
  493MOL0     H66500   8.618   8.157   4.958 -2.4528 -0.9295 -0.6252
  493MOL0     H66501   8.703   8.276   5.053 -0.5029 -0.4835  0.6099
  493MOL0     H66502   8.535   8.035   5.135  0.4128 -0.9129  1.1438
  493MOL0     H66503   8.611   8.146   5.253  3.2270  2.0413 -0.7494
  493MOL0     H66504   8.730   7.926   5.217 -0.0358  0.0548 -0.2120
  493MOL0     H66505   8.753   7.974   5.042  1.2272  0.5081 -0.7274
  493MOL0     H66506   8.882   8.045   5.400  2.7081 -1.5032  0.2397
  493MOL0     H66507   9.097   8.324   5.451 -1.4758 -0.3026  0.4818
  493MOL0     H66508   9.133   8.152   5.485  2.6504 -1.9896 -1.5291
  493MOL0     H66509   9.309   8.155   5.324 -0.2511  0.8667 -2.2303
  493MOL0     H66510   9.280   8.314   5.258 -2.9858  0.4610 -0.8762
  493MOL0     H66511   9.453   8.287   5.450 -0.0631 -0.5056  2.2615
  493MOL0     H66512   9.324   8.313   5.564  0.1852  1.0521 -0.3506
  493MOL0     H66513   9.352   8.494   5.342  0.4871  1.2235  0.0635
  493MOL0     H66514   9.446   8.509   5.500  1.0032  1.3808 -2.8248
  493MOL0     H66515   9.423   8.728   5.426  1.5596  0.8466  2.8951
  493MOL0     H66516   9.361   8.956   5.419  0.2303 -2.3779 -2.0306
  493MOL0     H66517   8.983   9.217   5.454 -2.3006  0.9830 -1.0426
  493MOL0     H66518   8.885   9.415   5.358 -0.1492 -0.2900 -1.2968
  493MOL0     H66519   9.004   9.525   5.080 -0.1519 -2.5092  3.3415
  493MOL0     H66520   8.867   9.558   5.172  0.6188 -0.8264 -0.4885
  493MOL0     H66521   9.025   9.753   5.026  0.9284 -0.4189  1.8320
  493MOL0     H66522   8.854   9.702   4.992 -1.5435  0.5032  1.9267
  493MOL0     H66523   8.941   9.852   5.253  1.6214  2.5445 -1.6292
  493MOL0     H66524   8.920   9.931   5.102 -0.9924 -0.8163 -2.4965
  493MOL0     H66525   8.728   9.754   5.275 -2.1070 -0.2272 -0.6552
  493MOL0     H66526   8.671   9.837   5.135  0.4834 -3.2173 -0.4737
  493MOL0     H66527   8.790   9.982   5.376 -1.0837 -0.2030  0.8314
  493MOL0     H66528   8.625   9.950   5.357 -0.7015 -0.6844 -1.9275
  493MOL0     H66529   8.788  10.116   5.148  0.3217  1.1118  1.7899
  493MOL0     H66530   8.620  10.074   5.133 -1.2422 -1.9287  4.2093
  493MOL0     H66531   8.723  10.241   5.357 -1.0840 -1.8920  3.5654
  493MOL0     H66532   8.548  10.202   5.335 -0.0383  3.9112  1.2317
  493MOL0     H66533   8.587  10.429   5.269 -1.2531  0.8137 -0.6010
  493MOL0     H66534   8.667  10.361   5.126  1.4905 -1.7652  0.0320
  493MOL0     H66535   9.284   9.583   5.306 -3.1907  2.0382 -2.9284
  493MOL0     H66536   9.375   9.368   5.400  0.0398 -2.6052 -2.7602
  493MOL0     H66537   9.057   8.894   5.703  0.2992 -0.8855  2.0118
  493MOL0     H66538   9.085   8.648   5.676 -1.1252  1.8526 -0.1131
  493MOL0     H66539   7.813   8.584   4.967  2.8056 -1.8920  1.8054
  493MOL0     H66540   7.639   8.732   5.048  0.0579  0.0264 -0.5919
  493MOL0     H66541   7.105   8.650   5.332  0.7874 -2.4359 -6.2765
  493MOL0     H66542   6.930   8.834   5.370  1.0981 -0.6520  2.3583
  493MOL0     H66543   6.942   9.112   5.119  1.5969 -2.4691  1.4381
  493MOL0     H66544   7.027   9.246   5.212  1.1353 -2.3179  1.1048
  493MOL0     H66545   6.800   9.322   5.159 -0.7461  3.7229  3.3317
  493MOL0     H66546   6.808   9.285   5.333 -2.3819 -2.6589  0.6275
  493MOL0     H66547   6.710   9.077   5.309  1.6138  0.0110  0.5013
  493MOL0     H66548   6.721   9.082   5.138  0.9988 -0.3542  0.4891
  493MOL0     H66549   6.550   9.270   5.133  3.0948 -0.2644  0.1975
  493MOL0     H66550   6.484   9.121   5.197  2.2663 -2.9701  0.1955
  493MOL0     H66551   6.472   9.385   5.535  1.2909 -0.0121 -0.0909
  493MOL0     H66552   7.218   9.116   5.260  0.5615 -0.5533  2.6006
  493MOL0     H66553   7.487   8.906   5.256 -1.0073 -1.9444 -0.4162
  493MOL0     H66554   7.446   8.914   5.081  1.1515  0.3652  0.7298
  493MOL0     H66555   7.420   9.063   5.176  1.8984 -0.3988 -0.1614
  494MOL0     O66556   6.478   3.701   1.878 -0.7185  0.3713 -0.2294
  494MOL0     C66557   6.531   3.602   1.931 -0.1344 -0.4460  0.4038
  494MOL0     O66558   6.546   3.578   2.059 -0.1508  0.5660  0.1576
  494MOL0     C66559   6.481   3.652   2.157  0.3891 -0.7663 -0.1728
  494MOL0     C66560   6.549   3.646   2.281 -0.0880 -0.7469 -1.5240
  494MOL0     C66561   6.477   3.697   2.393 -0.0387 -0.8331 -0.2405
  494MOL0     C66562   6.352   3.754   2.394  0.0452 -0.0207  0.7472
  494MOL0     O66563   6.285   3.808   2.501 -0.7687  0.2013  0.1544
  494MOL0     C66564   6.331   3.772   2.631 -0.4991  0.1222  0.5055
  494MOL0     C66565   6.325   3.623   2.666  0.0618  0.1738 -0.2177
  494MOL0     C66566   6.175   3.580   2.687  0.3775  1.2209  0.0990
  494MOL0     C66567   6.150   3.444   2.738  0.8916 -0.6798 -0.6345
  494MOL0     C66568   6.000   3.410   2.721 -0.7179 -0.7596 -1.3227
  494MOL0     C66569   5.967   3.274   2.779  0.2690  0.5284  0.2304
  494MOL0     C66570   5.936   3.277   2.922 -0.2814 -0.3406  0.1157
  494MOL0     C66571   5.945   3.139   2.981 -0.9458  0.3033  0.9147
  494MOL0     N66572   6.090   3.094   3.002  0.6330  0.4141 -0.1318
  494MOL0     C66573   6.184   3.158   3.084  0.0833  0.6428 -0.3879
  494MOL0     C66574   6.295   3.072   3.071 -0.7206  0.1613 -0.6623
  494MOL0     C66575   6.428   3.100   3.149  0.0909  0.9925  0.4626
  494MOL0     C66576   6.547   3.137   3.050 -0.7716 -1.8755  0.0137
  494MOL0     C66577   6.647   3.217   3.129 -1.0563 -0.5188  0.1575
  494MOL0     C66578   6.603   3.367   3.143  0.8852  0.8905  0.2254
  494MOL0     O66579   6.558   3.430   3.020 -1.5065  0.7077  0.8094
  494MOL0     C66580   6.650   3.427   2.924  0.5097 -0.3291  0.6125
  494MOL0     C66581   6.605   3.424   2.793  0.2338 -0.7205  0.4559
  494MOL0     C66582   6.686   3.422   2.681 -0.2934  0.5605  0.2760
  494MOL0     C66583   6.820   3.433   2.691  0.7103 -0.2888  0.2338
  494MOL0     C66584   6.897   3.410   2.570  0.0143  0.1088  0.0406
  494MOL0     O66585   6.833   3.435   2.452 -0.7726 -0.2002 -1.2074
  494MOL0     C66586   6.894   3.423   2.331  0.0417  0.8244 -0.7425
  494MOL0     C66587   7.024   3.469   2.307  0.3689 -0.9590  0.5807
  494MOL0     C66588   7.081   3.451   2.187 -0.0276  0.4714  0.3365
  494MOL0     C66589   7.015   3.381   2.082 -0.4278 -0.2340  0.0127
  494MOL0     O66590   7.085   3.353   1.966 -0.4530  0.2077  0.3104
  494MOL0     C66591   7.026   3.273   1.859 -0.9987  0.2724 -0.3371
  494MOL0     C66592   7.143   3.248   1.758 -0.3265  0.3682  0.3085
  494MOL0     C66593   7.261   3.357   1.771 -0.5241 -0.4198 -0.6113
  494MOL0     C66594   7.357   3.347   1.648  0.5590 -0.1728  0.0038
  494MOL0     C66595   7.448   3.468   1.638 -0.2844 -0.8756  0.0800
  494MOL0     C66596   7.551   3.463   1.744 -0.8298  0.2585 -0.2139
  494MOL0     C66597   7.682   3.522   1.713  0.0954 -0.1630 -0.2090
  494MOL0     C66598   7.663   3.679   1.686  0.4964  0.3361  0.2289
  494MOL0    Cl66599   7.814   3.759   1.745  0.4250  0.3882  0.1741
  494MOL0     C66600   6.883   3.341   2.105 -0.6553 -0.0268  0.4751
  494MOL0     C66601   6.829   3.353   2.229  0.1367 -0.5344 -0.1631
  494MOL0     O66602   7.016   3.361   2.578  1.1680 -0.0241  0.2460
  494MOL0     C66603   6.871   3.452   2.821 -0.3298  0.1191 -0.4680
  494MOL0     C66604   6.794   3.440   2.937 -0.1761  0.2307 -0.1266
  494MOL0     N66605   6.264   2.969   2.986  0.8295  0.1771 -0.4857
  494MOL0     N66606   6.141   2.984   2.944 -0.2423 -0.5161 -0.0001
  494MOL0     C66607   6.292   3.760   2.265 -0.1706  0.8078  0.1004
  494MOL0     C66608   6.352   3.708   2.148 -0.1435  0.6940 -0.0893
  494MOL0     C66609   6.581   3.503   1.836  1.0784  0.4073  0.1753
  494MOL0     C66610   6.577   3.370   1.876 -0.8885  0.3555  0.5121
  494MOL0     C66611   6.620   3.276   1.783  1.2142 -0.0872  0.0504
  494MOL0     C66612   6.667   3.308   1.659 -0.1358 -0.7205 -0.3519
  494MOL0     O66613   6.712   3.207   1.578 -0.1199  1.2156 -0.9298
  494MOL0     C66614   6.743   3.218   1.434  0.3295  0.5282  0.0159
  494MOL0     C66615   6.825   3.095   1.402 -0.5604  0.2851  1.3123
  494MOL0     C66616   6.973   3.112   1.409 -0.1248  0.7524  0.7606
  494MOL0     C66617   7.031   3.242   1.367 -0.5537  0.7570  0.4900
  494MOL0     C66618   7.033   3.253   1.221 -0.1179 -1.1196 -0.1841
  494MOL0     C66619   7.035   3.252   1.101  0.5856  0.2909 -0.8570
  494MOL0     C66620   6.684   3.441   1.629  0.3539 -0.4869 -0.4373
  494MOL0     C66621   6.640   3.544   1.716 -0.5813 -0.0842  0.0352
  494MOL0     C66622   6.693   3.696   1.682  0.1998  0.4376 -0.9251
  494MOL0     H66623   6.647   3.601   2.284  0.4183  0.3479 -1.0463
  494MOL0     H66624   6.534   3.713   2.484 -0.0087  1.2828 -0.5949
  494MOL0     H66625   6.432   3.812   2.647  0.2085 -0.6845 -1.5779
  494MOL0     H66626   6.269   3.827   2.703  2.5008 -1.1367  4.3686
  494MOL0     H66627   6.392   3.586   2.744 -2.8359 -2.6676  1.1948
  494MOL0     H66628   6.344   3.572   2.571  0.1411  2.8494 -1.7084
  494MOL0     H66629   6.141   3.572   2.584  2.9881 -0.9921 -0.7097
  494MOL0     H66630   6.119   3.657   2.741 -0.3705  1.0382 -0.4090
  494MOL0     H66631   6.206   3.371   2.678 -1.3157 -2.2932 -0.8699
  494MOL0     H66632   6.176   3.421   2.842  1.5503  1.0346 -0.3930
  494MOL0     H66633   5.947   3.484   2.783 -0.9494 -1.3255 -0.8393
  494MOL0     H66634   5.965   3.437   2.621 -1.7166 -2.2298 -1.3924
  494MOL0     H66635   5.883   3.237   2.719 -1.9668  0.6642  3.0725
  494MOL0     H66636   6.055   3.210   2.767  0.4203  0.4931  1.3943
  494MOL0     H66637   5.828   3.295   2.918 -0.4871 -0.8630  2.1951
  494MOL0     H66638   5.998   3.344   2.982 -3.2694  1.5149  1.3833
  494MOL0     H66639   5.889   3.145   3.074 -1.2244  1.0983  0.7117
  494MOL0     H66640   5.896   3.064   2.919 -0.6099  1.0005 -0.2305
  494MOL0     H66641   6.173   3.250   3.142 -2.6725  1.2399 -1.7028
  494MOL0     H66642   6.400   3.180   3.219 -2.2854  0.5903  0.0426
  494MOL0     H66643   6.459   3.012   3.206  0.5409  1.4588  0.9601
  494MOL0     H66644   6.605   3.049   3.020  1.7471 -0.2073 -0.2812
  494MOL0     H66645   6.509   3.196   2.966  1.6022 -3.8859 -2.6738
  494MOL0     H66646   6.746   3.229   3.084 -0.1243  0.0790  2.2593
  494MOL0     H66647   6.666   3.179   3.230  0.4236  1.2767  0.6082
  494MOL0     H66648   6.682   3.433   3.178  0.5713  2.8601 -2.4861
  494MOL0     H66649   6.508   3.376   3.198 -0.3239  1.6541 -1.8716
  494MOL0     H66650   6.497   3.427   2.789  0.1124  3.3486  2.0348
  494MOL0     H66651   6.635   3.415   2.585 -0.2752  1.5601  0.1800
  494MOL0     H66652   7.077   3.511   2.393  0.1738 -0.9644  0.7036
  494MOL0     H66653   7.188   3.468   2.177 -0.0328 -0.2814 -1.5401
  494MOL0     H66654   6.991   3.178   1.900  1.9311 -0.6768  0.1741
  494MOL0     H66655   6.949   3.334   1.810 -1.8026  1.2645  2.0213
  494MOL0     H66656   7.184   3.147   1.768  0.7367  0.9522  2.2748
  494MOL0     H66657   7.101   3.247   1.656 -0.4692  2.3917  0.3146
  494MOL0     H66658   7.221   3.458   1.783  1.9117  0.5475 -0.0176
  494MOL0     H66659   7.323   3.336   1.858  1.2287 -0.1856 -1.7484
  494MOL0     H66660   7.290   3.340   1.562  0.6238  1.2341 -0.1801
  494MOL0     H66661   7.423   3.261   1.661  1.5961  0.8370  1.9381
  494MOL0     H66662   7.395   3.564   1.639  0.4764 -0.4291 -0.7814
  494MOL0     H66663   7.491   3.464   1.538  2.9193  1.6799  1.1554
  494MOL0     H66664   7.505   3.509   1.832 -0.0078  1.6054 -0.4575
  494MOL0     H66665   7.582   3.360   1.761  0.5709  0.9905  2.1384
  494MOL0     H66666   7.737   3.476   1.630  2.8841 -0.8512  1.8576
  494MOL0     H66667   7.755   3.523   1.794  2.8179 -0.4946 -2.4841
  494MOL0     H66668   7.649   3.700   1.579  0.6302 -0.7682 -0.0184
  494MOL0     H66669   7.577   3.720   1.739  0.7163 -1.1039  1.7802
  494MOL0     H66670   6.822   3.291   2.031  0.1585  0.1198 -0.3134
  494MOL0     H66671   6.728   3.314   2.242  0.5459 -2.0002 -1.1769
  494MOL0     H66672   6.978   3.465   2.835  0.1286 -3.9126  0.9299
  494MOL0     H66673   6.840   3.457   3.033 -1.1740 -0.7941  0.5572
  494MOL0     H66674   6.190   3.796   2.259  0.2402  1.7820 -1.9502
  494MOL0     H66675   6.292   3.702   2.058  1.3883  1.0949 -1.1803
  494MOL0     H66676   6.533   3.323   1.963 -2.0289 -0.6537 -0.5638
  494MOL0     H66677   6.601   3.172   1.805  2.2019 -1.2576 -3.7783
  494MOL0     H66678   6.790   3.313   1.406 -0.6713  1.0811  0.1829
  494MOL0     H66679   6.653   3.212   1.373 -0.7801  1.5061  1.4801
  494MOL0     H66680   6.810   3.073   1.296  1.1061  1.5133  0.7866
  494MOL0     H66681   6.777   3.007   1.448 -1.2593 -1.1429 -1.8841
  494MOL0     H66682   7.018   3.037   1.343  0.7560  1.7510  0.1972
  494MOL0     H66683   7.008   3.099   1.512  3.0685  4.7705  0.4313
  494MOL0     H66684   6.987   3.327   1.418 -0.8152 -0.5765  2.5864
  494MOL0     H66685   7.136   3.236   1.398 -0.3883  1.2456  0.0457
  494MOL0     H66686   7.061   3.227   1.000  0.6455 -1.0074 -0.5385
  494MOL0     H66687   6.714   3.463   1.527 -0.7235  1.5025 -0.3776
  494MOL0     H66688   6.612   3.748   1.630 -0.5513  0.7000  0.4432
  494MOL0     H66689   6.728   3.755   1.767  1.8082 -0.4713 -0.9238
  494MOL0     H66690   6.778   3.685   1.614  0.0542 -2.0996 -0.7818
  495MOL0     O66691   5.600   1.758   2.563 -0.2251  0.3885 -0.9941
  495MOL0     C66692   5.534   1.669   2.508 -0.8551  0.4181  0.7161
  495MOL0     O66693   5.462   1.685   2.392 -0.1906  0.6660  0.7907
  495MOL0     C66694   5.497   1.778   2.302  0.3657  0.7015 -0.3452
  495MOL0     C66695   5.401   1.845   2.230 -0.2531 -0.8797 -1.3819
  495MOL0     C66696   5.426   1.928   2.120 -0.5903 -0.0607 -1.0613
  495MOL0     C66697   5.550   1.951   2.075 -1.3131  0.6306  0.7851
  495MOL0     O66698   5.588   2.036   1.975 -0.4660 -0.1137 -0.0157
  495MOL0     C66699   5.484   2.092   1.901 -0.2115 -0.7416  0.2439
  495MOL0     C66700   5.546   2.172   1.790  0.5639  0.7179  0.6360
  495MOL0     C66701   5.667   2.268   1.837 -0.0810  0.2204  0.4978
  495MOL0     C66702   5.665   2.402   1.754 -0.2397 -0.3611  0.7231
  495MOL0     C66703   5.664   2.374   1.605 -0.7871 -0.0301  0.0503
  495MOL0     C66704   5.796   2.312   1.564 -0.7540  0.6270  0.2753
  495MOL0     C66705   5.794   2.301   1.403  0.8869  0.5086 -0.9747
  495MOL0     C66706   5.793   2.427   1.314  0.7837 -0.7929  0.5461
  495MOL0     N66707   5.848   2.410   1.182  0.5509  0.4286 -0.3480
  495MOL0     C66708   5.976   2.376   1.147  0.2434 -0.1168  0.9267
  495MOL0     C66709   5.982   2.370   1.009 -0.4258  0.2670 -0.3304
  495MOL0     C66710   6.108   2.345   0.938 -0.5203  1.2128  0.8009
  495MOL0     C66711   6.212   2.456   0.982 -1.0292 -0.2501  0.8827
  495MOL0     C66712   6.318   2.483   0.879 -0.8801  0.3002 -0.4933
  495MOL0     C66713   6.413   2.590   0.921  0.4473  0.7027  1.1320
  495MOL0     O66714   6.458   2.658   0.796  0.0917  0.2073 -1.1497
  495MOL0     C66715   6.372   2.745   0.735 -0.1980  0.0540  0.5945
  495MOL0     C66716   6.336   2.720   0.604 -1.0186  0.7076  0.3340
  495MOL0     C66717   6.230   2.798   0.548 -0.1771 -0.2055 -1.1428
  495MOL0     C66718   6.178   2.910   0.616  0.8212  0.3372  0.4758
  495MOL0     C66719   6.091   3.001   0.535  0.0106 -0.4255 -0.5779
  495MOL0     O66720   6.064   2.969   0.408  0.3563  0.4493 -0.4470
  495MOL0     C66721   5.960   3.023   0.344 -0.2832 -0.2005  0.3410
  495MOL0     C66722   5.832   3.010   0.382 -0.3511 -0.0580  0.8625
  495MOL0     C66723   5.720   3.061   0.323 -0.8264 -0.2463  0.1007
  495MOL0     C66724   5.737   3.139   0.203 -1.1154 -1.1935  0.1757
  495MOL0     O66725   5.642   3.208   0.126 -0.4448  0.3247 -0.3944
  495MOL0     C66726   5.500   3.181   0.148 -0.0701  0.2947 -0.7317
  495MOL0     C66727   5.465   3.054   0.065 -0.0209  0.2650 -0.0285
  495MOL0     C66728   5.528   3.034  -0.075 -0.9279  0.1046 -0.6651
  495MOL0     C66729   5.429   2.982  -0.179  0.0034  0.6868  0.0921
  495MOL0     C66730   5.377   3.104  -0.259 -0.7604 -0.3935  0.3077
  495MOL0     C66731   5.363   3.060  -0.408  0.0438 -0.0120  1.0727
  495MOL0     C66732   5.347   3.188  -0.491  0.1527 -0.2786 -0.0724
  495MOL0     C66733   5.323   3.150  -0.627 -0.0797 -0.0085  1.3660
  495MOL0    Cl66734   5.283   3.295  -0.730 -0.1767  0.0426 -0.0063
  495MOL0     C66735   5.870   3.153   0.154 -0.6132 -0.7269  0.0057
  495MOL0     C66736   5.981   3.097   0.226  0.5123  0.0066 -0.1398
  495MOL0     O66737   6.027   3.083   0.595 -0.2039  0.5280 -0.3769
  495MOL0     C66738   6.222   2.933   0.745  0.2194  0.3262 -0.9835
  495MOL0     C66739   6.318   2.857   0.804 -0.3822 -0.1487  0.0895
  495MOL0     N66740   5.858   2.407   0.964  0.1083 -0.0235  0.5792
  495MOL0     N66741   5.776   2.428   1.065 -0.2524 -0.0631  0.4255
  495MOL0     C66742   5.657   1.895   2.148  0.4976 -0.2638 -0.5243
  495MOL0     C66743   5.628   1.807   2.264  0.6670  0.1751  0.7006
  495MOL0     C66744   5.517   1.544   2.578 -0.7901 -0.1580 -0.3754
  495MOL0     C66745   5.418   1.449   2.547  0.3141 -0.2848  0.3734
  495MOL0     C66746   5.394   1.339   2.628  0.7239  0.8663  0.0473
  495MOL0     C66747   5.484   1.297   2.726 -0.2155 -0.9214 -0.0545
  495MOL0     O66748   5.486   1.178   2.787  0.1985 -0.0566  0.0581
  495MOL0     C66749   5.408   1.063   2.735  0.1759 -0.6263  0.7283
  495MOL0     C66750   5.404   0.945   2.829 -1.3326  0.6618 -0.6769
  495MOL0     C66751   5.545   0.885   2.858  0.5286  0.0193 -0.7664
  495MOL0     C66752   5.549   0.819   2.990 -0.2728 -0.6026 -0.3523
  495MOL0     C66753   5.495   0.679   2.968 -0.8699  0.6633  0.2970
  495MOL0     C66754   5.455   0.567   2.932 -0.8687 -0.9049 -0.0424
  495MOL0     C66755   5.588   1.376   2.753  0.1681 -0.9018 -0.0712
  495MOL0     C66756   5.608   1.494   2.684 -0.8058  0.0386  0.9180
  495MOL0     C66757   5.747   1.558   2.716  0.3440  1.0537 -0.1526
  495MOL0     H66758   5.299   1.831   2.264  0.0315  2.1591  1.1679
  495MOL0     H66759   5.345   1.980   2.070 -2.2676 -1.0852  0.4501
  495MOL0     H66760   5.426   2.016   1.849  0.6097  1.1578 -3.9657
  495MOL0     H66761   5.432   2.163   1.965  0.5381 -0.1430  0.2091
  495MOL0     H66762   5.472   2.237   1.744 -1.0719 -1.8821 -0.6182
  495MOL0     H66763   5.586   2.106   1.712  1.2721 -0.5359  1.9933
  495MOL0     H66764   5.760   2.215   1.816 -0.3703 -0.1442  0.1216
  495MOL0     H66765   5.651   2.295   1.942 -2.4269  3.9915 -0.6301
  495MOL0     H66766   5.579   2.464   1.781 -0.4191 -0.8705  1.3300
  495MOL0     H66767   5.755   2.461   1.776  1.9585 -3.0679 -0.3955
  495MOL0     H66768   5.576   2.318   1.573 -1.7205  0.8886  0.9097
  495MOL0     H66769   5.644   2.467   1.551  0.5908  0.3908  0.2349
  495MOL0     H66770   5.881   2.366   1.606  0.0315 -1.4940  1.5911
  495MOL0     H66771   5.807   2.210   1.601  1.5029  1.3512  1.8625
  495MOL0     H66772   5.705   2.246   1.372  0.2760  0.2407  1.1007
  495MOL0     H66773   5.875   2.233   1.377 -0.6442 -1.0920 -1.7915
  495MOL0     H66774   5.691   2.467   1.308  0.6395 -1.2647 -0.3626
  495MOL0     H66775   5.852   2.507   1.359  1.1029 -0.8164  0.1764
  495MOL0     H66776   6.058   2.360   1.216 -0.4637 -1.8818  1.4249
  495MOL0     H66777   6.116   2.242   0.975 -2.7060  0.2772 -1.0920
  495MOL0     H66778   6.090   2.348   0.831 -1.8272  2.1687  1.0300
  495MOL0     H66779   6.164   2.550   1.009 -2.2061  0.1338 -2.1274
  495MOL0     H66780   6.264   2.415   1.069 -1.0465  0.4929  1.2465
  495MOL0     H66781   6.253   2.510   0.795 -2.1670 -3.8783 -1.0731
  495MOL0     H66782   6.381   2.395   0.861  1.1081  0.5623  3.8676
  495MOL0     H66783   6.491   2.545   0.982 -0.0327  1.9714  2.7371
  495MOL0     H66784   6.362   2.659   0.988  0.2016  0.2956  1.3637
  495MOL0     H66785   6.382   2.635   0.555  0.4559  1.3672  0.5155
  495MOL0     H66786   6.209   2.783   0.443 -1.0510  0.0600 -1.0089
  495MOL0     H66787   5.808   2.958   0.474  0.2234 -2.6620 -0.3866
  495MOL0     H66788   5.628   3.045   0.379 -1.8581 -0.8492 -1.6768
  495MOL0     H66789   5.480   3.170   0.255 -0.1851  1.4836 -0.6174
  495MOL0     H66790   5.439   3.267   0.120 -0.3504  0.9060  1.5525
  495MOL0     H66791   5.486   2.970   0.131  0.6421  0.7683  0.4229
  495MOL0     H66792   5.356   3.055   0.058 -0.3351 -2.3244  2.7762
  495MOL0     H66793   5.578   3.126  -0.107  2.6144 -1.3200  0.1904
  495MOL0     H66794   5.604   2.959  -0.051 -1.0253  1.1782  3.6701
  495MOL0     H66795   5.340   2.925  -0.149  1.9107 -2.5115  0.1809
  495MOL0     H66796   5.487   2.914  -0.243 -4.8760 -1.5068 -2.5711
  495MOL0     H66797   5.453   3.183  -0.260 -1.1192 -0.0361  0.8442
  495MOL0     H66798   5.285   3.146  -0.217 -3.3961 -2.9847 -2.4251
  495MOL0     H66799   5.452   3.003  -0.432 -0.2762 -0.0862 -0.0000
  495MOL0     H66800   5.273   3.003  -0.433 -1.4385  3.4538 -2.7717
  495MOL0     H66801   5.445   3.235  -0.481  0.5075 -1.2334  1.1236
  495MOL0     H66802   5.263   3.247  -0.452  0.6891  1.9467 -2.0837
  495MOL0     H66803   5.419   3.115  -0.666 -1.1178 -1.4212 -0.0018
  495MOL0     H66804   5.243   3.079  -0.646 -1.9109  2.8469 -2.9825
  495MOL0     H66805   5.896   3.219   0.072  0.9550 -3.3999 -1.8023
  495MOL0     H66806   6.087   3.108   0.205  1.0858 -0.1838  2.4082
  495MOL0     H66807   6.183   3.019   0.800 -4.8427 -2.0192 -0.3223
  495MOL0     H66808   6.340   2.885   0.907 -1.7404 -1.5281  0.7932
  495MOL0     H66809   5.755   1.923   2.112 -1.5173  2.8428 -4.4313
  495MOL0     H66810   5.712   1.778   2.327 -0.9451 -2.7002  1.7144
  495MOL0     H66811   5.354   1.468   2.461  0.7932  2.1605  0.4889
  495MOL0     H66812   5.312   1.269   2.618  2.1527 -1.8138  4.3314
  495MOL0     H66813   5.462   1.038   2.643  1.7824  0.3126  1.3700
  495MOL0     H66814   5.302   1.077   2.714 -0.2153 -1.6145  1.9653
  495MOL0     H66815   5.347   0.861   2.786  0.3800 -1.9397  1.7870
  495MOL0     H66816   5.345   0.965   2.919 -0.8487  1.1430 -0.4651
  495MOL0     H66817   5.627   0.957   2.869  0.8967 -0.0107 -2.8682
  495MOL0     H66818   5.574   0.836   2.764  0.6361  0.8705 -1.1895
  495MOL0     H66819   5.650   0.814   3.032 -0.7351 -2.8805  0.6382
  495MOL0     H66820   5.480   0.857   3.065 -1.0616 -0.9792 -0.8794
  495MOL0     H66821   5.418   0.474   2.893  1.6740 -2.1908  0.3924
  495MOL0     H66822   5.671   1.348   2.818 -0.7964 -1.4152  0.9704
  495MOL0     H66823   5.782   1.624   2.636  0.8771 -0.9486 -1.6633
  495MOL0     H66824   5.743   1.588   2.821 -0.4215 -0.8266  0.4014
  495MOL0     H66825   5.830   1.487   2.710  0.4200  1.1450 -0.1927
  496MOL0     O66826   8.563   6.746   9.381  0.4459  0.7318 -0.6788
  496MOL0     C66827   8.565   6.667   9.283 -0.0751 -1.0737 -0.2035
  496MOL0     O66828   8.456   6.599   9.241 -0.8100 -0.9219 -0.4754
  496MOL0     C66829   8.348   6.607   9.311 -0.5410  0.1223 -0.1589
  496MOL0     C66830   8.337   6.525   9.424  0.0959 -0.0584  0.0696
  496MOL0     C66831   8.225   6.547   9.517 -0.2905  0.0483  0.8263
  496MOL0     C66832   8.133   6.657   9.484 -0.2253  0.6088 -0.4700
  496MOL0     O66833   8.027   6.692   9.562  0.3836 -0.4393  0.0739
  496MOL0     C66834   8.017   6.640   9.698 -0.5031  0.4307  0.9029
  496MOL0     C66835   7.959   6.755   9.774 -0.3412  0.1625 -0.1755
  496MOL0     C66836   7.897   6.712   9.905 -0.5994 -0.7930 -0.3958
  496MOL0     C66837   7.980   6.627   9.998 -0.2921 -0.4749 -0.1971
  496MOL0     C66838   7.910   6.617  10.134 -0.2408 -0.2088 -0.3214
  496MOL0     C66839   8.006   6.545  10.237  1.0131  0.7634 -0.1213
  496MOL0     C66840   7.971   6.566  10.385 -0.2840  0.2953 -0.5993
  496MOL0     C66841   7.827   6.525  10.413  0.0819 -0.4025 -0.1845
  496MOL0     N66842   7.730   6.638  10.413  0.6303  0.7554  1.2614
  496MOL0     C66843   7.636   6.654  10.311 -0.1646  0.7215  0.7325
  496MOL0     C66844   7.558   6.753  10.362  0.2332 -0.7850  0.5833
  496MOL0     C66845   7.426   6.793  10.308  0.0163 -0.5810  0.5866
  496MOL0     C66846   7.436   6.946  10.279  0.2823  0.7755 -0.3257
  496MOL0     C66847   7.557   6.989  10.203 -0.6298  0.8217 -0.2071
  496MOL0     C66848   7.544   7.134  10.162  0.4026  0.1469 -0.3047
  496MOL0     O66849   7.541   7.220  10.280  0.4316 -0.2187 -0.5257
  496MOL0     C66850   7.545   7.355  10.268 -0.4116  0.3761  0.6020
  496MOL0     C66851   7.506   7.427  10.377  0.8236 -0.4151  0.3092
  496MOL0     C66852   7.487   7.561  10.380 -0.0335  0.4218 -0.7256
  496MOL0     C66853   7.532   7.644  10.282 -0.7959  0.4523  0.7558
  496MOL0     C66854   7.531   7.788  10.302  0.2302 -0.0059  0.5985
  496MOL0     O66855   7.595   7.863  10.207 -0.4040 -0.3833 -0.3622
  496MOL0     C66856   7.587   7.997  10.204  0.4152 -0.3059  0.1247
  496MOL0     C66857   7.473   8.071  10.238 -0.5199 -0.0134 -0.3438
  496MOL0     C66858   7.470   8.206  10.222 -0.4648  0.6825  0.0061
  496MOL0     C66859   7.588   8.283  10.181  0.5004 -0.3105 -0.2652
  496MOL0     O66860   7.581   8.414  10.151  0.3715 -0.1355  0.1855
  496MOL0     C66861   7.465   8.485  10.163 -0.8821  0.2824  0.1186
  496MOL0     C66862   7.434   8.529  10.306 -0.7990 -0.3649 -0.3793
  496MOL0     C66863   7.542   8.629  10.358 -0.4288 -0.0112  0.2111
  496MOL0     C66864   7.524   8.638  10.508 -0.4435  0.3923 -0.0271
  496MOL0     C66865   7.618   8.727  10.584 -0.7922 -0.1593  0.6624
  496MOL0     C66866   7.761   8.702  10.539  0.8993  0.6800 -0.4542
  496MOL0     C66867   7.857   8.749  10.645  0.3151  0.5651 -0.6376
  496MOL0     C66868   7.878   8.895  10.633  0.0046  0.0745 -0.3903
  496MOL0    Cl66869   7.756   8.985  10.725 -0.2176  0.4377  0.1413
  496MOL0     C66870   7.694   8.208  10.133  0.2140 -0.1902 -0.2079
  496MOL0     C66871   7.695   8.068  10.143  0.0874  0.3015 -0.4277
  496MOL0     O66872   7.483   7.830  10.410  0.3929  0.7958 -0.2637
  496MOL0     C66873   7.590   7.576  10.171 -0.4553  0.3444  0.1350
  496MOL0     C66874   7.603   7.431  10.157 -0.0204 -0.1997 -0.6500
  496MOL0     N66875   7.602   6.791  10.484  0.1539 -0.1234 -0.0079
  496MOL0     N66876   7.710   6.720  10.519  0.0658  0.0326 -0.0174
  496MOL0     C66877   8.145   6.724   9.368  0.3571  0.0566 -0.0666
  496MOL0     C66878   8.253   6.695   9.281 -0.8850  0.4435  0.7327
  496MOL0     C66879   8.703   6.624   9.231 -0.2034  0.7888  0.3536
  496MOL0     C66880   8.808   6.700   9.267 -0.1862  0.0888  0.0655
  496MOL0     C66881   8.942   6.680   9.227  0.1451 -1.0044  0.4908
  496MOL0     C66882   8.980   6.575   9.145 -0.3144 -0.2094 -0.3898
  496MOL0     O66883   9.112   6.543   9.102 -0.0971  0.5376  0.7219
  496MOL0     C66884   9.221   6.616   9.153  0.0902  0.6024  0.2262
  496MOL0     C66885   9.334   6.517   9.185  0.3147 -0.3883  0.9526
  496MOL0     C66886   9.355   6.403   9.079 -1.0433 -0.2835 -0.5567
  496MOL0     C66887   9.406   6.459   8.948  0.2702  1.2458  0.5479
  496MOL0     C66888   9.520   6.559   8.953  1.2676  0.0173 -0.0699
  496MOL0     C66889   9.593   6.655   8.937 -0.0284 -0.0788  0.5205
  496MOL0     C66890   8.876   6.487   9.121  1.2406 -0.2110 -0.5752
  496MOL0     C66891   8.739   6.511   9.166  0.0345 -1.7684 -1.3631
  496MOL0     C66892   8.650   6.386   9.149 -0.7943 -0.3173 -1.5825
  496MOL0     H66893   8.412   6.452   9.455  2.1885  1.5903 -0.8862
  496MOL0     H66894   8.217   6.498   9.614  2.2163  0.8290  1.5245
  496MOL0     H66895   7.944   6.562   9.720 -0.8525  1.2023  2.6576
  496MOL0     H66896   8.118   6.616   9.734  0.1201 -2.4676 -2.3190
  496MOL0     H66897   7.888   6.818   9.720 -2.4238 -1.7000  0.2692
  496MOL0     H66898   8.044   6.822   9.790  1.3517 -2.1827  1.4067
  496MOL0     H66899   7.807   6.654   9.883 -1.0819 -0.7814  1.3827
  496MOL0     H66900   7.867   6.802   9.960  2.2516 -0.9905  1.6821
  496MOL0     H66901   8.002   6.538   9.940 -1.4351  0.1278 -1.6142
  496MOL0     H66902   8.071   6.684  10.022  0.3710 -1.6547  0.1729
  496MOL0     H66903   7.891   6.720  10.165  2.5796  0.4715 -0.5744
  496MOL0     H66904   7.809   6.576  10.137 -0.2863 -0.0607  1.5140
  496MOL0     H66905   8.016   6.440  10.208  1.6508  1.5667 -3.1023
  496MOL0     H66906   8.104   6.593  10.229  0.4959  2.2872  1.9160
  496MOL0     H66907   7.991   6.670  10.410  0.7248 -0.4293  1.9779
  496MOL0     H66908   8.035   6.496  10.441  2.1162  0.1905 -3.1983
  496MOL0     H66909   7.798   6.461  10.330 -3.5908  1.4095 -0.5042
  496MOL0     H66910   7.822   6.476  10.510 -2.0674 -0.4318 -0.2615
  496MOL0     H66911   7.628   6.597  10.219  2.7117  0.2771  0.6690
  496MOL0     H66912   7.405   6.738  10.216  0.5594 -0.9776  0.6929
  496MOL0     H66913   7.347   6.779  10.381 -0.2691 -1.9294  0.0464
  496MOL0     H66914   7.344   6.970  10.225 -1.9246  2.7775  3.8291
  496MOL0     H66915   7.431   6.995  10.376 -1.9586 -1.1192  0.6384
  496MOL0     H66916   7.563   6.929  10.112 -5.9507 -0.1521 -0.2406
  496MOL0     H66917   7.655   6.986  10.252 -0.4957  2.0381 -0.3700
  496MOL0     H66918   7.464   7.163  10.093 -0.3884  2.2308  1.3527
  496MOL0     H66919   7.640   7.153  10.113  0.1868  0.4059 -0.6282
  496MOL0     H66920   7.480   7.373  10.468  2.0709 -2.0149 -0.2467
  496MOL0     H66921   7.454   7.610  10.471  2.5503 -1.0449  1.1487
  496MOL0     H66922   7.384   8.018  10.271 -0.5879  1.0903  1.4237
  496MOL0     H66923   7.372   8.248  10.244 -1.9239 -2.4318 -0.1179
  496MOL0     H66924   7.483   8.569  10.095  0.3192 -0.5133 -0.5806
  496MOL0     H66925   7.382   8.434  10.114 -1.8522  1.8821  0.0153
  496MOL0     H66926   7.335   8.576  10.312 -0.1074  1.0646  0.1354
  496MOL0     H66927   7.435   8.439  10.369 -3.3226 -0.2877 -0.1079
  496MOL0     H66928   7.639   8.592  10.323  0.2099  2.4961 -0.8540
  496MOL0     H66929   7.527   8.727  10.312  1.2276 -0.3006 -1.0650
  496MOL0     H66930   7.533   8.543  10.562  0.2742  1.1051  1.1696
  496MOL0     H66931   7.425   8.678  10.531 -0.0128  0.4851  1.8239
  496MOL0     H66932   7.606   8.696  10.688  0.7876  0.5057  1.0681
  496MOL0     H66933   7.595   8.833  10.573 -0.3322 -0.0413  0.7987
  496MOL0     H66934   7.770   8.593  10.529 -0.3407  0.4423  0.6341
  496MOL0     H66935   7.797   8.741  10.444  1.6889  1.8901  0.3215
  496MOL0     H66936   7.955   8.700  10.641  0.9953  1.9054 -0.9592
  496MOL0     H66937   7.821   8.722  10.745  0.4419  0.8409 -0.5160
  496MOL0     H66938   7.971   8.940  10.669  0.3944 -2.4433  2.0941
  496MOL0     H66939   7.871   8.923  10.528 -0.9104  0.4709 -0.2349
  496MOL0     H66940   7.781   8.253  10.087 -1.6642  2.4350 -1.4810
  496MOL0     H66941   7.779   8.026  10.088  1.3968  2.4793 -0.2073
  496MOL0     H66942   7.637   7.633  10.091 -0.8632 -3.4898 -3.1742
  496MOL0     H66943   7.664   7.393  10.077  2.2555  2.7298 -0.4632
  496MOL0     H66944   8.078   6.795   9.322  0.7596 -0.3178 -1.2574
  496MOL0     H66945   8.263   6.754   9.191  2.5879 -0.7174  0.2175
  496MOL0     H66946   8.790   6.787   9.329 -4.2916  0.6582 -1.5871
  496MOL0     H66947   9.013   6.759   9.251  0.1604 -0.1534 -2.0408
  496MOL0     H66948   9.214   6.677   9.243 -0.4468 -0.5492  0.9886
  496MOL0     H66949   9.257   6.681   9.073  0.9910 -3.1832 -2.7353
  496MOL0     H66950   9.316   6.470   9.282 -2.1726 -0.8891  0.3279
  496MOL0     H66951   9.425   6.576   9.198  0.7623 -0.6231 -0.8452
  496MOL0     H66952   9.258   6.355   9.064 -0.0742 -2.3544 -0.6672
  496MOL0     H66953   9.425   6.324   9.110 -0.5235  0.1061 -0.7233
  496MOL0     H66954   9.442   6.372   8.891 -1.9629 -1.7098  3.2869
  496MOL0     H66955   9.314   6.493   8.900 -0.1663 -0.4582  0.1013
  496MOL0     H66956   9.655   6.740   8.914  0.4138 -0.4169  0.4458
  496MOL0     H66957   8.888   6.394   9.067  0.3518 -0.6782  0.0064
  496MOL0     H66958   8.620   6.358   9.250  3.7289 -0.3361 -0.0334
  496MOL0     H66959   8.567   6.409   9.082 -0.5297  2.5371 -1.0533
  496MOL0     H66960   8.704   6.303   9.103 -0.5217 -0.1446 -1.5787
  497MOL0     O66961   8.753   9.334   8.740 -0.1136  0.4737  0.4485
  497MOL0     C66962   8.775   9.274   8.842 -0.8615  0.4284 -0.0918
  497MOL0     O66963   8.678   9.212   8.927  0.1201  0.3911 -0.5482
  497MOL0     C66964   8.540   9.223   8.902 -0.3271  0.1845 -0.2616
  497MOL0     C66965   8.459   9.261   9.013 -0.2085  0.9391 -0.1293
  497MOL0     C66966   8.317   9.259   9.005 -0.2410  0.2459 -0.3010
  497MOL0     C66967   8.253   9.215   8.885  0.0785  0.7137 -0.0587
  497MOL0     O66968   8.119   9.202   8.884  0.1592  0.5992 -0.2891
  497MOL0     C66969   8.050   9.148   8.772  0.4545  0.7940  0.8120
  497MOL0     C66970   8.004   9.270   8.688  0.6436 -0.2645 -0.6850
  497MOL0     C66971   7.912   9.370   8.766  0.4053  0.2293 -0.2295
  497MOL0     C66972   7.805   9.308   8.855  0.4630  0.8695 -0.0376
  497MOL0     C66973   7.734   9.413   8.945  0.5816 -0.2783  0.0005
  497MOL0     C66974   7.815   9.472   9.057 -0.5298  0.1627 -0.5208
  497MOL0     C66975   7.858   9.365   9.160 -0.3767  0.0196  0.4789
  497MOL0     C66976   7.902   9.433   9.286 -1.0848 -0.4353 -0.1237
  497MOL0     N66977   8.013   9.529   9.273  0.2592  0.2385 -0.0749
  497MOL0     C66978   8.002   9.667   9.303 -0.5619  0.0012 -0.4831
  497MOL0     C66979   8.125   9.710   9.275 -0.4009 -0.3376 -0.0774
  497MOL0     C66980   8.166   9.852   9.309  0.0928  0.0869  0.0660
  497MOL0     C66981   8.190   9.866   9.459 -0.1644  0.0142  0.8436
  497MOL0     C66982   8.292   9.769   9.529  0.4862 -0.5464  0.7107
  497MOL0     C66983   8.436   9.812   9.505 -0.9402  0.3283 -0.2446
  497MOL0     O66984   8.445   9.948   9.541 -0.8491 -0.1554 -0.3362
  497MOL0     C66985   8.563  10.022   9.521 -0.7167 -0.3708  0.2259
  497MOL0     C66986   8.576  10.153   9.556  0.2276  0.0735 -0.2751
  497MOL0     C66987   8.698  10.215   9.546 -0.6411 -0.3453 -0.4670
  497MOL0     C66988   8.808  10.169   9.480 -0.6113  0.5269  0.0227
  497MOL0     C66989   8.933  10.237   9.463 -0.9803 -0.1389  0.2845
  497MOL0     O66990   8.942  10.370   9.518  0.6203 -0.0480  0.4936
  497MOL0     C66991   9.075  10.423   9.524  0.7762  0.9154  0.2137
  497MOL0     C66992   9.184  10.387   9.604  0.0230 -0.3392  0.6102
  497MOL0     C66993   9.306  10.455   9.597 -0.7167  0.6940 -0.3586
  497MOL0     C66994   9.332  10.562   9.502  0.4848  0.8381  0.3562
  497MOL0     O66995   9.461  10.610   9.480  0.3500 -0.0650  0.3609
  497MOL0     C66996   9.500  10.639   9.353  0.6037  0.8939  0.4191
  497MOL0     C66997   9.648  10.625   9.328  0.0890  0.1109 -0.7811
  497MOL0     C66998   9.704  10.477   9.347 -1.2397 -0.4104 -0.6875
  497MOL0     C66999   9.855  10.462   9.340  0.2367 -0.5118  0.2606
  497MOL0     C67000   9.908  10.335   9.419 -0.4344 -0.4928  0.1040
  497MOL0     C67001  10.064  10.326   9.401  0.5989  1.3858  0.3072
  497MOL0     C67002  10.130  10.195   9.426  0.2705 -0.3497  0.2200
  497MOL0     C67003  10.279  10.203   9.442 -0.2924  0.3174  0.9910
  497MOL0    Cl67004  10.355  10.319   9.319  0.1913 -0.2351 -0.0717
  497MOL0     C67005   9.218  10.594   9.421 -0.4990 -0.1735  0.0738
  497MOL0     C67006   9.092  10.528   9.438 -0.4993  0.4312 -0.1907
  497MOL0     O67007   9.028  10.180   9.414 -0.5249  0.0463  0.1895
  497MOL0     C67008   8.796  10.042   9.428 -0.4283  0.4070 -0.8641
  497MOL0     C67009   8.680   9.962   9.454 -0.0221 -0.8701  0.3203
  497MOL0     N67010   8.203   9.606   9.232  0.3583 -0.2277  0.1524
  497MOL0     N67011   8.132   9.495   9.231  0.0782  0.5246 -0.6746
  497MOL0     C67012   8.336   9.188   8.772  0.2137  0.5440  0.3169
  497MOL0     C67013   8.472   9.205   8.783  0.2545  0.2945 -0.3176
  497MOL0     C67014   8.915   9.278   8.893  0.0298  0.0618  0.0704
  497MOL0     C67015   8.953   9.185   8.990  1.2776  0.3909 -0.5175
  497MOL0     C67016   9.077   9.183   9.048 -0.3025  0.9519  0.8091
  497MOL0     C67017   9.175   9.281   9.020 -0.1845 -0.4313 -0.1065
  497MOL0     O67018   9.301   9.263   9.093  0.4586 -0.3154 -0.0395
  497MOL0     C67019   9.401   9.368   9.075 -0.5195  0.8826  0.4234
  497MOL0     C67020   9.350   9.493   9.146 -0.0818 -0.8743 -0.8772
  497MOL0     C67021   9.456   9.605   9.133 -0.5342 -0.4121 -0.0325
  497MOL0     C67022   9.431   9.737   9.215 -0.4350  0.8549 -0.9832
  497MOL0     C67023   9.548   9.832   9.189 -0.2494 -0.4820 -0.8091
  497MOL0     C67024   9.636   9.910   9.169 -0.4623  0.0609  0.1092
  497MOL0     C67025   9.147   9.376   8.924  0.2977 -0.7742 -0.4875
  497MOL0     C67026   9.022   9.374   8.858 -0.4505 -0.1793 -0.6179
  497MOL0     C67027   8.999   9.476   8.755  0.8196  0.7788  0.4767
  497MOL0     H67028   8.499   9.279   9.112 -0.0499  0.9893 -0.2034
  497MOL0     H67029   8.266   9.282   9.098  1.6729  1.2879  0.5372
  497MOL0     H67030   8.113   9.085   8.707  0.6007  0.2943  1.4357
  497MOL0     H67031   7.962   9.094   8.807 -0.3418 -0.7942 -3.1349
  497MOL0     H67032   7.933   9.242   8.610 -0.7209  0.2615  0.3323
  497MOL0     H67033   8.083   9.334   8.647  0.2403  3.1773  3.2263
  497MOL0     H67034   7.863   9.429   8.688 -1.2789 -2.2847 -1.2057
  497MOL0     H67035   7.982   9.434   8.822  1.1093 -0.8800  0.1772
  497MOL0     H67036   7.724   9.259   8.800 -1.0022  0.0292  2.6775
  497MOL0     H67037   7.851   9.227   8.913 -0.7284 -1.2784 -1.9364
  497MOL0     H67038   7.709   9.501   8.884  0.5685 -0.2171  0.0954
  497MOL0     H67039   7.643   9.384   8.998  0.4642  1.7007  0.9658
  497MOL0     H67040   7.909   9.507   9.015  0.3032  0.1162  1.2292
  497MOL0     H67041   7.764   9.555   9.106  2.5862  1.6865  0.3988
  497MOL0     H67042   7.946   9.306   9.132  1.0293  2.2234 -0.0385
  497MOL0     H67043   7.781   9.291   9.181  0.8329 -0.8956  1.9449
  497MOL0     H67044   7.811   9.488   9.312 -0.3090 -0.6895  3.6114
  497MOL0     H67045   7.923   9.357   9.362 -0.0606  0.8329  0.9105
  497MOL0     H67046   7.924   9.739   9.324 -0.1724  1.2750 -2.9828
  497MOL0     H67047   8.248   9.887   9.247 -0.2916 -0.4839 -0.7891
  497MOL0     H67048   8.078   9.914   9.290 -0.8446 -1.7842 -2.1609
  497MOL0     H67049   8.214   9.973   9.464 -4.2075  1.3608 -2.5889
  497MOL0     H67050   8.096   9.876   9.513 -3.2272  1.7226 -4.0980
  497MOL0     H67051   8.275   9.666   9.496 -2.5957 -0.6249  2.1232
  497MOL0     H67052   8.264   9.776   9.635 -3.8155  5.7808 -0.2555
  497MOL0     H67053   8.468   9.794   9.402  1.6100  1.6268  0.2632
  497MOL0     H67054   8.504   9.759   9.572  0.0422  1.4156 -0.3587
  497MOL0     H67055   8.491  10.201   9.603 -1.5817 -5.1550  2.5855
  497MOL0     H67056   8.697  10.315   9.589 -2.1446 -0.0960 -0.9916
  497MOL0     H67057   9.169  10.286   9.639 -1.4778 -0.8456 -1.3226
  497MOL0     H67058   9.392  10.427   9.657  0.1292  1.2456 -1.2849
  497MOL0     H67059   9.458  10.568   9.281 -3.0122  1.5246  1.6757
  497MOL0     H67060   9.460  10.736   9.320  0.1874  1.3684  2.1806
  497MOL0     H67061   9.668  10.658   9.226 -1.6859 -1.7590 -1.7977
  497MOL0     H67062   9.701  10.682   9.405 -1.5096 -0.9448  1.1907
  497MOL0     H67063   9.681  10.428   9.442  3.4220  2.4512  2.3402
  497MOL0     H67064   9.668  10.415   9.264  0.9088  0.9247 -2.7487
  497MOL0     H67065   9.893  10.553   9.388 -1.1710  0.7422 -0.9351
  497MOL0     H67066   9.894  10.460   9.238  1.9120  0.4865  0.8361
  497MOL0     H67067   9.868  10.242   9.378 -3.3193 -1.2263  3.9885
  497MOL0     H67068   9.882  10.338   9.525 -0.4584 -0.4627  0.0978
  497MOL0     H67069  10.078  10.348   9.294  1.7486  2.5100  0.6593
  497MOL0     H67070  10.108  10.403   9.464  1.7580  0.7769  0.2618
  497MOL0     H67071  10.101  10.126   9.346 -2.7579  1.6801 -0.5922
  497MOL0     H67072  10.090  10.145   9.515  0.2930  0.0877  0.4734
  497MOL0     H67073  10.312  10.231   9.542  1.8652  1.3522  0.0680
  497MOL0     H67074  10.319  10.106   9.409  0.8069  1.3591 -0.9765
  497MOL0     H67075   9.223  10.662   9.337 -2.8528 -2.5407 -2.1608
  497MOL0     H67076   9.009  10.564   9.379 -0.4331  1.6818  0.4449
  497MOL0     H67077   8.871  10.000   9.361 -0.4452  0.3297 -0.8351
  497MOL0     H67078   8.673   9.864   9.410  0.0211  1.5350 -6.1293
  497MOL0     H67079   8.301   9.150   8.677 -2.2456  1.4887  0.7812
  497MOL0     H67080   8.527   9.175   8.695 -0.1175  1.3277 -0.9246
  497MOL0     H67081   8.878   9.110   9.013  1.3221  0.5874  0.2819
  497MOL0     H67082   9.090   9.100   9.118  1.7321  1.7695  1.4851
  497MOL0     H67083   9.411   9.381   8.967 -4.5881  0.9277 -0.1213
  497MOL0     H67084   9.501   9.344   9.112 -1.0793 -2.5190 -0.0056
  497MOL0     H67085   9.338   9.461   9.249  1.7271 -2.6813 -1.1684
  497MOL0     H67086   9.251   9.526   9.113 -0.7444 -1.5913  0.3386
  497MOL0     H67087   9.457   9.641   9.029 -1.4515  0.6802  0.3134
  497MOL0     H67088   9.559   9.570   9.137  0.0637 -0.0532 -5.0475
  497MOL0     H67089   9.335   9.788   9.205  0.0191  1.9277 -0.0645
  497MOL0     H67090   9.432   9.711   9.321  1.6916 -1.7721 -1.5378
  497MOL0     H67091   9.719   9.974   9.149 -1.0266  1.1076  1.0108
  497MOL0     H67092   9.226   9.440   8.886  0.0250 -0.1277  0.0192
  497MOL0     H67093   9.086   9.541   8.763  1.9532 -0.6558  0.2383
  497MOL0     H67094   9.002   9.424   8.659 -1.5236 -1.7583  1.6191
  497MOL0     H67095   8.906   9.533   8.761 -0.4508 -1.0705 -0.4444
  498MOL0     O67096   3.921   8.301  10.539  0.4218  0.7398  0.3492
  498MOL0     C67097   3.935   8.201  10.474  0.3186 -0.4854 -0.1499
  498MOL0     O67098   4.051   8.158  10.416 -0.2195 -0.0791 -0.1223
  498MOL0     C67099   4.173   8.223  10.432 -0.0255 -0.8129 -0.5543
  498MOL0     C67100   4.271   8.166  10.351  0.0382 -0.2697  0.1871
  498MOL0     C67101   4.405   8.209  10.372 -0.7191  0.5168  0.5204
  498MOL0     C67102   4.447   8.308  10.466  0.0698  0.0750 -0.6275
  498MOL0     O67103   4.577   8.357  10.475 -0.2831  0.3662  0.3588
  498MOL0     C67104   4.627   8.428  10.362  0.6124 -1.3336  0.4932
  498MOL0     C67105   4.603   8.579  10.380  0.0802 -0.1456 -0.2199
  498MOL0     C67106   4.711   8.668  10.311 -0.2958  0.1949  0.2537
  498MOL0     C67107   4.705   8.637  10.161 -0.7713  0.2422  0.0537
  498MOL0     C67108   4.791   8.736  10.083  0.7232 -0.4599  0.7575
  498MOL0     C67109   4.785   8.721   9.934  0.3206  1.0062  0.6208
  498MOL0     C67110   4.846   8.588   9.900 -0.4565 -0.8667  0.4932
  498MOL0     C67111   4.853   8.564   9.752 -0.3002 -0.8647  0.8673
  498MOL0     N67112   4.733   8.527   9.672 -0.9001 -0.2358 -0.2074
  498MOL0     C67113   4.738   8.420   9.579 -0.3894 -0.3596 -0.2227
  498MOL0     C67114   4.631   8.457   9.500  0.0254 -0.4377  0.2610
  498MOL0     C67115   4.576   8.373   9.382  0.3462 -0.1479  0.6042
  498MOL0     C67116   4.419   8.337   9.383 -0.0235 -0.2840  0.1502
  498MOL0     C67117   4.368   8.294   9.247 -0.2167 -0.5875 -0.9105
  498MOL0     C67118   4.438   8.167   9.199 -0.1069  0.5488 -0.5889
  498MOL0     O67119   4.414   8.049   9.274 -0.0366  0.0301  0.5561
  498MOL0     C67120   4.443   7.924   9.229  0.1459  0.6907 -0.1307
  498MOL0     C67121   4.362   7.821   9.278  0.1210 -0.6577  0.0796
  498MOL0     C67122   4.372   7.689   9.235  0.3864 -0.6191  0.3645
  498MOL0     C67123   4.461   7.656   9.123 -0.1006 -0.4207 -0.9924
  498MOL0     C67124   4.474   7.516   9.075 -0.7212  1.0363  0.1686
  498MOL0     O67125   4.592   7.505   9.007 -0.2415 -0.4149  0.8614
  498MOL0     C67126   4.641   7.378   8.977 -0.1013  0.4438  0.9162
  498MOL0     C67127   4.688   7.300   9.075 -0.2305 -0.9328 -0.4520
  498MOL0     C67128   4.741   7.174   9.038 -0.3041  0.6908  0.2713
  498MOL0     C67129   4.751   7.137   8.898 -0.0224 -0.2094  0.6902
  498MOL0     O67130   4.834   7.032   8.870  0.3631 -0.3472  0.6858
  498MOL0     C67131   4.789   6.934   8.776  0.7295  0.2171 -0.3081
  498MOL0     C67132   4.776   6.807   8.862 -0.1393 -0.5923 -0.1875
  498MOL0     C67133   4.778   6.694   8.765  0.0975  0.3275 -1.5035
  498MOL0     C67134   4.783   6.563   8.835 -0.0655 -0.0415 -1.0108
  498MOL0     C67135   4.922   6.524   8.866  0.2183  0.0905 -0.4930
  498MOL0     C67136   4.915   6.378   8.922 -0.6316 -0.6011 -0.0825
  498MOL0     C67137   5.060   6.347   8.956 -0.4276 -0.1007 -0.3735
  498MOL0     C67138   5.061   6.227   9.051  0.4591  0.2876 -0.3709
  498MOL0    Cl67139   4.986   6.080   8.984 -0.6523 -0.0566 -0.4282
  498MOL0     C67140   4.717   7.235   8.802 -0.4538  0.0811  0.0206
  498MOL0     C67141   4.665   7.347   8.845 -0.2466 -0.1316  0.3920
  498MOL0     O67142   4.393   7.421   9.098  0.0013 -0.2661 -0.3650
  498MOL0     C67143   4.550   7.759   9.084  0.7970 -0.6733  0.7078
  498MOL0     C67144   4.527   7.894   9.119  0.6554 -0.1627 -1.8329
  498MOL0     N67145   4.569   8.566   9.552 -1.4457 -0.7427 -0.9715
  498MOL0     N67146   4.623   8.608   9.662  0.6754  0.3212 -0.2146
  498MOL0     C67147   4.345   8.359  10.548 -0.4443 -0.0317  0.0015
  498MOL0     C67148   4.213   8.316  10.531 -0.0845 -0.8219 -1.4465
  498MOL0     C67149   3.818   8.109  10.487 -0.3824  0.0960 -0.5133
  498MOL0     C67150   3.845   7.987  10.536 -0.1244  0.2719  1.1760
  498MOL0     C67151   3.741   7.882  10.557 -0.5497 -1.1969  0.1965
  498MOL0     C67152   3.608   7.930  10.551  0.9886  0.1718  0.6232
  498MOL0     O67153   3.510   7.845  10.576 -0.4614 -0.2066  0.1087
  498MOL0     C67154   3.519   7.753  10.679  0.1883 -0.0233 -0.0577
  498MOL0     C67155   3.389   7.669  10.698 -0.5853 -0.2080  0.2818
  498MOL0     C67156   3.409   7.552  10.803 -0.3397  1.0823 -0.4221
  498MOL0     C67157   3.279   7.502  10.847 -0.6893 -0.2149  0.1377
  498MOL0     C67158   3.184   7.485  10.736 -0.5209 -1.3649  0.7609
  498MOL0     C67159   3.102   7.460  10.644  0.2335 -0.4169 -0.8239
  498MOL0     C67160   3.580   8.057  10.499 -0.6868 -0.2930  0.9285
  498MOL0     C67161   3.688   8.142  10.465 -0.6443  1.6663 -0.1283
  498MOL0     C67162   3.659   8.283  10.422 -0.4574 -0.1726  0.4565
  498MOL0     H67163   4.254   8.100  10.267  2.7908 -0.0733 -0.6034
  498MOL0     H67164   4.485   8.181  10.304  1.1071  1.4174  2.2081
  498MOL0     H67165   4.736   8.419  10.357  1.0982  2.2572  1.6068
  498MOL0     H67166   4.602   8.390  10.263  2.1336 -2.3236  0.4458
  498MOL0     H67167   4.614   8.599  10.487 -0.9401 -1.4933  0.1537
  498MOL0     H67168   4.505   8.606  10.339 -1.0575 -0.6617  1.9865
  498MOL0     H67169   4.808   8.658  10.360  0.4281 -1.5046 -1.4319
  498MOL0     H67170   4.678   8.771  10.331  0.8678  0.2336  2.2774
  498MOL0     H67171   4.738   8.532  10.158  1.4209  0.9018 -2.1853
  498MOL0     H67172   4.600   8.638  10.127 -1.0175  0.4503  0.8025
  498MOL0     H67173   4.749   8.836  10.093  0.6150 -0.6819  3.0856
  498MOL0     H67174   4.892   8.729  10.124  0.2974  0.7417  2.0479
  498MOL0     H67175   4.684   8.724   9.891 -0.0386 -3.4036  0.7035
  498MOL0     H67176   4.841   8.799   9.882 -0.2750 -0.0637 -1.7493
  498MOL0     H67177   4.798   8.502   9.947  4.8227 -2.7511  3.2968
  498MOL0     H67178   4.945   8.589   9.947 -0.7087  0.0544  1.0269
  498MOL0     H67179   4.886   8.655   9.701  0.4674 -1.2652  0.6362
  498MOL0     H67180   4.925   8.487   9.725  1.2491  0.8282  0.0210
  498MOL0     H67181   4.796   8.329   9.569  0.2953  0.1967 -1.6302
  498MOL0     H67182   4.597   8.431   9.291 -0.0279 -2.0216 -0.7277
  498MOL0     H67183   4.630   8.278   9.394 -0.0506 -0.2705  1.4700
  498MOL0     H67184   4.399   8.258   9.457 -1.7639  0.2488  0.2850
  498MOL0     H67185   4.367   8.422   9.428  2.3235  0.8279  0.9322
  498MOL0     H67186   4.376   8.379   9.179 -2.0669  0.0135 -0.4441
  498MOL0     H67187   4.263   8.263   9.254  0.8532 -4.3939  1.2496
  498MOL0     H67188   4.545   8.186   9.183 -1.1644  5.3769 -4.2336
  498MOL0     H67189   4.421   8.140   9.095 -0.2863 -2.4298  0.1196
  498MOL0     H67190   4.298   7.851   9.360  1.5335  1.8132  0.3756
  498MOL0     H67191   4.311   7.610   9.275  1.8121 -3.4252 -2.4921
  498MOL0     H67192   4.682   7.338   9.177 -2.1955  0.7715 -1.1180
  498MOL0     H67193   4.769   7.104   9.117 -2.0274 -0.5582 -0.1723
  498MOL0     H67194   4.691   6.955   8.732 -0.3215  1.4452  2.3338
  498MOL0     H67195   4.864   6.925   8.698  3.1710  0.9951  1.7986
  498MOL0     H67196   4.862   6.802   8.929  1.6141  1.6464 -2.0806
  498MOL0     H67197   4.684   6.804   8.922 -0.9170 -0.0418 -1.3051
  498MOL0     H67198   4.678   6.699   8.722 -0.1419  1.8116 -0.8317
  498MOL0     H67199   4.860   6.698   8.692  0.1008  0.3704 -1.4976
  498MOL0     H67200   4.744   6.490   8.763  0.4285 -0.4649 -0.8544
  498MOL0     H67201   4.713   6.569   8.919 -0.3366  1.8444 -1.3251
  498MOL0     H67202   4.974   6.585   8.940 -0.2806  2.0096 -1.6530
  498MOL0     H67203   4.972   6.530   8.769  0.3163  0.2011 -0.4346
  498MOL0     H67204   4.849   6.373   9.009 -0.8070 -0.4213 -0.2057
  498MOL0     H67205   4.871   6.303   8.854 -3.1164 -1.2312  2.0703
  498MOL0     H67206   5.113   6.426   9.009 -1.4368  0.8765 -0.7972
  498MOL0     H67207   5.107   6.317   8.861  0.0958  2.1986 -0.8943
  498MOL0     H67208   5.165   6.200   9.074 -0.9262 -1.8018  4.6734
  498MOL0     H67209   5.019   6.245   9.150 -0.3061 -1.7141 -0.2811
  498MOL0     H67210   4.722   7.226   8.694 -0.5575 -0.1028  0.0317
  498MOL0     H67211   4.628   7.413   8.768 -1.6695 -2.2835 -0.8660
  498MOL0     H67212   4.616   7.730   9.003  0.0875  0.7126 -0.4062
  498MOL0     H67213   4.597   7.972   9.090  1.3457  1.3658  3.0788
  498MOL0     H67214   4.365   8.442  10.615 -0.2592  0.8793 -1.1499
  498MOL0     H67215   4.140   8.363  10.596  1.1203  1.9081 -1.9169
  498MOL0     H67216   3.948   7.960  10.558 -0.0618 -1.0881 -0.5548
  498MOL0     H67217   3.770   7.785  10.596 -0.1962 -0.2429  2.4431
  498MOL0     H67218   3.543   7.795  10.777 -0.5736  0.6026 -0.1323
  498MOL0     H67219   3.598   7.682  10.651  1.3171 -0.0479  2.8454
  498MOL0     H67220   3.375   7.629  10.597  1.1887  2.5703 -1.1934
  498MOL0     H67221   3.320   7.739  10.744 -0.2918 -0.5909  1.3308
  498MOL0     H67222   3.463   7.599  10.886  0.3373  1.3191 -0.9834
  498MOL0     H67223   3.462   7.475  10.746 -0.6960  0.8980 -0.5055
  498MOL0     H67224   3.290   7.403  10.892 -0.9583 -1.3204 -2.0646
  498MOL0     H67225   3.221   7.561  10.917 -3.7832 -1.1818 -1.4286
  498MOL0     H67226   3.027   7.437  10.571 -0.6254 -0.2099 -0.0289
  498MOL0     H67227   3.477   8.086  10.478 -0.4336  0.4696  0.6810
  498MOL0     H67228   3.639   8.337  10.515  4.9826  0.8306  1.3775
  498MOL0     H67229   3.750   8.330  10.383  0.6708 -3.3679 -1.1237
  498MOL0     H67230   3.581   8.294  10.347  2.8099 -1.6829 -3.5451
  499MOL0     O67231   7.141   8.923   1.479 -0.4652  0.6401 -0.5035
  499MOL0     C67232   7.107   8.884   1.594 -1.3140  1.2601  0.0044
  499MOL0     O67233   7.152   8.943   1.711 -0.1535  0.5659  0.0365
  499MOL0     C67234   7.217   9.065   1.707  0.1307 -0.6554  0.0847
  499MOL0     C67235   7.175   9.172   1.616 -0.4275 -0.4280  0.3094
  499MOL0     C67236   7.235   9.301   1.627 -0.2898  1.6022 -0.3477
  499MOL0     C67237   7.339   9.332   1.717 -0.4482  0.7479 -0.1621
  499MOL0     O67238   7.386   9.461   1.717  0.5556  0.8858  0.3128
  499MOL0     C67239   7.524   9.473   1.740  0.3254  0.6119 -0.1992
  499MOL0     C67240   7.556   9.619   1.745 -0.1103 -0.7682 -0.1379
  499MOL0     C67241   7.698   9.641   1.804 -1.2405 -0.2511  0.5477
  499MOL0     C67242   7.739   9.784   1.782 -0.1560  0.9950  0.1110
  499MOL0     C67243   7.864   9.815   1.868  1.2315  0.6953  0.0651
  499MOL0     C67244   7.893   9.966   1.847 -0.2325  0.5819  0.2581
  499MOL0     C67245   8.006  10.044   1.930 -0.5023  1.4948  0.0301
  499MOL0     C67246   8.000  10.037   2.087 -0.0085 -0.1606 -1.0185
  499MOL0     N67247   7.878  10.097   2.133 -0.7429 -0.0330 -0.6446
  499MOL0     C67248   7.844  10.220   2.139  0.3350 -0.2239 -0.1660
  499MOL0     C67249   7.717  10.226   2.187  0.3209 -0.2491  0.3330
  499MOL0     C67250   7.643  10.352   2.165  0.4865  1.5902  0.5125
  499MOL0     C67251   7.611  10.365   2.013  0.5847  0.5738 -0.9344
  499MOL0     C67252   7.480  10.298   1.973  0.0196  0.5260 -0.3222
  499MOL0     C67253   7.435  10.342   1.833  0.0834  1.0213  0.4422
  499MOL0     O67254   7.543  10.343   1.735  0.0963 -0.0608 -0.1208
  499MOL0     C67255   7.552  10.463   1.673 -0.5997 -0.0268  0.9166
  499MOL0     C67256   7.444  10.504   1.589  0.0758  0.4537 -0.5647
  499MOL0     C67257   7.449  10.636   1.523  0.3135  0.4274  0.4633
  499MOL0     C67258   7.564  10.725   1.535 -0.5729  0.0621 -1.0342
  499MOL0     C67259   7.571  10.849   1.448  0.8533  0.9203  0.4510
  499MOL0     O67260   7.460  10.887   1.387  0.2159 -0.4812  0.1698
  499MOL0     C67261   7.476  10.995   1.302 -0.3603 -0.7268  0.5078
  499MOL0     C67262   7.383  11.109   1.331 -0.7068  0.0422 -0.1938
  499MOL0     C67263   7.360  11.214   1.249 -0.3735 -0.2344 -0.2090
  499MOL0     C67264   7.455  11.240   1.155  0.5557  0.6753  0.1882
  499MOL0     O67265   7.456  11.353   1.077  0.4122  0.4359 -0.3309
  499MOL0     C67266   7.387  11.480   1.109 -0.3455  0.0018  0.3763
  499MOL0     C67267   7.239  11.490   1.052 -0.8055 -0.5228  0.0690
  499MOL0     C67268   7.264  11.483   0.897 -0.0803  0.2987 -0.3931
  499MOL0     C67269   7.138  11.489   0.823 -0.0647  0.2855  0.0977
  499MOL0     C67270   7.133  11.413   0.690 -0.7357 -1.3541  0.5775
  499MOL0     C67271   7.005  11.436   0.617  0.8084 -0.3146  0.5830
  499MOL0     C67272   6.888  11.358   0.677  0.6005 -0.2236 -0.7556
  499MOL0     C67273   6.759  11.427   0.616  0.6517  0.4261 -0.4030
  499MOL0    Cl67274   6.751  11.386   0.444  0.8514 -0.2217 -0.3387
  499MOL0     C67275   7.563  11.149   1.137  0.1988  0.8285 -0.8160
  499MOL0     C67276   7.575  11.026   1.203  0.8669  0.0565  0.4399
  499MOL0     O67277   7.680  10.905   1.454 -0.3316  0.5204 -0.0788
  499MOL0     C67278   7.651  10.688   1.640 -0.7205 -0.4811  0.7215
  499MOL0     C67279   7.648  10.561   1.709  1.0237 -0.0590 -0.2938
  499MOL0     N67280   7.676  10.101   2.222  0.4908  0.0659 -0.6157
  499MOL0     N67281   7.775  10.024   2.187 -0.1919  0.5450  0.3650
  499MOL0     C67282   7.380   9.221   1.788  0.1403 -0.2556  0.2741
  499MOL0     C67283   7.319   9.094   1.791 -0.3334  0.6684  0.9336
  499MOL0     C67284   7.015   8.762   1.602  0.2088  0.4223  0.0265
  499MOL0     C67285   7.025   8.683   1.726 -1.2043  0.4063  0.7207
  499MOL0     C67286   6.946   8.569   1.736  0.0019  0.1428 -0.1573
  499MOL0     C67287   6.858   8.526   1.635 -0.3493  0.0925  0.3679
  499MOL0     O67288   6.790   8.417   1.669 -0.3795 -0.1963  0.6542
  499MOL0     C67289   6.668   8.367   1.609  0.1625  0.1553 -0.4633
  499MOL0     C67290   6.723   8.261   1.518  1.1633  0.5907 -0.4895
  499MOL0     C67291   6.621   8.208   1.416 -0.5054  0.4839  0.7310
  499MOL0     C67292   6.564   8.305   1.301  0.0161  0.2483  0.2984
  499MOL0     C67293   6.676   8.358   1.224 -0.4107  0.2747  0.2940
  499MOL0     C67294   6.776   8.382   1.153 -0.3464  0.1968  0.1985
  499MOL0     C67295   6.843   8.600   1.515  0.1704 -0.0842  0.3217
  499MOL0     C67296   6.930   8.716   1.496  0.6865  0.4915 -0.3698
  499MOL0     C67297   6.901   8.810   1.375 -0.9148  0.5685 -0.0138
  499MOL0     H67298   7.108   9.159   1.531  0.0504 -0.1267 -0.1208
  499MOL0     H67299   7.201   9.360   1.543 -1.0627 -1.5310 -2.4127
  499MOL0     H67300   7.545   9.447   1.844 -2.5365  1.4287  0.6704
  499MOL0     H67301   7.575   9.413   1.665 -1.1723 -1.4371  0.3269
  499MOL0     H67302   7.490   9.667   1.818  3.3650 -1.2297  3.6737
  499MOL0     H67303   7.562   9.669   1.648  3.1541  2.9989  1.7252
  499MOL0     H67304   7.770   9.572   1.758  1.4026  1.3903  2.0016
  499MOL0     H67305   7.707   9.610   1.908  2.3762 -0.5036  0.2844
  499MOL0     H67306   7.763   9.800   1.677  1.1893  0.1509  0.2631
  499MOL0     H67307   7.658   9.855   1.796  0.1487  0.8679  3.2297
  499MOL0     H67308   7.828   9.798   1.969  2.2384 -2.8578 -0.0412
  499MOL0     H67309   7.950   9.750   1.850  0.3757 -0.4095 -0.0747
  499MOL0     H67310   7.915   9.977   1.740 -0.0798  0.2398  0.2546
  499MOL0     H67311   7.800  10.021   1.868 -0.9752 -0.5393 -0.0356
  499MOL0     H67312   8.023  10.144   1.890  1.0835  0.6519 -1.5235
  499MOL0     H67313   8.102  10.004   1.896 -2.0152 -1.1420 -1.4861
  499MOL0     H67314   8.006   9.936   2.128 -2.6427  0.0836  0.2009
  499MOL0     H67315   8.076  10.102   2.132 -1.7021  0.7276  0.7174
  499MOL0     H67316   7.904  10.305   2.106  2.7788  0.1798  4.4297
  499MOL0     H67317   7.546  10.337   2.215 -0.0345 -4.7645 -1.5263
  499MOL0     H67318   7.705  10.435   2.200  1.4991 -0.2851  3.5274
  499MOL0     H67319   7.579  10.467   1.991 -0.2365  0.2279 -1.3697
  499MOL0     H67320   7.701  10.340   1.956  3.6465 -0.4802  3.7414
  499MOL0     H67321   7.395  10.319   2.038 -3.0302 -4.1527 -2.2313
  499MOL0     H67322   7.483  10.189   1.968 -0.3031  0.4765  0.4014
  499MOL0     H67323   7.395  10.444   1.842 -1.4660  0.5480 -0.7072
  499MOL0     H67324   7.361  10.277   1.786  1.9402 -1.6529  0.9870
  499MOL0     H67325   7.362  10.436   1.569  1.0570 -1.6164  1.8619
  499MOL0     H67326   7.369  10.669   1.457  1.2531  1.4653 -0.1872
  499MOL0     H67327   7.310  11.087   1.409  0.1021  1.5573  1.0445
  499MOL0     H67328   7.278  11.279   1.277 -0.6177  0.6339 -2.6781
  499MOL0     H67329   7.382  11.484   1.219 -3.0710  2.6096  0.2706
  499MOL0     H67330   7.453  11.565   1.089 -0.4115 -0.0969 -0.2712
  499MOL0     H67331   7.175  11.416   1.102 -0.6633 -0.0921  0.9188
  499MOL0     H67332   7.191  11.583   1.085 -0.3238  0.1605 -1.0939
  499MOL0     H67333   7.328  11.566   0.866 -1.0597  0.5390 -1.8315
  499MOL0     H67334   7.317  11.391   0.873 -2.1230 -0.8419 -0.7790
  499MOL0     H67335   7.125  11.596   0.804  0.4633  0.4318  0.5690
  499MOL0     H67336   7.049  11.452   0.874  0.2884 -2.3188 -1.0249
  499MOL0     H67337   7.145  11.306   0.707 -1.7383 -1.1192  3.1447
  499MOL0     H67338   7.209  11.445   0.619 -2.4866 -1.2815 -1.3784
  499MOL0     H67339   6.988  11.542   0.598  2.1225 -0.2624 -0.4880
  499MOL0     H67340   7.018  11.388   0.520  0.0304 -0.4469  0.5371
  499MOL0     H67341   6.875  11.366   0.786  1.1973 -1.3483 -0.5797
  499MOL0     H67342   6.880  11.254   0.645 -1.5389 -1.0460  2.0133
  499MOL0     H67343   6.672  11.396   0.673 -0.2935  0.3294 -1.8337
  499MOL0     H67344   6.778  11.534   0.631  0.0494  0.3508  0.9856
  499MOL0     H67345   7.637  11.172   1.061  2.5842 -2.1982  0.3516
  499MOL0     H67346   7.654  10.956   1.176  1.6946  0.7471  1.0314
  499MOL0     H67347   7.741  10.743   1.667 -1.3813  1.9081 -1.5189
  499MOL0     H67348   7.712  10.535   1.792  0.7192  1.4342  0.4516
  499MOL0     H67349   7.467   9.237   1.850  1.0502 -0.9832 -0.7622
  499MOL0     H67350   7.354   9.014   1.855 -0.8037 -0.2716  0.0420
  499MOL0     H67351   7.092   8.720   1.803 -0.3495  0.4466 -0.0247
  499MOL0     H67352   6.975   8.513   1.824  1.4355 -1.3807 -1.5234
  499MOL0     H67353   6.618   8.447   1.553  1.6201  1.3558 -0.0972
  499MOL0     H67354   6.592   8.332   1.679 -0.6233  0.9232 -0.9179
  499MOL0     H67355   6.763   8.174   1.571  1.8912 -0.0483 -2.0476
  499MOL0     H67356   6.812   8.298   1.466  0.1995  1.3220 -1.6493
  499MOL0     H67357   6.528   8.187   1.470 -0.5985 -0.5278  0.1903
  499MOL0     H67358   6.654   8.116   1.367  0.5521  0.4114  1.5450
  499MOL0     H67359   6.490   8.252   1.241  0.2545  1.9357 -1.5764
  499MOL0     H67360   6.502   8.387   1.339 -1.3292 -0.4523 -0.3035
  499MOL0     H67361   6.873   8.404   1.113 -0.5907  4.2003  1.3917
  499MOL0     H67362   6.757   8.589   1.450 -2.4816  2.0913  3.1582
  499MOL0     H67363   6.892   8.914   1.408  0.3065  1.0118 -1.0006
  499MOL0     H67364   6.984   8.811   1.304  1.8547 -0.5569  2.9595
  499MOL0     H67365   6.810   8.781   1.321 -1.2992  1.9530 -0.1401
  500MOL0     O67366   8.733   7.784   5.413  0.0904 -0.8703  0.3936
  500MOL0     C67367   8.726   7.656   5.409 -0.0463  0.2484 -0.4840
  500MOL0     O67368   8.797   7.579   5.325 -0.5671  0.3359  0.3013
  500MOL0     C67369   8.852   7.645   5.224 -0.6456 -0.0842  0.6776
  500MOL0     C67370   8.962   7.720   5.225 -0.5054  0.0011 -1.0014
  500MOL0     C67371   9.027   7.765   5.108  0.6495 -0.0511 -0.8584
  500MOL0     C67372   8.960   7.744   4.985  0.9591  0.1676 -0.1069
  500MOL0     O67373   9.008   7.787   4.865  0.8289  0.0830 -0.2828
  500MOL0     C67374   9.010   7.929   4.850  0.5587 -0.0202  0.5409
  500MOL0     C67375   9.053   7.977   4.703 -0.1862  0.0823  0.4308
  500MOL0     C67376   9.069   8.128   4.678  0.2259 -0.0548  0.2496
  500MOL0     C67377   9.206   8.183   4.738 -0.1690  0.0734  0.0200
  500MOL0     C67378   9.232   8.335   4.723 -0.2123 -0.1984  1.4750
  500MOL0     C67379   9.111   8.424   4.745 -0.1632  0.9764  0.2650
  500MOL0     C67380   9.150   8.564   4.746  0.2882  0.0167 -0.3539
  500MOL0     C67381   9.211   8.615   4.880  0.2937 -0.3689 -0.8741
  500MOL0     N67382   9.107   8.635   4.983 -0.4828 -0.4826  0.5715
  500MOL0     C67383   9.074   8.543   5.078  0.2323 -0.9684 -0.0522
  500MOL0     C67384   9.004   8.619   5.171 -0.5035  0.9533 -0.0423
  500MOL0     C67385   8.959   8.569   5.300 -0.1769  0.1670  0.8037
  500MOL0     C67386   8.815   8.528   5.301  0.0583  0.1936  0.0179
  500MOL0     C67387   8.706   8.639   5.316 -1.0773 -0.4226  0.3633
  500MOL0     C67388   8.749   8.759   5.397  0.2613 -1.4454  0.4999
  500MOL0     O67389   8.625   8.818   5.454 -0.7734 -0.1278 -0.5944
  500MOL0     C67390   8.636   8.952   5.479  0.6620 -0.0337  0.4322
  500MOL0     C67391   8.741   9.004   5.551 -0.5920 -0.4290 -0.3601
  500MOL0     C67392   8.740   9.131   5.586 -0.0103 -1.1556 -0.5014
  500MOL0     C67393   8.639   9.226   5.555  0.2329  0.2980 -0.7218
  500MOL0     C67394   8.649   9.366   5.592  0.7229  0.4112  0.3387
  500MOL0     O67395   8.770   9.429   5.633  0.2138  0.2518  0.5458
  500MOL0     C67396   8.763   9.537   5.712  0.5800 -0.5319  0.4648
  500MOL0     C67397   8.845   9.642   5.675 -0.0986 -0.4119 -0.8553
  500MOL0     C67398   8.856   9.754   5.756 -0.2797  0.2531 -0.6883
  500MOL0     C67399   8.773   9.761   5.877  0.0376 -0.1212 -0.0322
  500MOL0     O67400   8.762   9.871   5.953  0.4381 -0.6859  0.5326
  500MOL0     C67401   8.836   9.991   5.927  0.3040  0.3490 -0.7017
  500MOL0     C67402   8.738  10.102   5.879 -0.3081  0.3288 -0.0766
  500MOL0     C67403   8.697  10.089   5.739 -0.5356  0.0305 -0.2958
  500MOL0     C67404   8.553  10.125   5.714  0.7868  0.8115  0.8387
  500MOL0     C67405   8.515  10.265   5.756 -0.1744 -0.9955 -0.1051
  500MOL0     C67406   8.370  10.298   5.719 -0.1573 -0.5425 -0.0124
  500MOL0     C67407   8.334  10.430   5.788 -0.2191  1.1827 -0.1864
  500MOL0     C67408   8.200  10.490   5.742  0.4808  0.0842  0.5592
  500MOL0    Cl67409   8.193  10.662   5.775  0.0828 -0.1032 -0.1520
  500MOL0     C67410   8.696   9.650   5.913  0.6565  0.1172  0.3485
  500MOL0     C67411   8.684   9.535   5.828 -0.0184 -0.0183 -0.1881
  500MOL0     O67412   8.541   9.430   5.582  0.5130 -0.7307  0.6074
  500MOL0     C67413   8.519   9.173   5.502 -0.2871 -0.2644 -0.6290
  500MOL0     C67414   8.518   9.031   5.470  0.6439  0.1695 -0.7413
  500MOL0     N67415   8.999   8.750   5.133 -0.4080 -0.4987  0.6732
  500MOL0     N67416   9.046   8.755   5.011  0.5354 -0.2660 -0.0211
  500MOL0     C67417   8.857   7.660   4.985 -0.4001  0.6426 -0.4537
  500MOL0     C67418   8.802   7.611   5.104 -0.0726  0.3959 -0.4083
  500MOL0     C67419   8.620   7.597   5.491  0.5072  0.9071 -0.4297
  500MOL0     C67420   8.575   7.649   5.619 -0.1710 -0.0955 -0.0109
  500MOL0     C67421   8.499   7.576   5.703  0.8137  0.0997 -0.1082
  500MOL0     C67422   8.435   7.461   5.659 -0.2740 -0.1089  0.6283
  500MOL0     O67423   8.349   7.389   5.742  0.7008 -0.2679  0.5493
  500MOL0     C67424   8.317   7.450   5.868  0.0050 -0.8214  0.5338
  500MOL0     C67425   8.197   7.383   5.925  0.3971  0.0025  0.2359
  500MOL0     C67426   8.241   7.333   6.062  0.0965 -0.7858 -0.6538
  500MOL0     C67427   8.111   7.284   6.136  0.5563 -0.6274 -0.0339
  500MOL0     C67428   8.012   7.393   6.178 -0.1457  0.7435  0.6322
  500MOL0     C67429   7.928   7.474   6.211 -0.0010 -0.8083 -0.0012
  500MOL0     C67430   8.466   7.402   5.541  0.7138 -1.2618  0.2624
  500MOL0     C67431   8.556   7.471   5.452  0.0384 -0.6386 -0.3207
  500MOL0     C67432   8.581   7.397   5.326 -0.0937 -0.3907 -0.8552
  500MOL0     H67433   9.014   7.746   5.317 -3.0987 -0.4417  0.7077
  500MOL0     H67434   9.115   7.829   5.110  0.0557  0.8246  1.6856
  500MOL0     H67435   8.913   7.979   4.858  0.2177  0.0976 -2.8226
  500MOL0     H67436   9.075   7.970   4.927  0.2192 -0.2580  0.9601
  500MOL0     H67437   8.966   7.956   4.639  1.9520 -1.2735 -2.2745
  500MOL0     H67438   9.130   7.910   4.662  0.8627  0.6316  1.4853
  500MOL0     H67439   8.997   8.192   4.731  0.0756 -1.0414  1.2754
  500MOL0     H67440   9.062   8.148   4.570 -1.5451  1.9264  0.6580
  500MOL0     H67441   9.205   8.150   4.843 -1.2723 -2.2164 -0.6236
  500MOL0     H67442   9.293   8.140   4.688  1.5885  4.2004 -0.8662
  500MOL0     H67443   9.305   8.372   4.795  0.8472  3.1010 -1.0744
  500MOL0     H67444   9.278   8.353   4.625  2.1839  1.4881  2.8052
  500MOL0     H67445   9.035   8.407   4.667  0.7019 -0.0535 -0.3833
  500MOL0     H67446   9.052   8.381   4.827  0.3242 -2.7055 -1.1428
  500MOL0     H67447   9.053   8.613   4.733  0.1396 -0.6963 -2.3360
  500MOL0     H67448   9.224   8.597   4.672 -0.3263 -0.0483 -1.0117
  500MOL0     H67449   9.295   8.553   4.912  1.0627  0.2912 -1.5604
  500MOL0     H67450   9.248   8.717   4.863  1.3874 -0.2495  1.7007
  500MOL0     H67451   9.103   8.439   5.094  1.1079 -0.9604 -1.4276
  500MOL0     H67452   9.014   8.482   5.338  0.2746  0.9859  2.1158
  500MOL0     H67453   8.995   8.640   5.375  1.2334 -0.1084  0.4214
  500MOL0     H67454   8.786   8.466   5.216  0.6770 -2.4908  1.6302
  500MOL0     H67455   8.816   8.455   5.383  1.2779 -1.7922 -1.6688
  500MOL0     H67456   8.621   8.594   5.367 -0.8460  1.7544  2.8731
  500MOL0     H67457   8.672   8.668   5.216 -1.1093  1.2962  0.8510
  500MOL0     H67458   8.807   8.833   5.341  0.0936 -1.3716  0.4245
  500MOL0     H67459   8.814   8.732   5.481 -0.0871  1.1120  1.6917
  500MOL0     H67460   8.821   8.943   5.590  0.3737 -0.2229 -1.9400
  500MOL0     H67461   8.818   9.158   5.657 -1.4066 -0.7933  0.9499
  500MOL0     H67462   8.902   9.643   5.582  0.1015 -0.6644 -0.7390
  500MOL0     H67463   8.929   9.832   5.737  0.6279  0.2512  2.3647
  500MOL0     H67464   8.868  10.023   6.027 -0.2279  0.2724 -0.5007
  500MOL0     H67465   8.919   9.984   5.857  0.2458  2.6700 -1.0941
  500MOL0     H67466   8.653  10.107   5.948 -2.6394 -3.5174 -2.2646
  500MOL0     H67467   8.786  10.198   5.895 -1.1330  1.4662 -3.5761
  500MOL0     H67468   8.757  10.165   5.687 -1.4217  1.7390  1.0608
  500MOL0     H67469   8.720   9.988   5.704 -0.4655 -0.4570  1.1099
  500MOL0     H67470   8.493  10.047   5.763  2.7199 -2.4463 -1.5484
  500MOL0     H67471   8.515  10.112   5.612  0.9512  3.1273  0.4317
  500MOL0     H67472   8.584  10.329   5.700  1.7935 -2.4677  0.5435
  500MOL0     H67473   8.539  10.273   5.862  1.4449 -1.4736 -0.4228
  500MOL0     H67474   8.352  10.311   5.612 -2.3439  1.7166  0.5462
  500MOL0     H67475   8.306  10.218   5.759 -0.3564 -0.1891  0.3883
  500MOL0     H67476   8.411  10.506   5.772  0.5533  0.1590 -1.5240
  500MOL0     H67477   8.327  10.416   5.896 -0.8280 -1.4777 -0.4895
  500MOL0     H67478   8.190  10.477   5.634 -0.5731 -1.4804  0.8107
  500MOL0     H67479   8.117  10.442   5.794  0.1172  0.8332  0.6821
  500MOL0     H67480   8.627   9.669   5.994  2.2408 -1.6654  2.2498
  500MOL0     H67481   8.628   9.450   5.867  1.5613 -1.6610 -1.3596
  500MOL0     H67482   8.436   9.242   5.486 -0.9493 -1.2177 -1.4216
  500MOL0     H67483   8.432   8.986   5.420 -1.1917  1.8991  0.6715
  500MOL0     H67484   8.806   7.622   4.896 -1.4006 -4.0324  1.7717
  500MOL0     H67485   8.727   7.532   5.107  0.6334 -0.2890  3.1651
  500MOL0     H67486   8.631   7.732   5.661  2.1059 -1.0043 -1.0987
  500MOL0     H67487   8.497   7.627   5.799 -0.5538  0.0381 -0.0735
  500MOL0     H67488   8.295   7.556   5.850  1.3546 -0.2634  1.9563
  500MOL0     H67489   8.400   7.445   5.939 -0.0804 -0.8629  0.6310
  500MOL0     H67490   8.170   7.310   5.848 -0.6722  0.7905 -0.1661
  500MOL0     H67491   8.113   7.452   5.936  1.2442  0.8637  1.6540
  500MOL0     H67492   8.279   7.417   6.120  1.4025  0.3362 -2.9900
  500MOL0     H67493   8.318   7.256   6.057  1.6641  0.6109  0.7684
  500MOL0     H67494   8.065   7.203   6.080 -1.5952  0.5174 -0.0195
  500MOL0     H67495   8.142   7.243   6.232  2.1657 -2.5322 -1.2810
  500MOL0     H67496   7.857   7.550   6.237  0.6407 -0.1408 -0.1701
  500MOL0     H67497   8.429   7.303   5.516 -0.1791 -0.8831  0.0789
  500MOL0     H67498   8.524   7.309   5.295  2.3283 -2.7511  0.9349
  500MOL0     H67499   8.569   7.465   5.241  0.3067 -0.1708 -0.7388
  500MOL0     H67500   8.685   7.370   5.346 -0.7351 -1.2719  1.6295
  501MOL0     O67501   5.108  10.463   8.861  0.1374 -0.4945  0.0056
  501MOL0     C67502   5.067  10.352   8.882  0.8995  0.4688  0.1776
  501MOL0     O67503   4.934  10.323   8.917 -0.1385  0.6217  0.4015
  501MOL0     C67504   4.844  10.429   8.937 -0.1903 -0.4726  0.2410
  501MOL0     C67505   4.721  10.414   8.879  0.0565  0.0281  0.9757
  501MOL0     C67506   4.628  10.522   8.890 -0.7459  1.3640 -0.1505
  501MOL0     C67507   4.641  10.631   8.975 -1.6378 -0.8310  0.2283
  501MOL0     O67508   4.551  10.735   8.982 -0.2694  0.1354  0.1839
  501MOL0     C67509   4.414  10.697   9.002  0.2591  0.3499  1.1607
  501MOL0     C67510   4.317  10.738   8.888  0.1053 -0.9264  0.4941
  501MOL0     C67511   4.352  10.688   8.745  0.3144 -0.1931  0.2850
  501MOL0     C67512   4.262  10.768   8.632  0.4387 -0.2977 -0.1330
  501MOL0     C67513   4.301  10.730   8.498  0.1329  0.3071 -0.4163
  501MOL0     C67514   4.263  10.575   8.470 -0.6328  0.1192 -0.4750
  501MOL0     C67515   4.322  10.535   8.341 -0.6135  0.6214  0.2746
  501MOL0     C67516   4.302  10.380   8.327 -0.2443 -0.5888  0.7816
  501MOL0     N67517   4.306  10.332   8.187 -0.0919 -0.2919 -0.1813
  501MOL0     C67518   4.423  10.335   8.105  0.3648 -0.3676 -1.4545
  501MOL0     C67519   4.373  10.302   7.980 -0.8338 -0.3802  1.1837
  501MOL0     C67520   4.462  10.305   7.852 -0.8245  0.3298  0.2435
  501MOL0     C67521   4.435  10.426   7.773  0.5582 -0.4533  0.6483
  501MOL0     C67522   4.294  10.411   7.713  0.3468 -0.5258 -0.2111
  501MOL0     C67523   4.238  10.500   7.601  0.2355 -0.2147 -0.5953
  501MOL0     O67524   4.170  10.417   7.502 -0.9577  0.3356  0.3616
  501MOL0     C67525   4.239  10.328   7.426 -0.1476 -1.0196  0.2456
  501MOL0     C67526   4.377  10.324   7.403 -1.1952 -0.8658 -0.3274
  501MOL0     C67527   4.433  10.258   7.295  0.2910 -0.1141  0.0572
  501MOL0     C67528   4.352  10.170   7.215  0.4748 -0.4146 -0.1194
  501MOL0     C67529   4.409  10.102   7.099 -0.3779  0.6005  0.9255
  501MOL0     O67530   4.541  10.079   7.093 -0.1527 -0.5501  0.1648
  501MOL0     C67531   4.591   9.963   7.030 -1.1099 -0.0244 -1.0604
  501MOL0     C67532   4.699   9.976   6.942 -0.3986 -0.1689 -0.4199
  501MOL0     C67533   4.740   9.877   6.853  0.5481  0.3597 -1.3245
  501MOL0     C67534   4.680   9.749   6.865  0.0738 -0.2725  0.0180
  501MOL0     O67535   4.708   9.655   6.766 -0.1602  0.7717 -0.6882
  501MOL0     C67536   4.702   9.513   6.812  0.7067 -0.5378 -0.4276
  501MOL0     C67537   4.563   9.475   6.765  0.1360  0.0740  0.5415
  501MOL0     C67538   4.523   9.329   6.792  0.1097  0.3780  0.7396
  501MOL0     C67539   4.499   9.308   6.940  0.1452 -0.0383  0.9388
  501MOL0     C67540   4.440   9.171   6.987 -0.4213  0.5027 -0.6260
  501MOL0     C67541   4.496   9.050   6.906  0.4255  0.2494  1.7672
  501MOL0     C67542   4.430   8.917   6.947 -0.4382  1.0406 -0.4004
  501MOL0     C67543   4.522   8.791   6.934  0.0584  0.1980  0.0374
  501MOL0    Cl67544   4.679   8.819   7.015 -0.3667 -0.1550 -0.0462
  501MOL0     C67545   4.587   9.730   6.972  1.4578  0.6754 -0.2465
  501MOL0     C67546   4.537   9.832   7.056  0.5324 -0.3971  0.5800
  501MOL0     O67547   4.328  10.046   7.032  0.2432  0.0987 -0.0237
  501MOL0     C67548   4.208  10.176   7.238  0.3991 -0.5101  1.1597
  501MOL0     C67549   4.159  10.256   7.341  1.0014  0.1023  1.0796
  501MOL0     N67550   4.241  10.259   7.987 -0.0708  0.3955 -0.1410
  501MOL0     N67551   4.208  10.279   8.113  0.3820  0.2462 -0.4699
  501MOL0     C67552   4.769  10.637   9.041 -0.0477  0.5038  0.1174
  501MOL0     C67553   4.870  10.529   9.029  0.8105  0.9992 -0.4391
  501MOL0     C67554   5.153  10.235   8.830 -0.8715 -0.2015 -0.2210
  501MOL0     C67555   5.086  10.111   8.823  0.2982 -0.6822  0.0696
  501MOL0     C67556   5.160   9.984   8.804  0.8964 -0.7751 -0.7121
  501MOL0     C67557   5.296   9.977   8.789  0.1604  0.0779  0.6763
  501MOL0     O67558   5.365   9.862   8.754  0.3078 -0.0447  0.8699
  501MOL0     C67559   5.328   9.737   8.809  0.1248 -0.1178  0.6590
  501MOL0     C67560   5.439   9.639   8.769 -0.3221 -0.3979  0.6474
  501MOL0     C67561   5.432   9.613   8.617 -0.0786 -0.6703  0.1946
  501MOL0     C67562   5.356   9.491   8.574  0.3589 -0.5767  0.2117
  501MOL0     C67563   5.400   9.461   8.438 -0.4755 -0.2437 -1.4125
  501MOL0     C67564   5.437   9.424   8.333  0.3045  0.2804  0.4426
  501MOL0     C67565   5.352  10.111   8.789 -0.6988 -0.1261  0.5392
  501MOL0     C67566   5.292  10.230   8.800  0.6951  0.2836  0.5018
  501MOL0     C67567   5.383  10.344   8.785  0.0913  0.3024  0.1812
  501MOL0     H67568   4.695  10.337   8.807 -0.6811 -1.2591  2.5729
  501MOL0     H67569   4.537  10.512   8.831  1.2561  3.0658 -3.9513
  501MOL0     H67570   4.416  10.587   9.000  2.3322  0.3634  0.4553
  501MOL0     H67571   4.375  10.726   9.100 -0.4798  0.7549  0.7558
  501MOL0     H67572   4.299  10.846   8.884  0.8200 -0.7404  1.8035
  501MOL0     H67573   4.224  10.680   8.894 -0.3269 -0.3049 -0.0181
  501MOL0     H67574   4.345  10.579   8.735  1.7499 -0.2698 -0.1379
  501MOL0     H67575   4.457  10.715   8.731  0.4727  0.4717  2.4214
  501MOL0     H67576   4.154  10.751   8.633 -0.2002  2.9948 -0.6227
  501MOL0     H67577   4.291  10.872   8.651  1.9991 -0.7267 -0.0343
  501MOL0     H67578   4.252  10.788   8.419  0.1844  1.5242  0.4318
  501MOL0     H67579   4.409  10.745   8.491  0.5896 -1.2964  1.9479
  501MOL0     H67580   4.286  10.504   8.550 -1.3404  0.6635  0.2330
  501MOL0     H67581   4.154  10.573   8.463 -0.9517 -1.1308  2.9553
  501MOL0     H67582   4.429  10.559   8.332 -1.1341  2.0819 -3.3318
  501MOL0     H67583   4.268  10.577   8.256 -0.4559  0.6261  0.1768
  501MOL0     H67584   4.383  10.321   8.371  0.0594  0.0074  1.0222
  501MOL0     H67585   4.206  10.344   8.365 -1.9200  3.2093  0.5181
  501MOL0     H67586   4.519  10.370   8.141 -0.0782 -0.8549  0.2626
  501MOL0     H67587   4.563  10.310   7.893 -1.0146 -1.4478  1.0117
  501MOL0     H67588   4.457  10.213   7.794 -0.1292  2.0884 -2.8919
  501MOL0     H67589   4.434  10.517   7.833  0.6609 -0.5743  0.8317
  501MOL0     H67590   4.506  10.446   7.692  1.3629 -1.4886  1.0791
  501MOL0     H67591   4.232  10.435   7.800  2.1797  2.2058  0.4618
  501MOL0     H67592   4.279  10.308   7.677  2.1743 -0.4250 -1.3700
  501MOL0     H67593   4.315  10.563   7.555 -0.8282  2.4378  1.0000
  501MOL0     H67594   4.164  10.569   7.644 -0.5006 -2.7004  2.4288
  501MOL0     H67595   4.434  10.401   7.453  0.4584 -0.9970 -1.8843
  501MOL0     H67596   4.540  10.254   7.276  0.7893 -0.5729  2.6792
  501MOL0     H67597   4.745  10.075   6.942  1.5500 -1.0248  0.3935
  501MOL0     H67598   4.816   9.899   6.779  0.0854 -1.8348 -2.5203
  501MOL0     H67599   4.774   9.450   6.758  1.6300 -0.7730  0.9972
  501MOL0     H67600   4.717   9.491   6.919  4.4153 -2.2207 -1.1234
  501MOL0     H67601   4.493   9.546   6.810 -1.4226 -1.0226 -0.0779
  501MOL0     H67602   4.556   9.496   6.657  0.0792  2.7132  0.9963
  501MOL0     H67603   4.427   9.313   6.743  0.6624  0.2507 -0.3206
  501MOL0     H67604   4.593   9.255   6.752  1.3079  0.5505  2.3968
  501MOL0     H67605   4.438   9.392   6.973  0.3371  0.6845 -0.4540
  501MOL0     H67606   4.600   9.310   6.984  0.5454  1.4162  0.0287
  501MOL0     H67607   4.333   9.181   6.964 -0.6471  0.7031  0.4856
  501MOL0     H67608   4.457   9.155   7.093  0.1676 -2.0044 -1.0292
  501MOL0     H67609   4.492   9.072   6.799  1.2085  3.0458  2.2524
  501MOL0     H67610   4.604   9.063   6.919  0.5729  0.0344  0.8634
  501MOL0     H67611   4.339   8.906   6.889 -0.0783  1.2464 -1.0096
  501MOL0     H67612   4.408   8.923   7.054 -0.4292  3.7824 -0.4855
  501MOL0     H67613   4.464   8.708   6.975 -1.3185  0.2714 -1.6340
  501MOL0     H67614   4.544   8.784   6.827 -0.4919  0.6408 -0.1120
  501MOL0     H67615   4.534   9.638   6.993 -1.3554  2.4092  0.9750
  501MOL0     H67616   4.456   9.817   7.126  0.3695 -0.0671  0.4638
  501MOL0     H67617   4.143  10.114   7.178 -2.8876  2.0117  1.8048
  501MOL0     H67618   4.050  10.257   7.349  0.7530 -2.6279 -0.7443
  501MOL0     H67619   4.797  10.719   9.107  1.1184  2.1505 -2.2947
  501MOL0     H67620   4.962  10.529   9.087 -0.0251  1.6880  0.9267
  501MOL0     H67621   4.980  10.093   8.843  0.0560 -1.7127 -1.8311
  501MOL0     H67622   5.116   9.885   8.801  0.1574 -0.4599 -3.4439
  501MOL0     H67623   5.226   9.707   8.780  0.1465 -0.2174  0.6845
  501MOL0     H67624   5.329   9.750   8.917  0.0055 -0.7942  0.7473
  501MOL0     H67625   5.435   9.539   8.814  0.7000 -0.8897 -0.2936
  501MOL0     H67626   5.537   9.686   8.785 -0.2785  0.3691 -1.5173
  501MOL0     H67627   5.536   9.603   8.585  0.9194 -0.1158  2.9973
  501MOL0     H67628   5.393   9.701   8.564 -1.2234 -0.3233  1.5483
  501MOL0     H67629   5.386   9.412   8.644  0.7395 -1.4427 -0.8879
  501MOL0     H67630   5.250   9.516   8.587  0.5518 -0.2652  1.3100
  501MOL0     H67631   5.466   9.387   8.236 -3.0631  3.0768 -1.9037
  501MOL0     H67632   5.459  10.122   8.774 -0.6869  0.0369  0.7308
  501MOL0     H67633   5.354  10.412   8.866 -3.3569 -2.1478  1.2399
  501MOL0     H67634   5.487  10.312   8.796 -1.2440 -4.4534  1.7751
  501MOL0     H67635   5.369  10.398   8.691  2.8756  0.3491 -0.2771
  502MOL0     O67636  10.226   6.687   5.916 -0.8519 -0.1264 -0.5071
  502MOL0     C67637  10.143   6.616   5.858 -0.0956 -0.7720  0.6765
  502MOL0     O67638  10.041   6.545   5.917 -0.6984  0.0327 -0.0355
  502MOL0     C67639  10.007   6.578   6.047 -0.2286  0.4453 -0.1972
  502MOL0     C67640   9.886   6.646   6.084  0.3999 -0.2349  0.0920
  502MOL0     C67641   9.849   6.656   6.220 -0.8259  0.3569  0.4670
  502MOL0     C67642   9.932   6.598   6.317  0.1876 -0.1696 -0.8357
  502MOL0     O67643   9.888   6.627   6.446  0.0241 -0.5335  0.2698
  502MOL0     C67644   9.962   6.599   6.568  0.4392 -0.2160 -0.0194
  502MOL0     C67645  10.088   6.675   6.573  0.4368  0.4665 -0.5149
  502MOL0     C67646  10.171   6.673   6.706  0.6977  0.7462  0.1146
  502MOL0     C67647  10.156   6.539   6.788 -0.4251  0.0862  0.7803
  502MOL0     C67648  10.223   6.540   6.921 -0.3989  0.3106 -0.6267
  502MOL0     C67649  10.121   6.567   7.033  0.5831  0.1156  1.1012
  502MOL0     C67650  10.000   6.474   7.062 -0.6180  0.1706  0.6809
  502MOL0     C67651  10.036   6.322   7.051 -0.2975  0.0764  0.0896
  502MOL0     N67652  10.001   6.276   6.915 -0.4223  1.1930  0.0948
  502MOL0     C67653   9.868   6.273   6.868 -0.4226  1.1166  0.4512
  502MOL0     C67654   9.866   6.212   6.742  0.3932 -0.3144 -0.7990
  502MOL0     C67655   9.746   6.208   6.655 -0.5068  0.5662 -0.2193
  502MOL0     C67656   9.766   6.268   6.521  0.3934 -0.0874  0.9500
  502MOL0     C67657   9.634   6.316   6.451  0.1175  0.2982  0.0304
  502MOL0     C67658   9.645   6.322   6.300  0.3969  0.1955  0.3275
  502MOL0     O67659   9.668   6.200   6.238 -0.1052 -0.2578 -0.1600
  502MOL0     C67660   9.709   6.206   6.109 -0.0316  0.6247 -0.1254
  502MOL0     C67661   9.703   6.313   6.019  0.1632 -0.3099 -0.6498
  502MOL0     C67662   9.760   6.306   5.892  0.6499 -0.3866  0.7982
  502MOL0     C67663   9.829   6.188   5.850  0.6688 -0.1495 -0.0366
  502MOL0     C67664   9.924   6.183   5.730 -0.7418 -0.5962  0.3592
  502MOL0     O67665  10.052   6.133   5.756  0.0239 -0.0027  0.7040
  502MOL0     C67666  10.135   6.137   5.649 -0.3983 -0.2405  0.0640
  502MOL0     C67667  10.133   6.042   5.541 -0.4016  0.1927  0.1749
  502MOL0     C67668  10.230   6.042   5.442 -0.4677 -0.4078 -0.0472
  502MOL0     C67669  10.332   6.141   5.437 -0.0079 -0.5154  0.6076
  502MOL0     O67670  10.449   6.135   5.364 -0.3147 -0.0256  0.6198
  502MOL0     C67671  10.406   6.162   5.222 -0.0595  0.2122 -0.2968
  502MOL0     C67672  10.525   6.123   5.136 -0.3557  0.2658  0.1028
  502MOL0     C67673  10.562   5.974   5.167  0.8723 -0.5207 -0.3333
  502MOL0     C67674  10.643   5.910   5.053  0.4255  0.4493  0.4359
  502MOL0     C67675  10.712   5.776   5.085 -1.4044  0.2903 -0.0805
  502MOL0     C67676  10.762   5.763   5.216 -0.3949 -0.6473 -0.6672
  502MOL0     C67677  10.853   5.632   5.215 -0.0295 -0.8180  0.1985
  502MOL0     C67678  10.882   5.613   5.367 -0.4957 -0.4519  0.4052
  502MOL0    Cl67679  10.994   5.472   5.385  0.2102 -0.3754 -0.6034
  502MOL0     C67680  10.343   6.229   5.552 -0.4727 -0.1505 -0.2510
  502MOL0     C67681  10.243   6.225   5.651  0.3429 -0.5472 -0.7531
  502MOL0     O67682   9.877   6.222   5.622  0.3782 -0.5311 -0.1078
  502MOL0     C67683   9.837   6.082   5.942  0.1626  0.0563 -0.6286
  502MOL0     C67684   9.775   6.086   6.071 -1.0402 -0.5931 -0.0490
  502MOL0     N67685   9.997   6.204   6.713  0.1626 -0.0022  0.1451
  502MOL0     N67686  10.075   6.225   6.812 -0.1238 -1.6329  0.1080
  502MOL0     C67687  10.042   6.512   6.286 -0.0778 -0.4994 -0.1111
  502MOL0     C67688  10.079   6.503   6.154 -0.1897 -0.7996  1.0590
  502MOL0     C67689  10.176   6.592   5.713 -0.2560  0.3646  0.6925
  502MOL0     C67690  10.068   6.539   5.639  0.1365  0.5666  0.8431
  502MOL0     C67691  10.086   6.526   5.498 -0.9605 -0.1996  0.9508
  502MOL0     C67692  10.211   6.563   5.442  0.0225  0.3125  0.5750
  502MOL0     O67693  10.231   6.524   5.306  0.7643 -0.7910 -0.1965
  502MOL0     C67694  10.131   6.556   5.204  0.6127  0.5004  0.0708
  502MOL0     C67695  10.197   6.548   5.067  0.1691  1.0119 -0.2223
  502MOL0     C67696  10.300   6.662   5.042 -0.2332  0.2451 -0.1643
  502MOL0     C67697  10.350   6.672   4.901 -0.6822 -0.2814  0.9245
  502MOL0     C67698  10.405   6.814   4.881 -0.0638  1.0140  0.8358
  502MOL0     C67699  10.445   6.923   4.856  0.0143 -0.2397 -0.3228
  502MOL0     C67700  10.313   6.613   5.515 -0.3832 -0.6414 -0.5858
  502MOL0     C67701  10.295   6.632   5.653 -0.4727  0.1738 -0.7231
  502MOL0     C67702  10.418   6.702   5.717 -1.5069  0.7090 -0.3505
  502MOL0     H67703   9.829   6.696   6.005 -3.4214 -0.7768  2.2820
  502MOL0     H67704   9.758   6.710   6.245 -0.1579  2.4225 -1.2960
  502MOL0     H67705   9.907   6.629   6.658  1.7827 -2.5457  1.6784
  502MOL0     H67706   9.986   6.493   6.582 -1.7192 -0.3832  3.7248
  502MOL0     H67707  10.047   6.774   6.551 -2.4858 -0.2473  1.1529
  502MOL0     H67708  10.161   6.634   6.503  0.7302 -1.7167  0.9414
  502MOL0     H67709  10.142   6.758   6.767  0.7171  1.1530 -0.4440
  502MOL0     H67710  10.277   6.685   6.682  0.5752  0.4040 -0.6314
  502MOL0     H67711  10.049   6.517   6.786 -1.2380  3.5819  0.3981
  502MOL0     H67712  10.205   6.468   6.720  0.1595  2.9592 -2.0295
  502MOL0     H67713  10.277   6.448   6.946  1.0682  1.0832 -0.8682
  502MOL0     H67714  10.305   6.611   6.932  0.1540  0.0137 -2.3959
  502MOL0     H67715  10.177   6.582   7.126  0.7814  1.8945  0.7473
  502MOL0     H67716  10.077   6.665   7.011  1.0965  0.8480  3.1069
  502MOL0     H67717   9.915   6.488   6.995 -1.0772  1.2598  1.4693
  502MOL0     H67718   9.967   6.487   7.165  0.6850 -1.1936  1.3164
  502MOL0     H67719  10.137   6.287   7.075  1.8302  3.2564 -3.1787
  502MOL0     H67720   9.971   6.265   7.117 -2.2507  1.0140 -0.9340
  502MOL0     H67721   9.775   6.303   6.917 -0.5491 -1.0347  1.6786
  502MOL0     H67722   9.707   6.107   6.642 -2.0338  1.1422 -0.3073
  502MOL0     H67723   9.656   6.259   6.690 -0.7811  0.7705 -1.1705
  502MOL0     H67724   9.835   6.353   6.518 -0.1273  0.3066 -1.2296
  502MOL0     H67725   9.817   6.199   6.453  1.5000 -0.5256  2.1805
  502MOL0     H67726   9.591   6.405   6.498  1.5857  1.9768 -1.6736
  502MOL0     H67727   9.559   6.238   6.469  1.4463 -0.5124  2.6506
  502MOL0     H67728   9.728   6.391   6.278  2.8285 -1.5532  3.2327
  502MOL0     H67729   9.552   6.369   6.266 -0.7616 -0.7237  2.0898
  502MOL0     H67730   9.646   6.399   6.053  3.4671  1.7220  0.1563
  502MOL0     H67731   9.750   6.393   5.828 -1.3478 -0.7752  0.5215
  502MOL0     H67732  10.047   5.977   5.534 -0.4855  0.3788 -0.5910
  502MOL0     H67733  10.229   5.962   5.368  0.3842  1.4462 -2.1643
  502MOL0     H67734  10.313   6.110   5.198  0.6707 -2.2021  1.7178
  502MOL0     H67735  10.389   6.270   5.223 -2.8508 -0.0408  3.4083
  502MOL0     H67736  10.495   6.135   5.031  0.6513  0.1939 -0.2043
  502MOL0     H67737  10.605   6.196   5.150 -0.1387  0.8864 -3.4335
  502MOL0     H67738  10.607   5.972   5.266 -1.0318  1.8189  0.6923
  502MOL0     H67739  10.468   5.919   5.175  0.0918  0.9097  0.8053
  502MOL0     H67740  10.711   5.987   5.015  1.0326 -0.1098  0.3719
  502MOL0     H67741  10.570   5.898   4.971  0.4272  0.8098  0.3813
  502MOL0     H67742  10.803   5.786   5.025 -1.7158 -0.0228 -0.6151
  502MOL0     H67743  10.656   5.688   5.052  1.2741 -1.7602  0.4846
  502MOL0     H67744  10.827   5.847   5.240 -1.1386  0.5235 -2.5709
  502MOL0     H67745  10.681   5.749   5.289 -1.4989 -0.1639 -1.7670
  502MOL0     H67746  10.944   5.639   5.154 -1.0193 -1.8428 -1.4794
  502MOL0     H67747  10.798   5.545   5.178  0.3399 -1.5636  1.3463
  502MOL0     H67748  10.941   5.694   5.410  2.1636 -1.5020 -1.0482
  502MOL0     H67749  10.789   5.595   5.422  0.2539  4.1580  3.8027
  502MOL0     H67750  10.417   6.308   5.565 -3.4155  2.4502  1.9930
  502MOL0     H67751  10.241   6.295   5.733  0.8908  1.4262 -2.3388
  502MOL0     H67752   9.886   5.989   5.913 -0.1110 -0.6604  1.0978
  502MOL0     H67753   9.775   5.995   6.130 -2.0469 -1.3773 -1.2057
  502MOL0     H67754  10.094   6.464   6.369 -0.4087 -0.9743 -0.1760
  502MOL0     H67755  10.165   6.443   6.125  0.3744  1.2088 -1.8805
  502MOL0     H67756   9.974   6.511   5.685  0.8601 -1.0728  1.4102
  502MOL0     H67757  10.008   6.481   5.437 -1.5620  2.3221 -0.2890
  502MOL0     H67758  10.085   6.654   5.223  1.0337  0.4474  1.4819
  502MOL0     H67759  10.053   6.480   5.216  0.2017  0.3047 -3.0891
  502MOL0     H67760  10.121   6.553   4.988 -2.0143  2.3619  1.8200
  502MOL0     H67761  10.249   6.452   5.059  0.8011  1.4046 -0.9773
  502MOL0     H67762  10.379   6.636   5.113 -1.5665  0.2937  1.4031
  502MOL0     H67763  10.252   6.755   5.072 -0.3691  0.2276 -0.3248
  502MOL0     H67764  10.424   6.594   4.882 -1.9164 -1.2438 -0.1901
  502MOL0     H67765  10.272   6.655   4.826  0.6573  2.5158 -1.2812
  502MOL0     H67766  10.470   7.023   4.828 -2.4829  0.4178 -0.4458
  502MOL0     H67767  10.406   6.645   5.468 -1.5105  3.2745 -0.4356
  502MOL0     H67768  10.505   6.686   5.653 -0.7584 -0.1208  0.8373
  502MOL0     H67769  10.389   6.807   5.716  0.2026  1.2688  1.4157
  502MOL0     H67770  10.443   6.666   5.817 -1.8819  3.1625  0.6988
  503MOL0     O67771   7.237   1.016   0.824 -0.1789 -0.1064 -0.0299
  503MOL0     C67772   7.240   1.023   0.699  0.6581 -0.2761 -0.4945
  503MOL0     O67773   7.357   1.053   0.626  0.6805 -0.3871 -0.5837
  503MOL0     C67774   7.470   1.088   0.679  0.2023 -0.0436  0.2988
  503MOL0     C67775   7.540   1.030   0.788 -0.3554  0.5103 -0.0330
  503MOL0     C67776   7.671   1.072   0.822  0.0132  0.5536  0.5380
  503MOL0     C67777   7.743   1.166   0.748 -0.0670 -0.7757  1.4346
  503MOL0     O67778   7.866   1.225   0.787 -0.0610  0.1476 -0.2141
  503MOL0     C67779   7.967   1.275   0.694  0.5642 -0.1869  0.4191
  503MOL0     C67780   8.095   1.302   0.775  0.3417  1.1625 -0.1293
  503MOL0     C67781   8.217   1.361   0.683 -0.3332  0.2308 -0.0033
  503MOL0     C67782   8.339   1.402   0.761  0.1088  0.0914  0.4291
  503MOL0     C67783   8.457   1.456   0.681  0.5212  0.6689 -0.0456
  503MOL0     C67784   8.413   1.597   0.618  0.0121  0.2970  0.6688
  503MOL0     C67785   8.532   1.677   0.563  0.2776 -0.2938 -0.0986
  503MOL0     C67786   8.632   1.743   0.662 -0.2278  0.2846 -0.1867
  503MOL0     N67787   8.752   1.776   0.583  0.0255 -0.1872 -0.6432
  503MOL0     C67788   8.861   1.701   0.558  0.0311 -0.3535  0.5227
  503MOL0     C67789   8.919   1.763   0.451 -0.7319 -0.3981  0.1941
  503MOL0     C67790   9.044   1.705   0.376  0.4181  0.7568 -1.0551
  503MOL0     C67791   9.026   1.687   0.227  0.5960 -0.0062 -0.6320
  503MOL0     C67792   9.140   1.587   0.182  0.4461  0.2654  1.3511
  503MOL0     C67793   9.169   1.596   0.022  0.5345  0.2289 -0.2404
  503MOL0     O67794   9.233   1.476  -0.014 -0.0171  0.1783  0.1735
  503MOL0     C67795   9.202   1.416  -0.140 -0.3779  0.5183 -0.5185
  503MOL0     C67796   9.178   1.278  -0.145 -0.2897  0.3695  0.2563
  503MOL0     C67797   9.140   1.216  -0.263  0.7502 -0.9316  0.0492
  503MOL0     C67798   9.119   1.291  -0.378  1.0337 -1.0855 -1.5635
  503MOL0     C67799   9.067   1.235  -0.505 -0.2854 -0.8628  0.2978
  503MOL0     O67800   8.986   1.322  -0.589  0.0438  0.4267  0.2538
  503MOL0     C67801   8.940   1.270  -0.712 -0.3042 -0.2564  0.0464
  503MOL0     C67802   8.817   1.205  -0.726 -0.3311 -0.3735 -0.5177
  503MOL0     C67803   8.770   1.139  -0.845  0.9522  0.2655 -0.2117
  503MOL0     C67804   8.851   1.144  -0.948 -0.0473 -0.1382  0.1655
  503MOL0     O67805   8.826   1.061  -1.055  0.4518  0.8013  0.8326
  503MOL0     C67806   8.947   1.020  -1.124 -0.1960 -0.1894 -0.5906
  503MOL0     C67807   8.931   0.886  -1.203  0.0563  0.6932 -0.0431
  503MOL0     C67808   8.951   0.755  -1.103  0.0662  0.1588  0.1956
  503MOL0     C67809   8.869   0.632  -1.156  0.6199  0.9900  1.2537
  503MOL0     C67810   8.852   0.500  -1.069 -0.3718  0.0841  0.5854
  503MOL0     C67811   8.990   0.436  -1.023  1.1391 -0.3723  0.3733
  503MOL0     C67812   8.972   0.300  -0.960 -0.5765  0.8136 -0.2874
  503MOL0     C67813   8.946   0.188  -1.062  0.3270 -0.2308  0.6042
  503MOL0    Cl67814   9.002   0.031  -1.001 -0.0693  0.3859  0.2426
  503MOL0     C67815   8.983   1.215  -0.938  0.5250  0.0434  0.3884
  503MOL0     C67816   9.015   1.276  -0.821 -1.1033  0.0286  1.0580
  503MOL0     O67817   9.083   1.114  -0.524  0.3019  0.3047  0.0068
  503MOL0     C67818   9.129   1.427  -0.365 -0.4133 -0.5750  0.4141
  503MOL0     C67819   9.185   1.488  -0.257  0.9736  0.2976 -0.7080
  503MOL0     N67820   8.846   1.870   0.416 -0.0296  0.6252  0.0156
  503MOL0     N67821   8.754   1.885   0.504 -0.1559  0.7700  0.3101
  503MOL0     C67822   7.669   1.228   0.643 -0.5725  0.2938  0.6488
  503MOL0     C67823   7.542   1.182   0.608  0.1819 -0.1968  0.4641
  503MOL0     C67824   7.122   0.990   0.619 -0.1879 -0.6027 -0.1276
  503MOL0     C67825   7.134   0.975   0.478 -0.1243 -0.2460  0.3201
  503MOL0     C67826   7.031   0.933   0.400 -0.0747  0.2048  0.5463
  503MOL0     C67827   6.904   0.907   0.449  0.7430  1.1581  0.1138
  503MOL0     O67828   6.808   0.848   0.367  0.1927  0.6716 -0.5131
  503MOL0     C67829   6.725   0.953   0.293  0.4372 -0.0813 -0.6398
  503MOL0     C67830   6.617   0.881   0.212  0.5022  0.1540 -0.9258
  503MOL0     C67831   6.565   0.967   0.095 -0.3723  0.4005  0.1035
  503MOL0     C67832   6.417   0.932   0.074 -0.3551 -0.4416 -0.4697
  503MOL0     C67833   6.363   1.002  -0.037  0.7918 -0.3618  1.0664
  503MOL0     C67834   6.332   1.063  -0.141  0.5020 -0.4402 -0.1515
  503MOL0     C67835   6.879   0.928   0.587 -0.8809  0.5560 -0.0491
  503MOL0     C67836   6.989   0.967   0.669  0.4133  0.4070  0.8627
  503MOL0     C67837   6.957   0.975   0.814  0.0635 -0.0887 -0.9074
  503MOL0     H67838   7.477   0.958   0.840  1.9510 -1.3918  0.2766
  503MOL0     H67839   7.713   1.022   0.909 -0.4623  0.3699  0.6656
  503MOL0     H67840   7.997   1.202   0.618  3.0211  1.1649  0.0062
  503MOL0     H67841   7.923   1.361   0.643  0.9640  1.1454  2.2106
  503MOL0     H67842   8.125   1.200   0.799 -0.9530  0.7885 -0.0205
  503MOL0     H67843   8.066   1.366   0.858 -0.0557  0.4288  0.3069
  503MOL0     H67844   8.184   1.446   0.622  1.7981  0.7356 -0.5536
  503MOL0     H67845   8.256   1.282   0.618  2.3444  0.6296  1.0098
  503MOL0     H67846   8.331   1.478   0.840  0.5945 -1.6797  2.2729
  503MOL0     H67847   8.361   1.319   0.828 -1.5124  1.2067  2.5027
  503MOL0     H67848   8.539   1.478   0.750  1.2925  0.6205 -0.9169
  503MOL0     H67849   8.493   1.383   0.608 -0.8769  2.2764 -2.4834
  503MOL0     H67850   8.343   1.568   0.539  0.6244 -1.7868  0.8533
  503MOL0     H67851   8.353   1.656   0.688 -2.7890 -3.3492  1.6444
  503MOL0     H67852   8.489   1.763   0.509 -1.2545 -0.3762  0.9253
  503MOL0     H67853   8.582   1.606   0.497  0.2965  1.7472 -2.4511
  503MOL0     H67854   8.589   1.833   0.708 -4.1964 -0.7060 -1.5262
  503MOL0     H67855   8.664   1.674   0.740  0.0291  0.8902  0.2521
  503MOL0     H67856   8.888   1.604   0.600 -1.5070 -0.1186  2.1853
  503MOL0     H67857   9.128   1.766   0.411  2.9770 -2.3736 -1.3743
  503MOL0     H67858   9.062   1.608   0.423 -0.0027  1.3883  0.4915
  503MOL0     H67859   8.925   1.658   0.197 -0.4305  2.2404  0.4168
  503MOL0     H67860   9.037   1.784   0.178  2.9287  0.6531  1.0143
  503MOL0     H67861   9.114   1.487   0.217 -1.2960 -0.5109 -1.8038
  503MOL0     H67862   9.235   1.615   0.228  3.1124 -1.2912 -2.6414
  503MOL0     H67863   9.238   1.676  -0.006 -0.5221  0.7586 -1.4272
  503MOL0     H67864   9.076   1.616  -0.033 -0.8544 -1.8917  1.1907
  503MOL0     H67865   9.183   1.227  -0.050 -2.6390 -0.2223  0.1238
  503MOL0     H67866   9.131   1.108  -0.262 -2.6444 -0.7614  0.5196
  503MOL0     H67867   8.752   1.186  -0.641 -0.1875 -0.0268 -0.3302
  503MOL0     H67868   8.676   1.085  -0.838  0.4396  1.2841  5.1970
  503MOL0     H67869   8.969   1.098  -1.198 -0.4039  3.9679  3.3075
  503MOL0     H67870   9.039   1.011  -1.066  0.3581  0.6753 -1.3118
  503MOL0     H67871   8.828   0.886  -1.239 -1.1445  0.5945  3.1504
  503MOL0     H67872   8.997   0.874  -1.290 -0.4370 -1.1288 -0.2035
  503MOL0     H67873   9.055   0.727  -1.083 -0.1991 -1.1502 -0.1606
  503MOL0     H67874   8.916   0.783  -1.003  0.2237  1.3640 -0.0649
  503MOL0     H67875   8.921   0.601  -1.247 -0.8829 -0.5998  0.8711
  503MOL0     H67876   8.768   0.666  -1.182  0.5877 -0.2822 -0.4883
  503MOL0     H67877   8.797   0.432  -1.135  5.1365 -0.9796 -3.6361
  503MOL0     H67878   8.783   0.523  -0.988 -2.1411 -0.8125 -0.5867
  503MOL0     H67879   9.049   0.431  -1.115  2.1588  2.0864  0.8232
  503MOL0     H67880   9.043   0.509  -0.961  2.0010 -1.2856  0.7599
  503MOL0     H67881   8.881   0.291  -0.899 -2.0479  3.0681 -1.9890
  503MOL0     H67882   9.058   0.266  -0.900 -0.8380 -2.5658 -1.6141
  503MOL0     H67883   8.839   0.168  -1.067  0.5271 -1.3294  0.6275
  503MOL0     H67884   8.995   0.208  -1.158  0.2453 -0.8234  0.4373
  503MOL0     H67885   9.057   1.209  -1.017  0.7730  3.8447  0.1532
  503MOL0     H67886   9.109   1.327  -0.805 -0.6740 -0.5706  0.4942
  503MOL0     H67887   9.115   1.484  -0.456 -1.6914 -0.4190  0.6904
  503MOL0     H67888   9.199   1.595  -0.240 -1.2303  0.4587  0.4129
  503MOL0     H67889   7.699   1.314   0.584 -1.7299  1.2848  1.4580
  503MOL0     H67890   7.488   1.234   0.530  2.1507 -1.8966 -2.2148
  503MOL0     H67891   7.234   0.996   0.442 -0.0120 -0.9120  0.2417
  503MOL0     H67892   7.036   0.910   0.294 -0.7058 -2.7207  1.0648
  503MOL0     H67893   6.794   1.024   0.246 -0.4146 -0.7993 -3.1537
  503MOL0     H67894   6.680   1.019   0.368  1.9803  3.3335 -2.4930
  503MOL0     H67895   6.540   0.849   0.284  1.1452  0.2538 -0.1853
  503MOL0     H67896   6.658   0.794   0.161 -1.1999 -0.7348 -0.8778
  503MOL0     H67897   6.628   0.952   0.007 -0.0848 -0.4069  0.4422
  503MOL0     H67898   6.567   1.074   0.117 -1.1553  1.3012 -3.6255
  503MOL0     H67899   6.400   0.825   0.055 -2.4906 -0.3146  0.4805
  503MOL0     H67900   6.360   0.959   0.163  1.0275  1.5629 -0.1510
  503MOL0     H67901   6.316   1.101  -0.239 -1.6702 -2.4015 -0.6478
  503MOL0     H67902   6.774   0.918   0.616 -0.5609 -0.5759  0.8110
  503MOL0     H67903   6.857   0.938   0.837 -0.2263  1.9098  1.5332
  503MOL0     H67904   7.026   0.912   0.871 -0.8888 -0.6175 -0.3164
  503MOL0     H67905   6.960   1.077   0.854  1.8538 -0.0816 -0.9688
  504MOL0     O67906   2.238   8.124   6.525  0.5276 -0.0227 -0.2536
  504MOL0     C67907   2.307   8.062   6.610 -0.1742 -1.5284  0.3774
  504MOL0     O67908   2.295   7.922   6.630 -0.8047 -0.2573  0.2474
  504MOL0     C67909   2.181   7.870   6.585  0.8067  0.7527 -1.3092
  504MOL0     C67910   2.192   7.779   6.479 -0.0038 -0.0937 -0.0332
  504MOL0     C67911   2.085   7.710   6.428  0.6119 -0.4830 -0.6826
  504MOL0     C67912   1.956   7.749   6.479 -0.1565 -0.6137  0.4337
  504MOL0     O67913   1.851   7.683   6.428  0.3698  0.1786 -0.2072
  504MOL0     C67914   1.830   7.550   6.487  0.7110 -0.0986 -0.0499
  504MOL0     C67915   1.690   7.529   6.529 -0.6797 -0.1755 -1.0407
  504MOL0     C67916   1.626   7.439   6.415 -0.1823 -0.1617  0.0124
  504MOL0     C67917   1.475   7.448   6.431  0.4022  0.5267 -0.5419
  504MOL0     C67918   1.406   7.333   6.361 -0.2263  0.9248 -0.6776
  504MOL0     C67919   1.416   7.342   6.212 -0.2548  0.6143  0.6345
  504MOL0     C67920   1.296   7.405   6.143  0.4817 -0.9891 -1.9760
  504MOL0     C67921   1.304   7.427   5.996  0.0695 -0.1908  0.0383
  504MOL0     N67922   1.199   7.506   5.934 -1.4056  0.6213  0.8891
  504MOL0     C67923   1.063   7.494   5.935  0.0092  0.5239 -1.0735
  504MOL0     C67924   1.021   7.576   5.836  0.2130 -0.4403 -0.6393
  504MOL0     C67925   0.867   7.578   5.806  0.4946  0.2645  0.5290
  504MOL0     C67926   0.831   7.722   5.780 -0.1182  0.5160  0.2109
  504MOL0     C67927   0.677   7.741   5.772  0.0674  0.8079 -0.0972
  504MOL0     C67928   0.623   7.870   5.717 -0.7959  0.2654 -0.5075
  504MOL0     O67929   0.671   7.905   5.589 -0.4875  0.7593  0.7799
  504MOL0     C67930   0.654   8.032   5.544 -0.6292 -1.0385  0.2363
  504MOL0     C67931   0.569   8.133   5.602 -0.1294  0.1221  0.3782
  504MOL0     C67932   0.551   8.259   5.554 -0.0642 -0.0823  0.1465
  504MOL0     C67933   0.615   8.298   5.433  0.5545 -0.2342 -0.5598
  504MOL0     C67934   0.615   8.434   5.369  0.3922  1.0566 -0.7890
  504MOL0     O67935   0.681   8.442   5.256 -0.2297  0.5168 -0.2956
  504MOL0     C67936   0.663   8.550   5.184  1.2953 -0.7551  1.0720
  504MOL0     C67937   0.547   8.553   5.108 -0.4437 -0.4806  0.7908
  504MOL0     C67938   0.517   8.666   5.024  0.1861  0.9068  1.3094
  504MOL0     C67939   0.618   8.770   5.015  0.3951 -0.2294 -0.2963
  504MOL0     O67940   0.599   8.897   4.959  0.2689  1.0838 -0.4614
  504MOL0     C67941   0.468   8.931   4.911 -0.0177 -0.4469  0.8609
  504MOL0     C67942   0.382   8.985   5.025 -0.0544 -0.5636  0.2046
  504MOL0     C67943   0.457   9.102   5.106  0.0669 -0.0111  0.6636
  504MOL0     C67944   0.360   9.159   5.210 -1.0584 -0.2362 -0.6126
  504MOL0     C67945   0.403   9.293   5.268 -0.6909  0.8138 -0.2321
  504MOL0     C67946   0.280   9.340   5.350  0.0896  0.7197  0.5365
  504MOL0     C67947   0.313   9.437   5.458  0.6393 -0.2060 -0.1510
  504MOL0     C67948   0.194   9.491   5.537  0.3644 -0.2543  0.6289
  504MOL0    Cl67949   0.104   9.354   5.630  0.1608  0.0200  0.5509
  504MOL0     C67950   0.736   8.768   5.088 -1.0025 -0.5488  0.8485
  504MOL0     C67951   0.758   8.656   5.170 -0.2004  0.1841 -1.3369
  504MOL0     O67952   0.553   8.524   5.433 -0.4790 -0.1707  0.7082
  504MOL0     C67953   0.699   8.200   5.378  0.2841 -0.3700 -0.5071
  504MOL0     C67954   0.731   8.076   5.434  0.4825  0.6001 -0.1800
  504MOL0     N67955   1.126   7.640   5.778 -0.4966  0.5865  0.2520
  504MOL0     N67956   1.234   7.602   5.845  0.4031  0.1064  0.0329
  504MOL0     C67957   1.940   7.840   6.589 -0.0334  1.3454  0.2457
  504MOL0     C67958   2.051   7.902   6.640 -0.7220  0.0579  0.1216
  504MOL0     C67959   2.431   8.130   6.666  0.9880 -0.7921  0.6429
  504MOL0     C67960   2.560   8.068   6.661 -0.0903 -0.5755 -0.4863
  504MOL0     C67961   2.673   8.146   6.694 -0.6575 -0.6689  0.8918
  504MOL0     C67962   2.671   8.272   6.716  0.1437  0.4677  0.3600
  504MOL0     O67963   2.789   8.330   6.733  0.2222 -0.0183  0.2906
  504MOL0     C67964   2.804   8.454   6.793  1.2827 -0.5849  1.2146
  504MOL0     C67965   2.947   8.497   6.831 -0.1397 -0.1227 -0.5563
  504MOL0     C67966   3.024   8.376   6.890 -0.8138  0.1134  0.2828
  504MOL0     C67967   2.960   8.313   7.019 -0.0570  0.1427  0.8795
  504MOL0     C67968   2.997   8.177   7.030  0.1797  0.6495  0.3105
  504MOL0     C67969   3.049   8.074   7.038  0.4226 -0.8353  0.0719
  504MOL0     C67970   2.540   8.333   6.721  0.0936 -0.5250  1.2711
  504MOL0     C67971   2.419   8.256   6.720  0.1724 -0.1518  0.4054
  504MOL0     C67972   2.287   8.330   6.746 -0.1779 -0.2432  0.5252
  504MOL0     H67973   2.291   7.750   6.446 -0.8991 -1.6131 -1.5077
  504MOL0     H67974   2.091   7.647   6.339 -1.4618 -1.9520  0.1258
  504MOL0     H67975   1.847   7.476   6.408 -2.9845 -0.4609 -0.6834
  504MOL0     H67976   1.898   7.537   6.572  2.1331 -1.5730 -1.3379
  504MOL0     H67977   1.643   7.626   6.548  2.3788  1.6160 -1.8749
  504MOL0     H67978   1.695   7.481   6.627  0.9415  4.4278  1.4374
  504MOL0     H67979   1.667   7.339   6.429 -0.6306 -0.2227  0.9683
  504MOL0     H67980   1.644   7.469   6.311 -0.2944  1.5375  0.4507
  504MOL0     H67981   1.455   7.441   6.538 -0.6644  0.9761 -0.6991
  504MOL0     H67982   1.435   7.543   6.396 -1.1050  0.2043  0.2220
  504MOL0     H67983   1.456   7.245   6.401  0.6696  1.8440  0.2734
  504MOL0     H67984   1.299   7.330   6.385 -0.5209 -2.9338 -1.8744
  504MOL0     H67985   1.504   7.393   6.171 -2.9503  3.3790 -2.3321
  504MOL0     H67986   1.426   7.246   6.162 -0.7159  1.1014 -0.4357
  504MOL0     H67987   1.293   7.510   6.175  0.6355 -0.6113 -3.1493
  504MOL0     H67988   1.197   7.362   6.153 -1.4474  2.9091 -2.2942
  504MOL0     H67989   1.396   7.486   5.989 -1.5747  2.5506  0.4424
  504MOL0     H67990   1.302   7.334   5.938 -3.6614 -0.7424  0.8030
  504MOL0     H67991   1.013   7.412   5.986 -2.0911  1.9278 -0.7346
  504MOL0     H67992   0.840   7.507   5.727  1.8418  0.3271 -0.0302
  504MOL0     H67993   0.815   7.543   5.896  1.0724  0.8272  1.1023
  504MOL0     H67994   0.876   7.780   5.861 -1.1427  1.5147  0.0864
  504MOL0     H67995   0.873   7.753   5.683  2.3316 -0.3081  0.9376
  504MOL0     H67996   0.616   7.705   5.856 -0.5423 -0.0281 -0.8712
  504MOL0     H67997   0.649   7.654   5.711  1.8495 -0.2482  0.5062
  504MOL0     H67998   0.651   7.948   5.789 -3.0533  1.0876 -0.4365
  504MOL0     H67999   0.515   7.853   5.717 -0.6209 -0.9814  0.3562
  504MOL0     H68000   0.524   8.105   5.697 -1.0461  1.9982  0.5554
  504MOL0     H68001   0.495   8.336   5.605  2.2105  0.6820  1.6215
  504MOL0     H68002   0.489   8.461   5.109 -2.9460  0.8693 -1.8712
  504MOL0     H68003   0.418   8.667   4.978  0.9786  0.0221 -0.5276
  504MOL0     H68004   0.480   9.002   4.829  2.4323 -2.4522 -0.6625
  504MOL0     H68005   0.428   8.842   4.861  0.2252 -3.0086  4.7632
  504MOL0     H68006   0.288   9.024   4.984 -0.3145  0.2352  1.4824
  504MOL0     H68007   0.359   8.893   5.080 -0.3465 -2.1595 -2.4348
  504MOL0     H68008   0.547   9.066   5.157  1.2646 -1.6074 -2.3877
  504MOL0     H68009   0.480   9.187   5.042 -0.3824 -1.3231 -1.3171
  504MOL0     H68010   0.377   9.091   5.294 -0.1390  2.9082  1.9418
  504MOL0     H68011   0.258   9.168   5.171 -0.8834 -0.3990 -1.1112
  504MOL0     H68012   0.426   9.370   5.193 -0.3134 -0.9930 -2.0631
  504MOL0     H68013   0.491   9.291   5.333 -0.1115 -0.3820 -1.0331
  504MOL0     H68014   0.214   9.388   5.277 -0.8670  2.0933  2.2421
  504MOL0     H68015   0.225   9.252   5.384  1.2635 -0.5239 -0.6536
  504MOL0     H68016   0.377   9.518   5.422 -0.7830 -0.1741 -2.8780
  504MOL0     H68017   0.378   9.379   5.524  0.8902 -1.4711 -1.4748
  504MOL0     H68018   0.231   9.567   5.607 -1.4873 -1.0015  2.5487
  504MOL0     H68019   0.130   9.540   5.463  0.1380 -1.5949 -0.0812
  504MOL0     H68020   0.803   8.851   5.073 -1.9551 -0.0947 -1.3097
  504MOL0     H68021   0.850   8.645   5.226 -0.6015  3.2704  0.1390
  504MOL0     H68022   0.758   8.227   5.290 -2.6034 -0.1478 -2.5021
  504MOL0     H68023   0.804   8.006   5.395  0.1207  0.8613 -1.3860
  504MOL0     H68024   1.841   7.862   6.628 -0.6372 -1.0624  0.2329
  504MOL0     H68025   2.039   7.980   6.714  0.6316  0.1038  0.3241
  504MOL0     H68026   2.580   7.965   6.634  0.9808 -1.1934  2.3312
  504MOL0     H68027   2.771   8.102   6.709 -0.2931  0.4854  2.1289
  504MOL0     H68028   2.746   8.454   6.886 -1.7117  1.2181 -0.4434
  504MOL0     H68029   2.768   8.530   6.723 -0.7976 -1.2595  1.4805
  504MOL0     H68030   2.957   8.571   6.912  2.4659  0.8379 -1.6401
  504MOL0     H68031   3.008   8.533   6.748 -0.0099  0.5957 -0.1679
  504MOL0     H68032   3.127   8.407   6.911 -1.4389  2.0111  0.7852
  504MOL0     H68033   3.025   8.302   6.809  1.1422  0.1982  0.1796
  504MOL0     H68034   2.977   8.363   7.115 -0.1376 -0.9473  1.4864
  504MOL0     H68035   2.851   8.319   7.016  0.0145  2.0591  1.2002
  504MOL0     H68036   3.098   7.980   7.048 -1.6883 -1.8521  1.6151
  504MOL0     H68037   2.539   8.441   6.733  1.1515 -0.4807  1.0540
  504MOL0     H68038   2.213   8.329   6.665  2.4748  1.7749 -2.1587
  504MOL0     H68039   2.247   8.286   6.838  0.9111  1.9849  2.1603
  504MOL0     H68040   2.310   8.431   6.781 -0.0641 -0.3846  0.8552
  505MOL0     O68041   3.581   9.242   3.485 -0.6721  0.1472  0.3088
  505MOL0     C68042   3.489   9.201   3.553  0.5768  0.2010 -0.6476
  505MOL0     O68043   3.427   9.277   3.642  0.1262  0.8125  0.5503
  505MOL0     C68044   3.477   9.396   3.692 -0.2913 -0.2577  0.8361
  505MOL0     C68045   3.425   9.421   3.822  0.0480  0.5410 -0.0242
  505MOL0     C68046   3.458   9.547   3.876 -0.0312  0.1244  0.3611
  505MOL0     C68047   3.524   9.640   3.803 -0.6816 -0.6989 -0.1437
  505MOL0     O68048   3.547   9.753   3.869  0.1530 -0.3453 -0.3938
  505MOL0     C68049   3.674   9.810   3.878  0.8487 -1.3869  0.2650
  505MOL0     C68050   3.711   9.804   4.035  0.1414  0.1797  0.7149
  505MOL0     C68051   3.732   9.660   4.079 -0.2965  0.4250 -0.5912
  505MOL0     C68052   3.795   9.650   4.220 -0.8871  0.0036 -0.2770
  505MOL0     C68053   3.827   9.501   4.264 -0.4191  0.3868  0.1675
  505MOL0     C68054   3.916   9.486   4.389 -0.6059  0.5496 -0.2740
  505MOL0     C68055   3.840   9.543   4.507 -0.3883 -0.4659 -0.3719
  505MOL0     C68056   3.890   9.486   4.642 -0.1083 -0.7131  0.5662
  505MOL0     N68057   4.032   9.509   4.669 -0.1565  0.2076  0.0022
  505MOL0     C68058   4.084   9.633   4.696 -1.0498  0.3460 -0.4668
  505MOL0     C68059   4.217   9.607   4.716 -0.2653 -0.4276 -0.0526
  505MOL0     C68060   4.322   9.711   4.758  0.3066 -0.4665 -0.2037
  505MOL0     C68061   4.358   9.694   4.910  0.9445  0.7381  0.5525
  505MOL0     C68062   4.449   9.798   4.955 -0.2021 -0.5434  0.6962
  505MOL0     C68063   4.355   9.915   5.020  1.2566 -0.2363  0.9639
  505MOL0     O68064   4.410  10.029   5.095  0.0496 -0.4645 -0.4634
  505MOL0     C68065   4.456  10.139   5.026  0.9812 -0.2985 -0.6495
  505MOL0     C68066   4.496  10.251   5.096  0.1127 -0.0378  0.7990
  505MOL0     C68067   4.535  10.372   5.031  0.4131  0.2673  0.2343
  505MOL0     C68068   4.541  10.370   4.888 -0.0039 -0.2318  1.2030
  505MOL0     C68069   4.568  10.498   4.819 -0.5760  0.7268  0.1635
  505MOL0     O68070   4.547  10.609   4.891  0.8612  0.2667 -0.4874
  505MOL0     C68071   4.619  10.726   4.874  0.0792  0.5508 -0.3957
  505MOL0     C68072   4.760  10.733   4.853 -0.1608  0.2334 -0.4006
  505MOL0     C68073   4.824  10.854   4.854 -0.7641  0.4422  0.9176
  505MOL0     C68074   4.754  10.972   4.851 -0.0070  0.3805 -0.7285
  505MOL0     O68075   4.829  11.074   4.811 -0.5949  0.4730  0.0576
  505MOL0     C68076   4.747  11.181   4.751 -0.5023  0.5286  0.0146
  505MOL0     C68077   4.691  11.123   4.620  0.0891 -0.3354 -0.1066
  505MOL0     C68078   4.662  11.241   4.523  0.1654  0.5388 -0.4609
  505MOL0     C68079   4.586  11.185   4.406  0.4030 -0.0768  0.5047
  505MOL0     C68080   4.517  11.293   4.319 -0.3606 -0.4736 -0.3911
  505MOL0     C68081   4.422  11.243   4.206  0.4726  0.1542  0.6652
  505MOL0     C68082   4.349  11.366   4.150 -1.1720  0.2511  0.2789
  505MOL0     C68083   4.246  11.313   4.057 -0.2102  0.4037 -0.3260
  505MOL0    Cl68084   4.144  11.448   4.000  0.3145 -0.2232  0.1433
  505MOL0     C68085   4.623  10.967   4.881  0.2164  0.0135 -0.7789
  505MOL0     C68086   4.550  10.847   4.893 -1.0539  0.7729 -0.5610
  505MOL0     O68087   4.592  10.494   4.696 -0.0637  0.1465  0.2487
  505MOL0     C68088   4.503  10.257   4.820 -0.5392  0.3728 -0.4483
  505MOL0     C68089   4.459  10.151   4.887  0.1600  0.5378  0.1408
  505MOL0     N68090   4.239   9.474   4.679  0.4767 -0.7880  0.6859
  505MOL0     N68091   4.127   9.415   4.645 -0.5884  0.1522 -0.0706
  505MOL0     C68092   3.585   9.607   3.679  0.6355 -1.2129  0.1982
  505MOL0     C68093   3.565   9.481   3.632  0.2933  0.3687 -0.2375
  505MOL0     C68094   3.449   9.060   3.558  0.3679 -0.4597 -0.0060
  505MOL0     C68095   3.527   8.968   3.478  0.1255  0.3954 -0.5166
  505MOL0     C68096   3.516   8.826   3.493 -0.7523  0.0144 -0.6783
  505MOL0     C68097   3.413   8.780   3.577  0.1265  0.6411  0.1081
  505MOL0     O68098   3.397   8.641   3.604 -0.1432  0.1265  0.2327
  505MOL0     C68099   3.508   8.595   3.687 -0.1873  0.4755 -0.1137
  505MOL0     C68100   3.428   8.512   3.800 -0.2646 -0.2336 -0.8847
  505MOL0     C68101   3.367   8.589   3.922 -0.2470 -0.0853 -1.6546
  505MOL0     C68102   3.488   8.657   4.008  0.7400  0.3374 -0.2031
  505MOL0     C68103   3.428   8.706   4.133  0.1042 -0.0193 -0.0901
  505MOL0     C68104   3.391   8.752   4.233 -0.1319 -0.1302 -0.7929
  505MOL0     C68105   3.323   8.866   3.639  0.6655 -0.5733 -0.5066
  505MOL0     C68106   3.336   9.008   3.631  0.0528  0.6267 -0.4760
  505MOL0     C68107   3.237   9.092   3.710  0.3348 -0.0662 -1.1892
  505MOL0     H68108   3.368   9.340   3.864  0.2083 -0.2716 -1.3185
  505MOL0     H68109   3.427   9.573   3.977  0.2135 -0.1172  0.5003
  505MOL0     H68110   3.744   9.754   3.815 -0.9733 -1.6877 -1.6119
  505MOL0     H68111   3.675   9.914   3.846 -0.8949 -1.4566 -0.1237
  505MOL0     H68112   3.625   9.842   4.091 -0.5472 -0.4586  0.1156
  505MOL0     H68113   3.807   9.853   4.054  1.5002 -2.4341  1.0044
  505MOL0     H68114   3.780   9.601   4.001 -2.6176 -2.7504  0.1690
  505MOL0     H68115   3.635   9.610   4.088  0.8564 -2.1201 -1.2884
  505MOL0     H68116   3.883   9.714   4.227 -0.3063 -0.4652 -2.5427
  505MOL0     H68117   3.729   9.690   4.298  0.9279  1.6453  0.4825
  505MOL0     H68118   3.735   9.444   4.282 -0.3533 -0.0272 -0.7842
  505MOL0     H68119   3.870   9.454   4.176 -1.5938  2.0649 -1.3635
  505MOL0     H68120   3.938   9.380   4.407  3.0172  0.9941 -1.2601
  505MOL0     H68121   4.014   9.529   4.366 -0.6659 -0.6807 -3.3237
  505MOL0     H68122   3.733   9.520   4.502 -0.0280 -2.0264 -1.3107
  505MOL0     H68123   3.846   9.652   4.500 -1.6814 -0.3698 -0.2217
  505MOL0     H68124   3.835   9.534   4.724  0.5658  2.1456 -0.5160
  505MOL0     H68125   3.866   9.379   4.643 -1.8674 -0.3452  1.2090
  505MOL0     H68126   4.038   9.729   4.715  2.1182  1.3621  3.4824
  505MOL0     H68127   4.406   9.712   4.688 -0.1072  0.5872 -0.7159
  505MOL0     H68128   4.273   9.807   4.739  1.6439  0.1970 -0.3576
  505MOL0     H68129   4.266   9.698   4.969 -0.4685  2.7234 -1.5770
  505MOL0     H68130   4.405   9.596   4.922  1.6997  0.9812 -0.2975
  505MOL0     H68131   4.509   9.847   4.878  0.4125  4.2986  3.8605
  505MOL0     H68132   4.507   9.756   5.038 -1.4813 -0.5143  1.6314
  505MOL0     H68133   4.293   9.862   5.092 -0.4920  0.1955 -0.1799
  505MOL0     H68134   4.285   9.953   4.946  1.4875 -1.6803 -0.0507
  505MOL0     H68135   4.494  10.262   5.204  0.0605  4.0607  0.5465
  505MOL0     H68136   4.569  10.461   5.083 -0.4605  1.4187 -1.0912
  505MOL0     H68137   4.818  10.642   4.839  1.2956  1.1841 -0.8601
  505MOL0     H68138   4.928  10.859   4.825 -1.3726 -0.1358 -1.6284
  505MOL0     H68139   4.669  11.216   4.820 -0.3718  0.6024  0.1267
  505MOL0     H68140   4.809  11.265   4.719  0.8210 -0.3823  0.0878
  505MOL0     H68141   4.760  11.062   4.560 -2.8125 -2.7617 -1.2659
  505MOL0     H68142   4.596  11.072   4.636  0.1434 -0.1163  1.0122
  505MOL0     H68143   4.603  11.311   4.583  0.1570 -2.1646  3.0481
  505MOL0     H68144   4.751  11.295   4.492  0.2254 -0.2704 -1.7974
  505MOL0     H68145   4.502  11.117   4.420  0.0267 -0.2693 -2.1244
  505MOL0     H68146   4.655  11.136   4.337 -0.3459  1.5899 -1.5366
  505MOL0     H68147   4.602  11.347   4.275  1.3385 -2.9322 -0.3020
  505MOL0     H68148   4.457  11.353   4.389  0.2668  1.8789 -1.7476
  505MOL0     H68149   4.471  11.186   4.127 -4.4652 -2.4827 -0.9383
  505MOL0     H68150   4.354  11.169   4.249  0.6496 -0.7329 -0.5182
  505MOL0     H68151   4.420  11.437   4.107  0.9575 -1.0777  1.4467
  505MOL0     H68152   4.290  11.420   4.225 -2.1117  0.4970 -0.6131
  505MOL0     H68153   4.284  11.254   3.973 -1.2627  0.2823 -0.7346
  505MOL0     H68154   4.193  11.235   4.114 -0.1799 -0.1339 -1.0259
  505MOL0     H68155   4.575  11.064   4.888  0.0573 -0.1232  0.1802
  505MOL0     H68156   4.442  10.837   4.901 -0.9944 -0.1508 -0.7969
  505MOL0     H68157   4.493  10.253   4.712 -0.9829 -2.1478 -0.3785
  505MOL0     H68158   4.420  10.065   4.833  0.2117  1.5843 -1.6316
  505MOL0     H68159   3.653   9.677   3.631  2.2292 -0.8509  2.7860
  505MOL0     H68160   3.606   9.454   3.535 -1.1772 -4.6793  0.2757
  505MOL0     H68161   3.599   9.012   3.410  0.5228 -1.0694 -1.0905
  505MOL0     H68162   3.578   8.762   3.431 -0.4925  1.2326 -1.7180
  505MOL0     H68163   3.577   8.668   3.731  0.0462 -0.1771  0.6390
  505MOL0     H68164   3.567   8.528   3.623  2.3084 -0.4468  2.8819
  505MOL0     H68165   3.498   8.438   3.842 -0.2355  0.2457 -0.0814
  505MOL0     H68166   3.340   8.460   3.763 -0.0169  0.3845 -2.4270
  505MOL0     H68167   3.318   8.518   3.989 -0.6257  0.6611 -1.1309
  505MOL0     H68168   3.291   8.664   3.898 -0.5317 -0.1289 -0.9100
  505MOL0     H68169   3.575   8.592   4.023  0.0400 -0.2457  1.6918
  505MOL0     H68170   3.533   8.745   3.962  1.3926 -0.0982 -0.4044
  505MOL0     H68171   3.368   8.800   4.325  1.0143 -0.4882 -0.3022
  505MOL0     H68172   3.240   8.828   3.698  2.6772 -0.3686  2.6867
  505MOL0     H68173   3.289   9.119   3.802  1.4299 -0.4782 -1.6688
  505MOL0     H68174   3.210   9.178   3.648 -0.8765  0.1324 -0.4185
  505MOL0     H68175   3.137   9.052   3.726  0.9908 -1.1525  0.4058
  506MOL0     O68176   4.955   6.647   7.503  0.4500 -0.6056 -0.2212
  506MOL0     C68177   4.846   6.701   7.536  0.6373  0.5774 -0.0197
  506MOL0     O68178   4.728   6.646   7.537  0.2088 -0.1205  0.1330
  506MOL0     C68179   4.694   6.540   7.462 -0.2976  1.0467  0.3915
  506MOL0     C68180   4.603   6.457   7.521 -0.7015  0.9381 -0.0112
  506MOL0     C68181   4.557   6.346   7.456  0.1139 -1.0336 -1.5315
  506MOL0     C68182   4.578   6.329   7.322 -0.9748  0.5184  0.0936
  506MOL0     O68183   4.491   6.248   7.248 -0.5186  0.0441 -0.0526
  506MOL0     C68184   4.497   6.227   7.108 -0.3505  0.0983  0.3155
  506MOL0     C68185   4.405   6.107   7.082 -0.2274 -0.5725 -1.2546
  506MOL0     C68186   4.466   6.005   6.983 -0.3736  0.0497  0.5913
  506MOL0     C68187   4.368   5.889   6.951 -0.5661 -1.6120  0.4439
  506MOL0     C68188   4.464   5.795   6.856  0.3597  0.6109 -0.3208
  506MOL0     C68189   4.393   5.677   6.802  0.0900 -0.0865  0.1280
  506MOL0     C68190   4.486   5.595   6.720 -0.5216  0.4518 -0.2045
  506MOL0     C68191   4.542   5.674   6.605  0.6053  0.7077 -0.9869
  506MOL0     N68192   4.539   5.581   6.485  0.8582  0.0872 -0.2219
  506MOL0     C68193   4.629   5.481   6.450  0.4445  0.3786 -0.6587
  506MOL0     C68194   4.595   5.448   6.325  0.8774 -0.5596 -0.0316
  506MOL0     C68195   4.682   5.344   6.259 -0.5106 -0.1700  0.2582
  506MOL0     C68196   4.793   5.390   6.171  0.6766 -0.3155 -0.4425
  506MOL0     C68197   4.765   5.331   6.034  0.4707 -0.9291 -0.0105
  506MOL0     C68198   4.889   5.341   5.938 -0.2924  0.6223 -0.0275
  506MOL0     O68199   4.837   5.282   5.812  0.0674  0.9813  0.0864
  506MOL0     C68200   4.939   5.254   5.731 -0.2026 -0.2237  0.2515
  506MOL0     C68201   4.963   5.340   5.619 -0.0464  0.0259  0.6372
  506MOL0     C68202   5.067   5.322   5.535 -0.3810  0.5859 -0.1193
  506MOL0     C68203   5.142   5.205   5.541  0.9359  0.6221  0.1601
  506MOL0     C68204   5.255   5.189   5.454 -0.4827  0.3532  0.0588
  506MOL0     O68205   5.326   5.075   5.466 -0.0029 -0.2879  0.5370
  506MOL0     C68206   5.457   5.079   5.429  0.8215 -0.4439  0.8757
  506MOL0     C68207   5.499   5.099   5.295 -0.7489 -0.1282 -0.4110
  506MOL0     C68208   5.634   5.101   5.258 -1.1773 -0.5164 -0.5392
  506MOL0     C68209   5.731   5.077   5.364 -0.0160 -0.7730 -0.1964
  506MOL0     O68210   5.869   5.082   5.356  0.3628 -0.2841 -0.1468
  506MOL0     C68211   5.922   5.001   5.253  0.5777 -0.2881 -0.1038
  506MOL0     C68212   6.067   4.991   5.256 -0.8660 -0.5860 -0.0294
  506MOL0     C68213   6.117   4.892   5.154  0.2131  0.2627 -0.7760
  506MOL0     C68214   6.141   4.964   5.016 -0.0040 -0.0426  0.1238
  506MOL0     C68215   6.164   4.855   4.914 -0.3774  0.6047 -0.5970
  506MOL0     C68216   6.241   4.909   4.799 -0.2468  0.9981 -0.8147
  506MOL0     C68217   6.286   4.814   4.694 -0.0105  1.0406  0.6881
  506MOL0     C68218   6.196   4.691   4.683  0.1671  0.6737 -0.5329
  506MOL0    Cl68219   6.052   4.736   4.593  0.7540  0.0015 -0.1878
  506MOL0     C68220   5.687   5.045   5.493 -0.4099 -0.2917  0.2620
  506MOL0     C68221   5.553   5.049   5.525  0.1867 -0.9156  0.0562
  506MOL0     O68222   5.284   5.283   5.385  0.1349 -0.8542  0.6327
  506MOL0     C68223   5.116   5.120   5.655 -0.6234 -0.6167  0.1867
  506MOL0     C68224   5.013   5.143   5.742 -0.5023 -0.7890  0.0316
  506MOL0     N68225   4.479   5.512   6.280 -0.7408  0.1670 -0.7196
  506MOL0     N68226   4.460   5.597   6.376  0.8759 -0.0238  0.8358
  506MOL0     C68227   4.686   6.405   7.259  1.1271 -0.2102  0.9969
  506MOL0     C68228   4.744   6.501   7.334 -0.1388 -0.7774 -0.1429
  506MOL0     C68229   4.850   6.830   7.608 -0.2609  0.1471  0.7442
  506MOL0     C68230   4.739   6.867   7.679  0.5677 -0.1444 -0.0070
  506MOL0     C68231   4.721   6.998   7.722 -0.0953  0.0467  0.2206
  506MOL0     C68232   4.810   7.101   7.692 -0.7381  0.4704 -0.3461
  506MOL0     O68233   4.786   7.240   7.708  0.5441 -0.8287 -0.0325
  506MOL0     C68234   4.654   7.295   7.740 -0.5032 -0.0166 -0.3556
  506MOL0     C68235   4.678   7.438   7.804  0.2386 -0.9081  0.0096
  506MOL0     C68236   4.539   7.513   7.817  0.1165  0.3354  0.2011
  506MOL0     C68237   4.501   7.528   7.968  0.7143  0.6831  0.8123
  506MOL0     C68238   4.392   7.633   7.987  0.6868  0.6177 -0.6591
  506MOL0     C68239   4.302   7.710   8.017  0.5861  0.2112  0.4198
  506MOL0     C68240   4.931   7.056   7.638  0.7536 -1.0292  0.6252
  506MOL0     C68241   4.958   6.926   7.594  0.1771 -0.7025 -0.7430
  506MOL0     C68242   5.082   6.902   7.526  0.7509  0.4481 -0.0447
  506MOL0     H68243   4.579   6.481   7.624  1.6581 -0.5290  0.9873
  506MOL0     H68244   4.478   6.284   7.497 -1.3888  0.9633 -1.2767
  506MOL0     H68245   4.460   6.317   7.058  2.1859 -0.4617 -2.8973
  506MOL0     H68246   4.601   6.210   7.077 -0.2733  0.4371  0.3848
  506MOL0     H68247   4.306   6.141   7.052 -0.1919  1.3060  0.5163
  506MOL0     H68248   4.389   6.059   7.179 -1.4174  2.9635  0.4716
  506MOL0     H68249   4.554   5.971   7.038 -1.4474 -0.0456  2.3174
  506MOL0     H68250   4.503   6.061   6.896  1.8605  0.8396  1.9608
  506MOL0     H68251   4.334   5.840   7.043  0.5432 -0.7744  1.3233
  506MOL0     H68252   4.276   5.919   6.900 -0.6314 -2.3141  0.1308
  506MOL0     H68253   4.508   5.859   6.779  0.0894  1.4358  0.1994
  506MOL0     H68254   4.556   5.761   6.905 -0.0154  0.6999  0.4729
  506MOL0     H68255   4.343   5.614   6.877  1.2045 -2.9494 -1.3808
  506MOL0     H68256   4.311   5.706   6.735 -0.8010 -0.4002  1.0420
  506MOL0     H68257   4.435   5.509   6.676  0.5669  1.1101 -2.9861
  506MOL0     H68258   4.572   5.553   6.773  0.0103 -0.2224 -1.5544
  506MOL0     H68259   4.477   5.761   6.589 -1.2427 -0.7262 -1.5904
  506MOL0     H68260   4.647   5.703   6.614  1.2493 -1.5649 -0.5175
  506MOL0     H68261   4.714   5.446   6.508  1.6133  2.1488 -1.2177
  506MOL0     H68262   4.733   5.277   6.328 -0.7290 -2.0616 -1.3420
  506MOL0     H68263   4.614   5.275   6.208  2.7710 -2.9623 -0.7089
  506MOL0     H68264   4.791   5.498   6.154  0.1846 -0.0587  1.1202
  506MOL0     H68265   4.883   5.359   6.226  0.7302 -0.3395 -0.5433
  506MOL0     H68266   4.693   5.385   5.972  2.3866  5.6503  2.5275
  506MOL0     H68267   4.733   5.228   6.052  1.1276 -0.9305  1.2850
  506MOL0     H68268   4.961   5.273   5.986 -1.3744  0.1823  1.0147
  506MOL0     H68269   4.940   5.437   5.932 -0.8968  1.0573  1.4150
  506MOL0     H68270   4.904   5.431   5.622  0.3656  0.2916  0.6972
  506MOL0     H68271   5.100   5.396   5.464  2.7823 -0.5712 -0.0047
  506MOL0     H68272   5.422   5.096   5.219 -1.0995 -2.8318 -0.0390
  506MOL0     H68273   5.664   5.118   5.156 -1.3428  0.5169 -0.4267
  506MOL0     H68274   5.884   4.899   5.259  0.1974 -0.0766  2.5510
  506MOL0     H68275   5.897   5.048   5.158 -3.3383  1.5021  1.5800
  506MOL0     H68276   6.116   5.086   5.235  0.4130 -1.4183 -0.9516
  506MOL0     H68277   6.111   4.967   5.353  0.9697  2.2852 -0.0285
  506MOL0     H68278   6.217   4.852   5.175  0.1289  0.1889 -0.5026
  506MOL0     H68279   6.060   4.799   5.148 -3.1428  1.9948  1.0841
  506MOL0     H68280   6.233   5.024   5.018 -0.1793  0.2051  1.2061
  506MOL0     H68281   6.073   5.043   4.982  1.6575  0.4120 -2.4839
  506MOL0     H68282   6.068   4.809   4.890  0.5980 -1.1705 -1.2984
  506MOL0     H68283   6.234   4.786   4.963  0.2448  1.1686 -0.6775
  506MOL0     H68284   6.187   4.990   4.749  0.1336  1.0237 -1.1850
  506MOL0     H68285   6.331   4.953   4.842  0.6181  0.5066 -2.0961
  506MOL0     H68286   6.382   4.767   4.718 -0.7220  0.0807  1.7733
  506MOL0     H68287   6.289   4.870   4.600 -1.7634 -0.3422 -0.2477
  506MOL0     H68288   6.244   4.615   4.620 -3.3049 -0.7659 -1.6918
  506MOL0     H68289   6.176   4.645   4.780  0.1858  2.8579  0.5672
  506MOL0     H68290   5.754   5.038   5.578  1.4305  2.5759 -0.7818
  506MOL0     H68291   5.523   5.037   5.628  1.1753  0.2902  0.5102
  506MOL0     H68292   5.183   5.034   5.660  0.2951  0.1497  2.2129
  506MOL0     H68293   5.005   5.081   5.831  1.0812 -0.1138  0.6758
  506MOL0     H68294   4.704   6.408   7.152 -0.8037 -1.8716  0.5781
  506MOL0     H68295   4.814   6.573   7.293 -3.5094  1.7208 -1.9200
  506MOL0     H68296   4.655   6.798   7.682  0.1122  0.4060  0.1372
  506MOL0     H68297   4.617   7.018   7.745 -1.5394 -2.3741 -3.3325
  506MOL0     H68298   4.600   7.232   7.812  3.1355 -1.0829  1.6667
  506MOL0     H68299   4.596   7.315   7.649 -2.6538  1.3049  1.1939
  506MOL0     H68300   4.741   7.493   7.733  3.0059 -1.4613  1.8722
  506MOL0     H68301   4.729   7.432   7.900  1.2539 -0.2954 -0.4765
  506MOL0     H68302   4.460   7.457   7.765 -0.4095 -0.4602  1.8013
  506MOL0     H68303   4.539   7.617   7.783  1.0889  0.9325  1.9330
  506MOL0     H68304   4.465   7.427   7.990 -4.0003  1.5279 -1.7573
  506MOL0     H68305   4.583   7.553   8.037  0.4788 -1.1115  1.7970
  506MOL0     H68306   4.220   7.778   8.029 -1.2695 -1.6045 -1.1943
  506MOL0     H68307   5.005   7.132   7.614  0.4351 -0.8236  0.2779
  506MOL0     H68308   5.053   6.871   7.425 -2.6991 -0.2033  1.0301
  506MOL0     H68309   5.156   6.983   7.529  1.4077 -0.1604  0.5308
  506MOL0     H68310   5.139   6.821   7.573  0.8382  1.1234  1.0297
  507MOL0     O68311   3.010   3.298   7.062 -1.3132 -0.1140  0.3263
  507MOL0     C68312   2.916   3.292   7.138 -0.0802 -0.0943 -0.5131
  507MOL0     O68313   2.919   3.275   7.271  0.5010 -0.1003 -0.6827
  507MOL0     C68314   3.043   3.244   7.334  0.0568 -0.4963  0.8524
  507MOL0     C68315   3.070   3.280   7.464  0.1798  0.3845 -0.0434
  507MOL0     C68316   3.168   3.221   7.544 -0.1999  0.6992  0.1282
  507MOL0     C68317   3.257   3.125   7.492  0.0335  1.6767  0.2918
  507MOL0     O68318   3.360   3.067   7.560 -0.3560 -0.4689  0.3099
  507MOL0     C68319   3.403   3.114   7.689  0.2610 -0.8389  1.0416
  507MOL0     C68320   3.514   3.035   7.743  0.6179 -1.0095 -0.6949
  507MOL0     C68321   3.465   2.904   7.790  0.7552 -1.2243  0.3049
  507MOL0     C68322   3.570   2.796   7.798  0.3705  0.4360  0.4169
  507MOL0     C68323   3.536   2.643   7.803  0.0159 -0.6804 -0.2406
  507MOL0     C68324   3.411   2.612   7.898 -1.7245 -0.0476 -0.0135
  507MOL0     C68325   3.456   2.622   8.055  0.5074  0.1764 -0.1562
  507MOL0     C68326   3.349   2.551   8.138  0.4039 -0.3811 -0.3234
  507MOL0     N68327   3.209   2.618   8.163 -0.1233  0.3064 -0.2303
  507MOL0     C68328   3.147   2.660   8.284 -0.5218 -0.1656  0.4293
  507MOL0     C68329   3.026   2.717   8.254 -0.5541 -0.4967 -0.2602
  507MOL0     C68330   2.920   2.786   8.343 -0.8485  0.9963 -0.6110
  507MOL0     C68331   2.958   2.926   8.379 -0.3743 -0.3610  0.5637
  507MOL0     C68332   2.845   3.006   8.462  0.6352 -0.1398 -0.2439
  507MOL0     C68333   2.727   3.043   8.365  0.2604 -0.3916  0.1068
  507MOL0     O68334   2.671   3.168   8.405  0.1165  1.1968 -0.1622
  507MOL0     C68335   2.730   3.279   8.359 -0.7145 -0.6202  0.2967
  507MOL0     C68336   2.640   3.387   8.364 -0.4501 -0.2716 -0.4326
  507MOL0     C68337   2.678   3.506   8.297  0.7064 -0.0048 -0.3449
  507MOL0     C68338   2.815   3.526   8.254  0.2267  0.0648 -0.0341
  507MOL0     C68339   2.847   3.653   8.193 -0.2740 -0.7488 -0.0081
  507MOL0     O68340   2.747   3.746   8.182 -0.0524  0.4407 -0.3237
  507MOL0     C68341   2.775   3.866   8.140  0.1651  0.3610 -0.5918
  507MOL0     C68342   2.889   3.937   8.187 -0.3828 -0.1958 -0.9505
  507MOL0     C68343   2.905   4.077   8.138 -1.1266  0.6402  0.6983
  507MOL0     C68344   2.809   4.133   8.043 -0.2147  0.3229  0.3842
  507MOL0     O68345   2.819   4.262   7.992 -0.0804  0.6874  0.0862
  507MOL0     C68346   2.934   4.339   8.022 -0.3112 -0.9846  0.1731
  507MOL0     C68347   2.932   4.478   7.977 -0.1180  0.3492 -0.6302
  507MOL0     C68348   3.047   4.561   8.008 -0.6094  0.2616  0.0184
  507MOL0     C68349   3.156   4.557   7.897  0.3734  0.5394  0.3832
  507MOL0     C68350   3.277   4.649   7.934 -0.9797  0.4191  1.2838
  507MOL0     C68351   3.336   4.614   8.073 -0.2608  0.4852  0.0296
  507MOL0     C68352   3.480   4.654   8.088 -0.4970  0.2513  0.8439
  507MOL0     C68353   3.542   4.586   8.211 -0.0749  0.8436 -1.0550
  507MOL0    Cl68354   3.704   4.660   8.258  0.0064  0.0199 -0.0222
  507MOL0     C68355   2.704   4.049   8.006 -0.0236  0.7211  0.3637
  507MOL0     C68356   2.691   3.916   8.045  0.8942 -0.2424 -0.8090
  507MOL0     O68357   2.966   3.673   8.162  0.3011 -0.4107  0.5541
  507MOL0     C68358   2.905   3.419   8.267  0.2243  0.1110 -0.7046
  507MOL0     C68359   2.864   3.294   8.313 -0.0223 -0.3832  0.4239
  507MOL0     N68360   3.014   2.704   8.118  0.1987  0.8987 -0.3273
  507MOL0     N68361   3.120   2.648   8.067 -0.9673 -0.4101 -0.6782
  507MOL0     C68362   3.234   3.092   7.353 -1.0241 -0.9916  0.0834
  507MOL0     C68363   3.129   3.144   7.281 -0.2772  0.5625  0.3726
  507MOL0     C68364   2.784   3.331   7.083 -0.5104 -0.6566  0.2309
  507MOL0     C68365   2.686   3.378   7.167 -0.8513 -0.4206 -0.3112
  507MOL0     C68366   2.570   3.443   7.124 -0.2096 -0.2016  0.1926
  507MOL0     C68367   2.525   3.426   6.993 -0.0312 -0.5399  0.6875
  507MOL0     O68368   2.394   3.468   6.958 -0.3168  0.1633  0.1976
  507MOL0     C68369   2.388   3.554   6.839  0.2792 -0.5749 -0.5342
  507MOL0     C68370   2.460   3.683   6.867 -0.8071 -0.7072  0.1398
  507MOL0     C68371   2.457   3.779   6.746  0.3479 -0.1679  0.0368
  507MOL0     C68372   2.536   3.902   6.760 -0.0536 -1.5010 -0.5178
  507MOL0     C68373   2.479   3.999   6.860 -0.0930  0.2143  0.4515
  507MOL0     C68374   2.452   4.083   6.943  0.1243 -0.4081 -0.5765
  507MOL0     C68375   2.620   3.366   6.908 -0.4984 -0.7198 -0.2022
  507MOL0     C68376   2.747   3.326   6.946 -0.1550 -0.2143 -0.1557
  507MOL0     C68377   2.817   3.267   6.826  0.0911 -0.2553 -0.2988
  507MOL0     H68378   3.011   3.359   7.509  0.8193  1.0466 -0.3614
  507MOL0     H68379   3.183   3.265   7.642  1.9706  0.4137 -0.0416
  507MOL0     H68380   3.428   3.220   7.674 -0.0619 -1.1175 -2.0086
  507MOL0     H68381   3.322   3.126   7.762  0.1659 -0.6441  0.9075
  507MOL0     H68382   3.549   3.093   7.829 -1.1424 -2.8321  1.3780
  507MOL0     H68383   3.596   3.027   7.672  0.7621  0.2230 -0.6869
  507MOL0     H68384   3.396   2.871   7.712  4.1851  0.5408 -3.8450
  507MOL0     H68385   3.410   2.914   7.885 -0.6796 -0.9737 -0.5139
  507MOL0     H68386   3.606   2.803   7.695 -2.1464  0.1276 -0.5664
  507MOL0     H68387   3.644   2.815   7.876 -2.0095  0.6003  2.8023
  507MOL0     H68388   3.512   2.613   7.700  1.1095  1.0759 -1.0522
  507MOL0     H68389   3.625   2.588   7.833  0.3597  0.2210  0.4234
  507MOL0     H68390   3.340   2.694   7.884  0.8864  2.1442 -1.5246
  507MOL0     H68391   3.367   2.516   7.871 -2.4121  0.4809 -0.8094
  507MOL0     H68392   3.451   2.726   8.088  2.6923 -0.6224  3.2222
  507MOL0     H68393   3.552   2.578   8.084 -0.3205 -0.4913  1.7422
  507MOL0     H68394   3.341   2.458   8.082  1.7858 -0.2103 -0.8474
  507MOL0     H68395   3.394   2.533   8.236  2.0780  1.8104 -0.6033
  507MOL0     H68396   3.189   2.647   8.383  0.2084 -0.9581  0.0294
  507MOL0     H68397   2.837   2.790   8.272 -0.5267  0.7898 -1.0058
  507MOL0     H68398   2.896   2.734   8.436  2.1023 -1.3742 -1.0208
  507MOL0     H68399   3.050   2.914   8.436 -0.7539  3.4968  2.3128
  507MOL0     H68400   3.000   2.986   8.297  2.2999 -3.2658 -0.4005
  507MOL0     H68401   2.885   3.098   8.504  2.1551 -1.0739  0.4159
  507MOL0     H68402   2.810   2.940   8.542 -3.3248 -0.1676 -1.7362
  507MOL0     H68403   2.647   2.969   8.364 -0.3413  0.2390  0.5501
  507MOL0     H68404   2.755   3.040   8.259  1.9416 -4.1257  0.5169
  507MOL0     H68405   2.543   3.362   8.406 -1.7659  1.6854 -2.0955
  507MOL0     H68406   2.608   3.588   8.287  0.7505  0.1392  0.5156
  507MOL0     H68407   2.962   3.900   8.258 -2.5712 -0.1044  1.5124
  507MOL0     H68408   2.994   4.123   8.178  1.3360 -0.8683 -2.5994
  507MOL0     H68409   2.942   4.354   8.130  1.1045  2.2566 -0.2605
  507MOL0     H68410   3.020   4.293   7.971  1.9413  2.4389  0.5649
  507MOL0     H68411   2.919   4.480   7.868 -1.0035  1.1099 -0.5275
  507MOL0     H68412   2.842   4.531   8.010 -0.6456 -1.6408  1.4195
  507MOL0     H68413   3.019   4.666   8.022 -0.4788  0.0309  2.3849
  507MOL0     H68414   3.098   4.510   8.090 -3.8524 -3.4270  0.0259
  507MOL0     H68415   3.118   4.599   7.804  0.8719  0.1425 -0.0044
  507MOL0     H68416   3.191   4.454   7.888 -1.6767 -0.7754  4.6184
  507MOL0     H68417   3.234   4.749   7.931 -1.4119  0.2423 -0.9853
  507MOL0     H68418   3.338   4.634   7.844 -1.2106  2.1190  0.8128
  507MOL0     H68419   3.280   4.657   8.157  0.2466 -2.9479  2.3643
  507MOL0     H68420   3.324   4.506   8.091 -1.4077  1.0656  3.5241
  507MOL0     H68421   3.492   4.761   8.107  0.4943 -0.1337  2.4859
  507MOL0     H68422   3.540   4.622   8.002 -2.3759  0.3886 -0.6036
  507MOL0     H68423   3.483   4.609   8.300 -0.8362 -2.1433 -0.6742
  507MOL0     H68424   3.554   4.481   8.182  1.1204  1.1549 -1.7220
  507MOL0     H68425   2.621   4.073   7.939 -2.1797 -1.9006  1.8920
  507MOL0     H68426   2.604   3.856   8.019 -0.5971  0.6164  1.7595
  507MOL0     H68427   3.009   3.434   8.238  0.4602 -0.1546 -0.0182
  507MOL0     H68428   2.933   3.211   8.306 -0.5123 -0.6770 -1.6142
  507MOL0     H68429   3.307   3.032   7.300  1.9927  1.0288  1.6550
  507MOL0     H68430   3.120   3.119   7.176  1.9182 -0.7189  0.4140
  507MOL0     H68431   2.703   3.376   7.274  1.5328  3.4744 -0.4424
  507MOL0     H68432   2.502   3.483   7.198 -0.9771 -1.8926  0.4585
  507MOL0     H68433   2.284   3.589   6.842  0.5030  0.6498  5.2183
  507MOL0     H68434   2.403   3.497   6.747  1.2317 -0.7021 -0.3120
  507MOL0     H68435   2.567   3.669   6.886 -1.0248 -1.0080  1.2042
  507MOL0     H68436   2.421   3.732   6.957 -1.9260 -2.1182  0.4714
  507MOL0     H68437   2.353   3.812   6.732 -0.4741 -1.7793  1.8411
  507MOL0     H68438   2.496   3.720   6.663 -0.2376  0.1597 -0.4803
  507MOL0     H68439   2.630   3.880   6.812 -0.0549 -0.9984 -0.3011
  507MOL0     H68440   2.559   3.958   6.669 -0.6019 -0.7503 -0.2010
  507MOL0     H68441   2.449   4.140   7.034 -3.6814 -1.3217  0.0401
  507MOL0     H68442   2.584   3.367   6.806 -1.6631 -0.8151  0.2020
  507MOL0     H68443   2.752   3.196   6.774 -1.2223  2.1084 -2.0763
  507MOL0     H68444   2.851   3.343   6.756 -0.8145  3.0087  2.5290
  507MOL0     H68445   2.909   3.215   6.857 -0.7441 -0.7728  1.4629
  508MOL0     O68446   0.944   2.249   6.316  0.2800  0.1619  0.6779
  508MOL0     C68447   1.061   2.246   6.300  0.3210 -0.0876  0.4629
  508MOL0     O68448   1.123   2.301   6.194 -0.7673  0.2963 -0.2645
  508MOL0     C68449   1.056   2.362   6.090  0.5080 -0.0758 -1.1058
  508MOL0     C68450   0.967   2.300   6.003  0.2658  0.2214 -0.2207
  508MOL0     C68451   0.898   2.370   5.903  0.9485 -1.5770  0.0972
  508MOL0     C68452   0.927   2.508   5.896 -0.1363 -0.8487 -0.2454
  508MOL0     O68453   0.861   2.601   5.817 -0.2271  0.9203  0.2973
  508MOL0     C68454   0.806   2.548   5.694 -1.0882 -1.0633  0.4987
  508MOL0     C68455   0.779   2.656   5.582 -0.1772 -0.2370  0.3754
  508MOL0     C68456   0.650   2.731   5.602 -0.1975  0.8433  0.0986
  508MOL0     C68457   0.626   2.812   5.475 -0.1462  0.5069 -1.2743
  508MOL0     C68458   0.526   2.922   5.520 -0.5818 -0.3582 -0.4380
  508MOL0     C68459   0.460   2.959   5.385  0.4180 -0.4725  0.2977
  508MOL0     C68460   0.371   3.089   5.416  0.6719 -0.0894 -0.0801
  508MOL0     C68461   0.451   3.219   5.419  0.0771 -1.0285  0.7436
  508MOL0     N68462   0.414   3.300   5.305  0.6839 -0.3546 -0.1321
  508MOL0     C68463   0.293   3.349   5.287  1.1458 -0.2519  0.2313
  508MOL0     C68464   0.302   3.411   5.163  0.1784 -0.7001 -0.0635
  508MOL0     C68465   0.178   3.459   5.084  0.2676 -0.4414  0.5621
  508MOL0     C68466   0.174   3.417   4.937  0.0309 -1.5781  0.8116
  508MOL0     C68467   0.035   3.403   4.880  0.0357  1.0664 -0.1814
  508MOL0     C68468  -0.044   3.536   4.884  0.5789 -0.3278  0.4075
  508MOL0     O68469  -0.180   3.512   4.847 -0.0046 -0.1086  0.4211
  508MOL0     C68470  -0.271   3.613   4.877  0.0119  1.2806  0.0924
  508MOL0     C68471  -0.247   3.750   4.899  0.7016 -0.1135 -0.6953
  508MOL0     C68472  -0.362   3.831   4.929  0.4698  0.9254 -0.0690
  508MOL0     C68473  -0.493   3.782   4.905 -0.6704  0.7670 -1.2946
  508MOL0     C68474  -0.603   3.875   4.900  0.0601 -0.0300  0.6058
  508MOL0     O68475  -0.581   4.002   4.942 -0.0124 -0.1063  0.8339
  508MOL0     C68476  -0.667   4.098   4.912  0.0345 -0.8370 -0.8481
  508MOL0     C68477  -0.751   4.125   4.787 -0.0430 -0.1349  0.4750
  508MOL0     C68478  -0.822   4.239   4.783  0.2653 -0.2924  0.1168
  508MOL0     C68479  -0.826   4.339   4.879 -0.0504  0.9261 -1.5637
  508MOL0     O68480  -0.897   4.462   4.865  0.5232  0.2513 -0.0885
  508MOL0     C68481  -0.962   4.511   4.980 -0.4750  0.1285 -0.1309
  508MOL0     C68482  -0.904   4.651   5.024  0.3559 -0.5956  0.2706
  508MOL0     C68483  -0.889   4.742   4.900  0.8213  0.6620  0.4355
  508MOL0     C68484  -0.829   4.878   4.933  1.0372 -0.1616 -0.1560
  508MOL0     C68485  -0.774   4.962   4.805  0.5136  0.2087 -0.8669
  508MOL0     C68486  -0.665   5.057   4.821  0.6439  0.2649  0.0768
  508MOL0     C68487  -0.708   5.179   4.894 -0.2913  0.4536  0.2023
  508MOL0     C68488  -0.794   5.275   4.814 -0.1406 -1.3305  0.5760
  508MOL0    Cl68489  -0.697   5.407   4.756 -0.3466 -0.7206  0.1806
  508MOL0     C68490  -0.751   4.308   4.995 -0.5614 -0.6713  0.0887
  508MOL0     C68491  -0.683   4.192   5.013  0.9434  0.3449  0.5323
  508MOL0     O68492  -0.707   3.830   4.854 -0.2479 -0.8884  0.4621
  508MOL0     C68493  -0.513   3.642   4.873  0.5977  0.7470  0.2026
  508MOL0     C68494  -0.406   3.564   4.870 -0.4528 -0.0526  0.8401
  508MOL0     N68495   0.432   3.407   5.116  0.3238 -0.6362  0.7365
  508MOL0     N68496   0.499   3.341   5.201  0.0060 -0.3916  0.0986
  508MOL0     C68497   1.016   2.568   5.985  0.0870  1.1492 -0.4034
  508MOL0     C68498   1.084   2.495   6.081  0.5324 -0.0796 -0.7332
  508MOL0     C68499   1.149   2.167   6.402  0.2783 -0.3674  1.3642
  508MOL0     C68500   1.274   2.217   6.420 -0.1265 -0.5308  0.3169
  508MOL0     C68501   1.354   2.176   6.525  0.1753  0.1758 -0.1800
  508MOL0     C68502   1.307   2.084   6.617 -0.0317  0.1506  0.8778
  508MOL0     O68503   1.366   2.042   6.733  0.0472  0.0850  0.2643
  508MOL0     C68504   1.493   2.089   6.779  0.6838  0.5974  0.1747
  508MOL0     C68505   1.490   2.224   6.853  0.4509 -0.2772  0.5812
  508MOL0     C68506   1.405   2.234   6.974  0.4619  0.2941  0.5132
  508MOL0     C68507   1.463   2.153   7.090  0.6158 -0.2818  0.3502
  508MOL0     C68508   1.601   2.189   7.128 -1.1862  0.0093  0.0299
  508MOL0     C68509   1.709   2.229   7.175 -0.6935 -0.7448 -0.2256
  508MOL0     C68510   1.187   2.030   6.596  0.6995  0.4365  0.7832
  508MOL0     C68511   1.107   2.059   6.481  0.0686 -0.9869  0.3467
  508MOL0     C68512   0.971   1.995   6.461  0.2765  0.4400  0.3321
  508MOL0     H68513   0.959   2.192   6.005 -2.9908  0.3542 -0.7843
  508MOL0     H68514   0.828   2.330   5.830  0.9828 -0.1135 -0.7755
  508MOL0     H68515   0.880   2.478   5.655 -0.9257  0.3111 -1.8798
  508MOL0     H68516   0.709   2.511   5.728 -1.9044  2.5464  2.6741
  508MOL0     H68517   0.768   2.590   5.495  0.7643 -2.3131  1.7374
  508MOL0     H68518   0.866   2.721   5.571  0.7954 -0.7525  3.8272
  508MOL0     H68519   0.650   2.791   5.693  0.2580 -0.8445  1.2680
  508MOL0     H68520   0.570   2.658   5.619  1.7438 -1.5176 -0.2879
  508MOL0     H68521   0.721   2.846   5.433  0.4806  0.8582  0.3574
  508MOL0     H68522   0.588   2.738   5.405  0.9768 -1.8706  0.5053
  508MOL0     H68523   0.452   2.886   5.591 -0.9478 -2.1644 -1.6516
  508MOL0     H68524   0.565   3.010   5.570 -0.6697 -1.3429  1.4439
  508MOL0     H68525   0.536   2.978   5.308 -0.5597  0.7120 -0.4180
  508MOL0     H68526   0.401   2.870   5.362  1.9775 -2.7183  4.0931
  508MOL0     H68527   0.330   3.070   5.515  2.6341  3.0997  1.4920
  508MOL0     H68528   0.283   3.097   5.352  1.2548  0.3603 -0.8494
  508MOL0     H68529   0.420   3.284   5.502  1.5708 -1.5144  1.7271
  508MOL0     H68530   0.558   3.200   5.432  0.8863  0.6687 -2.4807
  508MOL0     H68531   0.194   3.328   5.327  0.0378 -1.7312 -2.9397
  508MOL0     H68532   0.083   3.427   5.128  0.3147  0.4940  1.3804
  508MOL0     H68533   0.177   3.568   5.098 -0.8333 -0.3928  0.1860
  508MOL0     H68534   0.237   3.477   4.870  0.2784 -0.2841  2.1670
  508MOL0     H68535   0.232   3.324   4.925  1.8502 -0.3512 -0.5267
  508MOL0     H68536  -0.014   3.319   4.930  2.8611 -0.0696  0.8764
  508MOL0     H68537   0.041   3.371   4.775 -2.0683 -0.7990  0.1788
  508MOL0     H68538   0.003   3.605   4.813  0.9226 -3.9683 -3.2308
  508MOL0     H68539  -0.030   3.578   4.984  2.2760 -1.1463  0.5367
  508MOL0     H68540  -0.144   3.780   4.912  1.5100 -2.8764 -0.1131
  508MOL0     H68541  -0.361   3.934   4.963 -1.3933  0.5960  1.1269
  508MOL0     H68542  -0.759   4.043   4.715 -2.4634 -3.3833  4.0586
  508MOL0     H68543  -0.897   4.266   4.709 -2.2467  0.1732  2.6671
  508MOL0     H68544  -1.066   4.513   4.948  0.4961 -0.3476 -3.7659
  508MOL0     H68545  -0.949   4.452   5.072  2.5910  0.9404  0.0759
  508MOL0     H68546  -0.964   4.696   5.104  2.1069 -2.0166  2.5024
  508MOL0     H68547  -0.811   4.630   5.077 -0.3072 -2.6279  0.7543
  508MOL0     H68548  -0.842   4.687   4.818 -3.1104 -0.2378 -1.4920
  508MOL0     H68549  -0.990   4.766   4.865  0.5739 -0.0823  0.6192
  508MOL0     H68550  -0.744   4.865   5.001  2.1218 -2.5786 -1.8636
  508MOL0     H68551  -0.907   4.934   4.987  1.1597 -0.1651  0.0267
  508MOL0     H68552  -0.854   5.005   4.743  0.5422  2.9451  0.8330
  508MOL0     H68553  -0.722   4.888   4.744  1.1578  0.6282 -0.8330
  508MOL0     H68554  -0.580   5.018   4.878  1.6456  0.8933 -0.9461
  508MOL0     H68555  -0.651   5.088   4.717 -0.6038 -3.6428 -1.4556
  508MOL0     H68556  -0.622   5.230   4.938 -0.6791  0.9759  0.3663
  508MOL0     H68557  -0.763   5.144   4.982  2.0037 -0.9505  1.1636
  508MOL0     H68558  -0.838   5.227   4.726  0.5556 -1.3181  0.2152
  508MOL0     H68559  -0.892   5.307   4.851 -2.0180 -1.1487 -3.9272
  508MOL0     H68560  -0.744   4.363   5.088  0.1855  1.2413 -1.0458
  508MOL0     H68561  -0.635   4.173   5.108 -3.8237 -3.0049  2.6636
  508MOL0     H68562  -0.611   3.601   4.849  1.1476 -0.1294 -0.6170
  508MOL0     H68563  -0.413   3.460   4.839  1.5846  0.1375 -0.4314
  508MOL0     H68564   1.034   2.674   5.972  2.8298  1.1011  1.8569
  508MOL0     H68565   1.166   2.540   6.136  0.8278 -0.5568 -0.7776
  508MOL0     H68566   1.302   2.301   6.357  1.1666 -0.8485  0.4413
  508MOL0     H68567   1.458   2.207   6.522  0.2510 -0.1534 -1.6135
  508MOL0     H68568   1.572   2.088   6.704  1.8624  0.9880  1.3830
  508MOL0     H68569   1.521   2.013   6.852 -2.7182 -0.6891  0.3349
  508MOL0     H68570   1.458   2.307   6.789  1.6209  2.9818  3.8962
  508MOL0     H68571   1.595   2.247   6.872  0.2337 -0.7040  2.4839
  508MOL0     H68572   1.303   2.198   6.957  0.9599 -0.6007 -0.7325
  508MOL0     H68573   1.382   2.336   7.007 -3.6330  0.1474 -1.2473
  508MOL0     H68574   1.392   2.164   7.173 -1.5760  3.7900 -1.7729
  508MOL0     H68575   1.443   2.053   7.049 -0.7173 -0.3779  1.1788
  508MOL0     H68576   1.800   2.279   7.201 -0.4571 -1.4869  0.4221
  508MOL0     H68577   1.148   1.959   6.669  1.4292 -0.2488  0.5277
  508MOL0     H68578   0.901   2.043   6.530 -1.7489 -1.3849 -0.3258
  508MOL0     H68579   0.924   2.004   6.362 -2.2825  0.2013  1.4608
  508MOL0     H68580   0.971   1.888   6.486 -0.2644  0.3859  0.1125
  509MOL0     O68581  11.024   1.739   7.051 -0.4103  0.4495  0.4208
  509MOL0     C68582  11.018   1.619   7.074  1.3550 -0.5449 -0.6450
  509MOL0     O68583  10.991   1.525   6.984  0.3946 -0.1859  0.8392
  509MOL0     C68584  10.947   1.563   6.863 -0.4663 -0.2551  0.6069
  509MOL0     C68585  10.814   1.551   6.826  0.7805  0.2497  0.4812
  509MOL0     C68586  10.779   1.587   6.693  0.0545 -0.4691  0.6810
  509MOL0     C68587  10.872   1.648   6.608  0.1518  0.4264  0.4184
  509MOL0     O68588  10.825   1.668   6.481  0.0040  0.3411  0.1149
  509MOL0     C68589  10.909   1.637   6.370  0.7465 -1.3159  0.3235
  509MOL0     C68590  10.823   1.669   6.240  0.2934 -0.3278  0.9167
  509MOL0     C68591  10.715   1.560   6.228  0.7582  0.4096  0.0247
  509MOL0     C68592  10.665   1.549   6.083 -0.7439  0.2695 -0.0504
  509MOL0     C68593  10.586   1.423   6.075 -0.3081  0.0774 -0.3260
  509MOL0     C68594  10.555   1.390   5.927  0.2478 -1.2053 -1.1435
  509MOL0     C68595  10.452   1.276   5.912  0.8441 -0.0596  0.3284
  509MOL0     C68596  10.403   1.277   5.768  0.8972  0.3019  0.1191
  509MOL0     N68597  10.318   1.148   5.749  0.5597  0.3348  0.6653
  509MOL0     C68598  10.359   1.036   5.670  0.7857  0.6715  0.4396
  509MOL0     C68599  10.254   0.957   5.674 -0.0407 -0.3152  0.7171
  509MOL0     C68600  10.265   0.817   5.622  0.1006  0.8960 -0.2067
  509MOL0     C68601  10.175   0.785   5.507  0.5532 -0.1105 -0.2922
  509MOL0     C68602  10.179   0.880   5.386 -0.4255  0.2401 -0.0302
  509MOL0     C68603  10.095   0.844   5.259 -0.0874 -0.0845 -1.0258
  509MOL0     O68604  10.148   0.752   5.157 -0.3699  0.3030 -0.1260
  509MOL0     C68605  10.077   0.731   5.041  0.7883 -0.1358  0.6042
  509MOL0     C68606   9.942   0.767   5.025  1.0101  0.1953  0.2094
  509MOL0     C68607   9.888   0.740   4.895  0.8302 -0.9229  0.2927
  509MOL0     C68608   9.955   0.680   4.791 -0.2561 -0.0709  0.1791
  509MOL0     C68609   9.894   0.644   4.658 -0.6886 -0.1021  0.3499
  509MOL0     O68610   9.976   0.587   4.560  0.5534 -0.4960  0.3133
  509MOL0     C68611   9.894   0.532   4.455 -0.7169 -0.9085  0.5229
  509MOL0     C68612   9.877   0.600   4.332  0.6313 -0.0217  1.5360
  509MOL0     C68613   9.802   0.534   4.228  0.5010 -0.1403 -0.1793
  509MOL0     C68614   9.732   0.411   4.255  0.6354  0.1167 -0.0880
  509MOL0     O68615   9.650   0.347   4.169  0.2235 -0.0532  0.3649
  509MOL0     C68616   9.558   0.425   4.094  0.1704  0.6442  0.3435
  509MOL0     C68617   9.525   0.368   3.956  0.5544  0.2367 -0.3789
  509MOL0     C68618   9.642   0.382   3.855 -0.1381  0.5522 -0.1181
  509MOL0     C68619   9.612   0.349   3.712 -0.3149 -0.5827 -0.2623
  509MOL0     C68620   9.528   0.216   3.693 -0.4837  0.3369 -0.1259
  509MOL0     C68621   9.587   0.087   3.761 -0.3914 -0.6240 -0.3424
  509MOL0     C68622   9.531  -0.042   3.710  0.7155 -0.9513  0.4956
  509MOL0     C68623   9.593  -0.176   3.763  0.0590 -0.1062  0.4686
  509MOL0    Cl68624   9.496  -0.316   3.706  0.2513  0.1202  0.3810
  509MOL0     C68625   9.756   0.343   4.372 -0.3409 -0.1130  0.5285
  509MOL0     C68626   9.841   0.406   4.472 -0.3468 -0.6204 -0.8264
  509MOL0     O68627   9.777   0.672   4.640 -0.3015 -0.6266 -0.1273
  509MOL0     C68628  10.088   0.645   4.816  0.0874 -0.5681  0.6428
  509MOL0     C68629  10.148   0.671   4.938 -0.4132 -0.1929  0.9102
  509MOL0     N68630  10.149   1.012   5.745  0.2409  0.2618 -0.4443
  509MOL0     N68631  10.191   1.130   5.788 -0.4217  0.8232  0.7163
  509MOL0     C68632  11.007   1.661   6.646  0.3271 -0.6605  0.4091
  509MOL0     C68633  11.046   1.606   6.768  0.1088 -0.1635 -1.0854
  509MOL0     C68634  11.060   1.570   7.210 -0.2740  0.5249  0.5582
  509MOL0     C68635  11.080   1.429   7.224 -0.5260  0.7606  0.0223
  509MOL0     C68636  11.151   1.386   7.340  0.6072 -0.1548  0.0548
  509MOL0     C68637  11.190   1.474   7.441 -0.1877  0.3393  0.7299
  509MOL0     O68638  11.269   1.422   7.539 -0.4465 -0.4810 -0.6900
  509MOL0     C68639  11.271   1.484   7.666 -0.0881 -0.3941 -0.1582
  509MOL0     C68640  11.321   1.377   7.758 -1.4007  0.0767 -0.5647
  509MOL0     C68641  11.205   1.275   7.794 -0.4061  0.3568 -0.2128
  509MOL0     C68642  11.252   1.164   7.885  0.2296  0.0213 -0.5728
  509MOL0     C68643  11.250   1.203   8.031 -0.2146  0.4830  0.6947
  509MOL0     C68644  11.245   1.222   8.152  0.3875 -0.5006  0.7346
  509MOL0     C68645  11.167   1.611   7.430  0.6741  0.2023  0.3963
  509MOL0     C68646  11.089   1.659   7.321  0.0788  0.9040 -0.4850
  509MOL0     C68647  11.047   1.803   7.326  0.4823  0.3431  0.3230
  509MOL0     H68648  10.752   1.510   6.906 -0.5791  2.3898  0.6087
  509MOL0     H68649  10.678   1.578   6.657  0.0057 -0.2618  0.7629
  509MOL0     H68650  10.998   1.700   6.375 -0.6041  0.6039  3.2048
  509MOL0     H68651  10.931   1.530   6.365  0.9152 -1.2370 -0.9078
  509MOL0     H68652  10.893   1.666   6.155  0.2533 -2.8766  0.9061
  509MOL0     H68653  10.783   1.771   6.238  1.3175  0.0871  0.6190
  509MOL0     H68654  10.623   1.578   6.284 -1.7158 -1.2653 -3.1451
  509MOL0     H68655  10.758   1.464   6.258  3.4561  1.7886  0.8808
  509MOL0     H68656  10.611   1.643   6.065  0.6984  1.0136 -0.6047
  509MOL0     H68657  10.746   1.544   6.010 -1.9327  4.5181 -2.0047
  509MOL0     H68658  10.651   1.338   6.100  1.8505  1.6605 -0.3490
  509MOL0     H68659  10.503   1.431   6.146  0.2210  1.1767  0.1885
  509MOL0     H68660  10.518   1.485   5.887 -1.7162 -2.5237 -2.6355
  509MOL0     H68661  10.643   1.368   5.867  1.0525  1.8615 -1.2405
  509MOL0     H68662  10.372   1.282   5.987  1.5959 -0.2589  1.1671
  509MOL0     H68663  10.508   1.183   5.929 -1.2789 -2.0416 -2.5524
  509MOL0     H68664  10.341   1.365   5.753  1.0086  0.4853  0.7035
  509MOL0     H68665  10.485   1.269   5.696  1.1500 -4.5831  0.5684
  509MOL0     H68666  10.462   1.014   5.641  0.2539  2.4553 -3.4008
  509MOL0     H68667  10.363   0.792   5.580  0.1708 -1.3676  1.1344
  509MOL0     H68668  10.256   0.749   5.708  1.8017  1.7184  0.6596
  509MOL0     H68669  10.206   0.685   5.474  0.5649  0.2202 -1.3138
  509MOL0     H68670  10.077   0.778   5.555  1.0979  2.4526  1.3793
  509MOL0     H68671  10.282   0.884   5.349 -0.4522 -1.2442 -0.3345
  509MOL0     H68672  10.145   0.979   5.420  0.2986  1.5424 -2.8020
  509MOL0     H68673  10.057   0.934   5.209 -0.8321  0.3811  0.3465
  509MOL0     H68674  10.000   0.796   5.284 -1.2653  1.8541 -1.5049
  509MOL0     H68675   9.875   0.808   5.100 -1.7111 -2.1432 -0.7356
  509MOL0     H68676   9.786   0.767   4.870 -0.1735 -3.6566  1.1333
  509MOL0     H68677   9.914   0.702   4.328  4.2035 -1.1868  1.0420
  509MOL0     H68678   9.791   0.592   4.137 -3.2696  0.4473  0.4671
  509MOL0     H68679   9.467   0.443   4.152 -0.9649  0.4811 -1.3047
  509MOL0     H68680   9.611   0.519   4.076  1.0626 -0.4364 -3.5807
  509MOL0     H68681   9.497   0.262   3.960  2.0684 -0.2712 -1.8469
  509MOL0     H68682   9.442   0.430   3.921  0.1713 -0.3365 -0.4992
  509MOL0     H68683   9.685   0.481   3.843 -1.5966  1.5324  1.9575
  509MOL0     H68684   9.709   0.309   3.903  0.8174  0.1568 -1.9835
  509MOL0     H68685   9.705   0.352   3.655  2.5460  0.3687  4.0067
  509MOL0     H68686   9.556   0.434   3.672 -0.1837  0.0097  0.7869
  509MOL0     H68687   9.529   0.192   3.587 -1.2350  1.3820 -0.3847
  509MOL0     H68688   9.424   0.239   3.718  0.2898  1.1772  2.7038
  509MOL0     H68689   9.696   0.081   3.765 -0.2389  1.4850  4.1210
  509MOL0     H68690   9.570   0.101   3.868  0.8740  1.7847 -0.3801
  509MOL0     H68691   9.542  -0.040   3.601 -0.3120  1.7877  0.3530
  509MOL0     H68692   9.426  -0.052   3.742  0.0874  0.0633 -1.1235
  509MOL0     H68693   9.688  -0.172   3.709 -0.5675  1.3345 -0.6001
  509MOL0     H68694   9.616  -0.183   3.869  3.3310 -1.5006 -0.2147
  509MOL0     H68695   9.695   0.254   4.375 -0.0774 -0.5232 -2.8236
  509MOL0     H68696   9.860   0.361   4.569  4.6420  0.6208 -0.9580
  509MOL0     H68697  10.152   0.599   4.742  2.2367  3.0105  0.0462
  509MOL0     H68698  10.253   0.646   4.942 -0.6022 -1.5870 -1.4149
  509MOL0     H68699  11.080   1.695   6.573  1.3636 -0.7985  1.3580
  509MOL0     H68700  11.151   1.596   6.795  0.8951 -0.4287 -3.9430
  509MOL0     H68701  11.068   1.344   7.158 -0.1740 -0.6010  1.6304
  509MOL0     H68702  11.198   1.288   7.341  2.3624  0.6462  0.9205
  509MOL0     H68703  11.176   1.520   7.706  1.5563  0.6841  3.1467
  509MOL0     H68704  11.343   1.566   7.662  0.2495 -0.3646  3.2931
  509MOL0     H68705  11.363   1.427   7.845 -0.3328 -0.1097 -0.9533
  509MOL0     H68706  11.407   1.333   7.706 -0.7235  1.6663 -0.8663
  509MOL0     H68707  11.176   1.235   7.696  3.4681 -2.4851 -0.4463
  509MOL0     H68708  11.114   1.314   7.841 -1.3872  0.8499 -2.3963
  509MOL0     H68709  11.189   1.075   7.871  2.7941 -1.9800 -0.0306
  509MOL0     H68710  11.354   1.136   7.859 -0.1499 -1.3926 -0.6232
  509MOL0     H68711  11.227   1.230   8.257 -0.8972 -4.1459  0.9248
  509MOL0     H68712  11.197   1.685   7.503 -1.6430  0.5615  1.0701
  509MOL0     H68713  11.132   1.859   7.287 -0.6844  1.1755 -1.1525
  509MOL0     H68714  10.955   1.822   7.269 -0.7270 -2.0424  1.3245
  509MOL0     H68715  11.034   1.838   7.430 -3.8410 -2.3318  0.9536
  510MOL0     O68716  11.336  11.344   8.596  0.2866 -0.0504 -0.0260
  510MOL0     C68717  11.362  11.231   8.638  0.6145 -0.8646  0.0833
  510MOL0     O68718  11.361  11.110   8.566  0.3583 -0.3239  0.2363
  510MOL0     C68719  11.316  11.108   8.438  0.3656 -0.3982  0.4720
  510MOL0     C68720  11.193  11.049   8.416  0.0070 -0.0001 -0.1710
  510MOL0     C68721  11.133  11.073   8.287 -0.7900  0.7343  0.7850
  510MOL0     C68722  11.212  11.122   8.182  0.2366  0.4294 -0.4255
  510MOL0     O68723  11.168  11.149   8.049 -0.8076 -0.1283  0.3127
  510MOL0     C68724  11.035  11.125   8.020 -0.3154  0.2070  0.4564
  510MOL0     C68725  11.021  11.143   7.871  0.3298 -0.3102  0.4599
  510MOL0     C68726  10.858  11.135   7.834 -0.1742  0.6712 -0.2456
  510MOL0     C68727  10.835  11.174   7.687  0.3325  0.1844 -0.6783
  510MOL0     C68728  10.694  11.134   7.645  0.7804  0.0393  0.1503
  510MOL0     C68729  10.685  11.169   7.500  0.5042  0.6588 -0.6076
  510MOL0     C68730  10.544  11.134   7.427 -0.2297  0.4111  0.5512
  510MOL0     C68731  10.513  10.989   7.438 -0.2521 -0.3625 -0.0468
  510MOL0     N68732  10.613  10.901   7.397 -0.5404 -0.1866  0.3037
  510MOL0     C68733  10.647  10.787   7.469 -0.4258 -0.4887  0.5770
  510MOL0     C68734  10.763  10.736   7.411  0.0778 -0.7362 -0.1526
  510MOL0     C68735  10.845  10.611   7.421 -0.9116 -0.5923 -1.0408
  510MOL0     C68736  10.932  10.613   7.545 -0.8039  0.8282 -1.1803
  510MOL0     C68737  11.025  10.737   7.560  0.4169 -0.1937  0.8100
  510MOL0     C68738  11.109  10.741   7.688  0.1937  0.8999 -0.1586
  510MOL0     O68739  11.017  10.763   7.798 -0.7599 -0.5954  0.3476
  510MOL0     C68740  11.058  10.772   7.925 -0.0386  0.0068 -0.7063
  510MOL0     C68741  10.975  10.729   8.028 -0.0241  0.0710  0.6175
  510MOL0     C68742  11.019  10.712   8.159 -0.5848 -0.2430 -0.1352
  510MOL0     C68743  11.148  10.744   8.193 -0.7454 -0.5243 -0.5181
  510MOL0     C68744  11.189  10.711   8.338  0.0612 -0.3718  0.0587
  510MOL0     O68745  11.091  10.684   8.429  0.4585 -0.2227  0.1048
  510MOL0     C68746  11.106  10.671   8.567 -0.1420  0.5715  0.4667
  510MOL0     C68747  11.031  10.572   8.631 -1.2517  0.3777  0.7127
  510MOL0     C68748  11.023  10.558   8.771  1.0853 -0.9187  1.2146
  510MOL0     C68749  11.096  10.644   8.846  0.0189 -0.4433  0.4367
  510MOL0     O68750  11.093  10.628   8.977  0.8692 -0.0469 -0.3223
  510MOL0     C68751  10.976  10.698   9.037 -0.1163 -0.8560 -0.5133
  510MOL0     C68752  11.019  10.808   9.133  0.4548  0.7792  0.1302
  510MOL0     C68753  11.134  10.764   9.228  0.0409  0.2674  0.8087
  510MOL0     C68754  11.201  10.885   9.292  0.2507 -0.1109 -0.3328
  510MOL0     C68755  11.322  10.822   9.365 -1.1650  0.2205  0.5850
  510MOL0     C68756  11.384  10.900   9.481  0.3189 -1.6160 -0.4065
  510MOL0     C68757  11.548  10.911   9.475 -0.0023 -0.0617  0.1171
  510MOL0     C68758  11.618  10.774   9.452  0.6674 -0.9595 -0.7627
  510MOL0    Cl68759  11.796  10.804   9.445  0.0263  0.0061  0.0582
  510MOL0     C68760  11.163  10.755   8.787  0.0354  0.0276  0.5679
  510MOL0     C68761  11.176  10.764   8.649 -0.3895 -0.0786 -0.3113
  510MOL0     O68762  11.307  10.720   8.363  0.5404  0.1546  0.5863
  510MOL0     C68763  11.232  10.801   8.097 -0.7175 -0.9338 -0.2980
  510MOL0     C68764  11.188  10.814   7.960  0.3836 -0.1140 -0.2797
  510MOL0     N68765  10.791  10.828   7.313  0.4657  0.0164  0.4074
  510MOL0     N68766  10.707  10.931   7.308  0.3626 -1.1781  0.0502
  510MOL0     C68767  11.338  11.163   8.205 -0.3672 -0.6288  0.0665
  510MOL0     C68768  11.390  11.161   8.333 -0.1626 -1.0106 -0.1218
  510MOL0     C68769  11.387  11.226   8.795  0.8403 -1.4918  1.0016
  510MOL0     C68770  11.343  11.111   8.861  0.0445  0.5944  0.7846
  510MOL0     C68771  11.388  11.089   8.990 -1.0819  0.1711 -0.9125
  510MOL0     C68772  11.466  11.186   9.061  0.0884 -0.6219 -0.0943
  510MOL0     O68773  11.506  11.164   9.191 -0.7152  0.0359 -0.5928
  510MOL0     C68774  11.635  11.226   9.234  0.3794 -0.2873 -0.2408
  510MOL0     C68775  11.753  11.174   9.154  0.1078 -0.3846 -0.2286
  510MOL0     C68776  11.797  11.032   9.169 -0.0932 -0.0203  0.3241
  510MOL0     C68777  11.922  11.007   9.076 -1.2193 -0.7497  0.0907
  510MOL0     C68778  11.934  10.865   9.056 -0.0441  0.1824 -0.0986
  510MOL0     C68779  11.924  10.743   9.042 -0.4583  1.1546  0.5113
  510MOL0     C68780  11.488  11.310   9.001 -0.7779  1.0930  0.3353
  510MOL0     C68781  11.442  11.336   8.873 -0.2366  1.5031  0.1474
  510MOL0     C68782  11.472  11.473   8.814 -0.6730  0.6559  0.1644
  510MOL0     H68783  11.141  11.015   8.505 -1.5324  0.1756 -0.9760
  510MOL0     H68784  11.026  11.054   8.290 -0.3434 -2.0787  1.7025
  510MOL0     H68785  11.002  11.025   8.052 -2.7480  0.9486  0.4224
  510MOL0     H68786  10.973  11.201   8.067 -1.1928  0.7149 -1.4428
  510MOL0     H68787  11.089  11.077   7.817 -1.1549 -1.4193 -0.1257
  510MOL0     H68788  11.043  11.246   7.842 -1.7905  0.3482  0.9763
  510MOL0     H68789  10.803  11.199   7.904 -1.2988  0.2045 -0.6750
  510MOL0     H68790  10.828  11.031   7.852  0.7486  0.8328  2.8927
  510MOL0     H68791  10.862  11.279   7.669 -0.4883  0.3129 -1.1994
  510MOL0     H68792  10.904  11.121   7.621 -1.0906 -0.1657 -1.9435
  510MOL0     H68793  10.681  11.026   7.657 -2.2219  0.4717  1.8633
  510MOL0     H68794  10.609  11.177   7.700  1.4654 -0.1830  1.4082
  510MOL0     H68795  10.683  11.278   7.500 -2.0216  0.7224  1.4669
  510MOL0     H68796  10.774  11.135   7.447  1.3913  0.7287  0.8013
  510MOL0     H68797  10.541  11.167   7.323  0.1696  0.1287  0.4507
  510MOL0     H68798  10.476  11.192   7.491  0.0838  0.5558  0.7536
  510MOL0     H68799  10.486  10.983   7.543 -1.9916  1.2572 -0.3435
  510MOL0     H68800  10.421  10.985   7.379  0.5470  0.2577 -1.3935
  510MOL0     H68801  10.596  10.741   7.554 -0.5642  1.5465  1.6603
  510MOL0     H68802  10.770  10.532   7.412 -1.3351 -0.3106 -0.1147
  510MOL0     H68803  10.913  10.604   7.336  0.3031 -0.2389 -0.1178
  510MOL0     H68804  10.865  10.608   7.631  1.3808  0.9222  0.6295
  510MOL0     H68805  10.998  10.528   7.565 -3.9884 -1.3487  0.9711
  510MOL0     H68806  10.961  10.825   7.550 -2.1753 -1.7751  2.2680
  510MOL0     H68807  11.105  10.739   7.485  0.8911 -3.9982  1.0336
  510MOL0     H68808  11.178  10.826   7.689 -0.2914  1.2884  0.2052
  510MOL0     H68809  11.173  10.651   7.692  0.5359  0.9896 -2.3211
  510MOL0     H68810  10.878  10.689   7.999 -1.3930  4.3949 -1.5303
  510MOL0     H68811  10.941  10.678   8.226 -1.8452  1.0593 -0.8815
  510MOL0     H68812  10.969  10.506   8.571 -0.3016  0.0016  0.1169
  510MOL0     H68813  10.960  10.484   8.819 -1.9962  0.0483 -1.0204
  510MOL0     H68814  10.915  10.766   8.976 -0.6328  1.5889  2.5021
  510MOL0     H68815  10.909  10.622   9.075 -2.7556  1.0885 -1.0018
  510MOL0     H68816  11.058  10.889   9.070 -0.7500 -0.4245 -2.2970
  510MOL0     H68817  10.937  10.853   9.190 -0.6739 -0.8667 -0.1241
  510MOL0     H68818  11.083  10.696   9.297  2.5647 -1.7027  0.8419
  510MOL0     H68819  11.214  10.707   9.181 -0.2311 -0.3499  1.0815
  510MOL0     H68820  11.139  10.942   9.361 -0.1668 -2.0324  0.9425
  510MOL0     H68821  11.232  10.950   9.209 -2.7503  0.6915 -0.9636
  510MOL0     H68822  11.404  10.815   9.292 -1.1764  1.6040  0.4064
  510MOL0     H68823  11.296  10.724   9.404 -2.2683 -1.5697 -3.9787
  510MOL0     H68824  11.336  10.998   9.482 -0.8943 -2.1856  1.1677
  510MOL0     H68825  11.366  10.867   9.583  0.2840  0.7259  0.4151
  510MOL0     H68826  11.585  10.956   9.567  0.2926  1.7155 -0.8471
  510MOL0     H68827  11.584  10.979   9.398  2.3950  0.0691  1.2669
  510MOL0     H68828  11.599  10.694   9.524 -0.9678  1.2844  1.4595
  510MOL0     H68829  11.571  10.729   9.364 -3.1956 -0.1422  0.6818
  510MOL0     H68830  11.226  10.817   8.850  2.9434 -0.7546 -1.3703
  510MOL0     H68831  11.241  10.839   8.606  0.0775 -0.2391  0.1079
  510MOL0     H68832  11.333  10.816   8.134 -0.6557 -0.5310 -0.6199
  510MOL0     H68833  11.244  10.871   7.886  1.0262  0.6322  0.7421
  510MOL0     H68834  11.402  11.184   8.120  1.9822 -1.5788  1.5323
  510MOL0     H68835  11.486  11.205   8.357 -0.4221 -0.5070  0.0159
  510MOL0     H68836  11.294  11.037   8.799  2.3775  0.6213 -1.2529
  510MOL0     H68837  11.357  10.999   9.043  0.1481  1.1199  1.5819
  510MOL0     H68838  11.658  11.208   9.339 -0.5888  0.2838  0.0895
  510MOL0     H68839  11.622  11.335   9.232  2.0719 -0.0018  1.7254
  510MOL0     H68840  11.839  11.235   9.184 -0.5491 -0.3297  1.6469
  510MOL0     H68841  11.727  11.203   9.052 -1.6423  1.9318  0.7927
  510MOL0     H68842  11.719  10.963   9.135  0.5554 -1.1110  0.9832
  510MOL0     H68843  11.824  11.009   9.273  0.6534 -1.8923 -0.2559
  510MOL0     H68844  11.897  11.052   8.979 -0.8698 -3.8414 -1.5718
  510MOL0     H68845  12.007  11.049   9.130 -0.7938 -0.8049 -0.5203
  510MOL0     H68846  11.925  10.639   9.019 -0.3397  1.4886 -1.0733
  510MOL0     H68847  11.527  11.396   9.054 -2.2575  3.0284 -1.5682
  510MOL0     H68848  11.388  11.511   8.754 -0.7810  0.2419  0.0512
  510MOL0     H68849  11.489  11.547   8.892  3.6227 -1.1796  1.2297
  510MOL0     H68850  11.565  11.477   8.756 -1.2972  0.3844 -0.8868
  511MOL0     O68851   6.858  10.405   2.394  0.6477 -0.5685 -0.1535
  511MOL0     C68852   6.943  10.358   2.325  0.1426 -0.1585 -0.4377
  511MOL0     O68853   6.976  10.406   2.199 -0.3124 -0.1558  0.5135
  511MOL0     C68854   6.878  10.433   2.105  0.9452  0.4810  0.3853
  511MOL0     C68855   6.743  10.409   2.121  1.1084  0.3649 -0.0175
  511MOL0     C68856   6.659  10.423   2.012 -0.8469  1.2559 -0.4767
  511MOL0     C68857   6.704  10.450   1.886 -0.3520 -0.1856 -0.6423
  511MOL0     O68858   6.622  10.441   1.766  0.0320  0.3993 -0.5561
  511MOL0     C68859   6.495  10.383   1.767  0.4213  0.6828 -1.6847
  511MOL0     C68860   6.468  10.340   1.622 -0.4651 -0.0871 -0.7326
  511MOL0     C68861   6.459  10.472   1.536 -0.6387  0.1689  0.0151
  511MOL0     C68862   6.407  10.441   1.395 -0.0927 -0.4166 -0.2662
  511MOL0     C68863   6.508  10.367   1.310  0.7036 -1.0734 -0.2493
  511MOL0     C68864   6.624  10.455   1.266 -0.0928  1.0936  0.6868
  511MOL0     C68865   6.698  10.365   1.158 -0.2340 -0.5900 -0.7439
  511MOL0     C68866   6.827  10.436   1.106 -0.1136  0.1627 -1.4533
  511MOL0     N68867   6.894  10.367   0.997 -0.1926  0.0400 -0.8291
  511MOL0     C68868   6.870  10.238   0.968 -0.1272  0.7600  0.5138
  511MOL0     C68869   6.949  10.217   0.857  0.9315  0.4248  0.5413
  511MOL0     C68870   6.949  10.081   0.801  0.0422  1.1297  0.4796
  511MOL0     C68871   6.975  10.082   0.649 -0.2408  0.6898  0.3773
  511MOL0     C68872   7.024   9.940   0.607  0.0399  0.6654  0.5654
  511MOL0     C68873   7.069   9.939   0.460 -1.0569 -0.5197  0.2102
  511MOL0     O68874   7.210   9.948   0.455  0.8119 -0.3784  0.3084
  511MOL0     C68875   7.288   9.952   0.348 -0.2001 -0.0223  0.8209
  511MOL0     C68876   7.232   9.957   0.221 -0.5086  0.7664 -0.5941
  511MOL0     C68877   7.312   9.981   0.110  0.5967  0.5297 -0.4962
  511MOL0     C68878   7.453   9.984   0.121 -0.0443 -0.0308  0.2370
  511MOL0     C68879   7.532   9.987  -0.004 -0.5697  0.7059  0.4170
  511MOL0     O68880   7.672   9.959  -0.008  0.3620 -0.0238 -1.0360
  511MOL0     C68881   7.749   9.989  -0.121  0.2187  0.1097  0.7052
  511MOL0     C68882   7.728   9.931  -0.255 -0.8607 -1.1637 -0.7953
  511MOL0     C68883   7.821   9.958  -0.343  0.5993  0.8107  0.6950
  511MOL0     C68884   7.939  10.026  -0.321  0.4588 -0.6197  0.2145
  511MOL0     O68885   8.047  10.047  -0.408  1.8195 -0.3297 -0.3649
  511MOL0     C68886   8.021  10.067  -0.543  1.1946  0.3851  0.4701
  511MOL0     C68887   8.123  10.155  -0.614  0.4467  0.5561 -0.0450
  511MOL0     C68888   8.153  10.285  -0.533 -0.2078 -0.3849  1.1410
  511MOL0     C68889   8.240  10.397  -0.600 -0.0030 -0.0122 -0.1434
  511MOL0     C68890   8.230  10.523  -0.525 -0.6214  0.6477  0.1512
  511MOL0     C68891   8.299  10.636  -0.602 -0.3496  0.9222 -0.1290
  511MOL0     C68892   8.297  10.778  -0.536  0.0034 -0.4407 -0.0315
  511MOL0     C68893   8.311  10.894  -0.645 -0.3103 -0.9363 -0.5126
  511MOL0    Cl68894   8.315  11.056  -0.558  0.7702  0.2318 -0.1275
  511MOL0     C68895   7.944  10.096  -0.200  0.7227  0.9549  1.3080
  511MOL0     C68896   7.852  10.077  -0.102 -0.5210 -0.3204 -0.4193
  511MOL0     O68897   7.467  10.040  -0.097  0.2841 -0.3014  0.1576
  511MOL0     C68898   7.515   9.969   0.248 -0.2347  0.7558 -0.3967
  511MOL0     C68899   7.433   9.947   0.363  1.0056 -1.4886 -0.1548
  511MOL0     N68900   7.013  10.337   0.822 -0.4426  0.5403 -0.0029
  511MOL0     N68901   6.970  10.421   0.902  0.6005 -0.5873 -0.1832
  511MOL0     C68902   6.841  10.469   1.868  0.7225  0.0148  0.0550
  511MOL0     C68903   6.923  10.452   1.976 -1.0671  0.1520 -0.1882
  511MOL0     C68904   7.042  10.260   2.386  0.5491 -0.8238 -0.3289
  511MOL0     C68905   7.172  10.255   2.324  0.1717 -0.3256  0.2133
  511MOL0     C68906   7.277  10.180   2.379 -0.3467 -0.2348 -0.0174
  511MOL0     C68907   7.255  10.108   2.497 -0.7014  0.3611  0.7306
  511MOL0     O68908   7.352  10.039   2.570 -0.0598  0.0300 -0.4654
  511MOL0     C68909   7.488  10.014   2.507 -0.2991 -0.6953  0.4163
  511MOL0     C68910   7.563   9.903   2.578 -0.0794  0.3096 -0.3604
  511MOL0     C68911   7.712   9.904   2.560  0.0005  0.8685 -0.0851
  511MOL0     C68912   7.789   9.830   2.671 -0.3659  0.2580  0.4696
  511MOL0     C68913   7.923   9.804   2.630 -1.0876  0.6781 -0.0624
  511MOL0     C68914   8.037   9.768   2.616 -0.3231  0.4863 -0.0976
  511MOL0     C68915   7.124  10.106   2.539 -0.6041 -0.4099  0.1652
  511MOL0     C68916   7.018  10.185   2.498 -0.4495 -0.7264  0.0645
  511MOL0     C68917   6.884  10.189   2.582  0.2610 -0.3327 -0.5037
  511MOL0     H68918   6.703  10.371   2.214 -0.1962  0.0698 -0.6675
  511MOL0     H68919   6.555  10.391   2.024 -0.9438  2.4268  2.8319
  511MOL0     H68920   6.500  10.295   1.831 -0.2825  1.9234  0.1655
  511MOL0     H68921   6.420  10.448   1.814  2.4583 -0.3735  3.8033
  511MOL0     H68922   6.374  10.288   1.605 -0.2035  0.2913 -3.9172
  511MOL0     H68923   6.552  10.280   1.585 -1.5131 -2.7841  0.9683
  511MOL0     H68924   6.564  10.499   1.529 -0.5201  0.1466  1.3875
  511MOL0     H68925   6.393  10.543   1.588 -1.5923 -0.2189 -0.6460
  511MOL0     H68926   6.318  10.377   1.395  0.7535 -1.6285  0.2866
  511MOL0     H68927   6.378  10.531   1.342  3.2726 -0.1074 -1.8273
  511MOL0     H68928   6.548  10.287   1.373  0.1949 -0.4318  0.9468
  511MOL0     H68929   6.463  10.314   1.226  2.0582  0.1569 -1.7925
  511MOL0     H68930   6.590  10.547   1.217 -1.4949  1.1470  1.7037
  511MOL0     H68931   6.687  10.479   1.352 -0.3338 -0.5296  1.3406
  511MOL0     H68932   6.635  10.349   1.070 -2.0110  5.0862 -0.9265
  511MOL0     H68933   6.718  10.277   1.219 -2.2013 -0.3926  0.2672
  511MOL0     H68934   6.811  10.539   1.075  1.3058 -0.0264 -2.9636
  511MOL0     H68935   6.898  10.448   1.188  3.7260  0.4563 -4.5433
  511MOL0     H68936   6.804  10.171   1.021 -0.5279 -1.1162 -2.1546
  511MOL0     H68937   7.032  10.029   0.850 -1.1066 -1.8779 -0.4973
  511MOL0     H68938   6.861  10.026   0.835  1.5249 -0.2710  2.2978
  511MOL0     H68939   6.884  10.105   0.594 -1.0212 -1.9509  0.4134
  511MOL0     H68940   7.048  10.162   0.634  0.6570 -0.5099 -2.4385
  511MOL0     H68941   6.942   9.871   0.628  0.1471 -0.3774 -1.9995
  511MOL0     H68942   7.101   9.908   0.677 -0.9672 -0.7109  1.0949
  511MOL0     H68943   7.011  10.015   0.407 -0.8922  0.3260  1.2062
  511MOL0     H68944   7.048   9.840   0.418 -1.0058  1.1414 -4.3497
  511MOL0     H68945   7.125   9.954   0.207 -0.6832  0.3176  0.6760
  511MOL0     H68946   7.261   9.984   0.015  4.9443  2.4459 -3.0822
  511MOL0     H68947   7.641   9.868  -0.267 -1.3200 -1.0753  1.5868
  511MOL0     H68948   7.804   9.886  -0.423 -0.2897 -1.5484  2.8485
  511MOL0     H68949   8.015   9.971  -0.596  1.0907  0.9939 -0.6655
  511MOL0     H68950   7.923  10.113  -0.558  0.6086 -0.2949  2.0062
  511MOL0     H68951   8.216  10.098  -0.616  0.3813  0.4579 -0.3881
  511MOL0     H68952   8.083  10.173  -0.714  1.6915 -0.4364 -0.7359
  511MOL0     H68953   8.055  10.321  -0.501 -1.8646 -2.4919 -1.1803
  511MOL0     H68954   8.207  10.256  -0.442 -0.9054 -0.1753  1.6279
  511MOL0     H68955   8.230  10.406  -0.708  1.9837 -3.1039 -0.6950
  511MOL0     H68956   8.343  10.361  -0.588  0.0476  0.9342  3.5342
  511MOL0     H68957   8.275  10.503  -0.427 -0.4356 -3.8581 -0.6576
  511MOL0     H68958   8.127  10.560  -0.518 -0.0262  2.0515  3.4644
  511MOL0     H68959   8.404  10.612  -0.625 -0.2462  0.4298  0.8237
  511MOL0     H68960   8.259  10.642  -0.704  2.1065 -0.7310 -1.2840
  511MOL0     H68961   8.384  10.794  -0.472 -0.6145  2.0097  0.2897
  511MOL0     H68962   8.208  10.810  -0.481  0.6745 -0.6096  1.1911
  511MOL0     H68963   8.406  10.873  -0.697 -1.1559  1.6651 -3.3942
  511MOL0     H68964   8.238  10.893  -0.727  2.1007  3.2082 -3.0720
  511MOL0     H68965   8.029  10.164  -0.190  1.8780 -0.4178  1.1923
  511MOL0     H68966   7.881  10.123  -0.008  1.0435  3.0128 -2.3655
  511MOL0     H68967   7.622   9.958   0.260 -0.6262 -4.7796  0.4982
  511MOL0     H68968   7.472   9.944   0.464 -2.4753  1.2395  1.4720
  511MOL0     H68969   6.887  10.498   1.773  0.7646  1.3709  0.4666
  511MOL0     H68970   7.030  10.466   1.964 -0.3861 -0.2205  4.1280
  511MOL0     H68971   7.197  10.305   2.230  3.8760 -2.9450 -0.4162
  511MOL0     H68972   7.374  10.189   2.330 -0.5950  4.7074 -0.1157
  511MOL0     H68973   7.553  10.101   2.510 -1.0616 -0.1463  2.0486
  511MOL0     H68974   7.469   9.982   2.404  0.1346 -4.2755  1.3042
  511MOL0     H68975   7.519   9.808   2.547 -1.0195  1.0688 -1.4613
  511MOL0     H68976   7.549   9.923   2.685  0.5627  1.0510 -0.4022
  511MOL0     H68977   7.740  10.010   2.561  4.0774 -0.0246  1.6494
  511MOL0     H68978   7.740   9.866   2.461 -1.8568  0.4443 -0.4772
  511MOL0     H68979   7.791   9.891   2.762  1.4439  3.1477 -1.3598
  511MOL0     H68980   7.735   9.739   2.699 -1.4148  0.7708  0.1517
  511MOL0     H68981   8.135   9.742   2.583 -0.6646 -1.8098  0.5113
  511MOL0     H68982   7.120  10.058   2.637  1.8629 -3.2003 -0.9567
  511MOL0     H68983   6.891  10.281   2.640  3.7394  1.3470 -3.1947
  511MOL0     H68984   6.799  10.207   2.516  0.6034  2.4917 -0.2741
  511MOL0     H68985   6.867  10.099   2.642 -2.8340 -0.4525 -1.4102
  512MOL0     O68986   9.217   4.235   6.367  0.8545  0.1237 -0.8777
  512MOL0     C68987   9.225   4.193   6.483 -0.0848 -0.3730  0.0106
  512MOL0     O68988   9.342   4.162   6.546 -0.4101 -0.3219  0.4607
  512MOL0     C68989   9.462   4.149   6.478 -0.8822  0.2634 -0.3246
  512MOL0     C68990   9.581   4.162   6.548 -1.0233  0.3173 -0.4494
  512MOL0     C68991   9.702   4.138   6.483  0.8709  0.8957  0.4474
  512MOL0     C68992   9.702   4.077   6.361 -0.9901 -0.5080  0.8436
  512MOL0     O68993   9.832   4.038   6.329 -0.7579 -0.4324  0.4049
  512MOL0     C68994   9.856   4.003   6.191  0.5721 -0.8391  0.3373
  512MOL0     C68995  10.004   4.000   6.144  0.6307 -0.9875 -0.0733
  512MOL0     C68996  10.084   4.125   6.191 -0.4405 -0.0800  0.0044
  512MOL0     C68997  10.225   4.123   6.159  0.2953  0.0845 -0.9048
  512MOL0     C68998  10.278   4.267   6.146 -0.2050  1.3284 -0.8501
  512MOL0     C68999  10.309   4.311   6.007  0.2436 -0.6783  0.2072
  512MOL0     C69000  10.193   4.314   5.908 -0.3826  0.2519 -1.0452
  512MOL0     C69001  10.233   4.389   5.774 -0.5428  1.8974  0.0975
  512MOL0     N69002  10.148   4.343   5.665  0.8920  0.7163 -0.6015
  512MOL0     C69003  10.018   4.304   5.669 -0.0513 -0.3819  0.1961
  512MOL0     C69004   9.994   4.251   5.548 -0.1989 -0.0657  0.7116
  512MOL0     C69005   9.866   4.255   5.490  0.4586  0.1616 -0.6748
  512MOL0     C69006   9.844   4.151   5.383  0.3069  1.6932  1.0200
  512MOL0     C69007   9.890   4.003   5.409  0.6274  0.1779  0.1972
  512MOL0     C69008   9.817   3.915   5.302  0.3723 -1.1600  0.6135
  512MOL0     O69009   9.869   3.967   5.178  0.7973 -0.1238  0.1800
  512MOL0     C69010   9.980   3.912   5.117  0.2270  0.7407  0.0732
  512MOL0     C69011  10.001   3.935   4.976  0.0174  0.5025 -0.5438
  512MOL0     C69012  10.108   3.873   4.909 -0.7696 -0.0111 -0.1016
  512MOL0     C69013  10.198   3.787   4.978 -0.2374  0.0823  0.2766
  512MOL0     C69014  10.312   3.715   4.910 -0.1006 -0.2796 -0.8798
  512MOL0     O69015  10.322   3.750   4.775 -0.8207  0.0160 -0.3896
  512MOL0     C69016  10.421   3.710   4.689  0.5274  0.1508  0.1455
  512MOL0     C69017  10.399   3.773   4.568 -1.0867 -0.6770  0.7478
  512MOL0     C69018  10.499   3.785   4.467  0.4389 -0.9218  0.1957
  512MOL0     C69019  10.623   3.718   4.496 -0.0865  0.1784 -0.7855
  512MOL0     O69020  10.721   3.711   4.404 -0.4328  0.9613  0.2394
  512MOL0     C69021  10.706   3.769   4.277  0.0425  0.6849  0.1336
  512MOL0     C69022  10.645   3.671   4.177 -0.5426  0.6865  0.3172
  512MOL0     C69023  10.714   3.533   4.166 -0.1270 -0.0145  0.4677
  512MOL0     C69024  10.873   3.534   4.206 -0.2372 -0.5748 -0.2228
  512MOL0     C69025  10.930   3.397   4.192  0.2184 -0.3490 -0.4668
  512MOL0     C69026  10.966   3.361   4.051  0.1367  0.4854  0.0715
  512MOL0     C69027  11.044   3.231   4.043 -0.2320 -0.6656 -0.4578
  512MOL0     C69028  11.187   3.244   4.095  0.0281 -0.5408  0.4746
  512MOL0    Cl69029  11.275   3.087   4.091  0.3219  0.1770 -0.1316
  512MOL0     C69030  10.639   3.658   4.617 -0.3355 -0.4784 -0.3075
  512MOL0     C69031  10.538   3.646   4.719 -0.3990  0.3668  0.1713
  512MOL0     O69032  10.389   3.639   4.972 -0.5511 -0.4345 -0.0965
  512MOL0     C69033  10.182   3.781   5.109 -0.5898 -0.0402 -0.9923
  512MOL0     C69034  10.072   3.833   5.180 -0.1484 -0.1046  0.3430
  512MOL0     N69035  10.104   4.270   5.469  0.6855  0.8576 -0.4052
  512MOL0     N69036  10.201   4.327   5.541  0.1781  0.0071 -0.1551
  512MOL0     C69037   9.588   4.049   6.288  0.5233 -0.6269 -0.4305
  512MOL0     C69038   9.469   4.077   6.361 -0.0993 -0.1541  0.1339
  512MOL0     C69039   9.104   4.177   6.561  0.8325  0.4740 -0.1921
  512MOL0     C69040   9.123   4.127   6.693 -0.2787  0.0372  0.1209
  512MOL0     C69041   9.009   4.097   6.779  0.5382 -0.6592 -1.3211
  512MOL0     C69042   8.879   4.131   6.741 -0.3787 -0.1496 -0.9576
  512MOL0     O69043   8.757   4.112   6.806 -0.2348  0.2357 -0.2575
  512MOL0     C69044   8.759   4.071   6.939  0.7025 -0.0327 -0.8992
  512MOL0     C69045   8.635   4.136   7.000  0.3082 -0.4541 -0.2091
  512MOL0     C69046   8.655   4.165   7.150  0.5099  0.0007 -0.8054
  512MOL0     C69047   8.686   4.034   7.228 -0.1102  0.6843 -0.0647
  512MOL0     C69048   8.758   4.072   7.350  0.7376  0.4608 -0.5052
  512MOL0     C69049   8.828   4.096   7.450 -0.5267 -0.0383  0.5783
  512MOL0     C69050   8.869   4.199   6.630 -0.1930  0.5717  0.3519
  512MOL0     C69051   8.968   4.220   6.530 -0.3914 -0.0144 -0.3626
  512MOL0     C69052   8.925   4.269   6.397  0.3080 -0.0051  0.4085
  512MOL0     H69053   9.578   4.193   6.652  2.9242  3.6194 -1.0293
  512MOL0     H69054   9.793   4.126   6.541  1.4286 -2.6465 -0.8673
  512MOL0     H69055   9.823   3.899   6.178 -2.3911 -0.1106  1.3701
  512MOL0     H69056   9.800   4.076   6.132  1.5758  1.1661  1.7472
  512MOL0     H69057  10.002   3.990   6.035  0.0403 -3.0450  0.1016
  512MOL0     H69058  10.057   3.912   6.180 -3.7453 -3.2704  1.4332
  512MOL0     H69059  10.060   4.117   6.298  0.2310  1.5229  0.3109
  512MOL0     H69060  10.036   4.217   6.159 -0.6225  0.7192  2.3556
  512MOL0     H69061  10.276   4.064   6.235 -2.5237 -1.9383 -0.4206
  512MOL0     H69062  10.249   4.067   6.068  2.2609 -1.0755  0.2545
  512MOL0     H69063  10.217   4.341   6.200  0.4981 -0.1640  2.2369
  512MOL0     H69064  10.371   4.262   6.204  0.0833  1.2740 -1.3091
  512MOL0     H69065  10.343   4.412   6.032 -1.9844 -0.1780  1.5308
  512MOL0     H69066  10.396   4.250   5.979 -1.8969 -3.0251 -1.8248
  512MOL0     H69067  10.110   4.358   5.965  0.8629 -1.6699  2.5643
  512MOL0     H69068  10.165   4.216   5.867 -3.8503  1.5494 -2.1040
  512MOL0     H69069  10.247   4.496   5.791  1.6251  1.6393  0.2125
  512MOL0     H69070  10.333   4.359   5.741  0.9181  2.4533  3.5547
  512MOL0     H69071   9.943   4.335   5.741 -1.6498 -2.8185 -0.3002
  512MOL0     H69072   9.799   4.213   5.565 -2.2100  1.5706 -2.1522
  512MOL0     H69073   9.836   4.356   5.463 -2.3960 -1.0197 -2.2859
  512MOL0     H69074   9.735   4.144   5.376  0.3520  0.3886  1.3963
  512MOL0     H69075   9.895   4.178   5.290 -0.5144 -3.0503 -1.1310
  512MOL0     H69076   9.865   3.969   5.510  0.0137 -2.4175 -0.7235
  512MOL0     H69077   9.995   4.020   5.386  1.0258  0.5092  2.0923
  512MOL0     H69078   9.713   3.947   5.300  0.8251  0.4911 -2.1436
  512MOL0     H69079   9.836   3.809   5.320 -0.6401 -1.3283  0.7547
  512MOL0     H69080   9.939   4.003   4.918  2.2522  2.0899 -1.2195
  512MOL0     H69081  10.116   3.880   4.801 -1.0711  2.1954 -0.0260
  512MOL0     H69082  10.300   3.815   4.554 -0.3826  1.9113  2.6555
  512MOL0     H69083  10.488   3.854   4.384  1.1863 -0.5179  0.4231
  512MOL0     H69084  10.658   3.867   4.285 -2.8491 -0.5721 -0.4663
  512MOL0     H69085  10.808   3.794   4.247  0.4798  2.6313  2.8465
  512MOL0     H69086  10.536   3.666   4.177 -0.4849 -2.0242 -1.0497
  512MOL0     H69087  10.654   3.705   4.073  1.3825 -0.7157 -0.0319
  512MOL0     H69088  10.669   3.465   4.240 -1.5484 -0.0805 -0.4159
  512MOL0     H69089  10.695   3.497   4.065 -1.9575  4.0535 -0.8447
  512MOL0     H69090  10.880   3.566   4.311  0.3662 -1.5368  0.0427
  512MOL0     H69091  10.933   3.600   4.143  2.7992 -1.8984  1.0498
  512MOL0     H69092  10.850   3.325   4.214 -0.7527  0.4942 -1.1683
  512MOL0     H69093  11.014   3.405   4.262  0.3150 -3.0487 -0.1549
  512MOL0     H69094  10.875   3.346   3.992 -0.8458  2.5738  0.9480
  512MOL0     H69095  11.019   3.441   3.998 -0.3984  0.8244  0.0372
  512MOL0     H69096  11.049   3.191   3.941 -1.5051 -0.2797 -0.6805
  512MOL0     H69097  11.000   3.153   4.106 -4.3334 -0.7868 -3.1106
  512MOL0     H69098  11.237   3.318   4.032 -2.5716  3.6881  2.8342
  512MOL0     H69099  11.182   3.274   4.201 -1.9596  1.4084 -0.0841
  512MOL0     H69100  10.732   3.603   4.630  0.9039  1.6771  0.7209
  512MOL0     H69101  10.573   3.610   4.816  1.4742 -1.6192 -1.1530
  512MOL0     H69102  10.244   3.724   5.177 -2.1271  2.8997  3.2369
  512MOL0     H69103  10.058   3.813   5.286 -1.6933 -0.0860  0.1628
  512MOL0     H69104   9.580   3.980   6.204 -1.2735 -0.9591 -0.0234
  512MOL0     H69105   9.379   4.033   6.319  0.5090 -0.2099 -1.1637
  512MOL0     H69106   9.219   4.087   6.725 -2.0322 -3.5945  1.4907
  512MOL0     H69107   9.019   4.050   6.876 -2.7924 -0.8679 -0.9698
  512MOL0     H69108   8.849   4.105   6.991  1.2721 -1.7634 -0.6913
  512MOL0     H69109   8.753   3.962   6.940  1.9084 -0.1392 -2.4939
  512MOL0     H69110   8.548   4.070   6.992  0.3924 -0.7414  1.0423
  512MOL0     H69111   8.618   4.235   6.958  3.9038  1.2170  1.8122
  512MOL0     H69112   8.562   4.205   7.193  1.0630  2.2668 -1.5687
  512MOL0     H69113   8.731   4.243   7.157 -0.9048  1.7103 -3.0356
  512MOL0     H69114   8.601   3.969   7.249 -0.3705  1.1793  0.4639
  512MOL0     H69115   8.752   3.972   7.167  2.4168  1.1966  1.9852
  512MOL0     H69116   8.889   4.121   7.535 -4.5703  2.1793  3.1762
  512MOL0     H69117   8.770   4.234   6.602  0.4520  0.8458 -1.7924
  512MOL0     H69118   8.939   4.200   6.313  1.4320  1.6093 -0.7958
  512MOL0     H69119   8.818   4.291   6.397 -0.4087 -2.9817  1.0174
  512MOL0     H69120   8.973   4.362   6.367  1.3724 -0.4800  0.5873
  513MOL0     O69121   9.085   0.931   0.128 -0.2149  0.1269  0.0784
  513MOL0     C69122   9.076   0.807   0.106 -0.3229  0.4227 -1.6335
  513MOL0     O69123   9.178   0.719   0.067  0.8486 -0.6023 -0.4715
  513MOL0     C69124   9.234   0.739  -0.049  0.2213 -0.3856 -0.1577
  513MOL0     C69125   9.192   0.835  -0.145  0.1092  0.9418  0.0386
  513MOL0     C69126   9.251   0.825  -0.273  0.7744 -0.3976 -0.2896
  513MOL0     C69127   9.345   0.719  -0.305  0.3123 -0.1459 -0.4003
  513MOL0     O69128   9.377   0.700  -0.444 -1.0194  0.3357 -0.0683
  513MOL0     C69129   9.474   0.603  -0.490 -0.4491  0.8929  0.0122
  513MOL0     C69130   9.507   0.580  -0.635  0.3129 -0.4550  0.2618
  513MOL0     C69131   9.575   0.708  -0.691  0.1205 -0.0549  0.1540
  513MOL0     C69132   9.604   0.692  -0.835 -0.0884  0.0906  0.4339
  513MOL0     C69133   9.496   0.728  -0.930  0.3648  0.4339 -0.1147
  513MOL0     C69134   9.460   0.877  -0.924  0.3044 -0.2431  0.5064
  513MOL0     C69135   9.302   0.899  -0.884  0.4207 -0.2785  0.5948
  513MOL0     C69136   9.284   1.050  -0.848 -0.4874 -1.6177 -0.0961
  513MOL0     N69137   9.401   1.097  -0.771  0.0271  1.1785 -0.1802
  513MOL0     C69138   9.428   1.076  -0.633 -0.8240 -0.0611 -0.2112
  513MOL0     C69139   9.545   1.145  -0.615  0.7551  0.7879  0.0067
  513MOL0     C69140   9.623   1.151  -0.484 -0.2169  0.7193 -0.4236
  513MOL0     C69141   9.536   1.199  -0.370  0.3147  0.5092 -0.3737
  513MOL0     C69142   9.513   1.353  -0.358 -0.0105 -0.0444 -0.1110
  513MOL0     C69143   9.630   1.453  -0.339 -0.4679  0.6538  0.2890
  513MOL0     O69144   9.659   1.448  -0.195  0.0401  0.4245  0.2837
  513MOL0     C69145   9.608   1.556  -0.110 -0.4972  0.7298  0.9129
  513MOL0     C69146   9.569   1.678  -0.151 -0.0430 -0.3343 -0.3774
  513MOL0     C69147   9.534   1.780  -0.057 -0.2593 -0.3791 -0.6990
  513MOL0     C69148   9.539   1.755   0.077 -0.9314  0.3291  0.3250
  513MOL0     C69149   9.491   1.858   0.169 -0.5735  0.5270  0.2075
  513MOL0     O69150   9.473   1.981   0.107 -0.3077 -0.4263 -0.6155
  513MOL0     C69151   9.436   2.081   0.191 -0.5684 -1.2275  0.4159
  513MOL0     C69152   9.533   2.172   0.228 -0.0220 -0.0237 -0.1652
  513MOL0     C69153   9.508   2.286   0.303  0.1858  0.6760  0.0606
  513MOL0     C69154   9.374   2.324   0.324  0.3430  0.9755  0.5542
  513MOL0     O69155   9.333   2.435   0.397  0.0821 -1.2516 -0.3880
  513MOL0     C69156   9.407   2.554   0.354 -1.1948  0.1491 -0.4023
  513MOL0     C69157   9.337   2.683   0.396 -1.0435 -0.0076 -0.1191
  513MOL0     C69158   9.332   2.700   0.547  0.3358 -0.6550 -0.2778
  513MOL0     C69159   9.466   2.711   0.630 -0.3097  0.7860  0.9363
  513MOL0     C69160   9.445   2.731   0.783 -0.3432  0.3251 -0.8247
  513MOL0     C69161   9.337   2.644   0.852 -0.1788  0.4262  0.8571
  513MOL0     C69162   9.364   2.496   0.833  0.4340  0.0398  0.2627
  513MOL0     C69163   9.264   2.413   0.907  0.9502 -0.0983 -0.3218
  513MOL0    Cl69164   9.282   2.408   1.087 -0.2971  0.0793  0.1092
  513MOL0     C69165   9.271   2.232   0.285 -0.2082  0.0865 -0.4140
  513MOL0     C69166   9.306   2.109   0.222 -0.7707  1.6447  0.3712
  513MOL0     O69167   9.473   1.828   0.291 -0.5674  0.4312  0.0528
  513MOL0     C69168   9.580   1.629   0.125 -0.3053 -0.2243  0.6613
  513MOL0     C69169   9.606   1.528   0.030  0.1539  0.1941 -0.0986
  513MOL0     N69170   9.578   1.204  -0.734 -1.0051 -0.0022  0.4958
  513MOL0     N69171   9.492   1.180  -0.828 -0.3439 -0.3325  0.6551
  513MOL0     C69172   9.386   0.631  -0.202  0.0560 -1.4169  0.3574
  513MOL0     C69173   9.328   0.645  -0.076  0.0337 -0.2024 -0.2175
  513MOL0     C69174   8.956   0.745   0.183 -1.4610  0.6731  0.6081
  513MOL0     C69175   8.970   0.625   0.252  0.2402 -0.1251 -0.3266
  513MOL0     C69176   8.863   0.567   0.320 -0.2255 -0.1305 -0.0931
  513MOL0     C69177   8.736   0.632   0.325  0.3319  0.5564 -1.2173
  513MOL0     O69178   8.643   0.569   0.408 -1.0284  0.4025 -0.1149
  513MOL0     C69179   8.510   0.626   0.430 -0.3883  0.2110  0.3056
  513MOL0     C69180   8.421   0.623   0.303 -0.2724 -0.2366  0.3173
  513MOL0     C69181   8.296   0.703   0.331  0.5420 -0.0196 -0.1799
  513MOL0     C69182   8.163   0.640   0.287 -0.1874  0.5073  0.5521
  513MOL0     C69183   8.132   0.518   0.355  0.9272  1.1198 -0.1366
  513MOL0     C69184   8.090   0.430   0.428  0.2968  1.2021  0.1616
  513MOL0     C69185   8.728   0.753   0.262  0.3653  0.1250  0.1045
  513MOL0     C69186   8.829   0.813   0.191 -1.0658 -0.3952  0.0423
  513MOL0     C69187   8.808   0.944   0.123  0.6214 -0.1904 -0.3507
  513MOL0     H69188   9.132   0.918  -0.108  1.8818  2.0397  0.5647
  513MOL0     H69189   9.219   0.905  -0.339  2.0457  1.6619  1.4750
  513MOL0     H69190   9.574   0.618  -0.448  0.7284 -4.1429 -0.3611
  513MOL0     H69191   9.453   0.504  -0.449  1.5511  1.2851  2.2855
  513MOL0     H69192   9.416   0.555  -0.691 -0.1648  0.7471  0.4698
  513MOL0     H69193   9.582   0.501  -0.642 -0.6448 -1.3148 -0.5567
  513MOL0     H69194   9.668   0.729  -0.638  0.6588  3.4600 -1.8566
  513MOL0     H69195   9.502   0.787  -0.670 -0.1574 -1.0127  3.2587
  513MOL0     H69196   9.687   0.756  -0.868 -1.0225  1.4966  0.7050
  513MOL0     H69197   9.637   0.590  -0.853 -0.2043  0.2421 -0.7272
  513MOL0     H69198   9.545   0.704  -1.025  0.6760 -1.2326  0.4385
  513MOL0     H69199   9.407   0.666  -0.919  0.3054  0.6231  0.5383
  513MOL0     H69200   9.536   0.926  -0.862 -0.1234 -0.4001  1.1635
  513MOL0     H69201   9.474   0.933  -1.017 -2.1186  2.3299  1.5199
  513MOL0     H69202   9.286   0.823  -0.806  3.2958 -3.6823 -1.8101
  513MOL0     H69203   9.235   0.889  -0.969 -4.3321  2.8950  3.5080
  513MOL0     H69204   9.278   1.098  -0.946  0.6322 -0.7375  0.2530
  513MOL0     H69205   9.197   1.073  -0.786 -1.3873 -0.7914 -1.6149
  513MOL0     H69206   9.371   1.023  -0.558  0.5271  0.3696  1.1631
  513MOL0     H69207   9.645   1.045  -0.468 -1.0472 -0.0525 -3.6435
  513MOL0     H69208   9.720   1.200  -0.491 -1.3192  3.0454 -0.2355
  513MOL0     H69209   9.441   1.149  -0.388 -0.3282  1.4206  0.3630
  513MOL0     H69210   9.580   1.156  -0.279  1.0353 -1.4328 -1.6042
  513MOL0     H69211   9.441   1.368  -0.277  0.8741  2.0935  0.3398
  513MOL0     H69212   9.463   1.392  -0.446  0.7142  1.2508  0.0301
  513MOL0     H69213   9.593   1.551  -0.370  1.2954  1.4902  0.6885
  513MOL0     H69214   9.717   1.432  -0.402 -1.1052  0.5577 -0.5793
  513MOL0     H69215   9.565   1.701  -0.257 -4.7278 -1.5060 -0.6448
  513MOL0     H69216   9.502   1.874  -0.101  0.2809 -1.0511 -2.6349
  513MOL0     H69217   9.630   2.162   0.181 -0.0597 -2.7963  0.1769
  513MOL0     H69218   9.591   2.354   0.323 -0.0915  1.3435 -0.9684
  513MOL0     H69219   9.512   2.550   0.383 -1.4801 -1.7147  0.5230
  513MOL0     H69220   9.399   2.537   0.246 -2.1823 -1.2066 -0.1434
  513MOL0     H69221   9.381   2.773   0.351 -1.8751 -0.3890 -1.7880
  513MOL0     H69222   9.233   2.673   0.364 -0.9406 -1.1062 -0.1358
  513MOL0     H69223   9.275   2.792   0.560  1.2238 -0.3686  2.1176
  513MOL0     H69224   9.275   2.619   0.593 -0.4507 -0.8720 -1.5715
  513MOL0     H69225   9.524   2.794   0.589 -0.6699  0.6906  0.2130
  513MOL0     H69226   9.526   2.624   0.602 -0.8656  0.6315  0.1705
  513MOL0     H69227   9.411   2.833   0.801 -1.4712 -0.6365  3.8951
  513MOL0     H69228   9.540   2.720   0.836  0.0900 -0.5250 -1.7367
  513MOL0     H69229   9.337   2.660   0.960 -1.0951  1.0161  0.7738
  513MOL0     H69230   9.243   2.673   0.806  0.8856  1.7386 -0.5933
  513MOL0     H69231   9.464   2.464   0.865  1.5772 -0.2477 -3.1787
  513MOL0     H69232   9.366   2.466   0.728  2.3561  0.4473  0.1411
  513MOL0     H69233   9.168   2.455   0.874  1.8663  1.3650 -1.2692
  513MOL0     H69234   9.279   2.311   0.871  3.9885  0.3058 -0.4537
  513MOL0     H69235   9.168   2.261   0.302 -0.5654 -0.9095 -0.8485
  513MOL0     H69236   9.238   2.030   0.192  2.5258 -1.2192 -0.2155
  513MOL0     H69237   9.590   1.601   0.230  1.6075  0.4781  0.7120
  513MOL0     H69238   9.624   1.424   0.053 -0.4887 -0.0357 -0.6154
  513MOL0     H69239   9.465   0.561  -0.227  0.2251 -0.6826 -1.2910
  513MOL0     H69240   9.372   0.588   0.006  2.7901  0.3487 -1.1958
  513MOL0     H69241   9.062   0.568   0.246 -0.3548 -1.3380  1.3347
  513MOL0     H69242   8.865   0.468   0.364  0.4217  0.2685  0.8202
  513MOL0     H69243   8.518   0.726   0.474 -2.8699  1.0773 -1.0338
  513MOL0     H69244   8.466   0.563   0.508 -0.8406  1.2016  0.8724
  513MOL0     H69245   8.401   0.528   0.252 -1.0252  0.6464 -1.0991
  513MOL0     H69246   8.473   0.685   0.229  1.3648  0.3902  1.9232
  513MOL0     H69247   8.291   0.793   0.270 -0.7000 -1.5890 -2.5413
  513MOL0     H69248   8.288   0.738   0.435  0.8799  1.5527 -0.6607
  513MOL0     H69249   8.078   0.708   0.290  0.9332  2.2772 -3.0130
  513MOL0     H69250   8.168   0.622   0.180  1.5832  0.3929  0.6149
  513MOL0     H69251   8.063   0.343   0.486 -1.4602  0.9681 -0.9174
  513MOL0     H69252   8.630   0.798   0.249  0.4664  0.8944  1.6957
  513MOL0     H69253   8.854   0.964   0.026 -2.0424  0.5039 -1.5688
  513MOL0     H69254   8.701   0.969   0.122  0.6529 -0.0303 -2.1332
  513MOL0     H69255   8.859   1.014   0.190  0.7481 -0.3547 -0.2763
  514MOL0     O69256  10.797   1.003   4.352 -0.4182  0.0919 -0.6640
  514MOL0     C69257  10.751   1.015   4.461 -0.3431  0.7883 -0.2039
  514MOL0     O69258  10.639   0.955   4.509 -0.3586  0.0253  1.0161
  514MOL0     C69259  10.554   0.903   4.411  0.3750 -0.2128 -0.4735
  514MOL0     C69260  10.581   0.792   4.344  0.0242  0.1356  0.0156
  514MOL0     C69261  10.491   0.728   4.252  0.5273  0.4462  0.1351
  514MOL0     C69262  10.361   0.780   4.244  0.3472 -0.0787  0.0907
  514MOL0     O69263  10.251   0.729   4.173  0.0934 -0.0215  0.2778
  514MOL0     C69264  10.282   0.630   4.077 -0.5322  0.4413  0.0473
  514MOL0     C69265  10.173   0.623   3.970  0.0744 -0.1310  1.4843
  514MOL0     C69266  10.179   0.727   3.860 -0.0359  0.2704 -0.9961
  514MOL0     C69267  10.120   0.686   3.722  0.4094 -0.2405 -0.8190
  514MOL0     C69268  10.131   0.798   3.605 -0.3783  0.5350  0.0766
  514MOL0     C69269  10.074   0.755   3.472 -0.5677 -0.5086 -0.7825
  514MOL0     C69270  10.153   0.649   3.407 -0.3631  0.8704  0.0437
  514MOL0     C69271  10.092   0.613   3.274 -0.2146  0.2624  0.0795
  514MOL0     N69272   9.962   0.550   3.290 -0.3733 -1.1259  0.1028
  514MOL0     C69273   9.931   0.433   3.356 -0.7104  0.2577  0.2840
  514MOL0     C69274   9.807   0.415   3.318  1.2002  0.6317  0.7929
  514MOL0     C69275   9.731   0.297   3.349  0.3790 -0.1755 -0.2498
  514MOL0     C69276   9.731   0.197   3.233 -0.4261 -0.2077  1.3498
  514MOL0     C69277   9.675   0.062   3.282  0.8856  0.2381  0.4889
  514MOL0     C69278   9.656  -0.027   3.166  0.1666  0.1004  0.6003
  514MOL0     O69279   9.620  -0.164   3.211 -0.3522 -0.8981  0.0870
  514MOL0     C69280   9.611  -0.263   3.118 -0.3121  0.5973 -0.4716
  514MOL0     C69281   9.608  -0.392   3.158  0.3876 -0.2545 -0.8591
  514MOL0     C69282   9.584  -0.489   3.062  0.4976 -0.5747  0.0061
  514MOL0     C69283   9.558  -0.469   2.925 -0.3031  0.3169 -0.0688
  514MOL0     C69284   9.541  -0.575   2.833 -0.0735  0.5882 -0.0577
  514MOL0     O69285   9.529  -0.704   2.893 -0.0712  1.1796 -0.1287
  514MOL0     C69286   9.520  -0.822   2.818  0.0140  0.3747  0.6305
  514MOL0     C69287   9.446  -0.834   2.700 -0.2321 -0.4186 -0.2203
  514MOL0     C69288   9.437  -0.947   2.626  0.5048  0.8000 -0.0428
  514MOL0     C69289   9.498  -1.070   2.674 -0.0378 -0.8201 -0.6702
  514MOL0     O69290   9.492  -1.187   2.616 -0.3414  1.2240  0.5008
  514MOL0     C69291   9.361  -1.224   2.571 -0.1240  0.5956  0.7922
  514MOL0     C69292   9.287  -1.267   2.698 -0.1749 -0.3318 -0.3358
  514MOL0     C69293   9.358  -1.384   2.765 -1.1691 -0.4927 -0.2223
  514MOL0     C69294   9.257  -1.466   2.849  0.5751  0.0936  0.1828
  514MOL0     C69295   9.189  -1.386   2.959  0.9364  0.2817 -0.7558
  514MOL0     C69296   9.300  -1.328   3.051  0.4140 -0.1625  0.2118
  514MOL0     C69297   9.255  -1.226   3.160  0.1003 -0.8419 -0.2138
  514MOL0     C69298   9.192  -1.286   3.287 -0.3440 -0.1405 -0.5443
  514MOL0    Cl69299   9.306  -1.377   3.394  0.4129  0.4614 -1.0213
  514MOL0     C69300   9.578  -1.065   2.792 -0.2188  0.2053  0.0071
  514MOL0     C69301   9.571  -0.945   2.864  0.6088 -0.3074  0.3580
  514MOL0     O69302   9.542  -0.552   2.709 -0.6146  0.1047 -0.1201
  514MOL0     C69303   9.572  -0.340   2.889 -0.3308 -0.4958  0.7087
  514MOL0     C69304   9.590  -0.241   2.987  0.5041 -0.8286  0.2611
  514MOL0     N69305   9.750   0.520   3.246  0.4680 -0.6918 -0.1989
  514MOL0     N69306   9.853   0.601   3.224 -0.1246  0.8802  0.3180
  514MOL0     C69307  10.342   0.911   4.303  0.0134  0.0498 -0.8992
  514MOL0     C69308  10.437   0.972   4.385 -0.1451  0.5733 -0.1714
  514MOL0     C69309  10.829   1.079   4.565 -0.1258 -0.5043  0.4063
  514MOL0     C69310  10.783   1.084   4.695  0.4937  0.0858 -0.8139
  514MOL0     C69311  10.844   1.156   4.798 -0.2788 -0.2867  0.4243
  514MOL0     C69312  10.958   1.223   4.774 -1.0066 -0.3006  0.6875
  514MOL0     O69313  11.028   1.297   4.866  0.6937 -0.6047 -0.4905
  514MOL0     C69314  10.980   1.306   5.002  1.5490 -0.5160  0.2615
  514MOL0     C69315  11.088   1.329   5.104 -0.1888 -1.4304  0.8423
  514MOL0     C69316  11.175   1.208   5.132 -0.3314 -0.3675  0.2787
  514MOL0     C69317  11.093   1.104   5.209 -0.1403  0.5193 -0.4522
  514MOL0     C69318  11.189   1.020   5.277  0.6815 -0.4739 -0.3449
  514MOL0     C69319  11.281   0.966   5.335 -0.1125 -0.0301 -0.1170
  514MOL0     C69320  11.021   1.218   4.646  0.5882 -0.8145  0.1416
  514MOL0     C69321  10.955   1.148   4.541  0.4452 -0.3597 -0.2884
  514MOL0     C69322  11.035   1.139   4.408  0.6339  0.0831 -0.3146
  514MOL0     H69323  10.675   0.741   4.357  0.1215 -0.1645 -1.6264
  514MOL0     H69324  10.520   0.633   4.208 -0.4561 -0.2736  0.9808
  514MOL0     H69325  10.379   0.644   4.029 -0.8880  2.3227 -0.2132
  514MOL0     H69326  10.286   0.533   4.127 -0.9219  0.8181  0.8358
  514MOL0     H69327  10.077   0.641   4.020  1.3435  0.5608  3.8072
  514MOL0     H69328  10.182   0.523   3.926 -0.7541  0.2556  0.3998
  514MOL0     H69329  10.287   0.743   3.850  0.2143 -1.4059 -1.3557
  514MOL0     H69330  10.141   0.821   3.900  1.0227 -0.1930  1.2549
  514MOL0     H69331  10.188   0.602   3.700  1.0719  0.6502 -2.2972
  514MOL0     H69332  10.015   0.657   3.737  1.0604 -2.3333  0.2357
  514MOL0     H69333  10.078   0.888   3.640  0.9650  1.1545  0.5889
  514MOL0     H69334  10.237   0.823   3.597 -1.0687  3.7294 -0.3939
  514MOL0     H69335   9.978   0.711   3.502  0.7585 -2.5601  0.6845
  514MOL0     H69336  10.058   0.838   3.403  1.4551  2.6053  2.1953
  514MOL0     H69337  10.166   0.557   3.465  0.8492  0.2013 -1.2214
  514MOL0     H69338  10.256   0.671   3.376 -0.3597 -2.0165 -2.4372
  514MOL0     H69339  10.088   0.702   3.211 -2.3290  1.1126  1.2920
  514MOL0     H69340  10.141   0.528   3.226 -1.6559 -0.4563 -0.1679
  514MOL0     H69341   9.993   0.375   3.423  1.2111  0.4241 -1.2613
  514MOL0     H69342   9.771   0.251   3.440 -4.2310  0.1347  2.2026
  514MOL0     H69343   9.629   0.324   3.377  0.8198 -1.0382  2.4606
  514MOL0     H69344   9.684   0.238   3.143 -1.0977  2.6447  2.8553
  514MOL0     H69345   9.835   0.180   3.204 -1.1703 -0.5547 -1.4355
  514MOL0     H69346   9.585   0.065   3.344  1.3263  0.3147  1.1348
  514MOL0     H69347   9.757   0.017   3.339 -0.5548 -1.5034  1.2949
  514MOL0     H69348   9.751  -0.028   3.112 -0.3269 -2.9249 -0.3979
  514MOL0     H69349   9.592   0.014   3.088  0.4924  1.3624  0.9705
  514MOL0     H69350   9.611  -0.417   3.264 -0.8482 -2.3646 -1.2701
  514MOL0     H69351   9.591  -0.592   3.094  2.3238 -0.8215 -1.0556
  514MOL0     H69352   9.392  -0.746   2.667 -0.6385 -0.6272 -0.1190
  514MOL0     H69353   9.381  -0.942   2.533  0.5718  2.2156 -0.0216
  514MOL0     H69354   9.302  -1.144   2.523 -0.3994  0.2479  0.5466
  514MOL0     H69355   9.359  -1.308   2.501 -0.6230  0.7424  0.6259
  514MOL0     H69356   9.278  -1.188   2.772 -1.4640 -0.8190  0.0545
  514MOL0     H69357   9.191  -1.295   2.654 -0.8991 -1.0290  1.5791
  514MOL0     H69358   9.412  -1.446   2.693 -0.0301 -0.0384  0.2235
  514MOL0     H69359   9.441  -1.351   2.828  0.0566 -0.1220 -1.9428
  514MOL0     H69360   9.304  -1.558   2.883 -0.6403 -0.9733 -0.9221
  514MOL0     H69361   9.177  -1.486   2.777 -0.4006  7.0633 -1.4470
  514MOL0     H69362   9.123  -1.446   3.023  3.7285 -0.7670  1.3564
  514MOL0     H69363   9.125  -1.311   2.912  0.9310  1.9789  1.7872
  514MOL0     H69364   9.362  -1.401   3.105 -1.3641  0.3645  3.2142
  514MOL0     H69365   9.377  -1.271   2.998  1.5974  0.1882  2.1752
  514MOL0     H69366   9.175  -1.162   3.121 -0.6116 -1.6207 -0.0712
  514MOL0     H69367   9.351  -1.179   3.183 -1.2988  2.2468 -0.2323
  514MOL0     H69368   9.161  -1.202   3.350 -0.0151 -0.4612  0.0577
  514MOL0     H69369   9.097  -1.339   3.273 -1.7794  1.8552  0.9610
  514MOL0     H69370   9.608  -1.157   2.839 -2.0688  0.1509  1.1636
  514MOL0     H69371   9.628  -0.944   2.957  1.1827  0.2627  0.0125
  514MOL0     H69372   9.545  -0.317   2.786  0.6039  0.4510  0.6517
  514MOL0     H69373   9.590  -0.136   2.960  0.8242 -0.0883  2.8611
  514MOL0     H69374  10.247   0.963   4.287  0.2385 -0.1695 -3.3418
  514MOL0     H69375  10.417   1.061   4.443 -1.4815  1.0011 -1.2464
  514MOL0     H69376  10.702   1.035   4.747  3.3081 -0.7064  3.3101
  514MOL0     H69377  10.790   1.156   4.892  0.3180 -1.0189  0.7885
  514MOL0     H69378  10.931   1.214   5.036 -1.9286  2.2702  3.7498
  514MOL0     H69379  10.908   1.388   5.002  1.0289 -0.9138 -2.1150
  514MOL0     H69380  11.040   1.353   5.199  0.4603  0.4630  0.7431
  514MOL0     H69381  11.141   1.415   5.061 -0.1162 -2.4689 -1.3138
  514MOL0     H69382  11.264   1.244   5.183  0.2152 -0.1949 -0.7608
  514MOL0     H69383  11.216   1.166   5.040 -0.2311 -0.8159  0.5262
  514MOL0     H69384  11.022   1.143   5.283  0.6526 -0.1864  0.7165
  514MOL0     H69385  11.051   1.038   5.133 -2.2343  1.2680 -0.0055
  514MOL0     H69386  11.354   0.920   5.398 -1.8437 -2.9585 -0.0570
  514MOL0     H69387  11.115   1.270   4.637 -1.3010  2.8824 -0.1989
  514MOL0     H69388  11.027   1.040   4.363  0.3513 -0.3428  0.6402
  514MOL0     H69389  10.993   1.217   4.344 -0.5860  1.2175  1.7426
  514MOL0     H69390  11.142   1.152   4.428  0.6461 -1.6862  1.0302
  515MOL0     O69391   4.923   9.060   9.839 -0.3749  0.1137  0.1230
  515MOL0     C69392   4.825   9.072   9.770  0.8161 -0.7234 -0.6646
  515MOL0     O69393   4.709   9.121   9.819 -0.5092  0.2682  0.2709
  515MOL0     C69394   4.695   9.206   9.928  0.3855 -0.1548 -0.5053
  515MOL0     C69395   4.791   9.234  10.027  0.5832 -0.4865 -0.5678
  515MOL0     C69396   4.759   9.322  10.123  0.0577 -0.0388 -0.8340
  515MOL0     C69397   4.629   9.376  10.142  0.3738 -0.2348  0.0774
  515MOL0     O69398   4.583   9.452  10.250  0.2235  0.0615  0.2969
  515MOL0     C69399   4.656   9.461  10.369 -0.0665  1.0589 -0.0745
  515MOL0     C69400   4.573   9.487  10.489 -0.4636 -0.5528 -0.8355
  515MOL0     C69401   4.511   9.628  10.475  0.1723  0.1776  0.0870
  515MOL0     C69402   4.455   9.666  10.612 -0.6192  0.6384  0.4829
  515MOL0     C69403   4.389   9.807  10.613  0.1800  0.1620 -1.0515
  515MOL0     C69404   4.314   9.819  10.737  0.3414 -0.2538 -0.4703
  515MOL0     C69405   4.215   9.922  10.744  0.1502 -0.7730 -0.1194
  515MOL0     C69406   4.273  10.063  10.769 -0.3519  0.1128  0.2078
  515MOL0     N69407   4.313  10.127  10.646 -0.3511  0.7890  0.6145
  515MOL0     C69408   4.241  10.181  10.538 -0.5606 -0.8189 -0.3901
  515MOL0     C69409   4.334  10.234  10.451 -0.1488  0.3682 -0.0355
  515MOL0     C69410   4.312  10.305  10.323  0.3789 -0.3164 -0.2248
  515MOL0     C69411   4.407  10.271  10.204 -0.5950 -0.3504  0.8717
  515MOL0     C69412   4.397  10.131  10.143  0.5821  0.3704 -0.1754
  515MOL0     C69413   4.535  10.072  10.100  0.3570  0.1115 -1.0119
  515MOL0     O69414   4.546   9.935  10.119  0.2324  0.8055 -0.4056
  515MOL0     C69415   4.464   9.853  10.045 -0.4203  0.8080 -0.0355
  515MOL0     C69416   4.438   9.882   9.909 -0.7245  0.3134  0.1626
  515MOL0     C69417   4.361   9.796   9.826 -0.6382 -0.0958 -0.5020
  515MOL0     C69418   4.327   9.669   9.870  0.4002  0.2324 -0.0577
  515MOL0     C69419   4.281   9.549   9.783 -0.0213 -1.2336 -0.6151
  515MOL0     O69420   4.229   9.589   9.662  0.4412 -0.5981 -0.5608
  515MOL0     C69421   4.171   9.514   9.564  1.1065  0.2602  0.4661
  515MOL0     C69422   4.146   9.373   9.570  0.2219  1.2622  0.2686
  515MOL0     C69423   4.096   9.306   9.462  0.1889  0.0969 -0.5229
  515MOL0     C69424   4.075   9.375   9.342  0.4910 -0.2141  1.1658
  515MOL0     O69425   4.030   9.313   9.226 -0.1757 -0.8178 -0.3145
  515MOL0     C69426   3.913   9.233   9.245 -0.3212  0.1494 -0.2034
  515MOL0     C69427   3.849   9.209   9.107 -0.0814  0.1233 -0.7841
  515MOL0     C69428   3.785   9.330   9.032 -0.9874  0.8785 -0.0047
  515MOL0     C69429   3.892   9.416   8.956 -0.1468 -0.4766  0.2815
  515MOL0     C69430   3.824   9.540   8.894 -0.1285  1.0285  0.0026
  515MOL0     C69431   3.920   9.650   8.857 -0.3123  0.5053 -0.2798
  515MOL0     C69432   3.859   9.784   8.813 -0.4607 -0.2136  1.3040
  515MOL0     C69433   3.974   9.869   8.746  0.3057  0.3930 -0.2624
  515MOL0    Cl69434   3.998   9.802   8.585  0.3213  0.0635  0.2289
  515MOL0     C69435   4.104   9.509   9.325  0.4440  0.9400 -1.4001
  515MOL0     C69436   4.143   9.581   9.439  0.1395  0.5022 -0.4454
  515MOL0     O69437   4.268   9.439   9.834 -0.0397 -0.3803  0.0942
  515MOL0     C69438   4.355   9.638  10.006  0.0446 -1.4302  0.4973
  515MOL0     C69439   4.420   9.726  10.091  0.6768  0.3752 -0.1136
  515MOL0     N69440   4.465  10.207  10.512 -0.2489 -0.8570  0.1531
  515MOL0     N69441   4.454  10.149  10.623  0.4378  0.0887 -0.4400
  515MOL0     C69442   4.534   9.334  10.053  0.5028 -0.0931  0.6269
  515MOL0     C69443   4.567   9.258   9.944 -0.4277 -0.0201  0.1074
  515MOL0     C69444   4.805   9.015   9.638 -0.5688 -1.0251 -0.2303
  515MOL0     C69445   4.686   8.946   9.615 -0.5465 -0.2506  0.7062
  515MOL0     C69446   4.663   8.883   9.491 -0.7300  0.5960 -0.1787
  515MOL0     C69447   4.753   8.879   9.387 -0.4261  0.0558 -0.8679
  515MOL0     O69448   4.726   8.829   9.261 -0.0249  0.6259  0.1501
  515MOL0     C69449   4.604   8.751   9.225  0.2797 -0.6987 -0.3746
  515MOL0     C69450   4.601   8.670   9.095  0.0529 -0.1355 -0.2809
  515MOL0     C69451   4.572   8.752   8.973 -0.3615 -0.8252  0.1800
  515MOL0     C69452   4.605   8.684   8.845 -0.6865 -0.0599 -0.9095
  515MOL0     C69453   4.524   8.725   8.732  0.2067 -0.1984  0.6988
  515MOL0     C69454   4.458   8.783   8.649  0.4062 -0.5093  0.4108
  515MOL0     C69455   4.880   8.945   9.402 -0.8810  0.1552 -0.3442
  515MOL0     C69456   4.895   9.021   9.522 -0.0660 -0.0488  1.3301
  515MOL0     C69457   5.016   9.108   9.520  1.5330 -0.1520 -0.3189
  515MOL0     H69458   4.881   9.176  10.043 -0.5134 -2.1842 -0.2327
  515MOL0     H69459   4.830   9.346  10.202  1.7726  1.5258 -2.7385
  515MOL0     H69460   4.693   9.361  10.390 -0.1115 -0.4030 -5.5717
  515MOL0     H69461   4.748   9.520  10.361  0.1654  1.1023  2.1251
  515MOL0     H69462   4.644   9.503  10.570  0.8425  1.9286 -2.3177
  515MOL0     H69463   4.497   9.412  10.509 -0.5197  0.2000  2.2804
  515MOL0     H69464   4.430   9.622  10.402  1.2837 -0.3890 -1.1276
  515MOL0     H69465   4.583   9.698  10.433  0.7209 -1.3403 -1.6387
  515MOL0     H69466   4.377   9.595  10.641  0.7932 -1.1082  0.1978
  515MOL0     H69467   4.533   9.656  10.689 -0.2013 -1.3099 -0.1331
  515MOL0     H69468   4.475   9.874  10.601 -1.5564  2.3938 -1.6656
  515MOL0     H69469   4.320   9.818  10.529 -0.1203  1.5204 -0.6567
  515MOL0     H69470   4.258   9.724  10.740  0.7844 -0.5413 -1.1394
  515MOL0     H69471   4.377   9.819  10.827  1.7185 -0.1068 -1.4134
  515MOL0     H69472   4.147   9.901  10.827 -0.6489 -1.6223 -0.9611
  515MOL0     H69473   4.152   9.922  10.654 -1.6214 -1.2231  1.0623
  515MOL0     H69474   4.199  10.126  10.819 -0.0701  0.3722  0.3027
  515MOL0     H69475   4.365  10.050  10.827 -0.2209 -0.1156 -0.0474
  515MOL0     H69476   4.136  10.207  10.542 -0.7775 -1.3337 -2.2818
  515MOL0     H69477   4.213  10.279  10.286  0.4893  2.5348 -2.9236
  515MOL0     H69478   4.300  10.409  10.355 -0.6750 -0.7657  0.9440
  515MOL0     H69479   4.381  10.336  10.120  1.9579  0.7842  0.8436
  515MOL0     H69480   4.511  10.297  10.228  0.0277 -1.8510 -0.0550
  515MOL0     H69481   4.339  10.127  10.050  0.0123  0.4078  0.1729
  515MOL0     H69482   4.345  10.068  10.215  0.8639  0.5756  0.2112
  515MOL0     H69483   4.604  10.114  10.174 -1.4990  0.0414  0.8742
  515MOL0     H69484   4.575  10.108  10.005  1.5464 -1.2516 -1.0561
  515MOL0     H69485   4.470   9.976   9.866  1.0887 -1.3951 -2.4849
  515MOL0     H69486   4.345   9.806   9.719 -2.7627 -0.4960 -0.2733
  515MOL0     H69487   4.167   9.316   9.660 -1.3001  5.9135  3.9609
  515MOL0     H69488   4.088   9.198   9.464 -0.3615  0.0844 -1.8599
  515MOL0     H69489   3.938   9.138   9.294 -0.1988 -0.2216 -0.9719
  515MOL0     H69490   3.851   9.294   9.310  1.0094  0.3660  0.9162
  515MOL0     H69491   3.914   9.160   9.034  1.0363 -0.5340  0.6116
  515MOL0     H69492   3.768   9.138   9.125 -0.0523  0.2952  0.0471
  515MOL0     H69493   3.703   9.304   8.965 -2.4282 -3.2739  2.9852
  515MOL0     H69494   3.744   9.400   9.106 -1.0679  0.5767  0.2359
  515MOL0     H69495   3.951   9.356   8.887  1.6624  1.6899 -0.1470
  515MOL0     H69496   3.968   9.458   9.022  1.5160 -0.0489 -1.8096
  515MOL0     H69497   3.748   9.577   8.963  0.1169 -1.6849  1.8859
  515MOL0     H69498   3.774   9.511   8.801  0.1622 -0.6628  0.3433
  515MOL0     H69499   3.992   9.668   8.937  1.5970  4.9036 -2.6470
  515MOL0     H69500   3.995   9.608   8.790  0.6199  2.6355 -0.6821
  515MOL0     H69501   3.807   9.836   8.895 -2.5332 -0.3361  0.1419
  515MOL0     H69502   3.791   9.768   8.729  2.7654  2.4179 -2.1276
  515MOL0     H69503   3.944   9.973   8.739 -1.7632  0.0532  2.1250
  515MOL0     H69504   4.064   9.858   8.809 -0.1078 -1.1305  0.1056
  515MOL0     H69505   4.102   9.546   9.223 -2.7876 -1.3849 -2.3684
  515MOL0     H69506   4.170   9.686   9.444  1.2088  0.1859  2.7891
  515MOL0     H69507   4.333   9.541  10.049  2.3644 -2.5187 -0.6315
  515MOL0     H69508   4.445   9.708  10.195 -0.5678  2.0408  0.5165
  515MOL0     H69509   4.435   9.376  10.066 -0.2822 -1.7577  0.3923
  515MOL0     H69510   4.482   9.214   9.892 -1.3339  0.3129  1.2777
  515MOL0     H69511   4.602   8.943   9.683 -1.7403  1.9159 -0.5254
  515MOL0     H69512   4.565   8.838   9.487  0.1392 -1.6225  1.4679
  515MOL0     H69513   4.529   8.831   9.232  0.2736 -0.8473  1.8965
  515MOL0     H69514   4.585   8.688   9.312 -1.6206  3.5344  2.6149
  515MOL0     H69515   4.513   8.606   9.103  0.9422 -1.2268  1.4158
  515MOL0     H69516   4.697   8.622   9.075  0.3860  0.7493 -0.9081
  515MOL0     H69517   4.635   8.841   8.968 -0.2915 -0.9075 -0.4093
  515MOL0     H69518   4.467   8.782   8.968  0.0114  0.3854 -0.8821
  515MOL0     H69519   4.711   8.680   8.815 -0.1683 -0.6549  0.9035
  515MOL0     H69520   4.585   8.576   8.849  2.5782 -0.7619 -0.1100
  515MOL0     H69521   4.388   8.833   8.585 -0.4708 -0.5916  1.2755
  515MOL0     H69522   4.954   8.949   9.323  3.0099  4.1778  2.9792
  515MOL0     H69523   5.029   9.184   9.597 -1.3324  0.3390 -0.1941
  515MOL0     H69524   5.109   9.050   9.519  3.6553  3.0201  0.4204
  515MOL0     H69525   5.011   9.164   9.427  3.8782  2.4610  0.9960
  516MOL0     O69526   0.142   2.272   3.769 -0.2162 -0.5249 -0.3983
  516MOL0     C69527   0.258   2.290   3.747  0.4350  0.0090 -0.3558
  516MOL0     O69528   0.333   2.187   3.693  0.8700 -0.1473 -0.2893
  516MOL0     C69529   0.292   2.057   3.688  0.3672  0.4080  0.1074
  516MOL0     C69530   0.385   1.955   3.719 -0.5256 -0.4032  0.0844
  516MOL0     C69531   0.349   1.817   3.728  0.2603  1.3039  0.2030
  516MOL0     C69532   0.221   1.785   3.708 -0.3507 -0.6343  0.3687
  516MOL0     O69533   0.197   1.648   3.729  0.1148 -0.3099  0.2466
  516MOL0     C69534   0.069   1.575   3.723  0.6608  1.2741 -0.0420
  516MOL0     C69535   0.114   1.426   3.739 -0.8469  0.0302  1.1805
  516MOL0     C69536   0.145   1.385   3.884 -0.0922 -0.2666 -0.3292
  516MOL0     C69537   0.224   1.489   3.978 -0.0812  0.8504  0.6101
  516MOL0     C69538   0.245   1.437   4.121  0.1144  0.2680 -0.5499
  516MOL0     C69539   0.297   1.290   4.132  0.9815 -0.3054 -0.3378
  516MOL0     C69540   0.324   1.264   4.276  0.6521  1.0324 -0.9235
  516MOL0     C69541   0.449   1.305   4.364  0.5874 -0.7835 -0.8284
  516MOL0     N69542   0.493   1.194   4.445  0.1685  0.4419 -0.1739
  516MOL0     C69543   0.414   1.133   4.549 -0.3661 -0.2867  0.0457
  516MOL0     C69544   0.510   1.073   4.625 -0.7248 -0.6489 -0.0668
  516MOL0     C69545   0.488   0.993   4.746  0.1282  0.1247  0.0819
  516MOL0     C69546   0.458   0.844   4.724 -0.4739 -0.4599 -0.0450
  516MOL0     C69547   0.464   0.761   4.856  0.2730  0.2234  0.1498
  516MOL0     C69548   0.347   0.782   4.957  0.0450  0.5377 -0.0811
  516MOL0     O69549   0.353   0.910   5.023 -0.0739  0.4805 -0.1686
  516MOL0     C69550   0.282   0.915   5.141  0.2749  0.9348 -0.6281
  516MOL0     C69551   0.202   0.815   5.192  0.6769 -0.5810 -0.5700
  516MOL0     C69552   0.155   0.821   5.330  0.0643 -0.3635  0.7363
  516MOL0     C69553   0.185   0.931   5.410 -0.7178 -0.2575 -0.6745
  516MOL0     C69554   0.132   0.943   5.554  0.1531 -0.8310 -0.1744
  516MOL0     O69555   0.065   0.833   5.599  0.1827  0.4442  0.4613
  516MOL0     C69556   0.048   0.818   5.741  0.6023 -0.6552  0.3176
  516MOL0     C69557  -0.084   0.788   5.785 -0.1835  0.1193  0.2568
  516MOL0     C69558  -0.102   0.758   5.924  0.1985  1.1452  1.1054
  516MOL0     C69559  -0.000   0.746   6.010  0.0674  0.3511 -0.3229
  516MOL0     O69560  -0.028   0.730   6.144  1.0109 -0.0540  0.4350
  516MOL0     C69561   0.070   0.729   6.252  0.1397  0.2957 -0.8764
  516MOL0     C69562  -0.009   0.777   6.375 -0.1832 -0.1371 -0.0576
  516MOL0     C69563   0.070   0.823   6.493  0.1997  0.1724 -0.3066
  516MOL0     C69564   0.103   0.971   6.472  0.1070  0.2016 -0.0566
  516MOL0     C69565   0.175   1.033   6.595 -0.1618  0.6950 -0.6918
  516MOL0     C69566   0.176   1.191   6.594  0.5988 -0.1835 -0.7431
  516MOL0     C69567   0.224   1.233   6.737 -0.1778 -0.4310  0.9622
  516MOL0     C69568   0.258   1.385   6.744  0.4305 -0.2316  0.5800
  516MOL0    Cl69569   0.434   1.391   6.729 -0.0951 -0.5753  0.4694
  516MOL0     C69570   0.133   0.764   5.963 -0.5596 -0.2405 -0.4117
  516MOL0     C69571   0.155   0.802   5.830  0.2944 -0.0964 -0.2488
  516MOL0     O69572   0.164   1.038   5.624  0.5345  1.0333  0.3238
  516MOL0     C69573   0.253   1.045   5.357  0.2288  0.4003  1.0886
  516MOL0     C69574   0.297   1.036   5.222  0.2498  0.0000  0.3948
  516MOL0     N69575   0.632   1.092   4.563  0.1246  0.0638 -0.0246
  516MOL0     N69576   0.626   1.169   4.461  0.3092 -0.5386  0.3666
  516MOL0     C69577   0.125   1.876   3.681 -0.3860 -0.2846 -0.1995
  516MOL0     C69578   0.157   2.006   3.671 -0.7871  0.0620  0.4611
  516MOL0     C69579   0.321   2.423   3.750  0.4935 -0.2594 -0.0269
  516MOL0     C69580   0.433   2.439   3.672 -0.0556 -1.0960 -0.4886
  516MOL0     C69581   0.492   2.571   3.665 -0.5682  0.4561 -0.1657
  516MOL0     C69582   0.442   2.675   3.727  0.0606 -0.2589 -0.2029
  516MOL0     O69583   0.522   2.785   3.706 -0.0625  0.1343 -0.3633
  516MOL0     C69584   0.499   2.907   3.782 -0.2998 -0.6313 -0.3860
  516MOL0     C69585   0.639   2.936   3.844  1.0372  0.3530  0.5509
  516MOL0     C69586   0.673   3.073   3.900 -0.6236  0.3115  0.3950
  516MOL0     C69587   0.722   3.164   3.778 -0.0612  0.3001  1.0845
  516MOL0     C69588   0.861   3.205   3.788 -0.1451 -0.7436 -0.2707
  516MOL0     C69589   0.973   3.236   3.764 -0.5510 -0.6277 -0.4347
  516MOL0     C69590   0.333   2.664   3.802  0.3569  0.4206  0.3682
  516MOL0     C69591   0.264   2.540   3.818 -0.3816 -0.3013  0.2730
  516MOL0     C69592   0.141   2.534   3.902 -0.6342 -0.2356 -0.3698
  516MOL0     H69593   0.487   1.992   3.726 -0.9301  0.5888  5.6821
  516MOL0     H69594   0.428   1.746   3.744  1.7759  3.1176  1.1398
  516MOL0     H69595   0.005   1.592   3.810 -0.4803  0.0947 -0.6068
  516MOL0     H69596   0.002   1.595   3.638  0.3210  1.9154  0.3637
  516MOL0     H69597   0.208   1.409   3.686 -0.2751  3.0689  1.0498
  516MOL0     H69598   0.043   1.361   3.688 -0.1017  0.7620 -0.8671
  516MOL0     H69599   0.202   1.292   3.873 -3.0449 -2.1869 -0.3957
  516MOL0     H69600   0.060   1.351   3.945  0.4255  0.6627  0.9565
  516MOL0     H69601   0.320   1.498   3.926 -1.6341  1.0906 -2.4548
  516MOL0     H69602   0.178   1.588   3.985 -3.6624 -0.0860 -4.1861
  516MOL0     H69603   0.312   1.499   4.182 -0.4910 -3.0094  4.0235
  516MOL0     H69604   0.149   1.452   4.172  0.3244  2.4255 -0.6839
  516MOL0     H69605   0.217   1.223   4.101  2.6651 -1.9009 -1.4201
  516MOL0     H69606   0.385   1.281   4.067  1.5611  0.7619  0.2632
  516MOL0     H69607   0.317   1.155   4.289 -1.6103  1.4221  2.5403
  516MOL0     H69608   0.242   1.318   4.324  0.1713 -0.3468 -0.1114
  516MOL0     H69609   0.537   1.331   4.305  0.2324  1.0052 -0.6437
  516MOL0     H69610   0.428   1.383   4.438 -2.7271 -1.2984 -1.0862
  516MOL0     H69611   0.308   1.133   4.570 -1.0041 -0.2568 -2.8010
  516MOL0     H69612   0.580   1.006   4.803  0.8608 -0.1129 -1.0030
  516MOL0     H69613   0.408   1.034   4.808 -0.3128  0.9864 -1.0102
  516MOL0     H69614   0.367   0.818   4.668  1.2523 -0.5175 -2.9849
  516MOL0     H69615   0.540   0.814   4.659 -0.3660  0.7103 -0.4749
  516MOL0     H69616   0.560   0.771   4.908  0.0771 -1.6206  0.9571
  516MOL0     H69617   0.458   0.657   4.822  0.5401  0.6191 -1.1458
  516MOL0     H69618   0.368   0.706   5.033  0.5300 -1.1421 -1.8435
  516MOL0     H69619   0.253   0.751   4.910  0.3670 -2.0245  0.7924
  516MOL0     H69620   0.169   0.722   5.146  1.1034 -2.0575  1.9474
  516MOL0     H69621   0.094   0.738   5.365 -0.2134 -0.9850 -1.1311
  516MOL0     H69622  -0.155   0.807   5.705 -1.5060  1.1179  1.6075
  516MOL0     H69623  -0.206   0.747   5.953  0.1919 -0.0464  0.7031
  516MOL0     H69624   0.106   0.628   6.278  0.4650  0.1382 -1.9027
  516MOL0     H69625   0.145   0.804   6.226  1.5864 -0.8953 -0.3462
  516MOL0     H69626  -0.070   0.860   6.338 -0.3605 -1.1333 -2.1261
  516MOL0     H69627  -0.072   0.692   6.403 -0.9041  0.6067  0.6132
  516MOL0     H69628  -0.003   0.811   6.573 -1.9125  0.4264 -2.0992
  516MOL0     H69629   0.155   0.757   6.509 -0.5732 -0.9495 -0.7366
  516MOL0     H69630   0.005   1.014   6.449  0.1201 -0.5840 -1.7770
  516MOL0     H69631   0.167   0.972   6.383  2.8984 -2.0237  1.7122
  516MOL0     H69632   0.279   1.008   6.618 -0.5587 -1.1149 -0.6835
  516MOL0     H69633   0.125   0.983   6.678  1.4757 -1.5078 -0.9310
  516MOL0     H69634   0.242   1.228   6.515  4.1285 -2.7003  0.7684
  516MOL0     H69635   0.073   1.224   6.577  1.1690  0.9736 -2.3092
  516MOL0     H69636   0.312   1.171   6.760  3.1059  3.2008 -0.6177
  516MOL0     H69637   0.146   1.204   6.808 -2.1190 -1.1859 -1.3570
  516MOL0     H69638   0.215   1.450   6.667  0.6014  0.0755  0.7405
  516MOL0     H69639   0.251   1.426   6.845  3.2065  0.0546  0.7337
  516MOL0     H69640   0.215   0.742   6.030  2.3182  3.1665 -2.4125
  516MOL0     H69641   0.259   0.811   5.799 -0.3185  2.3092 -1.8633
  516MOL0     H69642   0.270   1.140   5.407 -0.9289  2.0874 -1.4916
  516MOL0     H69643   0.360   1.119   5.192 -1.2684  0.8153 -0.6849
  516MOL0     H69644   0.022   1.843   3.682  0.3876 -2.9352  0.8270
  516MOL0     H69645   0.080   2.080   3.652  0.2295  1.8107  2.6935
  516MOL0     H69646   0.482   2.362   3.613  2.2271 -0.5325  0.5474
  516MOL0     H69647   0.590   2.581   3.618 -0.6700 -0.9647 -0.7070
  516MOL0     H69648   0.419   2.912   3.857 -2.3352 -2.2894 -2.3209
  516MOL0     H69649   0.479   2.981   3.704  2.4518 -1.9326 -2.5136
  516MOL0     H69650   0.710   2.909   3.765 -3.0722  0.8090 -3.7469
  516MOL0     H69651   0.642   2.871   3.932  3.0118  1.9833  1.7799
  516MOL0     H69652   0.752   3.062   3.975 -0.2821 -2.8729 -0.2917
  516MOL0     H69653   0.585   3.106   3.956  1.7596 -0.1570  4.8710
  516MOL0     H69654   0.696   3.121   3.681  0.3141 -2.6273  2.1868
  516MOL0     H69655   0.670   3.260   3.776  2.9079  2.0203  0.2897
  516MOL0     H69656   1.074   3.268   3.745  0.3359  0.4185  4.6339
  516MOL0     H69657   0.301   2.749   3.862  0.3123 -0.1025  1.1112
  516MOL0     H69658   0.147   2.609   3.981  1.2416 -0.1932 -0.5137
  516MOL0     H69659   0.054   2.565   3.842 -1.4533  0.0035  0.9033
  516MOL0     H69660   0.134   2.434   3.947  1.5557 -0.9442 -1.4475
  517MOL0     O69661   3.503  10.329   5.296  0.1338  0.1924  0.0973
  517MOL0     C69662   3.461  10.253   5.210 -1.1972 -0.2747 -0.3764
  517MOL0     O69663   3.478  10.116   5.208 -0.2253 -0.7910  0.2547
  517MOL0     C69664   3.555  10.062   5.314 -0.2306 -0.1338 -0.1723
  517MOL0     C69665   3.691  10.029   5.295 -0.4235 -0.0024 -0.4393
  517MOL0     C69666   3.755   9.952   5.386  1.0005  0.0906  0.3993
  517MOL0     C69667   3.684   9.908   5.505  0.3938 -1.0482 -0.1245
  517MOL0     O69668   3.754   9.819   5.585  0.7567 -0.7621 -0.3146
  517MOL0     C69669   3.682   9.713   5.650 -0.1594  0.2779  0.0288
  517MOL0     C69670   3.755   9.646   5.765  0.3614  0.5957  0.2319
  517MOL0     C69671   3.679   9.535   5.843  0.7787  0.7668  1.0760
  517MOL0     C69672   3.768   9.479   5.963  0.7316 -0.8243 -0.5791
  517MOL0     C69673   3.870   9.363   5.933 -0.7638  1.3622 -0.3415
  517MOL0     C69674   3.828   9.237   5.848  0.4145  0.0224  0.2746
  517MOL0     C69675   3.732   9.143   5.918  0.0805  0.7607  0.6992
  517MOL0     C69676   3.787   9.108   6.053 -0.0080 -0.4859 -0.2720
  517MOL0     N69677   3.703   9.006   6.125 -0.2295  0.1454 -0.9666
  517MOL0     C69678   3.564   9.004   6.108 -0.2280 -0.0160 -0.4212
  517MOL0     C69679   3.526   8.887   6.162 -0.2171  0.4207 -0.2745
  517MOL0     C69680   3.391   8.819   6.144 -0.6832 -0.2813 -0.2323
  517MOL0     C69681   3.401   8.687   6.070 -0.0747 -0.0447  0.0520
  517MOL0     C69682   3.289   8.593   6.090  0.0404  0.1277 -0.0999
  517MOL0     C69683   3.313   8.444   6.052 -0.2624 -0.3031 -0.5793
  517MOL0     O69684   3.275   8.436   5.916  0.8196  0.3503 -0.2556
  517MOL0     C69685   3.334   8.338   5.833  0.1163 -0.4720 -0.7538
  517MOL0     C69686   3.476   8.310   5.844 -0.0085  0.3122 -0.0561
  517MOL0     C69687   3.520   8.210   5.751 -0.4388 -0.8016 -0.3888
  517MOL0     C69688   3.434   8.134   5.669 -0.1823 -0.0574 -0.2732
  517MOL0     C69689   3.497   8.032   5.584 -0.6951  0.5393 -0.2099
  517MOL0     O69690   3.633   8.009   5.612 -0.4528 -0.5506 -0.5004
  517MOL0     C69691   3.695   7.916   5.533 -0.2420  0.5714  0.7466
  517MOL0     C69692   3.789   7.961   5.425 -0.4798  0.0264  0.4606
  517MOL0     C69693   3.835   7.859   5.338  0.4112 -0.2488  0.2341
  517MOL0     C69694   3.785   7.717   5.348  1.3151 -0.4020  0.0298
  517MOL0     O69695   3.830   7.621   5.262 -0.3272  0.3826 -0.5650
  517MOL0     C69696   3.976   7.597   5.260 -0.1987 -0.2952 -0.1682
  517MOL0     C69697   4.014   7.525   5.392  0.4703  0.7263  0.4067
  517MOL0     C69698   4.166   7.492   5.399  0.2871 -0.1053  0.2647
  517MOL0     C69699   4.188   7.401   5.511  0.6854  0.0939 -0.3879
  517MOL0     C69700   4.328   7.382   5.552 -0.2044 -0.3083 -0.2007
  517MOL0     C69701   4.390   7.515   5.586  0.0907 -0.1996  0.2074
  517MOL0     C69702   4.510   7.498   5.682 -0.2262 -0.6861  0.3209
  517MOL0     C69703   4.590   7.629   5.702  0.1903 -0.1600  0.0183
  517MOL0    Cl69704   4.501   7.745   5.790 -0.6577  0.4523  0.2452
  517MOL0     C69705   3.697   7.683   5.450  0.4153  0.7592 -0.9961
  517MOL0     C69706   3.648   7.787   5.532  0.2131 -0.3554  1.1560
  517MOL0     O69707   3.437   7.972   5.491 -0.6251 -0.4541  0.6202
  517MOL0     C69708   3.298   8.163   5.671 -0.3932  0.5964  0.1378
  517MOL0     C69709   3.253   8.268   5.752  0.3682  0.4937  0.0557
  517MOL0     N69710   3.637   8.823   6.204 -0.1541 -0.2503 -0.5287
  517MOL0     N69711   3.747   8.897   6.189  0.7546  1.2666  0.3316
  517MOL0     C69712   3.547   9.945   5.532 -0.3212 -0.1497 -0.9077
  517MOL0     C69713   3.488  10.030   5.432 -0.2116 -0.0814 -0.4688
  517MOL0     C69714   3.372  10.310   5.110 -0.4624 -0.0090  0.7133
  517MOL0     C69715   3.260  10.230   5.078  0.2498  0.0239  0.0796
  517MOL0     C69716   3.164  10.274   4.993 -1.2696 -0.3160  1.1997
  517MOL0     C69717   3.171  10.401   4.934 -1.2632  0.0846  0.4546
  517MOL0     O69718   3.059  10.449   4.868  0.7272 -0.7358  0.2469
  517MOL0     C69719   2.982  10.538   4.955  0.1973  0.2503 -0.3658
  517MOL0     C69720   2.903  10.642   4.870 -0.1764  0.3193  0.4008
  517MOL0     C69721   2.992  10.719   4.773 -0.4365  0.3471  0.2122
  517MOL0     C69722   2.915  10.800   4.676 -0.0556 -0.3088 -1.0151
  517MOL0     C69723   2.833  10.909   4.737 -0.8444 -0.2677 -0.6604
  517MOL0     C69724   2.774  11.005   4.793 -0.5522 -0.5191 -0.3686
  517MOL0     C69725   3.277  10.479   4.970  0.7163  0.1890  0.7173
  517MOL0     C69726   3.381  10.435   5.050  0.1874  0.2117  0.4443
  517MOL0     C69727   3.477  10.546   5.096 -0.4650 -0.4661  0.3849
  517MOL0     H69728   3.740  10.045   5.199 -0.3652  0.8947 -0.2742
  517MOL0     H69729   3.858   9.920   5.378  0.5637 -2.1180  2.3601
  517MOL0     H69730   3.592   9.752   5.698 -0.0325  3.3732 -1.9555
  517MOL0     H69731   3.647   9.630   5.587  3.3777 -0.5505 -1.1146
  517MOL0     H69732   3.789   9.724   5.833  0.5623 -0.5649  1.5213
  517MOL0     H69733   3.843   9.592   5.730  0.1994  1.5654 -1.7690
  517MOL0     H69734   3.667   9.460   5.764 -1.1026  3.7742 -1.7308
  517MOL0     H69735   3.592   9.584   5.888  1.2899  1.0486  1.7785
  517MOL0     H69736   3.826   9.559   6.009  3.2635 -1.1794 -2.8271
  517MOL0     H69737   3.698   9.434   6.034 -0.5751  0.8518 -0.7418
  517MOL0     H69738   3.944   9.411   5.868  0.3424  0.1636 -0.0246
  517MOL0     H69739   3.923   9.329   6.023  1.0482 -1.3955 -2.2840
  517MOL0     H69740   3.787   9.277   5.755 -0.3608 -0.9030  0.1988
  517MOL0     H69741   3.915   9.183   5.812 -0.6515  0.0392 -2.5364
  517MOL0     H69742   3.717   9.056   5.853  1.3616  2.9961 -2.8763
  517MOL0     H69743   3.637   9.195   5.934 -0.0040  2.3931 -3.7391
  517MOL0     H69744   3.886   9.063   6.045  0.1275 -0.0297 -1.2371
  517MOL0     H69745   3.796   9.188   6.127  2.5493 -1.2749  0.3660
  517MOL0     H69746   3.505   9.065   6.041 -0.1110 -1.1065 -1.5565
  517MOL0     H69747   3.331   8.807   6.235 -0.8332  1.6960 -0.0245
  517MOL0     H69748   3.332   8.886   6.081  0.7562 -0.4288 -1.7928
  517MOL0     H69749   3.408   8.700   5.962 -0.5929 -0.7388 -0.0726
  517MOL0     H69750   3.490   8.636   6.107 -0.5486 -2.8689 -2.3712
  517MOL0     H69751   3.200   8.636   6.043  0.0325  2.2408  1.7154
  517MOL0     H69752   3.266   8.586   6.196  3.1476 -1.8821  0.5765
  517MOL0     H69753   3.243   8.384   6.111 -0.3991  0.2571 -0.1674
  517MOL0     H69754   3.414   8.409   6.075 -0.6770  0.0073  1.9960
  517MOL0     H69755   3.542   8.349   5.921  0.9183  2.8717 -2.0021
  517MOL0     H69756   3.628   8.195   5.752 -0.6362 -2.4214  0.4305
  517MOL0     H69757   3.812   8.067   5.418  0.1302 -0.1032  0.4056
  517MOL0     H69758   3.910   7.884   5.264 -1.6971 -0.0101 -1.9453
  517MOL0     H69759   3.988   7.530   5.175 -1.7479 -1.5546  0.5603
  517MOL0     H69760   4.036   7.688   5.250  0.5897 -0.7560  0.2664
  517MOL0     H69761   4.001   7.585   5.483 -1.4513  0.8497  0.0861
  517MOL0     H69762   3.957   7.433   5.406  3.8091 -1.7127 -0.8163
  517MOL0     H69763   4.211   7.445   5.311  2.0967  1.5497  0.2275
  517MOL0     H69764   4.222   7.585   5.410 -1.1501  0.5101  3.5788
  517MOL0     H69765   4.148   7.301   5.488  1.5248 -0.1961 -0.6270
  517MOL0     H69766   4.126   7.435   5.595  0.1486  0.0621 -0.7654
  517MOL0     H69767   4.388   7.335   5.474 -0.9273 -0.8564 -0.4320
  517MOL0     H69768   4.322   7.326   5.646 -0.4102  0.7680  0.4474
  517MOL0     H69769   4.407   7.566   5.491 -1.9940 -1.1641 -0.7473
  517MOL0     H69770   4.320   7.572   5.649 -0.3568 -3.2161  2.6722
  517MOL0     H69771   4.579   7.423   5.642 -0.1211 -0.2059 -0.4181
  517MOL0     H69772   4.474   7.472   5.782  1.4346  1.3515  1.5184
  517MOL0     H69773   4.688   7.612   5.747 -0.4238 -2.1339  0.7334
  517MOL0     H69774   4.606   7.663   5.599  1.4820 -2.2580 -0.5433
  517MOL0     H69775   3.660   7.582   5.448  0.7905  0.6164 -0.8063
  517MOL0     H69776   3.570   7.761   5.602  0.8314  1.1158  2.4632
  517MOL0     H69777   3.231   8.110   5.604  0.4527  0.3900 -0.5649
  517MOL0     H69778   3.145   8.281   5.759  0.6437  3.1281  0.5009
  517MOL0     H69779   3.483   9.920   5.616  0.2329 -1.3626 -0.8314
  517MOL0     H69780   3.387  10.069   5.438 -0.2717 -0.1696 -0.8452
  517MOL0     H69781   3.248  10.134   5.126  1.9175 -0.1509  0.2038
  517MOL0     H69782   3.078  10.214   4.967  0.8807 -1.6604 -4.3235
  517MOL0     H69783   3.043  10.599   5.023 -2.7876  1.3257  1.5682
  517MOL0     H69784   2.908  10.484   5.016  0.1751  0.1312 -0.4992
  517MOL0     H69785   2.836  10.702   4.933  1.7471 -1.2249  4.2612
  517MOL0     H69786   2.825  10.582   4.823 -3.1747  2.6256  2.0632
  517MOL0     H69787   3.063  10.649   4.729 -1.1677 -0.5232  0.3797
  517MOL0     H69788   3.055  10.784   4.835  2.9224 -2.5589  0.1474
  517MOL0     H69789   2.969  10.854   4.598 -2.7817  3.0140 -0.8228
  517MOL0     H69790   2.851  10.728   4.625  1.8077 -2.6103 -0.2821
  517MOL0     H69791   2.730  11.091   4.840 -2.0689 -0.3271 -2.0385
  517MOL0     H69792   3.275  10.581   4.934 -1.5865 -1.2460 -4.0598
  517MOL0     H69793   3.578  10.504   5.107 -0.4281 -0.6179 -0.4428
  517MOL0     H69794   3.476  10.635   5.032  0.3607  1.3180  2.7189
  517MOL0     H69795   3.451  10.586   5.194  1.3905 -0.5811  0.9709
  518MOL0     O69796   2.062   2.766   8.210 -0.1396 -0.3771  0.0391
  518MOL0     C69797   2.180   2.799   8.207 -0.1557  0.1130  0.2154
  518MOL0     O69798   2.223   2.926   8.201  0.3716  0.0189 -1.1020
  518MOL0     C69799   2.118   3.019   8.223 -1.0091  0.5041  0.7924
  518MOL0     C69800   2.019   3.051   8.118  1.0186 -0.4420 -0.3810
  518MOL0     C69801   1.934   3.170   8.140 -0.9379 -1.9221 -0.5054
  518MOL0     C69802   1.956   3.247   8.255  1.4560  0.8461  0.2742
  518MOL0     O69803   1.892   3.370   8.282 -0.3135  0.6915  0.2323
  518MOL0     C69804   1.815   3.425   8.177  0.4725 -0.4514 -0.4494
  518MOL0     C69805   1.777   3.559   8.231  0.5063 -0.4046  0.4426
  518MOL0     C69806   1.886   3.667   8.220 -0.1400  0.0109 -0.1551
  518MOL0     C69807   1.854   3.784   8.314  0.1772  0.5777 -0.1135
  518MOL0     C69808   1.862   3.918   8.242 -0.7287  0.2666  0.1625
  518MOL0     C69809   1.829   4.040   8.316 -0.8325 -0.0185  0.8216
  518MOL0     C69810   1.685   4.037   8.378 -0.0042  1.2829  0.0384
  518MOL0     C69811   1.648   4.186   8.429  0.3178 -0.5397  1.3639
  518MOL0     N69812   1.735   4.233   8.539  0.7760 -0.0450  0.2612
  518MOL0     C69813   1.834   4.332   8.538  0.9780 -0.4049  0.4730
  518MOL0     C69814   1.910   4.310   8.647 -1.0533 -0.2327 -0.7789
  518MOL0     C69815   2.023   4.393   8.703 -0.7200 -0.2555 -1.0811
  518MOL0     C69816   1.979   4.489   8.812  0.0284 -0.2857  0.3838
  518MOL0     C69817   2.098   4.587   8.852 -0.7356 -0.4088  0.1417
  518MOL0     C69818   2.061   4.669   8.982  0.6752 -0.3890 -0.4675
  518MOL0     O69819   2.180   4.732   9.044  0.0326  1.0985 -0.3396
  518MOL0     C69820   2.159   4.781   9.172 -0.5967  0.6316  0.2437
  518MOL0     C69821   2.040   4.832   9.234 -0.6706 -0.1332  0.8148
  518MOL0     C69822   2.044   4.885   9.364 -0.4425  0.4457 -0.0689
  518MOL0     C69823   2.161   4.896   9.447  0.5978 -0.5695  0.5994
  518MOL0     C69824   2.146   4.937   9.593  0.5408 -0.2066  0.2101
  518MOL0     O69825   2.261   4.952   9.666  0.5874 -0.6394 -0.7875
  518MOL0     C69826   2.263   4.942   9.800 -1.0513  0.0720  0.1045
  518MOL0     C69827   2.335   5.034   9.880  0.0406  0.1032  0.2253
  518MOL0     C69828   2.307   5.044  10.016 -0.5432  0.4709  0.7035
  518MOL0     C69829   2.214   4.962  10.085 -0.4415  0.2119 -0.7613
  518MOL0     O69830   2.206   4.970  10.221 -0.2135  0.1698  0.0339
  518MOL0     C69831   2.077   5.000  10.271 -0.3589  0.1233 -0.2533
  518MOL0     C69832   2.107   5.120  10.372  1.0853 -1.0746  0.3271
  518MOL0     C69833   1.973   5.209  10.397  0.1274 -0.3933 -0.2573
  518MOL0     C69834   1.957   5.242  10.555  0.1001  0.1397 -0.1260
  518MOL0     C69835   1.913   5.116  10.631 -1.0019  0.7718  0.3429
  518MOL0     C69836   1.796   5.040  10.572  0.5537 -0.1071 -0.1748
  518MOL0     C69837   1.769   4.908  10.644  0.5725 -1.0048 -0.2180
  518MOL0     C69838   1.871   4.805  10.649 -0.8545 -0.8942 -0.9328
  518MOL0    Cl69839   1.894   4.740  10.480  0.0929 -0.1170 -0.1696
  518MOL0     C69840   2.148   4.863  10.011 -0.6006  0.2719  0.1328
  518MOL0     C69841   2.177   4.852   9.867  0.0833 -0.7688  0.3243
  518MOL0     O69842   2.032   4.948   9.632 -0.2649 -0.5883  0.2784
  518MOL0     C69843   2.274   4.840   9.383  0.3560 -0.8143  0.1668
  518MOL0     C69844   2.278   4.790   9.257  0.8254 -0.7225  0.2203
  518MOL0     N69845   1.859   4.202   8.717  0.1977  0.5789  0.8567
  518MOL0     N69846   1.750   4.159   8.651  0.8827  0.2742  0.0206
  518MOL0     C69847   2.038   3.206   8.357 -1.0031 -0.6443 -0.5149
  518MOL0     C69848   2.123   3.093   8.342  0.7616  0.1683  0.1347
  518MOL0     C69849   2.284   2.701   8.198 -0.6619 -0.0314  0.8926
  518MOL0     C69850   2.408   2.746   8.147 -0.5393  0.2058  0.6855
  518MOL0     C69851   2.522   2.666   8.122 -0.2010  0.4563 -0.0655
  518MOL0     C69852   2.519   2.527   8.157  0.5160 -0.1480  0.0779
  518MOL0     O69853   2.622   2.434   8.145 -0.8328  0.6035  0.0418
  518MOL0     C69854   2.749   2.472   8.083 -0.0926  1.2278 -0.2007
  518MOL0     C69855   2.813   2.333   8.066 -0.5520  0.3423 -0.2174
  518MOL0     C69856   2.955   2.344   8.005  0.6673 -1.1813 -0.6026
  518MOL0     C69857   3.030   2.214   8.020 -0.6193  0.0024 -0.6089
  518MOL0     C69858   3.135   2.204   7.923 -0.0990  0.1267  0.3402
  518MOL0     C69859   3.225   2.199   7.846 -0.2385  0.8049 -0.5176
  518MOL0     C69860   2.393   2.479   8.207 -0.8002  0.2793  0.3903
  518MOL0     C69861   2.281   2.561   8.217  1.3008 -0.2502  0.6563
  518MOL0     C69862   2.161   2.498   8.273  0.6430  0.8949 -0.2080
  518MOL0     H69863   1.997   2.980   8.040  1.3357 -1.1412  0.1560
  518MOL0     H69864   1.862   3.194   8.062 -0.3064 -0.7137 -0.7476
  518MOL0     H69865   1.870   3.434   8.083  0.8543  1.2657 -0.0916
  518MOL0     H69866   1.723   3.368   8.158 -1.4557  3.2296 -3.5947
  518MOL0     H69867   1.749   3.539   8.335  1.3186  0.4417  0.8262
  518MOL0     H69868   1.693   3.591   8.169 -1.3115 -1.7715  2.0631
  518MOL0     H69869   1.913   3.688   8.116  0.2805  0.8979  0.1287
  518MOL0     H69870   1.969   3.611   8.265 -1.4193 -2.4685 -0.6642
  518MOL0     H69871   1.751   3.760   8.343 -2.0214  1.9780 -5.4716
  518MOL0     H69872   1.916   3.787   8.403 -0.7724  3.0389  0.5500
  518MOL0     H69873   1.963   3.923   8.199 -0.9282 -0.2354 -0.3880
  518MOL0     H69874   1.800   3.921   8.153 -0.4500  1.4231 -0.0073
  518MOL0     H69875   1.911   4.048   8.388  1.2618 -3.1310 -0.9571
  518MOL0     H69876   1.839   4.126   8.249 -0.3970 -1.4324 -1.0089
  518MOL0     H69877   1.671   3.957   8.451 -1.9821  1.9657  0.4688
  518MOL0     H69878   1.625   4.020   8.288  1.1615  3.4997 -1.2433
  518MOL0     H69879   1.649   4.266   8.355  1.5621  0.7720  2.7387
  518MOL0     H69880   1.543   4.173   8.457 -0.2095 -1.0081 -0.6595
  518MOL0     H69881   1.834   4.416   8.469 -2.2864 -2.2770 -2.0933
  518MOL0     H69882   2.099   4.324   8.741 -2.4185 -0.9324  1.3081
  518MOL0     H69883   2.060   4.444   8.614  1.2460 -1.9542 -1.3131
  518MOL0     H69884   1.896   4.550   8.776  1.9549  3.1416  1.2579
  518MOL0     H69885   1.947   4.424   8.894  2.6250 -2.7497 -0.3975
  518MOL0     H69886   2.122   4.661   8.775  0.1584 -1.0385 -0.1956
  518MOL0     H69887   2.191   4.532   8.868  1.3112  2.3525 -1.4366
  518MOL0     H69888   2.012   4.592   9.043 -1.0018  2.2433  1.7420
  518MOL0     H69889   1.999   4.756   8.959  1.5546  0.7242  1.1658
  518MOL0     H69890   1.946   4.838   9.179 -0.2285  3.6508  0.1826
  518MOL0     H69891   1.946   4.899   9.409 -0.3167  1.3833 -0.0580
  518MOL0     H69892   2.399   5.108   9.834  2.2239  0.0111  2.8503
  518MOL0     H69893   2.356   5.129  10.063 -0.5800  1.4296 -0.9175
  518MOL0     H69894   2.005   5.025  10.192  1.0543  4.1998 -0.4967
  518MOL0     H69895   2.044   4.915  10.331 -0.8603  2.0000  2.2943
  518MOL0     H69896   2.140   5.079  10.468 -4.0881 -0.1467  2.8726
  518MOL0     H69897   2.180   5.196  10.343 -3.4044  2.8713 -1.9649
  518MOL0     H69898   2.002   5.304  10.350  0.8268  0.2995  1.4900
  518MOL0     H69899   1.879   5.171  10.358 -0.0284  0.1112 -0.3785
  518MOL0     H69900   1.880   5.317  10.576 -2.2951 -1.9337 -0.9437
  518MOL0     H69901   2.054   5.271  10.597 -0.4195 -1.8200  2.7028
  518MOL0     H69902   1.884   5.135  10.735 -0.2837 -3.3479  1.5092
  518MOL0     H69903   2.006   5.059  10.644  1.1204  3.6335 -1.2558
  518MOL0     H69904   1.700   5.091  10.583 -0.0013 -0.8183 -1.5042
  518MOL0     H69905   1.810   5.010  10.467  0.5635  0.3965 -0.3172
  518MOL0     H69906   1.680   4.863  10.597 -0.4279  1.6955 -1.1009
  518MOL0     H69907   1.761   4.932  10.750  2.5204 -1.3984  0.0403
  518MOL0     H69908   1.964   4.845  10.689 -2.7116  1.1047  1.6896
  518MOL0     H69909   1.848   4.720  10.714  1.5183 -0.8989 -0.0199
  518MOL0     H69910   2.092   4.790  10.068 -1.3823  1.3885  0.8566
  518MOL0     H69911   2.122   4.782   9.806 -2.6411  2.5339 -1.3716
  518MOL0     H69912   2.369   4.845   9.436  0.9704  0.6104 -1.0022
  518MOL0     H69913   2.379   4.758   9.231  1.3898 -0.3046  1.7866
  518MOL0     H69914   2.037   3.268   8.445  1.1479 -0.2981 -0.6828
  518MOL0     H69915   2.191   3.063   8.421 -2.3264 -2.2279  2.1416
  518MOL0     H69916   2.423   2.851   8.126 -1.0107  0.0625 -0.4376
  518MOL0     H69917   2.609   2.726   8.100  0.5441  0.3934  2.4522
  518MOL0     H69918   2.817   2.527   8.148  2.4666 -0.2018 -1.5114
  518MOL0     H69919   2.730   2.521   7.988  1.6007  0.6284 -0.8796
  518MOL0     H69920   2.753   2.278   7.993  0.1182  1.8448 -1.9814
  518MOL0     H69921   2.812   2.283   8.163  0.3364 -0.0473 -0.3937
  518MOL0     H69922   3.009   2.428   8.051 -0.1651  0.2495 -2.1460
  518MOL0     H69923   2.948   2.368   7.899  0.2175  2.8296  0.1864
  518MOL0     H69924   3.069   2.204   8.122 -1.0353 -0.4911 -0.4893
  518MOL0     H69925   2.952   2.138   8.010 -2.7739  1.8860  0.9786
  518MOL0     H69926   3.295   2.187   7.765 -1.2948  0.0064 -1.3353
  518MOL0     H69927   2.397   2.376   8.238  5.0299 -0.0274 -0.2840
  518MOL0     H69928   2.196   2.403   8.315 -1.5551  0.3969  0.6019
  518MOL0     H69929   2.103   2.544   8.354 -1.4136  0.7933 -1.5703
  518MOL0     H69930   2.074   2.474   8.212 -0.6345 -2.8757  2.6770
  519MOL0     O69931   0.785   7.239   2.494 -0.1453  0.1358  0.0680
  519MOL0     C69932   0.795   7.341   2.435  0.5519 -0.1798 -0.9568
  519MOL0     O69933   0.707   7.389   2.335 -0.2172  0.9987  0.0916
  519MOL0     C69934   0.589   7.330   2.307  0.3414  0.6216 -0.3816
  519MOL0     C69935   0.520   7.233   2.372 -0.1097 -0.0024  0.1256
  519MOL0     C69936   0.394   7.184   2.336  0.0762  0.0479  0.0841
  519MOL0     C69937   0.326   7.236   2.217  0.1230 -0.2394  0.0450
  519MOL0     O69938   0.214   7.191   2.164  0.3242 -0.3269  0.2535
  519MOL0     C69939   0.133   7.091   2.228 -0.8283 -0.1378 -0.3849
  519MOL0     C69940   0.002   7.084   2.158  0.3464 -0.9491 -0.1023
  519MOL0     C69941  -0.066   6.949   2.195 -0.1842 -0.1513  0.3318
  519MOL0     C69942  -0.210   6.936   2.139  0.2336  0.5386 -0.5425
  519MOL0     C69943  -0.250   6.795   2.084  0.1809 -0.4433 -0.0804
  519MOL0     C69944  -0.199   6.763   1.940 -0.0492 -0.4643 -0.1256
  519MOL0     C69945  -0.247   6.642   1.877  0.0282  0.3258  0.0069
  519MOL0     C69946  -0.184   6.614   1.737 -0.1824 -0.0938  0.1347
  519MOL0     N69947  -0.193   6.476   1.696 -0.5113 -0.1149 -0.7795
  519MOL0     C69948  -0.112   6.373   1.734 -0.5791  0.1234 -0.6574
  519MOL0     C69949  -0.166   6.265   1.678  1.1878 -0.2006  0.0223
  519MOL0     C69950  -0.112   6.124   1.654  0.0909 -0.8333 -0.7169
  519MOL0     C69951  -0.077   6.044   1.786 -0.1273  0.2517  0.1429
  519MOL0     C69952  -0.199   6.032   1.880  0.9151 -0.3418 -0.0285
  519MOL0     C69953  -0.165   5.962   2.014 -0.1271  0.1411  0.4135
  519MOL0     O69954  -0.125   5.826   1.995 -0.1992 -0.1407  0.0647
  519MOL0     C69955  -0.199   5.734   2.079 -0.4288  0.0523  1.0476
  519MOL0     C69956  -0.153   5.674   2.196 -0.5406 -0.0448 -1.0478
  519MOL0     C69957  -0.235   5.591   2.269 -0.5474 -0.6515 -0.1832
  519MOL0     C69958  -0.361   5.550   2.206 -0.3064 -0.0621  0.0710
  519MOL0     C69959  -0.454   5.465   2.281 -0.5284  0.2562  0.0715
  519MOL0     O69960  -0.453   5.472   2.423 -0.1582  0.4884  0.4730
  519MOL0     C69961  -0.523   5.369   2.489  0.3876  0.1882  0.1274
  519MOL0     C69962  -0.495   5.230   2.477  1.1795 -0.7095  0.6917
  519MOL0     C69963  -0.581   5.139   2.534  0.3119  0.3418 -0.0325
  519MOL0     C69964  -0.691   5.173   2.616 -0.0979  0.0523  0.3417
  519MOL0     O69965  -0.769   5.076   2.683 -0.0802  0.9807  0.0847
  519MOL0     C69966  -0.900   5.118   2.728  0.7938 -0.1847  0.8147
  519MOL0     C69967  -0.979   4.991   2.765 -0.0954 -0.6522  0.7530
  519MOL0     C69968  -1.011   4.909   2.643 -0.0855  0.1804  0.5395
  519MOL0     C69969  -1.065   4.771   2.666  0.7464  0.3806 -0.2919
  519MOL0     C69970  -1.123   4.706   2.543  0.6581 -0.8182  0.8962
  519MOL0     C69971  -1.185   4.563   2.580 -1.1997 -0.9944  0.0456
  519MOL0     C69972  -1.256   4.513   2.460  0.9326 -0.6890 -0.8001
  519MOL0     C69973  -1.213   4.379   2.425  0.8673 -0.6807  0.6802
  519MOL0    Cl69974  -1.053   4.371   2.349 -0.1581 -0.1858  0.4828
  519MOL0     C69975  -0.708   5.312   2.631 -0.4229 -0.1103 -0.1361
  519MOL0     C69976  -0.630   5.404   2.565 -0.2853 -0.2117 -0.6893
  519MOL0     O69977  -0.505   5.377   2.219  0.0634  0.5693  0.5508
  519MOL0     C69978  -0.396   5.600   2.079  0.2971 -0.5910  0.4993
  519MOL0     C69979  -0.323   5.705   2.021 -0.1876 -0.7113 -0.3236
  519MOL0     N69980  -0.281   6.298   1.607 -0.5038  0.1719  0.0474
  519MOL0     N69981  -0.293   6.426   1.624  0.1573 -0.1707  0.0802
  519MOL0     C69982   0.400   7.327   2.144  0.2677 -0.1244 -0.7014
  519MOL0     C69983   0.520   7.384   2.195 -0.7766  0.9586 -0.7078
  519MOL0     C69984   0.896   7.447   2.480 -0.2430 -0.0421 -1.2472
  519MOL0     C69985   0.868   7.530   2.593 -0.1596 -0.0660  0.1624
  519MOL0     C69986   0.965   7.631   2.629 -0.3132 -0.1529 -0.3590
  519MOL0     C69987   1.086   7.639   2.556 -0.5831 -1.1160 -0.2993
  519MOL0     O69988   1.180   7.726   2.614  0.3665  0.8571 -0.5420
  519MOL0     C69989   1.231   7.818   2.517  0.2999 -0.5793 -0.4139
  519MOL0     C69990   1.322   7.926   2.578  0.3225 -1.1237  0.5852
  519MOL0     C69991   1.466   7.877   2.573 -0.6099  0.0026  0.1557
  519MOL0     C69992   1.576   7.978   2.616  1.0623  0.3276 -0.6267
  519MOL0     C69993   1.549   8.021   2.757 -0.0730  1.0030  0.6844
  519MOL0     C69994   1.532   8.072   2.867 -0.1603 -0.5654 -0.1439
  519MOL0     C69995   1.113   7.556   2.448 -0.6214 -0.1270  0.1020
  519MOL0     C69996   1.017   7.467   2.411 -0.2134 -0.0067 -0.6263
  519MOL0     C69997   1.051   7.380   2.287  0.1389  0.6316  0.4333
  519MOL0     H69998   0.545   7.201   2.473 -4.1275  0.6427  1.5320
  519MOL0     H69999   0.338   7.113   2.396 -0.8002 -0.2736 -1.0698
  519MOL0     H70000   0.183   6.995   2.218  1.4465  0.6555  2.2628
  519MOL0     H70001   0.133   7.116   2.334  1.4103  1.7726 -0.7260
  519MOL0     H70002   0.005   7.104   2.051  0.3878  1.0647  0.2243
  519MOL0     H70003  -0.062   7.165   2.196  4.1738  3.3576 -1.8295
  519MOL0     H70004  -0.059   6.939   2.304  0.2940  1.5790  0.4955
  519MOL0     H70005   0.001   6.871   2.156  3.0422  1.1029  2.8432
  519MOL0     H70006  -0.273   6.951   2.226  3.1596 -1.5221  2.1692
  519MOL0     H70007  -0.237   7.012   2.065  0.9319  0.5241 -0.8192
  519MOL0     H70008  -0.189   6.722   2.139  1.8376  0.7038 -0.3223
  519MOL0     H70009  -0.357   6.775   2.100  0.4532 -0.3750  2.3133
  519MOL0     H70010  -0.232   6.848   1.879 -0.4216 -0.2716  0.3374
  519MOL0     H70011  -0.090   6.774   1.938 -0.2121  1.8555  0.5389
  519MOL0     H70012  -0.356   6.641   1.866 -0.0079 -2.6703  0.0303
  519MOL0     H70013  -0.216   6.562   1.944 -1.5344 -1.3596 -1.1857
  519MOL0     H70014  -0.243   6.679   1.672  1.5206  0.7406 -0.6427
  519MOL0     H70015  -0.085   6.660   1.742 -0.3244  0.8393 -3.1963
  519MOL0     H70016  -0.016   6.380   1.785 -0.4472 -1.5233 -0.6297
  519MOL0     H70017  -0.193   6.070   1.603 -1.0391  0.6261 -0.5403
  519MOL0     H70018  -0.023   6.116   1.591  0.5164 -3.9497  0.1013
  519MOL0     H70019  -0.048   5.941   1.761  2.1980  1.1104 -1.0347
  519MOL0     H70020   0.013   6.085   1.831 -0.3732  0.4231  0.4796
  519MOL0     H70021  -0.285   5.986   1.832 -2.8293  1.1024  4.5484
  519MOL0     H70022  -0.232   6.134   1.901  0.8714 -1.0267  4.1794
  519MOL0     H70023  -0.247   5.961   2.086 -1.8096 -0.6417 -1.4333
  519MOL0     H70024  -0.075   6.020   2.037  1.1801 -1.1652 -1.0965
  519MOL0     H70025  -0.056   5.696   2.241 -0.1419 -4.5765  0.8836
  519MOL0     H70026  -0.208   5.552   2.367  0.9237  1.0687  0.1428
  519MOL0     H70027  -0.423   5.204   2.400  0.7034  3.1774 -1.3315
  519MOL0     H70028  -0.559   5.033   2.524 -2.0226 -0.1587 -0.5032
  519MOL0     H70029  -0.907   5.171   2.823  0.6382 -3.0591  2.5478
  519MOL0     H70030  -0.945   5.177   2.648  3.2553  3.2572  1.7457
  519MOL0     H70031  -0.911   4.928   2.822  3.0486 -0.8330 -2.8146
  519MOL0     H70032  -1.074   5.012   2.816 -0.0233 -1.0662  1.0646
  519MOL0     H70033  -1.087   4.947   2.574  0.6908  0.2473 -0.2940
  519MOL0     H70034  -0.925   4.897   2.577  2.9171  2.0919  3.7786
  519MOL0     H70035  -1.146   4.774   2.740  0.4627  1.0006 -0.6176
  519MOL0     H70036  -0.989   4.707   2.711 -0.4455 -0.0078  1.2696
  519MOL0     H70037  -1.050   4.693   2.462 -1.0600  1.2163 -1.1183
  519MOL0     H70038  -1.204   4.762   2.496 -0.2763 -3.8678 -1.5123
  519MOL0     H70039  -1.114   4.489   2.618  3.0218  1.7170 -1.7092
  519MOL0     H70040  -1.262   4.576   2.656  2.0487  0.9286  3.3792
  519MOL0     H70041  -1.243   4.581   2.376 -1.0696 -0.1021 -0.6944
  519MOL0     H70042  -1.364   4.503   2.475  0.8509 -0.8166 -1.4614
  519MOL0     H70043  -1.203   4.304   2.505 -4.2297 -2.7188 -0.1884
  519MOL0     H70044  -1.295   4.330   2.371  0.0720 -0.4616  1.6420
  519MOL0     H70045  -0.797   5.364   2.667 -1.9389 -1.7320 -1.3670
  519MOL0     H70046  -0.649   5.508   2.591 -0.3878  0.0422 -1.7364
  519MOL0     H70047  -0.496   5.579   2.043  0.5169 -2.2997  0.7985
  519MOL0     H70048  -0.356   5.760   1.933 -2.3836 -0.9717  0.2930
  519MOL0     H70049   0.350   7.358   2.052 -1.1132  3.8293  1.1148
  519MOL0     H70050   0.573   7.449   2.126  1.4199 -1.2821 -1.2651
  519MOL0     H70051   0.775   7.518   2.647 -1.1438  2.9381 -0.6438
  519MOL0     H70052   0.944   7.688   2.718 -0.9668  1.8815 -1.7444
  519MOL0     H70053   1.154   7.886   2.481  2.0002  1.4628 -0.4508
  519MOL0     H70054   1.274   7.768   2.430 -1.5554  0.0017 -1.7234
  519MOL0     H70055   1.295   7.950   2.681  2.1321  1.1722  0.5906
  519MOL0     H70056   1.313   8.017   2.519 -1.4741 -1.6996 -0.1019
  519MOL0     H70057   1.496   7.854   2.471 -2.6342 -0.5400 -0.3653
  519MOL0     H70058   1.484   7.794   2.642  0.5190  1.3003  1.5107
  519MOL0     H70059   1.673   7.927   2.610  0.2557 -1.6303  1.4635
  519MOL0     H70060   1.569   8.077   2.568  2.5992  1.6461  1.6601
  519MOL0     H70061   1.508   8.124   2.957  1.5154 -1.8149  1.0796
  519MOL0     H70062   1.203   7.560   2.387 -0.7217  1.9490  0.0098
  519MOL0     H70063   1.136   7.412   2.226 -3.4518  1.7572 -4.6329
  519MOL0     H70064   1.063   7.277   2.323  2.0676  0.0152 -1.7442
  519MOL0     H70065   0.968   7.376   2.216  1.4564 -1.6696 -1.1060
  520MOL0     O70066   5.381   5.130   0.784  0.0888 -0.0418 -0.1031
  520MOL0     C70067   5.407   5.133   0.664 -0.6632  0.2218 -0.4570
  520MOL0     O70068   5.385   5.239   0.580 -0.1434 -0.1646  0.5529
  520MOL0     C70069   5.329   5.361   0.620  0.7488 -0.2173 -0.7749
  520MOL0     C70070   5.219   5.417   0.555  0.4845 -1.2083 -0.3681
  520MOL0     C70071   5.173   5.546   0.572 -0.0709 -0.1201  0.0105
  520MOL0     C70072   5.233   5.613   0.679  0.9993 -0.3202 -0.0702
  520MOL0     O70073   5.182   5.734   0.688 -0.1929  0.9892  0.8977
  520MOL0     C70074   5.236   5.836   0.782 -0.3925  0.6516  0.2315
  520MOL0     C70075   5.316   5.950   0.724  0.3238  0.5398 -0.9460
  520MOL0     C70076   5.312   6.065   0.821 -1.0128  0.5270 -0.8947
  520MOL0     C70077   5.362   6.191   0.750 -0.0560  0.1781 -0.5296
  520MOL0     C70078   5.353   6.315   0.832 -0.3622  0.2918  0.3913
  520MOL0     C70079   5.475   6.317   0.927 -0.1963  0.9310  0.4530
  520MOL0     C70080   5.468   6.434   1.023 -1.0040  0.1621  0.2211
  520MOL0     C70081   5.583   6.422   1.132  0.6427  0.7502  0.2725
  520MOL0     N70082   5.592   6.558   1.188 -0.8141 -0.3304 -0.5503
  520MOL0     C70083   5.528   6.606   1.305  0.2277 -0.4649  1.1136
  520MOL0     C70084   5.572   6.736   1.326  0.0756 -1.0219 -0.0472
  520MOL0     C70085   5.542   6.832   1.444 -0.8545  0.2622 -0.4907
  520MOL0     C70086   5.528   6.979   1.417 -0.3543  0.4696 -0.4435
  520MOL0     C70087   5.412   6.996   1.320 -0.1683 -0.3919  0.1992
  520MOL0     C70088   5.418   7.139   1.277 -0.2967 -0.0763  0.4058
  520MOL0     O70089   5.323   7.165   1.180  0.2776  0.0457  0.4308
  520MOL0     C70090   5.300   7.284   1.117 -0.4362  0.3882  1.2344
  520MOL0     C70091   5.377   7.397   1.136 -0.0716  0.2451  0.3096
  520MOL0     C70092   5.352   7.508   1.059  0.5792  0.0420 -0.7668
  520MOL0     C70093   5.240   7.506   0.971 -1.2856 -0.2923  0.0378
  520MOL0     C70094   5.209   7.621   0.888  0.5599  0.5523  0.2139
  520MOL0     O70095   5.286   7.729   0.927 -0.3378 -0.2944  0.7192
  520MOL0     C70096   5.281   7.847   0.852 -0.4255  0.3874 -0.8599
  520MOL0     C70097   5.309   7.856   0.711  1.5980  0.7404  0.5596
  520MOL0     C70098   5.277   7.973   0.638  0.9985  0.1334 -0.7169
  520MOL0     C70099   5.224   8.088   0.708  0.1199 -0.5489  0.3093
  520MOL0     O70100   5.210   8.215   0.646 -0.3602  0.3539 -0.1094
  520MOL0     C70101   5.187   8.221   0.506 -0.6584 -0.0335  0.3166
  520MOL0     C70102   5.317   8.219   0.422  0.5534  0.8507 -0.1046
  520MOL0     C70103   5.271   8.218   0.278 -0.4932  0.1893  0.3660
  520MOL0     C70104   5.395   8.190   0.191  0.3535 -0.3007  0.7159
  520MOL0     C70105   5.360   8.169   0.042 -0.1185  0.4699 -0.6498
  520MOL0     C70106   5.492   8.176  -0.042 -0.3053 -0.0673  0.0282
  520MOL0     C70107   5.612   8.080  -0.004 -0.2540  0.1266 -0.0515
  520MOL0     C70108   5.751   8.110  -0.069  0.6964 -0.1472 -0.5967
  520MOL0    Cl70109   5.743   8.079  -0.248 -0.4976  0.4222  0.0520
  520MOL0     C70110   5.211   8.081   0.843 -1.5223  0.8995 -0.2055
  520MOL0     C70111   5.240   7.963   0.913 -0.3185 -0.5645  0.9421
  520MOL0     O70112   5.138   7.612   0.785  0.0924  0.2845  0.8199
  520MOL0     C70113   5.154   7.398   0.960  0.0104  0.2180  0.3877
  520MOL0     C70114   5.180   7.285   1.036  0.0295  0.4213 -0.1441
  520MOL0     N70115   5.652   6.763   1.217  0.3361  0.0433 -0.1647
  520MOL0     N70116   5.671   6.657   1.151 -0.0268  0.1200  0.6577
  520MOL0     C70117   5.343   5.556   0.755  0.1669 -0.0232 -0.4614
  520MOL0     C70118   5.398   5.437   0.722 -0.3345  1.1441  0.4006
  520MOL0     C70119   5.468   5.016   0.604  0.4297  0.2214  0.2953
  520MOL0     C70120   5.568   4.940   0.668 -0.5723  0.2536 -0.9357
  520MOL0     C70121   5.645   4.842   0.606  0.2657  0.2600  0.8021
  520MOL0     C70122   5.621   4.824   0.472  0.0058 -0.4638  0.6844
  520MOL0     O70123   5.709   4.758   0.391  0.0192 -0.4690  0.4179
  520MOL0     C70124   5.808   4.660   0.441  1.5556 -0.0871  0.2946
  520MOL0     C70125   5.770   4.508   0.430 -0.3794 -0.0934  0.3213
  520MOL0     C70126   5.880   4.418   0.499 -0.1242  0.2948 -0.6645
  520MOL0     C70127   5.896   4.285   0.429  0.4115  0.2250  0.1856
  520MOL0     C70128   6.004   4.205   0.491 -1.1754  0.6200  0.0864
  520MOL0     C70129   6.091   4.157   0.565  0.8151 -0.2599  0.1525
  520MOL0     C70130   5.520   4.888   0.400  1.3654 -0.1875  0.4312
  520MOL0     C70131   5.444   4.989   0.464  0.5022 -0.5503 -0.9600
  520MOL0     C70132   5.323   5.054   0.387  0.8690  0.1404  0.6777
  520MOL0     H70133   5.172   5.347   0.486 -1.1160 -2.3526  1.7534
  520MOL0     H70134   5.094   5.579   0.506  1.2865 -1.0372 -2.2058
  520MOL0     H70135   5.151   5.871   0.842  1.0125 -0.6801  3.1986
  520MOL0     H70136   5.305   5.788   0.851  1.4003  0.6719 -1.4692
  520MOL0     H70137   5.272   5.993   0.633 -0.8603 -1.8769 -1.6142
  520MOL0     H70138   5.418   5.916   0.704  0.9524  2.5482 -1.3070
  520MOL0     H70139   5.372   6.044   0.909 -3.8810 -0.3709  0.9836
  520MOL0     H70140   5.211   6.081   0.860 -0.8435  3.0456 -1.2961
  520MOL0     H70141   5.465   6.167   0.726 -1.0502 -2.4589 -2.7069
  520MOL0     H70142   5.317   6.206   0.652 -0.7482  0.4209 -0.1838
  520MOL0     H70143   5.370   6.397   0.762 -0.9878 -0.1392 -0.2769
  520MOL0     H70144   5.258   6.328   0.885 -1.7226 -0.7396 -1.6939
  520MOL0     H70145   5.462   6.225   0.985 -4.0331 -0.3101 -2.0147
  520MOL0     H70146   5.569   6.331   0.872 -1.9862 -0.3836 -3.3020
  520MOL0     H70147   5.380   6.437   1.088 -3.2480  2.8114 -2.6298
  520MOL0     H70148   5.481   6.528   0.968 -0.5385 -0.7537 -1.2864
  520MOL0     H70149   5.553   6.346   1.205  0.8691 -0.5357 -0.9441
  520MOL0     H70150   5.676   6.390   1.085 -0.5111 -2.1688 -0.2223
  520MOL0     H70151   5.446   6.561   1.362 -2.0552 -3.0100 -3.5987
  520MOL0     H70152   5.446   6.802   1.488  0.2650 -0.2960  1.7501
  520MOL0     H70153   5.620   6.821   1.520 -1.5090 -0.8056  0.0631
  520MOL0     H70154   5.507   7.031   1.511  2.2551  0.3685  0.2761
  520MOL0     H70155   5.626   7.015   1.383 -0.9191  0.8120 -1.7696
  520MOL0     H70156   5.316   6.964   1.362 -0.4447  2.2389  1.7761
  520MOL0     H70157   5.418   6.947   1.223 -0.6548 -0.0888  0.0104
  520MOL0     H70158   5.518   7.153   1.235  0.0858  0.4078  1.4395
  520MOL0     H70159   5.407   7.206   1.363 -0.8494 -1.2926  1.3045
  520MOL0     H70160   5.462   7.386   1.203 -0.9357 -2.3898  1.1293
  520MOL0     H70161   5.403   7.603   1.065 -1.8567  1.4089 -0.5548
  520MOL0     H70162   5.347   7.766   0.663  0.0164 -0.0360  0.7135
  520MOL0     H70163   5.319   7.966   0.538 -2.5307  0.0662 -2.3413
  520MOL0     H70164   5.117   8.141   0.480  0.4856 -1.0853  0.3633
  520MOL0     H70165   5.134   8.316   0.501 -0.1503  0.3153  1.3035
  520MOL0     H70166   5.383   8.306   0.435  0.3827  0.5968  3.6126
  520MOL0     H70167   5.381   8.136   0.451  0.2510  0.0751 -1.5610
  520MOL0     H70168   5.197   8.142   0.251  0.2548 -1.0751  1.7444
  520MOL0     H70169   5.230   8.313   0.242 -1.0675 -0.7960 -1.7710
  520MOL0     H70170   5.443   8.099   0.229 -1.5827 -1.4767  0.4575
  520MOL0     H70171   5.465   8.273   0.205 -1.3911  1.1672  0.9903
  520MOL0     H70172   5.283   8.244   0.023  0.5041  1.4066  0.4043
  520MOL0     H70173   5.313   8.070   0.043  0.8699 -0.1641  3.4431
  520MOL0     H70174   5.458   8.158  -0.145 -1.4307 -1.8957  0.6761
  520MOL0     H70175   5.526   8.279  -0.029  3.2678 -1.0972  0.1777
  520MOL0     H70176   5.582   7.978  -0.031  0.5692 -0.2119  0.2620
  520MOL0     H70177   5.634   8.077   0.103  2.5725 -0.7287 -0.5714
  520MOL0     H70178   5.790   8.211  -0.054 -0.4232  0.8856 -3.7293
  520MOL0     H70179   5.818   8.032  -0.033 -0.3013 -0.2350  1.1953
  520MOL0     H70180   5.176   8.166   0.901  1.8363  2.6831 -0.5467
  520MOL0     H70181   5.226   7.962   1.021  0.9608 -0.8476  1.1206
  520MOL0     H70182   5.071   7.400   0.890  0.6170  3.6154 -0.4169
  520MOL0     H70183   5.111   7.202   1.025 -0.7080  0.9322  0.4651
  520MOL0     H70184   5.380   5.607   0.843  2.4146 -1.5063 -0.4477
  520MOL0     H70185   5.475   5.381   0.774 -2.8348  0.2300  3.3753
  520MOL0     H70186   5.593   4.960   0.772 -0.0473 -3.5093 -0.2011
  520MOL0     H70187   5.727   4.795   0.659  0.6597  1.3731  1.2124
  520MOL0     H70188   5.833   4.672   0.547  0.6065  2.6916  0.2756
  520MOL0     H70189   5.898   4.677   0.381  2.1082  0.5878  1.2830
  520MOL0     H70190   5.777   4.485   0.323  1.4586 -2.2375  0.8371
  520MOL0     H70191   5.675   4.482   0.478  0.8667  0.6227  3.4392
  520MOL0     H70192   5.858   4.405   0.606  4.0468 -0.0372  0.3399
  520MOL0     H70193   5.973   4.475   0.490 -0.0957  0.3812  0.0603
  520MOL0     H70194   5.800   4.234   0.436 -0.8785  2.4546 -0.4759
  520MOL0     H70195   5.928   4.303   0.326 -1.2365  0.2960 -0.3360
  520MOL0     H70196   6.174   4.113   0.617 -1.3220 -2.5535  1.8807
  520MOL0     H70197   5.517   4.869   0.294  2.2645  0.3597  0.2920
  520MOL0     H70198   5.227   5.065   0.437 -0.6598  2.0355 -2.3519
  520MOL0     H70199   5.368   5.147   0.348  1.8337 -0.9304 -0.8939
  520MOL0     H70200   5.303   4.989   0.301  1.1338  2.3562 -1.1726
  521MOL0     O70201   7.483   9.973   5.271 -0.0610 -0.4676  0.0457
  521MOL0     C70202   7.603   9.956   5.292 -0.1012  0.0966 -0.1017
  521MOL0     O70203   7.683  10.028   5.371 -0.3866 -0.5438 -0.5538
  521MOL0     C70204   7.629  10.121   5.446 -0.2343 -0.1300  0.5060
  521MOL0     C70205   7.634  10.108   5.589  0.0869  0.2850 -0.3571
  521MOL0     C70206   7.589  10.205   5.682  0.5022 -0.5066 -0.3417
  521MOL0     C70207   7.519  10.313   5.627  0.5228 -0.2408 -0.2378
  521MOL0     O70208   7.464  10.408   5.709 -0.1198 -0.3476 -0.1869
  521MOL0     C70209   7.481  10.546   5.675  0.1273 -0.1540 -0.9536
  521MOL0     C70210   7.448  10.635   5.803 -0.1545 -0.3032 -0.1213
  521MOL0     C70211   7.297  10.649   5.824 -0.9517 -0.5373 -1.2944
  521MOL0     C70212   7.233  10.539   5.922  0.3888 -0.6448 -0.2864
  521MOL0     C70213   7.264  10.573   6.070  1.1053 -0.5538 -0.1610
  521MOL0     C70214   7.137  10.555   6.150  0.0119 -1.0869 -1.0224
  521MOL0     C70215   7.165  10.575   6.303 -0.8425  0.2506 -0.1353
  521MOL0     C70216   7.031  10.568   6.394 -0.6231  0.1076  1.2935
  521MOL0     N70217   7.063  10.572   6.530 -0.4144 -0.0252 -0.7752
  521MOL0     C70218   7.138  10.484   6.597 -0.1907 -0.8121 -1.5854
  521MOL0     C70219   7.148  10.530   6.722 -1.1699  0.1170  0.3363
  521MOL0     C70220   7.230  10.443   6.807  0.4283 -0.6537  0.5643
  521MOL0     C70221   7.366  10.519   6.839 -1.0365  0.8178 -0.3347
  521MOL0     C70222   7.456  10.443   6.937 -0.0191 -0.3654 -1.1690
  521MOL0     C70223   7.517  10.313   6.878 -0.0834 -1.3319  0.0153
  521MOL0     O70224   7.525  10.217   6.990 -0.2981 -0.0160  0.2952
  521MOL0     C70225   7.476  10.093   6.968 -0.5304 -0.4824  0.2130
  521MOL0     C70226   7.356  10.045   7.022  0.6729  0.9502 -0.0976
  521MOL0     C70227   7.315   9.911   6.991 -0.4066  0.0118  0.1414
  521MOL0     C70228   7.396   9.819   6.919 -0.0931 -0.7273  0.2955
  521MOL0     C70229   7.361   9.680   6.900  0.2701  0.2251  0.2223
  521MOL0     O70230   7.281   9.629   7.001  0.0500  0.9178 -0.3371
  521MOL0     C70231   7.248   9.495   6.996  0.2561 -0.2305 -0.3082
  521MOL0     C70232   7.188   9.439   6.886  0.2958 -0.1007 -0.5691
  521MOL0     C70233   7.166   9.299   6.867  0.7295 -0.0329 -1.1658
  521MOL0     C70234   7.190   9.205   6.963  0.3090  0.0741 -0.4318
  521MOL0     O70235   7.166   9.070   6.966  0.6086  0.1705 -0.6997
  521MOL0     C70236   7.150   9.010   6.837 -0.0542 -0.3640 -0.1332
  521MOL0     C70237   7.264   8.998   6.739  0.0065 -0.6067 -0.1328
  521MOL0     C70238   7.370   8.904   6.799  0.1098 -0.2434  0.0352
  521MOL0     C70239   7.492   8.893   6.705  0.3508 -0.3591 -0.4057
  521MOL0     C70240   7.597   8.789   6.745 -0.3499 -0.1798  0.2388
  521MOL0     C70241   7.687   8.768   6.623  0.1921 -0.1949 -0.2472
  521MOL0     C70242   7.790   8.662   6.657 -0.5098  0.2833 -0.7346
  521MOL0     C70243   7.736   8.519   6.683 -0.0060 -1.0993  0.0832
  521MOL0    Cl70244   7.886   8.411   6.679 -0.8769 -0.0141 -0.5194
  521MOL0     C70245   7.245   9.265   7.081 -0.4617 -1.0768  0.2367
  521MOL0     C70246   7.288   9.406   7.089 -0.0888  0.8248  0.5666
  521MOL0     O70247   7.378   9.635   6.786  0.6193  0.3806 -0.4858
  521MOL0     C70248   7.516   9.871   6.868  0.5689 -0.4197  0.4422
  521MOL0     C70249   7.551  10.010   6.876  0.5892  0.7861  0.1618
  521MOL0     N70250   7.082  10.653   6.733  0.2002  0.5696 -0.3546
  521MOL0     N70251   7.022  10.673   6.619 -0.7355 -0.6944  0.0948
  521MOL0     C70252   7.501  10.318   5.488 -0.3481  0.4662  0.0188
  521MOL0     C70253   7.567  10.234   5.399 -0.1469 -0.2556  0.3320
  521MOL0     C70254   7.675   9.848   5.208  0.5001 -0.5661 -0.0924
  521MOL0     C70255   7.804   9.824   5.237 -1.2447  0.6826  0.9112
  521MOL0     C70256   7.891   9.741   5.168  0.5520  1.3471 -1.3316
  521MOL0     C70257   7.836   9.665   5.070 -0.1674 -0.0718  0.0754
  521MOL0     O70258   7.919   9.573   4.997 -0.1409 -0.8303  0.2763
  521MOL0     C70259   7.959   9.456   5.069  1.1309  0.3548 -0.6935
  521MOL0     C70260   7.837   9.356   5.095 -0.0958 -0.9297  0.3148
  521MOL0     C70261   7.885   9.248   5.186 -0.6234  0.1469  0.4600
  521MOL0     C70262   7.805   9.120   5.181  0.0198  0.2610 -0.1197
  521MOL0     C70263   7.813   9.052   5.053  0.8368  0.5180  1.7170
  521MOL0     C70264   7.803   9.006   4.936  0.1732 -0.0050  0.9711
  521MOL0     C70265   7.694   9.678   5.034  0.5511 -0.2218  0.1807
  521MOL0     C70266   7.620   9.781   5.095  0.3558 -0.4860  0.6276
  521MOL0     C70267   7.484   9.818   5.043 -0.7177  0.2385 -0.3035
  521MOL0     H70268   7.684  10.016   5.618 -0.7902 -0.6666 -1.6987
  521MOL0     H70269   7.591  10.193   5.790 -0.0041 -0.0924 -0.2754
  521MOL0     H70270   7.588  10.559   5.659  0.7273  0.3317  2.5628
  521MOL0     H70271   7.414  10.554   5.589 -1.5725 -4.2289 -0.2593
  521MOL0     H70272   7.488  10.735   5.783 -0.0472 -0.6963 -2.1372
  521MOL0     H70273   7.498  10.603   5.895  0.4259  2.1438  0.4942
  521MOL0     H70274   7.263  10.644   5.720  0.4346  2.2611 -2.0012
  521MOL0     H70275   7.277  10.749   5.862 -0.1111 -0.7848 -0.1499
  521MOL0     H70276   7.125  10.546   5.906  0.5401 -0.7478 -1.4971
  521MOL0     H70277   7.268  10.437   5.904  1.7295 -0.1901 -0.3967
  521MOL0     H70278   7.350  10.515   6.105  3.6293  0.4451 -4.0693
  521MOL0     H70279   7.302  10.675   6.078 -1.0235  0.9007 -4.8775
  521MOL0     H70280   7.068  10.637   6.129  0.0217 -0.5239  0.9311
  521MOL0     H70281   7.094  10.455   6.143  0.5835 -1.3923 -0.3797
  521MOL0     H70282   7.205  10.676   6.314 -3.7999  1.5853 -0.9151
  521MOL0     H70283   7.232  10.495   6.337  0.0237  1.8246  2.1078
  521MOL0     H70284   6.970  10.656   6.369  0.7316  1.1481  1.5466
  521MOL0     H70285   6.975  10.475   6.379  2.1214 -1.6034  1.0348
  521MOL0     H70286   7.181  10.387   6.570  3.5200  0.1239  0.2783
  521MOL0     H70287   7.172  10.410   6.894 -1.0233 -1.9755 -0.8305
  521MOL0     H70288   7.255  10.353   6.750 -0.9071 -0.0728 -1.0431
  521MOL0     H70289   7.418  10.552   6.748 -0.6243  1.6268  0.1813
  521MOL0     H70290   7.333  10.610   6.890 -2.1730 -0.0335  0.4991
  521MOL0     H70291   7.387  10.406   7.013 -0.2007  0.3004 -1.0096
  521MOL0     H70292   7.533  10.504   6.984 -2.5989  1.6103  0.8250
  521MOL0     H70293   7.619  10.336   6.847 -1.0336  0.9675 -1.7107
  521MOL0     H70294   7.448  10.267   6.806 -0.8588 -2.5565  1.4794
  521MOL0     H70295   7.294  10.112   7.080 -3.2758 -1.5630 -1.0245
  521MOL0     H70296   7.216   9.877   7.020  0.6764 -2.1643  1.6144
  521MOL0     H70297   7.156   9.520   6.821 -0.1632 -1.0044 -1.4864
  521MOL0     H70298   7.123   9.266   6.773 -3.5124  0.6462  0.3119
  521MOL0     H70299   7.108   8.913   6.863  3.4539 -2.0149 -0.0759
  521MOL0     H70300   7.072   9.068   6.787  0.4121  0.4654  0.0833
  521MOL0     H70301   7.225   8.973   6.640  0.7749 -0.9219 -0.3628
  521MOL0     H70302   7.293   9.103   6.743 -2.3173  0.0559  1.9777
  521MOL0     H70303   7.412   8.965   6.880  0.3380  0.5981 -0.6995
  521MOL0     H70304   7.329   8.805   6.818 -1.5734  0.0458 -1.7610
  521MOL0     H70305   7.540   8.991   6.702 -1.4479  0.5319 -2.5689
  521MOL0     H70306   7.456   8.873   6.604  2.1798  2.5017 -1.7464
  521MOL0     H70307   7.535   8.700   6.756  0.4511 -0.8831 -0.7325
  521MOL0     H70308   7.660   8.794   6.835  0.9323 -2.6349 -0.4135
  521MOL0     H70309   7.626   8.761   6.532 -0.0923 -1.5502  0.0266
  521MOL0     H70310   7.749   8.855   6.596  2.1928 -2.1233 -2.3601
  521MOL0     H70311   7.832   8.681   6.756  0.4255 -0.8750 -0.8868
  521MOL0     H70312   7.868   8.647   6.582  0.9895 -3.8945  1.3529
  521MOL0     H70313   7.679   8.506   6.776 -0.8220 -2.8550 -0.6237
  521MOL0     H70314   7.670   8.495   6.600  1.3134 -0.6230 -1.1337
  521MOL0     H70315   7.272   9.186   7.151 -0.9744 -0.2621  1.3743
  521MOL0     H70316   7.349   9.440   7.172  0.4915  0.0561  0.4591
  521MOL0     H70317   7.582   9.801   6.816 -1.1362 -2.0611  0.3476
  521MOL0     H70318   7.634  10.052   6.820 -1.5969  4.7148 -0.5089
  521MOL0     H70319   7.443  10.395   5.440 -2.1115 -1.3396 -0.8503
  521MOL0     H70320   7.550  10.254   5.294  0.5631  3.8733  0.8177
  521MOL0     H70321   7.857   9.883   5.311  0.7383 -0.4084  0.4489
  521MOL0     H70322   7.989   9.708   5.200 -0.8101  0.2667  2.2152
  521MOL0     H70323   8.016   9.473   5.161  0.7113 -2.0597  0.1065
  521MOL0     H70324   8.034   9.404   5.008 -0.9286 -3.4597 -0.3291
  521MOL0     H70325   7.813   9.319   4.995 -0.6580  1.5714 -0.5393
  521MOL0     H70326   7.744   9.403   5.128 -0.1253 -1.7068  1.4096
  521MOL0     H70327   7.895   9.282   5.290 -0.0122 -1.0868  0.8301
  521MOL0     H70328   7.984   9.215   5.153 -1.3856 -0.6295 -1.1322
  521MOL0     H70329   7.841   9.051   5.258 -4.8603  0.6814  2.9712
  521MOL0     H70330   7.698   9.142   5.191  0.0444  0.4760 -0.3446
  521MOL0     H70331   7.815   8.981   4.833  0.2728 -0.8782  1.1909
  521MOL0     H70332   7.655   9.620   4.951 -2.8379  3.2345 -0.8873
  521MOL0     H70333   7.401   9.794   5.110 -1.0427  1.3857 -0.2682
  521MOL0     H70334   7.478   9.922   5.009  2.7255  0.3103 -1.0735
  521MOL0     H70335   7.462   9.771   4.946 -0.6371 -0.6024  0.0761
  522MOL0     O70336   6.429   4.947   8.333 -0.7844  0.0953 -0.6100
  522MOL0     C70337   6.398   4.837   8.281  0.0541 -0.6283 -0.6084
  522MOL0     O70338   6.485   4.765   8.208  0.8395  0.0175 -0.0297
  522MOL0     C70339   6.616   4.800   8.201  0.2034 -1.0163 -0.4024
  522MOL0     C70340   6.662   4.886   8.096  0.4242 -0.6354 -0.1175
  522MOL0     C70341   6.797   4.918   8.089 -1.1944 -1.2617 -0.1662
  522MOL0     C70342   6.892   4.873   8.179 -0.4278  0.7360 -0.1007
  522MOL0     O70343   7.032   4.887   8.147 -0.1608  0.0619 -0.7259
  522MOL0     C70344   7.137   4.814   8.220  0.8257 -0.1496 -1.1262
  522MOL0     C70345   7.267   4.817   8.146 -0.5416  0.1270  0.0995
  522MOL0     C70346   7.247   4.722   8.016  0.3816 -0.2788  0.3104
  522MOL0     C70347   7.377   4.658   7.986  0.1696 -0.2874  0.0173
  522MOL0     C70348   7.361   4.558   7.873  0.0830 -0.0091 -0.3154
  522MOL0     C70349   7.489   4.500   7.811 -0.5745 -0.2864 -0.2443
  522MOL0     C70350   7.448   4.403   7.703  0.0791  0.3594  0.2586
  522MOL0     C70351   7.567   4.322   7.653 -0.5436 -0.3807  0.8855
  522MOL0     N70352   7.603   4.193   7.718 -0.3237 -0.0784  0.4600
  522MOL0     C70353   7.521   4.095   7.755 -0.4989 -0.7836 -0.1693
  522MOL0     C70354   7.603   4.014   7.832  0.8205 -0.5238  0.0982
  522MOL0     C70355   7.558   3.892   7.902 -0.9452  0.0495  0.3092
  522MOL0     C70356   7.502   3.907   8.041  0.3533 -0.0743 -0.0920
  522MOL0     C70357   7.579   3.999   8.141  0.6494 -0.2349 -0.2694
  522MOL0     C70358   7.715   3.949   8.178  0.1187 -0.0446 -0.6722
  522MOL0     O70359   7.727   3.810   8.205  0.7736  0.8649  0.2260
  522MOL0     C70360   7.822   3.722   8.154  0.8247 -0.9076 -0.6989
  522MOL0     C70361   7.930   3.762   8.069  0.3346  1.1660  0.2353
  522MOL0     C70362   7.986   3.658   7.996  0.5417 -0.0139 -0.6321
  522MOL0     C70363   7.954   3.524   8.000 -0.2815 -0.6264 -0.1062
  522MOL0     C70364   8.030   3.424   7.916  0.2025  0.5144 -0.1028
  522MOL0     O70365   7.964   3.305   7.890 -0.6403 -0.4483 -0.0487
  522MOL0     C70366   8.031   3.191   7.888 -0.8769 -0.5053  0.6443
  522MOL0     C70367   8.153   3.172   7.947 -0.0183 -0.9459 -1.2226
  522MOL0     C70368   8.224   3.053   7.929 -0.4427 -0.8457 -1.3353
  522MOL0     C70369   8.160   2.943   7.866 -0.7381  0.6050  0.3765
  522MOL0     O70370   8.198   2.815   7.871 -0.3899 -0.4260  0.1179
  522MOL0     C70371   8.326   2.785   7.927 -0.5252 -0.7829 -0.2734
  522MOL0     C70372   8.336   2.632   7.921 -0.0222 -1.1126 -0.2947
  522MOL0     C70373   8.288   2.574   8.047 -0.1386  0.7046 -0.9306
  522MOL0     C70374   8.268   2.412   8.054 -0.3430 -0.2344 -1.2293
  522MOL0     C70375   8.138   2.373   7.985  0.4332  0.2792 -0.4121
  522MOL0     C70376   8.127   2.227   7.971  0.4552 -0.1962  0.4104
  522MOL0     C70377   7.982   2.204   7.931  0.4405 -0.2852 -0.9838
  522MOL0     C70378   7.936   2.073   7.988 -0.0897 -0.2591  0.3542
  522MOL0    Cl70379   8.023   1.944   7.891  0.3475  0.1266 -0.4824
  522MOL0     C70380   8.039   2.964   7.806 -0.8340 -1.1235  0.6710
  522MOL0     C70381   7.982   3.087   7.816  0.3863 -0.4638 -0.2715
  522MOL0     O70382   8.148   3.447   7.871  0.6261 -0.0759  0.4186
  522MOL0     C70383   7.859   3.484   8.091  0.8730 -0.0932 -0.0609
  522MOL0     C70384   7.782   3.590   8.159  0.4761  0.4599  0.1924
  522MOL0     N70385   7.730   4.065   7.822  0.5521 -0.2160 -0.0385
  522MOL0     N70386   7.735   4.170   7.746 -0.3693 -0.8789 -0.1239
  522MOL0     C70387   6.850   4.783   8.286 -0.5780  0.0384 -0.2880
  522MOL0     C70388   6.715   4.743   8.291 -0.2588 -0.9701 -0.2888
  522MOL0     C70389   6.264   4.781   8.289 -0.4684 -0.6667  0.1519
  522MOL0     C70390   6.155   4.839   8.230 -0.8483 -0.7904  0.7061
  522MOL0     C70391   6.027   4.777   8.223  0.8417  0.3549  0.5580
  522MOL0     C70392   6.013   4.649   8.275  0.9977  1.8531 -0.3361
  522MOL0     O70393   5.894   4.574   8.278  0.0585  0.7616  0.2932
  522MOL0     C70394   5.780   4.650   8.320 -0.8192  1.1837  0.7770
  522MOL0     C70395   5.684   4.547   8.379  0.0861  1.2206 -1.1525
  522MOL0     C70396   5.749   4.472   8.504 -0.4128 -0.8327  0.2069
  522MOL0     C70397   5.835   4.554   8.601  0.8617 -0.1405 -0.9781
  522MOL0     C70398   5.885   4.468   8.710  0.1796 -0.3433 -0.4831
  522MOL0     C70399   5.923   4.405   8.803 -0.3402 -0.2215  0.5815
  522MOL0     C70400   6.116   4.588   8.349 -0.8387 -0.9481 -0.0574
  522MOL0     C70401   6.242   4.659   8.354  0.7733 -0.0943  0.4446
  522MOL0     C70402   6.356   4.589   8.427  1.0269 -0.3002 -0.7175
  522MOL0     H70403   6.600   4.927   8.017  3.0716  2.2037 -0.8737
  522MOL0     H70404   6.824   4.982   8.006  1.0769 -1.9042 -0.0093
  522MOL0     H70405   7.150   4.868   8.315 -0.1855  2.4726 -2.3922
  522MOL0     H70406   7.124   4.706   8.228  3.6080 -1.0589 -5.4509
  522MOL0     H70407   7.353   4.798   8.210  1.1357  3.7277 -0.8440
  522MOL0     H70408   7.273   4.919   8.108 -0.6023  0.5104  1.1010
  522MOL0     H70409   7.222   4.790   7.933  0.5077  0.1650  0.6325
  522MOL0     H70410   7.174   4.643   8.034  2.3393 -2.1095  0.6697
  522MOL0     H70411   7.445   4.739   7.960  0.2113 -0.1756  0.4606
  522MOL0     H70412   7.411   4.616   8.082 -0.4012 -1.1434 -0.1370
  522MOL0     H70413   7.311   4.468   7.909 -1.3395 -0.3308 -2.8471
  522MOL0     H70414   7.288   4.588   7.796 -0.2264  1.0014  0.3480
  522MOL0     H70415   7.545   4.584   7.768 -0.7148 -1.0272 -1.9475
  522MOL0     H70416   7.559   4.450   7.878  1.1079  1.5971 -0.4836
  522MOL0     H70417   7.416   4.461   7.616  3.3144  0.3027 -1.1368
  522MOL0     H70418   7.370   4.330   7.727 -1.4427  1.1612 -1.9295
  522MOL0     H70419   7.553   4.297   7.547  5.3871 -0.2645 -0.2499
  522MOL0     H70420   7.660   4.379   7.657  0.0238 -1.1616 -0.6595
  522MOL0     H70421   7.415   4.074   7.740 -0.5823 -0.6070  0.1440
  522MOL0     H70422   7.487   3.838   7.840 -0.6615  1.4704 -1.3444
  522MOL0     H70423   7.652   3.837   7.910 -1.4904 -0.7058  1.7855
  522MOL0     H70424   7.394   3.921   8.034  0.0378 -1.0654  1.9856
  522MOL0     H70425   7.510   3.814   8.098  0.3374  0.5833  1.0085
  522MOL0     H70426   7.533   4.009   8.240  1.6756 -0.6572  0.2735
  522MOL0     H70427   7.581   4.100   8.099 -1.0700  0.3199  0.8748
  522MOL0     H70428   7.731   3.998   8.275  3.4507  1.1464 -1.6776
  522MOL0     H70429   7.795   3.977   8.109  1.4319 -3.2490 -0.6262
  522MOL0     H70430   7.956   3.866   8.054  1.6810  0.7290 -0.5937
  522MOL0     H70431   8.064   3.696   7.930  3.7340 -2.5709  1.3366
  522MOL0     H70432   8.184   3.253   8.012 -2.5392  1.0546 -2.3734
  522MOL0     H70433   8.326   3.049   7.965 -0.7908 -1.9085 -0.4148
  522MOL0     H70434   8.405   2.830   7.867  0.7654 -1.7039  0.6745
  522MOL0     H70435   8.350   2.811   8.031 -1.2428  2.0620 -0.7368
  522MOL0     H70436   8.276   2.607   7.833 -2.7766  1.9872  0.5066
  522MOL0     H70437   8.439   2.597   7.906  0.3948 -0.1563  0.2433
  522MOL0     H70438   8.349   2.626   8.122  0.0042  2.4311 -2.1919
  522MOL0     H70439   8.188   2.614   8.067 -0.5862 -0.0984 -1.4925
  522MOL0     H70440   8.249   2.371   8.153 -0.7527  1.4734 -0.5662
  522MOL0     H70441   8.355   2.362   8.011  0.0326 -3.3572  2.5978
  522MOL0     H70442   8.119   2.426   7.891 -0.8620  1.8054  0.6514
  522MOL0     H70443   8.052   2.410   8.041 -1.0103 -1.8135 -1.1110
  522MOL0     H70444   8.192   2.190   7.892 -0.6416  0.8656 -1.0544
  522MOL0     H70445   8.152   2.176   8.065 -3.0619  0.8203  2.0973
  522MOL0     H70446   7.949   2.207   7.827 -2.9495  1.7227  0.0128
  522MOL0     H70447   7.921   2.284   7.973  0.9108 -1.9923  3.4796
  522MOL0     H70448   7.951   2.054   8.095  0.4374 -3.6883 -0.1928
  522MOL0     H70449   7.828   2.078   7.977 -0.1075 -0.3993  0.4528
  522MOL0     H70450   7.994   2.890   7.740 -1.4455 -0.2157  0.0488
  522MOL0     H70451   7.889   3.101   7.763 -1.0305 -0.6543  2.0457
  522MOL0     H70452   7.831   3.380   8.103  0.4990  0.0310  0.1748
  522MOL0     H70453   7.691   3.567   8.214 -0.5110  2.9179 -0.2867
  522MOL0     H70454   6.917   4.746   8.363 -1.2609 -1.5885 -0.4464
  522MOL0     H70455   6.685   4.669   8.364  1.5320 -1.1294  0.3357
  522MOL0     H70456   6.164   4.941   8.197 -1.9315 -1.7108 -2.8240
  522MOL0     H70457   5.932   4.822   8.195 -0.1618 -1.9967 -0.0007
  522MOL0     H70458   5.748   4.701   8.228  0.2604  3.2065  1.4526
  522MOL0     H70459   5.792   4.730   8.395  0.5327  0.8140  0.9646
  522MOL0     H70460   5.654   4.476   8.302  1.9446  1.2635 -1.9503
  522MOL0     H70461   5.588   4.586   8.415  0.0133  1.5722 -1.7197
  522MOL0     H70462   5.816   4.395   8.465 -0.0617 -0.7310  0.6002
  522MOL0     H70463   5.659   4.442   8.559  0.0866  2.1201  2.9118
  522MOL0     H70464   5.923   4.596   8.550 -0.7900  0.6875 -3.2933
  522MOL0     H70465   5.771   4.635   8.636 -2.4832 -1.3195 -3.8522
  522MOL0     H70466   5.958   4.339   8.879 -1.8340  1.3001  2.7073
  522MOL0     H70467   6.104   4.490   8.395  2.5608 -1.9435 -0.9389
  522MOL0     H70468   6.308   4.509   8.486 -1.5257  1.8238  0.2901
  522MOL0     H70469   6.422   4.539   8.355  1.3381 -2.5622  0.9976
  522MOL0     H70470   6.423   4.643   8.494  1.6548 -0.3581 -1.2874
  523MOL0     O70471   3.780   4.726   4.380  0.7833 -0.2419  0.6101
  523MOL0     C70472   3.779   4.730   4.505 -0.5249 -0.7852  0.1226
  523MOL0     O70473   3.660   4.734   4.578 -0.0498  0.0168 -0.2055
  523MOL0     C70474   3.554   4.782   4.514 -0.7094 -0.3386 -0.0198
  523MOL0     C70475   3.498   4.705   4.402 -0.5103 -0.1369 -0.6142
  523MOL0     C70476   3.384   4.748   4.339 -0.2005  0.1780  0.8042
  523MOL0     C70477   3.319   4.865   4.383  0.7033  0.5866 -0.1308
  523MOL0     O70478   3.197   4.901   4.327  0.0310 -0.1797  0.4908
  523MOL0     C70479   3.092   4.801   4.332 -0.6133 -0.7261 -0.6805
  523MOL0     C70480   2.959   4.872   4.355 -0.0805 -0.6724  0.0036
  523MOL0     C70481   2.958   4.927   4.504 -0.9105 -0.5748  0.0739
  523MOL0     C70482   2.822   4.942   4.563  0.9877  0.1786  0.0713
  523MOL0     C70483   2.807   4.977   4.715  0.4178  0.5068 -0.3423
  523MOL0     C70484   2.847   5.129   4.736  0.5245  0.8841 -0.4100
  523MOL0     C70485   2.862   5.163   4.884  0.1047  0.4603 -0.0766
  523MOL0     C70486   2.958   5.067   4.954  0.5478  0.1635  0.1041
  523MOL0     N70487   3.087   5.065   4.894 -0.5321 -0.3915 -0.5649
  523MOL0     C70488   3.179   5.166   4.900 -0.9295 -0.7326  0.6625
  523MOL0     C70489   3.295   5.114   4.831 -1.2584  0.5688  0.0944
  523MOL0     C70490   3.435   5.176   4.827  0.6514 -0.4846 -1.2196
  523MOL0     C70491   3.555   5.075   4.860  0.1980  0.6182  0.3002
  523MOL0     C70492   3.627   5.102   4.991 -0.6520 -0.7305  0.0420
  523MOL0     C70493   3.541   5.080   5.119  0.1687 -0.0121  1.0303
  523MOL0     O70494   3.521   4.946   5.144  0.9633 -0.0914  0.5035
  523MOL0     C70495   3.405   4.929   5.214  0.0654 -0.0935 -0.0543
  523MOL0     C70496   3.416   4.959   5.350  0.6465  0.0293 -0.2408
  523MOL0     C70497   3.310   4.944   5.437 -0.4059 -0.1147 -0.3625
  523MOL0     C70498   3.187   4.902   5.385 -0.6458  0.5414 -0.6978
  523MOL0     C70499   3.077   4.876   5.478 -0.1868  0.2805 -0.1068
  523MOL0     O70500   3.098   4.919   5.609 -0.2841 -0.4790 -0.1981
  523MOL0     C70501   2.995   4.926   5.692 -0.0889 -0.5772 -0.3013
  523MOL0     C70502   2.884   5.006   5.660 -0.3286  0.1533  0.3989
  523MOL0     C70503   2.770   5.008   5.742 -0.5079 -0.4175  0.3357
  523MOL0     C70504   2.781   4.961   5.876 -0.4086  0.3380  0.4853
  523MOL0     O70505   2.695   5.004   5.966  0.3050 -0.4535  0.0948
  523MOL0     C70506   2.699   5.145   5.999 -0.0014  0.0380 -0.3661
  523MOL0     C70507   2.578   5.185   6.083 -0.6068  0.4248 -0.0854
  523MOL0     C70508   2.440   5.165   6.012  0.2873  0.0443 -0.4857
  523MOL0     C70509   2.324   5.226   6.102  0.0645  0.5271 -0.3773
  523MOL0     C70510   2.200   5.170   6.039  0.3960  0.9979  0.5105
  523MOL0     C70511   2.075   5.257   6.049  0.5847  0.7419  0.8063
  523MOL0     C70512   1.957   5.200   5.984  0.2753  0.3024  0.7223
  523MOL0     C70513   1.951   5.226   5.834 -0.2530  1.1445 -0.5546
  523MOL0    Cl70514   1.800   5.167   5.751  0.0717 -0.4480  0.0497
  523MOL0     C70515   2.894   4.877   5.904  0.7525 -0.8593  0.1050
  523MOL0     C70516   3.000   4.857   5.813  0.2150 -1.2133 -0.0244
  523MOL0     O70517   2.984   4.804   5.440 -1.0549  0.2353  0.0419
  523MOL0     C70518   3.173   4.885   5.252  0.8191  1.2766  0.0811
  523MOL0     C70519   3.285   4.886   5.165 -0.4369  0.5075  0.2488
  523MOL0     N70520   3.263   4.981   4.789 -0.3738 -0.7336  0.9523
  523MOL0     N70521   3.145   4.960   4.826 -0.2970 -0.7382 -0.6717
  523MOL0     C70522   3.371   4.943   4.477 -0.4916  0.5359 -0.1885
  523MOL0     C70523   3.489   4.901   4.541 -0.4510  0.4627 -0.0936
  523MOL0     C70524   3.916   4.708   4.567  0.3530  0.3269 -0.2901
  523MOL0     C70525   3.915   4.691   4.701 -0.0870  0.5473  0.5519
  523MOL0     C70526   4.029   4.660   4.771  0.2141 -0.0597 -0.7925
  523MOL0     C70527   4.153   4.662   4.708 -0.3507  0.1734  0.7108
  523MOL0     O70528   4.266   4.613   4.773 -0.2428 -0.1710  0.2221
  523MOL0     C70529   4.365   4.729   4.789 -0.0728  0.8678 -0.0791
  523MOL0     C70530   4.308   4.838   4.885 -0.3104 -0.8031 -0.5316
  523MOL0     C70531   4.288   4.795   5.031 -0.4854 -0.4002  0.2007
  523MOL0     C70532   4.243   4.919   5.106  0.6823  0.1490  0.5252
  523MOL0     C70533   4.209   4.881   5.240 -0.4717 -0.4609 -0.3878
  523MOL0     C70534   4.167   4.850   5.348 -0.0953  0.8563 -0.7699
  523MOL0     C70535   4.159   4.685   4.570 -0.6074  0.8104  0.0534
  523MOL0     C70536   4.046   4.708   4.498 -0.6453  0.8021  0.7885
  523MOL0     C70537   4.062   4.737   4.356 -0.3050  0.8677  1.5133
  523MOL0     H70538   3.558   4.620   4.369  0.8142  0.4022  0.3154
  523MOL0     H70539   3.326   4.687   4.271 -0.2537  1.3556 -0.2452
  523MOL0     H70540   3.084   4.736   4.244 -0.9761 -2.9515  0.8970
  523MOL0     H70541   3.116   4.736   4.417 -1.2001  2.4012  2.0745
  523MOL0     H70542   2.867   4.815   4.338 -0.7237  1.0141 -2.8749
  523MOL0     H70543   2.954   4.956   4.285 -1.7043 -0.1750  0.6633
  523MOL0     H70544   3.020   5.016   4.515 -0.6626 -0.5121 -1.6024
  523MOL0     H70545   3.003   4.852   4.570  1.5163  1.3388  0.7543
  523MOL0     H70546   2.761   5.016   4.509 -0.0995  0.4705  1.6356
  523MOL0     H70547   2.765   4.849   4.553  0.1716  0.5977  0.6813
  523MOL0     H70548   2.703   4.972   4.747  0.4219  1.5421 -0.1291
  523MOL0     H70549   2.853   4.916   4.794 -1.5674  1.0177  1.2772
  523MOL0     H70550   2.947   5.147   4.694  0.1019  1.8303 -1.0463
  523MOL0     H70551   2.772   5.195   4.691  0.5047 -0.2477 -2.1797
  523MOL0     H70552   2.762   5.166   4.929  0.1631  1.4918  0.0070
  523MOL0     H70553   2.912   5.259   4.900  0.5827  0.5356 -1.8183
  523MOL0     H70554   2.969   5.097   5.059  2.5353 -4.4793  1.4995
  523MOL0     H70555   2.918   4.966   4.968 -0.3755  0.2936 -1.3823
  523MOL0     H70556   3.165   5.261   4.951 -1.3019 -0.2001 -0.3849
  523MOL0     H70557   3.451   5.227   4.732  0.0720 -1.9721 -2.1515
  523MOL0     H70558   3.444   5.249   4.908  0.0816 -3.2880  1.5427
  523MOL0     H70559   3.530   4.969   4.867  3.1249 -0.2693 -1.1455
  523MOL0     H70560   3.622   5.089   4.775 -0.0388  3.7650  0.5256
  523MOL0     H70561   3.663   5.205   4.979  0.8530 -1.2191  0.1837
  523MOL0     H70562   3.716   5.041   5.007  1.3052  1.1776 -2.6624
  523MOL0     H70563   3.447   5.135   5.107 -0.0094 -0.2749  1.2183
  523MOL0     H70564   3.597   5.111   5.208  0.8874 -2.0707  1.3538
  523MOL0     H70565   3.513   4.987   5.390 -0.4248  3.1583  0.4707
  523MOL0     H70566   3.331   4.942   5.543  1.0762 -1.7954 -0.6500
  523MOL0     H70567   2.865   5.064   5.570 -3.6154  1.4234  1.7445
  523MOL0     H70568   2.678   5.051   5.705 -1.2695 -2.2720 -0.0371
  523MOL0     H70569   2.783   5.169   6.065 -0.5120  0.7965  0.0314
  523MOL0     H70570   2.718   5.202   5.907  1.9635 -1.5616 -1.0172
  523MOL0     H70571   2.575   5.133   6.180 -3.0014 -1.0947 -0.8811
  523MOL0     H70572   2.602   5.290   6.101  3.5343 -0.1672 -1.0710
  523MOL0     H70573   2.445   5.206   5.911 -3.8400  1.7526 -0.2002
  523MOL0     H70574   2.420   5.057   6.010 -2.2501  0.3831  1.0491
  523MOL0     H70575   2.332   5.335   6.097  0.8801  0.5534  0.9668
  523MOL0     H70576   2.326   5.196   6.207  0.5563 -2.8995 -1.2373
  523MOL0     H70577   2.186   5.068   6.075 -0.6486  1.2852  0.9413
  523MOL0     H70578   2.229   5.168   5.933 -0.3998  0.9596  0.2859
  523MOL0     H70579   2.052   5.278   6.154 -0.2401 -2.1552  1.2836
  523MOL0     H70580   2.104   5.353   6.005 -0.8006  0.5141 -0.7154
  523MOL0     H70581   1.878   5.261   6.028 -0.2571 -0.6082  1.0599
  523MOL0     H70582   1.949   5.095   6.015 -2.9866  0.4923  0.8225
  523MOL0     H70583   1.943   5.335   5.822  0.0809  1.5891  2.4696
  523MOL0     H70584   2.038   5.186   5.781  0.7383  2.2912  0.1470
  523MOL0     H70585   2.904   4.841   6.006  0.5615  1.1087  0.8764
  523MOL0     H70586   3.092   4.801   5.821  2.7118  1.8953 -3.5710
  523MOL0     H70587   3.072   4.881   5.213 -0.4836  0.6116  3.1867
  523MOL0     H70588   3.271   4.855   5.062 -2.5169 -1.6554  1.0896
  523MOL0     H70589   3.322   5.037   4.505  0.4152  0.6563  1.0787
  523MOL0     H70590   3.538   4.979   4.598 -3.8778  1.9978  1.0005
  523MOL0     H70591   3.832   4.698   4.770  0.4578  2.8315  1.0736
  523MOL0     H70592   4.013   4.640   4.877 -0.7661  0.0380 -0.9155
  523MOL0     H70593   4.391   4.775   4.693  1.9714 -0.3798 -0.1884
  523MOL0     H70594   4.458   4.685   4.826  2.0995  3.0175 -2.5372
  523MOL0     H70595   4.209   4.865   4.847 -0.8366  1.6448  2.1636
  523MOL0     H70596   4.366   4.930   4.877 -1.5892 -0.0581 -1.6763
  523MOL0     H70597   4.385   4.759   5.067  2.3894  1.0965 -4.9800
  523MOL0     H70598   4.220   4.711   5.018  0.1061 -0.7022 -1.1632
  523MOL0     H70599   4.321   4.995   5.100 -1.0276  1.9444  0.1859
  523MOL0     H70600   4.157   4.963   5.056 -0.2650 -0.9042  1.1703
  523MOL0     H70601   4.142   4.830   5.450  1.0694  1.5844 -0.3131
  523MOL0     H70602   4.257   4.682   4.524  0.7827  0.8853  2.8347
  523MOL0     H70603   4.000   4.821   4.324  0.4803  1.4125  1.3881
  523MOL0     H70604   4.163   4.765   4.324 -1.1863 -1.6764 -5.0793
  523MOL0     H70605   4.020   4.653   4.300 -1.0960  0.8057  2.1775
  524MOL0     O70606  11.253   2.944   4.755 -0.0005 -0.4716 -0.3187
  524MOL0     C70607  11.339   2.968   4.671 -0.6646 -0.7465 -0.7709
  524MOL0     O70608  11.317   3.033   4.552 -0.4078 -0.3484  0.3333
  524MOL0     C70609  11.210   3.115   4.547  0.8997  0.3839  0.6895
  524MOL0     C70610  11.218   3.242   4.603 -0.4184  0.1784 -0.3765
  524MOL0     C70611  11.115   3.333   4.597  0.5180  0.5068 -0.1558
  524MOL0     C70612  10.994   3.290   4.535 -0.0286 -0.5269  0.1466
  524MOL0     O70613  10.877   3.358   4.560  0.3162  0.3214  0.2774
  524MOL0     C70614  10.751   3.295   4.583 -0.3953  0.5377  0.7433
  524MOL0     C70615  10.731   3.215   4.708 -0.2450  0.4259 -0.7849
  524MOL0     C70616  10.781   3.295   4.830  0.8116  0.2403  1.0446
  524MOL0     C70617  10.818   3.214   4.962 -0.8377  0.2347  0.6055
  524MOL0     C70618  10.963   3.175   4.958  0.2214 -0.8438  0.0715
  524MOL0     C70619  11.004   3.106   5.082 -0.8141  0.6001 -0.3334
  524MOL0     C70620  11.151   3.055   5.079 -0.3575  0.3217 -0.0392
  524MOL0     C70621  11.254   3.175   5.080  1.0232  0.4713 -0.5249
  524MOL0     N70622  11.386   3.120   5.125  0.5108 -0.4950 -0.5351
  524MOL0     C70623  11.481   3.060   5.040  0.7044 -0.2566 -0.1397
  524MOL0     C70624  11.587   3.015   5.118  0.4001  1.0277 -0.9141
  524MOL0     C70625  11.717   2.948   5.085 -0.7409 -0.6061 -0.1102
  524MOL0     C70626  11.818   3.058   5.027 -0.3633 -0.4405 -0.1253
  524MOL0     C70627  11.952   2.985   4.993 -0.3428  1.0131  0.3659
  524MOL0     C70628  12.058   3.057   4.920 -0.2454  1.1080  0.1298
  524MOL0     O70629  12.025   3.067   4.780  0.1099  0.5286 -0.3332
  524MOL0     C70630  11.998   3.184   4.718  0.2655  0.2822 -1.4690
  524MOL0     C70631  12.006   3.319   4.768 -0.4902  0.2759 -0.0108
  524MOL0     C70632  11.965   3.428   4.695 -0.2373 -0.4075 -0.6235
  524MOL0     C70633  11.916   3.411   4.561  0.0480  1.5680  0.1951
  524MOL0     C70634  11.870   3.524   4.479 -0.3611 -0.2766 -0.6164
  524MOL0     O70635  11.879   3.509   4.348  0.4550 -0.3720 -1.0601
  524MOL0     C70636  11.858   3.617   4.272 -0.6651 -0.0275  0.2680
  524MOL0     C70637  11.797   3.607   4.148 -0.3267  1.0202 -0.1027
  524MOL0     C70638  11.788   3.705   4.052  0.6471 -0.6830 -0.2555
  524MOL0     C70639  11.855   3.828   4.077  0.3537 -0.7276  0.4420
  524MOL0     O70640  11.851   3.931   3.992  0.6340 -0.3737 -0.1750
  524MOL0     C70641  11.733   3.935   3.908 -0.5148  0.1115 -0.9340
  524MOL0     C70642  11.745   4.064   3.831 -0.0034  0.4401  0.9035
  524MOL0     C70643  11.875   4.064   3.745  0.1665 -0.1595  0.6246
  524MOL0     C70644  11.863   3.980   3.613 -0.5629 -0.2473 -0.6115
  524MOL0     C70645  12.005   3.957   3.555 -0.0700 -0.5992 -0.3325
  524MOL0     C70646  12.023   3.842   3.454 -0.7789  0.3816 -0.2810
  524MOL0     C70647  12.154   3.871   3.393  0.3151  0.2381  0.5645
  524MOL0     C70648  12.195   3.779   3.282  0.0759  0.2670  0.3528
  524MOL0    Cl70649  12.364   3.827   3.231 -0.3162 -0.3187 -0.1186
  524MOL0     C70650  11.920   3.843   4.203  0.4903 -0.0224 -0.9073
  524MOL0     C70651  11.917   3.747   4.293 -1.0367  0.5028  0.0981
  524MOL0     O70652  11.826   3.628   4.535 -0.1974 -0.4628 -0.7557
  524MOL0     C70653  11.903   3.279   4.516 -0.3217 -1.0779  0.5446
  524MOL0     C70654  11.946   3.167   4.588  0.6077  0.4581 -0.0774
  524MOL0     N70655  11.557   3.070   5.247  1.2981 -0.8051  0.0083
  524MOL0     N70656  11.440   3.129   5.250 -0.6779 -0.7049  0.5767
  524MOL0     C70657  10.979   3.166   4.485  0.4757  0.3963  0.1673
  524MOL0     C70658  11.079   3.073   4.490 -0.9803 -0.1596  0.2701
  524MOL0     C70659  11.460   2.899   4.678  0.1873  0.2895  0.5614
  524MOL0     C70660  11.450   2.763   4.704 -0.2799  0.4359  0.3345
  524MOL0     C70661  11.569   2.684   4.694 -0.2087  0.9089  0.9145
  524MOL0     C70662  11.690   2.743   4.666 -0.4327  0.5455 -0.5506
  524MOL0     O70663  11.803   2.677   4.659 -1.1108  0.0641  0.3128
  524MOL0     C70664  11.807   2.538   4.703 -0.1535 -0.2407  0.0836
  524MOL0     C70665  11.952   2.495   4.735 -0.0111 -0.1605 -0.5604
  524MOL0     C70666  12.048   2.470   4.619  0.3692  0.2786  0.5266
  524MOL0     C70667  12.168   2.388   4.648 -1.2504 -0.6437 -0.0031
  524MOL0     C70668  12.272   2.396   4.548  0.3928 -0.6757  0.8328
  524MOL0     C70669  12.357   2.411   4.465  0.1901 -0.2144 -0.0792
  524MOL0     C70670  11.692   2.876   4.652  0.4107 -0.3463 -0.3512
  524MOL0     C70671  11.581   2.957   4.642  0.4255 -0.9718 -0.4348
  524MOL0     C70672  11.597   3.104   4.606 -0.5221 -0.4087 -0.2365
  524MOL0     H70673  11.319   3.248   4.643 -0.2307 -2.4492 -0.2333
  524MOL0     H70674  11.127   3.434   4.633 -0.4702  1.9900 -3.6194
  524MOL0     H70675  10.674   3.373   4.586  0.0205  0.9243  1.6116
  524MOL0     H70676  10.715   3.241   4.495 -3.5228  0.9405  1.6414
  524MOL0     H70677  10.780   3.118   4.709  0.4504  0.7725  0.0617
  524MOL0     H70678  10.624   3.193   4.717 -0.7875  0.5799 -4.9557
  524MOL0     H70679  10.700   3.364   4.854 -0.2720 -1.0485  1.2320
  524MOL0     H70680  10.870   3.356   4.810  0.1615  2.2815  3.7792
  524MOL0     H70681  10.805   3.277   5.050  3.6087  2.7818 -0.2665
  524MOL0     H70682  10.745   3.133   4.971  0.7167 -1.5089 -1.3832
  524MOL0     H70683  10.981   3.108   4.873 -3.0145  0.6951 -2.0335
  524MOL0     H70684  11.018   3.269   4.951 -1.6212  0.5095  2.3039
  524MOL0     H70685  10.994   3.173   5.167 -2.2109  1.9169 -1.4683
  524MOL0     H70686  10.955   3.010   5.102  1.8575 -0.6550  0.6847
  524MOL0     H70687  11.168   3.001   4.985  0.8065 -0.3601  0.5389
  524MOL0     H70688  11.182   2.982   5.154  2.9548  1.4875 -0.1293
  524MOL0     H70689  11.272   3.219   4.981 -1.9307  2.4203 -0.3325
  524MOL0     H70690  11.206   3.234   5.159 -0.2039 -2.6473  1.2228
  524MOL0     H70691  11.455   3.048   4.935  1.7728  1.1730 -0.6130
  524MOL0     H70692  11.758   2.895   5.171  0.7988  0.4264 -0.1836
  524MOL0     H70693  11.688   2.873   5.010  0.9984 -1.8814  0.4117
  524MOL0     H70694  11.775   3.112   4.943  1.0210  0.8504 -0.0490
  524MOL0     H70695  11.837   3.129   5.108  2.3839 -1.2498  0.0522
  524MOL0     H70696  11.934   2.897   4.930  0.9521  1.9494 -1.3943
  524MOL0     H70697  11.983   2.938   5.087 -0.4483  0.1330 -0.0284
  524MOL0     H70698  12.151   3.000   4.913 -1.6624 -1.3334  0.0703
  524MOL0     H70699  12.078   3.151   4.972 -0.5240  0.1082  2.1061
  524MOL0     H70700  12.044   3.334   4.868 -0.7428 -1.5564  0.3973
  524MOL0     H70701  11.964   3.524   4.746 -2.5340 -0.7302  0.0821
  524MOL0     H70702  11.744   3.515   4.128  0.0779 -0.3675  4.1176
  524MOL0     H70703  11.725   3.679   3.967 -0.5829  0.0447  0.4101
  524MOL0     H70704  11.738   3.847   3.844  0.4577 -0.1075 -0.5679
  524MOL0     H70705  11.644   3.931   3.971  1.6686  0.7402  2.4602
  524MOL0     H70706  11.676   4.067   3.747 -1.0318 -4.0181  1.3524
  524MOL0     H70707  11.733   4.158   3.885  1.0681  0.7167  0.6834
  524MOL0     H70708  11.905   4.168   3.728 -0.3309 -0.2375 -0.8453
  524MOL0     H70709  11.958   4.014   3.794  0.3331  0.7321  1.2867
  524MOL0     H70710  11.803   4.035   3.539  0.4830 -0.5727 -1.7407
  524MOL0     H70711  11.801   3.892   3.635 -0.3607  0.0782  1.3556
  524MOL0     H70712  12.070   3.929   3.637 -0.8750  3.7060  2.1112
  524MOL0     H70713  12.035   4.055   3.516 -3.5157 -1.1506 -5.4564
  524MOL0     H70714  12.043   3.747   3.505  1.8459  1.1579  0.2693
  524MOL0     H70715  11.945   3.840   3.377 -1.4562 -1.1648  0.4101
  524MOL0     H70716  12.227   3.860   3.473  2.7863  2.1460 -1.2513
  524MOL0     H70717  12.161   3.970   3.346  1.8140 -0.9056 -1.8190
  524MOL0     H70718  12.193   3.674   3.315 -0.4046  0.6780  1.6995
  524MOL0     H70719  12.131   3.790   3.194 -1.7131 -1.7711  1.2708
  524MOL0     H70720  11.967   3.940   4.220 -0.0637  0.7624 -3.3677
  524MOL0     H70721  11.974   3.759   4.384  0.9182 -1.2316 -0.8100
  524MOL0     H70722  11.860   3.273   4.417 -0.7735  0.9294  0.5768
  524MOL0     H70723  11.927   3.066   4.551  1.6454  0.5228 -0.8335
  524MOL0     H70724  10.880   3.138   4.450  0.3291 -0.9140  1.5728
  524MOL0     H70725  11.062   2.969   4.462  0.7981  0.0258 -1.8196
  524MOL0     H70726  11.351   2.722   4.721 -0.2170 -0.3309 -1.0144
  524MOL0     H70727  11.562   2.578   4.715  0.9172  1.0280  2.0516
  524MOL0     H70728  11.770   2.470   4.625  0.0455 -0.5734  0.2756
  524MOL0     H70729  11.745   2.525   4.792 -1.3482  2.6216 -0.2137
  524MOL0     H70730  11.950   2.404   4.796  0.9579  1.6347  2.3663
  524MOL0     H70731  11.986   2.580   4.795 -0.5613  0.7286 -1.4922
  524MOL0     H70732  12.070   2.569   4.578 -0.2130 -0.5639 -2.0013
  524MOL0     H70733  11.996   2.414   4.541  1.7758 -2.2545  1.3012
  524MOL0     H70734  12.221   2.421   4.738  1.1339 -0.2136 -1.4800
  524MOL0     H70735  12.129   2.287   4.666 -0.9717 -0.5278  1.3710
  524MOL0     H70736  12.425   2.419   4.383 -0.4575 -3.4255 -1.0705
  524MOL0     H70737  11.787   2.917   4.619  1.2189 -1.8082  0.0722
  524MOL0     H70738  11.535   3.157   4.679  0.4303 -0.3908  0.5836
  524MOL0     H70739  11.696   3.141   4.634 -1.8573  2.3429  1.2965
  524MOL0     H70740  11.574   3.147   4.508 -3.6778  0.5948  0.8148
  525MOL0     O70741   3.127   5.680   6.647 -0.8688  0.2108  0.0924
  525MOL0     C70742   3.030   5.657   6.575 -0.4109  0.1576  0.7021
  525MOL0     O70743   2.903   5.695   6.586  0.3316 -0.0645 -0.2754
  525MOL0     C70744   2.858   5.744   6.708  0.2651 -0.3166  0.5642
  525MOL0     C70745   2.915   5.719   6.833 -0.7776  0.1189 -0.0515
  525MOL0     C70746   2.864   5.763   6.951 -0.1340  0.1890  0.2581
  525MOL0     C70747   2.742   5.836   6.944  0.8701 -0.8116 -0.1380
  525MOL0     O70748   2.689   5.873   7.063  0.1331  0.2953  0.2321
  525MOL0     C70749   2.573   5.965   7.071 -0.0786  0.1165 -0.4216
  525MOL0     C70750   2.543   6.000   7.216  0.3182 -0.1164  0.5546
  525MOL0     C70751   2.535   5.880   7.302 -0.8247  0.0411 -0.7042
  525MOL0     C70752   2.459   5.917   7.421 -0.0203  0.3324 -1.2938
  525MOL0     C70753   2.469   5.819   7.536  0.0641  1.0521 -0.7364
  525MOL0     C70754   2.350   5.836   7.642  0.9455  0.7839  0.1557
  525MOL0     C70755   2.361   5.956   7.732 -0.6479 -0.0995  0.1693
  525MOL0     C70756   2.234   5.983   7.813  0.4746 -0.3804  0.1781
  525MOL0     N70757   2.220   5.878   7.917 -0.0565 -0.2186 -0.0103
  525MOL0     C70758   2.314   5.867   8.014  0.4328  0.1447  0.6761
  525MOL0     C70759   2.287   5.753   8.077 -0.7561  0.7599 -0.0015
  525MOL0     C70760   2.343   5.707   8.219  0.2921  1.2237 -0.5176
  525MOL0     C70761   2.301   5.567   8.242 -0.6048  0.2375 -0.4287
  525MOL0     C70762   2.366   5.516   8.371 -0.2274 -0.5665 -0.5439
  525MOL0     C70763   2.295   5.400   8.430 -0.2179 -0.1654  0.2141
  525MOL0     O70764   2.366   5.348   8.547 -0.3466 -0.0015 -0.0542
  525MOL0     C70765   2.341   5.401   8.672  0.9404  0.4984  0.3053
  525MOL0     C70766   2.390   5.315   8.775  0.7578 -0.5346  0.1076
  525MOL0     C70767   2.387   5.363   8.900 -0.2043 -0.2256  0.2945
  525MOL0     C70768   2.329   5.486   8.935 -1.5995 -0.1718  0.4479
  525MOL0     C70769   2.316   5.528   9.080 -0.2229  0.6446 -0.9789
  525MOL0     O70770   2.223   5.630   9.107 -0.8965  0.8964 -0.0429
  525MOL0     C70771   2.183   5.665   9.239  0.8288  0.4379  0.5036
  525MOL0     C70772   2.050   5.694   9.263  0.3268 -0.2538  0.8860
  525MOL0     C70773   1.999   5.730   9.392  0.0067  1.0547 -0.8209
  525MOL0     C70774   2.083   5.756   9.498  0.2144 -0.3842  0.8658
  525MOL0     O70775   2.044   5.799   9.617 -0.2318 -0.2413 -1.0425
  525MOL0     C70776   1.949   5.906   9.624 -0.0079  0.3813 -0.2129
  525MOL0     C70777   2.012   6.050   9.601 -1.1483 -1.0161  0.5051
  525MOL0     C70778   2.067   6.085   9.460  0.0703  0.0436  0.1107
  525MOL0     C70779   2.137   6.218   9.449 -0.2481  1.0677 -0.4516
  525MOL0     C70780   2.164   6.256   9.301  0.3645  0.0816 -0.3173
  525MOL0     C70781   2.213   6.401   9.303 -0.2181  0.2292 -0.6172
  525MOL0     C70782   2.222   6.464   9.164 -0.6535  0.2498  0.4795
  525MOL0     C70783   2.264   6.620   9.176 -0.0935  1.8531  1.7350
  525MOL0    Cl70784   2.267   6.673   8.998 -0.0666  0.0617 -0.5571
  525MOL0     C70785   2.221   5.715   9.479  0.7459 -0.4129  0.5037
  525MOL0     C70786   2.266   5.669   9.352  0.1552 -0.3793 -0.1661
  525MOL0     O70787   2.378   5.460   9.167  0.2579 -0.6553 -0.5140
  525MOL0     C70788   2.265   5.563   8.828  0.2766 -0.4849 -0.3834
  525MOL0     C70789   2.270   5.511   8.697  0.3681 -0.4430 -0.9461
  525MOL0     N70790   2.182   5.692   8.014  0.2270 -0.8966 -0.7703
  525MOL0     N70791   2.132   5.773   7.932  0.4910  0.7530 -0.1553
  525MOL0     C70792   2.681   5.866   6.819 -0.7620  0.2848  0.3895
  525MOL0     C70793   2.742   5.814   6.706  0.4902 -0.1398  0.1543
  525MOL0     C70794   3.056   5.579   6.449  0.2003 -0.6191  0.1941
  525MOL0     C70795   2.945   5.571   6.360 -0.2240  1.1160 -0.4537
  525MOL0     C70796   2.942   5.499   6.238  0.3748 -0.6635 -0.5388
  525MOL0     C70797   3.051   5.427   6.205  0.1101 -0.2407 -0.4643
  525MOL0     O70798   3.045   5.366   6.082 -0.2861  0.5618  0.4798
  525MOL0     C70799   3.136   5.260   6.047 -0.3660 -0.1176  0.1206
  525MOL0     C70800   3.142   5.252   5.896 -0.1491  0.7203 -0.4791
  525MOL0     C70801   3.268   5.189   5.856 -0.0379  0.0313 -0.0378
  525MOL0     C70802   3.289   5.235   5.711 -0.0242 -0.5765  0.3465
  525MOL0     C70803   3.425   5.190   5.673 -0.1056  0.0509 -0.2389
  525MOL0     C70804   3.524   5.126   5.645 -0.0022  0.4639 -1.4310
  525MOL0     C70805   3.161   5.433   6.297 -0.4652  0.2712 -0.3050
  525MOL0     C70806   3.167   5.503   6.414  0.2162  0.2195 -0.5982
  525MOL0     C70807   3.293   5.482   6.500  0.1240 -0.2039  0.4330
  525MOL0     H70808   3.003   5.656   6.839 -0.6289  0.0005 -2.3972
  525MOL0     H70809   2.924   5.750   7.041  0.1458  0.4902  0.1130
  525MOL0     H70810   2.603   6.059   7.023 -0.0436  0.2696 -0.1007
  525MOL0     H70811   2.489   5.914   7.023  0.6575 -1.2853 -0.2555
  525MOL0     H70812   2.450   6.057   7.224  1.0531  0.9713  2.0078
  525MOL0     H70813   2.638   6.051   7.234  0.8941  0.2213 -2.8057
  525MOL0     H70814   2.635   5.851   7.333 -0.5070  1.2441 -0.5338
  525MOL0     H70815   2.487   5.790   7.262 -0.0186 -0.8121  0.1935
  525MOL0     H70816   2.480   6.015   7.464 -2.2433 -0.6898  2.6122
  525MOL0     H70817   2.356   5.908   7.384 -1.3572  3.0273  1.3217
  525MOL0     H70818   2.456   5.723   7.486  1.6745 -0.4338  1.5187
  525MOL0     H70819   2.563   5.818   7.591 -0.7502 -0.1965  0.7126
  525MOL0     H70820   2.255   5.832   7.588  2.5179 -2.0393 -2.7259
  525MOL0     H70821   2.345   5.744   7.700 -0.3977  0.6052 -0.2146
  525MOL0     H70822   2.401   6.037   7.670 -0.7344 -0.6131 -0.5602
  525MOL0     H70823   2.453   5.943   7.790  0.7446 -1.7622 -2.2465
  525MOL0     H70824   2.246   6.079   7.863  0.4974 -0.5985  0.5959
  525MOL0     H70825   2.152   5.981   7.741 -0.8611  1.0698  1.5693
  525MOL0     H70826   2.383   5.939   8.057  0.4076 -1.3137  3.3752
  525MOL0     H70827   2.451   5.723   8.214  0.7969 -1.9008 -1.8009
  525MOL0     H70828   2.301   5.767   8.300 -3.3888  1.2328 -2.2102
  525MOL0     H70829   2.194   5.550   8.251 -1.0768  3.0434  0.0673
  525MOL0     H70830   2.338   5.507   8.158 -2.8286 -0.0351 -1.2808
  525MOL0     H70831   2.367   5.601   8.440 -1.8549 -0.2005 -0.9171
  525MOL0     H70832   2.470   5.493   8.348 -0.1593  1.2809 -2.4758
  525MOL0     H70833   2.275   5.319   8.360  1.9601 -2.5861  2.2110
  525MOL0     H70834   2.198   5.445   8.454 -0.4854 -0.4668 -0.2903
  525MOL0     H70835   2.437   5.219   8.756  2.6561  0.2038  0.8228
  525MOL0     H70836   2.428   5.296   8.974  0.0467  0.2266  0.5686
  525MOL0     H70837   1.973   5.683   9.187 -0.4875 -4.3085  2.0019
  525MOL0     H70838   1.896   5.761   9.407  0.1003  1.3138 -0.7219
  525MOL0     H70839   1.864   5.886   9.558 -1.4796 -3.3757  2.4408
  525MOL0     H70840   1.898   5.895   9.720  1.2576  3.4753  0.9199
  525MOL0     H70841   1.940   6.128   9.628 -0.8900 -1.7363  3.6917
  525MOL0     H70842   2.100   6.059   9.665  1.0004  1.0802 -2.4138
  525MOL0     H70843   2.132   6.014   9.409  1.1494  1.5487 -0.7205
  525MOL0     H70844   1.973   6.099   9.407 -0.5318 -0.1720  1.1090
  525MOL0     H70845   2.237   6.207   9.492  0.4993 -2.0401 -2.6785
  525MOL0     H70846   2.090   6.299   9.506  1.1320  0.2196  2.0236
  525MOL0     H70847   2.073   6.260   9.240 -0.3339 -2.3131  0.4345
  525MOL0     H70848   2.237   6.183   9.264 -0.0344 -0.4865  0.0060
  525MOL0     H70849   2.143   6.452   9.371  0.9390 -0.2397  0.9745
  525MOL0     H70850   2.310   6.394   9.353 -1.0241 -0.1170  0.9673
  525MOL0     H70851   2.138   6.449   9.096  0.7250 -0.4049 -1.1730
  525MOL0     H70852   2.291   6.402   9.106 -2.4822 -1.4492  0.0413
  525MOL0     H70853   2.185   6.669   9.232 -1.3758  2.9313 -0.8259
  525MOL0     H70854   2.360   6.630   9.227 -0.9104 -2.3876  4.5661
  525MOL0     H70855   2.288   5.725   9.564  0.8246 -3.0132  0.8109
  525MOL0     H70856   2.373   5.653   9.338  1.0321  1.3172  3.3108
  525MOL0     H70857   2.204   5.651   8.843 -1.2109 -1.7157  1.1426
  525MOL0     H70858   2.219   5.562   8.615  1.1470 -0.4837 -1.4660
  525MOL0     H70859   2.591   5.926   6.811 -0.6297  0.6962  1.7837
  525MOL0     H70860   2.696   5.840   6.611 -0.3891 -0.4534  0.4756
  525MOL0     H70861   2.855   5.629   6.377 -1.5632  0.0295 -3.2758
  525MOL0     H70862   2.856   5.493   6.171 -0.2962  0.1239  0.2335
  525MOL0     H70863   3.103   5.162   6.082 -1.2798 -1.5367 -4.1330
  525MOL0     H70864   3.232   5.290   6.091 -0.1820  1.5720 -1.3017
  525MOL0     H70865   3.134   5.352   5.852  0.1827 -0.4093 -3.2742
  525MOL0     H70866   3.062   5.199   5.844  1.2010  0.5838 -2.5349
  525MOL0     H70867   3.258   5.080   5.854  3.5621 -0.4957 -3.3501
  525MOL0     H70868   3.346   5.202   5.932 -1.7443 -1.1947  2.0102
  525MOL0     H70869   3.214   5.211   5.636  0.0430  1.9637 -0.6244
  525MOL0     H70870   3.295   5.344   5.699 -2.5197 -0.3176  0.8370
  525MOL0     H70871   3.602   5.061   5.611 -1.9530 -2.3526 -0.8902
  525MOL0     H70872   3.251   5.383   6.262 -0.9939 -1.0962  0.2346
  525MOL0     H70873   3.306   5.549   6.585  0.8186 -1.3787  1.2799
  525MOL0     H70874   3.291   5.379   6.535 -1.0707 -1.3692 -2.6844
  525MOL0     H70875   3.387   5.490   6.446  0.4111 -0.0412  0.9478
  526MOL0     O70876   2.867   4.326  10.506 -0.0118 -0.2881  0.0027
  526MOL0     C70877   2.871   4.233  10.583 -0.0755 -0.0943 -0.1704
  526MOL0     O70878   2.981   4.173  10.641 -0.4043 -0.3155  0.5895
  526MOL0     C70879   3.105   4.224  10.596  0.4153  0.7726 -0.6787
  526MOL0     C70880   3.198   4.130  10.537  0.2668 -0.0435 -0.0018
  526MOL0     C70881   3.330   4.161  10.504 -0.6233 -0.8254 -0.1574
  526MOL0     C70882   3.378   4.302  10.519  0.1194  0.2651 -0.5186
  526MOL0     O70883   3.501   4.357  10.494 -0.3118  0.6532 -0.0435
  526MOL0     C70884   3.615   4.276  10.513  0.5521 -0.3900  0.1406
  526MOL0     C70885   3.731   4.370  10.567 -0.1361  0.4195 -0.4396
  526MOL0     C70886   3.858   4.298  10.546  0.2628 -0.6469  0.8464
  526MOL0     C70887   3.970   4.389  10.596  0.7424  0.5037  0.1079
  526MOL0     C70888   4.102   4.321  10.583  0.7059  0.5740  0.2250
  526MOL0     C70889   4.192   4.406  10.673  0.1866  0.8555 -0.3994
  526MOL0     C70890   4.297   4.312  10.731  0.0918  0.3147  0.5513
  526MOL0     C70891   4.439   4.375  10.728  0.5286  0.4669 -1.1914
  526MOL0     N70892   4.551   4.295  10.781 -0.5351 -0.5982 -0.4975
  526MOL0     C70893   4.632   4.215  10.706  0.1705  1.0552 -0.6139
  526MOL0     C70894   4.726   4.159  10.794 -0.5638 -0.7233  0.1010
  526MOL0     C70895   4.833   4.057  10.774 -0.4066  0.8267  0.1726
  526MOL0     C70896   4.795   3.916  10.708 -0.2502  0.6055 -0.5422
  526MOL0     C70897   4.890   3.795  10.731  0.0061  0.2747 -0.6309
  526MOL0     C70898   4.861   3.691  10.616  0.2395 -0.1942 -0.5042
  526MOL0     O70899   4.727   3.643  10.618 -0.0739 -0.1627 -0.4881
  526MOL0     C70900   4.664   3.576  10.517  0.8212  0.1933 -0.3344
  526MOL0     C70901   4.736   3.527  10.409  0.3358  0.0721 -0.4110
  526MOL0     C70902   4.658   3.458  10.305 -0.3290 -0.3266 -0.6426
  526MOL0     C70903   4.519   3.427  10.314 -0.1561 -0.0698 -0.4967
  526MOL0     C70904   4.438   3.365  10.213 -0.4973  0.4777  1.1873
  526MOL0     O70905   4.502   3.356  10.087  0.2276  0.4006 -1.5492
  526MOL0     C70906   4.446   3.307   9.974 -0.2900 -0.5198 -0.1087
  526MOL0     C70907   4.314   3.289   9.944  0.6544 -0.6459 -0.5132
  526MOL0     C70908   4.267   3.243   9.817 -0.7282  0.4501 -0.4466
  526MOL0     C70909   4.364   3.228   9.715 -0.9471  0.4370 -0.2449
  526MOL0     O70910   4.332   3.183   9.591 -0.0432 -0.4197  0.3345
  526MOL0     C70911   4.197   3.194   9.545  0.2565 -0.1463 -1.0416
  526MOL0     C70912   4.111   3.064   9.578  0.0243  1.1093  0.5987
  526MOL0     C70913   4.051   3.010   9.445  0.3315  1.0594 -0.1491
  526MOL0     C70914   3.993   2.866   9.486 -0.2349 -0.4874 -0.2791
  526MOL0     C70915   3.912   2.805   9.372  1.2525  0.1245  0.5579
  526MOL0     C70916   3.813   2.708   9.436 -0.3666  0.2402  0.8401
  526MOL0     C70917   3.878   2.582   9.493 -0.1508  0.2816  1.0148
  526MOL0     C70918   3.768   2.486   9.548 -0.4791  0.2671  0.2430
  526MOL0    Cl70919   3.697   2.567   9.685 -0.3662 -0.6371  0.5691
  526MOL0     C70920   4.506   3.239   9.741  0.2580 -0.9136  0.3662
  526MOL0     C70921   4.538   3.280   9.864 -0.5950  0.2472 -0.6502
  526MOL0     O70922   4.330   3.318  10.243  0.1324 -0.4930  0.1891
  526MOL0     C70923   4.449   3.489  10.426 -0.5775  0.9177  0.1035
  526MOL0     C70924   4.524   3.564  10.523  0.5467  0.2432 -0.5088
  526MOL0     N70925   4.698   4.214  10.920 -0.6512 -0.4498 -1.2716
  526MOL0     N70926   4.602   4.296  10.912 -0.1888  0.4798 -0.5128
  526MOL0     C70927   3.286   4.390  10.580  0.7315 -1.2959 -0.4578
  526MOL0     C70928   3.156   4.352  10.627 -0.1371 -0.2310 -0.1513
  526MOL0     C70929   2.735   4.169  10.626 -0.8578 -0.4600 -0.0324
  526MOL0     C70930   2.741   4.072  10.723 -0.0327  0.1608  0.6643
  526MOL0     C70931   2.629   4.010  10.766 -0.1343  0.0075  0.1441
  526MOL0     C70932   2.502   4.047  10.719  0.0548  0.8214 -0.8987
  526MOL0     O70933   2.401   3.969  10.762  0.5086  0.4032  0.1165
  526MOL0     C70934   2.267   3.976  10.704 -0.0225 -0.3726 -0.8669
  526MOL0     C70935   2.260   3.905  10.567  0.3128 -0.8041 -0.3321
  526MOL0     C70936   2.122   3.892  10.496  0.3447 -0.3915 -0.3040
  526MOL0     C70937   2.141   3.779  10.393 -0.0351  0.1839  0.2921
  526MOL0     C70938   2.022   3.759  10.301  0.8853 -0.6658 -0.2268
  526MOL0     C70939   1.913   3.741  10.246 -0.2051  0.3423  0.1606
  526MOL0     C70940   2.486   4.149  10.627  0.4911  0.7298  0.3313
  526MOL0     C70941   2.606   4.218  10.582 -0.8670 -0.5013  0.3602
  526MOL0     C70942   2.587   4.335  10.501  0.8889  0.0220 -0.0823
  526MOL0     H70943   3.165   4.030  10.511  1.2853  0.7098 -5.3535
  526MOL0     H70944   3.405   4.086  10.483 -0.5090 -1.1617  1.3102
  526MOL0     H70945   3.607   4.189  10.579  2.2414 -2.0264 -1.6751
  526MOL0     H70946   3.646   4.227  10.420 -0.5314 -1.5090  0.3580
  526MOL0     H70947   3.724   4.396  10.673  3.9953  2.5397 -0.4752
  526MOL0     H70948   3.733   4.454  10.496 -0.4026 -1.4983 -2.8454
  526MOL0     H70949   3.867   4.273  10.440 -0.3546 -0.4582  0.7446
  526MOL0     H70950   3.866   4.205  10.603  4.0986 -0.2303  1.2489
  526MOL0     H70951   3.977   4.485  10.542  0.7525 -0.1555 -1.1002
  526MOL0     H70952   3.958   4.404  10.703  3.5383 -1.0588  0.7220
  526MOL0     H70953   4.104   4.214  10.607  0.7199  0.5029 -0.0783
  526MOL0     H70954   4.126   4.339  10.478 -2.1502  2.2436 -0.2397
  526MOL0     H70955   4.241   4.485  10.615  4.7542 -0.7698  0.8374
  526MOL0     H70956   4.142   4.442  10.764 -2.6549 -3.1279 -0.1455
  526MOL0     H70957   4.308   4.223  10.670 -0.4531  1.3559 -1.1307
  526MOL0     H70958   4.259   4.286  10.830 -0.2909 -1.0663  0.0586
  526MOL0     H70959   4.456   4.419  10.629 -2.2946 -1.1579 -2.5351
  526MOL0     H70960   4.431   4.461  10.796 -2.8083 -1.4105  1.0787
  526MOL0     H70961   4.617   4.192  10.600 -1.8725 -0.0918 -0.1348
  526MOL0     H70962   4.922   4.095  10.722  1.3048  0.6241  2.7581
  526MOL0     H70963   4.865   4.045  10.878 -0.9825  2.3382  0.5426
  526MOL0     H70964   4.694   3.886  10.737  0.9125 -1.2599  2.0232
  526MOL0     H70965   4.792   3.928  10.599 -0.1904 -0.1092 -0.6219
  526MOL0     H70966   4.879   3.753  10.831  0.2071 -1.2746 -1.2348
  526MOL0     H70967   4.994   3.827  10.724  0.2859 -0.2413  0.9589
  526MOL0     H70968   4.931   3.607  10.617  2.3563  1.4957 -0.4552
  526MOL0     H70969   4.883   3.728  10.515 -0.9094 -0.4592 -0.8769
  526MOL0     H70970   4.843   3.531  10.391  0.6185  2.2235  1.2995
  526MOL0     H70971   4.719   3.421  10.223 -1.4584  0.2311 -1.7535
  526MOL0     H70972   4.246   3.313  10.025  1.1858  0.0105 -0.2552
  526MOL0     H70973   4.159   3.236   9.812 -0.6938 -1.3145  0.3250
  526MOL0     H70974   4.157   3.287   9.588  0.2536  0.6116 -2.6252
  526MOL0     H70975   4.196   3.197   9.436  1.8776 -2.4955 -1.1887
  526MOL0     H70976   4.176   2.993   9.631 -0.1890  1.3002  1.1234
  526MOL0     H70977   4.030   3.104   9.639  0.7505  1.3057  1.4559
  526MOL0     H70978   3.968   3.073   9.412 -1.3977 -0.8236  0.4395
  526MOL0     H70979   4.115   3.004   9.356 -0.3510 -1.2292 -0.5633
  526MOL0     H70980   3.930   2.882   9.574  1.9054  7.0165  0.5683
  526MOL0     H70981   4.076   2.800   9.512  0.4508  0.8227  0.9672
  526MOL0     H70982   3.974   2.749   9.301  1.0140 -1.8118  1.7916
  526MOL0     H70983   3.850   2.879   9.321 -1.4689 -1.9631  0.6303
  526MOL0     H70984   3.757   2.755   9.518  0.1908 -1.0009  1.9658
  526MOL0     H70985   3.740   2.685   9.357 -1.5455  1.2880  1.5749
  526MOL0     H70986   3.966   2.595   9.556  2.4755  0.1871 -2.3296
  526MOL0     H70987   3.902   2.526   9.402 -3.4902  2.1845 -1.2519
  526MOL0     H70988   3.695   2.464   9.469 -0.3047 -2.5543  0.7604
  526MOL0     H70989   3.804   2.385   9.570 -2.3634 -0.1986  1.5284
  526MOL0     H70990   4.580   3.213   9.666 -1.8334 -0.3118 -2.0530
  526MOL0     H70991   4.641   3.275   9.897 -1.3553  1.7326  2.2718
  526MOL0     H70992   4.340   3.489  10.419 -0.5409  0.4731 -0.6588
  526MOL0     H70993   4.459   3.617  10.592 -0.4185 -0.6262 -0.7220
  526MOL0     H70994   3.297   4.495  10.606  0.4679 -1.1939 -0.7440
  526MOL0     H70995   3.090   4.418  10.682  0.3302  1.7073 -1.7891
  526MOL0     H70996   2.836   4.042  10.765 -0.0219  0.5572  0.9209
  526MOL0     H70997   2.659   3.930  10.833  2.7693  1.3991  0.6571
  526MOL0     H70998   2.227   4.078  10.692  0.9548  0.0682 -0.5046
  526MOL0     H70999   2.200   3.913  10.764 -1.1633  3.0833  1.8988
  526MOL0     H71000   2.302   3.805  10.581 -0.1064 -0.7153  1.9498
  526MOL0     H71001   2.333   3.946  10.497 -1.0186 -0.5395 -1.6048
  526MOL0     H71002   2.083   3.983  10.448  2.6804  0.8258 -0.0594
  526MOL0     H71003   2.053   3.858  10.573 -1.8351 -0.8163 -2.3430
  526MOL0     H71004   2.226   3.809  10.331  0.6504 -3.1863 -0.5759
  526MOL0     H71005   2.150   3.683  10.444 -4.1760 -0.6102 -0.1275
  526MOL0     H71006   1.809   3.731  10.221 -0.4459  2.0262  0.4001
  526MOL0     H71007   2.394   4.197  10.596  0.0736 -1.9890 -3.3151
  526MOL0     H71008   2.599   4.424  10.564  1.7689 -1.3348  1.7251
  526MOL0     H71009   2.654   4.337  10.414 -0.1608  0.3418 -0.9188
  526MOL0     H71010   2.485   4.335  10.460  0.0265  0.8514  1.9562
  527MOL0     O71011   3.491   8.776   7.580 -0.2424  0.8625  0.0418
  527MOL0     C71012   3.425   8.714   7.666 -0.1115  1.0711  0.2841
  527MOL0     O71013   3.344   8.607   7.638 -1.0105  0.6163 -0.0242
  527MOL0     C71014   3.344   8.546   7.516 -0.3839 -0.8963  0.6564
  527MOL0     C71015   3.232   8.476   7.480 -0.0632  1.0200  0.6980
  527MOL0     C71016   3.225   8.412   7.350  0.2040  0.3275  0.1117
  527MOL0     C71017   3.337   8.405   7.264  0.5233  0.2162 -0.9340
  527MOL0     O71018   3.319   8.332   7.148 -0.2383  0.9774 -0.5062
  527MOL0     C71019   3.431   8.306   7.075 -0.6802  0.6288  0.0466
  527MOL0     C71020   3.405   8.191   6.970  1.3361  0.2994 -0.5941
  527MOL0     C71021   3.531   8.178   6.879  0.2004 -0.4380 -0.6288
  527MOL0     C71022   3.536   8.046   6.803  0.8769 -0.2955  0.0723
  527MOL0     C71023   3.400   8.017   6.739  0.2462 -0.3918  1.5759
  527MOL0     C71024   3.406   7.917   6.619  0.5382  0.4299 -0.2150
  527MOL0     C71025   3.273   7.885   6.567  1.2598 -0.4030 -0.7295
  527MOL0     C71026   3.278   7.817   6.428 -0.1831 -0.1893 -0.2092
  527MOL0     N71027   3.371   7.703   6.410  0.4270 -0.3854  0.3207
  527MOL0     C71028   3.448   7.679   6.301 -0.1698 -0.0843 -0.0513
  527MOL0     C71029   3.466   7.545   6.291 -0.2258 -0.0944  0.3322
  527MOL0     C71030   3.525   7.468   6.178  0.0827  1.3151  0.1921
  527MOL0     C71031   3.405   7.415   6.101 -0.6683  0.5497  0.0763
  527MOL0     C71032   3.432   7.324   5.978  0.1126  0.6849  0.2444
  527MOL0     C71033   3.305   7.285   5.904 -0.2803  0.7146  0.1530
  527MOL0     O71034   3.236   7.409   5.850 -0.2587  0.1237  0.6736
  527MOL0     C71035   3.116   7.391   5.785 -0.0582  0.1270  0.2467
  527MOL0     C71036   3.075   7.281   5.711 -0.7318 -0.2113  0.7620
  527MOL0     C71037   2.941   7.271   5.664  0.4582  0.9656 -0.4690
  527MOL0     C71038   2.853   7.385   5.675 -0.3699  0.4696  0.2506
  527MOL0     C71039   2.715   7.378   5.627 -0.4545 -0.4961 -0.6983
  527MOL0     O71040   2.684   7.258   5.567  0.5411  0.2432 -0.0381
  527MOL0     C71041   2.568   7.233   5.490 -0.3386 -0.0701  0.8521
  527MOL0     C71042   2.529   7.102   5.498 -0.5360 -0.7402  0.0876
  527MOL0     C71043   2.407   7.062   5.425 -0.8063 -0.8854  1.1089
  527MOL0     C71044   2.324   7.156   5.351 -0.0044  0.2589  0.0117
  527MOL0     O71045   2.216   7.121   5.279  0.3585 -0.3782 -0.5680
  527MOL0     C71046   2.228   7.019   5.191  0.2754  0.2306  0.4129
  527MOL0     C71047   2.298   7.072   5.070 -1.2119  0.2732 -0.0625
  527MOL0     C71048   2.334   6.964   4.977 -0.3791 -0.4022 -0.3276
  527MOL0     C71049   2.365   7.017   4.836  0.3614 -0.1914  0.6172
  527MOL0     C71050   2.480   7.117   4.838  0.0264 -0.1267  0.7629
  527MOL0     C71051   2.529   7.149   4.695  0.0896  1.1349 -0.5080
  527MOL0     C71052   2.650   7.244   4.699 -0.7546 -0.0304 -0.4896
  527MOL0     C71053   2.732   7.240   4.571 -0.6312  1.0462 -0.2086
  527MOL0    Cl71054   2.645   7.318   4.448  0.4980 -0.1808 -0.0008
  527MOL0     C71055   2.365   7.291   5.350  0.3892 -0.5003 -0.1429
  527MOL0     C71056   2.483   7.329   5.423 -0.1608  0.7577 -0.4595
  527MOL0     O71057   2.641   7.481   5.645 -0.1203 -0.1650 -0.0226
  527MOL0     C71058   2.910   7.493   5.732  0.0699  0.2763 -0.2923
  527MOL0     C71059   3.030   7.500   5.799  0.1233 -0.0574 -0.4633
  527MOL0     N71060   3.409   7.489   6.397  0.5734  0.9603  1.0182
  527MOL0     N71061   3.353   7.579   6.470 -0.0078  0.1650 -0.1521
  527MOL0     C71062   3.445   8.483   7.309 -0.6318 -0.1373  0.4723
  527MOL0     C71063   3.450   8.557   7.423  0.2781  0.1527  0.4891
  527MOL0     C71064   3.415   8.761   7.805 -0.2969 -0.2359 -0.3850
  527MOL0     C71065   3.528   8.826   7.863 -0.1115  0.4837  0.3976
  527MOL0     C71066   3.538   8.869   7.994 -0.9380  0.1468 -1.2417
  527MOL0     C71067   3.432   8.847   8.079 -0.5254  0.1678 -0.0882
  527MOL0     O71068   3.436   8.872   8.214 -0.0227  0.2127 -0.2777
  527MOL0     C71069   3.457   8.756   8.298 -0.9644  0.2618  0.5649
  527MOL0     C71070   3.542   8.784   8.422 -1.1897  0.8227  0.4057
  527MOL0     C71071   3.626   8.661   8.459 -0.9232 -0.2004  0.7331
  527MOL0     C71072   3.542   8.543   8.504 -0.7063 -0.4501 -0.5294
  527MOL0     C71073   3.623   8.431   8.555 -1.2999 -0.2788 -0.3469
  527MOL0     C71074   3.689   8.339   8.595 -0.2275  0.2820  0.5603
  527MOL0     C71075   3.315   8.788   8.031  1.1848  0.3315  0.2574
  527MOL0     C71076   3.306   8.740   7.900 -1.0258 -0.7305  0.6097
  527MOL0     C71077   3.190   8.664   7.861 -0.5933  0.6412 -0.0714
  527MOL0     H71078   3.147   8.457   7.545 -2.7490 -2.6575 -3.3115
  527MOL0     H71079   3.136   8.361   7.314  1.9639 -1.8338 -1.4767
  527MOL0     H71080   3.446   8.389   7.006 -0.6211  1.6314  1.2509
  527MOL0     H71081   3.515   8.268   7.133  0.0207 -4.2660 -3.4936
  527MOL0     H71082   3.326   8.213   6.898  1.0307  1.0720 -0.0323
  527MOL0     H71083   3.369   8.097   7.013 -1.4596  0.7452 -1.7453
  527MOL0     H71084   3.622   8.193   6.938  0.7226 -2.7926 -0.7203
  527MOL0     H71085   3.525   8.260   6.807  0.2325 -2.0267 -2.5178
  527MOL0     H71086   3.611   8.058   6.725 -0.4467  1.1699 -1.0377
  527MOL0     H71087   3.562   7.965   6.871  2.0707 -2.9894 -3.3279
  527MOL0     H71088   3.319   7.984   6.804 -0.5950  1.6686  1.6350
  527MOL0     H71089   3.361   8.114   6.707  1.9733 -0.3295 -0.6179
  527MOL0     H71090   3.477   7.964   6.550 -0.8602  4.4804  0.8320
  527MOL0     H71091   3.454   7.828   6.661  0.1211 -0.0044 -0.6319
  527MOL0     H71092   3.214   7.977   6.565  0.3895 -0.8325  1.6962
  527MOL0     H71093   3.224   7.822   6.643  1.5083  4.0171  3.5771
  527MOL0     H71094   3.178   7.782   6.400 -1.8023  2.4805  1.7086
  527MOL0     H71095   3.306   7.903   6.365 -0.8477  2.3627  2.7217
  527MOL0     H71096   3.491   7.749   6.230  1.7751  0.4423  1.5725
  527MOL0     H71097   3.579   7.533   6.109 -0.3204  2.2294  0.7225
  527MOL0     H71098   3.583   7.385   6.217 -0.4361  1.0426  0.3996
  527MOL0     H71099   3.340   7.366   6.174  2.5607 -0.3744  2.5638
  527MOL0     H71100   3.359   7.508   6.067 -0.3083  0.0767 -1.8381
  527MOL0     H71101   3.492   7.235   5.999  1.0348  1.1537 -0.3703
  527MOL0     H71102   3.482   7.388   5.905 -1.9019  0.9767 -0.9442
  527MOL0     H71103   3.228   7.232   5.961 -3.8145  2.9840 -2.1049
  527MOL0     H71104   3.328   7.210   5.828 -3.3913 -3.1995  2.6495
  527MOL0     H71105   3.135   7.192   5.697  1.4950  1.2419  0.4288
  527MOL0     H71106   2.931   7.170   5.626  3.1812  0.6749 -0.6649
  527MOL0     H71107   2.575   7.043   5.577 -1.2344 -2.2206 -0.5609
  527MOL0     H71108   2.381   6.957   5.428  4.1228 -2.5146 -1.6972
  527MOL0     H71109   2.280   6.936   5.241  0.3515 -0.0212 -0.0711
  527MOL0     H71110   2.128   6.977   5.171 -1.6455  3.6458  2.0843
  527MOL0     H71111   2.234   7.150   5.028 -2.4415 -2.2416 -3.3226
  527MOL0     H71112   2.396   7.115   5.094 -1.1742  0.9272 -1.2695
  527MOL0     H71113   2.428   6.919   5.010  0.0699 -0.6295 -1.8012
  527MOL0     H71114   2.260   6.884   4.973 -1.4573  0.2571  3.3804
  527MOL0     H71115   2.273   7.064   4.799  1.7667  1.5483 -0.8915
  527MOL0     H71116   2.386   6.934   4.768  0.4840  0.0720  0.3319
  527MOL0     H71117   2.563   7.080   4.899  0.4871 -2.5906 -1.1662
  527MOL0     H71118   2.427   7.203   4.880  0.5092  0.4846  0.1504
  527MOL0     H71119   2.558   7.051   4.656  0.5155  0.8699  0.4331
  527MOL0     H71120   2.443   7.181   4.636 -2.2543 -1.3510  1.3249
  527MOL0     H71121   2.718   7.215   4.779 -2.1905 -1.8002  0.1581
  527MOL0     H71122   2.611   7.345   4.716 -1.9747 -0.6105  0.3100
  527MOL0     H71123   2.829   7.287   4.589 -0.9396  1.0697  1.5738
  527MOL0     H71124   2.748   7.136   4.540 -0.3214  1.6338 -2.1392
  527MOL0     H71125   2.306   7.366   5.299 -0.4699  0.2840  1.8901
  527MOL0     H71126   2.518   7.431   5.406  2.5952 -0.2458 -1.2599
  527MOL0     H71127   2.843   7.578   5.745 -1.4683 -0.8134 -0.8115
  527MOL0     H71128   3.062   7.588   5.854  0.7263 -2.0449  2.6015
  527MOL0     H71129   3.532   8.492   7.245 -1.6650 -0.3789 -1.0276
  527MOL0     H71130   3.544   8.604   7.447 -0.0958  1.2115 -0.0707
  527MOL0     H71131   3.612   8.837   7.794  0.4382 -0.5993  0.8706
  527MOL0     H71132   3.635   8.916   8.010 -1.3357  1.5790 -2.7545
  527MOL0     H71133   3.487   8.671   8.237 -2.3370 -0.5673  0.9937
  527MOL0     H71134   3.363   8.725   8.345  0.9561 -2.9306  2.5926
  527MOL0     H71135   3.490   8.820   8.512 -1.1262  3.9991 -0.6866
  527MOL0     H71136   3.612   8.860   8.386  1.5881 -2.0202 -0.6694
  527MOL0     H71137   3.690   8.695   8.541  0.4580  1.2998 -0.8737
  527MOL0     H71138   3.690   8.631   8.375 -1.4006 -0.2806  0.3904
  527MOL0     H71139   3.494   8.582   8.594  0.4645  0.9409 -0.4619
  527MOL0     H71140   3.480   8.518   8.418 -0.8115 -1.3647 -0.1947
  527MOL0     H71141   3.757   8.268   8.638  1.3981  2.0690  1.0706
  527MOL0     H71142   3.228   8.789   8.096  0.9652 -0.0842 -0.0294
  527MOL0     H71143   3.105   8.688   7.925  0.8576  2.0372  1.3893
  527MOL0     H71144   3.150   8.677   7.759 -2.0924 -2.4153 -0.0056
  527MOL0     H71145   3.205   8.558   7.884 -0.7241  0.7622  0.5831
  528MOL0     O71146   0.249   4.199   0.199  0.4232  0.2054 -0.6745
  528MOL0     C71147   0.355   4.139   0.230  0.4001  0.0664 -0.6004
  528MOL0     O71148   0.409   4.038   0.152  0.1186 -0.9275 -0.0220
  528MOL0     C71149   0.351   4.001   0.028  0.5923 -0.3084 -0.1119
  528MOL0     C71150   0.242   3.907   0.028 -1.2375 -0.2571 -0.2423
  528MOL0     C71151   0.177   3.871  -0.089 -0.6112  0.8151  0.1281
  528MOL0     C71152   0.225   3.918  -0.212 -0.1067 -0.9207 -0.5448
  528MOL0     O71153   0.159   3.875  -0.327 -0.3046 -0.5483 -0.4384
  528MOL0     C71154   0.185   3.740  -0.365 -0.2720 -0.7825  0.7892
  528MOL0     C71155   0.098   3.718  -0.487 -0.2693 -0.0819 -0.2248
  528MOL0     C71156   0.145   3.614  -0.592  0.1823 -0.1139 -0.5544
  528MOL0     C71157   0.058   3.484  -0.574 -1.1522 -0.1795  0.6138
  528MOL0     C71158   0.091   3.357  -0.653 -1.0776  0.3462 -0.0055
  528MOL0     C71159   0.210   3.276  -0.598  0.7219 -0.9764  1.0476
  528MOL0     C71160   0.242   3.157  -0.685  0.5539 -0.5601 -0.4269
  528MOL0     C71161   0.325   3.047  -0.607 -0.1450  0.3508  0.0741
  528MOL0     N71162   0.468   3.020  -0.656  0.5127 -0.7957  0.1326
  528MOL0     C71163   0.516   2.934  -0.737  0.2124  0.9637 -0.3412
  528MOL0     C71164   0.653   2.961  -0.744 -0.8985  0.4380 -0.2191
  528MOL0     C71165   0.738   2.899  -0.855 -0.0446  0.6744 -0.0173
  528MOL0     C71166   0.771   2.998  -0.968  0.0931  0.0483  0.1233
  528MOL0     C71167   0.651   3.033  -1.048 -0.1175 -0.3050 -0.6000
  528MOL0     C71168   0.691   3.135  -1.151  0.0006  0.2039 -0.1028
  528MOL0     O71169   0.623   3.112  -1.278 -0.9134  0.4279 -0.1820
  528MOL0     C71170   0.705   3.041  -1.371 -0.4090 -0.4222  0.6475
  528MOL0     C71171   0.677   3.069  -1.502  0.6084  0.7674  0.7954
  528MOL0     C71172   0.757   3.023  -1.601  0.1991  0.3364 -0.8689
  528MOL0     C71173   0.870   2.949  -1.572 -0.1952 -0.0517 -0.6430
  528MOL0     C71174   0.967   2.920  -1.674 -0.0098 -0.9743  0.2924
  528MOL0     O71175   1.072   2.839  -1.643 -0.6557  0.1468 -0.0352
  528MOL0     C71176   1.175   2.798  -1.728  0.6172 -0.6385  0.4992
  528MOL0     C71177   1.223   2.668  -1.705 -0.2697  0.7530 -0.2882
  528MOL0     C71178   1.317   2.602  -1.790  0.0469  0.3176  0.3571
  528MOL0     C71179   1.378   2.667  -1.900  0.2773  0.7918  0.1741
  528MOL0     O71180   1.472   2.612  -1.980 -0.4063  0.2330  0.0238
  528MOL0     C71181   1.471   2.469  -2.008  0.4369 -0.4268 -0.4065
  528MOL0     C71182   1.544   2.392  -1.909  0.7891 -0.3883  0.4277
  528MOL0     C71183   1.566   2.245  -1.939 -0.5726  0.5083  0.1150
  528MOL0     C71184   1.439   2.167  -1.931  1.5521 -0.3618  0.6442
  528MOL0     C71185   1.457   2.028  -1.987 -0.0288  0.7484  0.1173
  528MOL0     C71186   1.337   1.942  -1.962 -0.1039  0.1917  0.2526
  528MOL0     C71187   1.389   1.795  -1.973  0.0417 -0.2453 -0.5827
  528MOL0     C71188   1.375   1.728  -1.840  0.2811 -0.1352  0.3682
  528MOL0    Cl71189   1.212   1.662  -1.830 -0.2677 -0.2874  0.2444
  528MOL0     C71190   1.343   2.803  -1.912  0.2945 -0.6283 -0.5009
  528MOL0     C71191   1.243   2.866  -1.829 -0.0228  0.5855 -1.8059
  528MOL0     O71192   0.954   2.960  -1.794 -0.1061 -0.5662 -0.9446
  528MOL0     C71193   0.898   2.913  -1.441  0.4184 -0.4794  0.2433
  528MOL0     C71194   0.813   2.946  -1.344  0.6202 -0.0765 -0.0012
  528MOL0     N71195   0.689   3.070  -0.669  0.5177 -0.3044  0.3408
  528MOL0     N71196   0.573   3.102  -0.611  0.4363 -0.0333 -0.1808
  528MOL0     C71197   0.328   4.014  -0.214 -0.6142  0.1568  0.4977
  528MOL0     C71198   0.392   4.055  -0.093 -0.2179  0.1778  0.4653
  528MOL0     C71199   0.420   4.183   0.359  0.1197 -0.3381  0.1642
  528MOL0     C71200   0.342   4.207   0.475 -0.9455 -0.2915  0.3923
  528MOL0     C71201   0.400   4.237   0.594 -1.0643 -0.6105 -0.4427
  528MOL0     C71202   0.542   4.231   0.611 -0.3446  1.1441  0.5892
  528MOL0     O71203   0.613   4.235   0.732  0.3866 -0.1292 -0.5282
  528MOL0     C71204   0.542   4.237   0.852 -0.3287 -0.1160  0.7869
  528MOL0     C71205   0.495   4.386   0.889 -0.1909  1.0946 -1.1696
  528MOL0     C71206   0.431   4.374   1.025  0.1666  0.0805 -0.5294
  528MOL0     C71207   0.380   4.513   1.070 -0.1189  0.8164  0.0038
  528MOL0     C71208   0.344   4.505   1.210 -0.2710 -0.5026 -0.6475
  528MOL0     C71209   0.305   4.494   1.325 -0.0824 -0.2033  0.2556
  528MOL0     C71210   0.621   4.196   0.501 -0.5681 -0.5447  0.5106
  528MOL0     C71211   0.566   4.175   0.373  1.3185  0.1332  0.0292
  528MOL0     C71212   0.679   4.155   0.266  1.3070  0.4311 -0.1139
  528MOL0     H71213   0.205   3.857   0.117  1.3672 -2.5825 -0.3296
  528MOL0     H71214   0.089   3.808  -0.087  0.5461 -0.8905  0.9134
  528MOL0     H71215   0.290   3.727  -0.391  0.0570  2.0230  0.4445
  528MOL0     H71216   0.154   3.672  -0.284 -0.2853  1.2903  2.6192
  528MOL0     H71217   0.082   3.809  -0.545  1.9913 -2.4146 -5.0595
  528MOL0     H71218   0.001   3.698  -0.440  0.6254 -1.8113  1.0340
  528MOL0     H71219   0.252   3.595  -0.594  0.4634  1.2784 -0.1426
  528MOL0     H71220   0.128   3.655  -0.692  1.3207  4.0817  0.7509
  528MOL0     H71221   0.052   3.464  -0.467  1.3201 -0.6696  0.7085
  528MOL0     H71222  -0.044   3.508  -0.607 -1.3302 -3.0717 -1.2920
  528MOL0     H71223   0.010   3.284  -0.648 -0.3266 -0.5789 -0.9111
  528MOL0     H71224   0.114   3.366  -0.759  2.1006 -1.1696  0.4205
  528MOL0     H71225   0.298   3.339  -0.581 -1.3161  2.1297  1.0399
  528MOL0     H71226   0.180   3.243  -0.498 -0.4029 -1.4478  0.5796
  528MOL0     H71227   0.305   3.191  -0.767  0.9898  1.1418  0.5724
  528MOL0     H71228   0.154   3.114  -0.733 -1.2610  1.8353  0.5327
  528MOL0     H71229   0.323   3.068  -0.500 -1.2005 -0.9083  0.3442
  528MOL0     H71230   0.266   2.955  -0.617  1.6517 -0.9551  1.0217
  528MOL0     H71231   0.472   2.846  -0.783  3.1774 -0.7015 -0.2427
  528MOL0     H71232   0.829   2.860  -0.808  0.5862  1.2256 -0.7629
  528MOL0     H71233   0.695   2.809  -0.900  1.1691  0.8011 -1.4973
  528MOL0     H71234   0.802   3.092  -0.920 -1.2940  0.5258  0.1171
  528MOL0     H71235   0.846   2.949  -1.030  0.1201 -0.7886  0.8025
  528MOL0     H71236   0.566   3.072  -0.991  1.6229  2.1071  0.5067
  528MOL0     H71237   0.617   2.944  -1.102  1.5645 -1.1473 -0.3225
  528MOL0     H71238   0.800   3.147  -1.154  0.1661 -0.5187  1.8319
  528MOL0     H71239   0.658   3.238  -1.132 -0.6632 -0.2571  1.3826
  528MOL0     H71240   0.603   3.141  -1.535  0.2115  0.2310  0.5013
  528MOL0     H71241   0.744   3.045  -1.706  2.2309  0.6712 -1.0821
  528MOL0     H71242   1.172   2.613  -1.627 -0.5019 -4.4945 -3.6087
  528MOL0     H71243   1.342   2.505  -1.747  1.6226  0.6289  0.1945
  528MOL0     H71244   1.367   2.435  -2.016  0.5947 -0.9076 -0.4572
  528MOL0     H71245   1.509   2.447  -2.109  0.2778 -0.2273 -0.5107
  528MOL0     H71246   1.637   2.444  -1.883 -0.2285  2.2843 -0.8577
  528MOL0     H71247   1.498   2.387  -1.810 -0.5866  0.1795 -0.1426
  528MOL0     H71248   1.627   2.224  -2.027  0.5106 -2.0763  1.3782
  528MOL0     H71249   1.622   2.210  -1.852  0.7029  0.8233 -0.5626
  528MOL0     H71250   1.371   2.218  -1.999  2.4007  0.0765  0.0983
  528MOL0     H71251   1.406   2.164  -1.827 -0.8228  0.9440 -0.0081
  528MOL0     H71252   1.546   1.998  -1.930 -1.2096 -0.1889  1.5642
  528MOL0     H71253   1.475   2.033  -2.094 -0.2316 -0.6536  0.0050
  528MOL0     H71254   1.305   1.966  -1.860  2.8533 -2.4525  1.9974
  528MOL0     H71255   1.262   1.965  -2.038  0.3017 -0.4227 -0.3472
  528MOL0     H71256   1.496   1.796  -1.999  0.6315 -2.9651  1.3072
  528MOL0     H71257   1.341   1.747  -2.059 -1.1454 -2.0477  1.0019
  528MOL0     H71258   1.452   1.651  -1.851  0.6146  0.3210 -0.5912
  528MOL0     H71259   1.397   1.804  -1.764  1.4819  2.5770 -2.4405
  528MOL0     H71260   1.365   2.869  -1.994  2.2727 -1.8481 -1.0096
  528MOL0     H71261   1.206   2.969  -1.834 -3.6647 -0.5349 -1.0292
  528MOL0     H71262   0.980   2.850  -1.410  0.0938 -0.9322  0.1947
  528MOL0     H71263   0.842   2.914  -1.244  0.3806  0.4117  0.2300
  528MOL0     H71264   0.372   4.041  -0.310 -1.3434 -0.7800 -0.1157
  528MOL0     H71265   0.473   4.127  -0.092 -0.5423  0.5440  1.1354
  528MOL0     H71266   0.234   4.210   0.458 -0.6855  1.4914 -1.3749
  528MOL0     H71267   0.330   4.273   0.669 -1.9178 -1.3674 -0.8570
  528MOL0     H71268   0.608   4.204   0.933  0.9259  0.6236  0.1132
  528MOL0     H71269   0.463   4.162   0.842 -0.9988  0.9023 -4.1641
  528MOL0     H71270   0.424   4.424   0.815 -4.5046 -1.1920  1.4367
  528MOL0     H71271   0.582   4.452   0.891  0.3049  0.4712 -1.5906
  528MOL0     H71272   0.499   4.321   1.092 -1.2635  0.6881  1.5246
  528MOL0     H71273   0.352   4.298   1.018  1.0776 -0.9348 -0.1340
  528MOL0     H71274   0.454   4.592   1.050 -1.4760  1.8590 -1.1108
  528MOL0     H71275   0.291   4.540   1.012  0.6568  2.1296 -0.6407
  528MOL0     H71276   0.263   4.476   1.421  1.1550 -2.1203  0.5031
  528MOL0     H71277   0.729   4.190   0.509 -0.3249  0.0862 -1.5180
  528MOL0     H71278   0.650   4.164   0.161 -0.1552  1.3806  0.3441
  528MOL0     H71279   0.755   4.231   0.288  0.8002  1.0718 -0.5529
  528MOL0     H71280   0.710   4.051   0.281 -0.3833  0.1017  1.5834
  529MOL0     O71281   8.473   5.578   5.779 -0.2222 -0.0634 -0.2398
  529MOL0     C71282   8.419   5.487   5.718 -0.0869  1.5566  0.6198
  529MOL0     O71283   8.345   5.387   5.779 -0.5764 -0.7446 -0.0253
  529MOL0     C71284   8.299   5.409   5.903  0.8505 -1.5939 -0.0159
  529MOL0     C71285   8.383   5.384   6.012 -0.5344 -0.1080  0.5358
  529MOL0     C71286   8.334   5.403   6.146 -0.4370  0.6583  0.3444
  529MOL0     C71287   8.216   5.471   6.171 -0.1023  0.2490 -0.0246
  529MOL0     O71288   8.181   5.501   6.306 -0.7207  0.1189  0.6183
  529MOL0     C71289   8.085   5.604   6.330  0.4815  0.3757 -0.1788
  529MOL0     C71290   7.942   5.546   6.373  0.4510 -1.0463 -0.0179
  529MOL0     C71291   7.960   5.462   6.501 -0.6765  0.3418  0.3740
  529MOL0     C71292   7.851   5.365   6.548 -0.1247 -0.7007  0.2426
  529MOL0     C71293   7.728   5.453   6.596 -0.0383 -0.4791 -0.2361
  529MOL0     C71294   7.612   5.367   6.650 -0.0602 -0.0241 -0.2867
  529MOL0     C71295   7.486   5.456   6.656 -0.4599 -0.2148 -1.0331
  529MOL0     C71296   7.385   5.389   6.752  0.1566 -0.0112  0.0296
  529MOL0     N71297   7.253   5.435   6.723  0.1289 -0.4993 -0.6160
  529MOL0     C71298   7.171   5.385   6.619  0.2554 -0.8952 -0.2484
  529MOL0     C71299   7.054   5.433   6.655  0.4627 -0.0427  0.9514
  529MOL0     C71300   6.938   5.455   6.555 -0.6373  0.6149  0.0721
  529MOL0     C71301   6.834   5.347   6.565  0.8522 -0.2113  1.5681
  529MOL0     C71302   6.885   5.212   6.521 -0.7638  0.5945  1.0291
  529MOL0     C71303   6.923   5.179   6.376  0.1428  0.5380  0.9048
  529MOL0     O71304   7.040   5.258   6.352 -0.5158  0.1206 -0.0465
  529MOL0     C71305   7.100   5.252   6.230  0.3029 -0.3479 -0.4695
  529MOL0     C71306   7.202   5.351   6.217 -0.7420 -0.4077 -0.0780
  529MOL0     C71307   7.270   5.362   6.097 -0.2984  1.0037 -0.6443
  529MOL0     C71308   7.218   5.305   5.977  0.2203  0.2673  0.0885
  529MOL0     C71309   7.286   5.326   5.845 -0.8293  0.5330 -0.0566
  529MOL0     O71310   7.255   5.246   5.734 -0.1402 -0.1340 -0.0041
  529MOL0     C71311   7.343   5.251   5.628 -0.3243  0.0751  0.4980
  529MOL0     C71312   7.296   5.296   5.503  0.3846 -0.3525  0.2067
  529MOL0     C71313   7.380   5.330   5.396  0.2984 -0.4556 -0.3186
  529MOL0     C71314   7.514   5.316   5.404 -0.3763 -0.1749  0.5195
  529MOL0     O71315   7.601   5.361   5.307  0.6011  0.7051 -0.4707
  529MOL0     C71316   7.698   5.267   5.260  0.0640  0.4345  0.3525
  529MOL0     C71317   7.628   5.160   5.168 -0.4924  0.1831  1.4622
  529MOL0     C71318   7.598   5.240   5.029  0.0635  0.4362 -0.2604
  529MOL0     C71319   7.443   5.272   5.023 -0.4623 -0.1434  0.0620
  529MOL0     C71320   7.386   5.341   4.897  0.0792 -1.1590  0.7828
  529MOL0     C71321   7.438   5.488   4.891 -0.8998 -0.1503 -0.7339
  529MOL0     C71322   7.399   5.548   4.756  0.6319  0.6273  0.4165
  529MOL0     C71323   7.449   5.691   4.733  0.0904  0.2034 -1.3731
  529MOL0    Cl71324   7.386   5.757   4.596  0.2259  0.4097  0.2948
  529MOL0     C71325   7.566   5.270   5.522 -0.8011  0.7086 -0.0305
  529MOL0     C71326   7.488   5.237   5.637 -0.2148 -0.0996 -0.5591
  529MOL0     O71327   7.373   5.412   5.840  0.2944 -0.5633  0.3411
  529MOL0     C71328   7.111   5.226   5.987 -0.3193 -1.1432 -0.3943
  529MOL0     C71329   7.047   5.186   6.116 -0.5146  1.4085 -0.7468
  529MOL0     N71330   7.061   5.510   6.768  0.3029 -0.6943 -0.4542
  529MOL0     N71331   7.186   5.515   6.809  0.0936  0.4790 -0.5192
  529MOL0     C71332   8.150   5.513   6.057  0.7641  0.2109 -0.9255
  529MOL0     C71333   8.186   5.486   5.931 -0.0876  0.4643 -1.0334
  529MOL0     C71334   8.446   5.461   5.580  0.8835 -0.2302 -0.2598
  529MOL0     C71335   8.491   5.335   5.544 -0.6007 -0.0601 -0.5344
  529MOL0     C71336   8.509   5.292   5.414  0.3876  0.3013  0.6212
  529MOL0     C71337   8.466   5.381   5.313  0.1861  0.7130  0.6593
  529MOL0     O71338   8.492   5.339   5.184  0.1521 -0.5709  0.0647
  529MOL0     C71339   8.390   5.366   5.077 -0.8344  1.0821  0.1931
  529MOL0     C71340   8.328   5.232   5.026  0.1048  0.7840 -0.7578
  529MOL0     C71341   8.445   5.143   4.964  0.2546 -0.0203 -0.3875
  529MOL0     C71342   8.396   5.028   4.875  1.7682 -0.2539 -0.0146
  529MOL0     C71343   8.365   5.067   4.734  0.0522 -0.8720  0.4212
  529MOL0     C71344   8.356   5.087   4.612 -0.4967  0.2230 -0.0636
  529MOL0     C71345   8.414   5.509   5.342  0.7551 -0.0716  0.3281
  529MOL0     C71346   8.404   5.551   5.474 -1.1103  0.0263 -0.5056
  529MOL0     C71347   8.335   5.680   5.514 -0.0563  0.0150 -0.1012
  529MOL0     H71348   8.480   5.340   5.991  0.0844  0.1498  2.6532
  529MOL0     H71349   8.381   5.366   6.236 -1.2130  1.4965  1.1253
  529MOL0     H71350   8.104   5.656   6.424 -1.0968 -1.5726  1.3245
  529MOL0     H71351   8.080   5.684   6.255  4.3880 -1.6753 -3.0107
  529MOL0     H71352   7.915   5.481   6.289 -0.2443  1.8475 -2.2343
  529MOL0     H71353   7.871   5.629   6.379  2.9801  1.4220 -1.5320
  529MOL0     H71354   7.977   5.531   6.583  0.5387  1.9556 -1.1642
  529MOL0     H71355   8.057   5.416   6.482 -0.8953  1.0276 -3.3243
  529MOL0     H71356   7.816   5.307   6.462 -4.2040  2.8304 -0.8091
  529MOL0     H71357   7.886   5.295   6.625 -1.4280 -0.2354  1.2817
  529MOL0     H71358   7.747   5.524   6.677 -0.5689 -2.9607  2.2205
  529MOL0     H71359   7.695   5.506   6.506  0.1457 -1.5410 -0.9494
  529MOL0     H71360   7.599   5.284   6.579 -0.4153  1.9621 -2.6951
  529MOL0     H71361   7.638   5.335   6.751 -0.7611  0.8546  0.1814
  529MOL0     H71362   7.448   5.467   6.554 -5.4833  2.7253  0.7870
  529MOL0     H71363   7.508   5.558   6.688 -1.6083  0.1047 -1.2061
  529MOL0     H71364   7.386   5.280   6.750  0.2228 -0.0018 -1.7809
  529MOL0     H71365   7.426   5.423   6.848  1.7540  0.9224 -0.9319
  529MOL0     H71366   7.208   5.333   6.531  5.1853  0.6868  0.5786
  529MOL0     H71367   6.882   5.546   6.577  2.0273  1.6332  3.5870
  529MOL0     H71368   6.990   5.452   6.459  1.4055 -2.1241  1.1141
  529MOL0     H71369   6.784   5.346   6.662 -4.5595  0.9462 -0.8264
  529MOL0     H71370   6.756   5.383   6.496 -0.3001 -1.7881  1.9895
  529MOL0     H71371   6.813   5.131   6.542  0.7098 -0.7827  0.9768
  529MOL0     H71372   6.964   5.191   6.594 -0.4849 -0.4132  0.4587
  529MOL0     H71373   6.841   5.188   6.304  1.1795 -3.4437 -1.0759
  529MOL0     H71374   6.952   5.075   6.357  0.5478  0.8708 -0.3999
  529MOL0     H71375   7.246   5.389   6.309  0.8609 -3.1699  0.4003
  529MOL0     H71376   7.359   5.423   6.089  0.7625 -0.0386  2.0194
  529MOL0     H71377   7.191   5.322   5.498  0.2855 -0.9417 -1.6844
  529MOL0     H71378   7.337   5.374   5.306 -0.8730 -2.5919 -0.8877
  529MOL0     H71379   7.784   5.317   5.217 -0.2049  0.3325 -0.3118
  529MOL0     H71380   7.750   5.220   5.345  2.0655  1.0729 -0.4857
  529MOL0     H71381   7.697   5.078   5.145 -1.5084  0.0515 -1.5673
  529MOL0     H71382   7.539   5.118   5.215 -0.8628  1.4682  1.9550
  529MOL0     H71383   7.655   5.333   5.029  1.1607 -0.0612  3.6188
  529MOL0     H71384   7.623   5.177   4.944 -0.1175  0.3745 -0.2702
  529MOL0     H71385   7.410   5.327   5.112 -0.3016 -0.6020  0.4029
  529MOL0     H71386   7.391   5.177   5.037 -1.7159  0.2635 -1.4968
  529MOL0     H71387   7.278   5.356   4.893  0.1320 -0.8191 -3.2521
  529MOL0     H71388   7.415   5.293   4.803  0.4263  1.5422 -0.5787
  529MOL0     H71389   7.400   5.540   4.979  3.5785  0.7971  0.9107
  529MOL0     H71390   7.546   5.493   4.909 -1.1292  0.3942  0.5439
  529MOL0     H71391   7.291   5.551   4.741  0.4684  0.5532  1.5181
  529MOL0     H71392   7.433   5.489   4.670  0.3783 -0.3112  0.9501
  529MOL0     H71393   7.418   5.744   4.823  1.9640  1.2938 -1.3143
  529MOL0     H71394   7.559   5.691   4.732  0.1312  1.3218  0.0160
  529MOL0     H71395   7.670   5.242   5.539 -0.8133  0.4890 -0.2994
  529MOL0     H71396   7.526   5.197   5.731  1.3117  1.1316 -0.6137
  529MOL0     H71397   7.072   5.193   5.891  2.3337 -1.9427 -1.2844
  529MOL0     H71398   6.973   5.106   6.117 -0.7791  1.5920 -2.3510
  529MOL0     H71399   8.043   5.535   6.054  0.9931  1.3348 -1.6143
  529MOL0     H71400   8.115   5.518   5.855 -0.4241  5.6803  1.0650
  529MOL0     H71401   8.506   5.272   5.631 -1.5899  0.9262  0.3831
  529MOL0     H71402   8.534   5.191   5.384 -2.0256  0.7634 -3.6486
  529MOL0     H71403   8.441   5.421   4.998  1.3958 -0.0913  0.7186
  529MOL0     H71404   8.305   5.416   5.123 -0.1001  0.6681  2.1065
  529MOL0     H71405   8.258   5.255   4.944  1.3974 -0.4274 -2.2609
  529MOL0     H71406   8.279   5.176   5.106 -0.6545 -3.4082 -3.8120
  529MOL0     H71407   8.503   5.099   5.045 -0.7701 -1.1464 -0.2213
  529MOL0     H71408   8.512   5.195   4.895  1.9948 -1.6621 -0.0200
  529MOL0     H71409   8.470   4.950   4.858  0.9321 -1.4735  1.7117
  529MOL0     H71410   8.306   4.979   4.913 -2.0512  4.3626 -1.9265
  529MOL0     H71411   8.349   5.102   4.507 -2.3356  3.7052  0.4117
  529MOL0     H71412   8.381   5.581   5.268 -1.4216 -1.2709  0.0623
  529MOL0     H71413   8.255   5.668   5.588 -1.5259  0.6127 -1.5185
  529MOL0     H71414   8.412   5.745   5.557 -0.7718  0.6498  0.2503
  529MOL0     H71415   8.299   5.735   5.427 -1.9169  2.8528  2.2297
  530MOL0     O71416   5.615   9.973   1.190 -1.1341 -0.2823 -0.5191
  530MOL0     C71417   5.708  10.044   1.157 -1.3463  0.3837  0.6113
  530MOL0     O71418   5.691  10.152   1.076 -0.3233  0.0868  0.2471
  530MOL0     C71419   5.573  10.173   1.016 -0.2897  0.5023  0.6018
  530MOL0     C71420   5.541  10.140   0.881  0.2532 -0.2470 -0.8923
  530MOL0     C71421   5.412  10.154   0.823  0.1606  0.7695  0.8231
  530MOL0     C71422   5.311  10.206   0.903  0.0276  0.0679 -0.4186
  530MOL0     O71423   5.181  10.200   0.856  0.5908 -0.4360  0.8338
  530MOL0     C71424   5.113  10.082   0.909  0.2788  0.1509 -0.1475
  530MOL0     C71425   4.984  10.055   0.830  0.4364  0.6679  0.0969
  530MOL0     C71426   5.016  10.023   0.684 -0.7197 -0.7262  0.0477
  530MOL0     C71427   4.887   9.960   0.619  0.1006 -0.5977  0.0365
  530MOL0     C71428   4.885   9.983   0.463  1.2127  0.2064  0.2724
  530MOL0     C71429   4.740  10.000   0.403 -0.1095 -0.2000 -0.5351
  530MOL0     C71430   4.670  10.123   0.467  0.0484  0.2429  0.2181
  530MOL0     C71431   4.518  10.120   0.470 -0.8478  0.3266  0.2473
  530MOL0     N71432   4.471   9.994   0.529  0.4301  0.1421 -0.2010
  530MOL0     C71433   4.483   9.963   0.661  0.1202  0.0835 -0.0062
  530MOL0     C71434   4.440   9.835   0.678 -0.2008  0.7786 -0.0612
  530MOL0     C71435   4.428   9.746   0.804 -0.2561  0.2077  0.1358
  530MOL0     C71436   4.534   9.630   0.807 -0.9471 -0.2123  0.7284
  530MOL0     C71437   4.673   9.690   0.826 -0.0363 -0.3979  0.6614
  530MOL0     C71438   4.762   9.574   0.873  0.4066  0.8453 -1.1337
  530MOL0     O71439   4.887   9.619   0.913  0.3566 -0.1624 -0.0982
  530MOL0     C71440   4.975   9.519   0.949  0.5840 -0.3207  0.0613
  530MOL0     C71441   4.978   9.381   0.904  0.2153 -0.9171 -1.1868
  530MOL0     C71442   5.070   9.295   0.954  0.0908 -0.3591  0.3104
  530MOL0     C71443   5.178   9.336   1.040  0.4293 -0.0690  0.5015
  530MOL0     C71444   5.292   9.246   1.064  0.0548  0.1723 -0.9644
  530MOL0     O71445   5.394   9.296   1.145  0.2778  0.8337 -0.4115
  530MOL0     C71446   5.486   9.205   1.185  0.2902  0.0552  0.7922
  530MOL0     C71447   5.617   9.239   1.164  0.5145 -1.3217 -0.3412
  530MOL0     C71448   5.708   9.157   1.238  0.3013 -0.3451 -0.4306
  530MOL0     C71449   5.675   9.051   1.317 -0.7694 -0.3693  0.1704
  530MOL0     O71450   5.769   8.971   1.386 -0.7346  0.0099 -0.1617
  530MOL0     C71451   5.898   9.028   1.421 -1.4569  1.2997  0.3510
  530MOL0     C71452   5.980   8.931   1.507  0.3592 -0.5564 -0.2231
  530MOL0     C71453   6.009   8.798   1.430 -0.1894 -0.0011 -0.4250
  530MOL0     C71454   6.122   8.721   1.490  0.4564  0.1578  0.5692
  530MOL0     C71455   6.166   8.605   1.404 -0.3812  0.1299  0.8692
  530MOL0     C71456   6.197   8.638   1.263 -0.4814  0.8988  0.9384
  530MOL0     C71457   6.293   8.758   1.253  0.0427  0.3842 -0.9045
  530MOL0     C71458   6.393   8.751   1.136 -0.1714  0.2528 -0.2896
  530MOL0    Cl71459   6.527   8.633   1.184 -0.0339  0.1364  0.1529
  530MOL0     C71460   5.539   9.025   1.328 -0.0281 -0.6734  0.0120
  530MOL0     C71461   5.442   9.103   1.261 -0.4767  0.2763 -0.0142
  530MOL0     O71462   5.278   9.130   1.021 -0.6248  0.1632 -0.2350
  530MOL0     C71463   5.168   9.469   1.093  1.0520 -0.2810  0.7710
  530MOL0     C71464   5.067   9.560   1.041  1.7380  0.1036 -1.0537
  530MOL0     N71465   4.395   9.797   0.549  0.2305 -0.2981 -0.2547
  530MOL0     N71466   4.417   9.886   0.461 -0.0414 -0.1269 -0.7342
  530MOL0     C71467   5.341  10.239   1.029 -1.0814  0.4677  0.5973
  530MOL0     C71468   5.471  10.238   1.083  0.1197  1.8040 -0.0179
  530MOL0     C71469   5.841  10.016   1.207 -0.6370 -0.0199  0.7290
  530MOL0     C71470   5.927  10.125   1.223 -1.4428 -0.5474  0.5432
  530MOL0     C71471   6.051  10.100   1.275 -0.0484 -0.6997 -0.3014
  530MOL0     C71472   6.114   9.980   1.303  0.1578 -0.1932 -0.2880
  530MOL0     O71473   6.246   9.993   1.337  0.4698 -0.2976  0.2255
  530MOL0     C71474   6.318   9.864   1.366  0.1729 -0.2383  0.1207
  530MOL0     C71475   6.466   9.893   1.381  0.3148  0.5256 -0.0693
  530MOL0     C71476   6.491   9.974   1.514 -0.0990  0.8283 -0.0514
  530MOL0     C71477   6.645   9.997   1.520  0.0380 -0.2935 -0.6289
  530MOL0     C71478   6.674  10.056   1.655 -0.4337 -0.6382 -0.2235
  530MOL0     C71479   6.711  10.114   1.754  0.5607  0.1910  0.0654
  530MOL0     C71480   6.028   9.869   1.290  0.1081 -0.0752  0.3999
  530MOL0     C71481   5.892   9.884   1.231 -0.4091  0.3105  0.6756
  530MOL0     C71482   5.814   9.752   1.195  0.1952 -0.8051 -0.3425
  530MOL0     H71483   5.617  10.096   0.817 -0.7895 -2.7488 -0.5285
  530MOL0     H71484   5.390  10.113   0.725  1.0712  3.1735 -0.4598
  530MOL0     H71485   5.178   9.994   0.909 -0.1276 -0.1653  0.6098
  530MOL0     H71486   5.080  10.094   1.013  2.1110  1.7237  0.3046
  530MOL0     H71487   4.933  10.152   0.831  1.2717  1.1454 -1.4324
  530MOL0     H71488   4.918   9.974   0.863 -0.4791 -0.9311 -4.7777
  530MOL0     H71489   5.099   9.953   0.691  0.9157  1.2431  1.2430
  530MOL0     H71490   5.043  10.115   0.632  1.6981 -1.0436  0.6319
  530MOL0     H71491   4.869   9.855   0.645 -3.9707 -1.2737 -4.1075
  530MOL0     H71492   4.800  10.004   0.668 -0.0101  1.4187 -1.7940
  530MOL0     H71493   4.942  10.069   0.428 -0.6782  0.1506 -3.4249
  530MOL0     H71494   4.938   9.907   0.405  2.0812  1.5196 -0.7165
  530MOL0     H71495   4.730  10.003   0.295 -3.5709  0.2898 -0.3113
  530MOL0     H71496   4.688   9.913   0.444 -2.6396  1.9425  1.1424
  530MOL0     H71497   4.700  10.204   0.400 -0.2449  1.1723  1.1788
  530MOL0     H71498   4.700  10.166   0.563 -0.5932 -3.6093  2.3534
  530MOL0     H71499   4.469  10.211   0.506 -0.8238  0.5131 -0.1870
  530MOL0     H71500   4.495  10.115   0.364  2.8940  1.0119 -0.7325
  530MOL0     H71501   4.537  10.010   0.743  5.7918  0.6855 -3.5444
  530MOL0     H71502   4.443   9.814   0.889 -0.7897 -2.3679  2.4290
  530MOL0     H71503   4.330   9.704   0.830 -0.7646  1.1416 -0.2222
  530MOL0     H71504   4.511   9.558   0.887  2.7397 -1.4060  0.9103
  530MOL0     H71505   4.552   9.584   0.710 -0.4288  2.2860 -0.4363
  530MOL0     H71506   4.663   9.768   0.903 -2.4274  1.4093 -1.2839
  530MOL0     H71507   4.705   9.742   0.735  0.9450  1.0021  1.7538
  530MOL0     H71508   4.771   9.509   0.785 -0.8601 -0.5050 -0.3202
  530MOL0     H71509   4.703   9.529   0.954  0.0289  0.1275 -1.7790
  530MOL0     H71510   4.922   9.345   0.818 -0.3754 -0.5542 -0.9627
  530MOL0     H71511   5.058   9.198   0.907 -2.8637 -0.5322  1.2004
  530MOL0     H71512   5.660   9.335   1.136  0.4804 -0.6210  1.7812
  530MOL0     H71513   5.813   9.180   1.233 -0.0669  1.5537  0.0181
  530MOL0     H71514   5.954   9.063   1.334  0.1111 -3.1630 -0.7123
  530MOL0     H71515   5.884   9.118   1.482 -2.9576  1.2435  0.1228
  530MOL0     H71516   6.064   8.984   1.551 -1.4123  1.0581  1.4347
  530MOL0     H71517   5.909   8.892   1.581 -2.9877  1.3692 -2.1439
  530MOL0     H71518   5.922   8.731   1.429  0.8794 -1.5241  1.3952
  530MOL0     H71519   6.032   8.818   1.325  4.8230  2.7468  0.8714
  530MOL0     H71520   6.087   8.684   1.587 -1.3713  2.2917  0.7933
  530MOL0     H71521   6.205   8.790   1.505  3.1695 -3.0892  1.6521
  530MOL0     H71522   6.095   8.522   1.409 -2.4503  1.6164 -1.6169
  530MOL0     H71523   6.262   8.566   1.439 -1.1318 -3.3843 -0.5993
  530MOL0     H71524   6.246   8.547   1.228 -4.2598 -1.2289  0.7836
  530MOL0     H71525   6.109   8.638   1.199  0.3913 -2.0139 -0.4029
  530MOL0     H71526   6.347   8.776   1.347 -0.8128 -1.7142  0.0656
  530MOL0     H71527   6.225   8.843   1.246 -1.2184 -0.4172  0.9177
  530MOL0     H71528   6.337   8.721   1.046 -1.9479  1.6267  0.2988
  530MOL0     H71529   6.430   8.849   1.105 -1.0601  1.5591  2.4924
  530MOL0     H71530   5.503   8.944   1.391 -1.8818  2.4469  3.4365
  530MOL0     H71531   5.341   9.081   1.292  0.2823  1.3784  3.6414
  530MOL0     H71532   5.236   9.493   1.174  0.6044  2.9162  0.3375
  530MOL0     H71533   5.048   9.658   1.083 -0.5153  0.1479 -2.0518
  530MOL0     H71534   5.253  10.274   1.083  0.6253  3.0745  1.8644
  530MOL0     H71535   5.479  10.282   1.182 -0.6266 -0.6856  1.2406
  530MOL0     H71536   5.911  10.230   1.202  4.3628  0.8224  1.1749
  530MOL0     H71537   6.109  10.189   1.297 -1.9107  1.2057 -2.6744
  530MOL0     H71538   6.306   9.796   1.281  2.1880  1.9369 -2.0604
  530MOL0     H71539   6.283   9.816   1.458  0.7032 -4.8292 -1.8245
  530MOL0     H71540   6.502   9.957   1.299  2.1440  1.5558  1.4486
  530MOL0     H71541   6.524   9.800   1.380 -1.3411 -0.6496 -3.4249
  530MOL0     H71542   6.456   9.918   1.601 -3.8257  1.4552 -0.9700
  530MOL0     H71543   6.430  10.065   1.511 -1.7252 -0.2655 -0.7446
  530MOL0     H71544   6.714   9.912   1.510  1.0056  0.3707  0.2694
  530MOL0     H71545   6.675  10.059   1.434  0.4379 -0.0586 -0.3229
  530MOL0     H71546   6.726  10.181   1.837 -2.2164  1.4558 -0.3630
  530MOL0     H71547   6.059   9.766   1.307 -2.5255 -0.6679  2.4411
  530MOL0     H71548   5.790   9.753   1.089 -1.4190 -1.1683 -0.0001
  530MOL0     H71549   5.855   9.656   1.226  3.3569  0.4482 -0.2411
  530MOL0     H71550   5.721   9.759   1.252 -0.0979 -0.1516 -0.8953
  531MOL0     O71551  10.896   9.633   7.772 -0.3541 -0.6187 -0.1309
  531MOL0     C71552  10.899   9.759   7.764  0.8856  0.2501 -0.2824
  531MOL0     O71553  10.786   9.833   7.791 -0.4176 -0.0901 -0.4002
  531MOL0     C71554  10.674   9.760   7.797  1.4902 -0.0411  0.0438
  531MOL0     C71555  10.640   9.671   7.898 -0.7216 -0.1301 -0.0910
  531MOL0     C71556  10.523   9.593   7.900 -0.0997  0.1899 -0.9715
  531MOL0     C71557  10.440   9.607   7.794 -1.0789  0.4460 -0.2189
  531MOL0     O71558  10.328   9.537   7.790  0.2265  0.0662 -0.0186
  531MOL0     C71559  10.307   9.417   7.867 -0.6963  1.1214 -1.0473
  531MOL0     C71560  10.185   9.344   7.812 -0.0766 -0.3904 -0.3759
  531MOL0     C71561  10.137   9.222   7.891 -1.1145 -0.5734 -0.4787
  531MOL0     C71562  10.010   9.164   7.821  0.1036 -0.6995  0.0419
  531MOL0     C71563   9.911   9.112   7.935 -0.7454 -0.8055  1.1329
  531MOL0     C71564   9.802   9.027   7.861  0.5041  0.9370 -0.0670
  531MOL0     C71565   9.714   8.946   7.962  0.4329 -0.8858  0.7083
  531MOL0     C71566   9.626   8.852   7.880 -0.3871 -0.4041 -0.2919
  531MOL0     N71567   9.530   8.797   7.976 -0.9712 -0.2164 -1.0871
  531MOL0     C71568   9.409   8.845   8.024 -0.4029  0.1226  0.3541
  531MOL0     C71569   9.364   8.744   8.102  0.5558 -0.5778 -0.7016
  531MOL0     C71570   9.258   8.748   8.202  0.3995 -0.1312 -0.0784
  531MOL0     C71571   9.161   8.626   8.177  0.7706  0.5995  0.1524
  531MOL0     C71572   9.149   8.524   8.294  1.0545 -0.3007 -0.2104
  531MOL0     C71573   9.232   8.403   8.290  0.2148 -1.5996 -0.6770
  531MOL0     O71574   9.203   8.337   8.169 -0.1337  1.2905 -0.1415
  531MOL0     C71575   9.217   8.197   8.176 -0.3281 -0.4587  1.0912
  531MOL0     C71576   9.352   8.132   8.180 -1.1503  0.3898 -0.3410
  531MOL0     C71577   9.350   7.987   8.189 -0.4023 -0.3940 -0.0878
  531MOL0     C71578   9.223   7.922   8.218  0.2256  0.1226 -0.5787
  531MOL0     C71579   9.221   7.773   8.232 -0.4940  0.3771 -0.5149
  531MOL0     O71580   9.108   7.712   8.271  0.0374 -0.0886  0.0016
  531MOL0     C71581   9.092   7.572   8.270 -0.2206  0.2479 -0.1978
  531MOL0     C71582   9.026   7.518   8.380  0.6372 -0.1038 -0.0878
  531MOL0     C71583   9.015   7.379   8.394 -0.9645  0.2108 -0.2963
  531MOL0     C71584   9.074   7.296   8.297  0.2023  0.6938  0.3633
  531MOL0     O71585   9.079   7.160   8.327  0.0922  0.1474  0.0213
  531MOL0     C71586   8.966   7.102   8.400  0.3824  0.4797 -0.3463
  531MOL0     C71587   8.990   6.957   8.432 -0.3075 -0.1141 -0.2099
  531MOL0     C71588   9.008   6.871   8.302  0.3483  0.0553 -1.0630
  531MOL0     C71589   8.989   6.716   8.314 -0.1738 -0.2098 -1.1453
  531MOL0     C71590   8.968   6.641   8.180 -0.1589  0.1712  1.5536
  531MOL0     C71591   8.982   6.489   8.186  0.8076 -0.3914  0.3173
  531MOL0     C71592   9.118   6.443   8.244 -0.0079  0.5886  0.0281
  531MOL0     C71593   9.183   6.316   8.177  0.0314 -0.9208 -0.6449
  531MOL0    Cl71594   9.280   6.239   8.311  0.4841  0.2700  0.3583
  531MOL0     C71595   9.129   7.350   8.180 -0.3350  0.2943 -0.7263
  531MOL0     C71596   9.157   7.487   8.177  0.4694  0.0525  0.8864
  531MOL0     O71597   9.315   7.720   8.188  0.4471 -0.1176 -0.0394
  531MOL0     C71598   9.104   7.992   8.219 -0.3295 -0.4475  0.6745
  531MOL0     C71599   9.101   8.126   8.189 -0.2252 -0.0630  0.9208
  531MOL0     N71600   9.455   8.639   8.099 -0.0510 -0.0280  0.0758
  531MOL0     N71601   9.552   8.669   8.019  0.1749  0.3413  0.1880
  531MOL0     C71602  10.463   9.704   7.694 -1.6847  0.0373 -0.3948
  531MOL0     C71603  10.577   9.786   7.699 -0.1261 -0.4046  0.7356
  531MOL0     C71604  11.020   9.835   7.764 -0.6405 -0.0303  0.1283
  531MOL0     C71605  11.063   9.897   7.648 -0.4711 -0.8754  0.0706
  531MOL0     C71606  11.188   9.957   7.639  0.6439 -0.0064 -1.0477
  531MOL0     C71607  11.264   9.974   7.753  0.5158 -0.3291 -0.6510
  531MOL0     O71608  11.367  10.060   7.746  0.4372  0.4558  0.1344
  531MOL0     C71609  11.477  10.054   7.832 -0.4601 -0.2913  0.0763
  531MOL0     C71610  11.605  10.134   7.786 -0.4381  0.6095  0.5234
  531MOL0     C71611  11.655  10.060   7.658  0.0588  0.0248  0.4025
  531MOL0     C71612  11.788   9.985   7.675  0.0913  0.2512 -0.0434
  531MOL0     C71613  11.799   9.909   7.797 -0.5033 -0.7932  0.0483
  531MOL0     C71614  11.793   9.836   7.898 -1.0433  0.4230  0.1323
  531MOL0     C71615  11.226   9.920   7.880 -1.0238  0.1535 -0.0792
  531MOL0     C71616  11.102   9.843   7.883  0.5935 -0.9642  0.5296
  531MOL0     C71617  11.059   9.784   8.016 -1.2633  0.3595 -0.2990
  531MOL0     H71618  10.715   9.667   7.977 -1.6220  1.3937  0.8806
  531MOL0     H71619  10.503   9.527   7.984  1.3108  0.5228 -0.3449
  531MOL0     H71620  10.396   9.355   7.857  0.2950  2.5654 -1.6076
  531MOL0     H71621  10.298   9.444   7.972  0.6598 -3.4801  0.4918
  531MOL0     H71622  10.217   9.303   7.716  5.5232  1.2201  0.4534
  531MOL0     H71623  10.106   9.419   7.809  1.5992  1.6977  2.3367
  531MOL0     H71624  10.122   9.242   7.997  5.2756 -2.3518  1.1831
  531MOL0     H71625  10.202   9.134   7.891 -1.7335 -1.0411 -0.6104
  531MOL0     H71626   9.952   9.238   7.766 -1.6116 -0.9371  1.4351
  531MOL0     H71627  10.034   9.076   7.760  2.5178 -1.0123  1.3040
  531MOL0     H71628   9.971   9.053   8.005 -1.2010 -0.1309  2.1206
  531MOL0     H71629   9.867   9.194   7.992  1.1728  2.1510 -1.3547
  531MOL0     H71630   9.733   9.091   7.806 -1.7433 -0.3902  1.0577
  531MOL0     H71631   9.847   8.971   7.779  1.8460 -0.3379  1.4485
  531MOL0     H71632   9.651   9.012   8.023  0.6186 -0.2957  0.2695
  531MOL0     H71633   9.780   8.886   8.026  1.4398 -0.1020  0.4328
  531MOL0     H71634   9.563   8.896   7.803 -0.8029 -2.7379 -1.3464
  531MOL0     H71635   9.682   8.772   7.832  2.8507  0.3615  1.8448
  531MOL0     H71636   9.357   8.939   8.008 -3.6687 -1.1766  2.3415
  531MOL0     H71637   9.307   8.729   8.298  3.2500 -0.2327 -1.4590
  531MOL0     H71638   9.205   8.844   8.208  3.2920  1.7365 -2.2169
  531MOL0     H71639   9.070   8.686   8.167  2.3344  2.7066 -2.8807
  531MOL0     H71640   9.173   8.573   8.082 -0.0846  1.9617 -0.7492
  531MOL0     H71641   9.043   8.500   8.308  0.5677  2.3002  1.2822
  531MOL0     H71642   9.166   8.582   8.385  0.3922  0.4521 -0.5543
  531MOL0     H71643   9.217   8.342   8.379 -0.0905 -2.7530 -1.4954
  531MOL0     H71644   9.333   8.445   8.295 -0.4992  0.1928 -0.5298
  531MOL0     H71645   9.446   8.186   8.173 -0.1120 -1.6022 -3.3198
  531MOL0     H71646   9.438   7.928   8.166 -2.0125 -2.6579 -0.7761
  531MOL0     H71647   8.977   7.578   8.456 -1.0681  0.6226 -1.6806
  531MOL0     H71648   8.976   7.339   8.488  1.3527  2.0268  1.5688
  531MOL0     H71649   8.938   7.145   8.497 -2.4999 -0.7451 -0.5275
  531MOL0     H71650   8.875   7.101   8.338  2.2809 -2.9235 -3.5006
  531MOL0     H71651   9.078   6.934   8.493 -0.7134 -1.7683 -0.1869
  531MOL0     H71652   8.906   6.928   8.496 -0.8256  1.7321  0.0037
  531MOL0     H71653   8.933   6.901   8.228 -0.3985  4.1264  1.0326
  531MOL0     H71654   9.101   6.901   8.253  1.8657  1.5118  2.3623
  531MOL0     H71655   8.913   6.685   8.387  2.6324 -1.0672  1.6622
  531MOL0     H71656   9.088   6.697   8.359 -0.2873  0.8005 -0.4452
  531MOL0     H71657   9.048   6.679   8.117 -0.3361  2.5934  2.6896
  531MOL0     H71658   8.877   6.673   8.128  1.6146  1.7439 -0.8153
  531MOL0     H71659   8.894   6.457   8.242  0.0997  1.4765  0.3592
  531MOL0     H71660   8.972   6.448   8.085 -1.0092 -1.3888  0.8638
  531MOL0     H71661   9.104   6.418   8.349  1.8555  1.3809  0.4959
  531MOL0     H71662   9.194   6.521   8.253 -0.5801  1.0887  0.6900
  531MOL0     H71663   9.109   6.248   8.135 -0.2575 -2.4163  2.0348
  531MOL0     H71664   9.241   6.337   8.086  1.2710 -2.5996 -0.2901
  531MOL0     H71665   9.188   7.288   8.114  1.6382  0.8442  0.4294
  531MOL0     H71666   9.209   7.522   8.088 -0.3092  0.1086  0.4443
  531MOL0     H71667   9.003   7.953   8.223 -0.5735 -0.0063 -0.6981
  531MOL0     H71668   9.005   8.174   8.170 -0.7923 -2.6813 -4.8469
  531MOL0     H71669  10.397   9.734   7.613 -2.5043  2.5016  1.0987
  531MOL0     H71670  10.584   9.863   7.623 -1.3909 -0.8697  0.1224
  531MOL0     H71671  10.998   9.915   7.564 -0.1214  1.8272  0.2884
  531MOL0     H71672  11.225   9.997   7.545  2.4653 -2.3348 -1.4147
  531MOL0     H71673  11.500   9.950   7.855  0.5721  0.2367  1.5559
  531MOL0     H71674  11.455  10.091   7.933  0.7441  0.9053 -0.0639
  531MOL0     H71675  11.683  10.130   7.862  0.1489 -0.5154 -0.1143
  531MOL0     H71676  11.600  10.242   7.769 -1.8826  0.9178  2.5992
  531MOL0     H71677  11.681  10.134   7.582 -0.0550  1.3793  1.6390
  531MOL0     H71678  11.573   9.992   7.632  0.9079 -0.7276 -0.3309
  531MOL0     H71679  11.794   9.917   7.589 -3.5080  1.4924 -1.4881
  531MOL0     H71680  11.870  10.056   7.661 -1.3360  1.5666 -2.3305
  531MOL0     H71681  11.796   9.766   7.979 -0.3223  1.9885  1.5199
  531MOL0     H71682  11.275   9.943   7.974 -2.0946  0.6835  0.3645
  531MOL0     H71683  10.950   9.779   8.027 -1.1591 -2.2451  0.2377
  531MOL0     H71684  11.089   9.680   8.003 -0.8179  0.6719 -2.0235
  531MOL0     H71685  11.108   9.827   8.104  1.9738 -0.2249 -1.6894
  532MOL0     O71686   4.037   5.224   0.268 -0.0098  0.2977 -0.3330
  532MOL0     C71687   3.950   5.302   0.240  0.3490 -0.0649  0.6812
  532MOL0     O71688   3.973   5.439   0.243  0.0603 -0.2755 -0.4501
  532MOL0     C71689   4.074   5.477   0.334  0.0806 -1.4060 -0.1724
  532MOL0     C71690   4.040   5.530   0.460  0.2615 -0.6983 -0.5961
  532MOL0     C71691   4.156   5.560   0.541  0.1279  0.2993  0.7251
  532MOL0     C71692   4.291   5.563   0.498  0.0903 -0.2512  0.3937
  532MOL0     O71693   4.385   5.610   0.585 -0.3807  0.4972  0.8455
  532MOL0     C71694   4.414   5.754   0.574  0.0792  0.2719 -0.1951
  532MOL0     C71695   4.304   5.859   0.597  0.3678  0.3729  0.2001
  532MOL0     C71696   4.356   6.000   0.580 -0.1966  1.0745  0.7190
  532MOL0     C71697   4.250   6.087   0.514  0.1831  0.4886 -0.5901
  532MOL0     C71698   4.302   6.203   0.435  0.5671  0.9358 -0.9150
  532MOL0     C71699   4.404   6.281   0.512  0.2497 -0.6163 -0.0781
  532MOL0     C71700   4.346   6.367   0.625  0.8260  0.4166 -0.4490
  532MOL0     C71701   4.454   6.420   0.718 -0.2128 -0.7758 -0.6505
  532MOL0     N71702   4.540   6.520   0.648  0.5804  0.4184 -0.5662
  532MOL0     C71703   4.502   6.611   0.550  0.0087  0.5345  1.2289
  532MOL0     C71704   4.620   6.674   0.515 -1.1359 -0.5560  0.4972
  532MOL0     C71705   4.650   6.781   0.413  0.4555 -0.2309  0.5515
  532MOL0     C71706   4.775   6.866   0.447 -0.6199 -0.7184  0.4704
  532MOL0     C71707   4.750   6.938   0.577 -0.4099  0.9001  0.3253
  532MOL0     C71708   4.840   7.062   0.571 -0.2586  0.3660 -0.6020
  532MOL0     O71709   4.974   7.025   0.543 -0.1327  0.0227  0.2504
  532MOL0     C71710   5.071   7.122   0.528  1.2699 -0.6781 -0.4464
  532MOL0     C71711   5.188   7.092   0.454  0.2753 -0.3027 -0.6275
  532MOL0     C71712   5.288   7.186   0.425  0.1672 -0.6391  1.1611
  532MOL0     C71713   5.289   7.314   0.488  0.4045  0.2459  0.1067
  532MOL0     C71714   5.402   7.405   0.471 -0.3375  0.2632  0.7773
  532MOL0     O71715   5.388   7.524   0.530  0.5504 -0.2051 -0.8081
  532MOL0     C71716   5.508   7.596   0.532  0.1341  0.3410 -0.8461
  532MOL0     C71717   5.556   7.662   0.424 -0.4375 -0.9769 -0.1525
  532MOL0     C71718   5.682   7.717   0.428  0.2169  0.4173  0.1302
  532MOL0     C71719   5.771   7.702   0.541 -0.4776 -0.6085  0.3910
  532MOL0     O71720   5.900   7.747   0.503 -0.2088  0.4284 -0.2236
  532MOL0     C71721   5.995   7.755   0.615 -0.4268 -0.3503 -0.4145
  532MOL0     C71722   5.981   7.863   0.723 -0.4373  0.0657 -0.1914
  532MOL0     C71723   6.101   7.859   0.811  0.6225 -0.2217  0.6845
  532MOL0     C71724   6.066   7.901   0.956 -0.0463  0.2400  0.3788
  532MOL0     C71725   6.196   7.903   1.032  0.3516  0.5392  0.3569
  532MOL0     C71726   6.170   7.953   1.175 -0.4678  0.3354 -0.7442
  532MOL0     C71727   6.310   7.978   1.235 -0.8421 -0.2888 -0.2019
  532MOL0     C71728   6.305   8.010   1.380  0.0936 -0.2555  0.1695
  532MOL0    Cl71729   6.223   8.164   1.398  0.6186 -0.3991  0.3115
  532MOL0     C71730   5.719   7.644   0.654 -0.4939  0.9285  0.2028
  532MOL0     C71731   5.595   7.580   0.645  1.4147 -0.3678  0.5503
  532MOL0     O71732   5.501   7.365   0.404  0.1386  0.1889  0.2814
  532MOL0     C71733   5.174   7.341   0.566  0.4786 -0.2612 -0.0255
  532MOL0     C71734   5.063   7.254   0.576 -0.4731 -0.2256  1.5214
  532MOL0     N71735   4.719   6.608   0.581  0.5066  0.5087  0.0693
  532MOL0     N71736   4.671   6.521   0.663  0.5351 -0.9869 -1.2680
  532MOL0     C71737   4.310   5.524   0.364 -0.5257  0.2386 -0.1376
  532MOL0     C71738   4.201   5.475   0.290 -0.3152  0.9361  0.5865
  532MOL0     C71739   3.823   5.256   0.188 -0.3259  0.7029 -0.2696
  532MOL0     C71740   3.759   5.330   0.092 -0.9727  0.6555  0.2046
  532MOL0     C71741   3.640   5.285   0.033 -0.0069  0.0683 -0.0654
  532MOL0     C71742   3.575   5.163   0.076  0.2266  0.4069 -0.1748
  532MOL0     O71743   3.470   5.101   0.009 -0.7605  0.2704 -0.0458
  532MOL0     C71744   3.445   4.967   0.025  0.1320  0.5881  0.2566
  532MOL0     C71745   3.356   4.915  -0.085 -0.1884 -0.0140 -0.6173
  532MOL0     C71746   3.315   4.767  -0.071  0.3232 -0.2770  0.7494
  532MOL0     C71747   3.239   4.731  -0.193  0.8961  0.3862 -0.0674
  532MOL0     C71748   3.169   4.597  -0.178 -0.4729  0.3164 -0.4993
  532MOL0     C71749   3.113   4.500  -0.177  1.1452  0.7829  0.4518
  532MOL0     C71750   3.629   5.106   0.202  0.0899 -0.1912  0.2473
  532MOL0     C71751   3.755   5.152   0.253 -0.4702  0.1569  0.2810
  532MOL0     C71752   3.784   5.107   0.400 -0.0892 -0.5653  0.4006
  532MOL0     H71753   3.941   5.538   0.503 -0.2254  2.9329 -2.0728
  532MOL0     H71754   4.139   5.595   0.643 -1.6886  3.1325 -0.4395
  532MOL0     H71755   4.486   5.772   0.654 -1.5453  1.3681  1.1087
  532MOL0     H71756   4.455   5.765   0.473 -0.1826 -0.9096 -0.4362
  532MOL0     H71757   4.278   5.860   0.703  0.1660 -0.3732  0.1588
  532MOL0     H71758   4.216   5.825   0.543 -0.0997  0.5642  0.8274
  532MOL0     H71759   4.438   5.997   0.507  0.0439 -0.8151  1.0117
  532MOL0     H71760   4.403   6.034   0.673  3.1265 -1.0284  0.0080
  532MOL0     H71761   4.194   6.024   0.443  2.4979  0.1184 -2.1939
  532MOL0     H71762   4.187   6.110   0.600  1.4782  0.9858  0.2577
  532MOL0     H71763   4.331   6.151   0.343 -1.1635 -0.1834 -0.8764
  532MOL0     H71764   4.220   6.270   0.406  0.5271  1.5131  0.4508
  532MOL0     H71765   4.477   6.210   0.552  2.0269  0.8344 -0.6460
  532MOL0     H71766   4.457   6.350   0.447 -0.5485  0.8876  0.8151
  532MOL0     H71767   4.287   6.311   0.698  0.2025  1.6628  0.0166
  532MOL0     H71768   4.292   6.450   0.579 -1.1458 -0.9572 -0.7662
  532MOL0     H71769   4.402   6.465   0.803  2.3237  1.0726  0.0552
  532MOL0     H71770   4.515   6.340   0.761 -1.6582 -0.9572  1.2084
  532MOL0     H71771   4.404   6.617   0.503  2.0496  0.5233 -3.6505
  532MOL0     H71772   4.671   6.728   0.320 -0.1926  0.4210  0.0157
  532MOL0     H71773   4.561   6.843   0.395  0.7196  1.0187  3.0616
  532MOL0     H71774   4.866   6.805   0.446 -1.1310 -1.5507 -1.6136
  532MOL0     H71775   4.780   6.935   0.362  0.7838 -1.1796  0.1624
  532MOL0     H71776   4.780   6.871   0.658 -1.7369  2.1837  1.9514
  532MOL0     H71777   4.643   6.954   0.589 -0.6723 -1.3621  1.4774
  532MOL0     H71778   4.835   7.100   0.674 -0.0092 -1.3927  0.0829
  532MOL0     H71779   4.812   7.140   0.499  0.8357  0.3027 -1.1121
  532MOL0     H71780   5.192   6.990   0.417  1.1062 -0.9678  1.1458
  532MOL0     H71781   5.373   7.159   0.363  0.8226 -0.8512  2.1309
  532MOL0     H71782   5.496   7.677   0.334 -1.3432  3.1442  0.9178
  532MOL0     H71783   5.725   7.736   0.330 -1.6781 -2.9480 -1.5312
  532MOL0     H71784   5.997   7.653   0.655 -1.3374 -1.7451 -3.6489
  532MOL0     H71785   6.093   7.775   0.570 -1.0551  1.1801 -1.1508
  532MOL0     H71786   5.977   7.958   0.670 -0.3825  1.1774  1.6827
  532MOL0     H71787   5.892   7.848   0.784  0.6742  1.4514  1.9043
  532MOL0     H71788   6.129   7.753   0.813 -2.6459 -1.2607 -1.2498
  532MOL0     H71789   6.185   7.921   0.778  0.6496  0.2380  1.5900
  532MOL0     H71790   5.991   7.834   0.998 -0.5828 -0.6572 -1.8560
  532MOL0     H71791   6.031   8.005   0.956  0.0047  0.2566  0.5111
  532MOL0     H71792   6.268   7.976   0.992 -3.1106  2.4571 -3.0543
  532MOL0     H71793   6.240   7.803   1.024  2.3839  1.1527  2.6068
  532MOL0     H71794   6.116   8.047   1.164 -0.2698  0.5530  0.1257
  532MOL0     H71795   6.104   7.879   1.221 -0.4795  1.5869  1.3533
  532MOL0     H71796   6.378   8.047   1.184  0.0721 -0.6966  0.4430
  532MOL0     H71797   6.354   7.879   1.222 -0.8001 -0.0698 -2.1548
  532MOL0     H71798   6.244   7.936   1.432 -2.5170  0.4608 -1.6767
  532MOL0     H71799   6.409   8.027   1.411 -0.2755  1.9873  0.3919
  532MOL0     H71800   5.778   7.635   0.744 -2.4934 -3.2214  1.3257
  532MOL0     H71801   5.559   7.507   0.716  3.7795 -2.2880 -0.0849
  532MOL0     H71802   5.163   7.444   0.601 -0.5378 -0.9726  1.8844
  532MOL0     H71803   4.980   7.304   0.623 -1.1229  0.8635 -0.6331
  532MOL0     H71804   4.410   5.514   0.323 -0.0716  1.5784  0.6085
  532MOL0     H71805   4.221   5.447   0.188 -0.7809 -0.0161  0.7395
  532MOL0     H71806   3.797   5.417   0.040  0.4476 -0.0523  0.0101
  532MOL0     H71807   3.611   5.338  -0.057  1.7663  0.9132 -0.1652
  532MOL0     H71808   3.389   4.962   0.119 -0.4129 -3.9475 -0.0680
  532MOL0     H71809   3.536   4.905   0.030 -0.2020 -0.1883 -2.0877
  532MOL0     H71810   3.424   4.928  -0.170 -0.2713  2.0091 -0.4169
  532MOL0     H71811   3.271   4.984  -0.081 -1.1821 -1.0614 -2.3399
  532MOL0     H71812   3.243   4.757   0.011  0.2427 -4.0238  0.4013
  532MOL0     H71813   3.395   4.693  -0.059  0.8873  0.3485  0.8574
  532MOL0     H71814   3.163   4.809  -0.197  1.9812  1.6509  1.8761
  532MOL0     H71815   3.294   4.722  -0.287 -1.2452 -5.4302 -1.1173
  532MOL0     H71816   3.062   4.407  -0.193 -0.2006  1.4153  0.9003
  532MOL0     H71817   3.581   5.025   0.256 -0.5505  0.5314  0.7837
  532MOL0     H71818   3.841   5.014   0.400 -0.5940 -0.8971 -0.6903
  532MOL0     H71819   3.843   5.184   0.451 -0.0807  1.1099 -1.9309
  532MOL0     H71820   3.695   5.084   0.459  0.5661 -1.1873  1.1497
  533MOL0     O71821   2.541   1.698   6.781 -0.3036 -0.3871 -0.7697
  533MOL0     C71822   2.471   1.792   6.740  0.1532 -0.9110 -0.0072
  533MOL0     O71823   2.332   1.798   6.743  0.7243  0.4012  0.2846
  533MOL0     C71824   2.286   1.703   6.824 -0.5344  0.3996  0.3947
  533MOL0     C71825   2.280   1.717   6.965 -1.4506  0.9638  0.1050
  533MOL0     C71826   2.243   1.617   7.049 -0.3000  1.0811 -0.1261
  533MOL0     C71827   2.188   1.503   6.992  0.2740 -0.8367  0.8125
  533MOL0     O71828   2.132   1.396   7.057 -0.2193  0.8197 -0.1079
  533MOL0     C71829   2.018   1.443   7.122 -0.1246  0.3676  1.0831
  533MOL0     C71830   1.984   1.342   7.231  0.2433 -0.7651 -0.3078
  533MOL0     C71831   2.088   1.355   7.345  0.0342 -0.5256  0.2190
  533MOL0     C71832   2.061   1.270   7.467  0.2331  0.6242  0.6778
  533MOL0     C71833   1.935   1.327   7.542  0.5263  0.2542 -0.3347
  533MOL0     C71834   1.875   1.237   7.654 -1.0280  0.0333  0.4762
  533MOL0     C71835   1.960   1.264   7.776  0.5141  1.2341  0.0058
  533MOL0     C71836   1.931   1.173   7.892  0.9611  0.0687  0.0106
  533MOL0     N71837   1.932   1.026   7.873  0.0405  0.0711 -0.0619
  533MOL0     C71838   1.849   0.941   7.938 -0.0959 -1.1989  0.2070
  533MOL0     C71839   1.874   0.817   7.891 -0.4346  0.7997  0.6224
  533MOL0     C71840   1.786   0.694   7.928 -0.4306  0.3752  0.3249
  533MOL0     C71841   1.804   0.582   7.823  0.0434  0.1588  0.8789
  533MOL0     C71842   1.739   0.464   7.870 -0.3037 -0.0470  0.7455
  533MOL0     C71843   1.766   0.349   7.765 -0.4577 -0.5354  0.4490
  533MOL0     O71844   1.660   0.243   7.791  0.0361  0.3315  0.4436
  533MOL0     C71845   1.575   0.221   7.683 -0.2202  0.1315 -0.1805
  533MOL0     C71846   1.445   0.262   7.664  1.0303 -0.2211 -0.8994
  533MOL0     C71847   1.368   0.220   7.557 -0.1275  0.2149  0.0706
  533MOL0     C71848   1.413   0.122   7.470 -0.7718 -0.0070 -0.6930
  533MOL0     C71849   1.326   0.059   7.369 -0.9020 -0.2299 -0.3273
  533MOL0     O71850   1.385  -0.010   7.269 -0.5610 -0.4728  0.7491
  533MOL0     C71851   1.303  -0.059   7.165  0.5908  0.0525  0.1584
  533MOL0     C71852   1.369  -0.065   7.038  0.2760 -0.6881  0.2664
  533MOL0     C71853   1.290  -0.121   6.926 -0.4172 -0.6813  0.0353
  533MOL0     C71854   1.160  -0.165   6.935  0.5349  0.4212 -0.7689
  533MOL0     O71855   1.108  -0.219   6.825 -0.5097 -0.3437 -0.1495
  533MOL0     C71856   0.977  -0.266   6.822 -0.1718 -0.2520  0.0373
  533MOL0     C71857   0.889  -0.143   6.796 -0.1940  0.3770  0.6202
  533MOL0     C71858   0.744  -0.173   6.795  0.8497  0.3511 -0.0100
  533MOL0     C71859   0.665  -0.038   6.792  0.4745  0.1234 -0.4104
  533MOL0     C71860   0.676   0.048   6.915 -0.0316 -0.5294 -0.2911
  533MOL0     C71861   0.626  -0.017   7.044 -0.5265  0.5694 -0.0211
  533MOL0     C71862   0.624   0.064   7.168 -0.2504  0.0452  0.1789
  533MOL0     C71863   0.547   0.205   7.148  1.1740  0.0517  0.3989
  533MOL0    Cl71864   0.379   0.171   7.091 -0.1113  0.3631 -0.5397
  533MOL0     C71865   1.110  -0.165   7.066  1.3972 -0.4902  0.6322
  533MOL0     C71866   1.178  -0.114   7.185 -0.7320  0.5680 -0.8315
  533MOL0     O71867   1.209   0.086   7.382  0.1379 -0.4716  0.5583
  533MOL0     C71868   1.543   0.082   7.482 -0.8049  0.5805 -0.2998
  533MOL0     C71869   1.630   0.133   7.591  0.7768 -0.1593 -0.0026
  533MOL0     N71870   1.980   0.827   7.804 -0.3835 -0.2364 -0.4751
  533MOL0     N71871   2.015   0.954   7.794 -0.0514  0.3652 -0.6328
  533MOL0     C71872   2.204   1.489   6.854  0.6944 -0.8045 -0.0703
  533MOL0     C71873   2.250   1.582   6.763 -0.2461  0.3540 -0.1017
  533MOL0     C71874   2.550   1.903   6.679  0.0176 -0.1146 -0.4244
  533MOL0     C71875   2.493   2.032   6.697 -0.8717  0.6359 -0.0170
  533MOL0     C71876   2.551   2.150   6.636  0.2567 -0.0441 -0.5962
  533MOL0     C71877   2.661   2.135   6.551 -0.1302  0.1289  0.3074
  533MOL0     O71878   2.704   2.253   6.487  0.0039 -0.0472  0.3324
  533MOL0     C71879   2.808   2.264   6.386  0.6758 -0.0252 -0.0371
  533MOL0     C71880   2.946   2.269   6.459 -0.3641 -0.1296  0.0983
  533MOL0     C71881   3.072   2.251   6.366  0.9826 -0.3206 -0.2617
  533MOL0     C71882   3.063   2.358   6.252  0.0782 -0.7905 -0.8018
  533MOL0     C71883   3.197   2.375   6.196  0.1035 -0.3012  0.3024
  533MOL0     C71884   3.304   2.392   6.135  0.1203 -0.3339  0.3945
  533MOL0     C71885   2.717   2.008   6.533 -0.7937  0.0977 -0.0302
  533MOL0     C71886   2.665   1.890   6.591  0.9399 -0.0847  0.4812
  533MOL0     C71887   2.738   1.766   6.554 -0.0952 -0.4363  0.1662
  533MOL0     H71888   2.321   1.812   6.999  0.4274  0.2343  0.0030
  533MOL0     H71889   2.245   1.636   7.155  0.8451  2.0321 -0.2933
  533MOL0     H71890   2.036   1.543   7.164  2.5067  1.1280 -1.4551
  533MOL0     H71891   1.931   1.446   7.056  0.8203 -0.2446 -0.2360
  533MOL0     H71892   1.989   1.243   7.184  2.5599 -0.2311 -1.3511
  533MOL0     H71893   1.883   1.370   7.263  0.6928 -1.4238  1.8016
  533MOL0     H71894   2.099   1.459   7.378  5.8572 -0.2410 -1.4926
  533MOL0     H71895   2.191   1.330   7.316  1.1735  4.4343 -0.9560
  533MOL0     H71896   2.030   1.167   7.447  1.9312 -0.0208  1.1209
  533MOL0     H71897   2.146   1.267   7.536  2.5560  2.6056 -1.8918
  533MOL0     H71898   1.948   1.428   7.581 -2.1397  0.6379 -0.2730
  533MOL0     H71899   1.861   1.355   7.467  0.8837  1.4224 -0.2665
  533MOL0     H71900   1.770   1.262   7.671 -1.3440 -1.6189  1.1039
  533MOL0     H71901   1.883   1.134   7.619  2.3199  0.8411 -1.7213
  533MOL0     H71902   1.937   1.364   7.814 -3.7950  1.1042 -1.7057
  533MOL0     H71903   2.067   1.262   7.751 -0.1812  2.4701 -3.4741
  533MOL0     H71904   2.011   1.195   7.964  0.2219 -0.7011  1.0959
  533MOL0     H71905   1.833   1.192   7.936  0.3539 -0.9949 -0.8356
  533MOL0     H71906   1.769   0.972   8.004 -0.2432  0.4463 -0.6800
  533MOL0     H71907   1.809   0.671   8.032 -2.2146  2.3207  1.2287
  533MOL0     H71908   1.686   0.739   7.925 -0.8287 -0.4711  0.6108
  533MOL0     H71909   1.765   0.604   7.724 -4.6537 -2.5543  1.7872
  533MOL0     H71910   1.910   0.557   7.810 -0.1985  0.0597 -1.1083
  533MOL0     H71911   1.634   0.485   7.896 -0.3201 -0.9355  1.4313
  533MOL0     H71912   1.784   0.428   7.963 -0.1609 -3.0888 -0.4165
  533MOL0     H71913   1.868   0.311   7.780 -0.7614 -1.8022 -0.4952
  533MOL0     H71914   1.755   0.395   7.666  0.8175  1.4880  1.1710
  533MOL0     H71915   1.389   0.318   7.738 -2.1262 -0.1453 -3.1241
  533MOL0     H71916   1.262   0.246   7.552 -0.2643 -0.2748  0.3638
  533MOL0     H71917   1.472  -0.032   7.039 -0.4105  1.9356  3.8620
  533MOL0     H71918   1.334  -0.128   6.826 -0.0153 -1.7447  0.2727
  533MOL0     H71919   0.974  -0.342   6.743 -0.2497 -1.3588  1.0662
  533MOL0     H71920   0.949  -0.304   6.921  0.2961 -0.4105  0.1108
  533MOL0     H71921   0.913  -0.064   6.868  1.4945 -2.2343  3.1691
  533MOL0     H71922   0.912  -0.106   6.695 -2.6630  1.1087  0.2717
  533MOL0     H71923   0.731  -0.218   6.696  3.8110  0.0881 -0.3881
  533MOL0     H71924   0.711  -0.235   6.879  4.3291 -2.2796 -0.3366
  533MOL0     H71925   0.558  -0.060   6.797  0.3569  0.9038  1.5499
  533MOL0     H71926   0.689   0.017   6.701 -0.2703  1.4741  0.1913
  533MOL0     H71927   0.627   0.144   6.899 -1.0844 -0.8524  0.7943
  533MOL0     H71928   0.778   0.084   6.933 -0.7764  1.8054 -0.5309
  533MOL0     H71929   0.525  -0.056   7.028 -0.1565  0.5273 -2.7955
  533MOL0     H71930   0.690  -0.103   7.069 -0.4141  0.5027 -0.5222
  533MOL0     H71931   0.725   0.101   7.185 -0.3767  0.5547 -0.1359
  533MOL0     H71932   0.583   0.010   7.254  0.7602 -1.3302 -0.1737
  533MOL0     H71933   0.546   0.253   7.246  2.9833 -0.6696  0.8089
  533MOL0     H71934   0.585   0.272   7.071 -1.0886  1.2176  0.1997
  533MOL0     H71935   1.012  -0.202   7.095  0.5196 -0.7527 -2.3848
  533MOL0     H71936   1.128  -0.120   7.282 -0.6021 -0.0566 -0.8045
  533MOL0     H71937   1.576   0.009   7.407 -0.0730 -2.2322  2.5213
  533MOL0     H71938   1.736   0.112   7.604  0.3595 -1.1828  2.0534
  533MOL0     H71939   2.169   1.390   6.826 -0.3232 -0.7646  0.9699
  533MOL0     H71940   2.247   1.557   6.658 -3.8062 -0.5575  0.1022
  533MOL0     H71941   2.403   2.036   6.758 -1.1158 -2.1833 -0.0671
  533MOL0     H71942   2.513   2.251   6.646 -0.7839 -0.5446  0.7547
  533MOL0     H71943   2.789   2.348   6.318 -1.6565 -1.5545 -1.4012
  533MOL0     H71944   2.784   2.178   6.324 -0.9498  0.5937 -0.3016
  533MOL0     H71945   2.953   2.184   6.528 -4.2587 -0.0217  0.8065
  533MOL0     H71946   2.953   2.366   6.511  2.9014  0.4357 -1.1234
  533MOL0     H71947   3.078   2.151   6.322 -0.6049 -1.1415  1.2395
  533MOL0     H71948   3.161   2.262   6.429  0.3025 -2.0966  1.1241
  533MOL0     H71949   2.989   2.327   6.177 -1.2775 -1.6965  0.8429
  533MOL0     H71950   3.036   2.455   6.294  0.3354 -0.4954 -1.3077
  533MOL0     H71951   3.398   2.410   6.089 -0.5930 -1.4079 -1.6261
  533MOL0     H71952   2.796   2.007   6.459 -0.1870  0.1859  0.6044
  533MOL0     H71953   2.695   1.715   6.467 -0.4492 -0.8484  0.5819
  533MOL0     H71954   2.841   1.789   6.523  0.0996 -0.2227  0.9659
  533MOL0     H71955   2.736   1.688   6.630 -4.1838 -0.8899 -0.1803
  534MOL0     O71956   2.921   7.209   2.243  0.4506 -0.3189 -0.2844
  534MOL0     C71957   2.822   7.283   2.235  0.7160 -0.2638 -1.4062
  534MOL0     O71958   2.725   7.295   2.336  0.5274 -0.2737 -0.6512
  534MOL0     C71959   2.691   7.201   2.431 -0.0247 -0.1769 -0.8420
  534MOL0     C71960   2.717   7.062   2.417 -0.2595 -0.7383 -0.4328
  534MOL0     C71961   2.669   6.963   2.497 -0.5957 -0.1774 -0.5640
  534MOL0     C71962   2.578   7.000   2.598  0.3608  0.9714  0.4696
  534MOL0     O71963   2.530   6.897   2.681  0.3632 -0.6105  0.5582
  534MOL0     C71964   2.389   6.869   2.670 -0.6952 -0.3611 -1.1125
  534MOL0     C71965   2.353   6.779   2.783  0.1181  0.0649 -0.2095
  534MOL0     C71966   2.346   6.853   2.921  0.3739  0.4900  0.9754
  534MOL0     C71967   2.318   6.752   3.029  0.3841 -0.3770  0.0144
  534MOL0     C71968   2.187   6.793   3.089  0.3696  0.9679 -0.9660
  534MOL0     C71969   2.143   6.702   3.206 -0.9484  0.5893 -0.0770
  534MOL0     C71970   2.152   6.551   3.172  0.6351 -0.2018 -0.4034
  534MOL0     C71971   2.056   6.510   3.051  0.0135  0.2415 -0.5374
  534MOL0     N71972   2.052   6.365   3.034  0.5709  0.2309  0.3740
  534MOL0     C71973   2.158   6.283   3.038  0.1020 -0.0577  0.4729
  534MOL0     C71974   2.116   6.159   3.030  0.8378 -0.8719 -0.3475
  534MOL0     C71975   2.221   6.055   3.034  0.0305 -0.1038 -0.2008
  534MOL0     C71976   2.191   5.938   3.129  0.4243  0.1921  0.4836
  534MOL0     C71977   2.324   5.896   3.192  0.2960  0.8999 -0.3261
  534MOL0     C71978   2.294   5.785   3.308  0.0729  0.3374  0.7186
  534MOL0     O71979   2.315   5.662   3.232 -0.0195  0.2855 -0.5846
  534MOL0     C71980   2.288   5.543   3.287 -0.3380  0.3183 -0.0531
  534MOL0     C71981   2.179   5.518   3.377 -0.8858 -0.6106 -0.3463
  534MOL0     C71982   2.138   5.390   3.416 -0.5144  0.1404 -0.5848
  534MOL0     C71983   2.194   5.280   3.346  0.2241 -0.7508  0.2667
  534MOL0     C71984   2.156   5.141   3.374 -0.3193 -0.4265 -0.1646
  534MOL0     O71985   2.026   5.133   3.429  0.0225 -0.0267  0.2591
  534MOL0     C71986   1.951   5.018   3.429 -0.1358  0.4873  0.9016
  534MOL0     C71987   1.822   5.033   3.476  0.1159 -1.1801 -0.1058
  534MOL0     C71988   1.732   4.923   3.481  0.4082  0.3281  0.6418
  534MOL0     C71989   1.780   4.790   3.446  0.8694 -0.2570  0.1716
  534MOL0     O71990   1.705   4.686   3.466 -0.2161  0.5170  1.0781
  534MOL0     C71991   1.668   4.649   3.604 -0.2831 -0.7672 -0.8874
  534MOL0     C71992   1.611   4.506   3.605 -1.1629 -0.0545 -0.0038
  534MOL0     C71993   1.558   4.459   3.741 -0.1053  0.9435  0.2717
  534MOL0     C71994   1.677   4.421   3.830  0.7821 -0.4425 -0.3911
  534MOL0     C71995   1.630   4.375   3.975 -0.2538  0.2276  0.7853
  534MOL0     C71996   1.565   4.238   3.983 -0.0104 -0.0172  0.1559
  534MOL0     C71997   1.604   4.163   4.108  0.0383 -1.3000  0.2999
  534MOL0     C71998   1.562   4.243   4.238  0.0409  0.1597 -1.3462
  534MOL0    Cl71999   1.390   4.287   4.253  0.0460 -0.6873  0.4149
  534MOL0     C72000   1.910   4.770   3.410  0.0656  0.7242 -0.3862
  534MOL0     C72001   2.000   4.880   3.405  0.9524  0.7242 -0.2319
  534MOL0     O72002   2.236   5.051   3.351  0.5722 -0.0650 -0.2554
  534MOL0     C72003   2.293   5.303   3.247 -0.5847  0.4750 -0.3581
  534MOL0     C72004   2.348   5.435   3.227 -0.3410  0.9664 -1.0997
  534MOL0     N72005   1.978   6.155   3.035 -0.2848 -0.5467 -0.5402
  534MOL0     N72006   1.939   6.284   3.029 -0.4349  0.6338  0.0646
  534MOL0     C72007   2.544   7.139   2.615  0.0071  0.1356  0.1276
  534MOL0     C72008   2.603   7.240   2.527 -0.2314  0.6105 -0.6211
  534MOL0     C72009   2.818   7.374   2.121 -0.3995 -0.0110  0.2009
  534MOL0     C72010   2.714   7.463   2.121 -0.3024 -0.5062  0.2691
  534MOL0     C72011   2.703   7.554   2.022 -0.5283 -0.1654 -0.5332
  534MOL0     C72012   2.778   7.556   1.909 -0.6389  0.3758  0.3762
  534MOL0     O72013   2.740   7.648   1.812  0.1111  0.0839  0.2668
  534MOL0     C72014   2.685   7.768   1.841  0.5446  0.1275  0.2467
  534MOL0     C72015   2.721   7.879   1.742  0.3769  0.5007 -0.1114
  534MOL0     C72016   2.693   8.022   1.800 -0.9278 -0.2785  0.4046
  534MOL0     C72017   2.685   8.123   1.677  0.0677  0.1198 -0.7137
  534MOL0     C72018   2.673   8.264   1.717 -0.9444  0.2641 -0.3334
  534MOL0     C72019   2.666   8.383   1.761  0.5321  0.9047  0.4435
  534MOL0     C72020   2.876   7.462   1.897 -0.9110 -0.3375 -0.3598
  534MOL0     C72021   2.907   7.372   2.006  0.3987 -0.0273 -0.1179
  534MOL0     C72022   3.024   7.276   1.991 -0.1287 -0.7172 -0.1309
  534MOL0     H72023   2.775   7.033   2.330 -0.0864 -0.1863 -0.5059
  534MOL0     H72024   2.693   6.859   2.476 -2.0434 -0.6172 -0.1776
  534MOL0     H72025   2.331   6.961   2.669 -1.6212 -0.8966  0.3201
  534MOL0     H72026   2.378   6.809   2.579  2.7198  1.0383 -2.6361
  534MOL0     H72027   2.418   6.691   2.786  0.6889  0.4024 -1.8907
  534MOL0     H72028   2.258   6.736   2.751  0.2687  1.0472 -2.0731
  534MOL0     H72029   2.283   6.941   2.902 -2.3211 -1.5845 -0.3922
  534MOL0     H72030   2.448   6.888   2.940 -0.2185  1.8317  1.8088
  534MOL0     H72031   2.327   6.647   2.998 -2.4761 -1.1502  1.4651
  534MOL0     H72032   2.392   6.758   3.110  1.8163  1.1879 -1.3521
  534MOL0     H72033   2.182   6.900   3.113 -4.1079  0.6965  0.2337
  534MOL0     H72034   2.112   6.783   3.010 -0.4772 -2.7345  0.0974
  534MOL0     H72035   2.196   6.721   3.300 -4.2288  1.0850  1.8353
  534MOL0     H72036   2.038   6.720   3.234 -0.3097  0.1007  3.0339
  534MOL0     H72037   2.123   6.494   3.261  0.3112  0.5255 -0.0275
  534MOL0     H72038   2.256   6.523   3.154  0.4514 -0.6790 -0.7334
  534MOL0     H72039   1.956   6.552   3.049  0.1413  0.5448 -0.5531
  534MOL0     H72040   2.107   6.543   2.960  2.1617 -1.0989  0.0838
  534MOL0     H72041   2.265   6.304   3.038 -0.2046  1.9633 -1.7630
  534MOL0     H72042   2.210   6.013   2.933 -1.6416  1.5000 -0.7371
  534MOL0     H72043   2.322   6.093   3.050 -0.1675  0.4267 -0.2157
  534MOL0     H72044   2.109   5.957   3.198 -1.4649 -1.8466 -1.0444
  534MOL0     H72045   2.145   5.849   3.084 -3.4166  0.4297  3.4297
  534MOL0     H72046   2.359   5.988   3.240  1.8447  1.4176 -2.3150
  534MOL0     H72047   2.400   5.860   3.122 -0.1777  2.3562 -1.6206
  534MOL0     H72048   2.195   5.787   3.355  0.5226 -1.7856  1.8622
  534MOL0     H72049   2.365   5.802   3.390  2.6411  0.8633 -1.4624
  534MOL0     H72050   2.117   5.595   3.422 -0.6786 -0.3947 -0.4273
  534MOL0     H72051   2.067   5.368   3.495  0.7073  2.3609  1.2572
  534MOL0     H72052   1.777   5.130   3.495  2.9643  0.1409  0.4957
  534MOL0     H72053   1.628   4.925   3.514  0.5824  1.2020  1.1531
  534MOL0     H72054   1.755   4.647   3.669 -1.8412 -4.7561  1.4349
  534MOL0     H72055   1.594   4.714   3.651 -0.2646 -0.0040 -1.8942
  534MOL0     H72056   1.538   4.488   3.525 -1.2065  1.9281 -0.4674
  534MOL0     H72057   1.694   4.436   3.586  0.1551  0.4764  3.1675
  534MOL0     H72058   1.493   4.536   3.784 -0.2706  0.7488  0.3737
  534MOL0     H72059   1.501   4.367   3.724  3.2166 -0.9736 -1.5331
  534MOL0     H72060   1.748   4.504   3.832 -1.4391  1.6684 -2.2541
  534MOL0     H72061   1.724   4.333   3.784  0.6184 -0.5256 -0.4027
  534MOL0     H72062   1.575   4.459   4.018  0.0888  0.6164  0.4716
  534MOL0     H72063   1.724   4.365   4.030 -2.0132 -2.1975  3.6202
  534MOL0     H72064   1.456   4.245   3.970  0.1463  0.5217 -0.9834
  534MOL0     H72065   1.596   4.180   3.896 -1.4734 -1.5163  0.5846
  534MOL0     H72066   1.710   4.138   4.107  1.0497  2.0922  3.2635
  534MOL0     H72067   1.546   4.070   4.098 -0.3822 -1.0358  0.2740
  534MOL0     H72068   1.585   4.189   4.331  3.0203  1.2715 -1.3294
  534MOL0     H72069   1.623   4.333   4.242  0.5475 -0.1694 -1.4977
  534MOL0     H72070   1.961   4.674   3.405 -0.5136  0.4092 -0.3652
  534MOL0     H72071   2.097   4.862   3.361  0.7313  2.5692 -1.5692
  534MOL0     H72072   2.348   5.215   3.216 -1.0924  0.0129  0.0607
  534MOL0     H72073   2.436   5.451   3.165  1.8130 -0.7511  1.3029
  534MOL0     H72074   2.493   7.181   2.701  1.4129  1.5094  0.3380
  534MOL0     H72075   2.585   7.346   2.543  0.1682  0.5677  0.1862
  534MOL0     H72076   2.646   7.474   2.205  0.1388 -0.1911  0.5978
  534MOL0     H72077   2.640   7.636   2.053  1.7369  1.3827  0.2071
  534MOL0     H72078   2.716   7.810   1.937 -3.0109  4.1055 -0.0771
  534MOL0     H72079   2.577   7.756   1.834  0.5921 -2.0370  2.2257
  534MOL0     H72080   2.678   7.868   1.642  4.9354  0.5140 -2.3192
  534MOL0     H72081   2.826   7.869   1.710 -0.3081  1.9316 -3.2429
  534MOL0     H72082   2.784   8.051   1.853 -0.4547  2.2504 -1.5669
  534MOL0     H72083   2.608   8.023   1.869 -1.3615  0.3731 -0.1289
  534MOL0     H72084   2.781   8.112   1.626 -0.8206  0.9390 -2.6401
  534MOL0     H72085   2.603   8.079   1.620  0.7298 -1.4324 -0.5397
  534MOL0     H72086   2.636   8.482   1.790  1.0684  1.0318  0.5633
  534MOL0     H72087   2.943   7.468   1.812 -2.7235  1.2342 -1.7514
  534MOL0     H72088   3.058   7.279   1.887  2.5575 -1.8891  0.6311
  534MOL0     H72089   3.099   7.305   2.065  3.4760 -4.2683 -1.9956
  534MOL0     H72090   2.999   7.172   2.015 -2.4274 -0.0368  0.6601
  535MOL0     O72091   7.590   9.711  11.065  0.4278 -0.5442  0.2235
  535MOL0     C72092   7.474   9.691  11.025  0.3272  0.2543 -0.1015
  535MOL0     O72093   7.375   9.640  11.098 -0.7896  0.3503  0.2695
  535MOL0     C72094   7.411   9.601  11.223 -0.3061  0.0260 -0.2147
  535MOL0     C72095   7.368   9.675  11.335  0.5229 -0.1726  0.6820
  535MOL0     C72096   7.406   9.628  11.464 -0.3788 -0.3720  0.1208
  535MOL0     C72097   7.491   9.517  11.475 -0.6357 -0.8680  0.3578
  535MOL0     O72098   7.550   9.479  11.595 -1.2617  0.3936  0.0340
  535MOL0     C72099   7.639   9.576  11.658  0.1332 -0.7295  0.9027
  535MOL0     C72100   7.760   9.595  11.561  1.2452  0.0954  0.1995
  535MOL0     C72101   7.859   9.479  11.521  0.3692 -0.2013  0.0072
  535MOL0     C72102   7.950   9.426  11.643  0.6733  0.1429  0.3680
  535MOL0     C72103   8.084   9.362  11.599  0.3837 -0.5904 -0.6726
  535MOL0     C72104   8.195   9.350  11.702  0.9909 -0.0598 -0.6153
  535MOL0     C72105   8.246   9.485  11.739 -0.0581 -0.5349  0.2352
  535MOL0     C72106   8.341   9.475  11.855 -0.2271  0.2873  0.8322
  535MOL0     N72107   8.379   9.606  11.900 -0.0685  0.3343 -0.3686
  535MOL0     C72108   8.463   9.692  11.840 -0.0129 -0.4776 -0.2790
  535MOL0     C72109   8.457   9.809  11.910  0.1322 -0.3489 -0.5362
  535MOL0     C72110   8.527   9.949  11.904 -0.5748 -0.2122  0.4793
  535MOL0     C72111   8.650   9.959  12.001 -0.9157 -0.6600 -1.1617
  535MOL0     C72112   8.720  10.094  11.995  0.5328  0.1141 -0.1328
  535MOL0     C72113   8.738  10.152  11.852  0.8481  0.1384 -1.0414
  535MOL0     O72114   8.830  10.260  11.869  0.0085 -0.2037  0.2628
  535MOL0     C72115   8.882  10.314  11.757 -0.1451 -0.7658  1.2049
  535MOL0     C72116   8.978  10.421  11.787 -0.6431 -0.2717 -0.0679
  535MOL0     C72117   9.041  10.492  11.687  0.0325 -0.3340 -0.4965
  535MOL0     C72118   9.002  10.474  11.552  0.4473  0.0206 -0.2767
  535MOL0     C72119   9.048  10.573  11.453  0.1309  0.8709 -0.1365
  535MOL0     O72120   9.110  10.686  11.493 -0.5853  0.1923 -0.0597
  535MOL0     C72121   9.133  10.790  11.400 -0.7588  0.6409 -0.0406
  535MOL0     C72122   9.027  10.869  11.345 -0.1849  0.0174  0.0872
  535MOL0     C72123   9.051  10.968  11.251 -0.9976 -0.4082  0.3070
  535MOL0     C72124   9.179  10.984  11.204  0.6822  0.3863  0.4656
  535MOL0     O72125   9.201  11.080  11.105  0.1453 -0.4084 -0.3314
  535MOL0     C72126   9.262  11.200  11.149  0.6510  0.2723 -0.6230
  535MOL0     C72127   9.276  11.288  11.027 -0.9599  0.5516 -0.3288
  535MOL0     C72128   9.399  11.256  10.934  0.5474 -0.2552  0.0233
  535MOL0     C72129   9.464  11.382  10.889 -0.3584 -0.1367 -0.7717
  535MOL0     C72130   9.393  11.484  10.801  0.1683  0.2919 -0.0116
  535MOL0     C72131   9.492  11.568  10.731  1.1973  0.7506 -0.3919
  535MOL0     C72132   9.404  11.674  10.659 -0.1597  0.1524 -0.3965
  535MOL0     C72133   9.495  11.784  10.597  0.0480  0.0217 -0.2410
  535MOL0    Cl72134   9.403  11.923  10.538 -0.2486  0.2609  0.3044
  535MOL0     C72135   9.279  10.911  11.261  0.0949  0.0066  0.7626
  535MOL0     C72136   9.259  10.815  11.358  0.4114 -0.2341 -0.4962
  535MOL0     O72137   9.028  10.542  11.342 -0.0758  0.1236  0.9438
  535MOL0     C72138   8.916  10.365  11.522  0.2814  0.1390 -0.5486
  535MOL0     C72139   8.848  10.302  11.625 -0.3753  0.2643 -0.4600
  535MOL0     N72140   8.366   9.784  12.018  0.3219 -0.2083  1.5138
  535MOL0     N72141   8.325   9.663  12.009  0.6277  0.1248  0.3262
  535MOL0     C72142   7.523   9.440  11.367 -0.2240  0.2755  0.7352
  535MOL0     C72143   7.486   9.483  11.235 -0.4071  0.4573 -0.6522
  535MOL0     C72144   7.451   9.723  10.878 -0.1679  0.4665  1.5035
  535MOL0     C72145   7.318   9.707  10.828 -0.0995 -0.3338 -0.9770
  535MOL0     C72146   7.270   9.733  10.704 -0.0432  1.0866  0.8482
  535MOL0     C72147   7.361   9.785  10.610  0.1508  0.2926  1.1008
  535MOL0     O72148   7.308   9.831  10.489  0.4197  0.3346  0.0879
  535MOL0     C72149   7.389   9.829  10.373 -0.6711  0.4310  0.5047
  535MOL0     C72150   7.452   9.963  10.333  0.9080  0.1013 -0.3110
  535MOL0     C72151   7.500   9.951  10.182  0.5704 -0.9028  0.8322
  535MOL0     C72152   7.570  10.082  10.143  0.2267 -0.8608  0.4247
  535MOL0     C72153   7.681  10.105  10.228  0.6777 -0.1779  0.0672
  535MOL0     C72154   7.769  10.142  10.296 -0.5325 -0.2851 -0.2345
  535MOL0     C72155   7.500   9.800  10.641  0.4493 -0.3011  0.1445
  535MOL0     C72156   7.541   9.776  10.776 -0.3975  0.2242  0.4720
  535MOL0     C72157   7.689   9.807  10.810 -0.3579 -0.3854  1.1550
  535MOL0     H72158   7.318   9.770  11.319 -1.4399 -0.7818  2.7258
  535MOL0     H72159   7.389   9.693  11.549  0.1785  0.7532 -0.6101
  535MOL0     H72160   7.588   9.670  11.681  1.5146  0.3576 -0.3552
  535MOL0     H72161   7.673   9.528  11.751 -0.3254  0.4454  1.7039
  535MOL0     H72162   7.817   9.677  11.606  0.9094 -0.9286  2.6573
  535MOL0     H72163   7.714   9.639  11.472  1.0897 -2.6678 -1.2197
  535MOL0     H72164   7.918   9.525  11.442  0.3050  0.2374  0.2092
  535MOL0     H72165   7.798   9.403  11.471 -0.6420 -0.1831  1.1614
  535MOL0     H72166   7.970   9.525  11.685 -0.9872  1.0858 -0.9261
  535MOL0     H72167   7.896   9.370  11.720 -2.4278  2.8553  0.3840
  535MOL0     H72168   8.056   9.262  11.567  1.5588 -0.6555 -1.5773
  535MOL0     H72169   8.123   9.411  11.509 -0.4423  1.3482 -0.0291
  535MOL0     H72170   8.156   9.308  11.795  1.1483  3.8714  1.4460
  535MOL0     H72171   8.274   9.284  11.663  2.2198  0.6928  0.4902
  535MOL0     H72172   8.162   9.551  11.764  0.0434 -0.6198  0.8383
  535MOL0     H72173   8.296   9.528  11.652 -0.1590  0.0176  0.4410
  535MOL0     H72174   8.289   9.414  11.930  3.3444 -3.3185  0.7282
  535MOL0     H72175   8.428   9.416  11.823 -0.2986  1.6738 -2.2416
  535MOL0     H72176   8.532   9.670  11.759  0.2254  0.7318 -0.4273
  535MOL0     H72177   8.559   9.951  11.800 -2.5463 -0.2118 -0.1654
  535MOL0     H72178   8.456  10.026  11.938 -2.2817 -1.9341  0.9451
  535MOL0     H72179   8.615   9.942  12.103 -2.3841  1.3769 -1.2692
  535MOL0     H72180   8.724   9.881  11.980  1.5059  1.3343 -0.6159
  535MOL0     H72181   8.818  10.096  12.045  0.1924  1.9306  0.5481
  535MOL0     H72182   8.661  10.168  12.050  0.7426 -0.4994  0.9614
  535MOL0     H72183   8.648  10.191  11.804  0.9166  0.2020 -1.1183
  535MOL0     H72184   8.781  10.070  11.793 -0.9779 -2.3774  0.8990
  535MOL0     H72185   9.007  10.428  11.891  1.2904 -2.8874 -0.3057
  535MOL0     H72186   9.112  10.572  11.707 -0.0544 -0.9155  2.7112
  535MOL0     H72187   8.923  10.850  11.368 -0.2357  1.9146  1.6565
  535MOL0     H72188   8.975  11.036  11.214  0.7488  1.3243 -0.3157
  535MOL0     H72189   9.198  11.244  11.226 -2.1423 -1.0336 -2.0613
  535MOL0     H72190   9.357  11.179  11.199  0.0805 -1.1075 -0.0434
  535MOL0     H72191   9.184  11.296  10.968  0.0483  2.2075 -1.7698
  535MOL0     H72192   9.293  11.389  11.064  2.9984  0.3051 -0.9788
  535MOL0     H72193   9.474  11.185  10.972  0.1755 -0.5597  0.1900
  535MOL0     H72194   9.350  11.214  10.846 -1.3523 -0.1352  0.9752
  535MOL0     H72195   9.543  11.345  10.822 -2.1250  0.5807 -3.4326
  535MOL0     H72196   9.493  11.438  10.978 -1.2857  0.8509 -1.0724
  535MOL0     H72197   9.328  11.540  10.870 -0.3164 -2.4738  1.9600
  535MOL0     H72198   9.319  11.435  10.738 -0.9454 -1.6358  2.5852
  535MOL0     H72199   9.556  11.617  10.804  0.3611  1.0039  0.1787
  535MOL0     H72200   9.552  11.518  10.654  1.1838  1.5662 -0.9506
  535MOL0     H72201   9.326  11.721  10.720 -0.3413  1.6506 -1.7225
  535MOL0     H72202   9.345  11.625  10.581  1.0093 -0.5126 -0.8780
  535MOL0     H72203   9.581  11.808  10.660  2.1913 -2.2787 -2.0664
  535MOL0     H72204   9.549  11.744  10.511  2.2867 -0.1238  1.1472
  535MOL0     H72205   9.370  10.941  11.210  0.5886 -3.9165 -1.0353
  535MOL0     H72206   9.352  10.773  11.393 -1.3527 -2.7752  1.5478
  535MOL0     H72207   8.893  10.343  11.418  0.6419  0.8277 -0.7743
  535MOL0     H72208   8.782  10.221  11.594  0.2450  0.2437 -1.8319
  535MOL0     H72209   7.601   9.366  11.369 -2.6582 -2.4775  0.0573
  535MOL0     H72210   7.512   9.429  11.144  1.2426 -0.4194  0.2970
  535MOL0     H72211   7.238   9.682  10.898 -0.6498 -0.7262 -1.7291
  535MOL0     H72212   7.164   9.717  10.684 -0.0792  0.0765  1.6920
  535MOL0     H72213   7.317   9.790  10.299 -1.2902  0.2861  1.1732
  535MOL0     H72214   7.468   9.756  10.392  0.4209  1.7217  1.0074
  535MOL0     H72215   7.531   9.969  10.409 -0.5332 -0.8247  1.3462
  535MOL0     H72216   7.381  10.044  10.350  0.4321 -0.4073  0.1428
  535MOL0     H72217   7.412   9.930  10.120 -0.5145  3.9493  0.3186
  535MOL0     H72218   7.574   9.871  10.174  3.7908  1.9259  0.2473
  535MOL0     H72219   7.600  10.098  10.039 -0.2312 -0.1131  0.4004
  535MOL0     H72220   7.496  10.158  10.171  2.3542  0.1134  4.0357
  535MOL0     H72221   7.849  10.172  10.361 -0.4593 -0.7770 -0.0919
  535MOL0     H72222   7.575   9.828  10.568 -0.0757 -3.1648 -1.6531
  535MOL0     H72223   7.680   9.880  10.891 -2.5620 -0.7434  1.2868
  535MOL0     H72224   7.743   9.718  10.842 -0.8280 -0.2688  2.3046
  535MOL0     H72225   7.747   9.852  10.729 -0.1849  0.9632  1.9862
  536MOL0     O72226   0.673   3.662   9.924  0.2527  0.3226  0.3977
  536MOL0     C72227   0.567   3.618   9.983 -0.7493 -0.1826  0.2691
  536MOL0     O72228   0.569   3.576  10.117 -0.0869 -0.4152  0.0282
  536MOL0     C72229   0.692   3.575  10.168 -0.3902  1.4009  0.4341
  536MOL0     C72230   0.747   3.444  10.180  0.0218  1.0520  0.1842
  536MOL0     C72231   0.872   3.435  10.230  0.0093 -0.0298 -0.0817
  536MOL0     C72232   0.946   3.545  10.276 -0.0192  0.2773  0.3519
  536MOL0     O72233   1.070   3.505  10.323  0.5847  1.0014 -1.0331
  536MOL0     C72234   1.159   3.610  10.324 -0.5976 -0.1250  0.2330
  536MOL0     C72235   1.295   3.558  10.318  0.0847 -0.3854 -0.5497
  536MOL0     C72236   1.361   3.530  10.455  0.0072  0.4933  0.6249
  536MOL0     C72237   1.343   3.631  10.569 -0.3747  0.7614 -0.1542
  536MOL0     C72238   1.422   3.604  10.692 -1.0897 -0.3350  0.6027
  536MOL0     C72239   1.419   3.713  10.803  0.6883 -0.5958  0.4606
  536MOL0     C72240   1.504   3.679  10.919 -0.0660 -0.0903  0.9254
  536MOL0     C72241   1.496   3.811  10.999 -0.6684 -0.4813  0.1239
  536MOL0     N72242   1.567   3.802  11.126 -0.0430  0.5457  0.0154
  536MOL0     C72243   1.512   3.762  11.239 -0.6148  1.1570 -0.5295
  536MOL0     C72244   1.613   3.740  11.327 -0.5737  0.2620 -0.4513
  536MOL0     C72245   1.609   3.688  11.468 -0.1614 -0.6357 -0.2663
  536MOL0     C72246   1.633   3.811  11.566 -0.3593 -0.0945  0.2146
  536MOL0     C72247   1.758   3.892  11.533  0.2400 -0.0294 -0.0558
  536MOL0     C72248   1.807   3.983  11.639 -0.0662 -1.3913 -0.1357
  536MOL0     O72249   1.704   4.063  11.702  0.8840 -0.5478  0.1232
  536MOL0     C72250   1.753   4.161  11.794  0.2247 -0.4021  0.3820
  536MOL0     C72251   1.694   4.287  11.799  0.3148 -1.7007  0.3347
  536MOL0     C72252   1.755   4.400  11.874 -0.5960  1.0061  0.9576
  536MOL0     C72253   1.863   4.377  11.955 -0.2880  0.3146  0.3060
  536MOL0     C72254   1.926   4.494  12.015 -0.7756  0.4884  0.2719
  536MOL0     O72255   2.054   4.475  12.062 -0.5959 -0.6026 -0.2912
  536MOL0     C72256   2.130   4.574  12.123  0.3851 -0.9269  0.5247
  536MOL0     C72257   2.078   4.681  12.197 -0.3820 -0.8306  1.6358
  536MOL0     C72258   2.169   4.774  12.260 -0.2271  1.1031  0.6768
  536MOL0     C72259   2.307   4.763  12.239 -0.7772  0.9157 -0.8698
  536MOL0     O72260   2.399   4.845  12.303  0.0113 -0.6782 -0.4883
  536MOL0     C72261   2.356   4.937  12.414  0.2925  0.3326  0.8717
  536MOL0     C72262   2.474   5.008  12.474  1.0000 -0.9328 -0.1807
  536MOL0     C72263   2.579   4.909  12.527 -0.6835  0.6614 -0.0288
  536MOL0     C72264   2.690   4.993  12.594 -0.5847 -0.3426 -0.5288
  536MOL0     C72265   2.814   4.907  12.595  0.0529  0.0416 -0.6087
  536MOL0     C72266   2.906   4.958  12.702 -0.0852 -0.0179 -0.5131
  536MOL0     C72267   2.857   4.914  12.840 -0.2592  0.3120  0.5577
  536MOL0     C72268   2.933   4.978  12.961  0.2354  0.3301  0.4493
  536MOL0    Cl72269   2.854   4.926  13.113 -0.3412 -0.1940 -0.3602
  536MOL0     C72270   2.359   4.665  12.161  0.4439  0.4814  0.5512
  536MOL0     C72271   2.267   4.565  12.110  0.0559  0.7390 -0.4531
  536MOL0     O72272   1.864   4.603  12.022  0.1899  0.3930 -0.9668
  536MOL0     C72273   1.913   4.245  11.960  0.1759 -0.3720  0.6132
  536MOL0     C72274   1.860   4.138  11.881  0.6621  0.2099 -0.6655
  536MOL0     N72275   1.729   3.781  11.263  0.4428 -1.1384  0.0128
  536MOL0     N72276   1.693   3.831  11.146 -0.0088 -0.0992  0.2389
  536MOL0     C72277   0.890   3.676  10.256 -0.5852 -0.4532 -0.1918
  536MOL0     C72278   0.763   3.686  10.200 -0.4708  0.3699 -0.3421
  536MOL0     C72279   0.441   3.602   9.899  0.3907  0.4090 -1.3760
  536MOL0     C72280   0.333   3.528   9.966 -0.4700  0.8244 -0.2556
  536MOL0     C72281   0.209   3.516   9.899 -0.5197  1.6986 -0.1646
  536MOL0     C72282   0.188   3.574   9.772  0.8038  0.4057 -0.2764
  536MOL0     O72283   0.073   3.561   9.697  0.4819  0.1651 -0.4880
  536MOL0     C72284  -0.022   3.468   9.739  0.7847 -0.0901 -0.4996
  536MOL0     C72285  -0.118   3.429   9.630 -0.7318  0.4223  0.5188
  536MOL0     C72286  -0.045   3.361   9.507 -0.4075 -1.1414  0.4258
  536MOL0     C72287  -0.126   3.384   9.373 -0.5078 -0.8125  0.4597
  536MOL0     C72288  -0.056   3.400   9.247 -0.6491 -0.6288 -0.6787
  536MOL0     C72289   0.006   3.406   9.143 -1.2604  0.6635 -0.2355
  536MOL0     C72290   0.289   3.660   9.722 -0.4330  0.1127 -0.0700
  536MOL0     C72291   0.412   3.674   9.781 -0.0088 -0.6516 -0.7151
  536MOL0     C72292   0.497   3.768   9.702  0.2885  0.3505 -0.1246
  536MOL0     H72293   0.682   3.363  10.150 -0.1481  1.6773 -1.2309
  536MOL0     H72294   0.924   3.340  10.242 -2.4277 -1.5566 -0.9930
  536MOL0     H72295   1.145   3.656  10.226  1.9586 -2.1000 -1.1809
  536MOL0     H72296   1.150   3.684  10.405 -1.0032 -0.6509  0.6739
  536MOL0     H72297   1.356   3.627  10.259 -0.2971  0.0099 -0.4882
  536MOL0     H72298   1.308   3.470  10.256  0.8472  1.7056 -3.5908
  536MOL0     H72299   1.469   3.531  10.439  0.0200  2.2522  0.5927
  536MOL0     H72300   1.328   3.429  10.480 -3.9034  1.8878  1.8062
  536MOL0     H72301   1.387   3.724  10.531  1.1609 -0.0972 -0.5556
  536MOL0     H72302   1.243   3.648  10.609  0.8285  1.0204  3.0514
  536MOL0     H72303   1.380   3.509  10.726  1.0824 -2.7911 -2.9607
  536MOL0     H72304   1.525   3.584  10.661  0.0776  0.1567  3.7918
  536MOL0     H72305   1.457   3.805  10.758 -1.2735 -1.0129 -2.3048
  536MOL0     H72306   1.316   3.745  10.823 -0.0226 -1.7894 -1.0582
  536MOL0     H72307   1.606   3.646  10.897 -0.3792 -1.2780  1.1642
  536MOL0     H72308   1.454   3.602  10.979  0.1369  1.5457  3.3090
  536MOL0     H72309   1.549   3.894  10.950 -0.1937 -1.7509 -1.6297
  536MOL0     H72310   1.391   3.841  11.007 -1.1328 -2.1913  0.8488
  536MOL0     H72311   1.407   3.740  11.254  0.2370 -1.2177  3.2902
  536MOL0     H72312   1.512   3.641  11.487  0.6911 -1.7587  1.5228
  536MOL0     H72313   1.696   3.624  11.484  1.0142  0.5921 -1.4803
  536MOL0     H72314   1.546   3.877  11.575  0.2790  0.5422  2.2361
  536MOL0     H72315   1.654   3.779  11.669  2.3608 -0.8319 -0.4902
  536MOL0     H72316   1.735   3.951  11.444  1.5834  0.2953 -0.2071
  536MOL0     H72317   1.834   3.819  11.505 -1.8987 -2.5408  0.2429
  536MOL0     H72318   1.898   4.038  11.611  0.3787  0.1100  3.5811
  536MOL0     H72319   1.833   3.919  11.724 -3.4655 -3.7572 -0.6963
  536MOL0     H72320   1.600   4.303  11.746 -0.5851  1.6389  2.6070
  536MOL0     H72321   1.706   4.497  11.867  0.8212  1.7131  0.5025
  536MOL0     H72322   1.972   4.703  12.210 -0.3698 -1.9628  4.4343
  536MOL0     H72323   2.127   4.847  12.328  0.0844 -0.0758  2.1872
  536MOL0     H72324   2.285   5.013  12.379 -0.3876  0.8093  3.1549
  536MOL0     H72325   2.312   4.882  12.497  1.1320 -1.9655 -0.1202
  536MOL0     H72326   2.517   5.074  12.397 -0.3271  2.2385  1.6271
  536MOL0     H72327   2.446   5.075  12.555 -1.9590  1.0680 -2.6297
  536MOL0     H72328   2.530   4.846  12.602 -0.9486 -1.9287 -2.2369
  536MOL0     H72329   2.620   4.840  12.453 -1.5181  0.6803 -0.5111
  536MOL0     H72330   2.645   5.036  12.683 -3.9241  0.9091 -2.6190
  536MOL0     H72331   2.726   5.081  12.539  3.8478 -0.5380  1.6362
  536MOL0     H72332   2.865   4.926  12.500  0.2537 -1.0658 -0.7349
  536MOL0     H72333   2.795   4.801  12.612 -0.2934 -0.0185 -1.3204
  536MOL0     H72334   3.002   4.906  12.697  0.2597  0.7136 -2.7524
  536MOL0     H72335   2.923   5.066  12.697 -0.8321  0.2311  1.3884
  536MOL0     H72336   2.877   4.807  12.845 -2.6010 -0.2965 -1.2876
  536MOL0     H72337   2.751   4.936  12.857 -0.3031  2.9462 -2.1781
  536MOL0     H72338   3.037   4.943  12.961 -1.1764 -4.5251 -0.7585
  536MOL0     H72339   2.924   5.087  12.963  0.7941  0.3946  3.1429
  536MOL0     H72340   2.464   4.657  12.132  0.2315  1.6832 -0.6989
  536MOL0     H72341   2.322   4.495  12.048  1.3963  2.9312 -1.8612
  536MOL0     H72342   1.995   4.249  12.031  0.5454  3.1920  0.2023
  536MOL0     H72343   1.902   4.039  11.896 -0.0800  0.0733  0.6787
  536MOL0     H72344   0.958   3.757  10.279 -0.7903 -0.0045 -1.1017
  536MOL0     H72345   0.725   3.787  10.188  1.9046  1.6290  1.6447
  536MOL0     H72346   0.348   3.458  10.048  0.4380  0.9911 -0.2609
  536MOL0     H72347   0.132   3.450   9.938  1.4885 -2.1199 -2.0846
  536MOL0     H72348  -0.074   3.504   9.829  1.3022  1.1378 -0.6636
  536MOL0     H72349   0.027   3.373   9.763 -1.8568 -1.9856 -2.1459
  536MOL0     H72350  -0.165   3.519   9.588  0.7349  0.4710 -1.1228
  536MOL0     H72351  -0.197   3.366   9.673 -0.7878  1.0429  1.3615
  536MOL0     H72352  -0.034   3.254   9.528  2.3739 -0.5355  2.7955
  536MOL0     H72353   0.058   3.397   9.506  0.3612 -2.9661 -3.2043
  536MOL0     H72354  -0.200   3.303   9.376 -0.9919 -0.3566  2.5133
  536MOL0     H72355  -0.184   3.475   9.388 -3.1340 -1.9090 -2.0873
  536MOL0     H72356   0.058   3.426   9.051 -2.3169 -2.6057 -1.6619
  536MOL0     H72357   0.273   3.696   9.621  1.1801 -1.4389 -0.9209
  536MOL0     H72358   0.506   3.873   9.734  0.8477 -0.1029  1.2791
  536MOL0     H72359   0.598   3.727   9.700 -0.4031 -1.7297  2.5673
  536MOL0     H72360   0.465   3.769   9.597  1.3260  1.0188 -0.4480
  537MOL0     O72361   9.742   6.206   9.133  0.3296  0.0614  0.2083
  537MOL0     C72362   9.788   6.317   9.142 -0.2647  0.3838  0.8294
  537MOL0     O72363   9.904   6.362   9.068 -0.6157 -0.5534  0.2480
  537MOL0     C72364   9.964   6.289   8.966  0.4205  0.0436 -0.9756
  537MOL0     C72365  10.056   6.359   8.888  1.4772  0.8637 -0.1806
  537MOL0     C72366  10.115   6.298   8.777 -0.3275  0.5822  0.4051
  537MOL0     C72367  10.096   6.161   8.747  0.3074 -0.6262  0.2631
  537MOL0     O72368  10.162   6.101   8.646 -1.0942  0.4424 -0.0924
  537MOL0     C72369  10.176   5.955   8.645 -0.0038 -0.3618  0.8710
  537MOL0     C72370  10.231   5.926   8.510 -0.4421 -0.9284  0.1256
  537MOL0     C72371  10.132   5.944   8.397 -0.0505  0.8194 -0.2363
  537MOL0     C72372  10.160   5.864   8.272 -0.6558 -0.8314  0.2568
  537MOL0     C72373  10.077   5.897   8.144 -0.0434 -0.9336 -0.2235
  537MOL0     C72374  10.151   5.994   8.043  0.1642 -0.4060  0.0236
  537MOL0     C72375  10.053   6.050   7.935 -0.0851  0.1107 -0.2491
  537MOL0     C72376   9.976   6.163   7.993 -0.1590 -0.0786 -0.6636
  537MOL0     N72377   9.860   6.195   7.916 -0.5955  0.4511 -0.5860
  537MOL0     C72378   9.767   6.293   7.962  0.4221  1.0339 -0.9348
  537MOL0     C72379   9.659   6.273   7.898  0.3342  0.6484  0.1611
  537MOL0     C72380   9.535   6.352   7.908  0.4505 -0.0246 -0.6579
  537MOL0     C72381   9.533   6.470   7.811 -0.4290  0.6169 -1.1486
  537MOL0     C72382   9.452   6.438   7.686 -0.9589  0.1038 -0.5813
  537MOL0     C72383   9.483   6.559   7.592  0.0407 -0.1673  0.0231
  537MOL0     O72384   9.386   6.571   7.480 -0.4138  0.0368 -0.2138
  537MOL0     C72385   9.310   6.684   7.474 -0.5049  0.1268 -0.8843
  537MOL0     C72386   9.203   6.685   7.562  0.8601 -0.2854  0.7416
  537MOL0     C72387   9.109   6.787   7.555 -0.3793 -0.4111 -0.7515
  537MOL0     C72388   9.115   6.885   7.453 -0.0119  0.2164 -0.1930
  537MOL0     C72389   9.014   6.996   7.438  0.4867 -0.1172 -0.2543
  537MOL0     O72390   8.921   7.013   7.534 -0.3174  1.0647  0.0761
  537MOL0     C72391   8.839   7.116   7.508  0.0712 -0.0888  0.6126
  537MOL0     C72392   8.735   7.083   7.417  0.1767 -0.3861 -0.0813
  537MOL0     C72393   8.621   7.169   7.408 -0.3268 -0.1754  0.0674
  537MOL0     C72394   8.630   7.288   7.470 -0.2195  0.2737 -0.8045
  537MOL0     O72395   8.534   7.379   7.432  0.6101  0.2684 -0.2280
  537MOL0     C72396   8.540   7.508   7.490 -1.1872  0.2895  0.6742
  537MOL0     C72397   8.418   7.581   7.441  0.7942  0.5845  0.7616
  537MOL0     C72398   8.389   7.699   7.541 -0.2825 -1.3563 -0.5103
  537MOL0     C72399   8.259   7.776   7.514 -0.2876  0.2564  0.5081
  537MOL0     C72400   8.275   7.848   7.379 -0.3051  1.2816  0.5532
  537MOL0     C72401   8.188   7.975   7.358 -0.1838  0.1580  0.7604
  537MOL0     C72402   8.190   8.005   7.203 -0.2648 -0.4359 -0.1930
  537MOL0     C72403   8.342   8.048   7.160  0.7638  0.4698 -0.5505
  537MOL0    Cl72404   8.324   8.158   7.020  0.1836  0.0643 -0.1925
  537MOL0     C72405   8.734   7.320   7.560  0.4485  0.5521  0.5902
  537MOL0     C72406   8.840   7.237   7.574 -0.2489  0.0150  0.9055
  537MOL0     O72407   9.029   7.068   7.339 -0.6313 -0.0233  0.0565
  537MOL0     C72408   9.234   6.883   7.377  0.5908  0.5536  0.1935
  537MOL0     C72409   9.333   6.784   7.387  0.1137 -0.7494 -0.9475
  537MOL0     N72410   9.678   6.166   7.802 -0.7045 -0.1704  0.2560
  537MOL0     N72411   9.794   6.119   7.820  0.1812 -0.1248 -0.2565
  537MOL0     C72412  10.000   6.091   8.824 -0.0498 -0.1752 -0.2344
  537MOL0     C72413   9.937   6.152   8.929  0.4294 -0.0138  0.7770
  537MOL0     C72414   9.716   6.421   9.233  0.0369  0.4700  1.6379
  537MOL0     C72415   9.750   6.554   9.212 -0.1163  0.1043 -0.5446
  537MOL0     C72416   9.678   6.655   9.280  0.1623  0.3780 -0.8541
  537MOL0     C72417   9.593   6.621   9.390 -0.2326  0.6613  0.9174
  537MOL0     O72418   9.511   6.707   9.462  0.8030 -0.4089 -1.1077
  537MOL0     C72419   9.542   6.847   9.472  0.9065  0.1810  0.4635
  537MOL0     C72420   9.420   6.931   9.430 -0.4487 -0.7173 -0.4087
  537MOL0     C72421   9.399   6.929   9.279  0.2462  0.9724  1.0635
  537MOL0     C72422   9.263   6.992   9.234  0.8637 -0.1310  0.2259
  537MOL0     C72423   9.243   6.968   9.096  0.4827  0.3972  0.2422
  537MOL0     C72424   9.228   6.937   8.981  0.4119  0.1357 -0.1437
  537MOL0     C72425   9.569   6.482   9.416  0.0500  0.2130 -0.3827
  537MOL0     C72426   9.627   6.384   9.332  0.7037  0.0617  1.0480
  537MOL0     C72427   9.577   6.252   9.358  0.2479 -0.6699  0.5583
  537MOL0     H72428  10.074   6.461   8.922 -0.1388  0.2398  3.0291
  537MOL0     H72429  10.186   6.355   8.717 -0.7445  0.2159 -0.4555
  537MOL0     H72430  10.248   5.939   8.725 -0.3948 -0.6972  1.1568
  537MOL0     H72431  10.084   5.897   8.648  0.4735 -1.2346 -0.4413
  537MOL0     H72432  10.269   5.827   8.536  0.5023  0.4106  4.7040
  537MOL0     H72433  10.312   5.997   8.491 -2.8546  1.7501 -0.9144
  537MOL0     H72434  10.127   6.049   8.366  1.7408  0.6039 -1.3986
  537MOL0     H72435  10.031   5.918   8.430  0.6477 -0.8787  0.7172
  537MOL0     H72436  10.262   5.885   8.236 -1.9403  1.9129 -2.1851
  537MOL0     H72437  10.145   5.761   8.306 -3.5720 -0.3439  0.6893
  537MOL0     H72438  10.054   5.808   8.085 -1.3566 -1.1639  0.5831
  537MOL0     H72439   9.982   5.933   8.185 -0.5896 -2.3975 -0.1406
  537MOL0     H72440  10.201   6.079   8.090 -0.8498  2.1299 -3.0728
  537MOL0     H72441  10.227   5.937   7.989  0.1705  0.5196 -0.9891
  537MOL0     H72442   9.976   5.977   7.909  0.0179  0.0959 -0.5171
  537MOL0     H72443  10.111   6.084   7.848  0.2888  2.3744  0.8005
  537MOL0     H72444   9.957   6.147   8.099  0.3833  3.4273  0.1006
  537MOL0     H72445  10.043   6.248   7.973  2.3841 -2.2990 -2.4182
  537MOL0     H72446   9.777   6.370   8.038 -1.0148  0.9830 -0.6619
  537MOL0     H72447   9.456   6.280   7.886  3.1130 -2.5182 -2.8450
  537MOL0     H72448   9.536   6.384   8.013  2.7365 -1.0498 -0.3000
  537MOL0     H72449   9.488   6.557   7.858 -1.7908 -0.9267  0.5210
  537MOL0     H72450   9.638   6.498   7.794  0.1984 -1.2698 -0.6284
  537MOL0     H72451   9.346   6.420   7.709 -0.6160 -1.0683  0.2033
  537MOL0     H72452   9.489   6.347   7.637  5.0069  1.6192  0.3583
  537MOL0     H72453   9.585   6.567   7.555  0.1746 -0.9744  0.2147
  537MOL0     H72454   9.464   6.655   7.642 -3.4596  0.3748 -2.0174
  537MOL0     H72455   9.197   6.600   7.629 -0.1672  0.1237  1.1958
  537MOL0     H72456   9.025   6.778   7.624 -0.8274 -0.1870 -1.2608
  537MOL0     H72457   8.718   6.992   7.361 -2.0723 -0.8565  1.2133
  537MOL0     H72458   8.548   7.156   7.328 -0.7039  0.1477  0.3514
  537MOL0     H72459   8.534   7.504   7.599 -2.3985 -1.5687  0.6073
  537MOL0     H72460   8.634   7.560   7.470 -1.5757  0.5459 -0.5838
  537MOL0     H72461   8.430   7.617   7.338  0.7270 -1.8601 -0.1659
  537MOL0     H72462   8.336   7.509   7.439  1.0748  0.1113 -3.9931
  537MOL0     H72463   8.374   7.665   7.644  0.6188  2.3533  0.9909
  537MOL0     H72464   8.474   7.768   7.542 -1.1057 -0.3256 -0.5495
  537MOL0     H72465   8.257   7.858   7.586 -0.9338  0.4576  0.2610
  537MOL0     H72466   8.170   7.714   7.506 -0.9367  1.3760 -3.6060
  537MOL0     H72467   8.260   7.776   7.298 -1.6190  0.4945  1.4396
  537MOL0     H72468   8.382   7.865   7.366  0.1654 -1.7396 -0.3977
  537MOL0     H72469   8.089   7.954   7.398  0.1457  0.2778  1.6696
  537MOL0     H72470   8.229   8.064   7.407 -0.3685  0.9696 -0.4975
  537MOL0     H72471   8.131   8.091   7.173  3.0977  2.7628  1.5496
  537MOL0     H72472   8.156   7.912   7.156  0.4237 -1.2744  0.8991
  537MOL0     H72473   8.396   8.104   7.237 -0.9326  1.3220  0.0816
  537MOL0     H72474   8.399   7.959   7.131 -0.4816 -0.2334 -0.9287
  537MOL0     H72475   8.716   7.418   7.603 -2.8709  0.8422 -1.1518
  537MOL0     H72476   8.931   7.267   7.625  0.7139 -0.3909 -0.5481
  537MOL0     H72477   9.247   6.957   7.298 -0.7185 -0.7449 -1.2917
  537MOL0     H72478   9.410   6.790   7.310  0.9185 -3.2628 -0.4455
  537MOL0     H72479   9.981   5.984   8.820  2.1213 -0.7679  2.4544
  537MOL0     H72480   9.866   6.087   8.979 -1.6382  0.9580 -0.7084
  537MOL0     H72481   9.823   6.592   9.141  1.8042  0.8402  1.6985
  537MOL0     H72482   9.692   6.762   9.266  0.6258  0.6072  1.0505
  537MOL0     H72483   9.628   6.880   9.414  0.2808 -1.5168 -1.5593
  537MOL0     H72484   9.559   6.859   9.580 -0.4215 -1.4007  0.8853
  537MOL0     H72485   9.436   7.035   9.458  0.4351 -0.6526 -1.0886
  537MOL0     H72486   9.333   6.881   9.475  1.3311  0.3323  4.9153
  537MOL0     H72487   9.407   6.830   9.232  2.3483  2.2645 -1.5622
  537MOL0     H72488   9.479   6.980   9.225  1.1087 -1.5445 -0.1883
  537MOL0     H72489   9.186   6.958   9.303  0.4901  3.8098  1.9975
  537MOL0     H72490   9.272   7.100   9.251  1.7495 -0.2766  0.7641
  537MOL0     H72491   9.215   6.902   8.880  0.2059  0.7579 -0.3334
  537MOL0     H72492   9.512   6.454   9.504  1.8039  0.1603  0.7860
  537MOL0     H72493   9.648   6.169   9.349  1.6322  0.0851  3.2475
  537MOL0     H72494   9.533   6.244   9.458 -1.7888  1.0649 -0.1391
  537MOL0     H72495   9.490   6.232   9.296  0.9466 -2.8136  0.1664
  538MOL0     O72496   0.392  10.924   8.007  0.3447  0.2016  0.1313
  538MOL0     C72497   0.422  10.856   7.912  0.9395 -0.7242 -0.3250
  538MOL0     O72498   0.438  10.719   7.920 -0.8255 -0.5378 -0.2580
  538MOL0     C72499   0.459  10.669   8.058  0.5799 -0.4649  0.8459
  538MOL0     C72500   0.365  10.690   8.158 -0.4043 -0.9349  0.4250
  538MOL0     C72501   0.395  10.635   8.287  0.4259  0.2801 -0.7462
  538MOL0     C72502   0.520  10.579   8.314 -0.0066  1.0981  0.2635
  538MOL0     O72503   0.541  10.529   8.443 -0.6649 -0.5500 -0.5973
  538MOL0     C72504   0.489  10.599   8.552  0.6013 -1.3908 -0.7439
  538MOL0     C72505   0.559  10.552   8.677 -0.9329 -0.6474  0.4143
  538MOL0     C72506   0.514  10.413   8.720 -0.4604  0.6877 -0.8250
  538MOL0     C72507   0.384  10.400   8.813  0.5757  0.0232 -0.9487
  538MOL0     C72508   0.275  10.355   8.712  0.2411  0.2344  0.0535
  538MOL0     C72509   0.139  10.329   8.784 -0.5843  0.5556  1.0334
  538MOL0     C72510   0.027  10.276   8.691 -0.3862  0.2716  0.6002
  538MOL0     C72511  -0.060  10.394   8.639  1.1954 -0.1104  0.0998
  538MOL0     N72512  -0.181  10.336   8.574  0.2841 -0.3622 -0.0349
  538MOL0     C72513  -0.227  10.380   8.444  0.1796 -0.5465  0.0398
  538MOL0     C72514  -0.331  10.297   8.421 -1.1051 -1.5733  0.0928
  538MOL0     C72515  -0.439  10.268   8.310 -0.4751 -0.0206 -0.7193
  538MOL0     C72516  -0.386  10.220   8.184 -0.0503 -0.1209 -0.4604
  538MOL0     C72517  -0.507  10.178   8.088 -0.0031  0.0084 -0.7648
  538MOL0     C72518  -0.581  10.304   8.037 -0.3262 -0.1147  1.0564
  538MOL0     O72519  -0.491  10.389   7.966  0.3308 -0.0385  0.0749
  538MOL0     C72520  -0.425  10.348   7.851 -0.7462 -0.5852  0.1316
  538MOL0     C72521  -0.490  10.297   7.744 -0.2535  0.2387  0.4903
  538MOL0     C72522  -0.431  10.268   7.621  0.6631 -0.5186  0.9746
  538MOL0     C72523  -0.299  10.290   7.600  0.6272  0.6312  0.0874
  538MOL0     C72524  -0.237  10.247   7.480  0.2796 -1.1153  0.5869
  538MOL0     O72525  -0.104  10.256   7.468  0.6393  0.4817  0.3601
  538MOL0     C72526  -0.037  10.221   7.357  0.0018 -0.2833 -0.0443
  538MOL0     C72527  -0.061  10.100   7.279 -0.0919  0.0376 -0.0292
  538MOL0     C72528   0.030  10.063   7.172 -0.7730 -0.0274 -0.6611
  538MOL0     C72529   0.146  10.140   7.146 -0.1978 -1.6863  0.0012
  538MOL0     O72530   0.229  10.121   7.046  0.0539  0.4394 -0.7112
  538MOL0     C72531   0.208  10.016   6.947  0.1965  0.4778  0.1249
  538MOL0     C72532   0.305  10.050   6.836  0.2378  0.2060 -0.0458
  538MOL0     C72533   0.265   9.999   6.689 -0.4223  0.2462 -0.2839
  538MOL0     C72534   0.382  10.037   6.593 -0.0143 -0.3059 -1.2797
  538MOL0     C72535   0.361   9.973   6.453  0.6288  0.5090  0.4602
  538MOL0     C72536   0.488   9.988   6.372 -0.7797 -0.1221  0.3095
  538MOL0     C72537   0.523  10.123   6.316  0.5429 -0.5161 -0.6449
  538MOL0     C72538   0.408  10.183   6.235  0.1551  0.2998 -0.4052
  538MOL0    Cl72539   0.323  10.067   6.121  0.1802 -0.4804  0.1370
  538MOL0     C72540   0.164  10.250   7.232  0.4690  0.2714  0.6544
  538MOL0     C72541   0.079  10.297   7.329 -0.2342  0.4882 -0.3190
  538MOL0     O72542  -0.310  10.215   7.387 -0.3650 -1.1953 -0.5144
  538MOL0     C72543  -0.227  10.347   7.707 -0.2099 -1.4612  0.0257
  538MOL0     C72544  -0.286  10.381   7.832 -0.4275  0.1658  0.4850
  538MOL0     N72545  -0.341  10.211   8.527 -0.8312  0.0879  0.3260
  538MOL0     N72546  -0.254  10.231   8.613 -0.6142 -0.2436 -0.1486
  538MOL0     C72547   0.612  10.561   8.204  0.3195  0.8187 -0.3969
  538MOL0     C72548   0.580  10.610   8.077 -0.1625 -0.1321 -0.2262
  538MOL0     C72549   0.462  10.917   7.780  0.5580  0.8551  0.0496
  538MOL0     C72550   0.546  10.851   7.691 -0.5032 -0.5773 -0.1690
  538MOL0     C72551   0.591  10.909   7.571 -0.3751  0.1209 -0.7702
  538MOL0     C72552   0.550  11.030   7.531  0.5777  1.1654 -0.8414
  538MOL0     O72553   0.600  11.090   7.421 -0.0961 -0.3935  1.2027
  538MOL0     C72554   0.744  11.092   7.412 -1.2682 -0.0760  0.3551
  538MOL0     C72555   0.789  11.163   7.281  0.3343 -0.1968 -0.5284
  538MOL0     C72556   0.732  11.096   7.159 -0.6877  0.6051  0.5899
  538MOL0     C72557   0.787  10.958   7.117  0.6857  0.2511  0.4455
  538MOL0     C72558   0.933  10.959   7.100  0.2336  0.1816  0.8592
  538MOL0     C72559   1.054  10.962   7.092  1.3342 -0.8073  0.3821
  538MOL0     C72560   0.467  11.101   7.614 -0.4004  0.5539 -0.0417
  538MOL0     C72561   0.433  11.052   7.738  0.0689 -0.2938  0.0527
  538MOL0     C72562   0.346  11.135   7.829  1.4914 -0.0137 -0.1335
  538MOL0     H72563   0.263  10.709   8.127 -0.7108  0.3399  2.1027
  538MOL0     H72564   0.329  10.640   8.373  1.0708  0.7128 -0.2672
  538MOL0     H72565   0.514  10.704   8.540 -2.5173 -0.6179 -1.2744
  538MOL0     H72566   0.380  10.597   8.563  0.5541  1.6492  0.2915
  538MOL0     H72567   0.535  10.624   8.756 -2.1228 -2.1258  1.4833
  538MOL0     H72568   0.665  10.547   8.652 -1.4096 -2.8348 -1.4953
  538MOL0     H72569   0.601  10.374   8.775 -1.0336  2.3915  1.4374
  538MOL0     H72570   0.511  10.350   8.630  0.4140 -0.8426  0.1632
  538MOL0     H72571   0.395  10.327   8.893  1.1698  0.5392 -0.5486
  538MOL0     H72572   0.351  10.501   8.842 -2.4415 -1.1960  0.3131
  538MOL0     H72573   0.259  10.424   8.629 -0.3264 -1.9443 -1.7423
  538MOL0     H72574   0.314  10.266   8.663 -0.8149  0.6031 -1.5245
  538MOL0     H72575   0.144  10.251   8.861  1.8799 -0.1108  0.3096
  538MOL0     H72576   0.114  10.424   8.832 -2.5671  0.9449 -0.6555
  538MOL0     H72577  -0.034  10.208   8.751  0.4678  1.2728  2.7125
  538MOL0     H72578   0.074  10.226   8.607  1.7692  1.1735  1.2149
  538MOL0     H72579  -0.095  10.467   8.713 -0.0360  0.4764 -1.0264
  538MOL0     H72580  -0.009  10.443   8.556  0.4310  0.2274 -0.1796
  538MOL0     H72581  -0.194  10.445   8.364  0.3131  1.0139  1.3083
  538MOL0     H72582  -0.510  10.197   8.355  2.4052 -0.9116  2.8775
  538MOL0     H72583  -0.482  10.367   8.289 -0.2475 -0.2031 -2.1219
  538MOL0     H72584  -0.326  10.303   8.146 -3.8289  3.6504  0.9441
  538MOL0     H72585  -0.331  10.127   8.198 -1.8080 -1.6186 -2.7504
  538MOL0     H72586  -0.568  10.103   8.140  1.9159 -1.3157 -0.2963
  538MOL0     H72587  -0.458  10.123   8.007  0.9860  2.3870 -1.8723
  538MOL0     H72588  -0.635  10.364   8.112 -0.5778  1.5958 -0.4261
  538MOL0     H72589  -0.654  10.267   7.965  1.7078 -1.9759 -0.1623
  538MOL0     H72590  -0.590  10.256   7.753  0.1738 -1.6565 -2.3411
  538MOL0     H72591  -0.493  10.233   7.539 -2.5048  4.6194  0.7508
  538MOL0     H72592  -0.155  10.051   7.300 -0.5217  1.4015  1.3461
  538MOL0     H72593  -0.009   9.979   7.115 -1.4014 -0.3590  0.2473
  538MOL0     H72594   0.241   9.922   6.993 -0.4519  0.4912  0.6263
  538MOL0     H72595   0.103  10.008   6.921  0.3031  0.0020 -0.1646
  538MOL0     H72596   0.315  10.159   6.831  0.7946  0.1591 -0.0237
  538MOL0     H72597   0.407  10.017   6.858  0.2676 -0.6434 -1.3592
  538MOL0     H72598   0.274   9.890   6.699 -0.3093  0.2348 -0.5156
  538MOL0     H72599   0.163  10.025   6.659 -2.2351 -1.8486  3.3124
  538MOL0     H72600   0.473   9.998   6.641 -1.3169  0.4365  2.0731
  538MOL0     H72601   0.383  10.146   6.599  2.6025 -0.3228  1.3884
  538MOL0     H72602   0.278  10.017   6.397  1.8730 -0.3590 -2.2273
  538MOL0     H72603   0.337   9.867   6.465  0.0973  0.8078  2.3520
  538MOL0     H72604   0.574   9.949   6.427 -1.4368 -4.4083 -1.2748
  538MOL0     H72605   0.474   9.933   6.278 -0.2365  2.4892 -1.4052
  538MOL0     H72606   0.602  10.114   6.241 -0.9217 -0.1437 -2.3065
  538MOL0     H72607   0.545  10.198   6.393 -0.6946 -2.6035  1.9050
  538MOL0     H72608   0.329  10.217   6.304 -0.2028 -2.0232  0.4395
  538MOL0     H72609   0.444  10.265   6.173  3.0974 -0.4630  0.1485
  538MOL0     H72610   0.260  10.299   7.220  0.6553 -0.0137  0.9654
  538MOL0     H72611   0.114  10.386   7.380 -1.8889  1.3181 -0.5761
  538MOL0     H72612  -0.125  10.380   7.690 -0.8095 -0.5683 -2.1899
  538MOL0     H72613  -0.227  10.423   7.912  1.2423 -0.9897 -0.0821
  538MOL0     H72614   0.704  10.525   8.249 -1.1367  1.1300  3.1683
  538MOL0     H72615   0.641  10.609   7.987 -2.2784 -2.6393 -1.7653
  538MOL0     H72616   0.579  10.753   7.723  0.6892  0.6508  2.6934
  538MOL0     H72617   0.658  10.841   7.519 -0.2562 -0.2164 -0.1873
  538MOL0     H72618   0.799  10.998   7.428  0.1852  0.8444  1.0055
  538MOL0     H72619   0.781  11.156   7.493 -0.9155  0.8886 -0.5472
  538MOL0     H72620   0.896  11.156   7.301  0.8754  0.6352 -2.8888
  538MOL0     H72621   0.741  11.261   7.272  0.8470 -0.1236 -3.9143
  538MOL0     H72622   0.762  11.156   7.073  2.1435 -1.9605 -0.4258
  538MOL0     H72623   0.623  11.088   7.157 -0.5751 -2.1076  1.3904
  538MOL0     H72624   0.754  10.874   7.178 -1.4226  0.4621 -0.3076
  538MOL0     H72625   0.741  10.950   7.018  0.5650  0.5506  0.4731
  538MOL0     H72626   1.160  10.958   7.083  1.1977  0.2164 -3.1841
  538MOL0     H72627   0.438  11.196   7.570  0.8861  0.1959 -1.7441
  538MOL0     H72628   0.404  11.157   7.919  0.6896 -2.2211  1.0193
  538MOL0     H72629   0.312  11.222   7.773  3.0037 -0.1029 -1.2338
  538MOL0     H72630   0.257  11.081   7.865  0.9819  1.5807  1.0958
  539MOL0     O72631   6.275   5.696   0.980 -0.3019  0.6007  0.6082
  539MOL0     C72632   6.291   5.779   1.060  0.8855 -1.0572 -0.7400
  539MOL0     O72633   6.252   5.771   1.187  0.6663  0.8052 -0.0420
  539MOL0     C72634   6.199   5.657   1.235 -0.3228  0.5005  0.2838
  539MOL0     C72635   6.092   5.664   1.326  0.4323  0.6324  0.6096
  539MOL0     C72636   6.048   5.558   1.394  0.1600  0.0679  0.0776
  539MOL0     C72637   6.115   5.434   1.379  0.1309 -0.6064  0.4139
  539MOL0     O72638   6.048   5.341   1.449 -0.6840 -0.3937 -0.2619
  539MOL0     C72639   6.086   5.209   1.434 -0.3833 -0.1602 -0.9889
  539MOL0     C72640   6.109   5.115   1.558  0.2781 -0.5767  0.0330
  539MOL0     C72641   6.180   5.165   1.693 -0.9779 -0.6483  0.7970
  539MOL0     C72642   6.330   5.128   1.680  0.7814  0.1779 -0.2015
  539MOL0     C72643   6.421   5.238   1.752 -0.1733  0.3941 -0.2551
  539MOL0     C72644   6.434   5.217   1.906  0.4896 -0.7595  0.0490
  539MOL0     C72645   6.503   5.327   1.992 -0.7156  0.9549 -0.0494
  539MOL0     C72646   6.645   5.355   1.960  0.0190  0.4257 -0.3852
  539MOL0     N72647   6.721   5.424   2.076 -0.0464  0.7300  0.9371
  539MOL0     C72648   6.703   5.549   2.104  0.0227  0.9326 -0.2129
  539MOL0     C72649   6.789   5.578   2.201  0.7535  0.4521 -0.0519
  539MOL0     C72650   6.833   5.709   2.241  0.2856  0.5665 -0.6815
  539MOL0     C72651   6.789   5.743   2.380  0.4693  0.7780  0.3100
  539MOL0     C72652   6.861   5.871   2.414 -0.0413  0.2167  0.0195
  539MOL0     C72653   6.810   5.926   2.545  0.4733  0.3122  0.0479
  539MOL0     O72654   6.879   6.045   2.582 -0.1300 -0.7511  0.2570
  539MOL0     C72655   6.951   6.052   2.696  0.1778 -0.5252 -0.0683
  539MOL0     C72656   7.062   6.141   2.701  0.9515 -0.6752 -0.1864
  539MOL0     C72657   7.152   6.144   2.813  0.4902 -0.3760  0.2519
  539MOL0     C72658   7.116   6.080   2.932  0.6906 -0.5106  0.0189
  539MOL0     C72659   7.213   6.085   3.041  0.1722  0.4309  0.1915
  539MOL0     O72660   7.299   6.185   3.033  0.2877  0.1859  0.0032
  539MOL0     C72661   7.382   6.215   3.142 -0.5329 -0.6246  0.0657
  539MOL0     C72662   7.512   6.257   3.101 -0.0388  0.1330 -0.0652
  539MOL0     C72663   7.614   6.292   3.191 -0.1873  0.3333  0.2409
  539MOL0     C72664   7.584   6.282   3.330 -0.1444  0.3716 -0.8674
  539MOL0     O72665   7.664   6.318   3.433  0.1960  0.3088  0.4997
  539MOL0     C72666   7.771   6.410   3.414  0.6876 -1.0261  0.7191
  539MOL0     C72667   7.842   6.432   3.543 -0.0917  0.4419 -0.2777
  539MOL0     C72668   7.971   6.519   3.528 -0.0057 -0.7222 -0.0394
  539MOL0     C72669   8.099   6.437   3.533 -0.5208 -0.3206 -0.5683
  539MOL0     C72670   8.227   6.516   3.516 -0.6287 -0.4365 -0.2355
  539MOL0     C72671   8.353   6.438   3.530 -0.3169  0.6869  0.9645
  539MOL0     C72672   8.389   6.410   3.674  0.5175  0.6862 -1.2484
  539MOL0     C72673   8.505   6.313   3.679 -0.4349  0.0119 -0.4769
  539MOL0    Cl72674   8.546   6.306   3.857 -0.0302 -0.0799 -0.1239
  539MOL0     C72675   7.457   6.225   3.372  0.2095 -0.1413 -0.0692
  539MOL0     C72676   7.356   6.205   3.280  0.0499  0.8021  0.2236
  539MOL0     O72677   7.216   5.995   3.121  0.3575 -0.2622  0.6398
  539MOL0     C72678   7.006   5.992   2.931  1.2107 -0.4395 -0.3016
  539MOL0     C72679   6.927   5.979   2.821  0.5328 -0.4635  1.7626
  539MOL0     N72680   6.841   5.461   2.255 -0.7537  0.4717 -0.3543
  539MOL0     N72681   6.788   5.366   2.184 -0.7867 -0.1962  0.0764
  539MOL0     C72682   6.223   5.423   1.288  0.3898  0.1063  0.5139
  539MOL0     C72683   6.271   5.535   1.229 -0.5445  0.6196  1.0405
  539MOL0     C72684   6.363   5.907   1.019  0.4598  0.5714  0.2029
  539MOL0     C72685   6.416   5.980   1.119  0.2887 -0.3115  0.0662
  539MOL0     C72686   6.475   6.099   1.102  0.7666  0.1574 -0.1752
  539MOL0     C72687   6.478   6.161   0.980 -0.0085  0.3634 -0.2970
  539MOL0     O72688   6.545   6.282   0.973 -0.0494 -1.1028 -0.6974
  539MOL0     C72689   6.520   6.348   0.841 -0.0181  0.3827 -0.0059
  539MOL0     C72690   6.578   6.496   0.838  0.5185  0.1476 -0.0825
  539MOL0     C72691   6.505   6.589   0.730 -0.0356  0.7101  0.5764
  539MOL0     C72692   6.563   6.731   0.716  0.7792 -1.0251  0.0331
  539MOL0     C72693   6.451   6.832   0.689 -0.6011  0.5259 -0.4666
  539MOL0     C72694   6.352   6.911   0.675 -0.4234 -0.3708 -0.3179
  539MOL0     C72695   6.422   6.089   0.869 -0.6908  0.3720 -0.3708
  539MOL0     C72696   6.368   5.961   0.892  0.3686  0.7514  0.2358
  539MOL0     C72697   6.315   5.891   0.763  0.4995  0.0228  0.1642
  539MOL0     H72698   6.040   5.758   1.339  0.9150  0.6212  2.9486
  539MOL0     H72699   5.964   5.570   1.461  1.9496 -0.1813  2.5193
  539MOL0     H72700   6.019   5.162   1.362  2.7406  0.0676 -4.3576
  539MOL0     H72701   6.181   5.196   1.382 -0.0949  3.8911 -1.7823
  539MOL0     H72702   6.149   5.018   1.528  1.9544  0.4757 -1.2919
  539MOL0     H72703   6.008   5.081   1.584  0.4745 -0.2809  1.2170
  539MOL0     H72704   6.128   5.123   1.780 -3.0240  2.1191  1.0526
  539MOL0     H72705   6.175   5.274   1.703  1.5022 -0.4820  0.9997
  539MOL0     H72706   6.343   5.029   1.724 -0.3946 -0.2358 -0.7550
  539MOL0     H72707   6.344   5.106   1.574 -3.8443 -2.7742 -0.4579
  539MOL0     H72708   6.521   5.244   1.707 -0.9814 -0.5441 -2.3174
  539MOL0     H72709   6.381   5.339   1.741  2.3162  1.4916  0.0009
  539MOL0     H72710   6.332   5.206   1.944  0.9077  2.0710  2.2595
  539MOL0     H72711   6.475   5.116   1.916 -0.0954 -0.9315  0.7699
  539MOL0     H72712   6.512   5.293   2.096  1.3971 -1.4068 -0.8825
  539MOL0     H72713   6.439   5.415   1.990 -1.6879  0.2529 -1.8583
  539MOL0     H72714   6.690   5.261   1.927  1.0285  1.4420 -2.0641
  539MOL0     H72715   6.648   5.423   1.874  0.7181  1.2019  0.2286
  539MOL0     H72716   6.642   5.617   2.046  1.8042  3.7214  1.0167
  539MOL0     H72717   6.942   5.706   2.239  0.5400  3.5088  1.4024
  539MOL0     H72718   6.789   5.782   2.173  1.1525  0.7407 -1.0695
  539MOL0     H72719   6.681   5.757   2.375  0.6318  1.8247 -3.1743
  539MOL0     H72720   6.817   5.665   2.452 -1.0423  0.9995  1.1655
  539MOL0     H72721   6.855   5.945   2.333 -0.3475  1.8305  1.4572
  539MOL0     H72722   6.969   5.857   2.421  0.6129  2.8484 -2.6069
  539MOL0     H72723   6.810   5.848   2.621 -0.9414  0.3641  0.1249
  539MOL0     H72724   6.705   5.957   2.534  0.2552 -0.2287  0.5685
  539MOL0     H72725   7.079   6.187   2.604 -0.1058 -2.8506 -1.4919
  539MOL0     H72726   7.244   6.200   2.799  0.1304 -0.0195 -0.8363
  539MOL0     H72727   7.521   6.251   2.993  0.3551  0.2031 -0.0369
  539MOL0     H72728   7.709   6.328   3.153  0.1517  0.5863  1.2811
  539MOL0     H72729   7.840   6.374   3.337  0.1107  0.4508 -0.5247
  539MOL0     H72730   7.727   6.506   3.385 -1.6194 -2.4760 -0.9264
  539MOL0     H72731   7.774   6.492   3.605 -0.3641  0.4189 -0.5521
  539MOL0     H72732   7.851   6.336   3.595 -0.7030 -0.4711 -1.7714
  539MOL0     H72733   7.950   6.583   3.442 -1.7195 -4.1124 -2.3727
  539MOL0     H72734   7.976   6.583   3.617 -0.4508 -1.2444  0.3660
  539MOL0     H72735   8.092   6.363   3.453  0.6261  0.0940 -1.0779
  539MOL0     H72736   8.100   6.387   3.630 -0.8520  4.9378  2.5154
  539MOL0     H72737   8.235   6.605   3.578 -1.1695  0.3459 -1.2632
  539MOL0     H72738   8.225   6.564   3.418 -1.1586  4.5739  1.9378
  539MOL0     H72739   8.347   6.340   3.483  2.6996  1.1789 -0.7204
  539MOL0     H72740   8.443   6.482   3.486  0.0530 -1.5785 -0.6952
  539MOL0     H72741   8.304   6.364   3.725  1.3113 -1.0521 -1.4411
  539MOL0     H72742   8.406   6.501   3.734 -0.2405  0.6887 -1.0282
  539MOL0     H72743   8.480   6.217   3.633  1.5510 -0.5578 -0.4596
  539MOL0     H72744   8.584   6.371   3.630 -0.6890 -0.4972 -1.5211
  539MOL0     H72745   7.441   6.232   3.479 -2.0064  1.4888 -0.4258
  539MOL0     H72746   7.257   6.167   3.299 -1.3494  3.1666 -1.7725
  539MOL0     H72747   6.982   5.947   3.026  2.0758 -2.6049 -1.0373
  539MOL0     H72748   6.835   5.922   2.825 -0.7061  1.1274 -1.0557
  539MOL0     H72749   6.289   5.338   1.273  6.1825  4.2421 -0.7295
  539MOL0     H72750   6.359   5.533   1.166 -0.1028  0.2258  1.6575
  539MOL0     H72751   6.409   5.947   1.222 -1.5540  0.5128  0.2497
  539MOL0     H72752   6.515   6.150   1.190 -1.6599  1.9553  0.0015
  539MOL0     H72753   6.415   6.358   0.814  0.1991  1.4436 -0.5089
  539MOL0     H72754   6.578   6.290   0.769  0.7669 -1.0992  1.7546
  539MOL0     H72755   6.686   6.496   0.820  0.1587  0.3142 -2.5948
  539MOL0     H72756   6.565   6.538   0.938  1.1350 -2.1827  1.0351
  539MOL0     H72757   6.402   6.580   0.766  0.2178 -1.3276  0.9223
  539MOL0     H72758   6.504   6.537   0.633 -2.1080  2.8612 -0.6631
  539MOL0     H72759   6.592   6.759   0.817 -2.4304  1.0711  0.5203
  539MOL0     H72760   6.640   6.727   0.638  0.5740 -1.5833 -0.1495
  539MOL0     H72761   6.259   6.963   0.666  0.4161  1.1885 -0.2509
  539MOL0     H72762   6.427   6.128   0.768  0.5864  2.9173  0.5896
  539MOL0     H72763   6.209   5.872   0.780 -0.0109  1.4174 -1.2075
  539MOL0     H72764   6.326   5.941   0.666  0.2949 -0.4306 -0.0934
  539MOL0     H72765   6.361   5.793   0.750  0.4015  0.0465 -0.3952
  540MOL0     O72766   2.419   1.996   7.478 -0.6740  0.3625 -0.4126
  540MOL0     C72767   2.379   1.979   7.365 -0.1891  0.4237  0.9503
  540MOL0     O72768   2.247   1.943   7.338 -0.0161 -0.1736  0.3294
  540MOL0     C72769   2.184   1.908   7.449 -0.2346  0.3506 -0.1126
  540MOL0     C72770   2.217   1.791   7.520  0.7453 -1.1395 -0.1017
  540MOL0     C72771   2.142   1.750   7.635 -0.1617  0.0196  0.1131
  540MOL0     C72772   2.035   1.833   7.679 -1.0846 -0.1707  0.4603
  540MOL0     O72773   1.950   1.806   7.781  0.5387 -0.0920 -0.2986
  540MOL0     C72774   1.906   1.671   7.816 -0.1644 -0.2615 -0.0287
  540MOL0     C72775   1.828   1.663   7.934 -0.3046 -0.0635 -0.0122
  540MOL0     C72776   1.696   1.730   7.918 -0.1206 -0.4440 -0.8037
  540MOL0     C72777   1.635   1.748   8.062  0.6714  0.0753 -0.5718
  540MOL0     C72778   1.542   1.864   8.070 -0.1304  0.4445 -0.9985
  540MOL0     C72779   1.497   1.898   8.206 -0.0637 -0.1344 -0.3234
  540MOL0     C72780   1.349   1.859   8.257 -0.8880 -0.5610  0.0452
  540MOL0     C72781   1.330   1.711   8.249 -0.2117  0.2243  0.2423
  540MOL0     N72782   1.229   1.651   8.338  0.4565  0.7942 -0.0647
  540MOL0     C72783   1.103   1.610   8.297  0.1480  0.1321 -0.2909
  540MOL0     C72784   1.041   1.572   8.411 -0.4013  0.8540  0.5039
  540MOL0     C72785   0.904   1.514   8.417  0.3545 -0.0117  0.2532
  540MOL0     C72786   0.895   1.363   8.416 -0.2718 -0.7344  0.0848
  540MOL0     C72787   0.933   1.290   8.281 -0.4602 -0.2359  0.7413
  540MOL0     C72788   0.918   1.143   8.301  0.1626 -0.2005  0.3692
  540MOL0     O72789   1.038   1.106   8.373 -0.1593  0.2268 -0.0559
  540MOL0     C72790   1.079   0.976   8.390  0.2583 -0.1884  0.9327
  540MOL0     C72791   1.010   0.868   8.352  0.5156 -0.4674 -0.8918
  540MOL0     C72792   1.055   0.740   8.388  0.2913  0.6547  0.8247
  540MOL0     C72793   1.175   0.717   8.453 -1.2251  0.1076  1.2517
  540MOL0     C72794   1.220   0.585   8.503 -0.6516 -0.3394 -0.3515
  540MOL0     O72795   1.128   0.488   8.504 -0.0570 -0.0188  0.1599
  540MOL0     C72796   1.141   0.355   8.545  0.1346  0.3646  0.0367
  540MOL0     C72797   1.027   0.283   8.546  0.8319 -0.0944 -0.1020
  540MOL0     C72798   1.027   0.143   8.565 -0.1303 -0.7544 -0.9291
  540MOL0     C72799   1.153   0.076   8.591  0.7818 -0.0039 -0.6635
  540MOL0     O72800   1.154  -0.064   8.604  0.0785 -0.4029  0.8073
  540MOL0     C72801   1.066  -0.154   8.541  0.0487  0.1652  0.1876
  540MOL0     C72802   1.054  -0.143   8.387  0.9107  1.0489 -0.2245
  540MOL0     C72803   0.972  -0.249   8.320 -0.4756 -0.0906 -0.4963
  540MOL0     C72804   1.052  -0.334   8.227  0.2801  0.3302 -0.7402
  540MOL0     C72805   0.968  -0.457   8.171 -0.5415  0.0165 -0.2826
  540MOL0     C72806   0.941  -0.573   8.273  0.1712 -0.6723 -0.0722
  540MOL0     C72807   0.822  -0.664   8.221 -0.4759  0.4755  0.6438
  540MOL0     C72808   0.685  -0.592   8.217  0.7112  0.9421 -0.0637
  540MOL0    Cl72809   0.680  -0.450   8.337 -0.5454  0.3323 -0.0963
  540MOL0     C72810   1.268   0.153   8.600 -0.8016 -0.7526 -0.0261
  540MOL0     C72811   1.264   0.293   8.581  0.4373  0.1962  0.3285
  540MOL0     O72812   1.333   0.586   8.552  0.7099 -0.0153  0.4904
  540MOL0     C72813   1.249   0.830   8.485  0.0232  0.8609  0.4123
  540MOL0     C72814   1.204   0.959   8.454  0.9219  0.5854  0.8052
  540MOL0     N72815   1.123   1.593   8.512  0.3493 -0.3654 -0.5995
  540MOL0     N72816   1.241   1.632   8.477  0.3295 -0.6310  0.1486
  540MOL0     C72817   2.000   1.945   7.603 -1.3052 -0.1610 -0.0919
  540MOL0     C72818   2.081   1.989   7.496  0.6095 -0.1328  0.4748
  540MOL0     C72819   2.483   1.976   7.259 -0.1250  0.3049 -1.3573
  540MOL0     C72820   2.603   1.908   7.293 -0.9134  0.0747 -0.6073
  540MOL0     C72821   2.714   1.916   7.209  0.5489  0.2073  0.1199
  540MOL0     C72822   2.699   1.982   7.083 -0.8335  0.7986 -0.1934
  540MOL0     O72823   2.819   1.981   7.008  0.6319  0.2704 -0.7543
  540MOL0     C72824   2.819   2.053   6.883 -0.7825 -0.1258  0.1891
  540MOL0     C72825   2.960   2.090   6.845  1.1632  0.4543 -0.0700
  540MOL0     C72826   3.001   2.218   6.910 -0.5830  0.5874  0.2469
  540MOL0     C72827   3.099   2.205   7.025  0.6385  0.6116  0.1774
  540MOL0     C72828   3.083   2.315   7.105 -0.0943 -0.0355  0.2200
  540MOL0     C72829   3.047   2.406   7.165 -0.6804  0.1231  0.0665
  540MOL0     C72830   2.587   2.046   7.053  0.1145  0.1472  0.1608
  540MOL0     C72831   2.472   2.046   7.132  0.2067  0.9342  0.6566
  540MOL0     C72832   2.358   2.137   7.094  0.4840 -1.7922 -0.1848
  540MOL0     H72833   2.303   1.735   7.485  1.4734  1.1139 -2.1285
  540MOL0     H72834   2.169   1.660   7.689  0.8504 -0.3227 -0.9119
  540MOL0     H72835   1.850   1.629   7.732  0.4154  2.2732 -1.8293
  540MOL0     H72836   1.997   1.614   7.836  0.7589  0.6540 -1.4337
  540MOL0     H72837   1.881   1.728   8.005 -1.5996  0.9435  0.0732
  540MOL0     H72838   1.835   1.558   7.966  2.5115 -0.1593 -0.6517
  540MOL0     H72839   1.634   1.668   7.852  0.1355 -0.3493 -1.1303
  540MOL0     H72840   1.715   1.828   7.874  1.6497  0.3098  1.4710
  540MOL0     H72841   1.570   1.661   8.076  0.3340  0.4859  0.5649
  540MOL0     H72842   1.711   1.745   8.141  1.2053  0.8466 -1.0352
  540MOL0     H72843   1.608   1.948   8.048  0.2362  1.6631  3.7704
  540MOL0     H72844   1.466   1.861   7.991  1.0593 -1.3766 -2.1524
  540MOL0     H72845   1.566   1.861   8.281 -2.2977 -1.7821  1.0366
  540MOL0     H72846   1.501   2.007   8.215 -0.1890 -0.2501  1.3182
  540MOL0     H72847   1.269   1.908   8.200  0.8670  1.3580 -0.9081
  540MOL0     H72848   1.340   1.890   8.361 -1.1723  0.6550 -0.3218
  540MOL0     H72849   1.322   1.682   8.144 -0.2580  0.1084  0.2782
  540MOL0     H72850   1.425   1.681   8.296  0.7228  0.3509 -1.4783
  540MOL0     H72851   1.067   1.612   8.195 -0.0411 -0.4665 -0.2405
  540MOL0     H72852   0.849   1.554   8.503  1.6412 -1.1816  1.6759
  540MOL0     H72853   0.847   1.559   8.335 -0.2786  0.5692  0.9924
  540MOL0     H72854   0.954   1.325   8.499 -0.3624  3.0596  2.1071
  540MOL0     H72855   0.794   1.336   8.449  0.7714 -1.9712  2.5117
  540MOL0     H72856   1.034   1.324   8.259  0.1463 -0.5268  2.7863
  540MOL0     H72857   0.871   1.328   8.200  1.0231  2.5562  0.8090
  540MOL0     H72858   0.908   1.083   8.210 -1.9366 -1.1426  1.1447
  540MOL0     H72859   0.830   1.128   8.364  0.9288 -1.0701  1.2497
  540MOL0     H72860   0.913   0.867   8.304 -0.7752  0.7109  1.5127
  540MOL0     H72861   0.995   0.653   8.365  0.8814  0.3574  0.3988
  540MOL0     H72862   0.928   0.326   8.537 -1.3140 -3.9413  2.2754
  540MOL0     H72863   0.937   0.082   8.561  0.6533 -1.9708 -0.6872
  540MOL0     H72864   1.081  -0.260   8.563 -0.6230  0.3104  1.4234
  540MOL0     H72865   0.968  -0.131   8.583 -0.0955 -0.8892  0.4620
  540MOL0     H72866   0.997  -0.055   8.355 -1.3555  0.5511  2.1410
  540MOL0     H72867   1.153  -0.138   8.340  1.2814 -1.0674  0.2595
  540MOL0     H72868   0.920  -0.307   8.396  1.0397 -1.4287 -0.4240
  540MOL0     H72869   0.898  -0.204   8.254  2.3387  2.6053 -2.1187
  540MOL0     H72870   1.140  -0.364   8.285 -1.1030  1.0646  1.8776
  540MOL0     H72871   1.107  -0.290   8.143  1.1964  0.5824 -0.0231
  540MOL0     H72872   1.027  -0.492   8.085 -0.2072  2.9847 -1.3524
  540MOL0     H72873   0.871  -0.425   8.132 -2.0255 -2.2535  1.2660
  540MOL0     H72874   1.038  -0.624   8.275 -0.4284 -1.8485  0.0385
  540MOL0     H72875   0.923  -0.531   8.373  0.5664 -2.9800  1.0457
  540MOL0     H72876   0.813  -0.736   8.303 -1.0175  1.5633  1.5750
  540MOL0     H72877   0.843  -0.724   8.133 -0.1890  0.1887  0.9041
  540MOL0     H72878   0.681  -0.546   8.118 -0.6265 -0.3107 -0.6332
  540MOL0     H72879   0.594  -0.653   8.222  0.3252  1.3593 -1.5155
  540MOL0     H72880   1.347   0.083   8.625 -2.6919 -2.0787  2.7979
  540MOL0     H72881   1.358   0.345   8.599  2.3927 -2.3849 -1.6514
  540MOL0     H72882   1.341   0.827   8.543 -0.0463  1.5989  0.5749
  540MOL0     H72883   1.253   1.046   8.496  0.0496  1.3359  0.2857
  540MOL0     H72884   1.908   1.994   7.632 -0.9348 -0.4483  1.7095
  540MOL0     H72885   2.052   2.070   7.431 -1.2722 -1.5584 -0.5703
  540MOL0     H72886   2.606   1.854   7.388 -3.5335 -1.2097 -1.1589
  540MOL0     H72887   2.803   1.870   7.251  1.4433  3.3565  2.0220
  540MOL0     H72888   2.764   2.146   6.900 -1.1486 -0.3730  0.3618
  540MOL0     H72889   2.765   1.997   6.806 -3.2139  2.2134  0.0649
  540MOL0     H72890   2.945   2.093   6.736 -0.9040 -0.7737  0.1295
  540MOL0     H72891   3.032   2.007   6.852  1.6122  0.8699  0.2842
  540MOL0     H72892   2.913   2.272   6.945 -0.7855  1.4787 -1.5067
  540MOL0     H72893   3.049   2.279   6.833 -1.6965 -1.5993 -2.3752
  540MOL0     H72894   3.067   2.124   7.090  1.4731  2.1699  2.6442
  540MOL0     H72895   3.198   2.171   6.993 -0.5731 -2.8352 -0.3444
  540MOL0     H72896   3.024   2.489   7.229  1.1320 -1.6258  3.2453
  540MOL0     H72897   2.586   2.120   6.974 -0.2494 -2.5307 -2.5219
  540MOL0     H72898   2.277   2.151   7.167  3.1728 -2.3995  3.1900
  540MOL0     H72899   2.398   2.239   7.090 -2.0172 -0.7433 -0.4420
  540MOL0     H72900   2.324   2.112   6.993  0.8500  1.3337 -1.2017
  541MOL0     O72901   1.173   4.099   7.580  0.6136  0.3830 -0.5704
  541MOL0     C72902   1.193   4.004   7.654  0.3404  0.1125  0.5680
  541MOL0     O72903   1.193   4.014   7.791 -0.5213 -0.4583  0.2581
  541MOL0     C72904   1.111   4.109   7.848 -1.1633 -0.7862  0.0212
  541MOL0     C72905   0.971   4.106   7.828  0.7020 -0.0461 -0.6835
  541MOL0     C72906   0.883   4.212   7.888 -0.3393 -0.5777 -0.2481
  541MOL0     C72907   0.937   4.310   7.962 -0.6486 -0.2491  0.5285
  541MOL0     O72908   0.857   4.406   8.017  0.6792 -0.2497 -0.6748
  541MOL0     C72909   0.766   4.472   7.928 -0.5466  0.0148  0.9171
  541MOL0     C72910   0.690   4.574   8.007  0.8325 -0.9787  0.5135
  541MOL0     C72911   0.581   4.632   7.918  0.7447 -0.1312 -0.3573
  541MOL0     C72912   0.642   4.744   7.827  0.1331  0.2952 -0.4847
  541MOL0     C72913   0.524   4.823   7.767 -0.2037  0.4211 -0.6795
  541MOL0     C72914   0.466   4.938   7.850  0.1760  0.3418  0.1003
  541MOL0     C72915   0.564   5.017   7.940  0.8503 -0.8308 -0.2619
  541MOL0     C72916   0.527   5.164   7.959 -0.3988 -0.1513  0.4262
  541MOL0     N72917   0.401   5.192   8.040 -0.0230 -0.0501  1.5848
  541MOL0     C72918   0.394   5.210   8.172 -0.4097 -0.2275 -0.4717
  541MOL0     C72919   0.278   5.169   8.212 -0.4399 -0.2610  0.3882
  541MOL0     C72920   0.201   5.163   8.341  0.8684 -0.4219  0.5832
  541MOL0     C72921   0.252   5.043   8.423  0.2237  0.1662 -0.1652
  541MOL0     C72922   0.387   5.057   8.496  0.0152  0.6831  0.2415
  541MOL0     C72923   0.398   5.160   8.605  0.1066  0.4187  0.2511
  541MOL0     O72924   0.276   5.153   8.683 -0.3034 -0.0910  0.4352
  541MOL0     C72925   0.272   5.245   8.782 -0.6285  0.3956 -1.4400
  541MOL0     C72926   0.376   5.321   8.843 -0.2332  0.3634 -0.2112
  541MOL0     C72927   0.349   5.427   8.925  0.2778  0.5521 -0.2465
  541MOL0     C72928   0.218   5.463   8.962 -0.5039 -0.4767 -0.2096
  541MOL0     C72929   0.191   5.576   9.050 -0.2249 -0.0631 -0.5573
  541MOL0     O72930   0.065   5.637   9.044 -0.4727 -0.4033  0.3425
  541MOL0     C72931   0.044   5.750   9.115 -1.0499 -0.1704  0.0528
  541MOL0     C72932   0.042   5.748   9.255 -0.0846 -0.1822 -0.1913
  541MOL0     C72933   0.020   5.874   9.329 -1.1951 -0.2299 -0.7578
  541MOL0     C72934  -0.014   5.988   9.271  0.7701 -0.5780  0.2884
  541MOL0     O72935  -0.033   6.096   9.359  0.4402 -0.2970 -0.5077
  541MOL0     C72936  -0.037   6.225   9.295 -0.1138 -0.5358  0.3071
  541MOL0     C72937  -0.069   6.317   9.418  0.6837  0.0352  0.5731
  541MOL0     C72938  -0.067   6.466   9.372 -0.5468  1.9426 -1.0325
  541MOL0     C72939  -0.129   6.546   9.486  0.3216  0.0851  0.4832
  541MOL0     C72940  -0.143   6.696   9.453 -0.2484  0.1388 -0.3758
  541MOL0     C72941  -0.150   6.789   9.581 -0.2671 -1.0303 -0.1540
  541MOL0     C72942  -0.117   6.934   9.560  0.2274  0.6311 -0.4135
  541MOL0     C72943  -0.109   7.016   9.678  0.4655  0.3909 -0.1634
  541MOL0    Cl72944  -0.195   7.175   9.687 -0.5689 -0.0212 -0.1828
  541MOL0     C72945   0.002   5.995   9.124  0.4774  0.2993 -0.5060
  541MOL0     C72946   0.025   5.873   9.048  0.1319 -0.4506  0.1640
  541MOL0     O72947   0.284   5.611   9.125  0.4450 -0.6889 -0.1567
  541MOL0     C72948   0.112   5.388   8.907  0.2032 -0.5271  0.0831
  541MOL0     C72949   0.144   5.278   8.826 -0.3925 -0.5936  0.2947
  541MOL0     N72950   0.209   5.129   8.105  0.2552 -0.6015 -0.0362
  541MOL0     N72951   0.278   5.142   8.004 -0.3488  0.7908  0.7464
  541MOL0     C72952   1.081   4.310   7.972 -0.7741 -0.2408 -0.6071
  541MOL0     C72953   1.157   4.210   7.918  0.3374  0.1414  0.1874
  541MOL0     C72954   1.216   3.863   7.595  0.6689 -0.5484 -0.2705
  541MOL0     C72955   1.294   3.776   7.667  0.0442  1.2945  0.1492
  541MOL0     C72956   1.318   3.649   7.610  0.5301  1.0991  0.1862
  541MOL0     C72957   1.270   3.606   7.489 -0.1797 -0.3009 -0.2732
  541MOL0     O72958   1.288   3.474   7.448 -0.3192 -0.1438  0.3993
  541MOL0     C72959   1.415   3.436   7.407 -0.6948 -0.2396 -0.2292
  541MOL0     C72960   1.414   3.342   7.281  0.2774  0.4339  0.0125
  541MOL0     C72961   1.358   3.206   7.314  0.4860  0.6298 -0.1905
  541MOL0     C72962   1.453   3.120   7.404 -0.3222  0.1238 -0.5004
  541MOL0     C72963   1.579   3.086   7.327  0.6054 -0.0291 -0.2699
  541MOL0     C72964   1.673   3.051   7.262  1.0603 -0.0003  0.3573
  541MOL0     C72965   1.189   3.692   7.421  0.9750  0.1820 -0.1530
  541MOL0     C72966   1.157   3.819   7.469 -0.6944  1.3774  0.6586
  541MOL0     C72967   1.066   3.900   7.386  0.9058 -0.3634 -0.5034
  541MOL0     H72968   0.924   4.024   7.774  0.3370 -0.0917 -0.3061
  541MOL0     H72969   0.775   4.206   7.895 -0.4110  1.3766  1.2656
  541MOL0     H72970   0.840   4.520   7.862 -0.1617  0.6755  1.8091
  541MOL0     H72971   0.706   4.398   7.875 -0.7541  1.9728 -1.8060
  541MOL0     H72972   0.754   4.651   8.052 -0.6032 -1.2335  3.1649
  541MOL0     H72973   0.652   4.533   8.101  1.8693  0.1804  1.4794
  541MOL0     H72974   0.503   4.674   7.981  1.5406 -0.0739  0.6227
  541MOL0     H72975   0.522   4.565   7.855 -0.9462  0.8687  0.0926
  541MOL0     H72976   0.717   4.811   7.870 -0.9847  2.9930 -2.4562
  541MOL0     H72977   0.677   4.689   7.739 -4.0126 -1.5619 -1.2245
  541MOL0     H72978   0.543   4.870   7.670  1.5053  1.7998  0.2650
  541MOL0     H72979   0.444   4.751   7.746  2.2841 -2.2773 -1.7199
  541MOL0     H72980   0.416   5.016   7.791 -0.9962  2.1143  3.1802
  541MOL0     H72981   0.388   4.896   7.915  1.4958 -0.1179  1.4377
  541MOL0     H72982   0.663   5.024   7.893  1.6020  1.8364  1.5238
  541MOL0     H72983   0.572   4.969   8.038 -1.6172 -3.0298 -1.0108
  541MOL0     H72984   0.611   5.218   8.004  0.3119 -0.3559 -0.6042
  541MOL0     H72985   0.519   5.212   7.861  2.1809 -0.0074  0.2131
  541MOL0     H72986   0.454   5.234   8.259 -1.3360 -0.7181  0.3288
  541MOL0     H72987   0.211   5.258   8.394 -0.9219  0.9673 -1.3963
  541MOL0     H72988   0.093   5.156   8.328  0.2894  5.4548 -0.4343
  541MOL0     H72989   0.173   5.012   8.493  0.8957 -2.1589 -0.3334
  541MOL0     H72990   0.266   4.957   8.356  4.2039  0.4266  0.1144
  541MOL0     H72991   0.473   5.077   8.431  0.6882  2.9491  1.6975
  541MOL0     H72992   0.398   4.958   8.542  4.3279  1.6733  1.8804
  541MOL0     H72993   0.426   5.254   8.555  0.6292 -1.0928 -2.4894
  541MOL0     H72994   0.488   5.140   8.664  2.0500  0.8767 -2.3537
  541MOL0     H72995   0.482   5.312   8.823 -0.6467  0.4634 -2.7161
  541MOL0     H72996   0.424   5.485   8.977  0.0034  3.1702 -2.5193
  541MOL0     H72997   0.054   5.652   9.305  2.0336 -0.7350 -1.6609
  541MOL0     H72998   0.021   5.875   9.437  1.3288 -2.5808 -0.6424
  541MOL0     H72999   0.065   6.253   9.266  0.4854 -3.5002 -0.8316
  541MOL0     H73000  -0.108   6.238   9.213 -0.1285  0.3526  0.4508
  541MOL0     H73001  -0.172   6.317   9.455 -1.4221  1.4724 -4.4134
  541MOL0     H73002   0.003   6.304   9.499  1.8624 -0.6320 -0.5558
  541MOL0     H73003   0.038   6.493   9.355 -0.4268  2.2793  0.1417
  541MOL0     H73004  -0.118   6.483   9.277 -1.9761  0.1056 -0.6521
  541MOL0     H73005  -0.060   6.537   9.570 -1.3949 -0.8215  1.8432
  541MOL0     H73006  -0.231   6.511   9.504  0.5941 -1.2312 -0.3466
  541MOL0     H73007  -0.229   6.704   9.386 -2.5481  0.1451  2.3645
  541MOL0     H73008  -0.056   6.724   9.393  2.1270 -1.5057  2.0040
  541MOL0     H73009  -0.251   6.770   9.619 -0.5877 -0.2131 -0.5716
  541MOL0     H73010  -0.074   6.747   9.648  0.9592  0.9726 -0.2010
  541MOL0     H73011  -0.200   6.977   9.504 -0.8882  0.3030  0.9414
  541MOL0     H73012  -0.029   6.942   9.495  0.9226 -3.2376 -0.1504
  541MOL0     H73013  -0.158   6.957   9.756 -2.6965  1.9332 -0.8313
  541MOL0     H73014  -0.005   7.017   9.712  0.9998 -2.9743 -1.3519
  541MOL0     H73015   0.010   6.093   9.078  1.8351  1.0000  1.0859
  541MOL0     H73016   0.023   5.879   8.939  0.2394  1.2212  0.2352
  541MOL0     H73017   0.011   5.424   8.922  1.1911  3.1100 -1.0044
  541MOL0     H73018   0.076   5.212   8.772 -2.4568  2.5348 -1.2427
  541MOL0     H73019   1.124   4.385   8.037  0.7676 -2.8152  1.6023
  541MOL0     H73020   1.264   4.219   7.936  0.8405  0.4554 -2.5426
  541MOL0     H73021   1.336   3.799   7.765 -1.3166  0.0753  1.0654
  541MOL0     H73022   1.386   3.589   7.669  2.1749  0.5201 -2.1635
  541MOL0     H73023   1.471   3.385   7.486  0.9153 -1.8735 -2.2902
  541MOL0     H73024   1.476   3.526   7.389  2.1430 -1.2546  3.1807
  541MOL0     H73025   1.512   3.329   7.233 -0.3875 -0.7303 -1.1002
  541MOL0     H73026   1.345   3.384   7.207 -2.2078  0.9309  2.4232
  541MOL0     H73027   1.343   3.151   7.221  2.8329  2.9056 -2.0575
  541MOL0     H73028   1.263   3.208   7.368  1.1681 -2.0084  1.3198
  541MOL0     H73029   1.481   3.178   7.492  1.9650 -1.0263 -0.4002
  541MOL0     H73030   1.414   3.025   7.441 -0.1746  1.5394  3.7979
  541MOL0     H73031   1.756   3.006   7.211  0.7413 -1.0560  0.7620
  541MOL0     H73032   1.127   3.655   7.340  0.2732 -1.6932  1.1865
  541MOL0     H73033   0.979   3.925   7.447  0.3837  1.3581 -1.8573
  541MOL0     H73034   1.120   3.992   7.359 -1.0576  0.4667 -1.8594
  541MOL0     H73035   1.030   3.858   7.292 -1.5813  0.9868 -0.2261
  542MOL0     O73036   9.071   0.604   2.825  0.1731 -0.5016 -0.0511
  542MOL0     C73037   8.988   0.509   2.822 -0.3957 -0.1343  0.4281
  542MOL0     O73038   8.858   0.520   2.843 -0.2619 -0.1125  0.0256
  542MOL0     C73039   8.777   0.629   2.858 -0.3670 -0.5095 -0.4787
  542MOL0     C73040   8.822   0.765   2.859 -0.4377  1.1229 -0.0764
  542MOL0     C73041   8.723   0.864   2.901 -0.1009 -0.1052 -0.3871
  542MOL0     C73042   8.592   0.838   2.933 -0.3547 -0.0678 -0.3493
  542MOL0     O73043   8.499   0.932   2.964 -0.0258 -0.0263 -0.3087
  542MOL0     C73044   8.440   0.913   3.091 -0.3114  0.3082 -0.5217
  542MOL0     C73045   8.320   1.016   3.106 -0.2152  0.0495 -0.2302
  542MOL0     C73046   8.191   0.940   3.130  0.4504 -0.5873  0.4923
  542MOL0     C73047   8.072   1.034   3.154 -0.2808 -0.2468 -0.0461
  542MOL0     C73048   7.936   0.964   3.168  0.4757 -1.3295  1.0454
  542MOL0     C73049   7.848   1.071   3.224  0.1891 -0.9279  0.9222
  542MOL0     C73050   7.707   1.016   3.229  0.0663 -0.2954 -0.0331
  542MOL0     C73051   7.638   1.107   3.330  0.3011  0.2892  1.0845
  542MOL0     N73052   7.493   1.092   3.342 -0.3709  0.1468 -0.7982
  542MOL0     C73053   7.411   1.154   3.435 -0.0172 -1.2622  0.0259
  542MOL0     C73054   7.290   1.146   3.384 -0.2174  1.0073 -0.5775
  542MOL0     C73055   7.171   1.213   3.447 -0.2486  0.3721 -0.4656
  542MOL0     C73056   7.037   1.131   3.464 -0.5255 -0.8315  0.1415
  542MOL0     C73057   6.973   1.088   3.334 -0.2557  0.2247  0.1373
  542MOL0     C73058   6.898   1.199   3.269  0.7950 -0.5023  0.4285
  542MOL0     O73059   6.781   1.226   3.343 -0.5068  1.0493 -0.1641
  542MOL0     C73060   6.703   1.324   3.298  0.5729 -0.0626 -0.0868
  542MOL0     C73061   6.721   1.405   3.181  1.1676 -0.5577  0.3474
  542MOL0     C73062   6.652   1.522   3.163 -0.5622  0.2781  0.2326
  542MOL0     C73063   6.539   1.548   3.240 -0.1926  0.4145  0.0893
  542MOL0     C73064   6.462   1.670   3.204  0.2890 -0.4911 -0.0657
  542MOL0     O73065   6.522   1.759   3.109 -0.0824 -0.4249  0.1705
  542MOL0     C73066   6.456   1.884   3.078  0.4503  0.5923 -0.6463
  542MOL0     C73067   6.378   1.956   3.170  1.2926  1.2711  0.1311
  542MOL0     C73068   6.328   2.078   3.130 -0.8635 -0.8082  0.6312
  542MOL0     C73069   6.345   2.130   2.998 -0.0969 -0.1763  0.4946
  542MOL0     O73070   6.278   2.241   2.962  0.3240 -0.8843 -0.7379
  542MOL0     C73071   6.301   2.303   2.837 -0.0097  0.3126  0.9043
  542MOL0     C73072   6.199   2.414   2.796 -0.6037  0.1915  0.5367
  542MOL0     C73073   6.062   2.362   2.758 -0.7327  0.4717 -0.2964
  542MOL0     C73074   6.059   2.306   2.607  0.2435 -0.5897  0.2952
  542MOL0     C73075   5.925   2.245   2.571  0.2890  0.4301  0.0674
  542MOL0     C73076   5.917   2.205   2.423  0.4738 -0.6371 -0.2358
  542MOL0     C73077   5.769   2.207   2.374  0.2919 -0.6135  1.0039
  542MOL0     C73078   5.736   2.249   2.221 -0.2497 -1.0701  0.1173
  542MOL0    Cl73079   5.757   2.426   2.226 -0.2445 -0.2005  0.4916
  542MOL0     C73080   6.425   2.060   2.914  0.4974 -0.7773 -0.9365
  542MOL0     C73081   6.486   1.940   2.957  1.6831 -0.1001  0.7036
  542MOL0     O73082   6.342   1.680   3.250 -0.1277  0.1873 -0.6820
  542MOL0     C73083   6.519   1.470   3.359  0.6752 -0.4277 -0.1124
  542MOL0     C73084   6.592   1.356   3.378  0.2202 -0.5124 -0.2166
  542MOL0     N73085   7.303   1.069   3.264  0.3666 -0.3011 -0.5450
  542MOL0     N73086   7.423   1.030   3.242 -0.4760  0.3313 -0.9486
  542MOL0     C73087   8.561   0.706   2.917  0.5438  0.1927 -0.4770
  542MOL0     C73088   8.641   0.600   2.877  0.3653 -0.5014  0.2504
  542MOL0     C73089   9.032   0.367   2.799  0.5102 -0.1205  0.0685
  542MOL0     C73090   8.986   0.264   2.880  0.4669 -0.3930 -0.7141
  542MOL0     C73091   9.035   0.135   2.890 -0.2723 -0.0922 -0.2224
  542MOL0     C73092   9.133   0.092   2.796  0.0616 -0.6787  0.0429
  542MOL0     O73093   9.198  -0.027   2.782  0.7273 -0.5439 -0.3074
  542MOL0     C73094   9.204  -0.108   2.901  0.4127  0.0276 -0.7823
  542MOL0     C73095   9.156  -0.258   2.889  0.2361 -0.3313 -0.7699
  542MOL0     C73096   9.218  -0.314   2.758  0.4682  0.0716 -0.0269
  542MOL0     C73097   9.208  -0.470   2.743  0.2744 -0.5266 -0.3451
  542MOL0     C73098   9.069  -0.512   2.720 -0.0680 -0.0925  0.8923
  542MOL0     C73099   8.958  -0.544   2.697  0.2718  0.4952 -0.3902
  542MOL0     C73100   9.176   0.194   2.709 -0.6910  0.2158 -0.4928
  542MOL0     C73101   9.137   0.326   2.712  0.5692 -0.9578 -0.2888
  542MOL0     C73102   9.202   0.427   2.611 -0.4580 -0.3871  0.0763
  542MOL0     H73103   8.925   0.797   2.848  1.0512 -2.9633  0.1167
  542MOL0     H73104   8.763   0.957   2.940  1.4971 -1.3896  1.1872
  542MOL0     H73105   8.394   0.814   3.098 -0.7560  0.5490  0.1096
  542MOL0     H73106   8.515   0.925   3.170 -1.4194  1.9225  0.3436
  542MOL0     H73107   8.311   1.070   3.011  4.4176 -0.7389 -1.3818
  542MOL0     H73108   8.340   1.097   3.176  0.5659 -0.7509  0.4943
  542MOL0     H73109   8.194   0.879   3.222 -3.3426  0.0199  1.1449
  542MOL0     H73110   8.171   0.875   3.045  1.6105  0.1019 -0.3403
  542MOL0     H73111   8.087   1.078   3.253  0.9694 -1.9484  0.5577
  542MOL0     H73112   8.071   1.102   3.068  0.1138 -1.8347 -1.3664
  542MOL0     H73113   7.905   0.912   3.077  0.4400 -0.8244  0.7695
  542MOL0     H73114   7.946   0.876   3.233 -0.5979 -3.3411 -1.3244
  542MOL0     H73115   7.885   1.108   3.321  1.6651  1.3223 -0.4006
  542MOL0     H73116   7.859   1.157   3.157 -0.5472 -1.7270 -0.2514
  542MOL0     H73117   7.706   0.910   3.257  2.5971 -0.8881 -1.8359
  542MOL0     H73118   7.659   1.028   3.131 -1.5204  0.3436  0.7791
  542MOL0     H73119   7.675   1.071   3.426  0.3765  0.4649  1.1206
  542MOL0     H73120   7.665   1.211   3.307 -3.2929  0.8104 -1.7660
  542MOL0     H73121   7.439   1.200   3.530  0.2176 -3.9057  1.3371
  542MOL0     H73122   7.203   1.245   3.547 -1.0073  2.5429 -0.8696
  542MOL0     H73123   7.149   1.298   3.382  0.0437  1.1676  0.4501
  542MOL0     H73124   7.058   1.043   3.526  0.0139  0.1332  1.3786
  542MOL0     H73125   6.954   1.184   3.512 -1.4629 -1.4171 -0.7932
  542MOL0     H73126   6.911   1.000   3.353 -1.9576  0.9822 -1.5371
  542MOL0     H73127   7.053   1.055   3.267  1.6397  1.2973  1.7868
  542MOL0     H73128   6.870   1.172   3.167  0.5739 -0.9258  0.5991
  542MOL0     H73129   6.960   1.289   3.261  1.9505 -1.1527  1.6554
  542MOL0     H73130   6.799   1.379   3.110  3.5596 -0.2972  2.7077
  542MOL0     H73131   6.703   1.576   3.084 -0.4045  1.3687  1.0527
  542MOL0     H73132   6.340   1.912   3.262  1.8378  0.5053 -0.0013
  542MOL0     H73133   6.269   2.125   3.208  0.4334  0.5931  0.8084
  542MOL0     H73134   6.406   2.331   2.851 -0.1192  0.5759  1.1934
  542MOL0     H73135   6.304   2.231   2.755  0.9728  0.2676  0.9635
  542MOL0     H73136   6.201   2.474   2.888 -1.6673  0.5995  0.3118
  542MOL0     H73137   6.243   2.469   2.712  1.2328 -1.1540  0.5646
  542MOL0     H73138   6.040   2.276   2.823  1.1545 -2.6322 -3.4131
  542MOL0     H73139   5.996   2.449   2.764  3.0372  3.8317 -3.0369
  542MOL0     H73140   6.141   2.234   2.602  1.0381  0.2135  1.3309
  542MOL0     H73141   6.087   2.401   2.561  2.1941 -0.9998  0.5329
  542MOL0     H73142   5.856   2.327   2.594  0.5548  1.5821 -2.8855
  542MOL0     H73143   5.911   2.150   2.623  0.1993  0.6001  0.3594
  542MOL0     H73144   5.967   2.290   2.377 -2.9680  1.2463 -0.8118
  542MOL0     H73145   5.956   2.105   2.401  3.4915  0.1190  1.2270
  542MOL0     H73146   5.715   2.269   2.446 -2.3576 -3.5225  1.7246
  542MOL0     H73147   5.733   2.104   2.384 -1.8801 -0.4842 -3.2355
  542MOL0     H73148   5.801   2.193   2.154  3.3379  1.2037  1.4157
  542MOL0     H73149   5.635   2.224   2.190  0.1496 -0.8024 -1.4503
  542MOL0     H73150   6.437   2.099   2.814  2.2372 -1.5771 -1.0939
  542MOL0     H73151   6.546   1.879   2.890 -0.5609 -1.7551  0.0911
  542MOL0     H73152   6.442   1.495   3.432  1.2723 -1.1491  0.7781
  542MOL0     H73153   6.569   1.284   3.456 -1.0085 -0.0234 -0.1100
  542MOL0     H73154   8.461   0.671   2.939  0.7544 -0.3211 -0.3289
  542MOL0     H73155   8.606   0.497   2.867  1.7539 -0.9027 -0.6801
  542MOL0     H73156   8.925   0.290   2.966  0.6222 -2.7450  0.1986
  542MOL0     H73157   9.001   0.075   2.974 -0.5649  0.3271 -0.0384
  542MOL0     H73158   9.158  -0.058   2.987  0.4983 -1.0936 -0.0674
  542MOL0     H73159   9.308  -0.110   2.934  0.0472 -1.1436  0.3503
  542MOL0     H73160   9.047  -0.274   2.892  0.4738 -2.6621 -1.9139
  542MOL0     H73161   9.205  -0.318   2.966  3.9433  0.2719 -2.4326
  542MOL0     H73162   9.320  -0.275   2.761  0.4795  0.2089 -1.3868
  542MOL0     H73163   9.180  -0.265   2.667 -0.6384 -0.2104  0.2610
  542MOL0     H73164   9.277  -0.500   2.664 -0.5189  0.3717 -1.4205
  542MOL0     H73165   9.256  -0.517   2.828 -0.9898 -3.1767 -0.9909
  542MOL0     H73166   8.862  -0.587   2.672  0.6225 -1.3866  1.2231
  542MOL0     H73167   9.258   0.166   2.643  2.2242  0.6646  2.6814
  542MOL0     H73168   9.204   0.376   2.514  0.1294  1.6995 -1.0692
  542MOL0     H73169   9.129   0.508   2.597 -0.1198  0.0847  1.0100
  542MOL0     H73170   9.299   0.465   2.643 -0.8802 -0.1759  1.1410
  543MOL0     O73171  10.724   3.814  10.263 -0.7675 -0.0835  0.3592
  543MOL0     C73172  10.756   3.867  10.162 -0.4992  0.4087  0.9002
  543MOL0     O73173  10.885   3.863  10.107 -0.6281 -0.0789 -0.0929
  543MOL0     C73174  10.972   3.760  10.122  0.8115 -0.5858  0.0631
  543MOL0     C73175  11.107   3.783  10.101  0.0761 -0.7585  0.7144
  543MOL0     C73176  11.200   3.675  10.095  0.6127 -1.1261  0.8930
  543MOL0     C73177  11.164   3.548  10.148 -0.5440 -0.6464  0.1466
  543MOL0     O73178  11.262   3.447  10.168  0.0085  0.2548  0.3244
  543MOL0     C73179  11.223   3.314  10.130 -0.6539  0.4746  0.0977
  543MOL0     C73180  11.334   3.267  10.043 -0.3564  0.0276  0.0998
  543MOL0     C73181  11.473   3.268  10.122  1.0098 -0.3945  0.0948
  543MOL0     C73182  11.466   3.194  10.258  0.1592  1.1160 -0.7692
  543MOL0     C73183  11.607   3.176  10.303  0.4368 -0.2391  0.5251
  543MOL0     C73184  11.621   3.084  10.422  0.5804 -1.0811  0.6076
  543MOL0     C73185  11.753   3.024  10.418 -0.5873  0.0298 -0.1308
  543MOL0     C73186  11.767   2.902  10.319  0.2622  0.3616  0.2679
  543MOL0     N73187  11.861   2.794  10.353  1.1291 -0.1000 -0.5671
  543MOL0     C73188  11.956   2.740  10.279  1.5415 -0.1145  0.5325
  543MOL0     C73189  12.014   2.652  10.357  0.1808 -0.1436  1.1504
  543MOL0     C73190  12.143   2.572  10.325  0.5186 -0.3596  0.1499
  543MOL0     C73191  12.217   2.549  10.457 -0.4676  0.1737  0.1473
  543MOL0     C73192  12.351   2.488  10.430  0.4559  0.6567 -0.4209
  543MOL0     C73193  12.328   2.344  10.374 -0.0299  0.2888 -0.9902
  543MOL0     O73194  12.431   2.252  10.400 -0.6053 -0.2886  0.4358
  543MOL0     C73195  12.554   2.267  10.337  0.4995 -0.5463 -0.0735
  543MOL0     C73196  12.661   2.185  10.383  0.7641  0.3039 -0.1140
  543MOL0     C73197  12.783   2.201  10.325 -0.7482 -0.5469  0.5531
  543MOL0     C73198  12.811   2.284  10.208 -0.5902  1.0901  0.0885
  543MOL0     C73199  12.932   2.271  10.124 -0.6671  0.2198 -0.0055
  543MOL0     O73200  13.016   2.160  10.147  0.1722  0.4860  0.2510
  543MOL0     C73201  13.130   2.135  10.086  0.2780  0.1262 -0.1192
  543MOL0     C73202  13.236   2.087  10.168 -1.2158  0.5899 -0.0218
  543MOL0     C73203  13.362   2.079  10.108  0.0409 -0.1058  0.0411
  543MOL0     C73204  13.390   2.126   9.980  0.3339  0.9511 -0.6299
  543MOL0     O73205  13.522   2.106   9.940  0.3083  0.4896 -0.9538
  543MOL0     C73206  13.584   2.218   9.885  0.0393 -0.6452  0.2213
  543MOL0     C73207  13.723   2.244   9.966 -0.1887 -0.3208  0.2457
  543MOL0     C73208  13.812   2.340   9.888  0.8138 -0.7648  0.0543
  543MOL0     C73209  13.747   2.483   9.873  0.6901  0.1546  0.2162
  543MOL0     C73210  13.841   2.585   9.807  0.1380 -0.2660  0.5587
  543MOL0     C73211  13.797   2.729   9.804  0.2252 -0.4263  0.6443
  543MOL0     C73212  13.662   2.767   9.745  0.1187  0.3557  0.7627
  543MOL0     C73213  13.651   2.920   9.729 -0.2234 -0.3707  0.0387
  543MOL0    Cl73214  13.738   2.976   9.573  0.2704  0.1745  0.2334
  543MOL0     C73215  13.282   2.163   9.900  0.6938 -0.7381 -0.7451
  543MOL0     C73216  13.148   2.176   9.951 -0.9000 -0.3122  0.2182
  543MOL0     O73217  12.942   2.367  10.043  0.2704  0.4042 -0.6990
  543MOL0     C73218  12.702   2.367  10.171  0.2127  0.3106 -0.7559
  543MOL0     C73219  12.582   2.362  10.235  0.3439 -0.0805  0.8814
  543MOL0     N73220  11.955   2.643  10.485 -0.5017 -0.6024  0.3060
  543MOL0     N73221  11.856   2.737  10.476  0.7317 -0.2927  0.6182
  543MOL0     C73222  11.035   3.529  10.187 -0.2756  0.5187 -0.2214
  543MOL0     C73223  10.932   3.626  10.163  0.1709  0.6072  0.3847
  543MOL0     C73224  10.666   3.958  10.100  0.3933  0.0853  1.2561
  543MOL0     C73225  10.689   4.009   9.964  0.1771  0.8265  0.1403
  543MOL0     C73226  10.605   4.094   9.899  0.0135  0.0747  0.1902
  543MOL0     C73227  10.503   4.154   9.968 -0.0823  0.0151 -0.2051
  543MOL0     O73228  10.429   4.250   9.903  0.2001 -0.4856  0.4033
  543MOL0     C73229  10.481   4.360   9.824 -0.3506 -0.1459  0.7754
  543MOL0     C73230  10.575   4.456   9.891 -0.4113 -0.8683  0.1344
  543MOL0     C73231  10.511   4.531  10.014 -0.5974  0.0721 -0.1494
  543MOL0     C73232  10.375   4.586   9.999 -0.2675 -0.3919  0.1193
  543MOL0     C73233  10.357   4.671   9.884  0.4365  0.1842  0.4837
  543MOL0     C73234  10.350   4.737   9.782 -0.2431 -0.0529 -0.3506
  543MOL0     C73235  10.472   4.111  10.097  0.2831 -0.6781  0.8496
  543MOL0     C73236  10.549   4.013  10.164 -0.1820 -0.3352 -0.6504
  543MOL0     C73237  10.502   3.994  10.307  0.6268  0.0037  0.0771
  543MOL0     H73238  11.152   3.882  10.098  2.2711 -1.7088 -2.2801
  543MOL0     H73239  11.306   3.696  10.082  0.2962  1.6061  2.1362
  543MOL0     H73240  11.216   3.260  10.225  1.8315 -1.3931 -0.6525
  543MOL0     H73241  11.138   3.309  10.061  1.2718  0.8966 -2.4871
  543MOL0     H73242  11.329   3.332   9.955 -2.6741  1.2262  1.0309
  543MOL0     H73243  11.305   3.167  10.012  0.7938  0.7198 -3.8416
  543MOL0     H73244  11.512   3.369  10.139  1.4158 -0.5459  0.0768
  543MOL0     H73245  11.549   3.223  10.057  0.1327 -0.2995 -1.0343
  543MOL0     H73246  11.420   3.259  10.333  2.1756  4.4725 -2.2234
  543MOL0     H73247  11.410   3.100  10.247 -2.4644  2.4924 -0.1926
  543MOL0     H73248  11.668   3.146  10.217 -0.2065  1.7146 -0.6918
  543MOL0     H73249  11.630   3.278  10.335 -1.1405  0.7904 -1.3732
  543MOL0     H73250  11.613   3.145  10.513  1.6501  0.5708 -0.3572
  543MOL0     H73251  11.535   3.015  10.419 -0.2471 -0.1662  1.9747
  543MOL0     H73252  11.788   2.988  10.516 -2.7480 -1.3255  0.2155
  543MOL0     H73253  11.827   3.100  10.395  1.7589 -1.6844  1.2430
  543MOL0     H73254  11.667   2.861  10.302  0.0007  1.9686 -2.6973
  543MOL0     H73255  11.792   2.942  10.220  1.0771  3.5391  1.6599
  543MOL0     H73256  11.979   2.772  10.178 -4.3715 -0.6778 -1.3766
  543MOL0     H73257  12.112   2.485  10.266 -0.0670  1.1711 -1.8947
  543MOL0     H73258  12.211   2.625  10.258  1.6267  1.4595  2.5532
  543MOL0     H73259  12.231   2.648  10.502 -5.2363  0.2735  2.0289
  543MOL0     H73260  12.156   2.491  10.526  1.7754 -1.1491  1.1332
  543MOL0     H73261  12.414   2.476  10.518  0.8490  0.2636 -0.7531
  543MOL0     H73262  12.409   2.537  10.351  2.1527 -2.9285 -1.5986
  543MOL0     H73263  12.306   2.350  10.267  2.5300  3.0477 -1.4990
  543MOL0     H73264  12.242   2.305  10.429  1.2161 -0.5548  0.4467
  543MOL0     H73265  12.636   2.111  10.458 -0.1641 -0.6581 -1.3310
  543MOL0     H73266  12.858   2.132  10.362 -3.5836 -3.1333  1.8643
  543MOL0     H73267  13.225   2.063  10.273 -3.7279 -0.8362 -0.5180
  543MOL0     H73268  13.446   2.035  10.160  0.0875 -5.3779 -3.7176
  543MOL0     H73269  13.602   2.205   9.778 -3.2187 -0.9591 -0.4084
  543MOL0     H73270  13.520   2.306   9.896  3.2436  1.7729  1.0205
  543MOL0     H73271  13.712   2.304  10.057 -2.5294  0.8276 -0.6939
  543MOL0     H73272  13.764   2.148   9.998 -0.1702  0.2122  1.9088
  543MOL0     H73273  13.907   2.354   9.940 -0.9658 -0.7383  3.6229
  543MOL0     H73274  13.829   2.310   9.784 -1.1415  0.1950 -0.5980
  543MOL0     H73275  13.708   2.527   9.965  0.8113  0.5096  0.0997
  543MOL0     H73276  13.657   2.473   9.812  0.9108 -0.8301  0.0408
  543MOL0     H73277  13.868   2.550   9.707  0.9619  1.3044  0.2030
  543MOL0     H73278  13.934   2.583   9.865 -0.4192 -0.7290  1.4570
  543MOL0     H73279  13.812   2.762   9.908 -0.1807 -0.2406  0.6456
  543MOL0     H73280  13.874   2.785   9.749 -1.1187  2.9070  1.8843
  543MOL0     H73281  13.590   2.722   9.813  1.4627 -0.8364  1.4496
  543MOL0     H73282  13.656   2.716   9.648  0.8291 -1.9085  1.8400
  543MOL0     H73283  13.543   2.937   9.732 -0.7560 -3.3033  1.2818
  543MOL0     H73284  13.711   2.963   9.811  4.6373  3.7596 -4.9177
  543MOL0     H73285  13.310   2.193   9.799  2.3391  2.3450  0.4772
  543MOL0     H73286  13.069   2.212   9.886 -3.0491 -0.8407  2.3838
  543MOL0     H73287  12.708   2.429  10.082  3.1189 -0.6036 -1.3208
  543MOL0     H73288  12.498   2.414  10.192 -0.4901 -1.4398  0.7876
  543MOL0     H73289  11.005   3.427  10.210  1.6341 -0.2994 -1.1679
  543MOL0     H73290  10.831   3.589  10.174  1.1969 -3.5834 -1.9350
  543MOL0     H73291  10.765   3.948   9.914 -0.6654  0.9229 -1.3064
  543MOL0     H73292  10.622   4.118   9.795 -4.6957  2.0527 -0.3386
  543MOL0     H73293  10.398   4.422   9.787  0.3349  0.6936  0.6074
  543MOL0     H73294  10.524   4.305   9.740 -2.3384 -0.7523  0.0895
  543MOL0     H73295  10.578   4.539   9.820 -2.8108  1.3338  2.4316
  543MOL0     H73296  10.677   4.422   9.912  1.2392  1.5636 -3.0247
  543MOL0     H73297  10.577   4.614  10.038 -0.3072 -0.0444 -0.5405
  543MOL0     H73298  10.502   4.469  10.104  0.7938  0.5623  0.3570
  543MOL0     H73299  10.300   4.506   9.997  0.2156 -0.8388 -1.5166
  543MOL0     H73300  10.353   4.660  10.076  1.1674  5.1095 -4.1320
  543MOL0     H73301  10.356   4.788   9.688  0.9255 -0.7890 -0.6937
  543MOL0     H73302  10.393   4.167  10.146  0.3830 -0.2861  0.5674
  543MOL0     H73303  10.426   4.065  10.340 -0.8667 -1.8998  0.9647
  543MOL0     H73304  10.452   3.900  10.332 -1.1457  0.9626  0.2688
  543MOL0     H73305  10.592   4.020  10.364 -0.0010  3.5677 -0.3305
  544MOL0     O73306   1.255   6.104   1.643  0.1445 -0.4682  0.4746
  544MOL0     C73307   1.276   6.214   1.606 -0.9876 -0.5317 -0.2777
  544MOL0     O73308   1.339   6.309   1.680 -0.5706  0.7409 -0.1863
  544MOL0     C73309   1.417   6.268   1.784  0.5632 -0.9242  0.7208
  544MOL0     C73310   1.547   6.206   1.769  0.3721  0.1412 -0.8381
  544MOL0     C73311   1.625   6.155   1.877  0.9425 -1.0233 -0.3632
  544MOL0     C73312   1.576   6.174   2.004 -0.8062 -0.0203 -0.8064
  544MOL0     O73313   1.647   6.129   2.115 -0.4395 -0.5022 -0.3342
  544MOL0     C73314   1.786   6.151   2.123 -0.1996 -0.0306 -0.2263
  544MOL0     C73315   1.837   6.179   2.269  0.5482 -0.2374  0.0742
  544MOL0     C73316   1.792   6.068   2.362 -0.1367 -0.0256 -0.2092
  544MOL0     C73317   1.809   6.118   2.512 -0.8304 -0.0371  0.2868
  544MOL0     C73318   1.767   6.011   2.608 -0.6938  0.1256 -0.3930
  544MOL0     C73319   1.829   6.039   2.748 -0.8553  1.3942 -0.0445
  544MOL0     C73320   1.748   5.963   2.845  0.1295  1.2699  0.2032
  544MOL0     C73321   1.629   6.037   2.908  0.1477  0.0172 -0.1353
  544MOL0     N73322   1.574   5.949   3.014  0.6649 -0.2992 -0.1937
  544MOL0     C73323   1.472   5.853   3.000 -0.3002 -0.0253 -0.4357
  544MOL0     C73324   1.484   5.790   3.119  1.3865  0.3638 -0.7343
  544MOL0     C73325   1.412   5.661   3.164  0.4428 -1.1426  0.1049
  544MOL0     C73326   1.279   5.714   3.220 -0.5545 -0.5844  0.2251
  544MOL0     C73327   1.279   5.695   3.363  0.7103  0.2617 -0.6155
  544MOL0     C73328   1.237   5.556   3.418 -0.0992 -0.1750 -0.2781
  544MOL0     O73329   1.276   5.547   3.557  0.1978 -0.1930 -0.7106
  544MOL0     C73330   1.215   5.466   3.650  0.0682  0.0938  0.2238
  544MOL0     C73331   1.136   5.348   3.629  0.1922  0.8263  0.5051
  544MOL0     C73332   1.087   5.278   3.740  0.5055 -0.1923  0.9240
  544MOL0     C73333   1.119   5.301   3.872 -0.7911 -0.2795  0.6557
  544MOL0     C73334   1.072   5.215   3.978  0.5396  0.9905  0.1837
  544MOL0     O73335   0.945   5.165   3.968  0.1423 -0.1336 -0.2330
  544MOL0     C73336   0.906   5.070   4.060 -0.5646  0.3046 -0.1761
  544MOL0     C73337   0.913   4.928   4.024 -0.7135  0.5965  0.2463
  544MOL0     C73338   0.874   4.834   4.117 -0.3654  0.1079  0.0607
  544MOL0     C73339   0.832   4.868   4.243  0.1154  0.2137 -0.3184
  544MOL0     O73340   0.791   4.786   4.351  0.5835 -0.5606 -0.6459
  544MOL0     C73341   0.735   4.659   4.330  0.4957 -1.1293  0.4064
  544MOL0     C73342   0.732   4.582   4.461  1.2651  0.2828 -0.0559
  544MOL0     C73343   0.860   4.573   4.544  1.1707  0.4458 -0.1660
  544MOL0     C73344   0.975   4.516   4.462 -0.7111 -0.1121  0.2963
  544MOL0     C73345   1.101   4.472   4.545 -0.0389  0.2330 -0.2908
  544MOL0     C73346   1.212   4.576   4.564 -0.1341 -0.6083 -0.3432
  544MOL0     C73347   1.341   4.512   4.623 -0.2703 -0.9168 -0.2963
  544MOL0     C73348   1.423   4.576   4.739  0.2131  0.7192 -0.5557
  544MOL0    Cl73349   1.580   4.504   4.779 -0.0077  0.3852  0.1097
  544MOL0     C73350   0.820   5.007   4.275 -0.2025  0.3010  0.3038
  544MOL0     C73351   0.862   5.101   4.184  0.7914  0.0265  0.5539
  544MOL0     O73352   1.151   5.204   4.070  0.1035 -0.1771  0.2324
  544MOL0     C73353   1.202   5.412   3.891 -0.5108  0.7231  0.3113
  544MOL0     C73354   1.249   5.497   3.783  0.0623  0.1332  0.1350
  544MOL0     N73355   1.575   5.854   3.211 -0.6431  0.0948 -0.6339
  544MOL0     N73356   1.626   5.950   3.141 -0.0923  0.0887 -0.3212
  544MOL0     C73357   1.454   6.237   2.026  0.7950  0.2157  0.0053
  544MOL0     C73358   1.368   6.283   1.918  0.2974  0.1603  0.4560
  544MOL0     C73359   1.231   6.260   1.474 -0.6085  0.0221 -0.7518
  544MOL0     C73360   1.319   6.282   1.368 -0.3193  1.4864  0.1911
  544MOL0     C73361   1.271   6.311   1.239  0.0208 -0.0147  0.0728
  544MOL0     C73362   1.134   6.325   1.214 -0.0673 -1.5978  0.6056
  544MOL0     O73363   1.089   6.358   1.082 -0.0944  0.4972  0.1777
  544MOL0     C73364   0.954   6.359   1.043 -0.3226  0.6021 -0.7574
  544MOL0     C73365   0.964   6.331   0.884 -0.6769  0.5361 -0.0229
  544MOL0     C73366   0.867   6.214   0.851 -0.6472 -0.1564 -0.2038
  544MOL0     C73367   0.937   6.074   0.867  0.9370  0.1024 -0.9299
  544MOL0     C73368   0.834   5.975   0.825  0.2265 -0.6147  0.3502
  544MOL0     C73369   0.742   5.901   0.791 -0.9535  0.6030  0.6658
  544MOL0     C73370   1.052   6.313   1.328  0.3435 -0.2330  0.6453
  544MOL0     C73371   1.092   6.270   1.452 -1.5008 -1.1203  0.2132
  544MOL0     C73372   0.992   6.243   1.557  0.2013  0.1931 -0.2310
  544MOL0     H73373   1.576   6.173   1.670  2.4904 -0.6868 -0.0025
  544MOL0     H73374   1.719   6.101   1.868 -0.3487 -3.3196 -0.8764
  544MOL0     H73375   1.845   6.070   2.078  0.7748  1.7854 -2.4142
  544MOL0     H73376   1.817   6.239   2.066 -1.8589  0.1705 -0.8692
  544MOL0     H73377   1.779   6.265   2.304 -1.0201 -1.6563  1.1814
  544MOL0     H73378   1.946   6.185   2.272  0.8264 -2.8049 -1.8101
  544MOL0     H73379   1.852   5.978   2.346 -0.3723 -0.1942 -0.1427
  544MOL0     H73380   1.687   6.042   2.348 -0.5612  1.4532  0.0179
  544MOL0     H73381   1.916   6.137   2.523 -0.8904  0.1251  0.5883
  544MOL0     H73382   1.759   6.213   2.531 -0.8753 -0.3528  1.8368
  544MOL0     H73383   1.658   6.017   2.602 -0.6661  1.3365 -0.0704
  544MOL0     H73384   1.784   5.910   2.571  1.4631 -0.9334  3.0061
  544MOL0     H73385   1.932   6.001   2.753 -1.5187 -0.8711 -1.8902
  544MOL0     H73386   1.812   6.143   2.777 -2.4100  0.3837  3.0983
  544MOL0     H73387   1.822   5.933   2.920  0.2890  3.1576  0.8606
  544MOL0     H73388   1.705   5.872   2.802 -0.8316  1.1618  1.3510
  544MOL0     H73389   1.660   6.132   2.953  0.8126  0.5048 -1.5725
  544MOL0     H73390   1.556   6.053   2.828  1.2939 -0.4099 -1.2964
  544MOL0     H73391   1.409   5.828   2.915 -0.4045  0.1735 -0.4155
  544MOL0     H73392   1.390   5.597   3.079 -0.3367 -2.6296  1.3752
  544MOL0     H73393   1.472   5.600   3.232  4.0856  0.5563 -1.3179
  544MOL0     H73394   1.243   5.815   3.203 -3.8471 -0.8705  3.8596
  544MOL0     H73395   1.193   5.654   3.186 -1.2235  1.0947 -1.1769
  544MOL0     H73396   1.191   5.752   3.393  1.1922  1.0189 -0.5961
  544MOL0     H73397   1.365   5.741   3.415 -0.2389  1.7826 -0.3210
  544MOL0     H73398   1.300   5.482   3.368  1.2666 -0.7299  2.0837
  544MOL0     H73399   1.129   5.547   3.403 -0.4594  2.5595  0.2816
  544MOL0     H73400   1.091   5.324   3.533 -0.9398  1.9279  0.7488
  544MOL0     H73401   1.015   5.198   3.721  1.0776 -0.5739  0.3220
  544MOL0     H73402   0.946   4.884   3.931 -1.3901 -0.5206  0.5053
  544MOL0     H73403   0.888   4.730   4.088  1.8316  0.0845  0.9878
  544MOL0     H73404   0.633   4.665   4.291 -0.3514 -2.4197  2.2579
  544MOL0     H73405   0.787   4.597   4.257  1.0410  0.7009 -0.8151
  544MOL0     H73406   0.647   4.620   4.517  0.1643 -0.1606 -1.3725
  544MOL0     H73407   0.699   4.481   4.437 -1.2489  1.2094 -0.8583
  544MOL0     H73408   0.884   4.674   4.579  1.7694  0.0875  0.5209
  544MOL0     H73409   0.832   4.512   4.631  0.4225 -0.4714 -1.0317
  544MOL0     H73410   1.008   4.589   4.387 -0.2034 -2.1761 -1.5823
  544MOL0     H73411   0.936   4.431   4.405 -0.3416  1.4880 -2.5610
  544MOL0     H73412   1.150   4.387   4.496  1.6059  1.0080 -0.0607
  544MOL0     H73413   1.072   4.434   4.643  0.0257  3.6382  1.1973
  544MOL0     H73414   1.241   4.618   4.467 -2.5556 -1.6173 -1.6014
  544MOL0     H73415   1.201   4.664   4.627  3.5763  1.9345 -2.8445
  544MOL0     H73416   1.408   4.489   4.540 -0.1139  0.4424 -0.5749
  544MOL0     H73417   1.316   4.416   4.670 -0.1865 -0.5186  0.5777
  544MOL0     H73418   1.435   4.684   4.723  2.8407  0.5718 -0.0414
  544MOL0     H73419   1.356   4.554   4.823  0.7368 -2.6846 -0.8978
  544MOL0     H73420   0.785   5.032   4.375  0.3979 -3.2978  1.5686
  544MOL0     H73421   0.832   5.202   4.209 -0.9472 -0.5890  1.0885
  544MOL0     H73422   1.237   5.431   3.992  3.3412  2.6315 -1.1653
  544MOL0     H73423   1.330   5.569   3.795  1.1607 -1.1171  0.4654
  544MOL0     H73424   1.421   6.256   2.128 -0.0392  1.8392 -0.5307
  544MOL0     H73425   1.267   6.320   1.936  0.5013  2.1715 -1.9478
  544MOL0     H73426   1.426   6.269   1.373 -0.2460  0.8545 -1.8913
  544MOL0     H73427   1.333   6.327   1.151  2.6617  0.5818  1.9150
  544MOL0     H73428   0.907   6.457   1.056 -0.1185  0.9899 -2.6517
  544MOL0     H73429   0.904   6.278   1.097  0.7028  0.0548 -0.6054
  544MOL0     H73430   1.067   6.300   0.865 -0.3723 -0.3520  2.6239
  544MOL0     H73431   0.943   6.428   0.839 -0.4818  1.9376  2.6991
  544MOL0     H73432   0.839   6.228   0.747 -0.5705  4.2600  0.1849
  544MOL0     H73433   0.782   6.225   0.920 -1.6632  0.7126 -1.5603
  544MOL0     H73434   1.033   6.060   0.816  0.5638 -2.1936 -1.1075
  544MOL0     H73435   0.951   6.055   0.974  0.1817  4.8671  0.2795
  544MOL0     H73436   0.663   5.834   0.761 -1.9703  0.9365  2.4581
  544MOL0     H73437   0.945   6.325   1.310  0.3415  0.5681  1.1647
  544MOL0     H73438   1.033   6.230   1.658 -1.0485  0.2925  0.3153
  544MOL0     H73439   0.922   6.327   1.564  2.7267  2.2687  2.1830
  544MOL0     H73440   0.932   6.156   1.527  2.6591 -1.5953 -0.2424
  545MOL0     O73441   4.756   2.980   0.772 -0.0404  0.4821  0.0973
  545MOL0     C73442   4.669   3.024   0.849  0.9198  0.1287 -0.0885
  545MOL0     O73443   4.623   2.959   0.955  0.0669 -0.5900 -0.1241
  545MOL0     C73444   4.688   2.858   1.016 -0.1421  0.7081  0.5449
  545MOL0     C73445   4.612   2.785   1.115  0.2746 -0.9628  0.3745
  545MOL0     C73446   4.661   2.673   1.177 -0.5921  0.6380  0.0396
  545MOL0     C73447   4.785   2.620   1.141  0.7869 -0.1574 -0.4974
  545MOL0     O73448   4.841   2.517   1.209  0.1687  0.3241  0.0369
  545MOL0     C73449   4.748   2.410   1.249 -0.8321  0.3938 -0.2426
  545MOL0     C73450   4.812   2.316   1.361  0.4282  0.2243  0.0177
  545MOL0     C73451   4.710   2.196   1.388 -0.8333 -0.3538  0.4652
  545MOL0     C73452   4.776   2.098   1.488  0.1001 -0.1823 -1.3145
  545MOL0     C73453   4.720   1.950   1.491  0.5485  0.7046 -0.4106
  545MOL0     C73454   4.789   1.867   1.594  0.4458 -0.1878 -0.4815
  545MOL0     C73455   4.754   1.907   1.738 -0.8942  1.1171 -0.0527
  545MOL0     C73456   4.612   1.887   1.786  0.1116 -0.6558  0.2365
  545MOL0     N73457   4.568   1.931   1.925 -1.2090 -0.7974  0.4898
  545MOL0     C73458   4.633   1.878   2.037  0.0967 -0.1546 -0.5523
  545MOL0     C73459   4.605   1.962   2.140  0.2249  0.2829  0.1780
  545MOL0     C73460   4.674   1.942   2.274  0.2968 -0.2889  1.4883
  545MOL0     C73461   4.820   1.975   2.295 -0.3033  0.3584  0.2966
  545MOL0     C73462   4.866   2.109   2.226 -0.0739 -0.2140 -0.3926
  545MOL0     C73463   4.970   2.072   2.115 -1.4393  0.2017 -0.1085
  545MOL0     O73464   5.029   2.203   2.071 -0.2042  0.3184 -0.2819
  545MOL0     C73465   5.088   2.220   1.943  0.0919  0.4460 -0.1586
  545MOL0     C73466   5.127   2.108   1.865 -0.6877  0.5037  0.0249
  545MOL0     C73467   5.187   2.113   1.738  0.9584 -0.0028 -0.9845
  545MOL0     C73468   5.197   2.242   1.686  0.4325  0.1834  0.4181
  545MOL0     C73469   5.257   2.245   1.554 -0.2601  0.4902  0.0184
  545MOL0     O73470   5.218   2.360   1.480 -0.4435  0.0321 -0.4167
  545MOL0     C73471   5.258   2.385   1.347  0.4449 -0.0396  0.0651
  545MOL0     C73472   5.389   2.354   1.296 -0.8897  0.1953 -0.1164
  545MOL0     C73473   5.424   2.395   1.162 -0.3681 -0.5454 -0.0345
  545MOL0     C73474   5.330   2.457   1.079  0.4271 -0.2310 -0.2984
  545MOL0     O73475   5.348   2.494   0.948  0.0542  0.1598 -0.9329
  545MOL0     C73476   5.474   2.530   0.904 -0.1938  0.4991 -0.5812
  545MOL0     C73477   5.480   2.613   0.779  0.9138 -0.0631  0.1876
  545MOL0     C73478   5.420   2.747   0.794 -0.6518  0.7100 -0.2345
  545MOL0     C73479   5.425   2.823   0.651  0.4208  0.3635 -0.4466
  545MOL0     C73480   5.358   2.964   0.645  0.3151 -0.2521 -1.1523
  545MOL0     C73481   5.211   2.959   0.698  0.7642 -1.0447 -0.2939
  545MOL0     C73482   5.168   3.105   0.698  0.7963  0.6066 -0.1380
  545MOL0     C73483   5.240   3.207   0.774 -0.8424 -1.2427  0.0176
  545MOL0    Cl73484   5.147   3.366   0.767  0.2631 -0.3620  0.0279
  545MOL0     C73485   5.201   2.478   1.124 -0.2652 -0.5972 -0.3361
  545MOL0     C73486   5.165   2.441   1.252 -0.1615 -1.5467 -0.8671
  545MOL0     O73487   5.338   2.154   1.518  0.2664 -0.3435  0.5934
  545MOL0     C73488   5.165   2.360   1.761 -0.2413 -0.1241  0.0402
  545MOL0     C73489   5.113   2.340   1.888  1.0195  0.4527  0.2543
  545MOL0     N73490   4.525   2.068   2.092  0.2229 -0.3951 -0.4473
  545MOL0     N73491   4.510   2.053   1.961 -0.5927  0.1089  0.2363
  545MOL0     C73492   4.862   2.691   1.053  0.2722 -0.0571 -0.4196
  545MOL0     C73493   4.818   2.812   0.996 -0.6935  0.1611  0.9687
  545MOL0     C73494   4.607   3.165   0.830  0.6343 -0.5238 -0.5303
  545MOL0     C73495   4.477   3.177   0.864  0.7596  0.2272 -0.2470
  545MOL0     C73496   4.405   3.303   0.846  0.1420  0.6649  0.3592
  545MOL0     C73497   4.465   3.413   0.791 -0.7039  0.0110 -0.2709
  545MOL0     O73498   4.408   3.535   0.773  0.3587  0.3613  0.3418
  545MOL0     C73499   4.340   3.593   0.885 -0.5429  0.6267 -0.3774
  545MOL0     C73500   4.271   3.705   0.827 -0.1337  0.2190  0.6857
  545MOL0     C73501   4.198   3.791   0.929 -0.2893  0.2336  0.3897
  545MOL0     C73502   4.288   3.843   1.038  0.7747  0.9256  0.7093
  545MOL0     C73503   4.221   3.957   1.098 -0.5415 -1.4542 -0.9478
  545MOL0     C73504   4.171   4.071   1.129  0.0960 -0.3268 -0.3929
  545MOL0     C73505   4.595   3.402   0.756 -0.3135 -0.3008 -0.1420
  545MOL0     C73506   4.670   3.280   0.779  0.4116 -0.3055 -0.0597
  545MOL0     C73507   4.819   3.292   0.751  0.1173  0.6249 -0.6967
  545MOL0     H73508   4.513   2.823   1.137 -0.6113 -1.7832 -1.9686
  545MOL0     H73509   4.593   2.622   1.244  1.5779 -1.0251  1.0669
  545MOL0     H73510   4.645   2.435   1.277 -0.8057 -0.6432  0.8662
  545MOL0     H73511   4.736   2.346   1.161 -0.7656  1.7920 -1.3102
  545MOL0     H73512   4.822   2.366   1.458  1.4060 -0.2164  0.1566
  545MOL0     H73513   4.906   2.279   1.318 -1.3762 -4.4443 -0.5069
  545MOL0     H73514   4.694   2.141   1.294  0.2971 -0.0972  0.1053
  545MOL0     H73515   4.610   2.232   1.415 -0.8599  0.4362 -0.6088
  545MOL0     H73516   4.884   2.110   1.476  1.2057 -0.1320  4.9873
  545MOL0     H73517   4.745   2.147   1.581 -0.3093 -0.5520 -1.2510
  545MOL0     H73518   4.613   1.949   1.514  0.4483 -1.5243 -0.7352
  545MOL0     H73519   4.724   1.904   1.392  1.0270 -2.6181  1.0244
  545MOL0     H73520   4.765   1.762   1.576 -3.0246  0.5979 -1.2493
  545MOL0     H73521   4.893   1.887   1.567  0.6632  0.7663  0.9873
  545MOL0     H73522   4.791   2.008   1.757  1.2469 -0.1304  3.3626
  545MOL0     H73523   4.815   1.844   1.804 -2.4822  0.0359  0.4357
  545MOL0     H73524   4.550   1.920   1.702  1.9544 -0.8810 -1.2669
  545MOL0     H73525   4.589   1.781   1.791 -1.7178 -0.2988  0.0762
  545MOL0     H73526   4.694   1.788   2.037  1.6400  0.8385  0.5753
  545MOL0     H73527   4.614   2.004   2.341 -0.9352 -1.6912  1.7631
  545MOL0     H73528   4.660   1.842   2.317 -2.9323 -0.7124 -0.1864
  545MOL0     H73529   4.832   1.967   2.403 -2.2750  1.4590  0.6419
  545MOL0     H73530   4.883   1.896   2.253  0.1467 -0.1749  1.9177
  545MOL0     H73531   4.910   2.178   2.299 -0.1747 -0.6323  0.0737
  545MOL0     H73532   4.785   2.154   2.169 -1.4229 -1.4439  0.4777
  545MOL0     H73533   4.909   2.033   2.033 -0.0392 -0.1307 -1.0297
  545MOL0     H73534   5.048   2.008   2.157 -0.0196 -0.3370 -3.2697
  545MOL0     H73535   5.116   2.006   1.900  0.0919 -0.6069 -2.6778
  545MOL0     H73536   5.206   2.022   1.682 -1.5687 -0.3728 -1.3794
  545MOL0     H73537   5.459   2.301   1.360  0.8215  1.4880 -0.8398
  545MOL0     H73538   5.521   2.361   1.126 -1.3947 -0.9687 -2.6573
  545MOL0     H73539   5.534   2.585   0.978 -1.2716  0.0685  0.6572
  545MOL0     H73540   5.529   2.438   0.880 -1.1673 -0.1858 -0.2560
  545MOL0     H73541   5.579   2.644   0.743 -0.5542  3.1119 -1.5087
  545MOL0     H73542   5.448   2.561   0.688  1.0300 -0.5658  0.4263
  545MOL0     H73543   5.320   2.748   0.837 -0.3698 -0.1839  0.4565
  545MOL0     H73544   5.484   2.810   0.858  0.8954  1.7359 -2.6506
  545MOL0     H73545   5.365   2.773   0.575  0.2875  1.4770 -1.0932
  545MOL0     H73546   5.526   2.824   0.609  1.9918 -0.6002  2.9806
  545MOL0     H73547   5.368   2.996   0.541  3.8954  0.6787 -0.6872
  545MOL0     H73548   5.420   3.022   0.714 -0.3521 -0.6482 -0.1888
  545MOL0     H73549   5.140   2.895   0.645 -1.5850  0.6164  0.6665
  545MOL0     H73550   5.198   2.923   0.800 -3.3821  2.3776  0.6844
  545MOL0     H73551   5.066   3.118   0.734  1.1296  0.9140  0.7341
  545MOL0     H73552   5.173   3.140   0.594  0.9092  2.4221  0.4372
  545MOL0     H73553   5.253   3.174   0.877 -2.0321  1.2147  1.0191
  545MOL0     H73554   5.341   3.226   0.739 -1.1986  1.1278  0.1710
  545MOL0     H73555   5.121   2.522   1.065  1.3422  2.3725 -0.5089
  545MOL0     H73556   5.070   2.455   1.302 -0.0468 -0.5194 -0.9210
  545MOL0     H73557   5.196   2.458   1.724  2.4300 -1.0500 -0.4187
  545MOL0     H73558   5.083   2.422   1.953 -1.0366 -0.2738  0.2995
  545MOL0     H73559   4.961   2.652   1.030 -1.2558 -2.7576 -3.1554
  545MOL0     H73560   4.893   2.865   0.938 -0.2251  0.5405  1.9056
  545MOL0     H73561   4.409   3.098   0.897  1.6790 -0.6439 -0.3886
  545MOL0     H73562   4.298   3.296   0.863 -0.0853 -0.3931 -1.3252
  545MOL0     H73563   4.410   3.632   0.960 -1.7584 -1.9102  2.2841
  545MOL0     H73564   4.267   3.526   0.930  0.2196  0.6509  0.9608
  545MOL0     H73565   4.189   3.666   0.766 -2.3704  2.7707  1.8030
  545MOL0     H73566   4.334   3.757   0.754  0.1068 -0.6603  0.2647
  545MOL0     H73567   4.120   3.728   0.973  1.4601 -2.1162  0.3515
  545MOL0     H73568   4.163   3.873   0.867 -1.2485 -1.1655 -0.9715
  545MOL0     H73569   4.314   3.763   1.107  1.6865 -1.5334 -2.2748
  545MOL0     H73570   4.384   3.875   0.996  2.0918 -4.6523 -1.4094
  545MOL0     H73571   4.148   4.174   1.148  4.1186  0.4337  1.3438
  545MOL0     H73572   4.636   3.487   0.703 -4.9131  0.1933 -3.5164
  545MOL0     H73573   4.838   3.397   0.724 -1.2174  0.8400 -0.8847
  545MOL0     H73574   4.873   3.263   0.841 -1.7247 -0.8204  0.0073
  545MOL0     H73575   4.844   3.225   0.669 -2.1472 -3.3670  1.5675
  546MOL0     O73576   2.161   5.110  10.910 -0.5706  0.5352 -0.2869
  546MOL0     C73577   2.273   5.060  10.895  0.0994 -0.0542  0.5535
  546MOL0     O73578   2.351   5.073  10.789 -0.0991 -0.3307  0.4691
  546MOL0     C73579   2.342   5.184  10.708  0.1910  0.9227  0.3154
  546MOL0     C73580   2.282   5.301  10.725 -0.2315 -0.0499 -0.1918
  546MOL0     C73581   2.292   5.392  10.633  0.1367  0.0162  0.2938
  546MOL0     C73582   2.364   5.375  10.510 -0.6392  0.4506  0.6165
  546MOL0     O73583   2.373   5.482  10.427  0.0784 -0.0538 -0.3403
  546MOL0     C73584   2.355   5.459  10.283  0.0353  0.0208 -0.2041
  546MOL0     C73585   2.363   5.592  10.216  0.1090 -0.5284  0.2225
  546MOL0     C73586   2.323   5.574  10.067 -0.3439 -0.1460 -0.3398
  546MOL0     C73587   2.172   5.585  10.030 -0.7011 -0.2480  0.0693
  546MOL0     C73588   2.162   5.585   9.878 -0.2226 -0.6801  0.4160
  546MOL0     C73589   2.211   5.449   9.819  0.5764  0.4999 -0.5304
  546MOL0     C73590   2.143   5.422   9.689 -0.8012 -0.2464 -0.0527
  546MOL0     C73591   2.161   5.283   9.641  0.1080  0.0333  0.3891
  546MOL0     N73592   2.079   5.296   9.515 -0.0458 -0.4465 -0.1637
  546MOL0     C73593   2.121   5.310   9.390  0.6988 -0.1269 -0.2897
  546MOL0     C73594   2.013   5.302   9.312  0.0863  0.1767 -0.0266
  546MOL0     C73595   2.008   5.315   9.172 -0.1963  0.4843 -0.5687
  546MOL0     C73596   1.986   5.182   9.099 -0.4070  0.6465  0.4690
  546MOL0     C73597   2.038   5.192   8.953 -1.1391 -0.3539 -0.3346
  546MOL0     C73598   2.035   5.060   8.885 -0.3328 -0.4241 -0.1803
  546MOL0     O73599   2.146   5.064   8.784 -0.1279 -0.1634  0.1945
  546MOL0     C73600   2.131   4.976   8.676 -0.2422  0.5996 -0.3685
  546MOL0     C73601   2.025   4.877   8.665 -0.5055  0.1608  0.3011
  546MOL0     C73602   2.039   4.777   8.572 -0.2195  0.2360 -0.8234
  546MOL0     C73603   2.154   4.764   8.500 -0.3051 -0.1173  0.1056
  546MOL0     C73604   2.176   4.651   8.398  0.4096  0.7049 -0.2392
  546MOL0     O73605   2.068   4.566   8.391  0.1825  0.5255 -0.4665
  546MOL0     C73606   2.070   4.459   8.302 -0.4263  0.7193 -0.1401
  546MOL0     C73607   2.136   4.343   8.338 -0.7801 -1.0052  0.6254
  546MOL0     C73608   2.138   4.233   8.247 -0.6239  0.3629 -0.4252
  546MOL0     C73609   2.074   4.236   8.117  0.1463  0.3720  0.9240
  546MOL0     O73610   2.088   4.148   8.013 -0.5397  0.6205  0.0997
  546MOL0     C73611   2.200   4.062   8.024  0.9121 -0.5000 -0.0388
  546MOL0     C73612   2.224   4.003   7.890  0.1492  0.2348  0.9389
  546MOL0     C73613   2.319   3.885   7.888 -0.1520 -0.0643  1.2647
  546MOL0     C73614   2.245   3.759   7.940 -0.3175 -0.0386 -0.3965
  546MOL0     C73615   2.350   3.644   7.929 -0.3451 -0.6141 -0.4225
  546MOL0     C73616   2.292   3.510   7.981  1.4637  0.5881  0.5366
  546MOL0     C73617   2.398   3.401   8.009 -0.0942 -0.5735 -0.0179
  546MOL0     C73618   2.334   3.278   8.066  0.6335  0.1759  0.0611
  546MOL0    Cl73619   2.467   3.165   8.105  0.2333 -0.0682 -0.0867
  546MOL0     C73620   1.998   4.346   8.093  0.1560 -0.0095  0.4739
  546MOL0     C73621   1.997   4.456   8.183 -0.9131  0.1096  0.5293
  546MOL0     O73622   2.283   4.649   8.330 -0.1140 -0.5218  0.2605
  546MOL0     C73623   2.250   4.862   8.504 -1.4069 -0.2623  0.3782
  546MOL0     C73624   2.241   4.959   8.601 -0.3377 -0.3328 -0.1998
  546MOL0     N73625   1.906   5.288   9.386 -0.9196 -0.1730 -1.3785
  546MOL0     N73626   1.944   5.278   9.512  0.1029 -1.4732 -0.2063
  546MOL0     C73627   2.434   5.254  10.488  0.2131 -0.2635 -0.2414
  546MOL0     C73628   2.421   5.157  10.591  0.3810 -0.6944 -0.1386
  546MOL0     C73629   2.319   4.970  10.997  0.4250  0.3194  0.8026
  546MOL0     C73630   2.433   4.899  10.971  0.0054  0.0628 -0.4952
  546MOL0     C73631   2.492   4.809  11.061  0.8297 -0.4877 -0.6994
  546MOL0     C73632   2.427   4.795  11.183 -1.3052  0.0672 -0.4303
  546MOL0     O73633   2.488   4.723  11.285  0.0446 -0.0901 -0.1528
  546MOL0     C73634   2.635   4.729  11.306  0.5093 -0.1903  0.2338
  546MOL0     C73635   2.657   4.615  11.413 -0.4186 -0.4465 -0.5037
  546MOL0     C73636   2.802   4.633  11.476 -0.0466 -0.1628  0.1591
  546MOL0     C73637   2.803   4.713  11.613 -0.5626  0.0426  0.2344
  546MOL0     C73638   2.913   4.811  11.625  0.0239  0.3167 -0.2458
  546MOL0     C73639   3.008   4.882  11.632  0.1479 -0.0086  0.9555
  546MOL0     C73640   2.325   4.878  11.219  0.4642 -0.4477  0.0308
  546MOL0     C73641   2.250   4.955  11.127 -0.2414 -0.5863 -0.3202
  546MOL0     C73642   2.120   5.020  11.171  0.2098  0.1748 -0.4805
  546MOL0     H73643   2.219   5.324  10.811  2.3435  0.5434  1.6647
  546MOL0     H73644   2.240   5.487  10.632  1.2026  0.6148  0.2122
  546MOL0     H73645   2.425   5.384  10.246  0.2826 -0.0430  0.3756
  546MOL0     H73646   2.256   5.421  10.256 -0.2207  1.3047 -1.1872
  546MOL0     H73647   2.467   5.623  10.224 -0.7730  3.3212 -1.2408
  546MOL0     H73648   2.309   5.666  10.275 -1.7499 -2.2804  0.8639
  546MOL0     H73649   2.359   5.477  10.033 -2.0839 -0.0880 -2.5944
  546MOL0     H73650   2.393   5.635  10.010  2.5709 -2.7409  0.1811
  546MOL0     H73651   2.114   5.498  10.061 -1.1353 -0.2695 -0.7805
  546MOL0     H73652   2.118   5.669  10.075 -1.2131  0.3182 -1.5447
  546MOL0     H73653   2.060   5.618   9.858 -0.2434  0.3342  1.9870
  546MOL0     H73654   2.225   5.661   9.831 -0.8440  1.2883  2.5427
  546MOL0     H73655   2.319   5.438   9.800  0.8136  3.4743 -1.4156
  546MOL0     H73656   2.186   5.360   9.877 -0.3604  0.2949 -1.2361
  546MOL0     H73657   2.200   5.489   9.624 -1.7959 -0.1315 -0.8212
  546MOL0     H73658   2.039   5.456   9.686 -0.4962  0.9360  1.4380
  546MOL0     H73659   2.262   5.261   9.605  1.3100 -0.8292  3.9348
  546MOL0     H73660   2.118   5.207   9.706 -4.3486  1.5534 -0.4085
  546MOL0     H73661   2.225   5.321   9.358  0.2098 -1.7489 -2.7538
  546MOL0     H73662   1.929   5.375   9.127 -1.4937 -1.2061 -0.6381
  546MOL0     H73663   2.107   5.358   9.156 -0.5227  0.8958 -1.5362
  546MOL0     H73664   2.029   5.099   9.156  0.0431  0.5491  0.0026
  546MOL0     H73665   1.882   5.149   9.092  0.4358 -1.9496 -3.3282
  546MOL0     H73666   2.142   5.226   8.956 -1.6251  1.5475 -2.2671
  546MOL0     H73667   1.992   5.269   8.889  1.4394  1.0908 -0.5963
  546MOL0     H73668   1.942   5.034   8.835  1.1347 -2.1399 -2.1897
  546MOL0     H73669   2.057   4.979   8.956  3.0570  0.0675 -0.5054
  546MOL0     H73670   1.932   4.864   8.719 -0.7034 -3.1302 -0.6064
  546MOL0     H73671   1.965   4.700   8.553  0.6943 -0.9064  0.0807
  546MOL0     H73672   2.190   4.329   8.431 -1.0401 -1.9127  0.6574
  546MOL0     H73673   2.196   4.143   8.263 -0.2355  0.7928  0.6560
  546MOL0     H73674   2.287   4.116   8.063  1.1628 -1.3392  0.5888
  546MOL0     H73675   2.168   3.983   8.092  0.8427 -0.9795 -0.6245
  546MOL0     H73676   2.126   3.970   7.854 -2.1951  2.9279  4.2321
  546MOL0     H73677   2.245   4.083   7.819  1.3271 -1.3013 -0.5143
  546MOL0     H73678   2.362   3.866   7.789 -0.0854  0.1153  1.2594
  546MOL0     H73679   2.407   3.913   7.947  0.3638 -1.2984  1.1208
  546MOL0     H73680   2.157   3.741   7.879 -1.4089 -1.0103  1.3754
  546MOL0     H73681   2.213   3.770   8.044  2.4842 -0.1976  0.5578
  546MOL0     H73682   2.441   3.667   7.984 -0.0869 -1.4534 -0.4786
  546MOL0     H73683   2.394   3.629   7.830 -0.6858 -1.5621 -0.4383
  546MOL0     H73684   2.242   3.525   8.077  0.9817 -3.0675  1.0047
  546MOL0     H73685   2.215   3.472   7.914  1.1272 -1.9302  2.2460
  546MOL0     H73686   2.472   3.447   8.075 -1.6742  0.2644  1.2383
  546MOL0     H73687   2.440   3.369   7.913  1.0207 -0.7033  0.4972
  546MOL0     H73688   2.273   3.308   8.152  1.3369  0.8989  0.3216
  546MOL0     H73689   2.274   3.225   7.992 -0.4173  2.9827 -1.2261
  546MOL0     H73690   1.944   4.349   7.999 -0.3497 -0.0211  0.7606
  546MOL0     H73691   1.950   4.552   8.163  0.5096  0.4469 -1.6570
  546MOL0     H73692   2.347   4.855   8.456  0.3117 -0.7588  3.6122
  546MOL0     H73693   2.314   5.039   8.605 -0.7849  0.0494  0.3972
  546MOL0     H73694   2.496   5.245  10.399  4.1703 -0.7257  2.3157
  546MOL0     H73695   2.475   5.063  10.596  1.4723 -0.0039  2.0355
  546MOL0     H73696   2.481   4.905  10.874 -1.8358 -1.1365 -1.5534
  546MOL0     H73697   2.580   4.756  11.029  1.6231  0.7646 -0.6631
  546MOL0     H73698   2.665   4.829  11.340  0.0534  0.6343 -1.6642
  546MOL0     H73699   2.697   4.708  11.219  0.0838 -0.8513  0.0905
  546MOL0     H73700   2.639   4.513  11.378 -0.6390 -0.2761 -0.8949
  546MOL0     H73701   2.582   4.608  11.493  0.3033  0.7203  0.3116
  546MOL0     H73702   2.876   4.676  11.409  0.8735 -0.3451  1.0434
  546MOL0     H73703   2.849   4.536  11.493 -0.6501 -1.1984 -3.2689
  546MOL0     H73704   2.704   4.759  11.628 -0.8591  0.0397 -1.5293
  546MOL0     H73705   2.813   4.651  11.702 -4.4922 -1.1202  0.0589
  546MOL0     H73706   3.089   4.952  11.645  0.9657 -1.2758  3.2759
  546MOL0     H73707   2.281   4.873  11.318  0.3355 -2.0375 -0.0830
  546MOL0     H73708   2.131   5.128  11.177  0.3919  0.0673  2.6391
  546MOL0     H73709   2.040   4.995  11.100  0.8771 -1.9378 -0.5560
  546MOL0     H73710   2.084   4.997  11.272  1.0152 -0.6465 -0.3677
  547MOL0     O73711   9.919   3.761  11.417 -0.1803 -0.1687 -0.3139
  547MOL0     C73712   9.971   3.705  11.516 -0.0432 -0.7645 -0.5796
  547MOL0     O73713   9.990   3.759  11.644  0.5758  0.2741  0.5419
  547MOL0     C73714   9.931   3.884  11.671 -2.3635  0.8902  0.3361
  547MOL0     C73715  10.020   3.990  11.678  0.4230 -0.3895 -0.0125
  547MOL0     C73716   9.971   4.125  11.705 -0.2009  0.8090 -0.5004
  547MOL0     C73717   9.837   4.144  11.728  0.0017  0.1465 -0.5753
  547MOL0     O73718   9.773   4.261  11.765  0.1749 -0.0661  0.3076
  547MOL0     C73719   9.850   4.378  11.748 -0.3070 -0.8291 -1.1231
  547MOL0     C73720   9.753   4.500  11.721 -0.6934  0.0531 -0.5588
  547MOL0     C73721   9.686   4.493  11.579  0.6734 -0.1276 -0.2026
  547MOL0     C73722   9.529   4.497  11.595  0.2602  0.0097 -0.1570
  547MOL0     C73723   9.479   4.466  11.452  0.5503  0.0886 -0.3038
  547MOL0     C73724   9.325   4.491  11.452  0.4417  0.4045 -0.0064
  547MOL0     C73725   9.248   4.374  11.509  0.0045  0.5515  0.3408
  547MOL0     C73726   9.097   4.391  11.520  0.2528 -0.2800  0.2633
  547MOL0     N73727   9.017   4.373  11.393 -0.5981 -0.2986  0.2561
  547MOL0     C73728   8.883   4.339  11.397 -0.2506  0.6593  0.2206
  547MOL0     C73729   8.832   4.372  11.277  0.5106 -0.5114  0.0167
  547MOL0     C73730   8.687   4.343  11.249  0.2121 -0.0455 -0.2275
  547MOL0     C73731   8.647   4.318  11.105  0.0807 -0.2216 -0.5537
  547MOL0     C73732   8.672   4.166  11.059  0.0205  0.3240  0.3803
  547MOL0     C73733   8.624   4.154  10.917  0.6253 -0.0832 -0.3778
  547MOL0     O73734   8.653   4.024  10.861  0.3326  0.1985  0.5187
  547MOL0     C73735   8.598   3.909  10.915  1.0784 -0.2963 -0.1813
  547MOL0     C73736   8.666   3.798  10.884  0.6380  1.2322  0.1074
  547MOL0     C73737   8.621   3.685  10.950  1.1931 -0.2213  0.5941
  547MOL0     C73738   8.516   3.668  11.040 -0.1964 -0.8074  0.5731
  547MOL0     C73739   8.512   3.547  11.124 -0.0336  0.0586 -0.1276
  547MOL0     O73740   8.408   3.539  11.200  0.0910  0.2633  0.2801
  547MOL0     C73741   8.403   3.436  11.295 -0.0909  0.4213  0.6809
  547MOL0     C73742   8.449   3.307  11.289 -1.0607 -0.0304 -0.4517
  547MOL0     C73743   8.455   3.219  11.403 -0.3096 -1.0344 -0.1231
  547MOL0     C73744   8.402   3.261  11.525 -0.5324  1.3653 -0.4845
  547MOL0     O73745   8.400   3.164  11.618 -0.9480  0.5401 -0.0742
  547MOL0     C73746   8.350   3.198  11.752 -0.0740  0.6322 -0.4089
  547MOL0     C73747   8.439   3.312  11.821 -0.4803  0.1599  0.0948
  547MOL0     C73748   8.389   3.358  11.962 -0.5846 -0.1068 -0.1961
  547MOL0     C73749   8.495   3.441  12.041 -0.4429 -0.2195  0.8222
  547MOL0     C73750   8.440   3.462  12.186  0.9987  0.5025  0.1614
  547MOL0     C73751   8.515   3.539  12.287 -0.5198 -0.1322 -0.5776
  547MOL0     C73752   8.453   3.553  12.417 -0.0976 -0.7787  0.2617
  547MOL0     C73753   8.524   3.661  12.496 -0.9077 -0.5246 -0.0960
  547MOL0    Cl73754   8.469   3.830  12.439  0.1432  0.3044  0.0786
  547MOL0     C73755   8.339   3.384  11.527 -0.4329 -0.2326  0.0303
  547MOL0     C73756   8.337   3.477  11.417 -0.1298  0.0740 -0.1614
  547MOL0     O73757   8.615   3.487  11.132 -0.1647 -0.0933 -0.2121
  547MOL0     C73758   8.439   3.785  11.062  0.9462  0.8022  0.1965
  547MOL0     C73759   8.483   3.906  10.994  0.9669 -0.3447 -0.0816
  547MOL0     N73760   8.939   4.425  11.203 -0.1298  0.5529 -0.3392
  547MOL0     N73761   9.044   4.424  11.272  0.3942  0.3421  0.4979
  547MOL0     C73762   9.751   4.031  11.719 -0.2932  0.2175 -0.7149
  547MOL0     C73763   9.797   3.895  11.688  0.0504 -0.6072  0.5305
  547MOL0     C73764  10.041   3.586  11.497  0.9603 -0.2495  0.4002
  547MOL0     C73765  10.170   3.599  11.439 -0.1870 -0.5803 -0.3040
  547MOL0     C73766  10.234   3.483  11.407  0.1943  0.1040 -0.5784
  547MOL0     C73767  10.188   3.354  11.445 -0.2857 -0.1102 -0.2433
  547MOL0     O73768  10.271   3.247  11.440  0.4298 -0.6060  0.6118
  547MOL0     C73769  10.352   3.216  11.557 -0.1786 -0.3864 -0.1662
  547MOL0     C73770  10.455   3.321  11.595 -0.1778  0.1961 -0.6783
  547MOL0     C73771  10.565   3.280  11.694 -0.3871  0.8241  0.0646
  547MOL0     C73772  10.679   3.195  11.623 -0.2503 -0.1661 -1.2062
  547MOL0     C73773  10.751   3.258  11.510 -0.2385  0.2959 -0.0354
  547MOL0     C73774  10.827   3.299  11.430 -0.3037 -0.0427  0.5527
  547MOL0     C73775  10.070   3.353  11.514 -0.0567  0.0230 -0.1717
  547MOL0     C73776   9.984   3.462  11.536  0.2529  0.1739 -1.0042
  547MOL0     C73777   9.842   3.440  11.584  0.6077  0.2955 -0.7312
  547MOL0     H73778  10.123   3.971  11.652  0.5554 -0.6851  0.7264
  547MOL0     H73779  10.049   4.200  11.702 -0.9656  1.8375  2.3730
  547MOL0     H73780   9.905   4.394  11.841  0.2063 -0.3224 -1.5084
  547MOL0     H73781   9.916   4.370  11.661 -0.4295 -0.5426 -1.2429
  547MOL0     H73782   9.806   4.595  11.727 -2.2809  1.0024 -1.1918
  547MOL0     H73783   9.673   4.499  11.796  1.0356  0.8630  1.3935
  547MOL0     H73784   9.724   4.414  11.513  0.9060 -0.0810 -0.1260
  547MOL0     H73785   9.730   4.581  11.530 -0.5203  0.7593  0.2754
  547MOL0     H73786   9.500   4.413  11.659  0.0111 -1.8667 -2.5412
  547MOL0     H73787   9.477   4.583  11.637 -1.2906 -1.5326  1.2357
  547MOL0     H73788   9.525   4.533  11.380  4.4055 -0.3658  1.4963
  547MOL0     H73789   9.491   4.360  11.429 -2.1599 -0.6567  1.2226
  547MOL0     H73790   9.299   4.578  11.513 -2.1552  0.3689 -0.9307
  547MOL0     H73791   9.280   4.492  11.352 -1.0892 -2.5039  0.5671
  547MOL0     H73792   9.299   4.358  11.604  2.6484  1.6999 -0.7922
  547MOL0     H73793   9.278   4.288  11.447  0.6309 -0.7289  2.3099
  547MOL0     H73794   9.056   4.322  11.595  1.0027 -0.9862  0.0361
  547MOL0     H73795   9.079   4.492  11.557 -1.3233 -0.5446  0.2978
  547MOL0     H73796   8.849   4.301  11.493  0.4379  1.9851  1.0198
  547MOL0     H73797   8.653   4.251  11.297  0.6273  0.8324  1.8596
  547MOL0     H73798   8.634   4.432  11.284  2.5546  1.6471 -0.7537
  547MOL0     H73799   8.549   4.362  11.089  0.1978  0.2764  0.0729
  547MOL0     H73800   8.717   4.372  11.041  2.5642 -1.5625  0.8490
  547MOL0     H73801   8.621   4.099  11.130  4.2693 -1.1599  2.3883
  547MOL0     H73802   8.779   4.143  11.060 -0.2773 -1.1892  0.3464
  547MOL0     H73803   8.675   4.232  10.860  1.3871  0.1002  0.5198
  547MOL0     H73804   8.518   4.180  10.929  1.5766  4.2191  0.4110
  547MOL0     H73805   8.755   3.791  10.822  4.0710 -0.8608  4.6909
  547MOL0     H73806   8.669   3.589  10.935  0.0182 -0.8405  0.7341
  547MOL0     H73807   8.485   3.270  11.194 -0.1966  2.7169 -1.2712
  547MOL0     H73808   8.491   3.120  11.377  4.2459  0.9758 -2.8141
  547MOL0     H73809   8.243   3.221  11.756 -0.1422  0.4176 -0.9711
  547MOL0     H73810   8.361   3.106  11.809 -0.0459 -0.0168 -1.4475
  547MOL0     H73811   8.543   3.279  11.826 -0.1078  1.3650  0.9198
  547MOL0     H73812   8.441   3.403  11.761  1.3804  0.6422  0.8319
  547MOL0     H73813   8.295   3.412  11.951 -0.8858 -0.5350  0.3095
  547MOL0     H73814   8.366   3.266  12.016 -1.3514  0.0958 -0.1728
  547MOL0     H73815   8.522   3.533  11.988 -1.9200 -0.5141 -0.5248
  547MOL0     H73816   8.591   3.390  12.043 -0.7460 -0.8259  0.2852
  547MOL0     H73817   8.414   3.363  12.226 -0.7563  1.2184  0.8554
  547MOL0     H73818   8.344   3.511  12.170 -0.4624 -2.8068 -2.5199
  547MOL0     H73819   8.614   3.492  12.290 -0.7687 -0.6539 -0.5395
  547MOL0     H73820   8.540   3.642  12.258  0.7686  0.3422  1.9178
  547MOL0     H73821   8.448   3.458  12.469 -0.6513  0.4305  2.5578
  547MOL0     H73822   8.349   3.585  12.403  0.2662  0.1204 -0.5623
  547MOL0     H73823   8.500   3.647  12.602  1.5604  0.8908  0.7348
  547MOL0     H73824   8.632   3.648  12.498 -0.4096  2.6911 -0.3610
  547MOL0     H73825   8.284   3.423  11.612 -1.1618  1.5528 -1.2010
  547MOL0     H73826   8.292   3.575  11.416  0.0544  0.2500  2.4763
  547MOL0     H73827   8.369   3.786  11.145 -0.3933 -2.3255 -0.7778
  547MOL0     H73828   8.422   3.995  11.004  2.2126  0.7309 -1.5002
  547MOL0     H73829   9.646   4.058  11.714 -0.3445 -0.1034 -1.4834
  547MOL0     H73830   9.726   3.814  11.681 -0.5602 -0.0119 -0.4196
  547MOL0     H73831  10.204   3.699  11.412  0.2217 -0.3233  1.0704
  547MOL0     H73832  10.333   3.479  11.364  0.6415 -3.5300  0.4303
  547MOL0     H73833  10.410   3.128  11.529 -2.5033 -1.9847 -0.1948
  547MOL0     H73834  10.286   3.191  11.641  1.0314 -2.4156  0.2521
  547MOL0     H73835  10.399   3.396  11.651 -0.3063 -2.0053  2.4023
  547MOL0     H73836  10.505   3.366  11.508  3.6322 -0.3872  0.9981
  547MOL0     H73837  10.532   3.222  11.780 -1.5801 -0.9004 -1.4614
  547MOL0     H73838  10.611   3.371  11.734 -0.9278  1.0033  0.2816
  547MOL0     H73839  10.754   3.180  11.701 -0.8058 -0.6344 -0.7483
  547MOL0     H73840  10.645   3.093  11.600 -0.8780 -0.3801  0.5088
  547MOL0     H73841  10.894   3.339  11.357  1.4073  0.5984  2.3714
  547MOL0     H73842  10.039   3.255  11.548 -3.4391  0.4178 -1.6640
  547MOL0     H73843   9.800   3.540  11.603 -1.1519 -0.8263  1.7809
  547MOL0     H73844   9.784   3.387  11.509  2.1915 -3.0995  0.2556
  547MOL0     H73845   9.844   3.383  11.677 -0.1787  0.1234 -0.8158
  548MOL0     O73846   7.011   8.569   3.885  0.2226  0.5865  0.7495
  548MOL0     C73847   6.935   8.596   3.789  0.0996  0.4723 -0.0476
  548MOL0     O73848   6.901   8.505   3.693  0.2072 -0.0964 -0.5358
  548MOL0     C73849   6.958   8.382   3.700  1.0220  0.6989  0.1601
  548MOL0     C73850   7.071   8.355   3.627  0.6835  1.2799  1.1713
  548MOL0     C73851   7.138   8.235   3.646 -0.7283  0.5177  0.3815
  548MOL0     C73852   7.086   8.140   3.730  0.0050 -0.2316  0.1068
  548MOL0     O73853   7.146   8.025   3.784  0.0452 -0.7198 -0.3856
  548MOL0     C73854   7.288   8.013   3.783  0.3469  0.7888 -0.1190
  548MOL0     C73855   7.332   7.930   3.904  0.0273 -0.2895 -0.2345
  548MOL0     C73856   7.485   7.889   3.884  0.7125 -0.2977  0.9110
  548MOL0     C73857   7.574   7.913   4.007  0.8595  0.1396 -1.3608
  548MOL0     C73858   7.511   7.829   4.128 -0.2614 -0.2051  0.5380
  548MOL0     C73859   7.611   7.820   4.242 -0.6356  0.0900 -0.8867
  548MOL0     C73860   7.561   7.722   4.356  0.3724 -0.4502 -0.1006
  548MOL0     C73861   7.631   7.754   4.485 -0.3800  0.2939 -0.2957
  548MOL0     N73862   7.772   7.711   4.483  0.2065 -0.5559  0.9464
  548MOL0     C73863   7.881   7.787   4.444 -1.1234  1.2807  0.6103
  548MOL0     C73864   7.989   7.701   4.447 -0.7607  0.0279 -0.0077
  548MOL0     C73865   8.134   7.720   4.423 -0.4065 -0.1832  0.0077
  548MOL0     C73866   8.155   7.771   4.281  0.9222  0.1369  0.0371
  548MOL0     C73867   8.139   7.647   4.184 -0.0216  0.4926  0.4172
  548MOL0     C73868   8.198   7.697   4.039  0.0550 -0.9126  1.0610
  548MOL0     O73869   8.140   7.817   3.976 -0.2310  0.0818  0.5744
  548MOL0     C73870   8.025   7.815   3.902 -0.4420  0.8469  0.2929
  548MOL0     C73871   7.991   7.933   3.834  0.0529  0.4658  0.8328
  548MOL0     C73872   7.874   7.934   3.753 -0.2131  0.8386  0.5636
  548MOL0     C73873   7.801   7.803   3.735  0.0547 -0.7997 -1.4573
  548MOL0     C73874   7.715   7.789   3.619  0.2037 -0.4026 -0.1916
  548MOL0     O73875   7.656   7.905   3.575  0.1362 -0.2826  0.9907
  548MOL0     C73876   7.543   7.923   3.495 -0.3484  0.7735 -0.0188
  548MOL0     C73877   7.517   8.056   3.474 -0.0748  0.8401  1.0716
  548MOL0     C73878   7.413   8.089   3.395 -0.7139  1.0150 -0.2868
  548MOL0     C73879   7.323   7.989   3.342 -0.3946 -0.6469  0.5542
  548MOL0     O73880   7.210   8.037   3.288 -0.2261  1.0013  0.4160
  548MOL0     C73881   7.108   7.948   3.237 -0.0259 -0.0686 -0.0268
  548MOL0     C73882   6.993   8.032   3.189  0.9018  0.3368 -0.3055
  548MOL0     C73883   6.888   7.933   3.109 -0.9392 -0.3055 -0.1350
  548MOL0     C73884   6.793   8.023   3.043  0.1242  0.1470 -0.7045
  548MOL0     C73885   6.674   7.961   2.971 -0.4528 -0.0388 -0.2533
  548MOL0     C73886   6.599   8.071   2.894 -0.5710 -0.2277  0.0364
  548MOL0     C73887   6.462   8.006   2.849 -0.1897  0.1737  0.6061
  548MOL0     C73888   6.379   8.086   2.750  0.0043 -0.1051  0.0914
  548MOL0    Cl73889   6.258   8.172   2.840 -0.2242 -0.1204  0.0911
  548MOL0     C73890   7.354   7.852   3.371 -0.2963 -0.7504  0.5080
  548MOL0     C73891   7.459   7.821   3.448  0.2135  0.2781  0.3917
  548MOL0     O73892   7.686   7.674   3.587 -0.0371  0.8769 -0.3766
  548MOL0     C73893   7.837   7.691   3.814  0.3022 -0.1114 -0.6336
  548MOL0     C73894   7.950   7.700   3.895 -0.6295 -0.0061 -0.2300
  548MOL0     N73895   7.945   7.582   4.492 -0.3168 -0.3334 -0.3244
  548MOL0     N73896   7.816   7.589   4.511 -0.2090  0.0063 -0.3155
  548MOL0     C73897   6.970   8.172   3.798  0.6622  0.1931  0.8451
  548MOL0     C73898   6.913   8.294   3.792 -1.0055  0.1141  0.2763
  548MOL0     C73899   6.871   8.724   3.792 -0.4268  0.0085  0.0549
  548MOL0     C73900   6.931   8.831   3.727  0.1949 -0.3666 -0.8503
  548MOL0     C73901   6.878   8.961   3.737 -0.4387 -0.0101 -0.6268
  548MOL0     C73902   6.757   8.982   3.813 -0.3920  0.0652  1.2652
  548MOL0     O73903   6.724   9.113   3.831  1.0082  0.4715 -0.4450
  548MOL0     C73904   6.585   9.146   3.830 -0.4406 -0.5152 -0.9185
  548MOL0     C73905   6.567   9.295   3.831 -0.0225  0.0315 -0.5626
  548MOL0     C73906   6.617   9.379   3.953  0.3404 -0.2573  0.4326
  548MOL0     C73907   6.523   9.363   4.079 -1.1678  0.4707 -0.7566
  548MOL0     C73908   6.590   9.421   4.196 -0.0527  0.4363 -0.1053
  548MOL0     C73909   6.643   9.467   4.291 -0.3326 -0.9407  0.4416
  548MOL0     C73910   6.689   8.868   3.862  0.1196  0.3378 -0.3314
  548MOL0     C73911   6.749   8.746   3.850  0.5248  0.7527  0.0969
  548MOL0     C73912   6.665   8.638   3.910  0.0373  0.3855  0.6666
  548MOL0     H73913   7.101   8.434   3.559 -0.7392 -0.0108 -1.1252
  548MOL0     H73914   7.240   8.227   3.608  0.4693 -0.7072  3.5542
  548MOL0     H73915   7.310   7.953   3.695 -1.8575  3.3223 -2.6199
  548MOL0     H73916   7.336   8.111   3.775 -0.2904  1.1134 -0.0858
  548MOL0     H73917   7.270   7.842   3.925  0.2066 -0.0868  1.2603
  548MOL0     H73918   7.321   8.002   3.986 -3.2340  0.5661 -1.2452
  548MOL0     H73919   7.531   7.940   3.799  1.1431  1.6592  2.2467
  548MOL0     H73920   7.482   7.783   3.858 -3.9697 -0.2929  0.6940
  548MOL0     H73921   7.677   7.884   3.988  0.9336  0.3809 -1.3280
  548MOL0     H73922   7.564   8.018   4.036  0.6978 -0.6110  1.6157
  548MOL0     H73923   7.418   7.876   4.162 -1.0520 -1.0666 -0.3807
  548MOL0     H73924   7.497   7.724   4.101  1.5472 -1.3245  3.4452
  548MOL0     H73925   7.707   7.790   4.200 -2.1472 -0.9149 -3.9174
  548MOL0     H73926   7.627   7.921   4.281 -1.4187 -0.6013  1.3749
  548MOL0     H73927   7.565   7.615   4.335  0.7953 -0.1139 -1.9017
  548MOL0     H73928   7.455   7.744   4.374  0.6061  1.6490 -0.9095
  548MOL0     H73929   7.616   7.859   4.512 -0.7265  0.5763 -1.5600
  548MOL0     H73930   7.572   7.706   4.564 -3.9728  4.5201 -0.0456
  548MOL0     H73931   7.882   7.892   4.416  1.8740  0.5787 -2.5237
  548MOL0     H73932   8.175   7.788   4.498 -0.0348 -0.7697  0.3372
  548MOL0     H73933   8.179   7.621   4.430 -1.9234 -0.9782 -0.8151
  548MOL0     H73934   8.088   7.851   4.248 -1.8849 -1.5026  1.4372
  548MOL0     H73935   8.256   7.812   4.269  2.5260 -3.1603  0.9968
  548MOL0     H73936   8.031   7.643   4.168 -0.2182 -0.6083  1.8696
  548MOL0     H73937   8.191   7.557   4.217  0.8322  1.1756  0.9881
  548MOL0     H73938   8.197   7.614   3.968  1.6541 -0.1275  0.0509
  548MOL0     H73939   8.306   7.706   4.053  0.7526 -2.7765 -2.2145
  548MOL0     H73940   8.057   8.018   3.834 -0.3468  0.8372 -0.9382
  548MOL0     H73941   7.868   8.021   3.689  0.3283 -0.7664 -1.8128
  548MOL0     H73942   7.574   8.131   3.528  0.8708  2.7539 -2.2463
  548MOL0     H73943   7.392   8.195   3.386 -1.3296  0.8581 -0.7610
  548MOL0     H73944   7.144   7.895   3.149  0.5413  2.7441 -1.5989
  548MOL0     H73945   7.080   7.878   3.317  0.1140  1.2930  1.2646
  548MOL0     H73946   6.943   8.074   3.277  0.5981  2.1162 -1.2962
  548MOL0     H73947   7.022   8.112   3.121  1.8039  0.2883  0.0050
  548MOL0     H73948   6.948   7.873   3.040 -2.7444  0.6223 -2.6515
  548MOL0     H73949   6.834   7.875   3.185  1.5921  1.2114  3.0997
  548MOL0     H73950   6.843   8.082   2.965  1.1069  0.3574  0.0662
  548MOL0     H73951   6.772   8.089   3.127  5.0793  2.0831 -0.6374
  548MOL0     H73952   6.610   7.921   3.050  1.0893 -3.7727 -0.6918
  548MOL0     H73953   6.719   7.880   2.913  0.9314 -1.2674  2.3419
  548MOL0     H73954   6.564   8.152   2.958 -1.6963 -1.1765  0.6528
  548MOL0     H73955   6.654   8.111   2.808  0.7197  1.1168  1.4331
  548MOL0     H73956   6.403   7.988   2.939 -1.1456  1.5203  0.2751
  548MOL0     H73957   6.502   7.920   2.794  1.1316  1.7701 -1.0612
  548MOL0     H73958   6.435   8.161   2.693  1.3532  1.0841  2.8281
  548MOL0     H73959   6.320   8.013   2.693 -3.8874 -0.3558  3.8878
  548MOL0     H73960   7.292   7.772   3.331  1.7135 -1.1128 -2.2360
  548MOL0     H73961   7.476   7.717   3.472 -1.5081 -0.9024 -2.8874
  548MOL0     H73962   7.783   7.597   3.810 -1.1154  0.5373  1.2182
  548MOL0     H73963   7.979   7.615   3.955  0.1482 -1.1864 -2.1849
  548MOL0     H73964   6.929   8.098   3.865  0.8341 -1.8523 -1.1869
  548MOL0     H73965   6.828   8.331   3.849  0.4049 -0.3583  2.7923
  548MOL0     H73966   7.030   8.823   3.682  0.7486  1.5927 -0.0624
  548MOL0     H73967   6.927   9.045   3.690  1.5193  1.3320  3.4352
  548MOL0     H73968   6.545   9.086   3.912  0.8949 -2.4570 -1.6280
  548MOL0     H73969   6.532   9.118   3.738  0.0794 -2.1824 -0.7480
  548MOL0     H73970   6.460   9.315   3.819 -0.2032  0.5568  1.4574
  548MOL0     H73971   6.624   9.333   3.746  2.1230  2.4853  1.7935
  548MOL0     H73972   6.629   9.484   3.925 -3.1151 -0.2342 -1.5469
  548MOL0     H73973   6.717   9.350   3.986  0.8901  1.4860  0.4317
  548MOL0     H73974   6.419   9.393   4.060 -0.7269  0.1692 -4.1343
  548MOL0     H73975   6.528   9.255   4.093  0.0040  0.4219 -1.4720
  548MOL0     H73976   6.698   9.529   4.360 -3.7059 -0.2612  2.7590
  548MOL0     H73977   6.594   8.865   3.915 -0.1793 -4.8235 -0.6389
  548MOL0     H73978   6.565   8.650   3.866  0.0915  1.5635  0.8224
  548MOL0     H73979   6.704   8.541   3.880  2.8685  1.5373  0.3286
  548MOL0     H73980   6.658   8.654   4.018  0.9749  0.1948  0.7630
  549MOL0     O73981   1.700   3.572   6.573 -0.5362 -0.6669 -0.4331
  549MOL0     C73982   1.668   3.688   6.606 -0.6017  0.7263  0.1117
  549MOL0     O73983   1.543   3.745   6.604 -0.1949  0.3109 -0.3916
  549MOL0     C73984   1.440   3.647   6.598  0.3734 -0.5241  0.5336
  549MOL0     C73985   1.436   3.540   6.686 -0.4786  0.4996 -0.5987
  549MOL0     C73986   1.327   3.452   6.669  1.4423 -0.0501 -0.1992
  549MOL0     C73987   1.220   3.479   6.584  0.0182  0.2744  0.2522
  549MOL0     O73988   1.120   3.386   6.550 -0.0645  0.2564  0.6606
  549MOL0     C73989   0.986   3.427   6.548  0.0731  0.8823  0.5598
  549MOL0     C73990   0.896   3.313   6.602  0.3584 -0.4835  0.0083
  549MOL0     C73991   0.952   3.247   6.724 -0.2819 -0.8259  0.3361
  549MOL0     C73992   0.858   3.159   6.804  0.1802 -0.6193  0.9903
  549MOL0     C73993   0.949   3.073   6.894 -0.6412 -0.3797  0.1539
  549MOL0     C73994   1.027   2.954   6.830 -0.1386 -0.7879 -0.2240
  549MOL0     C73995   1.143   2.905   6.904 -0.5118 -0.6043 -0.6662
  549MOL0     C73996   1.250   2.847   6.811 -0.9796 -0.0011 -0.6346
  549MOL0     N73997   1.325   2.740   6.883 -0.2262 -0.8388  0.8660
  549MOL0     C73998   1.430   2.773   6.973 -0.7827 -0.1734  0.0211
  549MOL0     C73999   1.506   2.658   6.979  0.5201  0.3123 -0.2834
  549MOL0     C74000   1.630   2.639   7.060  0.7926  0.5565 -0.7801
  549MOL0     C74001   1.584   2.554   7.181  0.7012  0.9012 -0.3159
  549MOL0     C74002   1.472   2.614   7.268  0.4621 -1.5741 -0.2618
  549MOL0     C74003   1.441   2.527   7.390 -0.2575  0.3123  0.4587
  549MOL0     O74004   1.553   2.523   7.484 -0.1002  0.4107  0.1900
  549MOL0     C74005   1.539   2.475   7.611  0.0268 -0.0556 -0.3229
  549MOL0     C74006   1.441   2.376   7.645  1.0624  0.4431 -0.0789
  549MOL0     C74007   1.428   2.327   7.772  0.2838 -0.2122  0.1717
  549MOL0     C74008   1.523   2.367   7.873 -0.7089  0.3557 -0.4431
  549MOL0     C74009   1.514   2.314   8.005 -0.7533 -1.0607  0.6763
  549MOL0     O74010   1.621   2.362   8.087 -0.0953  0.0138 -0.0338
  549MOL0     C74011   1.635   2.329   8.217 -0.3067 -0.0513 -0.4633
  549MOL0     C74012   1.758   2.381   8.269  0.1937  0.2194  0.2817
  549MOL0     C74013   1.796   2.364   8.403 -0.3636 -0.1807 -0.6028
  549MOL0     C74014   1.714   2.302   8.499  0.5177 -0.9710  0.7448
  549MOL0     O74015   1.741   2.291   8.631  0.1713  0.1636  0.0271
  549MOL0     C74016   1.867   2.325   8.688  1.1512 -0.3566 -0.6284
  549MOL0     C74017   1.960   2.211   8.665 -0.8230  0.7745 -0.2622
  549MOL0     C74018   2.113   2.257   8.676  0.0033 -0.0521 -0.1994
  549MOL0     C74019   2.200   2.141   8.718  0.6497  0.1304 -0.4510
  549MOL0     C74020   2.356   2.172   8.713  0.0050 -0.6758 -0.1719
  549MOL0     C74021   2.402   2.277   8.823  0.3344  1.0237  0.2031
  549MOL0     C74022   2.540   2.254   8.874  0.1373 -1.0409 -0.0204
  549MOL0     C74023   2.576   2.335   9.009  0.1854  0.1374  0.6943
  549MOL0    Cl74024   2.586   2.520   8.998  0.8168 -0.0307  0.2857
  549MOL0     C74025   1.595   2.257   8.447  0.4587 -0.8063  0.8283
  549MOL0     C74026   1.555   2.265   8.312 -0.0671  0.1623 -0.2652
  549MOL0     O74027   1.428   2.229   8.030 -1.2559 -0.3805  0.5089
  549MOL0     C74028   1.621   2.465   7.847 -0.4382  0.0295 -0.1452
  549MOL0     C74029   1.632   2.514   7.712  0.2103 -0.1723  0.4459
  549MOL0     N74030   1.451   2.563   6.891 -0.1797 -0.3219 -0.4401
  549MOL0     N74031   1.349   2.616   6.832 -0.8943 -0.0099 -0.6959
  549MOL0     C74032   1.214   3.599   6.509  0.6221 -0.1369  0.3159
  549MOL0     C74033   1.327   3.674   6.517 -1.8830 -0.5222 -0.2081
  549MOL0     C74034   1.787   3.769   6.651 -0.5315  0.2278  0.5755
  549MOL0     C74035   1.885   3.707   6.728  0.3533  0.7273 -0.2678
  549MOL0     C74036   1.998   3.770   6.771  0.3991 -0.5916  0.4676
  549MOL0     C74037   2.009   3.903   6.763 -0.8600 -1.2488 -0.8556
  549MOL0     O74038   2.130   3.972   6.805  0.1265 -0.3833  0.2172
  549MOL0     C74039   2.151   4.110   6.768  0.0716 -0.3606  0.8275
  549MOL0     C74040   2.166   4.154   6.618  1.5952  0.7639  0.0965
  549MOL0     C74041   2.304   4.139   6.557 -0.8177 -0.0238  0.4795
  549MOL0     C74042   2.393   4.261   6.602  0.9690  0.5544  0.1642
  549MOL0     C74043   2.528   4.252   6.541 -0.0563  0.3638 -0.4307
  549MOL0     C74044   2.638   4.249   6.488  0.1458  0.7983  0.5635
  549MOL0     C74045   1.910   3.977   6.693 -0.4331 -0.7481  0.1513
  549MOL0     C74046   1.810   3.913   6.626 -0.5542  0.2138 -1.0075
  549MOL0     C74047   1.705   3.989   6.557  0.1092  0.2870 -0.3809
  549MOL0     H74048   1.514   3.517   6.759 -0.6082 -1.0208 -0.8897
  549MOL0     H74049   1.309   3.361   6.726 -1.8734  0.8603  0.4373
  549MOL0     H74050   0.984   3.519   6.608  1.3678  1.2770  0.0323
  549MOL0     H74051   0.951   3.442   6.446  1.9346 -2.5868 -0.7309
  549MOL0     H74052   0.893   3.240   6.520  3.5347  1.5477 -2.1686
  549MOL0     H74053   0.796   3.355   6.615  1.2221  1.6181  0.1643
  549MOL0     H74054   0.996   3.331   6.779  1.6470  1.0765 -3.6378
  549MOL0     H74055   1.037   3.187   6.691  1.6813  1.4754  0.9215
  549MOL0     H74056   0.788   3.224   6.858  0.9098 -0.2554  1.5238
  549MOL0     H74057   0.815   3.088   6.733  1.2236  1.1097 -1.5398
  549MOL0     H74058   1.024   3.143   6.933  0.3388 -1.1861 -0.2530
  549MOL0     H74059   0.885   3.035   6.974 -1.5702  0.1286 -0.3245
  549MOL0     H74060   0.957   2.872   6.815  0.6448 -1.6793  0.8917
  549MOL0     H74061   1.068   2.988   6.734 -1.4440 -1.6730 -1.1334
  549MOL0     H74062   1.112   2.824   6.970  2.0418 -2.0763 -1.1090
  549MOL0     H74063   1.199   2.984   6.956 -0.6612 -0.2256 -1.0750
  549MOL0     H74064   1.207   2.792   6.726  0.5573 -3.4977  0.6410
  549MOL0     H74065   1.316   2.929   6.783  0.5704 -0.8762  0.3187
  549MOL0     H74066   1.447   2.864   7.029  0.2261 -1.1561  1.3971
  549MOL0     H74067   1.714   2.592   7.009  1.1531 -1.6086  1.5707
  549MOL0     H74068   1.676   2.730   7.099  0.5147  0.0176  0.9151
  549MOL0     H74069   1.542   2.459   7.148 -1.3658  2.5674 -2.8754
  549MOL0     H74070   1.672   2.542   7.246 -1.7147 -1.3613  2.8050
  549MOL0     H74071   1.377   2.627   7.215 -0.3807  0.7270  1.6154
  549MOL0     H74072   1.498   2.714   7.303 -1.9880 -0.3705 -1.6121
  549MOL0     H74073   1.410   2.426   7.363 -2.8725  1.0401  0.4857
  549MOL0     H74074   1.361   2.582   7.441 -0.4868  1.6297 -1.1935
  549MOL0     H74075   1.377   2.348   7.562  1.5781  1.3402 -0.7942
  549MOL0     H74076   1.348   2.256   7.789  1.5568 -1.6571  0.4517
  549MOL0     H74077   1.820   2.432   8.196 -0.6649 -1.1320 -1.4538
  549MOL0     H74078   1.889   2.414   8.426 -1.2055  1.1073  0.1607
  549MOL0     H74079   1.896   2.416   8.636 -1.5116  1.0958  0.2026
  549MOL0     H74080   1.858   2.335   8.797  4.2448 -1.7593 -0.1383
  549MOL0     H74081   1.930   2.141   8.743 -3.3939  1.8679 -0.1733
  549MOL0     H74082   1.946   2.163   8.567 -3.3014  3.3949 -1.3255
  549MOL0     H74083   2.126   2.287   8.572 -2.9215 -1.1216 -0.9524
  549MOL0     H74084   2.138   2.334   8.749  4.6530 -1.9363  0.5443
  549MOL0     H74085   2.172   2.057   8.654 -3.9432  0.0282  1.3456
  549MOL0     H74086   2.176   2.113   8.821  0.8068  0.0076 -0.4461
  549MOL0     H74087   2.379   2.203   8.610 -0.3926 -0.4084 -0.1827
  549MOL0     H74088   2.404   2.076   8.734  1.4030  0.1229  0.3873
  549MOL0     H74089   2.399   2.372   8.770  3.2699  0.7537 -0.5995
  549MOL0     H74090   2.336   2.267   8.910  0.8770  3.0742  0.9114
  549MOL0     H74091   2.617   2.285   8.803  0.2950  0.6868  0.8519
  549MOL0     H74092   2.573   2.151   8.890  2.3992 -0.4907 -0.8345
  549MOL0     H74093   2.505   2.303   9.086 -2.4809  0.9711 -1.2409
  549MOL0     H74094   2.677   2.300   9.033  1.6851  0.7934 -3.6425
  549MOL0     H74095   1.530   2.222   8.527  1.3053 -0.5695  1.6253
  549MOL0     H74096   1.458   2.227   8.282  0.6405 -1.5260 -0.4979
  549MOL0     H74097   1.699   2.503   7.913 -1.6576  1.2645  0.6436
  549MOL0     H74098   1.705   2.590   7.684 -3.3269  1.9054 -4.5837
  549MOL0     H74099   1.131   3.625   6.445 -0.6623  1.7998  2.6374
  549MOL0     H74100   1.326   3.767   6.462 -3.2451 -0.7279 -0.5793
  549MOL0     H74101   1.873   3.603   6.756 -0.6499  0.4027 -1.7633
  549MOL0     H74102   2.083   3.708   6.798  1.4093 -1.4143 -3.8017
  549MOL0     H74103   2.231   4.150   6.830  0.0615 -0.3650  0.8437
  549MOL0     H74104   2.058   4.157   6.801 -0.0123  0.2522 -0.2231
  549MOL0     H74105   2.132   4.255   6.597 -0.0279 -0.0125 -1.2675
  549MOL0     H74106   2.102   4.077   6.573  0.6365  0.1652  2.3280
  549MOL0     H74107   2.295   4.138   6.448 -2.5110 -0.7075  0.6006
  549MOL0     H74108   2.349   4.048   6.596 -1.7139  0.0970  1.8596
  549MOL0     H74109   2.349   4.355   6.570 -0.1889  0.1541  0.5248
  549MOL0     H74110   2.395   4.267   6.711 -5.4571 -1.4982  0.7705
  549MOL0     H74111   2.732   4.246   6.436 -0.8064  0.7059 -1.2612
  549MOL0     H74112   1.903   4.085   6.698 -2.6260 -0.7273 -1.8998
  549MOL0     H74113   1.632   3.927   6.503 -1.1572  1.0711  0.3791
  549MOL0     H74114   1.648   4.047   6.630  1.4969 -1.0393  1.8701
  549MOL0     H74115   1.745   4.058   6.482 -0.0174 -0.4891 -1.1836
  550MOL0     O74116   7.099   6.322   1.620  0.3061  0.3503  0.7862
  550MOL0     C74117   7.167   6.397   1.694 -0.2363  0.8257  0.0276
  550MOL0     O74118   7.283   6.350   1.751 -0.7035  1.1157  0.2192
  550MOL0     C74119   7.364   6.262   1.667  0.3869 -0.3162  0.4495
  550MOL0     C74120   7.460   6.168   1.723  0.0408 -0.0928  0.3974
  550MOL0     C74121   7.544   6.093   1.637 -0.3277 -0.5039 -0.2550
  550MOL0     C74122   7.537   6.116   1.504 -1.1189 -0.2111  0.1465
  550MOL0     O74123   7.626   6.034   1.432  0.3483 -0.5523  1.0248
  550MOL0     C74124   7.729   6.112   1.367 -0.1857 -0.8663 -0.2786
  550MOL0     C74125   7.781   6.048   1.239  0.0144  0.2497 -0.5353
  550MOL0     C74126   7.671   6.013   1.140  1.0882 -0.6588 -0.5234
  550MOL0     C74127   7.728   5.972   0.994 -0.0788  0.0247 -0.4685
  550MOL0     C74128   7.635   5.897   0.903  0.3219  0.0665  0.3786
  550MOL0     C74129   7.584   5.764   0.962 -0.1167 -0.2432  0.4001
  550MOL0     C74130   7.531   5.673   0.863  0.0958 -0.2226  0.0144
  550MOL0     C74131   7.380   5.712   0.847  0.0031  0.1557  0.5004
  550MOL0     N74132   7.312   5.626   0.743  0.3372 -0.8868  0.3743
  550MOL0     C74133   7.307   5.634   0.607 -0.5507 -0.3106  0.3168
  550MOL0     C74134   7.245   5.525   0.568 -0.4523  0.4826 -0.5295
  550MOL0     C74135   7.199   5.480   0.433 -0.8088 -0.4550 -0.0115
  550MOL0     C74136   7.096   5.560   0.358  0.4651 -0.9828  0.6038
  550MOL0     C74137   7.144   5.693   0.294 -0.1816 -0.0627  0.2148
  550MOL0     C74138   7.036   5.752   0.211  0.1335 -0.2249 -0.5573
  550MOL0     O74139   7.086   5.810   0.093  0.6450  0.6548 -0.3290
  550MOL0     C74140   7.025   5.816  -0.032 -0.3968  0.9248 -0.7880
  550MOL0     C74141   6.909   5.757  -0.057  0.4578 -0.1966  0.1334
  550MOL0     C74142   6.845   5.759  -0.185 -0.2485  0.3534 -0.9598
  550MOL0     C74143   6.918   5.839  -0.275  0.5009  0.0231 -0.4548
  550MOL0     C74144   6.863   5.843  -0.416  0.4472  0.6174 -0.1329
  550MOL0     O74145   6.726   5.833  -0.425  0.8024  0.1970  0.2373
  550MOL0     C74146   6.673   5.855  -0.549  0.5026 -0.8245  0.6626
  550MOL0     C74147   6.674   5.759  -0.638  0.5531 -0.1062  0.9806
  550MOL0     C74148   6.616   5.791  -0.760  0.3838 -0.5488 -0.2165
  550MOL0     C74149   6.582   5.914  -0.803  1.0708  0.6306 -0.6360
  550MOL0     O74150   6.551   5.932  -0.936 -0.4056 -0.1347  0.0772
  550MOL0     C74151   6.509   6.061  -0.986  0.3761 -0.0657 -0.3690
  550MOL0     C74152   6.465   6.051  -1.135 -0.6420 -0.6995  0.0779
  550MOL0     C74153   6.350   5.958  -1.156 -0.0704  0.2713 -0.6696
  550MOL0     C74154   6.305   5.950  -1.299 -0.1609  0.0560 -0.5123
  550MOL0     C74155   6.243   5.808  -1.320 -0.0480 -0.7168  0.0780
  550MOL0     C74156   6.174   5.792  -1.459  0.4874  0.7663  0.0813
  550MOL0     C74157   6.110   5.657  -1.469 -0.2090 -0.3456 -0.6177
  550MOL0     C74158   6.040   5.640  -1.599 -0.3225  0.1320  0.0381
  550MOL0    Cl74159   5.961   5.483  -1.621  0.0214  0.1922  0.2041
  550MOL0     C74160   6.586   6.020  -0.711 -0.3541 -0.9732  0.2551
  550MOL0     C74161   6.636   5.987  -0.589  0.3313  0.6921 -0.0752
  550MOL0     O74162   6.944   5.851  -0.506 -0.4499 -0.0063  0.1958
  550MOL0     C74163   7.044   5.886  -0.256  0.0327 -0.0226  0.7931
  550MOL0     C74164   7.093   5.887  -0.133  0.1219  0.4896  0.1921
  550MOL0     N74165   7.208   5.446   0.681 -1.0497  0.0140 -0.3118
  550MOL0     N74166   7.254   5.510   0.778 -0.0407 -0.5320 -0.9540
  550MOL0     C74167   7.454   6.207   1.439  0.6150  0.7280  1.0136
  550MOL0     C74168   7.375   6.281   1.522  1.3241  0.0710 -0.0618
  550MOL0     C74169   7.128   6.539   1.723  0.3296  0.1691  0.1196
  550MOL0     C74170   7.213   6.618   1.803  1.2770  0.1747 -0.2885
  550MOL0     C74171   7.184   6.753   1.833  0.4789 -0.2036 -0.1219
  550MOL0     C74172   7.069   6.810   1.789 -0.7826 -0.2189 -0.2254
  550MOL0     O74173   7.031   6.941   1.785 -1.1860  0.4374 -0.5404
  550MOL0     C74174   7.112   7.037   1.864  0.2191  0.5791 -0.2865
  550MOL0     C74175   7.112   7.001   2.016 -0.1145 -0.4347  0.0655
  550MOL0     C74176   6.979   7.034   2.089  0.3643  0.7663 -0.6503
  550MOL0     C74177   6.988   7.019   2.242 -0.6397 -0.1420 -0.1821
  550MOL0     C74178   6.856   7.034   2.303 -0.1070  0.3046 -0.0995
  550MOL0     C74179   6.746   7.047   2.344 -0.2497  0.1246  0.0805
  550MOL0     C74180   6.982   6.733   1.709  0.0686  0.4624  1.5158
  550MOL0     C74181   7.005   6.595   1.678 -0.4858  0.4724  0.1064
  550MOL0     C74182   6.898   6.523   1.603 -0.4544  0.2170 -0.1394
  550MOL0     H74183   7.468   6.151   1.830 -1.6268  2.2771  0.9971
  550MOL0     H74184   7.613   6.019   1.676  1.7308  0.6108 -1.6163
  550MOL0     H74185   7.695   6.215   1.355  1.1204  0.1506  3.3279
  550MOL0     H74186   7.810   6.114   1.440  1.3571  1.4452 -1.9215
  550MOL0     H74187   7.839   5.964   1.279  0.5574  2.1525  3.1888
  550MOL0     H74188   7.852   6.119   1.196  1.8008 -1.1332  0.0279
  550MOL0     H74189   7.597   6.093   1.124 -1.6658 -3.1285 -0.9631
  550MOL0     H74190   7.607   5.934   1.179 -1.0810  1.5855  0.8104
  550MOL0     H74191   7.771   6.066   0.960  1.1933 -0.6311 -0.7746
  550MOL0     H74192   7.808   5.899   1.012  2.4037  2.0120 -2.6018
  550MOL0     H74193   7.552   5.958   0.867 -2.8305 -4.0612 -0.0736
  550MOL0     H74194   7.688   5.859   0.816 -1.1283 -0.6211 -0.2442
  550MOL0     H74195   7.673   5.714   1.001  1.0432  2.6712  1.8294
  550MOL0     H74196   7.525   5.790   1.050  2.7272  1.1069  2.0785
  550MOL0     H74197   7.543   5.578   0.915  0.6238  0.1832  0.6477
  550MOL0     H74198   7.589   5.663   0.771 -1.6316 -0.7074 -1.0746
  550MOL0     H74199   7.336   5.689   0.944  1.3151 -2.6980  0.5350
  550MOL0     H74200   7.376   5.821   0.838 -0.4419  0.2869  2.0728
  550MOL0     H74201   7.354   5.707   0.542  2.4513 -0.4932  2.0730
  550MOL0     H74202   7.290   5.457   0.377 -0.1222  2.0626 -0.0468
  550MOL0     H74203   7.154   5.383   0.456 -2.1195  0.2411  0.4880
  550MOL0     H74204   7.064   5.499   0.273 -2.1612  1.4706 -0.3293
  550MOL0     H74205   7.006   5.572   0.419 -0.9001  0.9376 -1.6047
  550MOL0     H74206   7.222   5.656   0.227 -0.0575 -2.0258  1.3523
  550MOL0     H74207   7.178   5.771   0.362 -2.3585  0.8828  0.3056
  550MOL0     H74208   6.991   5.826   0.278 -0.8885  0.5815 -2.0786
  550MOL0     H74209   6.964   5.675   0.182 -1.5470  0.8953  0.4567
  550MOL0     H74210   6.844   5.699   0.008 -1.5373  0.2194 -1.4125
  550MOL0     H74211   6.744   5.732  -0.214 -1.5683  2.6276  1.1592
  550MOL0     H74212   6.705   5.661  -0.602 -4.5769 -1.9610  1.0816
  550MOL0     H74213   6.616   5.718  -0.841  0.2690 -0.5714 -0.1972
  550MOL0     H74214   6.417   6.098  -0.939  0.4437 -0.5618  0.1634
  550MOL0     H74215   6.581   6.138  -0.955 -1.7763  0.5156  3.9012
  550MOL0     H74216   6.426   6.150  -1.160 -1.3474 -1.0106 -0.0723
  550MOL0     H74217   6.544   6.022  -1.205 -0.2567 -0.9584  0.6105
  550MOL0     H74218   6.393   5.862  -1.124  0.9929  0.9518  0.0180
  550MOL0     H74219   6.265   5.981  -1.090  1.6856 -0.1880  1.9139
  550MOL0     H74220   6.390   5.959  -1.368 -0.1847 -2.0427 -0.8802
  550MOL0     H74221   6.233   6.030  -1.322  0.7069  1.0011  0.0016
  550MOL0     H74222   6.172   5.787  -1.240  0.0838  0.2676  0.4677
  550MOL0     H74223   6.318   5.728  -1.321  1.4652  0.4893 -3.6773
  550MOL0     H74224   6.102   5.875  -1.458 -0.3340  0.0583  0.4771
  550MOL0     H74225   6.259   5.810  -1.525  0.5877  1.3424  0.3585
  550MOL0     H74226   6.041   5.640  -1.386  0.1720 -4.8299 -0.9800
  550MOL0     H74227   6.194   5.587  -1.458 -0.1370 -0.3386 -1.1122
  550MOL0     H74228   5.975   5.727  -1.614 -1.2469 -0.5136  0.2140
  550MOL0     H74229   6.115   5.638  -1.679 -0.5397  2.2303 -0.2683
  550MOL0     H74230   6.563   6.126  -0.721 -1.8756 -1.0915  2.0085
  550MOL0     H74231   6.629   6.062  -0.511  0.2947 -0.1500  0.7422
  550MOL0     H74232   7.099   5.945  -0.329 -1.7821  1.0083  0.1958
  550MOL0     H74233   7.178   5.948  -0.104  0.3783  1.0300 -1.5512
  550MOL0     H74234   7.451   6.238   1.335  1.4438  2.3286  1.4273
  550MOL0     H74235   7.302   6.347   1.476  0.3901 -1.0498 -0.2371
  550MOL0     H74236   7.300   6.579   1.854 -0.6005 -0.9001  2.3434
  550MOL0     H74237   7.258   6.818   1.880  1.1751  1.4596 -3.2317
  550MOL0     H74238   7.066   7.136   1.871  0.2366  0.6371 -0.8836
  550MOL0     H74239   7.212   7.034   1.819  1.8960  1.0080  3.1456
  550MOL0     H74240   7.192   7.061   2.061 -1.8019  3.0809 -1.2786
  550MOL0     H74241   7.134   6.894   2.020  1.4536 -0.1137  1.8199
  550MOL0     H74242   6.900   6.964   2.062 -1.0321  2.0559 -0.0557
  550MOL0     H74243   6.932   7.132   2.078 -0.5500  0.6007  1.2527
  550MOL0     H74244   7.021   6.916   2.255 -0.7873 -0.4008 -1.6377
  550MOL0     H74245   7.059   7.076   2.304 -0.4306 -1.6733  1.0400
  550MOL0     H74246   6.640   7.042   2.360 -0.5100  0.0260 -1.4520
  550MOL0     H74247   6.903   6.793   1.666  1.4110  1.2082 -0.0589
  550MOL0     H74248   6.862   6.435   1.656  0.3141  1.3083  2.3542
  550MOL0     H74249   6.815   6.591   1.581 -0.5431 -0.2272 -1.2458
  550MOL0     H74250   6.933   6.486   1.506  2.2416  1.2134  0.3540
  551MOL0     O74251  10.935   9.818   8.581 -0.0636 -0.2216  0.0614
  551MOL0     C74252  10.998   9.713   8.613 -0.4402 -1.0492  0.4490
  551MOL0     O74253  10.959   9.588   8.584 -0.3754 -0.2340 -0.4738
  551MOL0     C74254  10.834   9.565   8.533  0.2401 -0.5565 -0.1129
  551MOL0     C74255  10.742   9.486   8.607  0.9459 -0.1456 -0.2199
  551MOL0     C74256  10.615   9.460   8.560 -0.6348 -0.3299  0.7047
  551MOL0     C74257  10.581   9.510   8.430 -0.1459 -0.3261 -0.4879
  551MOL0     O74258  10.455   9.512   8.384 -0.1596 -0.1580 -0.9233
  551MOL0     C74259  10.384   9.627   8.437 -0.1405  0.1259  0.4288
  551MOL0     C74260  10.303   9.591   8.565  0.3040 -0.1687 -0.6413
  551MOL0     C74261  10.212   9.480   8.527 -0.1288 -0.6100 -0.6911
  551MOL0     C74262  10.073   9.485   8.600 -0.1352 -0.9231 -0.5356
  551MOL0     C74263   9.975   9.380   8.548 -0.5816  0.3198  0.5690
  551MOL0     C74264   9.866   9.338   8.649  0.1942  0.0743  0.2338
  551MOL0     C74265   9.785   9.453   8.714 -0.5888 -0.5232 -0.5534
  551MOL0     C74266   9.673   9.394   8.801  0.3129  0.0241 -0.1724
  551MOL0     N74267   9.583   9.305   8.725  0.1791  0.0380 -0.1097
  551MOL0     C74268   9.496   9.350   8.632 -0.3125 -0.0889  1.0619
  551MOL0     C74269   9.428   9.240   8.594 -0.1807 -0.4571 -0.7755
  551MOL0     C74270   9.335   9.233   8.478 -0.4198  0.2550  0.1238
  551MOL0     C74271   9.183   9.220   8.530 -0.5117 -0.7112  0.8518
  551MOL0     C74272   9.136   9.079   8.564 -0.3108 -0.0898 -0.0783
  551MOL0     C74273   9.118   9.006   8.429  0.6307  0.2645 -0.8950
  551MOL0     O74274   9.043   8.884   8.461  0.2885  0.2990 -0.2246
  551MOL0     C74275   8.904   8.879   8.469 -1.1700  0.2714 -0.1740
  551MOL0     C74276   8.847   8.751   8.475  0.0217  0.0627  0.6973
  551MOL0     C74277   8.709   8.734   8.472  0.5991 -0.8313  0.4639
  551MOL0     C74278   8.630   8.846   8.463  1.3459 -0.9444  0.2457
  551MOL0     C74279   8.486   8.830   8.446 -0.3046  0.6251  1.0591
  551MOL0     O74280   8.429   8.724   8.516 -0.4471  0.0803  0.0420
  551MOL0     C74281   8.295   8.696   8.490 -0.1474  0.5711  0.0887
  551MOL0     C74282   8.196   8.737   8.576 -0.5362  0.1386  0.2196
  551MOL0     C74283   8.065   8.708   8.548 -0.1413 -0.1584  0.5859
  551MOL0     C74284   8.032   8.635   8.433 -0.5985  0.7082  0.3855
  551MOL0     O74285   7.898   8.601   8.403 -0.1065 -0.9467 -0.6706
  551MOL0     C74286   7.872   8.459   8.374  0.6444 -0.2662 -0.3873
  551MOL0     C74287   7.816   8.428   8.231  0.0082 -0.5829 -0.6040
  551MOL0     C74288   7.742   8.296   8.220  0.1964 -0.4057 -0.4226
  551MOL0     C74289   7.687   8.277   8.081 -0.8470 -0.3160 -0.4135
  551MOL0     C74290   7.615   8.143   8.071 -0.5746  0.2914 -1.5144
  551MOL0     C74291   7.628   8.085   7.926  0.5617  1.2737 -0.2627
  551MOL0     C74292   7.772   8.029   7.890  0.3496 -0.2582 -0.1888
  551MOL0     C74293   7.847   7.956   7.997 -0.4613 -0.8345 -0.8893
  551MOL0    Cl74294   7.992   7.872   7.941 -0.0183  0.0875 -0.0947
  551MOL0     C74295   8.136   8.591   8.356  0.5300  0.4515  0.6076
  551MOL0     C74296   8.275   8.605   8.389  0.6355  0.0602  1.0905
  551MOL0     O74297   8.426   8.910   8.381  0.7185  0.6780 -0.1645
  551MOL0     C74298   8.687   8.980   8.453  0.2043 -0.1661 -0.4541
  551MOL0     C74299   8.817   8.992   8.457 -0.3089 -0.1099  0.1257
  551MOL0     N74300   9.473   9.133   8.674  0.4717 -0.3016 -0.7741
  551MOL0     N74301   9.565   9.176   8.753 -0.5613  0.7463  0.1559
  551MOL0     C74302  10.673   9.588   8.359  0.2708 -0.6807 -0.0141
  551MOL0     C74303  10.795   9.614   8.408 -0.0982 -0.8553  0.6422
  551MOL0     C74304  11.126   9.735   8.700  0.9059 -0.3475 -0.4220
  551MOL0     C74305  11.200   9.851   8.674  0.1971  0.4494  0.1080
  551MOL0     C74306  11.323   9.878   8.738 -0.8240 -0.4022 -0.0433
  551MOL0     C74307  11.375   9.788   8.827 -0.2261 -0.0405  0.6576
  551MOL0     O74308  11.497   9.796   8.886  0.2484  0.4742  0.4106
  551MOL0     C74309  11.586   9.682   8.866 -0.6190  0.0041  0.6715
  551MOL0     C74310  11.729   9.744   8.897 -0.2645 -0.0061 -0.1459
  551MOL0     C74311  11.787   9.844   8.785  0.7780 -0.2800 -1.1079
  551MOL0     C74312  11.914   9.922   8.827 -0.8502 -0.4491  0.1762
  551MOL0     C74313  11.977   9.984   8.714  0.4053 -0.0540 -0.5602
  551MOL0     C74314  12.040  10.049   8.628  0.0555  0.9418 -0.2893
  551MOL0     C74315  11.297   9.668   8.859  0.8060 -0.3330 -0.0352
  551MOL0     C74316  11.178   9.634   8.789 -0.5136 -0.4676  1.2743
  551MOL0     C74317  11.096   9.523   8.843  0.1042  0.7142  0.2494
  551MOL0     H74318  10.750   9.463   8.713  0.8695 -0.4700 -0.2820
  551MOL0     H74319  10.537   9.400   8.605 -4.3662  3.6115  0.1526
  551MOL0     H74320  10.452   9.708   8.463 -2.1221  1.8905  0.3166
  551MOL0     H74321  10.315   9.677   8.369  2.8973 -0.6044 -3.5631
  551MOL0     H74322  10.246   9.675   8.605  0.7700 -1.3062  2.6646
  551MOL0     H74323  10.375   9.564   8.643 -1.6098  2.5994  2.3067
  551MOL0     H74324  10.266   9.389   8.556  1.2891  0.6555  0.8535
  551MOL0     H74325  10.184   9.495   8.423  0.7094  0.3354 -0.7880
  551MOL0     H74326  10.080   9.467   8.708 -2.0590 -1.8016 -0.5071
  551MOL0     H74327  10.026   9.581   8.576  1.8055 -0.3693 -2.4348
  551MOL0     H74328   9.931   9.424   8.458 -1.5809  4.0447  2.6497
  551MOL0     H74329  10.022   9.285   8.523 -0.5961  0.6602 -0.8272
  551MOL0     H74330   9.795   9.280   8.589 -0.0567  0.8094 -0.1981
  551MOL0     H74331   9.906   9.272   8.726 -1.0414 -0.3829  0.5059
  551MOL0     H74332   9.757   9.529   8.640  4.4357  3.2821  0.8354
  551MOL0     H74333   9.838   9.513   8.789 -1.4618  0.2933 -0.5663
  551MOL0     H74334   9.722   9.335   8.878 -2.2698 -1.1679  0.6795
  551MOL0     H74335   9.611   9.473   8.845 -0.1552  0.6743 -1.9141
  551MOL0     H74336   9.497   9.450   8.591 -1.6418 -0.6769 -0.5079
  551MOL0     H74337   9.350   9.325   8.422 -0.5619  0.4852  0.4614
  551MOL0     H74338   9.360   9.149   8.412  0.0218  1.5854 -1.4687
  551MOL0     H74339   9.174   9.278   8.622 -3.4219 -0.1833  0.3474
  551MOL0     H74340   9.118   9.263   8.453  0.5614 -1.6312 -0.6184
  551MOL0     H74341   9.037   9.091   8.608 -1.2133  0.0756 -2.0322
  551MOL0     H74342   9.194   9.020   8.636 -0.9439  0.0017  0.5182
  551MOL0     H74343   9.212   8.974   8.384  0.4673 -1.0114 -0.3976
  551MOL0     H74344   9.067   9.067   8.354  0.6332 -2.0570 -2.8954
  551MOL0     H74345   8.907   8.662   8.485 -2.4641 -1.6448  1.6275
  551MOL0     H74346   8.657   8.639   8.473 -0.6107 -0.1949  0.4589
  551MOL0     H74347   8.222   8.794   8.665  1.0803  1.2363 -0.8898
  551MOL0     H74348   7.990   8.722   8.626  0.6565 -3.3952  2.0981
  551MOL0     H74349   7.963   8.398   8.385  1.4042  0.5167 -2.0474
  551MOL0     H74350   7.799   8.412   8.441 -1.1429  0.6558 -1.6239
  551MOL0     H74351   7.746   8.510   8.216  2.3626  1.6677  0.0134
  551MOL0     H74352   7.897   8.424   8.158  1.0852 -1.1264  0.5709
  551MOL0     H74353   7.807   8.217   8.257 -1.0535 -1.4162 -0.2947
  551MOL0     H74354   7.651   8.291   8.281 -0.4549  0.9180 -1.2351
  551MOL0     H74355   7.768   8.273   8.007 -0.0285  1.6340  0.3020
  551MOL0     H74356   7.616   8.354   8.050 -2.4731 -0.1053  3.3241
  551MOL0     H74357   7.513   8.161   8.108  0.9237  1.5740  2.5999
  551MOL0     H74358   7.662   8.072   8.139  1.3969 -0.7798 -3.8600
  551MOL0     H74359   7.581   7.986   7.921  2.8843 -0.1325  2.7103
  551MOL0     H74360   7.587   8.150   7.848 -0.9713  1.4374  0.6623
  551MOL0     H74361   7.828   8.113   7.847  1.6511 -1.7931 -1.6200
  551MOL0     H74362   7.745   7.960   7.810 -1.0114  0.0115  0.0058
  551MOL0     H74363   7.887   8.023   8.073 -2.2826 -0.6096 -0.0633
  551MOL0     H74364   7.771   7.891   8.043 -0.9695 -0.6657 -1.4772
  551MOL0     H74365   8.123   8.532   8.266  0.9034  2.7397 -1.0355
  551MOL0     H74366   8.354   8.564   8.327 -0.2567  0.4338 -0.3279
  551MOL0     H74367   8.620   9.064   8.434  0.0428 -0.1739  0.0470
  551MOL0     H74368   8.846   9.095   8.441 -4.9590  1.8009  2.3438
  551MOL0     H74369  10.642   9.628   8.263  4.2017 -0.3138 -1.3023
  551MOL0     H74370  10.857   9.683   8.350 -1.1074  0.8312  1.4923
  551MOL0     H74371  11.150   9.922   8.609  0.7656 -0.5614 -1.4985
  551MOL0     H74372  11.376   9.970   8.715 -4.5812  2.6757  2.1622
  551MOL0     H74373  11.587   9.643   8.764  2.2443 -0.7335  0.8774
  551MOL0     H74374  11.576   9.604   8.942  1.1912 -1.1092 -0.1547
  551MOL0     H74375  11.803   9.664   8.892 -0.9454 -0.7826  1.5198
  551MOL0     H74376  11.729   9.793   8.995  2.9486  0.7367 -0.3954
  551MOL0     H74377  11.718   9.922   8.751  0.4863  0.1617  0.4019
  551MOL0     H74378  11.813   9.788   8.695  1.4523  1.9106 -2.3259
  551MOL0     H74379  11.891  10.003   8.897  0.0973 -0.8837  1.0043
  551MOL0     H74380  11.987   9.854   8.871  0.5467  1.0707  0.2806
  551MOL0     H74381  12.086  10.105   8.549  3.0838  1.4114  1.6308
  551MOL0     H74382  11.340   9.594   8.926  0.4479 -0.8924 -0.4156
  551MOL0     H74383  11.133   9.488   8.939 -2.6618 -1.2988  0.6726
  551MOL0     H74384  10.993   9.549   8.869  0.5412  1.0278  1.7600
  551MOL0     H74385  11.090   9.441   8.771 -2.6664  0.1860  0.9940
  552MOL0     O74386   8.565   6.570   3.115 -0.1715  0.1898 -0.2710
  552MOL0     C74387   8.584   6.688   3.139  0.4818  0.3002 -0.5505
  552MOL0     O74388   8.707   6.749   3.160 -0.0216 -0.6940  0.6293
  552MOL0     C74389   8.818   6.674   3.152  0.1167  0.1444 -0.3065
  552MOL0     C74390   8.926   6.726   3.078 -0.8047 -0.3560  0.3743
  552MOL0     C74391   9.048   6.664   3.081  0.4843 -0.3291  0.4646
  552MOL0     C74392   9.064   6.534   3.142 -0.2066 -0.3602  0.7601
  552MOL0     O74393   9.179   6.459   3.148  0.0814  0.6744 -0.1804
  552MOL0     C74394   9.309   6.520   3.128  0.4838 -0.0137  0.1668
  552MOL0     C74395   9.349   6.597   3.253  0.9048  0.3781  0.0993
  552MOL0     C74396   9.378   6.502   3.376 -0.1834  0.3298  0.3786
  552MOL0     C74397   9.409   6.580   3.509  0.1211  0.4194  0.1897
  552MOL0     C74398   9.404   6.493   3.631 -0.3374 -0.1457  0.2124
  552MOL0     C74399   9.503   6.381   3.634 -0.2181 -0.0702  0.4278
  552MOL0     C74400   9.510   6.318   3.769  0.2610 -0.2700 -0.3433
  552MOL0     C74401   9.589   6.183   3.769  0.3254  0.4796 -0.6671
  552MOL0     N74402   9.665   6.165   3.900  0.2051 -0.2549 -0.8117
  552MOL0     C74403   9.615   6.180   4.024  0.9563  0.8231 -0.2605
  552MOL0     C74404   9.705   6.123   4.108  0.3025  0.1135  1.0782
  552MOL0     C74405   9.701   6.115   4.255  0.0753  0.5653  0.4828
  552MOL0     C74406   9.785   6.233   4.323  0.5951 -0.1795 -0.0265
  552MOL0     C74407   9.719   6.375   4.316 -0.0528  0.2604 -0.1963
  552MOL0     C74408   9.823   6.488   4.346  0.2107 -1.1118  0.6500
  552MOL0     O74409   9.878   6.472   4.475  0.5739  0.5530  0.5649
  552MOL0     C74410   9.791   6.477   4.587 -0.1412 -0.3634  1.1299
  552MOL0     C74411   9.687   6.576   4.593 -0.6535 -0.2328  0.3961
  552MOL0     C74412   9.619   6.583   4.715 -0.6079 -0.0192 -0.8029
  552MOL0     C74413   9.649   6.510   4.827 -0.8383  0.1608  1.1896
  552MOL0     C74414   9.582   6.530   4.960 -0.3711  0.4770  0.6683
  552MOL0     O74415   9.629   6.456   5.066 -0.6053 -1.0567  0.1810
  552MOL0     C74416   9.565   6.464   5.186  0.3864  0.4799  0.2814
  552MOL0     C74417   9.430   6.479   5.203 -0.2934  0.8986 -0.3621
  552MOL0     C74418   9.374   6.470   5.329 -0.0450 -0.6189 -0.7284
  552MOL0     C74419   9.453   6.451   5.447 -0.3454  0.9263 -0.1025
  552MOL0     O74420   9.402   6.455   5.578  0.1740 -0.2142  0.4810
  552MOL0     C74421   9.450   6.347   5.666  0.1590  0.7764 -0.0390
  552MOL0     C74422   9.372   6.366   5.798 -1.2362  0.0829 -0.5492
  552MOL0     C74423   9.227   6.381   5.779 -0.4555  0.7347  0.7624
  552MOL0     C74424   9.155   6.361   5.913 -0.8731 -0.8940 -0.4702
  552MOL0     C74425   9.004   6.393   5.907  0.2989  0.5919 -0.2342
  552MOL0     C74426   8.951   6.418   6.049  0.3421  0.6405 -0.2985
  552MOL0     C74427   8.814   6.491   6.055  0.6726 -0.7058 -0.5822
  552MOL0     C74428   8.777   6.515   6.193  1.2616  0.0318 -0.3279
  552MOL0    Cl74429   8.632   6.619   6.169 -0.3345 -0.4256  0.0281
  552MOL0     C74430   9.591   6.447   5.427  0.6190 -0.3107 -0.2246
  552MOL0     C74431   9.649   6.448   5.299 -0.0088  0.6834  0.3493
  552MOL0     O74432   9.504   6.618   4.966  0.1204 -0.1473 -0.0651
  552MOL0     C74433   9.753   6.417   4.814 -1.3958 -1.7985  0.4947
  552MOL0     C74434   9.823   6.398   4.695  0.4330 -0.3018 -0.1697
  552MOL0     N74435   9.818   6.084   4.031 -0.1710 -0.8229  0.8937
  552MOL0     N74436   9.789   6.111   3.907 -0.5148  0.2450 -0.0768
  552MOL0     C74437   8.954   6.485   3.206  0.5284 -0.4311  0.0205
  552MOL0     C74438   8.831   6.555   3.223  0.8198  0.6252 -0.3312
  552MOL0     C74439   8.457   6.754   3.171 -0.0159 -0.6234 -0.2842
  552MOL0     C74440   8.474   6.890   3.218 -0.2977 -1.1546 -0.2128
  552MOL0     C74441   8.364   6.971   3.266  0.7716 -0.6593 -0.1182
  552MOL0     C74442   8.230   6.917   3.272 -0.8887  0.2169  0.0862
  552MOL0     O74443   8.121   6.992   3.305  0.4229 -0.4620  0.1930
  552MOL0     C74444   8.091   6.997   3.444 -1.2255  0.2369  0.5774
  552MOL0     C74445   7.984   6.897   3.485 -0.0365  0.5449 -0.2548
  552MOL0     C74446   7.856   6.929   3.408  0.8426  0.9533 -0.5452
  552MOL0     C74447   7.771   6.801   3.394 -0.2736 -0.4968  0.7983
  552MOL0     C74448   7.820   6.730   3.269  0.6622  0.5577  0.4788
  552MOL0     C74449   7.841   6.687   3.161 -0.0888 -0.2476 -0.0598
  552MOL0     C74450   8.209   6.783   3.219  0.7688  0.4579  0.8084
  552MOL0     C74451   8.321   6.706   3.168 -0.2323 -0.3611  0.4045
  552MOL0     C74452   8.288   6.571   3.132 -0.3647 -0.2001  0.3163
  552MOL0     H74453   8.903   6.818   3.025 -0.3223  1.6879  3.4369
  552MOL0     H74454   9.119   6.714   3.016 -0.9736  0.4474 -0.6050
  552MOL0     H74455   9.371   6.436   3.094  0.8092  0.2167  0.1877
  552MOL0     H74456   9.307   6.593   3.047  0.7110 -0.4997 -0.2887
  552MOL0     H74457   9.272   6.670   3.278 -2.9572 -2.5041 -2.3557
  552MOL0     H74458   9.443   6.649   3.231  0.2611  1.9537  0.8996
  552MOL0     H74459   9.471   6.450   3.351  0.3791  0.8152  1.3801
  552MOL0     H74460   9.293   6.436   3.391 -1.6252  2.5247  2.7383
  552MOL0     H74461   9.509   6.622   3.496  2.7658 -5.2107 -0.4162
  552MOL0     H74462   9.328   6.654   3.518 -0.0904  0.4497 -1.5830
  552MOL0     H74463   9.436   6.551   3.717 -1.1527  0.4196  0.1450
  552MOL0     H74464   9.299   6.463   3.639  0.3956 -3.0446  0.4317
  552MOL0     H74465   9.479   6.298   3.568  4.4107 -0.5032 -1.0772
  552MOL0     H74466   9.600   6.407   3.591  1.3552 -4.1947  1.0118
  552MOL0     H74467   9.411   6.296   3.811  1.0356 -0.8207  1.2956
  552MOL0     H74468   9.558   6.381   3.845  1.3998  0.0702 -1.3176
  552MOL0     H74469   9.516   6.101   3.764  0.6155 -0.0397  2.2218
  552MOL0     H74470   9.659   6.173   3.685  0.6091  0.2952 -0.4085
  552MOL0     H74471   9.519   6.220   4.055  0.6763  0.4592 -0.6555
  552MOL0     H74472   9.596   6.128   4.284 -0.5219  2.7608 -2.2219
  552MOL0     H74473   9.744   6.019   4.283 -1.0841  0.9211  4.0950
  552MOL0     H74474   9.822   6.220   4.425  0.7825  0.3508 -0.0238
  552MOL0     H74475   9.876   6.233   4.262 -0.4824 -0.6513 -1.7003
  552MOL0     H74476   9.623   6.368   4.367  1.5898 -0.5172  3.0161
  552MOL0     H74477   9.704   6.390   4.208  2.4423 -3.4147 -1.2592
  552MOL0     H74478   9.802   6.594   4.330  1.7176 -1.0040 -0.9788
  552MOL0     H74479   9.891   6.480   4.260  0.1325 -1.5922  0.6307
  552MOL0     H74480   9.666   6.638   4.507  0.9157 -0.2552 -0.0485
  552MOL0     H74481   9.548   6.665   4.717 -0.9189 -0.2878  0.8069
  552MOL0     H74482   9.365   6.493   5.117  2.0727 -1.0073 -2.6119
  552MOL0     H74483   9.268   6.475   5.349  0.2351  2.1463  0.5435
  552MOL0     H74484   9.404   6.255   5.628  0.7264 -0.8389  2.8536
  552MOL0     H74485   9.559   6.346   5.672  0.2475  4.5395  4.3873
  552MOL0     H74486   9.393   6.281   5.865 -0.2930  0.9126  0.2527
  552MOL0     H74487   9.414   6.458   5.840  0.4650 -0.5820 -0.6922
  552MOL0     H74488   9.210   6.481   5.740  2.4812  0.1814 -2.3342
  552MOL0     H74489   9.193   6.296   5.720  5.7336 -0.7977 -1.2855
  552MOL0     H74490   9.204   6.426   5.985 -3.8988 -1.3344  2.2063
  552MOL0     H74491   9.161   6.253   5.933 -3.3683 -0.7235  1.7218
  552MOL0     H74492   8.952   6.312   5.854  1.2769 -1.4173  1.6758
  552MOL0     H74493   8.983   6.488   5.858 -3.2645  0.5272  0.9153
  552MOL0     H74494   8.959   6.331   6.115  1.2091  0.6816 -0.3368
  552MOL0     H74495   9.021   6.491   6.092  1.3460 -0.2995 -0.3012
  552MOL0     H74496   8.737   6.430   6.007 -0.1708 -1.1376  1.2423
  552MOL0     H74497   8.826   6.590   6.011  0.9313 -0.9121 -0.9945
  552MOL0     H74498   8.747   6.424   6.247  1.3263 -1.0845 -2.0601
  552MOL0     H74499   8.861   6.565   6.241  4.3460 -2.7696 -2.3273
  552MOL0     H74500   9.656   6.436   5.514 -1.9098  2.5965  2.2787
  552MOL0     H74501   9.754   6.426   5.281 -0.5276 -2.1099  0.2194
  552MOL0     H74502   9.777   6.376   4.911 -0.6602  3.2146  2.7478
  552MOL0     H74503   9.905   6.326   4.697  1.1271  0.4803  0.4044
  552MOL0     H74504   8.958   6.398   3.270 -3.5924 -0.4172  0.5819
  552MOL0     H74505   8.751   6.527   3.291  0.7671 -1.3632 -1.1379
  552MOL0     H74506   8.570   6.939   3.230 -1.1225  0.1313  1.5390
  552MOL0     H74507   8.379   7.066   3.317 -2.8752 -0.5231  0.9578
  552MOL0     H74508   8.066   7.099   3.476  2.6551  1.4986  0.0257
  552MOL0     H74509   8.176   6.983   3.511 -0.8241  2.3055  0.5604
  552MOL0     H74510   7.977   6.893   3.594  4.6740  5.2445  0.6642
  552MOL0     H74511   8.016   6.797   3.456 -1.1520  0.3823 -0.9885
  552MOL0     H74512   7.875   6.981   3.314 -0.5068  1.5891 -0.4914
  552MOL0     H74513   7.797   6.998   3.469  0.8233 -0.3763  1.0344
  552MOL0     H74514   7.769   6.733   3.480 -2.4678 -0.7736  0.6056
  552MOL0     H74515   7.670   6.842   3.381  1.8809  4.7267 -3.0489
  552MOL0     H74516   7.884   6.650   3.069  1.4300  1.8210 -0.2530
  552MOL0     H74517   8.106   6.751   3.207  0.9741 -0.4591  1.3815
  552MOL0     H74518   8.318   6.548   3.030 -2.3635 -0.1273 -0.3333
  552MOL0     H74519   8.326   6.494   3.200  0.4811  0.7570  0.9664
  552MOL0     H74520   8.180   6.570   3.118 -0.6957  0.1589  2.4916
  553MOL0     O74521   7.126   0.915   9.948  0.1240 -0.1692  0.0233
  553MOL0     C74522   7.005   0.909   9.944 -0.2584  0.1529  0.3096
  553MOL0     O74523   6.926   0.859  10.039  0.1475 -0.6931 -0.0438
  553MOL0     C74524   6.982   0.783  10.142  0.5883 -0.4908  0.9940
  553MOL0     C74525   6.923   0.660  10.177  0.0698  0.1563 -0.1718
  553MOL0     C74526   6.983   0.575  10.275  0.6752 -0.9973  0.4287
  553MOL0     C74527   7.098   0.615  10.343 -0.4321 -0.4821 -0.2368
  553MOL0     O74528   7.170   0.529  10.418  0.7056 -0.4003 -0.4496
  553MOL0     C74529   7.141   0.386  10.437 -1.1986 -0.8575 -0.5846
  553MOL0     C74530   7.192   0.317  10.310  0.5806  0.2960 -0.4368
  553MOL0     C74531   7.111   0.181  10.289  0.2653  0.8993 -0.4735
  553MOL0     C74532   7.178   0.054  10.355 -0.3833  1.1335  0.7674
  553MOL0     C74533   7.078  -0.055  10.403  0.1845  1.3237 -0.0476
  553MOL0     C74534   7.164  -0.172  10.457 -1.0750  0.2492 -0.4104
  553MOL0     C74535   7.077  -0.284  10.516  0.1621  0.5493  1.5151
  553MOL0     C74536   7.159  -0.401  10.583  1.5701  0.2730  0.7281
  553MOL0     N74537   7.225  -0.371  10.710  0.4280 -0.0304  0.3630
  553MOL0     C74538   7.364  -0.333  10.735 -0.4541  0.8412 -0.4927
  553MOL0     C74539   7.377  -0.340  10.871 -0.2502 -0.2954  1.0203
  553MOL0     C74540   7.501  -0.322  10.962  0.2409  0.2547  1.0892
  553MOL0     C74541   7.580  -0.443  10.984 -0.4816  0.0303 -0.3529
  553MOL0     C74542   7.716  -0.417  11.055  0.7843  0.1023  0.7602
  553MOL0     C74543   7.806  -0.532  11.092 -0.3627 -0.6929  1.0288
  553MOL0     O74544   7.743  -0.633  11.174 -0.8256  0.2093  1.1918
  553MOL0     C74545   7.833  -0.703  11.247 -1.1348 -1.3109 -0.2504
  553MOL0     C74546   7.807  -0.729  11.385  0.1217 -0.5151  0.5819
  553MOL0     C74547   7.880  -0.814  11.463  0.3039 -0.7643 -0.2786
  553MOL0     C74548   7.996  -0.860  11.414  0.3204 -0.7127  0.5591
  553MOL0     C74549   8.065  -0.965  11.491  0.8147  0.6145  0.1956
  553MOL0     O74550   8.064  -0.955  11.629 -0.7399 -0.0474  0.1708
  553MOL0     C74551   8.127  -1.044  11.714  0.4780  0.5317 -0.6566
  553MOL0     C74552   8.091  -1.022  11.854  0.4941  0.1812  0.0970
  553MOL0     C74553   8.145  -1.099  11.954 -0.4363  0.4366  0.2962
  553MOL0     C74554   8.231  -1.207  11.922  1.0686 -0.1988  1.0340
  553MOL0     O74555   8.292  -1.284  12.015 -0.1970 -0.6616 -0.3205
  553MOL0     C74556   8.256  -1.293  12.152 -0.8191 -0.9601 -0.0054
  553MOL0     C74557   8.371  -1.351  12.232  0.2912  0.1725 -0.0309
  553MOL0     C74558   8.329  -1.413  12.370  0.0099 -0.5364  0.5399
  553MOL0     C74559   8.265  -1.306  12.456  0.5305 -0.8622  0.3918
  553MOL0     C74560   8.256  -1.349  12.599  0.9239 -0.4592  0.3230
  553MOL0     C74561   8.223  -1.226  12.694  0.2681  1.2998  0.7542
  553MOL0     C74562   8.224  -1.273  12.836 -0.2908 -0.8004 -0.0905
  553MOL0     C74563   8.122  -1.377  12.874 -0.1301  0.2851  0.5845
  553MOL0    Cl74564   8.094  -1.397  13.049 -0.2236  0.1424  0.2058
  553MOL0     C74565   8.258  -1.220  11.784 -0.3859 -0.2000 -0.4771
  553MOL0     C74566   8.221  -1.147  11.676  1.3640 -0.5625 -0.4503
  553MOL0     O74567   8.118  -1.048  11.422  0.1849  0.4586  0.0651
  553MOL0     C74568   8.038  -0.819  11.293 -0.0882 -0.8228  0.3551
  553MOL0     C74569   7.961  -0.744  11.206  0.8331 -0.0701  0.8953
  553MOL0     N74570   7.258  -0.381  10.922 -0.2021  0.6007 -0.7742
  553MOL0     N74571   7.169  -0.389  10.834  0.7711 -0.0743 -0.3186
  553MOL0     C74572   7.149   0.736  10.312  0.1881 -0.2769 -0.2356
  553MOL0     C74573   7.092   0.825  10.220 -0.4113  0.1098 -0.2192
  553MOL0     C74574   6.938   0.989   9.826  0.0136  1.0670 -0.0975
  553MOL0     C74575   7.007   0.977   9.703  0.3063  1.1458  0.5793
  553MOL0     C74576   6.949   1.029   9.585 -0.6904  0.8905 -0.3573
  553MOL0     C74577   6.823   1.096   9.587  0.3073 -0.0006 -0.6424
  553MOL0     O74578   6.779   1.170   9.477  0.1136  0.6921  0.2287
  553MOL0     C74579   6.836   1.300   9.475 -0.3438 -0.2969 -1.1968
  553MOL0     C74580   6.970   1.302   9.413 -0.1151  0.0862  0.7549
  553MOL0     C74581   6.952   1.254   9.260 -0.7023 -0.8765  0.1512
  553MOL0     C74582   7.081   1.268   9.176  1.1756  0.0476 -0.9208
  553MOL0     C74583   7.179   1.369   9.219 -0.0895  0.0139  0.7728
  553MOL0     C74584   7.248   1.462   9.249 -0.1454 -0.4533 -0.1717
  553MOL0     C74585   6.754   1.113   9.710 -1.1327  0.5719  0.4761
  553MOL0     C74586   6.819   1.061   9.829 -0.5002 -0.3586 -1.3937
  553MOL0     C74587   6.747   1.070   9.960 -0.5431 -0.2360  0.3021
  553MOL0     H74588   6.837   0.625  10.120  0.8926 -1.9728 -0.2195
  553MOL0     H74589   6.923   0.485  10.282 -0.4163 -0.3674 -0.5499
  553MOL0     H74590   7.209   0.358  10.518 -0.8983 -2.6970 -1.4192
  553MOL0     H74591   7.040   0.363  10.472 -0.9286 -0.6416  0.3845
  553MOL0     H74592   7.299   0.296  10.324  0.4829  1.0471  1.7681
  553MOL0     H74593   7.167   0.373  10.219  1.7394 -2.7446 -2.8215
  553MOL0     H74594   7.108   0.166  10.180  1.5331  4.5017 -1.1603
  553MOL0     H74595   7.014   0.188  10.338  0.4633  1.3559 -0.1461
  553MOL0     H74596   7.255   0.019  10.285 -1.3328  1.5848 -0.5400
  553MOL0     H74597   7.238   0.086  10.441 -0.5395  0.1093  1.2782
  553MOL0     H74598   7.020  -0.008  10.483 -1.2425 -2.1320  1.1422
  553MOL0     H74599   7.007  -0.105  10.336 -0.9930  0.2755  1.8804
  553MOL0     H74600   7.243  -0.208  10.390  1.0677  0.9307  1.6308
  553MOL0     H74601   7.216  -0.144  10.549 -2.7101 -1.7738  1.2377
  553MOL0     H74602   7.010  -0.322  10.438  1.8655  0.3430  0.0762
  553MOL0     H74603   7.015  -0.248  10.598 -1.1487 -2.1557  1.8142
  553MOL0     H74604   7.081  -0.476  10.594  0.5693  1.2185  0.2519
  553MOL0     H74605   7.242  -0.433  10.520  1.2640 -1.2485  1.0735
  553MOL0     H74606   7.444  -0.322  10.662 -0.4593 -0.5359 -0.7299
  553MOL0     H74607   7.550  -0.229  10.933  0.4013  0.2759  1.4162
  553MOL0     H74608   7.451  -0.296  11.056  0.0148 -1.3958  1.4665
  553MOL0     H74609   7.519  -0.512  11.042 -2.3651  1.7237 -0.2324
  553MOL0     H74610   7.600  -0.482  10.883  3.7180  1.2952 -0.2109
  553MOL0     H74611   7.694  -0.361  11.147 -2.7363 -1.4748  1.0379
  553MOL0     H74612   7.770  -0.348  10.989  1.7491 -1.7568 -0.4785
  553MOL0     H74613   7.893  -0.488  11.141  0.5240  1.3651 -2.1201
  553MOL0     H74614   7.851  -0.591  11.011 -0.3714 -0.4999  0.8822
  553MOL0     H74615   7.722  -0.681  11.432  0.4688 -0.8681  1.5889
  553MOL0     H74616   7.858  -0.825  11.569 -1.3254  2.6268 -0.1298
  553MOL0     H74617   8.026  -0.938  11.878 -1.6033 -2.0606  2.9148
  553MOL0     H74618   8.121  -1.075  12.057 -2.5288  0.5379 -0.1723
  553MOL0     H74619   8.234  -1.194  12.192  1.9272 -0.5209  0.6338
  553MOL0     H74620   8.173  -1.363  12.167 -0.2691 -1.8415 -0.8747
  553MOL0     H74621   8.423  -1.430  12.178 -1.4294  1.4546 -3.9287
  553MOL0     H74622   8.441  -1.270  12.251 -1.2264  2.0098 -1.8799
  553MOL0     H74623   8.260  -1.495  12.350 -1.4758  1.1434 -1.7340
  553MOL0     H74624   8.399  -1.474  12.429 -2.6297 -3.6260  0.7295
  553MOL0     H74625   8.173  -1.270  12.408 -0.2770  1.5099  3.3518
  553MOL0     H74626   8.330  -1.219  12.466 -2.5592  1.8540 -1.0697
  553MOL0     H74627   8.354  -1.384  12.633  0.2547 -1.8102  0.9310
  553MOL0     H74628   8.182  -1.429  12.596  2.3545 -1.8031 -1.1406
  553MOL0     H74629   8.297  -1.145  12.684  0.3875  1.5197  3.0014
  553MOL0     H74630   8.122  -1.195  12.668  0.0270 -0.9425 -1.3878
  553MOL0     H74631   8.222  -1.180  12.895  0.2056  1.3166 -3.1914
  553MOL0     H74632   8.319  -1.323  12.858 -1.2592 -2.3394  0.7080
  553MOL0     H74633   8.028  -1.346  12.828 -0.4488 -0.7349  0.5193
  553MOL0     H74634   8.154  -1.470  12.828  0.8845  1.0773 -0.3677
  553MOL0     H74635   8.324  -1.301  11.754 -0.3578  0.3149 -1.8549
  553MOL0     H74636   8.260  -1.171  11.578  1.4815 -0.9893 -0.2999
  553MOL0     H74637   8.137  -0.860  11.273 -1.2862 -3.5612 -0.3502
  553MOL0     H74638   7.999  -0.729  11.105  0.0192  1.0260  0.7282
  553MOL0     H74639   7.233   0.770  10.371  0.2182  0.7239 -0.8337
  553MOL0     H74640   7.141   0.919  10.194  0.3508 -0.6505 -1.7085
  553MOL0     H74641   7.093   0.910   9.707  0.2418  0.9661 -0.7719
  553MOL0     H74642   6.990   1.011   9.486  0.6346  0.1295  0.3145
  553MOL0     H74643   6.841   1.329   9.581 -1.0223 -3.6151 -0.1570
  553MOL0     H74644   6.759   1.358   9.422  0.1575 -0.4721 -2.1180
  553MOL0     H74645   7.056   1.258   9.463  2.9611  2.5181 -1.9734
  553MOL0     H74646   7.001   1.406   9.403 -0.0382 -0.0188 -0.2673
  553MOL0     H74647   6.879   1.320   9.210 -0.7777  0.5220  2.0139
  553MOL0     H74648   6.912   1.153   9.263 -3.2659  0.0167 -0.9409
  553MOL0     H74649   7.123   1.167   9.181 -1.2196 -1.0246 -0.8782
  553MOL0     H74650   7.040   1.275   9.075 -0.6485 -0.6880 -0.2726
  553MOL0     H74651   7.299   1.545   9.294  1.9431 -1.7099 -0.1154
  553MOL0     H74652   6.659   1.165   9.705  0.2449  3.2826  0.6155
  553MOL0     H74653   6.706   0.969   9.965 -0.3347 -0.5703 -2.7539
  553MOL0     H74654   6.808   1.101  10.045  0.8062 -1.5345 -0.1605
  553MOL0     H74655   6.657   1.131   9.951 -1.2093 -1.1150  0.9168
  554MOL0     O74656   3.432   9.869   1.486 -0.2227  0.3207 -0.4498
  554MOL0     C74657   3.372   9.950   1.550 -0.0492  0.3873 -0.5046
  554MOL0     O74658   3.237   9.968   1.559  1.0264  0.7420  0.3062
  554MOL0     C74659   3.159   9.870   1.511 -0.7969 -0.0654  1.0375
  554MOL0     C74660   3.122   9.878   1.377 -0.1492 -0.0711  0.4059
  554MOL0     C74661   3.042   9.775   1.319 -1.6400 -0.0566  0.3827
  554MOL0     C74662   3.014   9.664   1.396  0.6261 -0.0775  0.2375
  554MOL0     O74663   2.942   9.557   1.349  0.7109 -0.6330  0.2171
  554MOL0     C74664   2.813   9.543   1.407  1.6824 -0.7173 -0.4211
  554MOL0     C74665   2.700   9.498   1.307 -0.9881 -0.5022 -1.1077
  554MOL0     C74666   2.722   9.355   1.268 -0.3580  0.7522  0.1914
  554MOL0     C74667   2.604   9.276   1.217 -0.8795  0.5220 -0.4597
  554MOL0     C74668   2.626   9.139   1.176 -0.0468  1.5015  0.1395
  554MOL0     C74669   2.534   9.105   1.060  0.9814  1.0476  0.5002
  554MOL0     C74670   2.551   8.976   0.983  0.5637 -0.7592 -0.3663
  554MOL0     C74671   2.557   8.839   1.063  0.0879  0.3235 -0.1767
  554MOL0     N74672   2.686   8.795   1.097  0.1756  0.4921  0.0092
  554MOL0     C74673   2.789   8.769   1.007  0.3918  0.0953 -0.2310
  554MOL0     C74674   2.901   8.737   1.082  0.2909 -0.0019 -0.7159
  554MOL0     C74675   3.037   8.716   1.021  0.6551  0.3283 -0.4156
  554MOL0     C74676   3.062   8.565   1.008  0.1984 -0.5240 -0.3544
  554MOL0     C74677   2.956   8.502   0.916 -0.1713 -0.2948  0.0273
  554MOL0     C74678   2.978   8.350   0.912  0.0594  0.3285  0.2278
  554MOL0     O74679   3.105   8.327   0.850  0.4250 -0.0706  0.6575
  554MOL0     C74680   3.129   8.203   0.793  0.6105 -0.0790 -0.3103
  554MOL0     C74681   3.233   8.191   0.708 -0.7132 -0.1144  0.0213
  554MOL0     C74682   3.269   8.062   0.657  0.8353 -0.6171 -0.8326
  554MOL0     C74683   3.204   7.937   0.702  0.2684 -0.2613 -0.1541
  554MOL0     C74684   3.239   7.811   0.639  0.2801  0.2621  0.0866
  554MOL0     O74685   3.195   7.706   0.710  0.9893  0.6370  0.4689
  554MOL0     C74686   3.252   7.579   0.678 -0.5052  1.1325  0.8786
  554MOL0     C74687   3.326   7.511   0.777  0.0416  0.2799  0.1007
  554MOL0     C74688   3.388   7.387   0.744 -0.3837  0.2154 -0.1250
  554MOL0     C74689   3.370   7.333   0.612 -0.1588 -0.4734 -0.2549
  554MOL0     O74690   3.425   7.212   0.600 -0.1085 -0.3430 -0.0788
  554MOL0     C74691   3.403   7.126   0.484  0.6337  0.1432  0.2301
  554MOL0     C74692   3.491   6.993   0.489 -0.2046 -0.6568 -0.1045
  554MOL0     C74693   3.635   7.013   0.448 -0.1875  0.9451 -0.6826
  554MOL0     C74694   3.719   6.891   0.441  0.1662 -1.3873  0.4753
  554MOL0     C74695   3.843   6.904   0.361  0.0657  0.8220  0.1828
  554MOL0     C74696   3.930   7.021   0.413 -0.1309 -0.2891 -0.3612
  554MOL0     C74697   3.985   6.999   0.552  0.6722 -0.2058  1.0424
  554MOL0     C74698   4.112   6.922   0.556  1.0215 -0.1483 -0.8013
  554MOL0    Cl74699   4.145   6.940   0.744 -0.1976  0.1129  0.1025
  554MOL0     C74700   3.294   7.399   0.521 -0.3740  0.4027  0.2499
  554MOL0     C74701   3.244   7.523   0.547 -0.0018 -0.3113  0.1865
  554MOL0     O74702   3.284   7.806   0.529 -0.0784 -0.3850 -0.3623
  554MOL0     C74703   3.114   7.951   0.805  0.1281 -0.5173  0.5436
  554MOL0     C74704   3.071   8.083   0.843 -0.0052 -0.9898  0.5377
  554MOL0     N74705   2.868   8.756   1.217  0.8406 -0.3743 -0.1250
  554MOL0     N74706   2.746   8.791   1.219  0.2452 -0.1248  0.9244
  554MOL0     C74707   3.053   9.656   1.531  0.7608 -0.1118 -0.4301
  554MOL0     C74708   3.115   9.761   1.586 -0.5054 -0.6789 -0.3790
  554MOL0     C74709   3.463  10.054   1.617 -0.0535 -0.2098 -0.9147
  554MOL0     C74710   3.595  10.024   1.642 -0.4266 -0.5181 -0.6686
  554MOL0     C74711   3.684  10.118   1.692 -0.4575 -1.4488 -1.0169
  554MOL0     C74712   3.641  10.248   1.719 -0.3185 -0.7108  0.5860
  554MOL0     O74713   3.724  10.352   1.757  1.1675 -0.0514  0.7276
  554MOL0     C74714   3.849  10.334   1.814 -0.0587  0.0151  0.1369
  554MOL0     C74715   3.917  10.474   1.801  0.3447 -0.6970 -0.3150
  554MOL0     C74716   4.042  10.482   1.869 -0.5511  0.3213 -0.6141
  554MOL0     C74717   4.082  10.619   1.906  0.7370  0.1868  0.4355
  554MOL0     C74718   4.204  10.626   1.991  0.2378  0.3785  0.4845
  554MOL0     C74719   4.290  10.636   2.072 -0.2060 -0.0105 -0.5661
  554MOL0     C74720   3.507  10.278   1.710  0.4062  0.0214 -0.2414
  554MOL0     C74721   3.417  10.181   1.652 -0.9080 -0.5445  0.4025
  554MOL0     C74722   3.280  10.240   1.628 -0.3365 -0.1828  0.3194
  554MOL0     H74723   3.167   9.960   1.322 -0.5112 -0.6681 -0.8281
  554MOL0     H74724   3.012   9.776   1.214 -2.4158 -0.9396  0.5801
  554MOL0     H74725   2.821   9.489   1.502 -2.1077  0.5385  0.7981
  554MOL0     H74726   2.786   9.641   1.449  1.1512 -1.3175  0.6895
  554MOL0     H74727   2.706   9.561   1.218  1.7886  0.9349 -0.0196
  554MOL0     H74728   2.610   9.514   1.368  0.0415  1.2811  0.0326
  554MOL0     H74729   2.765   9.301   1.353  0.4426  3.7272  1.8462
  554MOL0     H74730   2.803   9.360   1.195  1.2741  0.3509  1.8901
  554MOL0     H74731   2.533   9.267   1.300 -1.1053 -1.7419 -0.8340
  554MOL0     H74732   2.551   9.340   1.146  1.8609  0.6010 -2.6312
  554MOL0     H74733   2.728   9.137   1.137 -0.7078  0.6283 -1.6265
  554MOL0     H74734   2.608   9.073   1.262 -1.7094 -1.6922 -2.4623
  554MOL0     H74735   2.433   9.121   1.097 -0.6561  4.0069 -4.3388
  554MOL0     H74736   2.545   9.178   0.979  0.4913  0.5363 -0.0420
  554MOL0     H74737   2.625   8.990   0.904 -3.4194  1.7906 -4.0815
  554MOL0     H74738   2.457   8.966   0.928  0.3917 -0.4610 -0.1291
  554MOL0     H74739   2.496   8.854   1.152  0.9256 -0.4253  0.5477
  554MOL0     H74740   2.510   8.756   1.010 -0.8947 -0.0451  1.1959
  554MOL0     H74741   2.772   8.787   0.902 -2.4923  0.4877  0.2102
  554MOL0     H74742   3.041   8.764   0.922  1.6391 -0.9565 -1.0267
  554MOL0     H74743   3.113   8.757   1.089  1.9883 -0.6759 -1.2404
  554MOL0     H74744   3.159   8.570   0.957  0.6823  1.4707  0.6233
  554MOL0     H74745   3.082   8.522   1.107 -1.7053  3.3890  1.9717
  554MOL0     H74746   2.970   8.548   0.818  1.2160  1.7078  1.0892
  554MOL0     H74747   2.857   8.519   0.960  0.9312  2.1557  1.8355
  554MOL0     H74748   2.902   8.312   0.843  1.3296 -0.1797 -0.9427
  554MOL0     H74749   2.972   8.310   1.013  0.4421 -0.1155  0.0775
  554MOL0     H74750   3.278   8.286   0.681 -0.9463  0.4345  1.4589
  554MOL0     H74751   3.356   8.061   0.592  2.1794  3.9308  0.5463
  554MOL0     H74752   3.312   7.549   0.878  2.2701  0.4446  0.3893
  554MOL0     H74753   3.468   7.343   0.801 -0.7922  0.5491  0.7304
  554MOL0     H74754   3.299   7.093   0.484  1.0652 -1.4203  2.2895
  554MOL0     H74755   3.421   7.163   0.383 -1.1234 -1.3995 -0.7030
  554MOL0     H74756   3.486   6.959   0.593 -1.0185  2.8647  1.1430
  554MOL0     H74757   3.443   6.923   0.420  2.0280 -1.2344 -1.1856
  554MOL0     H74758   3.628   7.056   0.347 -2.8245  0.0567 -0.9493
  554MOL0     H74759   3.689   7.067   0.527  1.3174 -1.2259 -0.1481
  554MOL0     H74760   3.663   6.814   0.386 -0.0835 -0.8471 -0.0427
  554MOL0     H74761   3.734   6.863   0.545  2.5501 -0.6957  0.3777
  554MOL0     H74762   3.832   6.933   0.256 -0.0956 -2.2183 -0.7251
  554MOL0     H74763   3.889   6.805   0.361 -0.0319  0.7577 -1.0344
  554MOL0     H74764   4.012   7.047   0.346  1.1135  0.4688  1.3730
  554MOL0     H74765   3.865   7.108   0.426 -1.2677 -0.7028 -2.6929
  554MOL0     H74766   3.914   6.961   0.626  1.1318  0.0820  1.6370
  554MOL0     H74767   4.017   7.097   0.589 -0.6967  1.7017 -2.2836
  554MOL0     H74768   4.096   6.819   0.524 -1.5301  0.0586 -0.3681
  554MOL0     H74769   4.199   6.967   0.508  0.0543  2.9650  0.1475
  554MOL0     H74770   3.291   7.362   0.419 -0.1069 -3.0480  1.3900
  554MOL0     H74771   3.168   7.565   0.483 -0.3455  1.4926  1.6748
  554MOL0     H74772   3.048   7.873   0.842 -1.5756  1.6686  2.4188
  554MOL0     H74773   3.010   8.082   0.933 -1.1068 -2.2925 -0.1860
  554MOL0     H74774   3.029   9.565   1.585  0.7057  0.9249  1.3845
  554MOL0     H74775   3.151   9.763   1.688  0.0479 -1.1318 -0.5585
  554MOL0     H74776   3.640   9.926   1.631 -2.6062 -1.5512 -0.7961
  554MOL0     H74777   3.784  10.080   1.712  0.1127  1.0996  1.5604
  554MOL0     H74778   3.905  10.267   1.747  1.9233 -1.8624  3.3868
  554MOL0     H74779   3.852  10.287   1.912  0.1001  1.4291  0.8322
  554MOL0     H74780   3.840  10.539   1.843  0.3835 -1.7083  1.4356
  554MOL0     H74781   3.932  10.501   1.696 -1.5193  0.0989 -0.4096
  554MOL0     H74782   4.125  10.436   1.813 -0.4830 -3.4412  2.1484
  554MOL0     H74783   4.049  10.420   1.959  2.3437  1.5605  0.1519
  554MOL0     H74784   4.093  10.680   1.816 -5.9706 -2.0772 -2.5200
  554MOL0     H74785   4.000  10.649   1.972  0.9279  2.6332 -0.3591
  554MOL0     H74786   4.366  10.641   2.147  0.0581 -3.0451 -0.5133
  554MOL0     H74787   3.462  10.369   1.747 -0.0507 -1.0488  2.0295
  554MOL0     H74788   3.251  10.317   1.700 -3.2078  0.9369 -1.8401
  554MOL0     H74789   3.272  10.288   1.530 -1.2500 -3.5770 -1.4299
  554MOL0     H74790   3.199  10.166   1.634  0.3756 -1.1593 -1.4028
  555MOL0     O74791  10.105   0.276   1.145 -0.6046  0.3720  0.3793
  555MOL0     C74792   9.986   0.292   1.144  0.3850 -0.1980  0.4428
  555MOL0     O74793   9.914   0.315   1.027  0.2333 -0.8337 -0.3314
  555MOL0     C74794   9.951   0.247   0.912 -0.2226 -0.2834  0.0357
  555MOL0     C74795  10.008   0.121   0.908  0.1004  0.3871  0.5857
  555MOL0     C74796  10.027   0.067   0.779 -0.3733 -0.3344  0.5693
  555MOL0     C74797  10.009   0.140   0.656  1.0341  0.2364  0.0949
  555MOL0     O74798  10.047   0.082   0.541  0.1000  0.4176  0.3351
  555MOL0     C74799   9.986   0.105   0.412 -0.7134  0.1172 -0.9721
  555MOL0     C74800  10.058   0.038   0.298 -0.5420 -0.4050 -1.2681
  555MOL0     C74801   9.967   0.056   0.177  0.2959  1.1202 -0.5274
  555MOL0     C74802  10.042   0.023   0.048 -0.4334 -0.6122  0.4452
  555MOL0     C74803   9.948   0.030  -0.073 -0.3393 -0.2265 -0.5012
  555MOL0     C74804   9.827  -0.073  -0.082 -0.5546 -0.2040 -0.0569
  555MOL0     C74805   9.733  -0.064  -0.198  0.0609 -0.1808 -0.5544
  555MOL0     C74806   9.785  -0.105  -0.335 -0.1956 -0.0846  1.0502
  555MOL0     N74807   9.808  -0.250  -0.342  0.6600 -0.3643  0.2364
  555MOL0     C74808   9.703  -0.349  -0.336 -0.5069 -0.2890  0.1325
  555MOL0     C74809   9.765  -0.466  -0.318  0.9103 -0.3227  0.2842
  555MOL0     C74810   9.693  -0.593  -0.289  0.4735 -0.1861  0.2255
  555MOL0     C74811   9.622  -0.588  -0.153 -0.3043  0.0551  1.1037
  555MOL0     C74812   9.728  -0.563  -0.047  0.4609 -0.1146 -1.0447
  555MOL0     C74813   9.669  -0.597   0.094 -0.5592  0.5487  0.3077
  555MOL0     O74814   9.529  -0.620   0.099  0.4472  0.2008 -0.1738
  555MOL0     C74815   9.466  -0.678   0.207 -1.0094  0.4513  0.0311
  555MOL0     C74816   9.327  -0.678   0.211 -0.3310  0.2345  0.1895
  555MOL0     C74817   9.261  -0.729   0.329 -0.4747  0.0224 -0.3713
  555MOL0     C74818   9.328  -0.775   0.444  0.1993  0.0411 -0.8760
  555MOL0     C74819   9.256  -0.813   0.570 -1.5339 -0.6209 -0.0155
  555MOL0     O74820   9.125  -0.810   0.572  0.2119  0.2587 -0.0651
  555MOL0     C74821   9.061  -0.862   0.672 -0.1002  0.9873 -0.1586
  555MOL0     C74822   9.034  -0.998   0.676 -0.7106 -0.3634 -0.2434
  555MOL0     C74823   8.935  -1.046   0.765 -0.9395  0.1154  0.1797
  555MOL0     C74824   8.861  -0.962   0.851  0.6471 -0.1532 -0.5643
  555MOL0     O74825   8.762  -0.999   0.940 -0.9478  0.0829 -0.5373
  555MOL0     C74826   8.744  -1.143   0.976 -0.1231 -0.5098  0.3706
  555MOL0     C74827   8.653  -1.173   1.097  0.5395 -0.1242 -0.4176
  555MOL0     C74828   8.695  -1.096   1.216 -0.5018 -0.4308 -1.0481
  555MOL0     C74829   8.584  -1.100   1.317  0.5387  0.0178 -0.5839
  555MOL0     C74830   8.623  -1.040   1.455  0.8703 -0.3687  0.0440
  555MOL0     C74831   8.665  -0.891   1.452  0.4564  0.0855 -0.1429
  555MOL0     C74832   8.648  -0.832   1.592  0.8696 -0.7159  0.4235
  555MOL0     C74833   8.741  -0.706   1.593  0.3148  0.0532 -0.2597
  555MOL0    Cl74834   8.732  -0.642   1.763  0.0161 -0.5980  0.5163
  555MOL0     C74835   8.892  -0.826   0.847  0.6546  0.3191  0.2417
  555MOL0     C74836   8.990  -0.777   0.769 -0.0953  0.7495 -0.3683
  555MOL0     O74837   9.336  -0.840   0.662 -0.2712 -0.6582 -0.7950
  555MOL0     C74838   9.466  -0.761   0.438  0.0078  0.4774 -0.7361
  555MOL0     C74839   9.535  -0.720   0.323 -0.7988 -0.8626  0.1644
  555MOL0     N74840   9.897  -0.436  -0.304 -0.1465  0.4937  0.2798
  555MOL0     N74841   9.927  -0.310  -0.315 -0.3302  0.3984 -0.0257
  555MOL0     C74842   9.964   0.275   0.670  0.6111  0.2971  0.0046
  555MOL0     C74843   9.922   0.326   0.794 -0.5221 -0.3473  0.8008
  555MOL0     C74844   9.911   0.305   1.280  0.7956 -1.0323 -0.4553
  555MOL0     C74845   9.995   0.308   1.389  0.1958 -0.9454 -0.9201
  555MOL0     C74846   9.942   0.316   1.519 -0.7452 -0.0573  0.0220
  555MOL0     C74847   9.814   0.348   1.542  0.0963 -0.4433  1.1219
  555MOL0     O74848   9.776   0.383   1.668  0.6271  0.8451  0.4826
  555MOL0     C74849   9.764   0.276   1.766 -0.3111  0.3449  0.1875
  555MOL0     C74850   9.664   0.167   1.725 -0.4944 -0.6242  0.4476
  555MOL0     C74851   9.613   0.078   1.838 -0.8300  0.1672  0.1986
  555MOL0     C74852   9.725  -0.025   1.878 -0.3718  1.0706 -0.1668
  555MOL0     C74853   9.677  -0.128   1.973 -0.0937 -0.4735  0.4170
  555MOL0     C74854   9.640  -0.216   2.042  0.6408 -0.4501  0.4386
  555MOL0     C74855   9.726   0.362   1.430 -0.3633 -0.5096 -0.1547
  555MOL0     C74856   9.764   0.327   1.301 -0.4699 -0.2070  0.0315
  555MOL0     C74857   9.672   0.329   1.186  0.2073 -0.2118  0.1812
  555MOL0     H74858  10.025   0.065   1.000  2.9383  3.2987  2.0104
  555MOL0     H74859  10.076  -0.028   0.762 -0.1911 -0.3732  1.2895
  555MOL0     H74860   9.883   0.069   0.421 -1.0763  1.5728  1.6559
  555MOL0     H74861   9.990   0.214   0.406  0.5247  0.2408  1.0528
  555MOL0     H74862  10.059  -0.071   0.306  1.0057 -0.2936  1.0652
  555MOL0     H74863  10.161   0.073   0.307  0.0032 -2.3267  0.7877
  555MOL0     H74864   9.932   0.158   0.159  1.7604  1.9384  1.0173
  555MOL0     H74865   9.884  -0.010   0.202  1.9389 -0.1836  1.8504
  555MOL0     H74866  10.122   0.097   0.038  0.0815 -1.2763 -0.4825
  555MOL0     H74867  10.084  -0.078   0.045 -0.8361 -0.8203  1.2979
  555MOL0     H74868   9.910   0.130  -0.094 -0.3038  0.4921  2.4590
  555MOL0     H74869  10.023   0.020  -0.152 -0.4800  0.3062 -0.7036
  555MOL0     H74870   9.859  -0.177  -0.073  0.1117  0.1630  3.0249
  555MOL0     H74871   9.756  -0.056  -0.001 -1.0609 -1.4460 -0.2150
  555MOL0     H74872   9.705   0.041  -0.210  0.5831 -0.0757 -0.9337
  555MOL0     H74873   9.642  -0.122  -0.186  1.2261 -1.8164  0.8832
  555MOL0     H74874   9.712  -0.074  -0.411 -1.3583  1.5699  2.7711
  555MOL0     H74875   9.884  -0.062  -0.355 -0.5250  0.2395  0.0231
  555MOL0     H74876   9.598  -0.324  -0.337 -0.5720  0.0237  3.3760
  555MOL0     H74877   9.627  -0.615  -0.374  2.3026  1.3873 -1.7075
  555MOL0     H74878   9.764  -0.677  -0.294 -0.2031 -0.7965  0.6663
  555MOL0     H74879   9.541  -0.514  -0.153 -0.1822  0.2251 -0.3890
  555MOL0     H74880   9.577  -0.686  -0.132  0.5665 -0.1254  2.1910
  555MOL0     H74881   9.751  -0.457  -0.060  0.3981 -0.0561 -0.6949
  555MOL0     H74882   9.824  -0.612  -0.065 -0.1994 -0.1965 -5.2913
  555MOL0     H74883   9.694  -0.521   0.169  2.3602  0.9295 -0.9079
  555MOL0     H74884   9.714  -0.690   0.131 -1.7586  1.3094  4.0693
  555MOL0     H74885   9.268  -0.633   0.131 -0.5182 -1.5900 -0.7487
  555MOL0     H74886   9.152  -0.729   0.322 -0.5874 -0.3963  1.0776
  555MOL0     H74887   9.087  -1.061   0.604  1.3391 -0.3169  1.1379
  555MOL0     H74888   8.925  -1.152   0.781  3.7397 -0.2970  1.6858
  555MOL0     H74889   8.704  -1.198   0.890 -1.2621  2.3920 -1.0562
  555MOL0     H74890   8.837  -1.196   0.998 -1.3212 -1.9664  2.3758
  555MOL0     H74891   8.549  -1.160   1.064 -0.3210 -4.2010  0.0923
  555MOL0     H74892   8.653  -1.278   1.127 -2.5546  0.0499  0.6469
  555MOL0     H74893   8.788  -1.136   1.256 -1.5049 -0.2971  1.6356
  555MOL0     H74894   8.705  -0.992   1.184 -3.1378  0.4908  0.7228
  555MOL0     H74895   8.564  -1.205   1.341 -0.0121  0.7588  2.6415
  555MOL0     H74896   8.496  -1.051   1.275 -0.3486 -2.6316 -2.0493
  555MOL0     H74897   8.706  -1.101   1.492  1.8648  0.7946 -0.2057
  555MOL0     H74898   8.533  -1.055   1.515  2.1257 -2.7435  1.4881
  555MOL0     H74899   8.770  -0.873   1.428  0.6624 -1.9568 -1.0462
  555MOL0     H74900   8.602  -0.848   1.374 -0.6539 -1.8277 -0.3683
  555MOL0     H74901   8.675  -0.893   1.678 -0.4500 -0.5688  0.9631
  555MOL0     H74902   8.542  -0.815   1.610  0.9193 -0.3159  0.3555
  555MOL0     H74903   8.846  -0.734   1.581  0.7226  0.5866  1.6608
  555MOL0     H74904   8.710  -0.627   1.525  2.6625  0.4898 -0.9089
  555MOL0     H74905   8.849  -0.750   0.912 -2.8799 -1.8612  0.7538
  555MOL0     H74906   9.007  -0.670   0.764 -0.9681  0.8903 -0.3909
  555MOL0     H74907   9.526  -0.789   0.524 -2.4583  3.7142  2.3433
  555MOL0     H74908   9.643  -0.720   0.334 -0.8649 -0.4861  0.9008
  555MOL0     H74909   9.951   0.333   0.580  1.1354  1.2915  0.5559
  555MOL0     H74910   9.887   0.428   0.809 -0.5755 -0.2772  0.2090
  555MOL0     H74911  10.103   0.300   1.382  0.3434  1.4576 -2.6781
  555MOL0     H74912  10.017   0.304   1.597 -0.7427 -4.2350 -0.3712
  555MOL0     H74913   9.723   0.310   1.862 -0.6963 -2.4956  1.1274
  555MOL0     H74914   9.861   0.230   1.784 -0.1764  1.2450  2.1055
  555MOL0     H74915   9.721   0.104   1.656  1.8556 -0.9685  2.5353
  555MOL0     H74916   9.579   0.215   1.675  1.5526  3.2025  0.3239
  555MOL0     H74917   9.525   0.021   1.805  0.8120 -2.5424  0.2458
  555MOL0     H74918   9.603   0.130   1.933  1.0736  0.0204  0.5127
  555MOL0     H74919   9.781  -0.067   1.794 -0.4735  0.3835  0.0961
  555MOL0     H74920   9.806   0.028   1.930 -1.0792 -0.0307  2.2206
  555MOL0     H74921   9.607  -0.298   2.103 -2.0241 -2.4797 -3.2969
  555MOL0     H74922   9.625   0.400   1.446 -0.3950 -0.6075 -0.1207
  555MOL0     H74923   9.573   0.349   1.227  0.3268  0.7027  0.0660
  555MOL0     H74924   9.699   0.417   1.126  0.8053 -0.8838 -0.5429
  555MOL0     H74925   9.684   0.243   1.119  0.3832 -0.8480  1.0177
  556MOL0     O74926   5.415  10.837   7.556 -0.3488  0.2664  0.4713
  556MOL0     C74927   5.330  10.872   7.476 -0.2913 -1.1990 -0.4047
  556MOL0     O74928   5.247  10.792   7.411  0.3213  0.6800 -0.0053
  556MOL0     C74929   5.256  10.662   7.415  0.1915 -0.3032 -0.1422
  556MOL0     C74930   5.144  10.596   7.368  0.4221 -0.3953 -0.8382
  556MOL0     C74931   5.136  10.456   7.354 -0.2941 -0.5659  0.0321
  556MOL0     C74932   5.248  10.385   7.395 -0.8860  0.3457 -1.0201
  556MOL0     O74933   5.255  10.248   7.399  0.1948 -0.4152 -0.6433
  556MOL0     C74934   5.285  10.187   7.268 -0.8694  0.8389  0.2202
  556MOL0     C74935   5.436  10.183   7.229  0.2617  0.5132  0.2365
  556MOL0     C74936   5.521  10.079   7.306 -0.9171  0.1300 -0.1970
  556MOL0     C74937   5.538  10.104   7.460 -0.7020 -0.2732  0.7197
  556MOL0     C74938   5.562   9.968   7.543 -1.2382  0.2073  0.2002
  556MOL0     C74939   5.432   9.881   7.566  0.1351  0.9539  0.2845
  556MOL0     C74940   5.464   9.745   7.631 -0.0503  0.1543  0.6940
  556MOL0     C74941   5.557   9.656   7.545  0.3357  0.3055 -0.2313
  556MOL0     N74942   5.603   9.539   7.617 -0.4898  0.5045 -0.0608
  556MOL0     C74943   5.709   9.514   7.696 -0.2797 -0.0754 -0.1081
  556MOL0     C74944   5.709   9.379   7.722 -1.3266  0.0104  0.3408
  556MOL0     C74945   5.798   9.281   7.794 -0.8858 -0.3772  0.1721
  556MOL0     C74946   5.875   9.346   7.901  0.2192  0.0544 -0.7678
  556MOL0     C74947   5.935   9.251   8.004  0.4484 -0.0385 -0.1881
  556MOL0     C74948   5.864   9.258   8.136  0.1785 -0.7608  0.1412
  556MOL0     O74949   5.869   9.393   8.196 -0.1802  0.7903  0.1778
  556MOL0     C74950   5.824   9.399   8.327 -0.2104 -0.3768 -0.2274
  556MOL0     C74951   5.869   9.503   8.418 -0.6054  1.4915 -0.3623
  556MOL0     C74952   5.834   9.495   8.563  0.0322 -1.0714  0.1672
  556MOL0     C74953   5.759   9.392   8.621  0.0045  0.1497  0.1216
  556MOL0     C74954   5.703   9.411   8.760  0.6377  1.7056  0.2269
  556MOL0     O74955   5.739   9.522   8.831  0.1174  0.1019 -0.7605
  556MOL0     C74956   5.722   9.521   8.970 -0.4946  0.1073 -0.5451
  556MOL0     C74957   5.666   9.641   9.027  0.3030  0.1192 -0.6529
  556MOL0     C74958   5.658   9.647   9.165 -0.0757  0.3469 -0.5671
  556MOL0     C74959   5.708   9.548   9.255 -0.4002  0.4935 -0.1313
  556MOL0     O74960   5.706   9.535   9.394 -0.2534  0.9145 -0.3098
  556MOL0     C74961   5.672   9.649   9.475 -0.7107 -0.4072 -0.2602
  556MOL0     C74962   5.532   9.627   9.523  1.4187  0.2377  0.0952
  556MOL0     C74963   5.526   9.538   9.646  0.3852 -0.0481  0.5856
  556MOL0     C74964   5.554   9.607   9.780  0.1719  0.3718  0.5543
  556MOL0     C74965   5.584   9.504   9.886  0.4054  0.0483 -0.2632
  556MOL0     C74966   5.723   9.438   9.877  0.6966 -0.1809 -0.1909
  556MOL0     C74967   5.749   9.346  10.006 -0.1819 -0.6818  0.6859
  556MOL0     C74968   5.891   9.282  10.013  0.3849 -0.9479 -0.4379
  556MOL0    Cl74969   5.931   9.157  10.137  0.5246 -0.0273  0.0550
  556MOL0     C74970   5.749   9.423   9.200  1.2492 -0.0338 -0.0305
  556MOL0     C74971   5.768   9.419   9.063  0.6721 -0.8220 -0.0756
  556MOL0     O74972   5.611   9.328   8.792  0.3242 -0.7062  0.3855
  556MOL0     C74973   5.716   9.293   8.535  0.3051 -0.2855  0.3986
  556MOL0     C74974   5.756   9.292   8.398 -0.2164  0.2441  0.5309
  556MOL0     N74975   5.594   9.324   7.658 -0.2125 -0.2659 -0.0869
  556MOL0     N74976   5.531   9.416   7.602  0.5824 -0.3448 -0.5715
  556MOL0     C74977   5.364  10.448   7.432 -0.1453  0.3798  0.1810
  556MOL0     C74978   5.369  10.583   7.444 -0.6107 -0.9230 -0.0465
  556MOL0     C74979   5.297  11.019   7.473  0.1026 -0.2052 -0.5040
  556MOL0     C74980   5.170  11.054   7.437 -0.4439 -0.0777 -0.6762
  556MOL0     C74981   5.133  11.189   7.428 -0.3079 -0.1366  0.5366
  556MOL0     C74982   5.224  11.291   7.432 -1.2247  0.2116 -0.0248
  556MOL0     O74983   5.179  11.419   7.428 -0.2397 -0.2548  1.0680
  556MOL0     C74984   5.240  11.504   7.538 -0.2363  0.6691  0.4451
  556MOL0     C74985   5.138  11.612   7.578 -0.6080  0.5660  0.2864
  556MOL0     C74986   5.031  11.554   7.664  0.7016  0.2698  0.3824
  556MOL0     C74987   4.906  11.660   7.661 -0.0188 -0.1965 -0.4503
  556MOL0     C74988   4.947  11.799   7.675  0.0521 -1.0484  0.7369
  556MOL0     C74989   4.981  11.914   7.665 -0.2550  0.1023 -0.5424
  556MOL0     C74990   5.349  11.265   7.466 -0.5331 -0.3617 -0.2503
  556MOL0     C74991   5.397  11.130   7.483  0.3877  0.1431 -1.0148
  556MOL0     C74992   5.541  11.119   7.517 -0.1490  0.3444  0.1189
  556MOL0     H74993   5.056  10.654   7.341 -0.5901 -1.7699 -0.5675
  556MOL0     H74994   5.041  10.408   7.338 -2.0500  1.1231  3.9644
  556MOL0     H74995   5.247  10.085   7.272  0.1707  0.4651  2.8451
  556MOL0     H74996   5.234  10.243   7.189  1.0896  2.0127 -0.2914
  556MOL0     H74997   5.462  10.288   7.245 -3.4511  1.7549 -0.7039
  556MOL0     H74998   5.457  10.173   7.122 -2.4598  0.9105 -0.4119
  556MOL0     H74999   5.624  10.071   7.272  0.1443 -0.7218  2.9423
  556MOL0     H75000   5.476   9.983   7.277 -1.1065  0.9980 -3.1904
  556MOL0     H75001   5.626  10.167   7.476 -1.2141  0.8855 -0.7749
  556MOL0     H75002   5.449  10.154   7.498 -1.7353 -0.9333 -0.7346
  556MOL0     H75003   5.636   9.905   7.494 -1.9197  0.2401 -0.9071
  556MOL0     H75004   5.596   9.996   7.643 -0.7948  1.3123 -0.2420
  556MOL0     H75005   5.359   9.932   7.631 -0.5279  1.2026 -0.6293
  556MOL0     H75006   5.383   9.866   7.470  0.0420  1.7480  0.2004
  556MOL0     H75007   5.369   9.690   7.635 -1.7020  2.6482 -0.8918
  556MOL0     H75008   5.512   9.762   7.728  0.5368  0.1663  0.4051
  556MOL0     H75009   5.489   9.632   7.463 -2.0042  0.7921  1.4625
  556MOL0     H75010   5.650   9.696   7.505  0.0785  0.8910 -0.2445
  556MOL0     H75011   5.781   9.591   7.719 -0.3125  0.3267 -1.2969
  556MOL0     H75012   5.733   9.214   7.849  0.2605 -2.6953 -1.1627
  556MOL0     H75013   5.861   9.214   7.735  1.8003 -0.2798  2.7112
  556MOL0     H75014   5.953   9.411   7.860  1.7538 -1.7321 -0.7695
  556MOL0     H75015   5.807   9.415   7.952  0.0801  0.0530 -0.9515
  556MOL0     H75016   6.038   9.284   8.023  1.3772 -2.0755 -1.4047
  556MOL0     H75017   5.926   9.147   7.973 -1.8213  0.6664 -2.2359
  556MOL0     H75018   5.922   9.198   8.207  4.9928  0.1760 -2.5460
  556MOL0     H75019   5.758   9.235   8.120 -0.2760  0.8198  0.7398
  556MOL0     H75020   5.918   9.586   8.367  0.1311  0.1862 -1.8453
  556MOL0     H75021   5.863   9.583   8.620 -0.5776 -1.5616  1.2619
  556MOL0     H75022   5.616   9.717   8.969 -2.0901  1.1392  2.4369
  556MOL0     H75023   5.593   9.729   9.195 -1.2735  0.2133 -2.5729
  556MOL0     H75024   5.742   9.653   9.559 -0.1001  0.1311 -0.7826
  556MOL0     H75025   5.667   9.743   9.420 -4.9040 -0.7111 -0.6897
  556MOL0     H75026   5.475   9.718   9.548 -0.2697 -1.1833  1.7416
  556MOL0     H75027   5.470   9.587   9.442  0.9738 -1.3889  1.1913
  556MOL0     H75028   5.429   9.489   9.655  0.6860 -0.2510  4.6624
  556MOL0     H75029   5.593   9.451   9.641 -1.0112 -1.3089  2.3099
  556MOL0     H75030   5.457   9.654   9.799 -0.9209 -1.4635 -0.1574
  556MOL0     H75031   5.636   9.677   9.767  1.8284 -1.3547  1.1435
  556MOL0     H75032   5.516   9.419   9.886  1.9380 -1.2459 -1.8193
  556MOL0     H75033   5.570   9.557   9.981 -1.8071 -0.9553  0.0365
  556MOL0     H75034   5.723   9.380   9.784 -0.0997 -2.0655  0.9454
  556MOL0     H75035   5.792   9.523   9.872 -1.7430  1.8567 -1.1772
  556MOL0     H75036   5.678   9.263  10.003 -1.6242  0.5354 -0.7991
  556MOL0     H75037   5.731   9.412  10.091 -0.3972  1.4087 -0.9157
  556MOL0     H75038   5.925   9.233   9.921  0.3209  1.1080 -1.6159
  556MOL0     H75039   5.964   9.363  10.015  1.6587 -2.0647  0.1516
  556MOL0     H75040   5.776   9.343   9.267 -2.6326 -1.7033 -0.1648
  556MOL0     H75041   5.822   9.331   9.029  2.0593 -1.0375  2.4022
  556MOL0     H75042   5.648   9.213   8.564 -1.4311 -0.1561 -2.8198
  556MOL0     H75043   5.722   9.206   8.342 -3.7632  0.0695  2.6256
  556MOL0     H75044   5.451  10.383   7.434 -1.5993 -1.7702 -1.5931
  556MOL0     H75045   5.475  10.609   7.452 -1.0255  0.8558  0.2134
  556MOL0     H75046   5.093  10.980   7.418 -4.0588  2.6263  1.9328
  556MOL0     H75047   5.026  11.205   7.412  0.1370  1.4279 -1.3102
  556MOL0     H75048   5.333  11.552   7.506  1.1456 -1.2399  1.3343
  556MOL0     H75049   5.267  11.453   7.631 -0.2913 -0.5311 -0.1708
  556MOL0     H75050   5.097  11.663   7.491  0.3138 -0.2908 -0.6796
  556MOL0     H75051   5.188  11.689   7.637  1.3176 -0.7776  0.5334
  556MOL0     H75052   5.081  11.525   7.757  0.6454 -3.5169 -0.6011
  556MOL0     H75053   4.996  11.466   7.609  1.5989  2.3020 -3.9160
  556MOL0     H75054   4.853  11.660   7.566 -0.8513  2.9477 -0.0986
  556MOL0     H75055   4.833  11.639   7.740 -0.0966  0.6023 -0.3031
  556MOL0     H75056   5.010  12.017   7.662 -0.4106  0.2923  2.2144
  556MOL0     H75057   5.429  11.338   7.478 -0.0187 -0.9416 -0.1127
  556MOL0     H75058   5.562  11.077   7.616 -1.1110  1.6940  0.9246
  556MOL0     H75059   5.590  11.051   7.446 -1.4523 -3.2651  2.4064
  556MOL0     H75060   5.600  11.211   7.523  1.9035 -0.9632  5.1644
  557MOL0     O75061  10.037   9.152   3.627  0.3435  0.4654  0.3896
  557MOL0     C75062  10.075   9.251   3.693 -0.0534 -0.2741  0.4532
  557MOL0     O75063   9.997   9.343   3.751 -0.4908  0.3515  0.6394
  557MOL0     C75064   9.861   9.350   3.721 -0.4695  0.4447 -0.2493
  557MOL0     C75065   9.804   9.320   3.593  0.6505  0.4748 -0.0720
  557MOL0     C75066   9.661   9.327   3.578 -0.9749  1.0773  0.1279
  557MOL0     C75067   9.577   9.352   3.681 -0.3687  0.2682  0.1093
  557MOL0     O75068   9.445   9.368   3.672  0.3010  0.3471 -1.0213
  557MOL0     C75069   9.385   9.341   3.554  0.2661  0.2395 -1.9475
  557MOL0     C75070   9.349   9.188   3.553 -0.0391  0.8445  0.6371
  557MOL0     C75071   9.235   9.140   3.639  0.2203 -0.3549 -0.3777
  557MOL0     C75072   9.101   9.192   3.576 -0.0428 -0.3398 -0.1641
  557MOL0     C75073   8.973   9.127   3.642  0.5270 -0.0340 -0.0194
  557MOL0     C75074   8.853   9.199   3.569  0.2030  0.0892  0.6965
  557MOL0     C75075   8.724   9.155   3.640 -0.0745  0.1702 -0.5361
  557MOL0     C75076   8.707   9.225   3.775 -0.3723  0.0442 -0.1021
  557MOL0     N75077   8.567   9.212   3.816  0.7662 -0.2907  0.6199
  557MOL0     C75078   8.492   9.100   3.837  0.0516 -0.4669 -0.6735
  557MOL0     C75079   8.368   9.147   3.868  0.1886 -0.0775 -0.4816
  557MOL0     C75080   8.246   9.076   3.927 -1.1499  0.2624 -0.7021
  557MOL0     C75081   8.175   9.158   4.040 -0.1287 -0.4792 -0.3316
  557MOL0     C75082   8.028   9.147   4.038  0.8782 -0.1725  0.3478
  557MOL0     C75083   7.964   9.235   3.926  0.1778  0.4591 -0.4043
  557MOL0     O75084   7.826   9.214   3.928  0.0794  0.2105  0.0861
  557MOL0     C75085   7.771   9.226   3.806  0.5826 -0.6133  0.2122
  557MOL0     C75086   7.740   9.344   3.736  0.4582  0.4578 -0.7466
  557MOL0     C75087   7.684   9.347   3.608 -0.6434 -0.0070 -0.6329
  557MOL0     C75088   7.645   9.219   3.554  0.1313 -0.7593  0.0415
  557MOL0     C75089   7.589   9.221   3.419 -0.3924  0.0897 -0.2141
  557MOL0     O75090   7.593   9.334   3.343 -0.5059 -0.6421 -0.1503
  557MOL0     C75091   7.478   9.365   3.273 -0.1997  1.3547  0.0218
  557MOL0     C75092   7.472   9.356   3.135  0.4110  0.4023 -0.2105
  557MOL0     C75093   7.363   9.394   3.063  0.2906  0.3078 -0.1690
  557MOL0     C75094   7.243   9.422   3.134  0.3963 -0.6284  0.2975
  557MOL0     O75095   7.145   9.437   3.042 -0.0816 -0.0895 -0.5486
  557MOL0     C75096   7.029   9.507   3.072  0.4266 -0.4177  0.0369
  557MOL0     C75097   6.909   9.507   2.976  0.5441  0.3608 -0.2764
  557MOL0     C75098   6.944   9.509   2.828 -0.2793  0.3225 -0.1509
  557MOL0     C75099   6.825   9.516   2.734  1.0563 -0.8627 -0.4493
  557MOL0     C75100   6.734   9.650   2.730 -1.7139  0.2088  0.1757
  557MOL0     C75101   6.811   9.778   2.693  0.2125  0.3841  0.0936
  557MOL0     C75102   6.863   9.774   2.554  0.7220  0.3532  0.0696
  557MOL0     C75103   7.011   9.743   2.550  0.2920  0.3937  0.5339
  557MOL0    Cl75104   7.079   9.714   2.387  0.3258  0.0522  0.0828
  557MOL0     C75105   7.240   9.428   3.273  0.6271 -0.8478 -0.2583
  557MOL0     C75106   7.364   9.407   3.342 -0.2311  0.9384 -0.3986
  557MOL0     O75107   7.541   9.114   3.380 -0.1917  0.3525  1.0047
  557MOL0     C75108   7.664   9.100   3.631 -0.9981 -0.0824  0.8431
  557MOL0     C75109   7.733   9.107   3.754 -0.2587 -0.9957 -0.1972
  557MOL0     N75110   8.376   9.282   3.867  0.2163 -0.8741  0.2760
  557MOL0     N75111   8.491   9.323   3.826 -0.1327 -0.8624 -0.2767
  557MOL0     C75112   9.640   9.378   3.807 -0.0021  0.7249  0.6609
  557MOL0     C75113   9.774   9.387   3.824 -0.8176 -0.5505  0.1697
  557MOL0     C75114  10.222   9.276   3.717  0.1641  0.2984 -0.1845
  557MOL0     C75115  10.314   9.208   3.634 -0.3200 -0.0133 -0.8840
  557MOL0     C75116  10.454   9.221   3.649 -0.1069  1.0735 -1.0268
  557MOL0     C75117  10.506   9.308   3.747 -0.4481 -0.0552 -0.2253
  557MOL0     O75118  10.644   9.315   3.771  1.3253  0.1248  0.4463
  557MOL0     C75119  10.707   9.380   3.658 -0.1607 -0.4598  0.7939
  557MOL0     C75120  10.823   9.476   3.717 -0.5053 -1.1357 -0.6245
  557MOL0     C75121  10.794   9.613   3.769  0.2879 -0.4385 -0.0571
  557MOL0     C75122  10.707   9.637   3.891 -0.3010 -0.1645 -0.2799
  557MOL0     C75123  10.676   9.776   3.916  0.5216 -0.2147  0.5154
  557MOL0     C75124  10.638   9.887   3.946  0.4490 -0.9888  0.4225
  557MOL0     C75125  10.423   9.388   3.826  0.1152  0.8936  0.4622
  557MOL0     C75126  10.285   9.370   3.809  0.2658  0.0366 -0.0653
  557MOL0     C75127  10.209   9.442   3.922 -1.1097  0.6489  0.8611
  557MOL0     H75128   9.864   9.307   3.504 -0.6782 -2.3679 -0.6685
  557MOL0     H75129   9.615   9.314   3.480 -1.4405  0.5038  0.4193
  557MOL0     H75130   9.290   9.394   3.557  0.2518  0.3068  1.8715
  557MOL0     H75131   9.432   9.377   3.462  2.6494 -0.9813 -1.3011
  557MOL0     H75132   9.440   9.129   3.563 -0.5010  0.0024 -0.0362
  557MOL0     H75133   9.335   9.163   3.448 -4.6066  3.9012  0.2278
  557MOL0     H75134   9.231   9.182   3.740 -2.4653  3.7814 -1.9313
  557MOL0     H75135   9.239   9.031   3.639  0.0683 -0.3601 -0.1441
  557MOL0     H75136   9.094   9.299   3.598 -2.8149 -0.1015 -1.6589
  557MOL0     H75137   9.087   9.165   3.471 -0.6803 -4.1784  0.7423
  557MOL0     H75138   8.975   9.019   3.622  2.8532  0.3791 -2.4910
  557MOL0     H75139   8.965   9.158   3.747  1.0951 -1.7716  0.5882
  557MOL0     H75140   8.865   9.308   3.565 -1.9304  0.3613 -2.9581
  557MOL0     H75141   8.848   9.171   3.463 -1.0775 -1.6282  1.1918
  557MOL0     H75142   8.725   9.045   3.648  0.9978  0.1472 -0.9291
  557MOL0     H75143   8.637   9.174   3.576 -1.5233  0.5437  1.4438
  557MOL0     H75144   8.754   9.168   3.855  0.3133  3.2684  1.9910
  557MOL0     H75145   8.749   9.327   3.772  2.3224 -0.9807 -0.5371
  557MOL0     H75146   8.535   9.000   3.829  3.1899  0.7130  0.1472
  557MOL0     H75147   8.180   9.039   3.848 -0.8287 -4.5619  0.9834
  557MOL0     H75148   8.291   8.980   3.953  0.2888  0.9410 -0.5546
  557MOL0     H75149   8.199   9.117   4.139 -0.7452 -0.6096 -0.2317
  557MOL0     H75150   8.219   9.258   4.044  2.3757 -1.4221 -1.8245
  557MOL0     H75151   7.986   9.164   4.137 -0.0915  1.6910 -0.3260
  557MOL0     H75152   8.008   9.042   4.018 -0.3473  0.4982 -2.3738
  557MOL0     H75153   8.001   9.210   3.827  0.4674 -2.3701  0.3235
  557MOL0     H75154   7.990   9.339   3.945 -1.6625  0.9601 -0.4925
  557MOL0     H75155   7.776   9.433   3.786 -1.6014  0.7367  0.3263
  557MOL0     H75156   7.674   9.434   3.544 -2.8518  0.6404  0.5082
  557MOL0     H75157   7.551   9.320   3.070  1.5852 -0.2591  1.4961
  557MOL0     H75158   7.373   9.389   2.955  2.4664 -0.5857  0.0091
  557MOL0     H75159   6.991   9.480   3.171  1.5556 -1.2115  0.2678
  557MOL0     H75160   7.054   9.614   3.073 -2.1913  0.2573  1.2627
  557MOL0     H75161   6.831   9.434   2.994 -0.9831  1.2417 -2.7865
  557MOL0     H75162   6.864   9.604   3.000 -2.7889 -1.0345 -0.4406
  557MOL0     H75163   7.003   9.598   2.804 -3.1822  1.3377 -4.8689
  557MOL0     H75164   6.998   9.416   2.810  0.1282 -0.0594  2.6591
  557MOL0     H75165   6.757   9.432   2.750  1.0666 -0.8571 -0.3716
  557MOL0     H75166   6.868   9.522   2.634  3.4368 -3.4537  0.2769
  557MOL0     H75167   6.702   9.653   2.835  0.3626  0.5527  0.8459
  557MOL0     H75168   6.652   9.636   2.659 -1.3620 -1.2396  0.0251
  557MOL0     H75169   6.736   9.857   2.702 -2.2264 -1.9284  1.4056
  557MOL0     H75170   6.893   9.804   2.761 -0.2710 -0.1660  0.8935
  557MOL0     H75171   6.850   9.869   2.502  1.5443  0.6211  0.3460
  557MOL0     H75172   6.803   9.705   2.494 -0.8762  1.4604  0.3357
  557MOL0     H75173   7.053   9.831   2.600  0.5684  2.0698 -2.4349
  557MOL0     H75174   7.022   9.652   2.609 -1.8380 -0.6462 -0.5964
  557MOL0     H75175   7.160   9.447   3.343 -0.0990 -2.0420 -0.7308
  557MOL0     H75176   7.370   9.408   3.450  3.4125 -1.9124 -0.3975
  557MOL0     H75177   7.636   9.007   3.582 -0.6638 -0.1805  0.8351
  557MOL0     H75178   7.735   9.019   3.818 -0.8775  0.2355  1.6317
  557MOL0     H75179   9.574   9.396   3.890  0.0135 -1.3421  1.1781
  557MOL0     H75180   9.828   9.413   3.915 -1.8340 -0.2583  0.7023
  557MOL0     H75181  10.288   9.141   3.553  1.3878  1.2075 -2.5398
  557MOL0     H75182  10.531   9.166   3.596 -0.9543 -2.4054  0.9687
  557MOL0     H75183  10.650   9.446   3.591  2.2712  1.7260  0.6989
  557MOL0     H75184  10.753   9.312   3.586  1.0292  0.7324  0.3796
  557MOL0     H75185  10.893   9.498   3.635  2.7892  0.7762  2.4236
  557MOL0     H75186  10.878   9.423   3.795 -1.4998 -1.8146 -0.3628
  557MOL0     H75187  10.753   9.661   3.679  3.1395 -0.5824 -1.5435
  557MOL0     H75188  10.893   9.657   3.781  0.1948  0.0260 -0.9013
  557MOL0     H75189  10.614   9.580   3.881 -0.6706 -0.2247  2.6779
  557MOL0     H75190  10.760   9.599   3.978 -0.8289  1.0442  0.5838
  557MOL0     H75191  10.616   9.988   3.976  1.1039 -0.2945 -1.3033
  557MOL0     H75192  10.461   9.462   3.895 -0.4938  2.0459 -0.4031
  557MOL0     H75193  10.116   9.391   3.947  1.2987 -3.4800  2.2089
  557MOL0     H75194  10.253   9.451   4.021 -2.0963  2.4289  1.1881
  557MOL0     H75195  10.189   9.543   3.883  3.1095  1.4578  0.2376
  558MOL0     O75196   4.310   3.008   4.372  0.1280  0.6468  0.5562
  558MOL0     C75197   4.270   3.073   4.273  0.8492  1.2097  0.3706
  558MOL0     O75198   4.352   3.128   4.177 -0.6572  0.5717 -0.1062
  558MOL0     C75199   4.479   3.149   4.204  0.2728  0.0099 -0.6377
  558MOL0     C75200   4.581   3.093   4.123 -0.1505  0.0645  0.6847
  558MOL0     C75201   4.718   3.121   4.147 -0.5066  0.2009 -0.2220
  558MOL0     C75202   4.753   3.199   4.255 -0.1667 -1.0016  0.3112
  558MOL0     O75203   4.891   3.206   4.289 -0.1058  0.4872 -0.1468
  558MOL0     C75204   4.921   3.277   4.406 -0.0976 -0.1877  0.3443
  558MOL0     C75205   5.074   3.268   4.393  0.2895  0.3159  0.0024
  558MOL0     C75206   5.141   3.298   4.254  0.1829 -0.2125 -0.9638
  558MOL0     C75207   5.083   3.428   4.196  0.8005 -0.5776 -0.6869
  558MOL0     C75208   5.141   3.442   4.062 -1.0733  0.7986  0.5481
  558MOL0     C75209   5.099   3.577   4.006  0.7376  0.5175 -0.2443
  558MOL0     C75210   5.164   3.617   3.873  0.1438  1.4957 -0.3308
  558MOL0     C75211   5.152   3.503   3.768 -0.7578  0.5222 -0.1393
  558MOL0     N75212   5.217   3.527   3.633 -0.0333 -0.0232 -0.9848
  558MOL0     C75213   5.329   3.601   3.617 -0.2218  1.0690  0.4665
  558MOL0     C75214   5.364   3.576   3.486  0.1225  0.1218  1.3350
  558MOL0     C75215   5.469   3.632   3.407  0.3834  0.4947  0.1475
  558MOL0     C75216   5.443   3.786   3.386  0.6234 -0.8339 -0.4054
  558MOL0     C75217   5.539   3.861   3.288 -0.4916 -0.2186  0.0835
  558MOL0     C75218   5.531   3.839   3.134 -0.4454  0.0801 -0.3337
  558MOL0     O75219   5.643   3.910   3.067 -0.2761 -0.0504  0.0286
  558MOL0     C75220   5.632   4.041   3.026 -0.0002  0.2411 -0.1339
  558MOL0     C75221   5.527   4.128   3.064 -0.5562  0.9188 -0.5475
  558MOL0     C75222   5.508   4.249   3.000 -0.4270 -0.2004  0.1587
  558MOL0     C75223   5.607   4.298   2.905 -0.0486 -0.5067 -0.1912
  558MOL0     C75224   5.599   4.440   2.856  0.6323  0.3107  1.0136
  558MOL0     O75225   5.477   4.507   2.877  0.0383 -0.6500 -0.3797
  558MOL0     C75226   5.477   4.640   2.837 -0.8286 -0.9972  0.0971
  558MOL0     C75227   5.472   4.741   2.932 -0.5148  0.6964  0.1808
  558MOL0     C75228   5.491   4.876   2.900  0.3482 -0.4321 -0.0402
  558MOL0     C75229   5.505   4.921   2.765 -0.0374  0.8775  0.2906
  558MOL0     O75230   5.534   5.050   2.728 -0.2375  0.0169  0.0315
  558MOL0     C75231   5.503   5.166   2.809  0.3819  0.2370  0.4681
  558MOL0     C75232   5.576   5.288   2.760 -0.1095 -0.3059 -0.2728
  558MOL0     C75233   5.536   5.408   2.854  0.0360  0.4077 -0.1782
  558MOL0     C75234   5.571   5.533   2.785 -0.1431  0.5057  0.8708
  558MOL0     C75235   5.539   5.657   2.874 -0.9219  0.0212  0.7285
  558MOL0     C75236   5.385   5.684   2.891  0.0874  0.0773  0.0654
  558MOL0     C75237   5.373   5.794   2.997 -0.1971 -0.1779 -0.3738
  558MOL0     C75238   5.223   5.854   3.007 -0.7716  0.5661  0.6383
  558MOL0    Cl75239   5.205   5.951   3.153  0.2768 -0.1355 -0.1128
  558MOL0     C75240   5.515   4.817   2.672  0.5573  0.6254 -0.0820
  558MOL0     C75241   5.483   4.681   2.701 -0.1653 -0.0258  0.1102
  558MOL0     O75242   5.678   4.466   2.766 -0.2921  0.0707 -0.6449
  558MOL0     C75243   5.718   4.220   2.882  0.2669  0.2422  0.9571
  558MOL0     C75244   5.729   4.090   2.935  0.3610 -0.7325 -0.0618
  558MOL0     N75245   5.276   3.484   3.434  0.6542  0.4293 -0.4475
  558MOL0     N75246   5.194   3.443   3.533  0.2028  0.0808  1.2489
  558MOL0     C75247   4.654   3.256   4.333 -0.4556 -0.9702 -0.2253
  558MOL0     C75248   4.525   3.228   4.306  0.4855  0.0042  0.2918
  558MOL0     C75249   4.123   3.088   4.255 -0.3021 -0.4677  0.3630
  558MOL0     C75250   4.081   3.217   4.190  0.4919  0.3645 -1.5296
  558MOL0     C75251   3.951   3.251   4.187  0.0610 -0.1890  0.3669
  558MOL0     C75252   3.852   3.169   4.218  0.6472  0.3522 -0.0592
  558MOL0     O75253   3.724   3.217   4.195  0.4520  0.2404  0.0645
  558MOL0     C75254   3.615   3.158   4.285  0.9566 -0.3227  0.3364
  558MOL0     C75255   3.494   3.258   4.285 -0.0186 -0.8994 -0.8960
  558MOL0     C75256   3.442   3.273   4.135 -0.4537 -0.7701  0.0843
  558MOL0     C75257   3.293   3.329   4.116  0.1130 -0.1252  0.4722
  558MOL0     C75258   3.276   3.466   4.175  0.5618 -0.0905 -1.0809
  558MOL0     C75259   3.269   3.583   4.209 -0.2381  0.1438 -0.5713
  558MOL0     C75260   3.885   3.039   4.267 -0.4414 -0.3199  0.0089
  558MOL0     C75261   4.019   3.001   4.288 -0.1159 -0.3088 -0.3162
  558MOL0     C75262   4.044   2.863   4.355 -0.0006  0.1553 -0.1256
  558MOL0     H75263   4.557   3.023   4.044 -3.2462 -1.2390  2.5886
  558MOL0     H75264   4.789   3.067   4.085 -2.4686 -2.2101 -0.5805
  558MOL0     H75265   4.902   3.383   4.386  0.4430 -0.1843 -0.1913
  558MOL0     H75266   4.887   3.233   4.500 -0.8779 -0.4892 -0.0742
  558MOL0     H75267   5.094   3.168   4.431  0.2408 -0.4570 -1.9004
  558MOL0     H75268   5.124   3.336   4.463  0.6865 -0.9579  0.9752
  558MOL0     H75269   5.140   3.214   4.184 -1.3147 -0.0442 -1.1715
  558MOL0     H75270   5.247   3.315   4.275  0.6794 -2.6276 -1.2588
  558MOL0     H75271   4.974   3.435   4.188  0.7824 -2.1784 -2.1619
  558MOL0     H75272   5.113   3.512   4.260 -0.2442 -0.5834 -0.1634
  558MOL0     H75273   5.249   3.435   4.075 -0.6797 -0.9161 -2.5972
  558MOL0     H75274   5.097   3.364   4.000 -1.9873  0.6501  1.3584
  558MOL0     H75275   4.992   3.579   3.983  0.6217 -1.7423 -0.1577
  558MOL0     H75276   5.102   3.657   4.081  1.0644  0.6522 -0.3978
  558MOL0     H75277   5.268   3.640   3.895  0.9290  0.8322 -2.9941
  558MOL0     H75278   5.117   3.712   3.844 -1.1075  0.9199 -0.2821
  558MOL0     H75279   5.212   3.420   3.805 -0.1358  1.2520  0.5279
  558MOL0     H75280   5.054   3.461   3.743 -0.1662  0.1931 -2.0393
  558MOL0     H75281   5.382   3.664   3.688 -1.3119  1.5674  0.8530
  558MOL0     H75282   5.568   3.623   3.454  0.8644  0.6659 -0.8022
  558MOL0     H75283   5.469   3.581   3.310 -1.1796  0.0731  0.3405
  558MOL0     H75284   5.339   3.813   3.364  1.3289  0.7603 -1.9420
  558MOL0     H75285   5.471   3.828   3.483 -1.8290  2.5372 -0.9633
  558MOL0     H75286   5.634   3.824   3.327 -0.8846  0.5155  1.7933
  558MOL0     H75287   5.542   3.970   3.301  3.2903 -0.0454 -0.9455
  558MOL0     H75288   5.440   3.879   3.090 -0.9260 -1.3718 -0.7129
  558MOL0     H75289   5.522   3.735   3.100  0.7311 -0.5251  1.0676
  558MOL0     H75290   5.457   4.094   3.140 -0.0644  1.7456  0.2879
  558MOL0     H75291   5.421   4.309   3.026 -0.4382 -0.4485  0.7081
  558MOL0     H75292   5.450   4.715   3.035 -0.0620  1.2204  0.4192
  558MOL0     H75293   5.499   4.947   2.981 -0.6520 -0.0818 -0.2350
  558MOL0     H75294   5.396   5.187   2.813  0.3714  0.0944  3.1610
  558MOL0     H75295   5.538   5.157   2.913 -1.0099  3.6831  1.3665
  558MOL0     H75296   5.685   5.278   2.757  0.1675  2.0412  0.3505
  558MOL0     H75297   5.556   5.304   2.653 -1.6329  2.0393  0.2943
  558MOL0     H75298   5.429   5.401   2.874 -0.0082 -0.0568 -0.5676
  558MOL0     H75299   5.577   5.415   2.955 -3.0534 -1.3392  1.3569
  558MOL0     H75300   5.511   5.542   2.693  1.2831  1.8554  0.0254
  558MOL0     H75301   5.678   5.533   2.762 -0.5933  1.4261 -1.6280
  558MOL0     H75302   5.589   5.741   2.826 -0.7379 -0.5901 -0.1719
  558MOL0     H75303   5.581   5.640   2.974 -0.0936  2.1730  0.7928
  558MOL0     H75304   5.339   5.711   2.796  0.5100  2.8941  0.5808
  558MOL0     H75305   5.346   5.591   2.933  1.6985 -1.5737 -1.8573
  558MOL0     H75306   5.438   5.878   2.971 -2.4929  2.0181  0.4922
  558MOL0     H75307   5.407   5.763   3.096  0.3744  2.4446  0.3300
  558MOL0     H75308   5.205   5.927   2.927 -3.0528 -0.7469 -0.1283
  558MOL0     H75309   5.147   5.780   2.981  1.3083 -0.7533 -2.1347
  558MOL0     H75310   5.536   4.853   2.572  1.0177  1.5337  0.3303
  558MOL0     H75311   5.498   4.610   2.621  4.1668 -1.2959  1.7192
  558MOL0     H75312   5.800   4.250   2.816  0.9283 -0.8466  1.2550
  558MOL0     H75313   5.823   4.038   2.918 -0.1256 -0.9708 -2.2740
  558MOL0     H75314   4.666   3.324   4.417 -0.8564 -3.0353  1.6171
  558MOL0     H75315   4.456   3.277   4.374 -0.6073 -0.7246 -0.2548
  558MOL0     H75316   4.156   3.284   4.149  1.6865  0.4793  0.6995
  558MOL0     H75317   3.939   3.347   4.137  0.6839  1.1212  2.5680
  558MOL0     H75318   3.647   3.144   4.389  1.5263  0.7194  0.3119
  558MOL0     H75319   3.588   3.058   4.249 -2.2696  0.2633  0.7781
  558MOL0     H75320   3.542   3.347   4.327  0.2608 -2.0244  1.3159
  558MOL0     H75321   3.419   3.219   4.354 -2.8377  4.3537 -0.4848
  558MOL0     H75322   3.458   3.185   4.073  2.3171 -0.9708  0.9373
  558MOL0     H75323   3.509   3.347   4.090 -1.7908  2.7820  3.3439
  558MOL0     H75324   3.269   3.329   4.009  1.8674 -0.0237  0.0509
  558MOL0     H75325   3.222   3.259   4.159 -0.4874  0.8616  1.1197
  558MOL0     H75326   3.268   3.684   4.247  4.0127  0.9868 -2.1730
  558MOL0     H75327   3.801   2.977   4.298  0.5926 -0.0202  3.9409
  558MOL0     H75328   4.062   2.873   4.463  1.4718  0.2214 -0.3560
  558MOL0     H75329   3.957   2.800   4.333  1.5447 -2.2406  0.2431
  558MOL0     H75330   4.133   2.822   4.306 -1.7691 -2.0617 -1.7101
  559MOL0     O75331   1.922   9.225   4.460 -0.2532 -0.1849  0.1686
  559MOL0     C75332   1.818   9.215   4.397 -0.4590  0.7569  0.5551
  559MOL0     O75333   1.808   9.252   4.262  0.5364 -0.6551  0.6589
  559MOL0     C75334   1.913   9.323   4.210  0.0667 -0.2218  0.3466
  559MOL0     C75335   1.920   9.459   4.222  1.1134  0.2508  0.5633
  559MOL0     C75336   2.034   9.532   4.177 -0.2070  0.2970  0.2597
  559MOL0     C75337   2.128   9.468   4.094  0.2946  0.2824 -0.0537
  559MOL0     O75338   2.221   9.547   4.036 -0.0128 -0.7326 -0.5157
  559MOL0     C75339   2.357   9.496   4.038 -0.1093 -0.4357  0.1011
  559MOL0     C75340   2.406   9.493   3.895  0.1028  0.0687 -0.3055
  559MOL0     C75341   2.547   9.444   3.886  0.2901 -0.0128 -0.2501
  559MOL0     C75342   2.563   9.290   3.900 -0.7822 -0.7195  0.2967
  559MOL0     C75343   2.695   9.241   3.834 -0.1378  0.8615 -0.7248
  559MOL0     C75344   2.823   9.317   3.893 -0.4422  0.9525 -0.4767
  559MOL0     C75345   2.946   9.271   3.822 -0.2172  0.2461  0.1635
  559MOL0     C75346   3.076   9.318   3.893 -0.3454 -0.7483 -0.0115
  559MOL0     N75347   3.088   9.446   3.972  0.2074  0.0898 -0.7310
  559MOL0     C75348   3.080   9.576   3.917  0.7041  0.5440 -0.3182
  559MOL0     C75349   3.093   9.657   4.022  0.0537 -0.5577 -0.0912
  559MOL0     C75350   3.078   9.808   4.008  0.4506  0.1606  0.8244
  559MOL0     C75351   3.207   9.849   3.931 -0.8763  0.3636  0.8604
  559MOL0     C75352   3.214   9.998   3.923  0.7010  0.4041  0.5871
  559MOL0     C75353   3.081  10.062   3.871  0.9436  1.1648  0.5465
  559MOL0     O75354   2.980  10.082   3.975  0.6518 -0.6378 -0.4641
  559MOL0     C75355   2.875  10.166   3.942  0.9357 -0.5851  0.9259
  559MOL0     C75356   2.849  10.213   3.816 -0.4994 -0.0959  0.5036
  559MOL0     C75357   2.721  10.276   3.792  0.0559  0.1347 -0.4575
  559MOL0     C75358   2.629  10.306   3.897 -0.2034  0.0281  0.1438
  559MOL0     C75359   2.502  10.375   3.879  0.6370 -0.2628 -0.1349
  559MOL0     O75360   2.438  10.407   3.994  0.3946 -0.6309  0.9696
  559MOL0     C75361   2.307  10.459   3.985  0.1969 -0.1746  0.4485
  559MOL0     C75362   2.200  10.415   3.905 -0.1493 -0.0392  0.4404
  559MOL0     C75363   2.080  10.466   3.931 -0.3258 -0.0162 -0.6656
  559MOL0     C75364   2.053  10.572   4.014  0.5682  0.5209 -0.1342
  559MOL0     O75365   1.920  10.606   4.037  0.2170 -0.1567 -0.0135
  559MOL0     C75366   1.887  10.695   4.144  0.0682 -0.1110  1.0486
  559MOL0     C75367   1.738  10.705   4.171 -0.0586  0.9621  0.0269
  559MOL0     C75368   1.705  10.800   4.282 -0.3479  0.0710 -0.9221
  559MOL0     C75369   1.685  10.721   4.416 -0.0838  0.3976  1.3092
  559MOL0     C75370   1.672  10.828   4.523  0.4323  0.1899  0.4103
  559MOL0     C75371   1.626  10.783   4.655  1.2727 -0.3269  0.7050
  559MOL0     C75372   1.538  10.883   4.724  0.0134 -0.2742 -1.3607
  559MOL0     C75373   1.538  10.831   4.869  0.1485  0.6226  0.6091
  559MOL0    Cl75374   1.432  10.935   4.982  0.2319  0.3372 -0.0059
  559MOL0     C75375   2.162  10.623   4.085 -0.8455  0.0738 -0.7461
  559MOL0     C75376   2.286  10.566   4.058  0.4306  0.1615 -0.5929
  559MOL0     O75377   2.464  10.400   3.768 -0.0609  0.7847 -0.2886
  559MOL0     C75378   2.671  10.269   4.027  0.6357 -0.8236 -0.2934
  559MOL0     C75379   2.786  10.189   4.044 -0.5313 -0.1416  0.0599
  559MOL0     N75380   3.109   9.585   4.142 -0.8569 -0.5020 -0.7233
  559MOL0     N75381   3.111   9.463   4.100  0.2251  0.5347 -0.0257
  559MOL0     C75382   2.121   9.332   4.071  0.2920  0.2635 -0.6921
  559MOL0     C75383   2.022   9.260   4.139  0.7496 -1.2549  0.0452
  559MOL0     C75384   1.702   9.156   4.465 -0.3851 -0.1135  0.4961
  559MOL0     C75385   1.598   9.238   4.506  0.1226 -0.5462 -2.2752
  559MOL0     C75386   1.491   9.185   4.585 -0.5562 -0.5168  0.1064
  559MOL0     C75387   1.493   9.053   4.633 -0.1001  0.5059 -0.3146
  559MOL0     O75388   1.386   9.001   4.697 -0.2070 -0.6724 -0.8205
  559MOL0     C75389   1.378   8.864   4.745  0.0725  0.5474  0.0126
  559MOL0     C75390   1.250   8.824   4.816 -0.3050  0.6164  0.2216
  559MOL0     C75391   1.255   8.666   4.838  0.4725 -0.4164  0.9285
  559MOL0     C75392   1.122   8.635   4.909 -0.3496  0.1986 -0.2208
  559MOL0     C75393   1.136   8.671   5.049 -0.2341  0.1331 -0.0528
  559MOL0     C75394   1.173   8.683   5.168  0.0090 -0.5346 -0.2605
  559MOL0     C75395   1.604   8.972   4.603  0.7077 -0.1712  0.2755
  559MOL0     C75396   1.710   9.025   4.518  0.1861  1.0043  0.4736
  559MOL0     C75397   1.811   8.911   4.471 -0.7961  0.0202 -0.5384
  559MOL0     H75398   1.839   9.521   4.260  1.7695 -0.4159  3.2332
  559MOL0     H75399   2.032   9.640   4.181 -0.9530  0.4250 -2.2639
  559MOL0     H75400   2.423   9.565   4.092  0.8725 -1.1511 -0.1760
  559MOL0     H75401   2.371   9.401   4.090 -2.5976 -2.9116 -3.3700
  559MOL0     H75402   2.419   9.586   3.839  1.7991  0.1755  0.1998
  559MOL0     H75403   2.334   9.446   3.828 -1.6801  2.5115 -0.2212
  559MOL0     H75404   2.606   9.500   3.959 -0.1981 -1.0614  0.9821
  559MOL0     H75405   2.577   9.473   3.784  0.1438 -1.4918 -0.7403
  559MOL0     H75406   2.549   9.259   4.004 -0.9832  2.5164  1.3158
  559MOL0     H75407   2.482   9.239   3.847 -0.1814 -0.2380 -1.1479
  559MOL0     H75408   2.690   9.135   3.860 -1.2281  1.1300  0.2513
  559MOL0     H75409   2.682   9.252   3.726  1.0762  0.6284 -0.9142
  559MOL0     H75410   2.811   9.424   3.871  0.0644  0.7521 -1.7691
  559MOL0     H75411   2.819   9.304   4.002  0.6174  2.3070 -0.2544
  559MOL0     H75412   2.965   9.302   3.719  3.1164 -2.3314 -0.1661
  559MOL0     H75413   2.944   9.162   3.813 -1.8774  0.1269  1.4791
  559MOL0     H75414   3.117   9.239   3.956  1.5915  0.0376 -0.1887
  559MOL0     H75415   3.160   9.321   3.823  2.1761 -2.4752  2.6698
  559MOL0     H75416   3.069   9.606   3.813  0.6069 -1.4660 -0.9277
  559MOL0     H75417   2.996   9.823   3.937 -0.1388 -2.5323  0.8295
  559MOL0     H75418   3.077   9.850   4.109  4.5353 -1.5390  1.7889
  559MOL0     H75419   3.298   9.814   3.980 -1.0177 -0.4506  0.5620
  559MOL0     H75420   3.201   9.812   3.828  0.7989 -0.4530  1.0235
  559MOL0     H75421   3.285  10.028   3.845  4.5654 -3.9357  1.9685
  559MOL0     H75422   3.252  10.048   4.013  2.9948 -0.9786  0.4896
  559MOL0     H75423   3.048   9.988   3.798  0.8272 -1.7506  3.3679
  559MOL0     H75424   3.108  10.159   3.827  0.5373  1.1830  0.3334
  559MOL0     H75425   2.922  10.208   3.735 -1.4563 -0.8963 -0.3414
  559MOL0     H75426   2.684  10.299   3.692 -0.5897 -3.1227 -1.0700
  559MOL0     H75427   2.211  10.323   3.848  1.0036 -1.4968  2.8481
  559MOL0     H75428   1.992  10.415   3.891 -0.9615 -0.8448  1.6396
  559MOL0     H75429   1.943  10.657   4.230  2.1658 -3.0565 -1.4361
  559MOL0     H75430   1.930  10.794   4.124 -1.1432  0.3187  0.4422
  559MOL0     H75431   1.684  10.738   4.081 -1.3366  0.4303  0.5704
  559MOL0     H75432   1.694  10.611   4.204  2.8644 -1.0479 -1.3773
  559MOL0     H75433   1.776  10.883   4.291  0.0450 -0.3452  0.0588
  559MOL0     H75434   1.615  10.852   4.247  0.6150  1.6852 -1.0854
  559MOL0     H75435   1.779  10.665   4.425  0.0376  0.4186  0.2303
  559MOL0     H75436   1.594  10.660   4.411  0.6413 -0.6689  0.7107
  559MOL0     H75437   1.598  10.895   4.479  1.5100  0.1913 -1.5152
  559MOL0     H75438   1.763  10.883   4.544 -0.1303  0.1350  3.3764
  559MOL0     H75439   1.577  10.685   4.642 -1.9673  1.2864 -0.3993
  559MOL0     H75440   1.711  10.768   4.721  1.0117 -1.8895  0.7387
  559MOL0     H75441   1.438  10.886   4.679 -0.6587  0.9241  0.0999
  559MOL0     H75442   1.574  10.986   4.732  1.8227 -1.0062  3.1858
  559MOL0     H75443   1.486  10.734   4.872 -3.9609  2.1962 -4.3367
  559MOL0     H75444   1.636  10.820   4.915 -1.5096  0.0893  4.3837
  559MOL0     H75445   2.166  10.708   4.152 -1.2789  0.6622 -1.4476
  559MOL0     H75446   2.374  10.588   4.118  1.1385 -3.8019  0.1189
  559MOL0     H75447   2.617  10.302   4.116  1.7877 -0.5223  0.3126
  559MOL0     H75448   2.816  10.153   4.142 -1.6795  0.9716  0.8457
  559MOL0     H75449   2.188   9.264   4.018 -0.7733 -2.1163  0.8452
  559MOL0     H75450   2.025   9.152   4.130  0.6302 -1.2564  0.0178
  559MOL0     H75451   1.611   9.345   4.488 -0.7689 -0.2988 -1.5630
  559MOL0     H75452   1.405   9.251   4.594  0.9836  1.8014 -1.0780
  559MOL0     H75453   1.456   8.843   4.818  1.0684 -0.2369 -1.2276
  559MOL0     H75454   1.386   8.802   4.655  2.1481  0.8543 -0.0612
  559MOL0     H75455   1.160   8.858   4.763 -0.1978 -1.5182 -1.4528
  559MOL0     H75456   1.249   8.873   4.914  1.1861 -0.0649  0.6052
  559MOL0     H75457   1.345   8.628   4.887  2.7262 -1.1013 -3.2428
  559MOL0     H75458   1.246   8.608   4.745 -2.9683 -1.4306  1.7447
  559MOL0     H75459   1.040   8.688   4.859 -1.2994 -1.2490 -0.2767
  559MOL0     H75460   1.089   8.530   4.913  2.8818 -0.9504 -0.8669
  559MOL0     H75461   1.208   8.691   5.268 -1.2095 -0.8878  0.2184
  559MOL0     H75462   1.617   8.877   4.655 -1.7715 -0.3932  0.6382
  559MOL0     H75463   1.822   8.916   4.362 -2.2646  0.0870 -0.7071
  559MOL0     H75464   1.909   8.933   4.514 -0.2317 -0.0779 -1.7423
  559MOL0     H75465   1.780   8.811   4.501  2.7836 -0.5240  1.9708
  560MOL0     O75466   3.231   8.264   1.338  0.2232  0.1156 -0.0678
  560MOL0     C75467   3.249   8.387   1.349  0.6618  0.2301 -0.7417
  560MOL0     O75468   3.368   8.450   1.309  0.2679  0.8483 -0.4398
  560MOL0     C75469   3.474   8.378   1.256  0.8743  0.5646  0.0788
  560MOL0     C75470   3.585   8.355   1.337  0.4471 -0.6266  0.2603
  560MOL0     C75471   3.706   8.308   1.274  0.1484 -0.3127  0.6802
  560MOL0     C75472   3.705   8.274   1.138 -0.5494  0.3731  0.1594
  560MOL0     O75473   3.808   8.200   1.088 -0.3671  0.7905  0.3870
  560MOL0     C75474   3.943   8.242   1.111  0.7930  0.5866  1.2475
  560MOL0     C75475   4.034   8.178   1.012  0.1283 -0.2986  0.3877
  560MOL0     C75476   4.174   8.225   1.043  0.3796  0.0873 -0.4352
  560MOL0     C75477   4.265   8.179   0.929 -0.2034  0.3740  0.0666
  560MOL0     C75478   4.416   8.193   0.984  0.6939 -0.1210  0.6305
  560MOL0     C75479   4.504   8.104   0.896 -0.0386  0.0510  0.3554
  560MOL0     C75480   4.650   8.142   0.891  0.0546  0.9252 -0.5767
  560MOL0     C75481   4.729   8.062   0.786 -0.1210 -0.0241 -0.5828
  560MOL0     N75482   4.723   8.088   0.646  0.7024  0.1114 -0.0859
  560MOL0     C75483   4.814   8.137   0.564 -0.6293 -0.6149 -0.5206
  560MOL0     C75484   4.757   8.136   0.441 -0.7717  0.3235  0.1198
  560MOL0     C75485   4.834   8.165   0.311 -0.5969 -0.3031  0.1790
  560MOL0     C75486   4.794   8.306   0.278  0.3788  0.0483  0.1529
  560MOL0     C75487   4.865   8.404   0.372  0.1392  0.7695  0.1060
  560MOL0     C75488   4.845   8.554   0.322 -0.2242 -0.3627 -0.1384
  560MOL0     O75489   4.936   8.590   0.219  0.1395 -0.2343  0.4045
  560MOL0     C75490   5.070   8.593   0.254  0.0250  0.5987  0.5508
  560MOL0     C75491   5.121   8.617   0.387  0.0643 -0.3121  0.5331
  560MOL0     C75492   5.255   8.625   0.402  0.2361  0.5999 -0.6323
  560MOL0     C75493   5.349   8.574   0.306 -0.6051  1.2312  0.3657
  560MOL0     C75494   5.492   8.574   0.353 -0.2386 -0.0945 -0.4903
  560MOL0     O75495   5.516   8.603   0.488  0.4945  0.3454  1.1694
  560MOL0     C75496   5.645   8.597   0.531  0.5606  0.7685 -0.2238
  560MOL0     C75497   5.696   8.473   0.587  0.6544 -0.4022 -0.0882
  560MOL0     C75498   5.829   8.456   0.628  0.3356  0.3026 -0.0568
  560MOL0     C75499   5.913   8.567   0.631  0.3863 -0.5115 -1.2175
  560MOL0     O75500   6.034   8.550   0.684 -1.3804 -0.0714 -0.0659
  560MOL0     C75501   6.126   8.465   0.611  0.4404  0.5988 -0.0895
  560MOL0     C75502   6.275   8.504   0.620 -0.7330 -0.1590  0.5672
  560MOL0     C75503   6.371   8.401   0.580  0.2065  0.8359 -0.0205
  560MOL0     C75504   6.508   8.453   0.547  0.2782 -0.2112  0.2866
  560MOL0     C75505   6.581   8.359   0.445  0.2792 -0.5516 -0.1202
  560MOL0     C75506   6.614   8.224   0.504  0.7462 -0.6139  0.3275
  560MOL0     C75507   6.686   8.144   0.403  0.6577  0.7462 -0.1326
  560MOL0     C75508   6.746   8.012   0.475 -0.1919 -0.0812  0.0079
  560MOL0    Cl75509   6.908   8.043   0.552 -0.4638 -0.1729  0.3890
  560MOL0     C75510   5.861   8.694   0.598  0.4525  0.1944  0.5403
  560MOL0     C75511   5.731   8.707   0.533 -0.9367  0.0142  0.2639
  560MOL0     O75512   5.572   8.536   0.265 -0.1024 -0.3195  0.0340
  560MOL0     C75513   5.297   8.544   0.178 -0.2034  0.1958  0.2959
  560MOL0     C75514   5.164   8.575   0.157  1.0225 -0.5865  0.2083
  560MOL0     N75515   4.636   8.072   0.453 -0.0490  0.8339 -0.3367
  560MOL0     N75516   4.613   8.048   0.579  0.7212 -0.8943 -0.3317
  560MOL0     C75517   3.592   8.308   1.055  0.4622  0.2871  0.1050
  560MOL0     C75518   3.478   8.354   1.123  0.2002  0.4861 -0.7972
  560MOL0     C75519   3.136   8.467   1.411  0.1620  0.8152 -0.5522
  560MOL0     C75520   3.138   8.597   1.369 -0.0560  0.6886 -0.1049
  560MOL0     C75521   3.049   8.679   1.439  0.0991  0.1978  0.7439
  560MOL0     C75522   2.972   8.647   1.554  0.2907  0.8595  1.2037
  560MOL0     O75523   2.899   8.730   1.625 -0.0336  0.5756  0.1418
  560MOL0     C75524   2.857   8.864   1.578  0.6304 -0.1476 -0.2951
  560MOL0     C75525   2.931   8.987   1.646  0.1118 -0.0275  0.0275
  560MOL0     C75526   3.046   9.041   1.562  0.5060  0.4070 -0.4841
  560MOL0     C75527   3.127   9.146   1.631  0.1359  0.3345  0.7261
  560MOL0     C75528   3.168   9.253   1.532 -0.1342 -0.2236  0.0488
  560MOL0     C75529   3.202   9.326   1.443 -0.3588  0.1897 -0.3808
  560MOL0     C75530   2.981   8.517   1.601 -0.2505  0.9248 -0.6754
  560MOL0     C75531   3.053   8.415   1.522 -0.1160  0.5046  0.6671
  560MOL0     C75532   3.055   8.272   1.568  0.2907 -0.0086  0.1994
  560MOL0     H75533   3.575   8.373   1.443 -1.8081 -0.0120 -0.0122
  560MOL0     H75534   3.792   8.303   1.339 -0.1422  0.2144  1.1155
  560MOL0     H75535   3.949   8.350   1.091  0.5937  0.2130 -1.1940
  560MOL0     H75536   3.977   8.218   1.212  0.3227 -0.5086  1.1526
  560MOL0     H75537   3.998   8.216   0.916  1.4369  3.2493  1.1377
  560MOL0     H75538   4.021   8.070   1.026 -3.1350  0.1502  1.7628
  560MOL0     H75539   4.194   8.184   1.142 -1.1759  0.7577  0.1852
  560MOL0     H75540   4.162   8.333   1.051 -0.2635  0.0263 -0.4509
  560MOL0     H75541   4.256   8.071   0.916  0.5564  0.3934 -0.6782
  560MOL0     H75542   4.240   8.234   0.838 -0.2426  1.6703  0.8365
  560MOL0     H75543   4.453   8.294   1.000  1.8374 -0.6995  1.8979
  560MOL0     H75544   4.436   8.166   1.088  4.2457  1.3516  0.4682
  560MOL0     H75545   4.489   8.003   0.934 -0.8054  0.3826  0.9663
  560MOL0     H75546   4.458   8.107   0.796 -3.2236  2.7870  1.7043
  560MOL0     H75547   4.697   8.117   0.986  1.1169 -4.7046 -2.2125
  560MOL0     H75548   4.659   8.247   0.860 -1.5892  0.8716 -1.3657
  560MOL0     H75549   4.832   8.088   0.810 -0.4027 -1.3144  2.5140
  560MOL0     H75550   4.710   7.957   0.809 -3.7405  0.0945 -2.3717
  560MOL0     H75551   4.913   8.165   0.598 -1.1690 -0.2362  0.7920
  560MOL0     H75552   4.940   8.142   0.324 -0.9317 -3.5606 -1.6958
  560MOL0     H75553   4.802   8.086   0.242  1.3248 -1.2184  0.2593
  560MOL0     H75554   4.814   8.321   0.171  2.4395  1.3821  0.6729
  560MOL0     H75555   4.686   8.315   0.292  0.1651 -1.0730 -0.6253
  560MOL0     H75556   4.969   8.372   0.382 -0.6720 -1.5372  2.0398
  560MOL0     H75557   4.823   8.403   0.473  0.7881  1.8107  0.3985
  560MOL0     H75558   4.855   8.606   0.417 -2.1141 -0.0486 -0.0677
  560MOL0     H75559   4.745   8.569   0.279 -1.2829 -0.5047  2.1433
  560MOL0     H75560   5.057   8.647   0.469 -0.9884  2.9978 -1.3224
  560MOL0     H75561   5.283   8.664   0.500  1.1374  2.5941 -1.6271
  560MOL0     H75562   5.624   8.392   0.581  0.2756 -0.1151  0.4776
  560MOL0     H75563   5.851   8.357   0.665 -0.5743  0.8060  1.9642
  560MOL0     H75564   6.122   8.362   0.648 -1.3912  1.4176  2.2472
  560MOL0     H75565   6.097   8.458   0.506  0.0418  0.3218  0.0356
  560MOL0     H75566   6.295   8.591   0.555  2.7230  0.5733  2.3831
  560MOL0     H75567   6.302   8.529   0.723  1.9955  1.2988 -0.3933
  560MOL0     H75568   6.363   8.309   0.638  3.5145 -1.6696 -3.1028
  560MOL0     H75569   6.326   8.366   0.487 -3.3664 -1.3609  2.2836
  560MOL0     H75570   6.568   8.453   0.639 -0.5690 -2.1081  0.8969
  560MOL0     H75571   6.511   8.558   0.517  1.1136  0.5775  2.8511
  560MOL0     H75572   6.674   8.409   0.417 -0.8765  3.1047  1.8985
  560MOL0     H75573   6.525   8.347   0.351  0.1349 -2.0072  0.1273
  560MOL0     H75574   6.671   8.251   0.593  1.8216  2.2560 -1.1161
  560MOL0     H75575   6.519   8.178   0.534 -0.3100 -0.1764 -2.0973
  560MOL0     H75576   6.765   8.202   0.352 -0.0712  1.9177  0.0385
  560MOL0     H75577   6.601   8.122   0.338 -1.6709  1.5186  2.5070
  560MOL0     H75578   6.681   7.977   0.556 -1.4664 -1.7583 -1.6567
  560MOL0     H75579   6.737   7.928   0.405 -2.4989  0.2264 -0.1465
  560MOL0     H75580   5.915   8.788   0.594 -0.8137  0.9227 -2.9531
  560MOL0     H75581   5.695   8.803   0.497  1.6258  0.8564 -0.2346
  560MOL0     H75582   5.358   8.509   0.095  0.5585 -0.6688  1.1974
  560MOL0     H75583   5.113   8.551   0.064 -1.1813  0.0001  1.1997
  560MOL0     H75584   3.577   8.271   0.953  1.6729 -1.5292  0.5323
  560MOL0     H75585   3.391   8.384   1.065 -2.5688  1.1629  3.2974
  560MOL0     H75586   3.192   8.633   1.282 -1.2768 -0.6141 -1.4646
  560MOL0     H75587   3.026   8.775   1.395 -1.5626 -1.3165 -2.0164
  560MOL0     H75588   2.754   8.878   1.611  1.7347  3.9184  2.1154
  560MOL0     H75589   2.862   8.868   1.469 -2.4117 -0.5449 -0.5442
  560MOL0     H75590   2.960   8.957   1.747  0.8893  2.9254  0.7494
  560MOL0     H75591   2.862   9.071   1.656  1.7806  1.5812 -1.3204
  560MOL0     H75592   3.000   9.081   1.472 -1.3653  1.7727  0.9971
  560MOL0     H75593   3.110   8.966   1.513  4.3463  2.4859  0.9285
  560MOL0     H75594   3.070   9.185   1.715 -0.8689 -0.9964  0.6984
  560MOL0     H75595   3.206   9.085   1.676 -0.2406 -0.6470  0.0965
  560MOL0     H75596   3.247   9.396   1.375  0.7223  0.3779  0.4785
  560MOL0     H75597   2.930   8.489   1.693  0.8335  1.5713  0.1569
  560MOL0     H75598   3.008   8.251   1.665 -1.1628 -0.3785 -0.5468
  560MOL0     H75599   2.996   8.210   1.499 -0.1939  0.5204  0.1318
  560MOL0     H75600   3.158   8.242   1.589  0.1362 -0.7673 -0.0851
  561MOL0     O75601   6.352   6.151   2.264 -0.0177 -0.1706  0.1693
  561MOL0     C75602   6.459   6.134   2.318  0.7672  0.0994 -0.4033
  561MOL0     O75603   6.571   6.079   2.259 -0.5581 -0.1835  0.2977
  561MOL0     C75604   6.568   6.019   2.138 -0.3201  1.1693  0.1767
  561MOL0     C75605   6.449   5.954   2.092  0.4908  0.5783 -0.0342
  561MOL0     C75606   6.461   5.866   1.980 -0.4143  0.1118 -0.1887
  561MOL0     C75607   6.576   5.849   1.906  0.0558  0.7937  0.3717
  561MOL0     O75608   6.579   5.738   1.814 -0.1779  0.2085 -0.0750
  561MOL0     C75609   6.630   5.752   1.682  0.7348 -0.3682 -0.2529
  561MOL0     C75610   6.677   5.621   1.598 -0.7067 -0.1107 -0.4857
  561MOL0     C75611   6.801   5.670   1.516  0.7042  0.2466  0.2711
  561MOL0     C75612   6.761   5.731   1.378 -0.0432  0.9407  0.2540
  561MOL0     C75613   6.882   5.804   1.315  0.2721 -0.4855  0.0862
  561MOL0     C75614   6.844   5.843   1.167 -0.5317  0.5793  0.9541
  561MOL0     C75615   6.950   5.932   1.103  0.0982  0.6104 -0.0573
  561MOL0     C75616   6.922   6.013   0.974 -0.2234  0.5328 -0.7191
  561MOL0     N75617   7.051   6.073   0.930 -0.1362 -0.7978  0.4736
  561MOL0     C75618   7.056   6.118   0.808 -0.2138  0.7010 -0.4242
  561MOL0     C75619   7.193   6.164   0.793 -0.5809 -0.4358 -0.5494
  561MOL0     C75620   7.250   6.223   0.669  1.0018 -0.3331 -0.5847
  561MOL0     C75621   7.343   6.118   0.600 -0.6968 -0.1255  0.3266
  561MOL0     C75622   7.383   6.157   0.452  1.0555  0.3577 -0.0873
  561MOL0     C75623   7.528   6.116   0.426  0.0803 -0.6048 -0.3395
  561MOL0     O75624   7.540   5.974   0.436  0.0381 -0.5044 -0.0393
  561MOL0     C75625   7.508   5.900   0.323  0.2792  0.2574 -0.4059
  561MOL0     C75626   7.456   5.951   0.207 -0.4628 -0.4716  0.8402
  561MOL0     C75627   7.415   5.869   0.099  0.7182 -0.2270 -1.1525
  561MOL0     C75628   7.442   5.732   0.116  0.8178  0.2098  1.1425
  561MOL0     C75629   7.404   5.642  -0.001 -0.5252 -0.3819 -0.1531
  561MOL0     O75630   7.393   5.703  -0.117  0.1269  0.2316 -0.3712
  561MOL0     C75631   7.334   5.646  -0.229  0.8105 -0.1635 -1.0231
  561MOL0     C75632   7.342   5.703  -0.359 -0.4431 -0.0038 -0.6319
  561MOL0     C75633   7.281   5.648  -0.473  1.1872  0.8262  0.3018
  561MOL0     C75634   7.173   5.556  -0.452  0.0636  0.4811 -0.0092
  561MOL0     O75635   7.118   5.489  -0.553  0.7172 -0.6071 -0.1812
  561MOL0     C75636   6.990   5.539  -0.594  0.0605  0.4279 -0.1742
  561MOL0     C75637   6.931   5.463  -0.715  0.4361 -0.0602 -0.0469
  561MOL0     C75638   6.891   5.315  -0.680  0.5730  0.7842  0.2685
  561MOL0     C75639   6.836   5.260  -0.819  0.2780  0.5408 -0.6813
  561MOL0     C75640   6.838   5.111  -0.818  0.2627  0.2477 -0.4676
  561MOL0     C75641   6.765   5.038  -0.698  0.0503 -0.0735 -0.3773
  561MOL0     C75642   6.789   4.887  -0.692 -0.1145 -0.1545 -0.1806
  561MOL0     C75643   6.770   4.837  -0.550 -0.0810  0.6840 -0.2415
  561MOL0    Cl75644   6.599   4.846  -0.508 -0.1472  0.1571 -0.1477
  561MOL0     C75645   7.157   5.506  -0.329 -0.3215 -0.9583  0.1157
  561MOL0     C75646   7.236   5.542  -0.221 -0.0175  0.2851  0.6920
  561MOL0     O75647   7.383   5.521   0.019  0.1782 -0.0504  0.5608
  561MOL0     C75648   7.494   5.683   0.235 -0.3605  0.9650 -0.8679
  561MOL0     C75649   7.527   5.765   0.341 -0.1778  0.1760 -0.1312
  561MOL0     N75650   7.263   6.139   0.915  0.2427 -0.0469  0.4290
  561MOL0     N75651   7.176   6.080   0.994 -0.3157 -0.0739  0.0198
  561MOL0     C75652   6.693   5.914   1.959  0.8079 -1.0499 -0.4816
  561MOL0     C75653   6.686   5.995   2.070  0.2419 -0.5941  0.2938
  561MOL0     C75654   6.491   6.201   2.447  0.2166  0.4537 -0.4458
  561MOL0     C75655   6.608   6.274   2.462 -0.6664 -0.9578 -0.5129
  561MOL0     C75656   6.638   6.343   2.584  0.0392  0.9974  0.2984
  561MOL0     C75657   6.536   6.355   2.676  0.0594 -0.2699 -0.4468
  561MOL0     O75658   6.556   6.419   2.796 -0.3359 -0.4755 -0.4558
  561MOL0     C75659   6.636   6.539   2.790  0.1284  0.1582 -0.4280
  561MOL0     C75660   6.540   6.662   2.776 -0.3047  0.1712  1.0853
  561MOL0     C75661   6.437   6.667   2.663  0.2234  0.1183 -0.9469
  561MOL0     C75662   6.509   6.679   2.524 -0.0278  0.6213 -0.5908
  561MOL0     C75663   6.408   6.686   2.425  0.7843 -0.1644 -0.4455
  561MOL0     C75664   6.319   6.717   2.344  0.0698 -0.2429  0.4612
  561MOL0     C75665   6.416   6.289   2.657 -0.4932 -0.9469  0.1561
  561MOL0     C75666   6.401   6.203   2.550  0.8603  0.0375 -0.2732
  561MOL0     C75667   6.277   6.123   2.547  0.1214 -0.3297 -0.4361
  561MOL0     H75668   6.358   5.949   2.151 -0.3561  1.2387 -1.2423
  561MOL0     H75669   6.379   5.799   1.954 -1.9768 -0.2243  4.5862
  561MOL0     H75670   6.540   5.795   1.637 -0.2610  2.5146  3.9744
  561MOL0     H75671   6.702   5.834   1.679 -0.3741  0.9392  3.6504
  561MOL0     H75672   6.599   5.573   1.538 -0.5871 -0.8671 -0.0563
  561MOL0     H75673   6.709   5.546   1.671  3.4515  0.5192 -1.3675
  561MOL0     H75674   6.866   5.584   1.493  0.2774  0.9917 -4.6234
  561MOL0     H75675   6.863   5.742   1.570  2.4236 -1.0046  0.0565
  561MOL0     H75676   6.725   5.650   1.314 -0.5079  1.4229 -0.1070
  561MOL0     H75677   6.676   5.799   1.392  0.2064  1.4783 -0.7426
  561MOL0     H75678   6.902   5.897   1.369 -3.0815 -0.8723  2.2517
  561MOL0     H75679   6.974   5.749   1.339 -0.4900 -0.4998  3.3868
  561MOL0     H75680   6.840   5.758   1.099 -1.4963  2.8704 -2.0859
  561MOL0     H75681   6.751   5.901   1.165 -4.5360 -5.0280 -0.7416
  561MOL0     H75682   7.026   5.864   1.063 -0.6535  0.2423 -0.9259
  561MOL0     H75683   7.000   5.993   1.178  2.5249 -2.5279  1.1029
  561MOL0     H75684   6.885   5.936   0.905 -1.7487 -0.1197  0.7479
  561MOL0     H75685   6.863   6.095   1.014  0.5632  1.2865 -1.0756
  561MOL0     H75686   6.983   6.109   0.728  0.1541 -5.3907 -0.5385
  561MOL0     H75687   7.170   6.250   0.599 -0.3810 -4.0045 -0.6191
  561MOL0     H75688   7.297   6.321   0.687 -1.2417  0.6492  0.3278
  561MOL0     H75689   7.437   6.112   0.656  0.1416 -1.8226 -1.1621
  561MOL0     H75690   7.291   6.023   0.613 -1.3967  0.2464  0.3117
  561MOL0     H75691   7.364   6.264   0.441 -2.1069  0.0386  1.0842
  561MOL0     H75692   7.301   6.119   0.389  0.4873  3.3302 -1.3293
  561MOL0     H75693   7.592   6.168   0.498  0.9903 -2.5375  0.3053
  561MOL0     H75694   7.565   6.151   0.329  3.2271 -0.6017  0.7456
  561MOL0     H75695   7.412   6.048   0.190 -0.4891 -0.9877 -2.7495
  561MOL0     H75696   7.353   5.913   0.022  1.5043 -0.2019 -1.7910
  561MOL0     H75697   7.413   5.783  -0.379 -2.1989  1.4973 -1.0946
  561MOL0     H75698   7.307   5.683  -0.572  0.3815  3.0800  0.8276
  561MOL0     H75699   6.915   5.557  -0.517  0.9721  4.2971  0.0428
  561MOL0     H75700   7.005   5.641  -0.633 -1.2548  0.3867 -0.8416
  561MOL0     H75701   6.846   5.523  -0.749  0.7805  1.5599  1.7480
  561MOL0     H75702   7.008   5.461  -0.793 -0.9050 -2.3470 -1.4078
  561MOL0     H75703   6.988   5.266  -0.665 -0.0512 -0.6140 -0.0853
  561MOL0     H75704   6.821   5.303  -0.597 -1.3084  1.2629 -1.1815
  561MOL0     H75705   6.901   5.298  -0.899  2.4329 -0.4563  0.4959
  561MOL0     H75706   6.734   5.300  -0.822  0.0818  0.7993  3.3956
  561MOL0     H75707   6.938   5.069  -0.834  0.1361  0.2225 -1.2604
  561MOL0     H75708   6.787   5.078  -0.909  0.0965 -1.2976  0.1575
  561MOL0     H75709   6.801   5.072  -0.600  2.9238  0.2038 -1.4257
  561MOL0     H75710   6.658   5.059  -0.692  0.5460  3.3657 -1.2000
  561MOL0     H75711   6.888   4.858  -0.726  1.5833  0.2977  3.7774
  561MOL0     H75712   6.716   4.836  -0.755 -1.2724  1.2388 -0.0207
  561MOL0     H75713   6.801   4.732  -0.547  2.6443  1.2104 -3.7609
  561MOL0     H75714   6.827   4.899  -0.480 -1.6683  0.3148  1.4660
  561MOL0     H75715   7.076   5.437  -0.304  0.4910 -2.9221 -2.3331
  561MOL0     H75716   7.210   5.500  -0.124  3.1842 -1.3903  0.9653
  561MOL0     H75717   7.522   5.578   0.236 -1.9035  0.5010  1.9824
  561MOL0     H75718   7.570   5.730   0.435 -0.8156 -0.5266 -0.0973
  561MOL0     H75719   6.790   5.887   1.920  1.5511 -0.8408  1.1402
  561MOL0     H75720   6.780   6.035   2.105  0.6612 -1.3453  0.0625
  561MOL0     H75721   6.683   6.283   2.385  1.4567  4.2758  1.6555
  561MOL0     H75722   6.740   6.377   2.594  1.0714 -1.1923 -1.6239
  561MOL0     H75723   6.708   6.551   2.708  1.8833 -1.7344  0.7419
  561MOL0     H75724   6.696   6.547   2.881 -1.1970  1.5464  0.3752
  561MOL0     H75725   6.602   6.752   2.780 -0.0156 -0.0613  3.4507
  561MOL0     H75726   6.475   6.656   2.864  1.1829  0.9804  2.2876
  561MOL0     H75727   6.378   6.757   2.684 -1.2016 -0.6850 -1.3518
  561MOL0     H75728   6.372   6.581   2.680  1.6248 -0.5977  1.0527
  561MOL0     H75729   6.572   6.769   2.528  2.6486 -1.1761  0.7312
  561MOL0     H75730   6.566   6.591   2.493 -3.5127 -1.7020 -0.9680
  561MOL0     H75731   6.240   6.739   2.275  0.7719 -1.7018 -0.8455
  561MOL0     H75732   6.340   6.312   2.732 -0.7504  1.7304 -0.8133
  561MOL0     H75733   6.195   6.187   2.514  1.4987  0.9618 -1.4991
  561MOL0     H75734   6.280   6.032   2.486  0.2106  0.4860 -1.6841
  561MOL0     H75735   6.238   6.086   2.642 -1.1878 -2.0152 -1.5555
  562MOL0     O75736   2.325   0.950   9.831 -0.2877 -0.7615 -1.0448
  562MOL0     C75737   2.232   0.996   9.767  0.3496  0.4652 -0.4713
  562MOL0     O75738   2.230   1.001   9.627 -0.0184 -0.5477 -0.4188
  562MOL0     C75739   2.350   0.965   9.564 -0.6935  0.1008 -0.1837
  562MOL0     C75740   2.447   1.067   9.539  0.1857  0.5779 -0.1335
  562MOL0     C75741   2.566   1.040   9.468 -0.1027 -0.1564  0.1248
  562MOL0     C75742   2.590   0.910   9.424  0.5719 -0.2941  0.3620
  562MOL0     O75743   2.705   0.878   9.350  0.7991 -0.3571  0.6767
  562MOL0     C75744   2.831   0.931   9.395 -0.7389 -0.8919 -0.2364
  562MOL0     C75745   2.953   0.883   9.314 -0.3747 -0.2095  1.3810
  562MOL0     C75746   2.947   0.911   9.166 -0.4989  0.0968 -0.5602
  562MOL0     C75747   3.031   0.816   9.081  0.8049 -0.3384  0.2814
  562MOL0     C75748   2.997   0.830   8.926 -0.2127 -0.4664  0.1449
  562MOL0     C75749   3.033   0.963   8.857 -0.4596 -0.5883  0.0138
  562MOL0     C75750   2.990   0.960   8.712 -0.0693  0.7009  0.1542
  562MOL0     C75751   3.019   1.090   8.643  0.3448  1.4786  1.1019
  562MOL0     N75752   3.169   1.111   8.638  0.9873  0.6209  0.1271
  562MOL0     C75753   3.234   1.234   8.656 -0.1453  0.2345  0.8244
  562MOL0     C75754   3.363   1.201   8.617  0.9954  0.0141  0.4150
  562MOL0     C75755   3.477   1.305   8.627 -0.4083  0.7368  0.4091
  562MOL0     C75756   3.553   1.287   8.756 -0.6082  1.1648 -1.0048
  562MOL0     C75757   3.469   1.304   8.877 -0.2968 -0.4513  0.1790
  562MOL0     C75758   3.557   1.341   8.990  0.3882  0.3981 -0.5787
  562MOL0     O75759   3.598   1.482   8.996  0.0563 -0.4329  0.4641
  562MOL0     C75760   3.711   1.524   9.072  0.0550  0.1603  0.9046
  562MOL0     C75761   3.828   1.441   9.092  0.4196 -0.0341 -0.5990
  562MOL0     C75762   3.933   1.484   9.180 -1.1821  0.6827  0.1438
  562MOL0     C75763   3.932   1.611   9.232 -0.0129 -0.3348 -0.0205
  562MOL0     C75764   4.035   1.675   9.317  0.6154 -0.0278 -0.5589
  562MOL0     O75765   4.142   1.600   9.323  0.5963 -0.0349  0.0738
  562MOL0     C75766   4.260   1.630   9.393  0.3173 -1.2631 -0.4261
  562MOL0     C75767   4.354   1.526   9.410 -0.1210 -1.7316  0.1641
  562MOL0     C75768   4.467   1.540   9.491  0.2165 -1.0056  0.9231
  562MOL0     C75769   4.495   1.673   9.542 -0.8121 -0.4783  0.1384
  562MOL0     O75770   4.617   1.692   9.610  0.0526 -0.8138 -0.1247
  562MOL0     C75771   4.679   1.822   9.615  0.4898  0.6139  0.3489
  562MOL0     C75772   4.804   1.814   9.692 -0.2629  0.6678  0.8731
  562MOL0     C75773   4.893   1.933   9.663  0.2789  0.3446  0.3053
  562MOL0     C75774   5.041   1.913   9.657 -0.4836 -0.3910  0.2313
  562MOL0     C75775   5.104   2.041   9.612  0.1449 -0.3974  0.1531
  562MOL0     C75776   5.106   2.042   9.451 -0.0713  0.2089  0.6523
  562MOL0     C75777   5.141   2.176   9.395 -0.2876 -0.2215  0.7762
  562MOL0     C75778   5.023   2.278   9.377  0.2965 -0.3780  0.1947
  562MOL0    Cl75779   4.901   2.232   9.254 -0.4322  0.0115  0.1661
  562MOL0     C75780   4.401   1.780   9.517  0.6882  0.2368 -0.2426
  562MOL0     C75781   4.276   1.751   9.461  0.0436 -0.4993 -0.0318
  562MOL0     O75782   4.013   1.782   9.378 -0.3037 -0.0345  0.0541
  562MOL0     C75783   3.821   1.691   9.205 -0.5082 -0.9674  0.5689
  562MOL0     C75784   3.714   1.648   9.129  0.6691  0.7210 -0.3489
  562MOL0     N75785   3.369   1.066   8.576 -0.2962 -0.6661  0.5465
  562MOL0     N75786   3.257   1.012   8.595 -0.6908 -0.2034 -0.1378
  562MOL0     C75787   2.490   0.812   9.446 -0.0247  0.2032 -0.0043
  562MOL0     C75788   2.376   0.837   9.521  0.3320  0.4830 -0.2672
  562MOL0     C75789   2.098   1.015   9.838 -0.6387 -0.2905  0.4193
  562MOL0     C75790   1.987   1.044   9.758  0.2470  0.1170  0.2661
  562MOL0     C75791   1.864   1.047   9.816  0.0452 -1.3251  0.1883
  562MOL0     C75792   1.826   1.035   9.947  0.6059 -0.4081 -0.2395
  562MOL0     O75793   1.699   1.058   9.985  0.5181 -0.2127 -0.1673
  562MOL0     C75794   1.651   0.955  10.076  0.1051  0.6504 -1.1301
  562MOL0     C75795   1.628   0.818  10.008 -0.0553 -0.1153 -0.0793
  562MOL0     C75796   1.554   0.708  10.095  0.5136 -0.2747  1.0285
  562MOL0     C75797   1.620   0.682  10.221 -0.1434 -0.2268  0.2982
  562MOL0     C75798   1.571   0.769  10.328  0.3292  0.3658 -0.4767
  562MOL0     C75799   1.538   0.856  10.407  0.2261  1.0181 -0.9990
  562MOL0     C75800   1.939   1.016  10.036  0.1892 -0.6967  0.6279
  562MOL0     C75801   2.080   1.013   9.981 -0.0082  0.8250  0.8599
  562MOL0     C75802   2.192   0.993  10.071  0.4634 -0.0412 -0.6285
  562MOL0     H75803   2.431   1.169   9.574  1.6183  0.5258  0.7556
  562MOL0     H75804   2.640   1.118   9.458  0.2843 -0.7427 -2.1272
  562MOL0     H75805   2.827   1.040   9.392  1.7190 -0.7633 -0.6772
  562MOL0     H75806   2.849   0.904   9.500  2.4000  0.7043 -0.2589
  562MOL0     H75807   2.960   0.776   9.336 -1.2994 -0.0058  2.7928
  562MOL0     H75808   3.051   0.924   9.342  0.8996 -2.3716  0.3922
  562MOL0     H75809   2.980   1.012   9.141 -0.1478 -0.4885 -2.6602
  562MOL0     H75810   2.845   0.893   9.129 -0.6774  2.7510 -1.5715
  562MOL0     H75811   3.138   0.828   9.097  0.7861  0.2812 -0.0106
  562MOL0     H75812   3.012   0.713   9.111  0.5984 -0.3419  0.1417
  562MOL0     H75813   3.046   0.765   8.853 -0.1066 -0.6727  0.3970
  562MOL0     H75814   2.892   0.800   8.919 -0.4198 -0.2347  1.8607
  562MOL0     H75815   2.988   1.047   8.911 -0.8426 -0.0148 -1.1690
  562MOL0     H75816   3.142   0.960   8.872 -0.6886 -1.3386  1.8140
  562MOL0     H75817   2.883   0.943   8.722 -0.1438  2.0030  2.3824
  562MOL0     H75818   3.018   0.880   8.644  0.9494  0.2989  1.0131
  562MOL0     H75819   2.987   1.104   8.539  3.3144 -1.3871 -0.3743
  562MOL0     H75820   2.967   1.160   8.708  1.4938  1.9176  1.5818
  562MOL0     H75821   3.187   1.320   8.703 -0.6839 -0.0934  0.8962
  562MOL0     H75822   3.547   1.278   8.547 -1.5161 -0.7310 -0.1151
  562MOL0     H75823   3.429   1.402   8.609 -2.9772 -0.7483 -1.3344
  562MOL0     H75824   3.593   1.185   8.758  1.0207  1.7281 -2.5889
  562MOL0     H75825   3.634   1.359   8.740 -0.2561  0.2944 -3.5159
  562MOL0     H75826   3.404   1.217   8.894 -0.2299 -0.4552  0.4304
  562MOL0     H75827   3.400   1.389   8.872 -0.8772 -0.8517  1.0244
  562MOL0     H75828   3.641   1.273   9.001 -0.7724 -0.6676  3.4614
  562MOL0     H75829   3.492   1.327   9.077 -0.7778  1.5022 -1.2257
  562MOL0     H75830   3.849   1.345   9.046  2.2870 -0.4945  1.0694
  562MOL0     H75831   4.008   1.411   9.208 -1.6770 -0.2995 -1.0096
  562MOL0     H75832   4.334   1.427   9.370  2.7638 -1.5371 -2.0283
  562MOL0     H75833   4.531   1.459   9.527 -0.4811 -0.7222  2.9161
  562MOL0     H75834   4.697   1.848   9.511 -0.6779  1.4444  0.3299
  562MOL0     H75835   4.613   1.893   9.667  1.7378  0.8531  1.6777
  562MOL0     H75836   4.781   1.814   9.799  1.7237 -1.1115  1.3549
  562MOL0     H75837   4.858   1.721   9.674 -0.1087  0.5724  1.7743
  562MOL0     H75838   4.865   1.962   9.561  0.7205 -1.4316 -0.3490
  562MOL0     H75839   4.871   2.019   9.727 -1.4378  0.4037 -0.3209
  562MOL0     H75840   5.066   1.837   9.582  0.4670  1.1683 -1.0806
  562MOL0     H75841   5.067   1.870   9.754 -0.3961 -0.5275  0.1491
  562MOL0     H75842   5.205   2.050   9.652 -0.3500 -0.2699  1.4136
  562MOL0     H75843   5.046   2.130   9.638 -1.3517 -0.8489 -1.4230
  562MOL0     H75844   5.181   1.970   9.416  0.8628  0.1859  2.5928
  562MOL0     H75845   5.005   2.018   9.417 -1.6310  0.4010  4.6142
  562MOL0     H75846   5.189   2.168   9.297  1.2578 -0.1460  1.5004
  562MOL0     H75847   5.215   2.225   9.458  2.1619 -1.8014 -0.7309
  562MOL0     H75848   4.978   2.292   9.475  0.2857 -0.3550  0.1863
  562MOL0     H75849   5.060   2.376   9.344 -2.2063  0.1460 -1.3440
  562MOL0     H75850   4.424   1.883   9.542 -0.4977 -0.0139  2.1555
  562MOL0     H75851   4.210   1.836   9.451 -0.4645 -1.1044 -2.5895
  562MOL0     H75852   3.813   1.793   9.243  2.6140 -1.1556  1.9952
  562MOL0     H75853   3.628   1.713   9.119  0.5821  0.6900  0.1473
  562MOL0     H75854   2.513   0.709   9.423 -0.3439 -0.1150  1.0571
  562MOL0     H75855   2.296   0.769   9.548  1.6820 -0.7235  0.8286
  562MOL0     H75856   1.994   1.062   9.652  1.1346  1.6186  0.5492
  562MOL0     H75857   1.780   1.067   9.749 -1.6361 -1.4621  2.1668
  562MOL0     H75858   1.555   0.986  10.118  1.0867  0.2778  1.6174
  562MOL0     H75859   1.717   0.942  10.163 -4.1740 -2.1422  2.0829
  562MOL0     H75860   1.723   0.789   9.962 -1.2613 -2.9813 -0.9514
  562MOL0     H75861   1.554   0.840   9.931 -2.5693 -1.1495  1.8931
  562MOL0     H75862   1.571   0.617  10.038  2.9967 -1.2251  3.1315
  562MOL0     H75863   1.446   0.726  10.104  0.7590  0.7061  2.4936
  562MOL0     H75864   1.605   0.578  10.251  2.4934 -0.7906 -0.1300
  562MOL0     H75865   1.728   0.688  10.209 -0.4545  0.8983 -3.4077
  562MOL0     H75866   1.502   0.933  10.472  0.8011 -1.1911  2.1814
  562MOL0     H75867   1.928   1.013  10.144 -4.0093  2.1314  0.5307
  562MOL0     H75868   2.281   1.050  10.040  1.1779  0.7353  2.4690
  562MOL0     H75869   2.154   1.035  10.164 -1.1420  1.4670 -1.8888
  562MOL0     H75870   2.218   0.889  10.093 -0.2258 -0.1272 -0.2056
  563MOL0     O75871   9.401  10.737   1.984  0.5149  0.2054 -0.6528
  563MOL0     C75872   9.388  10.622   2.018 -0.0657  0.1311  0.0235
  563MOL0     O75873   9.291  10.584   2.104 -0.2779  0.0933  0.0517
  563MOL0     C75874   9.218  10.678   2.160 -0.6857  0.4156  0.2705
  563MOL0     C75875   9.108  10.722   2.093  0.3223  0.4559  0.1773
  563MOL0     C75876   9.034  10.832   2.133  0.4107 -0.0641  0.2376
  563MOL0     C75877   9.062  10.893   2.255  0.6449 -0.2029  0.5157
  563MOL0     O75878   8.982  10.994   2.314 -0.1259  0.5367  0.1053
  563MOL0     C75879   8.952  11.110   2.239  0.5072  0.1524  0.5204
  563MOL0     C75880   9.060  11.226   2.268  0.5837  0.0795 -0.1822
  563MOL0     C75881   9.087  11.336   2.158  0.1708 -0.4355 -0.1061
  563MOL0     C75882   9.195  11.431   2.217 -0.2061 -0.4854 -0.3795
  563MOL0     C75883   9.200  11.566   2.147  0.8995  0.2219  0.0559
  563MOL0     C75884   9.285  11.578   2.026  0.6065 -0.0297  0.2758
  563MOL0     C75885   9.238  11.694   1.944  0.2201 -0.6610 -0.1775
  563MOL0     C75886   9.112  11.664   1.851 -0.0069  0.2744 -0.6275
  563MOL0     N75887   9.158  11.571   1.739 -0.3813 -0.7516  0.7718
  563MOL0     C75888   9.258  11.617   1.653  0.5224  0.3167  0.2647
  563MOL0     C75889   9.270  11.528   1.552  0.9441 -0.2555 -0.0577
  563MOL0     C75890   9.358  11.535   1.434  0.0116  0.1203  0.2012
  563MOL0     C75891   9.284  11.610   1.318  0.0507  0.9910  0.3172
  563MOL0     C75892   9.204  11.521   1.228 -0.1092 -0.3299  0.6278
  563MOL0     C75893   9.159  11.597   1.113  0.0583 -0.1214 -0.1086
  563MOL0     O75894   9.093  11.508   1.024  0.2264  0.1472  0.6343
  563MOL0     C75895   9.059  11.546   0.901 -0.5704 -0.6660 -0.7117
  563MOL0     C75896   9.095  11.672   0.832  0.4887  0.4984 -0.2943
  563MOL0     C75897   9.049  11.696   0.707  0.4428 -0.1863  0.2569
  563MOL0     C75898   8.959  11.596   0.645 -0.4958 -0.5596 -0.0412
  563MOL0     C75899   8.907  11.630   0.521 -1.1970  0.6272 -0.7698
  563MOL0     O75900   8.787  11.575   0.492 -0.5634 -0.4128  0.0332
  563MOL0     C75901   8.730  11.600   0.372  0.4039  0.1619  0.6492
  563MOL0     C75902   8.722  11.498   0.265  0.4203 -0.4095 -1.2025
  563MOL0     C75903   8.651  11.523   0.147 -0.3861 -0.1565 -0.4436
  563MOL0     C75904   8.588  11.641   0.125  0.0916  0.6220  1.1259
  563MOL0     O75905   8.511  11.668   0.013 -1.1037 -0.0156  0.0528
  563MOL0     C75906   8.478  11.566  -0.072 -0.1684  0.5353  0.6705
  563MOL0     C75907   8.361  11.611  -0.156 -0.3465 -0.2916 -0.5138
  563MOL0     C75908   8.370  11.753  -0.208 -0.1123 -0.1594  0.5647
  563MOL0     C75909   8.277  11.768  -0.332 -0.0646  0.5076 -0.3333
  563MOL0     C75910   8.257  11.915  -0.366  0.9361 -0.6920  0.4072
  563MOL0     C75911   8.257  11.954  -0.513  0.2611 -0.7670  0.9549
  563MOL0     C75912   8.185  12.096  -0.532  0.8164  0.8428 -0.9377
  563MOL0     C75913   8.279  12.209  -0.478 -0.3332  0.2525  0.1791
  563MOL0    Cl75914   8.234  12.345  -0.587  0.3908  0.5287  0.3350
  563MOL0     C75915   8.589  11.741   0.224  0.3537 -0.5748  0.5988
  563MOL0     C75916   8.674  11.723   0.334  0.1794  0.1359 -0.4858
  563MOL0     O75917   8.961  11.713   0.455  0.2505 -0.6314  0.4279
  563MOL0     C75918   8.927  11.477   0.707 -0.1329  0.5764 -0.1696
  563MOL0     C75919   8.988  11.457   0.826  0.6698  0.1439 -0.9659
  563MOL0     N75920   9.171  11.435   1.569  0.0786  0.4759  0.1400
  563MOL0     N75921   9.114  11.456   1.687 -0.1007 -0.2957 -0.5301
  563MOL0     C75922   9.181  10.851   2.330 -0.7819 -0.0291 -0.3240
  563MOL0     C75923   9.268  10.754   2.271  0.0341  0.1033 -0.2173
  563MOL0     C75924   9.488  10.522   1.976  0.9567  0.5501  0.1929
  563MOL0     C75925   9.558  10.551   1.853 -1.2335 -0.2968  0.2467
  563MOL0     C75926   9.675  10.480   1.804  0.7017  0.8264  0.1038
  563MOL0     C75927   9.704  10.363   1.870 -0.6545  0.1986 -0.7447
  563MOL0     O75928   9.813  10.291   1.833 -0.2689  0.6937 -0.9015
  563MOL0     C75929   9.794  10.186   1.745  0.1090 -0.9953  0.2834
  563MOL0     C75930   9.763  10.045   1.815  0.2071  0.5746  0.0078
  563MOL0     C75931   9.841   9.998   1.944  0.2024 -1.2107  0.0848
  563MOL0     C75932   9.749   9.891   2.011 -0.5962 -0.1457 -1.5268
  563MOL0     C75933   9.845   9.837   2.112  0.0341  0.3469  0.2379
  563MOL0     C75934   9.927   9.804   2.188  0.1075 -0.2638  0.3015
  563MOL0     C75935   9.628  10.332   1.988 -0.6455  0.6171  0.3893
  563MOL0     C75936   9.523  10.400   2.038  0.9958  0.2235  0.5458
  563MOL0     C75937   9.452  10.356   2.163 -1.1457  0.2728  0.9938
  563MOL0     H75938   9.095  10.671   1.998  0.8360  2.4281 -1.0097
  563MOL0     H75939   8.948  10.868   2.077 -0.7267  3.0429  3.5645
  563MOL0     H75940   8.948  11.080   2.134 -1.0900  0.8079  0.3692
  563MOL0     H75941   8.850  11.133   2.269  0.9005  0.8080  1.4045
  563MOL0     H75942   9.154  11.172   2.283 -0.4833 -2.4277 -1.8507
  563MOL0     H75943   9.029  11.266   2.365 -1.3454 -2.8434  0.5585
  563MOL0     H75944   8.998  11.392   2.129 -2.8554 -4.9543 -0.4201
  563MOL0     H75945   9.121  11.292   2.064  3.1221  0.5937  0.3741
  563MOL0     H75946   9.172  11.448   2.322  2.1801  3.6079 -0.3190
  563MOL0     H75947   9.289  11.380   2.195  1.4546  2.4721 -0.5936
  563MOL0     H75948   9.094  11.589   2.143  0.9202  0.2424 -2.3031
  563MOL0     H75949   9.245  11.634   2.220  0.2317  0.1393  0.5484
  563MOL0     H75950   9.387  11.593   2.062 -0.5461 -1.2532  4.8497
  563MOL0     H75951   9.288  11.483   1.971  0.8049  0.6324 -0.8833
  563MOL0     H75952   9.322  11.731   1.885 -2.0879 -0.6594 -3.7680
  563MOL0     H75953   9.215  11.781   2.005 -0.3179 -1.6099  1.0190
  563MOL0     H75954   9.023  11.628   1.904  0.3004 -1.0157 -0.9438
  563MOL0     H75955   9.069  11.758   1.815 -0.4826 -0.4493 -2.0267
  563MOL0     H75956   9.335  11.692   1.666 -0.6174  2.1532 -2.5145
  563MOL0     H75957   9.444  11.597   1.460 -0.2587  0.6970 -0.2688
  563MOL0     H75958   9.394  11.434   1.411 -1.2163 -1.1515  3.2470
  563MOL0     H75959   9.207  11.678   1.356 -3.0091  0.7246 -4.5710
  563MOL0     H75960   9.355  11.666   1.258  1.7374 -2.4357 -1.1795
  563MOL0     H75961   9.120  11.470   1.275  0.0124  1.2699  2.7325
  563MOL0     H75962   9.273  11.441   1.200  0.4401  1.6395 -4.9807
  563MOL0     H75963   9.232  11.670   1.077 -0.8816  0.8069 -0.1521
  563MOL0     H75964   9.087  11.664   1.160  0.9770 -0.0413  1.2635
  563MOL0     H75965   9.144  11.752   0.886 -0.4497  0.9895 -0.1393
  563MOL0     H75966   9.078  11.790   0.661  0.1662  0.3915  1.2234
  563MOL0     H75967   8.764  11.405   0.302  0.3293  0.4795  1.3497
  563MOL0     H75968   8.656  11.441   0.076 -0.7876 -1.8692  1.4128
  563MOL0     H75969   8.562  11.542  -0.137 -1.3067  0.4546 -0.8274
  563MOL0     H75970   8.445  11.467  -0.041  2.0712 -1.0279 -1.5642
  563MOL0     H75971   8.351  11.537  -0.237  0.0241 -1.1947  0.2381
  563MOL0     H75972   8.276  11.603  -0.087 -0.8914 -0.3920 -1.1866
  563MOL0     H75973   8.353  11.825  -0.128  0.4341  0.3080  0.2702
  563MOL0     H75974   8.466  11.770  -0.258 -2.5160  0.3658 -4.6115
  563MOL0     H75975   8.185  11.712  -0.315  1.2424 -1.4337  0.6599
  563MOL0     H75976   8.325  11.719  -0.418 -0.1348  0.0425 -0.1098
  563MOL0     H75977   8.340  11.976  -0.329 -0.8617  1.9376  0.4281
  563MOL0     H75978   8.172  11.957  -0.313  1.8595  2.8338 -0.6148
  563MOL0     H75979   8.360  11.970  -0.546 -0.6506  2.0731 -0.9320
  563MOL0     H75980   8.208  11.873  -0.569  2.8895 -4.2564  3.2534
  563MOL0     H75981   8.084  12.105  -0.493  1.6082  1.2660  1.1477
  563MOL0     H75982   8.182  12.101  -0.641 -1.3025 -3.1167 -1.2514
  563MOL0     H75983   8.257  12.234  -0.374  0.6343 -1.3535  0.8100
  563MOL0     H75984   8.384  12.193  -0.504  0.0762  2.8032 -0.0205
  563MOL0     H75985   8.538  11.836   0.221  1.4025  0.1230  3.0215
  563MOL0     H75986   8.697  11.810   0.394 -1.1229  0.4535 -0.4337
  563MOL0     H75987   8.862  11.406   0.655  1.0895 -1.4167  0.8887
  563MOL0     H75988   8.954  11.363   0.868 -1.9820  1.7245  0.6920
  563MOL0     H75989   9.199  10.887   2.431 -2.9027 -0.5912  0.2961
  563MOL0     H75990   9.360  10.718   2.316  1.4600  1.6504 -1.7884
  563MOL0     H75991   9.526  10.635   1.793 -1.8116 -0.7809 -0.1359
  563MOL0     H75992   9.727  10.509   1.713  2.7676 -0.3312  0.8565
  563MOL0     H75993   9.892  10.158   1.706 -0.0519 -1.7570  0.4090
  563MOL0     H75994   9.707  10.199   1.681 -0.2453 -1.6431  0.6231
  563MOL0     H75995   9.783   9.960   1.750 -1.5133 -1.3367  1.8484
  563MOL0     H75996   9.655  10.034   1.828  0.0665 -2.3346 -2.4442
  563MOL0     H75997   9.861  10.088   2.003 -1.5271  2.1509 -3.9738
  563MOL0     H75998   9.938   9.958   1.913  0.8427  0.6854 -0.4747
  563MOL0     H75999   9.657   9.938   2.047 -1.7073 -3.6740  0.7392
  563MOL0     H76000   9.706   9.818   1.941 -2.8543  0.9761 -1.4290
  563MOL0     H76001  10.013   9.766   2.241  0.1331 -0.3626  0.1879
  563MOL0     H76002   9.663  10.253   2.054 -2.7493  0.7408  1.7547
  563MOL0     H76003   9.491  10.260   2.198  2.0340  1.2530  0.4852
  563MOL0     H76004   9.465  10.420   2.251 -1.0021 -2.3923  3.0470
  563MOL0     H76005   9.347  10.343   2.135  0.0806 -1.9827 -3.6391
  564MOL0     O76006   1.302   9.952   0.702  0.3292 -0.5707  1.4302
  564MOL0     C76007   1.389   9.911   0.780  0.4504 -0.3357 -0.1141
  564MOL0     O76008   1.388   9.921   0.922  0.3747  0.4613  0.1618
  564MOL0     C76009   1.285   9.978   0.995  0.1132  0.1012  0.2964
  564MOL0     C76010   1.160  10.044   0.941 -0.9139  0.9681  0.1946
  564MOL0     C76011   1.050  10.076   1.016 -0.3040 -0.2376  0.4347
  564MOL0     C76012   1.056  10.039   1.151  0.8265  0.3409  0.0293
  564MOL0     O76013   0.948  10.091   1.223 -0.3719  0.2578 -0.2320
  564MOL0     C76014   0.937  10.053   1.367  1.1934 -0.2501 -0.2278
  564MOL0     C76015   0.827  10.140   1.414  1.3354 -0.5033 -0.2280
  564MOL0     C76016   0.809  10.149   1.561  0.5282  1.1228  0.3903
  564MOL0     C76017   0.720  10.251   1.608 -0.8216 -0.4029  1.0325
  564MOL0     C76018   0.575  10.210   1.584  0.4372  0.0040 -0.9628
  564MOL0     C76019   0.488  10.338   1.611  0.0824 -0.6126 -0.3296
  564MOL0     C76020   0.339  10.316   1.624  0.5485  0.5095 -0.1282
  564MOL0     C76021   0.299  10.327   1.767 -0.8552  0.5461 -0.8035
  564MOL0     N76022   0.351  10.216   1.849 -0.2533 -0.0810  0.3597
  564MOL0     C76023   0.347  10.079   1.855 -0.4631 -0.1283  0.0178
  564MOL0     C76024   0.426  10.046   1.959 -1.3122  1.2915  0.3046
  564MOL0     C76025   0.463   9.900   2.000 -0.3933  0.4535 -0.2546
  564MOL0     C76026   0.615   9.884   2.012  0.2653 -0.1705  0.0375
  564MOL0     C76027   0.702   9.910   1.879  0.2726  1.0322  0.6158
  564MOL0     C76028   0.857   9.870   1.907  1.2685 -0.3253 -0.0003
  564MOL0     O76029   0.933   9.926   1.804 -0.3747  0.2740  0.1957
  564MOL0     C76030   1.069   9.898   1.812 -1.0106 -0.6059 -0.8756
  564MOL0     C76031   1.149   9.913   1.694  0.7568  0.3889  0.1082
  564MOL0     C76032   1.284   9.874   1.679 -0.0483 -0.0698  0.0318
  564MOL0     C76033   1.347   9.822   1.797  0.1883 -0.2249  0.3406
  564MOL0     C76034   1.486   9.774   1.788  0.0366  0.3741 -0.0688
  564MOL0     O76035   1.536   9.715   1.898 -0.3477 -0.1957  0.1280
  564MOL0     C76036   1.664   9.667   1.910 -0.2212  0.5225  0.4420
  564MOL0     C76037   1.765   9.677   1.816 -0.5442 -0.0918  0.3024
  564MOL0     C76038   1.891   9.625   1.848  0.2417  0.3009 -0.9837
  564MOL0     C76039   1.915   9.553   1.966 -0.9092  0.4480 -0.3098
  564MOL0     O76040   2.048   9.510   1.974  0.2765  0.3178  0.3319
  564MOL0     C76041   2.101   9.480   2.110  0.6007 -0.0120 -0.1849
  564MOL0     C76042   2.216   9.382   2.094  0.0392  0.3635  0.1076
  564MOL0     C76043   2.346   9.459   2.027  0.1332 -0.1632 -0.2934
  564MOL0     C76044   2.435   9.538   2.127 -0.2975 -0.1780  0.4182
  564MOL0     C76045   2.493   9.669   2.086 -0.0909  0.0270  0.1019
  564MOL0     C76046   2.566   9.669   1.952 -0.6878 -0.8333  0.0528
  564MOL0     C76047   2.711   9.632   1.965  0.3901  0.7863 -0.0482
  564MOL0     C76048   2.779   9.620   1.829 -0.5956 -0.5401  0.4830
  564MOL0    Cl76049   2.714   9.487   1.719 -0.1031 -0.2908 -0.2227
  564MOL0     C76050   1.809   9.539   2.059  0.2042  0.8039 -0.7038
  564MOL0     C76051   1.688   9.599   2.026  0.1327  0.5182  0.1098
  564MOL0     O76052   1.545   9.804   1.680  0.1982 -0.1455 -0.3645
  564MOL0     C76053   1.274   9.808   1.915 -0.4396 -0.9255  0.4694
  564MOL0     C76054   1.141   9.851   1.928  0.4044 -0.3657  0.3799
  564MOL0     N76055   0.474  10.154   2.021 -0.0215  0.1041  0.0771
  564MOL0     N76056   0.438  10.252   1.950  1.1387  0.6146  0.2630
  564MOL0     C76057   1.172   9.984   1.216 -0.6340 -0.0233 -0.3847
  564MOL0     C76058   1.277   9.947   1.133  0.2729  0.6950 -0.2611
  564MOL0     C76059   1.518   9.868   0.711 -0.0362  0.6025  0.3342
  564MOL0     C76060   1.544   9.915   0.583  0.7381 -0.1406 -0.1547
  564MOL0     C76061   1.665   9.884   0.518  0.2939 -0.0210  0.6713
  564MOL0     C76062   1.757   9.795   0.578 -0.1288 -0.2292 -0.4350
  564MOL0     O76063   1.872   9.767   0.517  0.2351  0.8278 -0.3534
  564MOL0     C76064   1.887   9.767   0.380 -0.1133 -0.2444  0.3693
  564MOL0     C76065   2.037   9.774   0.344 -0.2128  0.6319 -0.1329
  564MOL0     C76066   2.121   9.658   0.402  0.6331  0.2021 -0.3506
  564MOL0     C76067   2.267   9.704   0.402 -0.2821 -0.0664 -0.3980
  564MOL0     C76068   2.353   9.586   0.399 -0.3772  0.1036 -0.0960
  564MOL0     C76069   2.417   9.484   0.384 -1.2249 -0.1637  0.2013
  564MOL0     C76070   1.723   9.744   0.704 -0.0445  1.1413 -0.3046
  564MOL0     C76071   1.598   9.759   0.758 -0.4373  0.3448  0.5343
  564MOL0     C76072   1.558   9.672   0.874  0.0233  0.2848 -0.4687
  564MOL0     H76073   1.153  10.072   0.836  1.3857  1.1583  0.0553
  564MOL0     H76074   0.962  10.125   0.975 -1.2170 -0.1687  2.3705
  564MOL0     H76075   0.901   9.950   1.370 -1.2361  0.4212 -2.4665
  564MOL0     H76076   1.025  10.072   1.428 -0.5595 -0.2920  2.5262
  564MOL0     H76077   0.731  10.121   1.365  2.0951  2.3244 -3.1360
  564MOL0     H76078   0.851  10.239   1.376  3.0339 -1.4089 -1.6611
  564MOL0     H76079   0.908  10.173   1.600  1.1151  1.9557 -1.5227
  564MOL0     H76080   0.782  10.055   1.610  0.9509  0.5569 -0.4509
  564MOL0     H76081   0.746  10.276   1.712 -0.8585 -0.0999  0.9703
  564MOL0     H76082   0.746  10.345   1.557 -0.5973 -0.8597  0.2999
  564MOL0     H76083   0.538  10.163   1.493  1.7890 -4.4029  0.5410
  564MOL0     H76084   0.553  10.130   1.656 -2.7552 -0.4359 -2.2819
  564MOL0     H76085   0.528  10.394   1.695 -0.8693 -0.4971  0.0669
  564MOL0     H76086   0.495  10.402   1.522 -0.9287  2.6161  1.7350
  564MOL0     H76087   0.316  10.215   1.589  2.0783  0.0987 -0.0141
  564MOL0     H76088   0.280  10.395   1.574  0.4402 -1.5912 -3.6799
  564MOL0     H76089   0.330  10.422   1.812  1.8198 -1.6204  2.4202
  564MOL0     H76090   0.190  10.323   1.774 -0.7874  0.0639  0.1440
  564MOL0     H76091   0.292  10.014   1.789 -1.0136  1.8835 -1.6105
  564MOL0     H76092   0.418   9.889   2.098  0.1187  3.9785  0.5150
  564MOL0     H76093   0.426   9.828   1.926 -2.7259  1.2488  0.0621
  564MOL0     H76094   0.650   9.952   2.090  0.0299 -2.8416  2.6786
  564MOL0     H76095   0.633   9.785   2.055  0.5591 -2.3943 -4.5914
  564MOL0     H76096   0.684  10.012   1.842 -2.5394 -0.2775 -2.0873
  564MOL0     H76097   0.671   9.844   1.798 -0.0760  0.9637  0.8026
  564MOL0     H76098   0.874   9.763   1.897  2.0468 -0.0077 -2.7462
  564MOL0     H76099   0.890   9.906   2.005 -1.3683  0.1270  0.7978
  564MOL0     H76100   1.086   9.941   1.610  0.8652 -2.0876 -0.8776
  564MOL0     H76101   1.336   9.899   1.587 -2.8710 -0.5279 -1.8202
  564MOL0     H76102   1.750   9.720   1.717  0.3782 -2.5264 -0.9754
  564MOL0     H76103   1.965   9.633   1.770 -1.0260 -1.5569 -2.4520
  564MOL0     H76104   2.147   9.570   2.153  2.0054 -1.2185  0.9561
  564MOL0     H76105   2.026   9.431   2.172  1.0578 -1.0757 -0.4508
  564MOL0     H76106   2.253   9.315   2.171  0.6627 -0.6803 -1.0559
  564MOL0     H76107   2.166   9.319   2.020 -0.7399  1.6348 -0.4714
  564MOL0     H76108   2.411   9.380   1.990 -2.0450 -0.9897 -2.6639
  564MOL0     H76109   2.315   9.532   1.951  0.0655 -0.6075 -0.6936
  564MOL0     H76110   2.516   9.478   2.169  1.0654 -0.5466 -2.5312
  564MOL0     H76111   2.360   9.572   2.200 -0.0878  1.6057 -0.1393
  564MOL0     H76112   2.552   9.730   2.155  0.0396  0.5062 -0.4203
  564MOL0     H76113   2.402   9.727   2.068  0.9159  0.8899 -2.9698
  564MOL0     H76114   2.508   9.617   1.875 -0.7175 -0.0509 -0.4640
  564MOL0     H76115   2.556   9.771   1.916 -1.5767 -0.6479  0.7717
  564MOL0     H76116   2.717   9.530   2.004 -1.0913 -0.1005 -1.9768
  564MOL0     H76117   2.773   9.698   2.026  1.7302  1.1185 -1.6855
  564MOL0     H76118   2.782   9.712   1.770  5.1679 -0.3452  0.5162
  564MOL0     H76119   2.886   9.623   1.850 -0.9798  1.7864  2.4967
  564MOL0     H76120   1.814   9.484   2.152  0.7016  1.7260 -0.1739
  564MOL0     H76121   1.605   9.591   2.096  0.3882  2.1547  0.6425
  564MOL0     H76122   1.321   9.780   2.008 -2.8190 -4.0491  0.9229
  564MOL0     H76123   1.099   9.842   2.028 -2.3548 -0.1451 -0.6721
  564MOL0     H76124   1.181   9.975   1.324 -2.1373 -1.2418 -0.3303
  564MOL0     H76125   1.364   9.901   1.177  1.1915  0.6100 -2.0657
  564MOL0     H76126   1.496  10.005   0.545 -0.7142 -0.4323  0.8695
  564MOL0     H76127   1.690   9.942   0.429  0.4156 -0.2655  0.5457
  564MOL0     H76128   1.841   9.855   0.333  2.2117  1.9646  1.9654
  564MOL0     H76129   1.840   9.676   0.342  2.7369 -2.2385  1.3312
  564MOL0     H76130   2.073   9.870   0.382 -2.5864  0.8389  1.8485
  564MOL0     H76131   2.043   9.777   0.235  2.1899  0.6075 -0.0500
  564MOL0     H76132   2.107   9.572   0.336 -2.6676 -2.3611  3.2128
  564MOL0     H76133   2.080   9.624   0.498 -0.9239  0.7985 -0.7712
  564MOL0     H76134   2.286   9.751   0.305 -0.7420 -0.8462 -0.8845
  564MOL0     H76135   2.303   9.759   0.489 -2.9287  0.5968  0.3648
  564MOL0     H76136   2.469   9.391   0.372  0.4035  1.0163 -3.5926
  564MOL0     H76137   1.795   9.673   0.744  0.4009  1.1817 -1.0131
  564MOL0     H76138   1.621   9.584   0.888 -1.4446 -0.6655  0.5203
  564MOL0     H76139   1.567   9.738   0.961  1.1119  1.6285 -1.5566
  564MOL0     H76140   1.455   9.634   0.874  0.0565  0.0345  1.9479
  565MOL0     O76141   3.961   5.893   9.263 -0.4859  0.1877 -0.1319
  565MOL0     C76142   3.961   5.879   9.144 -0.9044 -0.0828 -0.7647
  565MOL0     O76143   4.067   5.818   9.071  0.2696 -0.0918 -0.1127
  565MOL0     C76144   4.192   5.793   9.128 -0.4988  0.0285 -0.1802
  565MOL0     C76145   4.250   5.680   9.080  0.3722  0.0312 -0.0458
  565MOL0     C76146   4.381   5.651   9.107  0.8052  0.0735  0.2634
  565MOL0     C76147   4.464   5.738   9.172  0.1910 -0.3662 -1.2292
  565MOL0     O76148   4.601   5.717   9.194  0.2649  0.9050 -0.2937
  565MOL0     C76149   4.663   5.583   9.200 -0.6239 -0.4260  0.6708
  565MOL0     C76150   4.811   5.601   9.235  1.3138 -1.3263 -0.6499
  565MOL0     C76151   4.831   5.579   9.387 -0.0652 -0.1012 -0.5506
  565MOL0     C76152   4.967   5.612   9.439 -0.2486  0.8669 -0.0226
  565MOL0     C76153   4.996   5.559   9.577 -0.9133  0.5488  0.8753
  565MOL0     C76154   4.958   5.655   9.689 -0.2978 -0.0096 -1.1775
  565MOL0     C76155   5.011   5.599   9.822 -0.4946 -0.3102 -0.3861
  565MOL0     C76156   4.999   5.705   9.944 -0.8215 -0.3939 -0.4083
  565MOL0     N76157   5.134   5.738   9.990 -0.0970 -0.2679  0.5475
  565MOL0     C76158   5.201   5.673  10.090 -0.7389 -0.4738 -0.0178
  565MOL0     C76159   5.325   5.736  10.106  0.1322  0.0595 -0.4277
  565MOL0     C76160   5.443   5.693  10.187 -0.3364 -0.7238 -0.1274
  565MOL0     C76161   5.559   5.636  10.112 -1.1557 -0.2862 -0.0315
  565MOL0     C76162   5.666   5.590  10.207 -0.0977 -0.1628 -0.0067
  565MOL0     C76163   5.618   5.481  10.309 -0.9605  0.7491  0.4235
  565MOL0     O76164   5.657   5.352  10.258 -0.5587  0.1021  0.2501
  565MOL0     C76165   5.664   5.234  10.340 -0.7383 -0.7182  0.2132
  565MOL0     C76166   5.671   5.218  10.481  0.4151 -0.1173  0.7344
  565MOL0     C76167   5.681   5.093  10.540  0.2774  0.7828 -1.3794
  565MOL0     C76168   5.710   4.984  10.471 -0.4925  1.0227 -0.0257
  565MOL0     C76169   5.726   4.839  10.536  0.1191 -0.2052 -0.3018
  565MOL0     O76170   5.724   4.839  10.675  0.3666  0.3369  0.2995
  565MOL0     C76171   5.729   4.718  10.741 -0.2041 -0.3393  0.3758
  565MOL0     C76172   5.617   4.651  10.785 -0.1727 -0.3331 -0.2017
  565MOL0     C76173   5.619   4.525  10.849 -0.1673 -0.6706  0.2062
  565MOL0     C76174   5.745   4.459  10.866 -0.9009  0.4505  0.3426
  565MOL0     O76175   5.757   4.336  10.919  0.1713  0.0681 -0.1997
  565MOL0     C76176   5.841   4.314  11.031 -0.4450 -0.3549 -0.0993
  565MOL0     C76177   5.837   4.164  11.061  0.3305  0.0765 -0.1440
  565MOL0     C76178   5.937   4.126  11.169  0.0767  0.0490 -0.5940
  565MOL0     C76179   5.945   3.970  11.183  0.6749 -0.4986  0.1311
  565MOL0     C76180   6.048   3.914  11.273 -0.3926 -0.7551  0.1328
  565MOL0     C76181   6.071   3.759  11.292 -0.0524 -0.0595  0.2118
  565MOL0     C76182   5.944   3.691  11.351  0.0799  0.1567 -0.0019
  565MOL0     C76183   5.966   3.532  11.380 -0.1727  0.2140  0.3646
  565MOL0    Cl76184   6.107   3.481  11.481  0.4123 -0.0636 -0.5218
  565MOL0     C76185   5.865   4.520  10.810  0.4400 -0.0071 -0.8691
  565MOL0     C76186   5.849   4.647  10.752 -0.0585  0.3947 -0.2704
  565MOL0     O76187   5.735   4.749  10.461 -0.3139 -0.6290 -0.2374
  565MOL0     C76188   5.715   4.992  10.335  0.3018 -0.2281 -0.6348
  565MOL0     C76189   5.682   5.113  10.274  0.7569  0.4968  0.3693
  565MOL0     N76190   5.332   5.840  10.013 -0.0152  0.5268  0.6138
  565MOL0     N76191   5.215   5.844   9.948  0.5789 -0.7454 -0.2603
  565MOL0     C76192   4.411   5.862   9.225  0.1932  0.6535 -0.6685
  565MOL0     C76193   4.276   5.882   9.197  0.0333  0.3080 -0.3267
  565MOL0     C76194   3.845   5.899   9.062 -0.0113  0.2491  0.0950
  565MOL0     C76195   3.739   5.809   9.082 -0.6380  0.1176 -0.2607
  565MOL0     C76196   3.623   5.813   9.003  0.2763  0.5555  0.8098
  565MOL0     C76197   3.602   5.920   8.912  0.0279  0.4244 -1.0308
  565MOL0     O76198   3.485   5.944   8.846  1.5560  0.3499 -0.1585
  565MOL0     C76199   3.432   5.838   8.757 -0.1317 -0.5367  0.4658
  565MOL0     C76200   3.474   5.865   8.606  0.0515 -0.2910  1.0058
  565MOL0     C76201   3.409   5.781   8.498  0.4110 -0.4130 -0.6321
  565MOL0     C76202   3.257   5.790   8.488 -1.6025  0.1812 -0.8036
  565MOL0     C76203   3.203   5.923   8.497 -0.4882  0.3778 -0.8361
  565MOL0     C76204   3.155   6.033   8.521  0.5790  0.1158  0.5776
  565MOL0     C76205   3.708   6.006   8.889  0.6301  0.0800  0.1697
  565MOL0     C76206   3.826   6.000   8.958 -0.0303 -0.2143  0.0628
  565MOL0     C76207   3.936   6.092   8.928 -0.3658  0.4420 -0.3502
  565MOL0     H76208   4.193   5.620   9.010 -2.3707  4.0008 -1.6017
  565MOL0     H76209   4.423   5.567   9.053 -0.0521  0.7237 -1.4995
  565MOL0     H76210   4.621   5.506   9.265 -1.0400 -1.5049 -0.8187
  565MOL0     H76211   4.656   5.538   9.100 -0.0692  0.0017  0.4302
  565MOL0     H76212   4.866   5.688   9.198  2.3633 -0.5937  2.3664
  565MOL0     H76213   4.861   5.521   9.179  2.7399 -0.1829 -1.0489
  565MOL0     H76214   4.800   5.477   9.410 -1.8225  0.5499  0.1008
  565MOL0     H76215   4.766   5.642   9.448  2.1991  1.3277  0.5574
  565MOL0     H76216   5.035   5.558   9.371 -1.2831  2.1333 -2.1620
  565MOL0     H76217   4.994   5.717   9.422  0.8216  0.8644  1.4694
  565MOL0     H76218   4.952   5.460   9.585  2.0746 -0.9727 -0.0472
  565MOL0     H76219   5.104   5.539   9.580 -0.7533  1.1099 -0.2292
  565MOL0     H76220   5.006   5.752   9.671 -1.3595  1.0754  1.4827
  565MOL0     H76221   4.849   5.665   9.694 -0.5541 -2.8282  0.7805
  565MOL0     H76222   5.116   5.565   9.821 -0.4911 -0.3201 -0.0169
  565MOL0     H76223   4.943   5.518   9.850 -0.2539 -0.2927  0.2800
  565MOL0     H76224   4.947   5.796   9.911  0.5624  0.1294 -1.2558
  565MOL0     H76225   4.949   5.655  10.027  1.6032 -2.5602 -0.1234
  565MOL0     H76226   5.171   5.583  10.143  5.3409 -3.9447 -1.5297
  565MOL0     H76227   5.472   5.785  10.240 -0.3210 -2.0113  2.2139
  565MOL0     H76228   5.401   5.626  10.262  0.4494  0.2692  1.2557
  565MOL0     H76229   5.519   5.553  10.052 -1.3251 -2.2791  2.6450
  565MOL0     H76230   5.605   5.703  10.039  0.1920 -0.4762  0.6254
  565MOL0     H76231   5.678   5.683  10.264 -0.5737 -0.6511  0.9176
  565MOL0     H76232   5.764   5.569  10.165 -0.9181 -1.9391 -1.1662
  565MOL0     H76233   5.512   5.481  10.334 -2.0004  2.6356 -3.2000
  565MOL0     H76234   5.670   5.494  10.404  0.0697 -1.7579  0.2985
  565MOL0     H76235   5.664   5.311  10.536  1.4480  0.1835  0.3895
  565MOL0     H76236   5.680   5.094  10.649  1.0647  4.3223 -1.3080
  565MOL0     H76237   5.524   4.706  10.778 -0.0087  0.4687  2.6306
  565MOL0     H76238   5.533   4.476  10.894 -0.0028 -1.5677 -0.4407
  565MOL0     H76239   5.938   4.358  11.010  0.2889 -3.0840 -3.1232
  565MOL0     H76240   5.800   4.368  11.118  0.3209 -0.5458  0.3901
  565MOL0     H76241   5.740   4.125  11.094 -0.2354  2.5642  1.3214
  565MOL0     H76242   5.865   4.110  10.970 -2.2953  0.7969 -1.4703
  565MOL0     H76243   6.032   4.175  11.144  0.0467 -0.1460 -1.1029
  565MOL0     H76244   5.918   4.182  11.262  0.7635  2.4685 -1.8129
  565MOL0     H76245   5.946   3.924  11.084 -0.5367 -0.1770 -0.0470
  565MOL0     H76246   5.850   3.951  11.235  1.2858 -1.5125  0.9042
  565MOL0     H76247   6.034   3.962  11.370  1.0227  0.4492 -0.2207
  565MOL0     H76248   6.142   3.962  11.243 -2.0276  3.2162  0.7869
  565MOL0     H76249   6.104   3.714  11.198 -1.4647  1.2817 -0.9746
  565MOL0     H76250   6.158   3.756  11.358  2.1856  0.3798 -2.5414
  565MOL0     H76251   5.862   3.708  11.280 -1.1579 -1.6774  0.9065
  565MOL0     H76252   5.918   3.746  11.442 -1.6247  2.8888 -1.9658
  565MOL0     H76253   5.874   3.477  11.399 -1.2110 -0.4229 -4.9530
  565MOL0     H76254   5.982   3.493  11.279 -0.9645  1.2615 -0.1830
  565MOL0     H76255   5.962   4.471  10.802  1.3171  1.3618  0.7693
  565MOL0     H76256   5.938   4.695  10.711 -0.5721  0.2253 -1.6593
  565MOL0     H76257   5.758   4.905  10.285 -0.1950 -0.7688 -0.1357
  565MOL0     H76258   5.694   5.122  10.166 -0.8251 -0.4596  0.0703
  565MOL0     H76259   4.464   5.934   9.285 -1.3602  2.1013 -0.9457
  565MOL0     H76260   4.246   5.985   9.215 -2.7156 -0.2160 -1.4596
  565MOL0     H76261   3.760   5.721   9.142 -0.3097 -0.1870 -0.8200
  565MOL0     H76262   3.550   5.737   9.029 -0.3254  0.6565 -0.4847
  565MOL0     H76263   3.324   5.850   8.774  0.1359  1.9718  0.7063
  565MOL0     H76264   3.466   5.735   8.773 -2.3770 -1.3533  0.4001
  565MOL0     H76265   3.582   5.845   8.604 -0.2968 -2.3964  1.2758
  565MOL0     H76266   3.467   5.972   8.588 -5.4121 -0.6765 -1.0663
  565MOL0     H76267   3.428   5.677   8.524  0.8191 -0.4812 -1.2004
  565MOL0     H76268   3.459   5.798   8.403  3.6616  3.3186  1.4243
  565MOL0     H76269   3.228   5.734   8.398 -0.1614  0.1302 -1.2608
  565MOL0     H76270   3.204   5.737   8.567 -1.2343  0.6974 -0.2064
  565MOL0     H76271   3.124   6.135   8.532 -0.1663 -0.0336 -0.0173
  565MOL0     H76272   3.696   6.097   8.831 -0.1593  0.2812  0.6362
  565MOL0     H76273   3.940   6.122   8.823 -1.7589  0.2894 -0.4662
  565MOL0     H76274   3.935   6.192   8.973  0.2235  0.5141 -0.4867
  565MOL0     H76275   4.028   6.040   8.954 -0.0094  0.3467 -1.7371
  566MOL0     O76276   7.791   5.875   6.648 -0.3187 -0.1674  0.4881
  566MOL0     C76277   7.897   5.838   6.704 -0.5204 -0.9210  0.2866
  566MOL0     O76278   7.890   5.762   6.808 -0.8864  0.3769 -0.0339
  566MOL0     C76279   7.769   5.727   6.872  0.1189  1.2719 -0.2230
  566MOL0     C76280   7.665   5.820   6.898  0.7546  0.5713  1.4212
  566MOL0     C76281   7.554   5.775   6.973 -0.8469  0.3211  0.5124
  566MOL0     C76282   7.557   5.652   7.048 -0.6049 -0.8320  0.5547
  566MOL0     O76283   7.446   5.632   7.120 -0.6074  0.2271 -0.7747
  566MOL0     C76284   7.376   5.504   7.144  0.2793 -0.1462  0.3605
  566MOL0     C76285   7.242   5.540   7.203 -0.5078 -0.0531  0.3514
  566MOL0     C76286   7.154   5.420   7.230  0.7623 -0.1467  0.2832
  566MOL0     C76287   7.210   5.303   7.319 -0.5930 -0.7321 -0.5359
  566MOL0     C76288   7.103   5.201   7.361 -0.5506  0.0500  0.2514
  566MOL0     C76289   7.013   5.150   7.245 -0.4584  0.4123 -0.1313
  566MOL0     C76290   7.083   5.093   7.122 -0.1467  1.2037 -1.2520
  566MOL0     C76291   6.992   5.094   6.996 -0.6196 -1.0332 -0.3577
  566MOL0     N76292   7.050   5.028   6.880 -0.5487  0.0327  0.0220
  566MOL0     C76293   7.002   4.928   6.795 -0.4707  0.9878 -0.5721
  566MOL0     C76294   7.110   4.892   6.720 -0.0961  0.6831 -0.1264
  566MOL0     C76295   7.115   4.789   6.611 -0.3045 -0.3942  0.9371
  566MOL0     C76296   6.988   4.805   6.525 -0.5660  0.0684  0.1661
  566MOL0     C76297   7.001   4.700   6.418 -0.3361  0.4162 -1.0237
  566MOL0     C76298   7.013   4.548   6.440  0.4584  0.4324  0.2699
  566MOL0     O76299   6.927   4.495   6.542 -0.4523 -0.3276 -0.0764
  566MOL0     C76300   6.948   4.366   6.577 -0.2857 -0.7773  0.6418
  566MOL0     C76301   6.866   4.315   6.674 -0.5750  0.0900 -0.7151
  566MOL0     C76302   6.864   4.177   6.693  0.2180 -0.4503 -0.4467
  566MOL0     C76303   6.971   4.092   6.645  0.0602  0.1241  0.4373
  566MOL0     C76304   6.957   3.949   6.669  0.1997 -0.2374  1.4840
  566MOL0     O76305   6.837   3.901   6.707 -0.2883  0.0762 -0.6503
  566MOL0     C76306   6.832   3.781   6.779  0.5843  0.0338  0.4284
  566MOL0     C76307   6.710   3.759   6.838 -0.6723 -0.2536  0.1418
  566MOL0     C76308   6.682   3.653   6.926 -0.8908  0.6769 -0.8695
  566MOL0     C76309   6.779   3.551   6.950 -0.4479  0.3124  0.1712
  566MOL0     O76310   6.752   3.437   7.022  0.4414 -0.3960 -0.6784
  566MOL0     C76311   6.800   3.319   6.964 -0.0523  0.1924  0.3081
  566MOL0     C76312   6.719   3.200   7.035  0.1094  1.2341  1.0747
  566MOL0     C76313   6.761   3.060   6.982  0.3731  0.5206  0.5185
  566MOL0     C76314   6.713   2.935   7.054  0.5240  1.3478  0.2222
  566MOL0     C76315   6.587   2.890   6.986  0.7116 -0.2753  0.1322
  566MOL0     C76316   6.540   2.766   7.066  0.2612 -0.6723 -0.2569
  566MOL0     C76317   6.395   2.727   7.027  0.5504  0.2212  0.0947
  566MOL0     C76318   6.347   2.615   7.120 -0.0459 -0.7057  0.7133
  566MOL0    Cl76319   6.453   2.472   7.147  0.2300  0.3749  0.0173
  566MOL0     C76320   6.901   3.574   6.878  0.3752  0.2958  0.0966
  566MOL0     C76321   6.924   3.687   6.801  0.0354  0.5231  0.8453
  566MOL0     O76322   7.058   3.880   6.643  1.0746 -0.4838  0.1467
  566MOL0     C76323   7.051   4.146   6.548 -0.4918 -0.9024  0.2024
  566MOL0     C76324   7.033   4.276   6.505  0.0661 -0.6483  0.1811
  566MOL0     N76325   7.217   4.980   6.754 -0.1806 -0.2863 -0.0585
  566MOL0     N76326   7.170   5.061   6.840 -0.7258  0.1675 -0.3185
  566MOL0     C76327   7.671   5.572   7.032  1.5356  0.4232  0.4682
  566MOL0     C76328   7.772   5.606   6.953 -0.0402 -0.1128  0.2243
  566MOL0     C76329   8.033   5.868   6.642 -0.3931  0.3761  0.2528
  566MOL0     C76330   8.148   5.839   6.716  0.0262 -0.4082 -0.1363
  566MOL0     C76331   8.283   5.873   6.689 -0.0818  0.1815 -1.3303
  566MOL0     C76332   8.307   5.937   6.571  0.2124  0.1832 -0.3607
  566MOL0     O76333   8.423   6.000   6.524  0.5100 -0.4937 -0.3952
  566MOL0     C76334   8.538   6.005   6.610  0.6297 -0.4384  0.3556
  566MOL0     C76335   8.654   5.928   6.559  0.7426  0.7698 -0.5940
  566MOL0     C76336   8.621   5.775   6.598 -0.5877  0.5909 -0.4070
  566MOL0     C76337   8.725   5.676   6.552  0.8381 -0.3655 -0.1056
  566MOL0     C76338   8.664   5.539   6.573 -0.6122 -0.5815 -0.6051
  566MOL0     C76339   8.631   5.421   6.570  0.1933  0.4968 -0.4776
  566MOL0     C76340   8.197   5.961   6.482  0.1638 -0.3795  0.6416
  566MOL0     C76341   8.066   5.937   6.522 -0.1296  0.6769 -0.3951
  566MOL0     C76342   7.963   5.986   6.428  0.9838  0.0165 -0.7888
  566MOL0     H76343   7.661   5.912   6.842  4.6147 -1.7113 -3.4547
  566MOL0     H76344   7.463   5.829   6.994 -1.0618 -0.8100  2.9098
  566MOL0     H76345   7.373   5.463   7.043 -1.2013  0.9535 -0.0685
  566MOL0     H76346   7.439   5.455   7.218  2.2399 -1.4838 -2.0559
  566MOL0     H76347   7.196   5.606   7.129 -2.9019 -0.4109  1.4297
  566MOL0     H76348   7.267   5.592   7.296  0.8020  0.7127 -0.4037
  566MOL0     H76349   7.123   5.377   7.134 -2.2305  0.5884  0.8157
  566MOL0     H76350   7.060   5.458   7.270  0.9158  2.1944 -1.3979
  566MOL0     H76351   7.292   5.265   7.257  1.9857 -0.2393  2.3538
  566MOL0     H76352   7.257   5.346   7.407 -0.1495 -0.8720 -0.6988
  566MOL0     H76353   7.155   5.113   7.400  0.4203  1.3582  2.0131
  566MOL0     H76354   7.041   5.246   7.439 -3.6549 -1.9359 -0.8440
  566MOL0     H76355   6.962   5.061   7.283  2.2949 -0.2699  2.2789
  566MOL0     H76356   6.945   5.230   7.214  1.1060  1.6965 -0.4216
  566MOL0     H76357   7.129   4.996   7.141  2.4118  2.6215  0.4183
  566MOL0     H76358   7.163   5.165   7.101 -1.6893  3.7536  1.0394
  566MOL0     H76359   6.896   5.051   7.027 -1.2021 -0.7212 -1.6347
  566MOL0     H76360   6.967   5.199   6.976  2.2593 -0.4102 -1.1437
  566MOL0     H76361   6.908   4.874   6.794  0.4694 -0.7463  1.0750
  566MOL0     H76362   7.197   4.806   6.541 -1.1147 -3.0649 -0.7758
  566MOL0     H76363   7.129   4.685   6.640 -1.2141 -1.2468 -1.5103
  566MOL0     H76364   6.903   4.781   6.589 -0.3261  1.7769  1.1954
  566MOL0     H76365   6.980   4.910   6.493  1.2984  0.6965  1.5685
  566MOL0     H76366   7.096   4.725   6.369  1.6684  0.1351  2.3460
  566MOL0     H76367   6.913   4.725   6.359 -1.9428  0.1401  1.1206
  566MOL0     H76368   7.115   4.523   6.471  0.3080 -0.0885  0.3456
  566MOL0     H76369   6.995   4.504   6.342  0.3984 -0.2935  0.5958
  566MOL0     H76370   6.791   4.370   6.731  1.1519 -1.1450  3.0770
  566MOL0     H76371   6.806   4.139   6.776 -2.3093  1.3461 -1.2667
  566MOL0     H76372   6.626   3.821   6.809 -0.4348  0.1317  0.2605
  566MOL0     H76373   6.582   3.655   6.968 -0.8010  0.6170 -0.6522
  566MOL0     H76374   6.794   3.313   6.855 -0.5217 -0.6033  0.3680
  566MOL0     H76375   6.905   3.305   6.989  1.2069  4.3343 -1.8197
  566MOL0     H76376   6.729   3.198   7.144  3.9555 -0.3302  0.8800
  566MOL0     H76377   6.617   3.223   7.002  1.2043  2.0375 -2.1877
  566MOL0     H76378   6.738   3.061   6.875 -0.0236  3.1368  0.5466
  566MOL0     H76379   6.867   3.059   7.011  0.5730  2.0830 -0.0697
  566MOL0     H76380   6.702   2.946   7.162  0.3709 -0.5153  0.4264
  566MOL0     H76381   6.791   2.859   7.048  0.2710  1.1438 -0.6742
  566MOL0     H76382   6.605   2.855   6.884  0.5269 -1.9279  0.6273
  566MOL0     H76383   6.515   2.972   6.993 -0.1752 -1.0411  0.2837
  566MOL0     H76384   6.613   2.688   7.048  1.5252 -0.2826  2.6829
  566MOL0     H76385   6.548   2.788   7.173  3.8620 -1.0833 -0.3479
  566MOL0     H76386   6.389   2.705   6.920  3.1963 -2.0545  0.3068
  566MOL0     H76387   6.338   2.818   7.049  1.5441  1.0207 -0.5558
  566MOL0     H76388   6.329   2.657   7.219  0.4242  0.4495  0.3297
  566MOL0     H76389   6.252   2.579   7.078 -0.2133 -0.1597  0.6115
  566MOL0     H76390   6.969   3.492   6.859  0.6414  0.8546 -1.4713
  566MOL0     H76391   7.025   3.689   6.762  1.2429 -3.8716  3.0770
  566MOL0     H76392   7.132   4.085   6.509 -1.0295 -3.5296  2.8102
  566MOL0     H76393   7.108   4.300   6.430 -1.0242 -0.4123 -0.8573
  566MOL0     H76394   7.676   5.472   7.076  2.4362  0.3475  0.2145
  566MOL0     H76395   7.854   5.537   6.935  0.1707  0.6934 -2.3087
  566MOL0     H76396   8.131   5.776   6.803 -1.3170 -0.9852 -0.7831
  566MOL0     H76397   8.359   5.844   6.761 -0.0052  1.7347 -0.7628
  566MOL0     H76398   8.536   5.978   6.716  3.3464 -1.4773  0.2530
  566MOL0     H76399   8.571   6.109   6.615 -0.4652 -0.1129  1.0041
  566MOL0     H76400   8.750   5.968   6.595  1.7915 -0.8792 -1.4426
  566MOL0     H76401   8.667   5.946   6.452 -1.7239  1.0309 -0.9063
  566MOL0     H76402   8.533   5.736   6.547 -1.0494 -1.6293  1.8484
  566MOL0     H76403   8.612   5.756   6.705  3.8188  2.3739  0.5248
  566MOL0     H76404   8.740   5.709   6.449  1.4689  1.9196  0.6542
  566MOL0     H76405   8.819   5.687   6.607  1.0444  0.3071 -0.5920
  566MOL0     H76406   8.607   5.319   6.546  0.5595  0.6618 -1.6084
  566MOL0     H76407   8.212   6.015   6.390 -0.7828  0.2103  0.8152
  566MOL0     H76408   7.931   5.916   6.350  0.0150  3.3425 -3.6417
  566MOL0     H76409   7.876   6.024   6.482 -0.1083 -0.5172 -2.1018
  566MOL0     H76410   8.002   6.073   6.374  0.3749  1.0084  0.3213
  567MOL0     O76411   2.315  11.124   9.203  0.1756  0.8533 -0.1158
  567MOL0     C76412   2.372  11.203   9.282 -0.0144 -0.3460  0.4805
  567MOL0     O76413   2.374  11.187   9.425 -0.0491 -0.1113 -0.4565
  567MOL0     C76414   2.269  11.116   9.473 -0.0307  0.2256  0.5016
  567MOL0     C76415   2.269  10.979   9.495 -0.2382  0.3738  0.1628
  567MOL0     C76416   2.165  10.906   9.556  0.0805  0.1247 -1.3186
  567MOL0     C76417   2.045  10.986   9.590  0.0734  0.7696  0.3246
  567MOL0     O76418   1.945  10.918   9.656  0.2532  0.0551  1.2337
  567MOL0     C76419   1.818  10.978   9.690  0.2943 -0.0160  0.7162
  567MOL0     C76420   1.744  10.882   9.778 -0.9823  0.4861 -0.3771
  567MOL0     C76421   1.597  10.922   9.814  0.6695  0.1969 -0.1860
  567MOL0     C76422   1.490  10.862   9.711 -0.1078 -0.5899  0.5326
  567MOL0     C76423   1.346  10.909   9.730  1.1090 -0.0583  0.1714
  567MOL0     C76424   1.305  11.056   9.694  0.4224  0.6892  0.0010
  567MOL0     C76425   1.169  11.100   9.752 -0.1765  0.8092 -0.1392
  567MOL0     C76426   1.060  11.133   9.645  0.5038 -0.6109 -0.5970
  567MOL0     N76427   1.099  11.219   9.531 -0.5765  0.0409  0.0142
  567MOL0     C76428   1.201  11.318   9.525 -0.0739  0.5054 -0.6159
  567MOL0     C76429   1.180  11.374   9.398 -0.3969  0.3763 -0.1097
  567MOL0     C76430   1.273  11.481   9.337  0.3902 -0.3557 -0.1480
  567MOL0     C76431   1.234  11.625   9.382  0.6530  0.4852 -0.1752
  567MOL0     C76432   1.323  11.740   9.319  0.7301  1.0280 -0.4106
  567MOL0     C76433   1.313  11.751   9.163 -0.5321  1.0866 -0.1295
  567MOL0     O76434   1.389  11.861   9.109  0.6142  0.2268  0.7733
  567MOL0     C76435   1.312  11.970   9.059  0.5220  0.3771  0.4103
  567MOL0     C76436   1.302  11.988   8.917  0.0470  0.3267 -0.6163
  567MOL0     C76437   1.196  12.071   8.869  0.6762 -0.3288 -0.4849
  567MOL0     C76438   1.111  12.147   8.961  0.4605 -0.6983  1.3219
  567MOL0     C76439   1.008  12.246   8.916 -0.0298  0.3660  0.2046
  567MOL0     O76440   1.032  12.295   8.795 -0.1107 -0.0489 -0.1776
  567MOL0     C76441   0.974  12.407   8.746  0.0832 -0.6224 -0.0734
  567MOL0     C76442   0.986  12.534   8.818  0.2325 -1.0976  0.5247
  567MOL0     C76443   0.898  12.645   8.779  0.1384 -0.3496 -0.1624
  567MOL0     C76444   0.795  12.627   8.691 -0.2015  0.0958  0.3742
  567MOL0     O76445   0.709  12.738   8.676  0.2918 -0.1074  0.3468
  567MOL0     C76446   0.571  12.722   8.624  0.4725  0.6885  0.5436
  567MOL0     C76447   0.493  12.628   8.714  1.0247 -0.1052 -0.1289
  567MOL0     C76448   0.340  12.628   8.669 -0.6670 -0.2089 -1.0356
  567MOL0     C76449   0.270  12.533   8.764 -0.5409  0.3602  0.3779
  567MOL0     C76450   0.134  12.500   8.714 -0.0364 -0.8761  0.7123
  567MOL0     C76451   0.058  12.409   8.797  0.4619  0.7431 -0.3322
  567MOL0     C76452  -0.095  12.416   8.782  0.0635  0.4142 -0.1322
  567MOL0     C76453  -0.155  12.293   8.831 -0.2841 -0.4123 -0.3419
  567MOL0    Cl76454  -0.324  12.331   8.867  0.1112 -0.5916 -0.1133
  567MOL0     C76455   0.789  12.510   8.623  0.0918  0.2802 -0.2610
  567MOL0     C76456   0.877  12.401   8.651  0.3338 -0.4328 -0.3374
  567MOL0     O76457   0.921  12.284   8.990  0.6086  0.1066  0.5123
  567MOL0     C76458   1.136  12.136   9.095 -0.5689  0.3312 -0.3051
  567MOL0     C76459   1.235  12.044   9.145  0.3788 -0.6788 -0.5807
  567MOL0     N76460   1.069  11.327   9.341 -0.3804  0.8521 -0.3606
  567MOL0     N76461   1.022  11.237   9.419  0.2391 -0.1405 -0.0601
  567MOL0     C76462   2.039  11.116   9.546 -0.1706 -0.2780 -0.6557
  567MOL0     C76463   2.153  11.188   9.510 -1.1449 -0.1568  0.6328
  567MOL0     C76464   2.429  11.318   9.218  0.3588 -0.1968 -0.1287
  567MOL0     C76465   2.485  11.412   9.314  0.3891  0.4067  0.0839
  567MOL0     C76466   2.562  11.523   9.270  0.3166 -0.2802 -0.0043
  567MOL0     C76467   2.558  11.560   9.131 -0.2960 -0.9211 -0.4789
  567MOL0     O76468   2.625  11.667   9.071  0.1161  0.2352 -0.4785
  567MOL0     C76469   2.719  11.752   9.145 -0.0666 -0.0483  0.0493
  567MOL0     C76470   2.862  11.765   9.082  0.2039  0.5168 -0.5765
  567MOL0     C76471   2.851  11.875   8.974 -0.2056 -0.3329  0.3417
  567MOL0     C76472   2.985  11.899   8.897  0.0082  0.1004 -0.0244
  567MOL0     C76473   2.952  11.954   8.766  0.2955  0.0116  0.9294
  567MOL0     C76474   2.930  11.985   8.652 -0.0579  0.5873  0.4433
  567MOL0     C76475   2.498  11.473   9.040  1.3571 -0.0565  0.1005
  567MOL0     C76476   2.430  11.352   9.078  0.2919 -0.0686  0.0704
  567MOL0     C76477   2.392  11.267   8.970  0.9069 -0.6849  0.1579
  567MOL0     H76478   2.368  10.941   9.471  0.1490  2.8822 -2.8942
  567MOL0     H76479   2.167  10.800   9.578 -1.4242  0.7112  2.3012
  567MOL0     H76480   1.822  11.068   9.753  0.1052 -0.8203  1.9172
  567MOL0     H76481   1.769  11.009   9.597  2.1267  0.7897 -0.0290
  567MOL0     H76482   1.806  10.878   9.867 -2.0542  4.4371  0.7419
  567MOL0     H76483   1.738  10.783   9.731  0.6536 -0.0344  0.4180
  567MOL0     H76484   1.599  11.031   9.826  3.5860 -0.0209  2.4653
  567MOL0     H76485   1.575  10.881   9.912 -0.7729 -0.1242 -0.6195
  567MOL0     H76486   1.515  10.884   9.607 -2.8110  1.9961  0.3061
  567MOL0     H76487   1.496  10.753   9.714  3.1195 -0.7962 -3.5576
  567MOL0     H76488   1.274  10.847   9.676 -1.2322  2.6492 -0.0966
  567MOL0     H76489   1.321  10.901   9.836 -0.6680 -2.5471 -0.3638
  567MOL0     H76490   1.367  11.128   9.748  0.3726  0.6319  0.1350
  567MOL0     H76491   1.299  11.073   9.586 -2.9787 -2.3388 -0.4988
  567MOL0     H76492   1.176  11.186   9.819 -0.5546 -1.4890  3.0553
  567MOL0     H76493   1.122  11.020   9.810 -0.3200 -0.0447 -1.3797
  567MOL0     H76494   1.023  11.038   9.605  1.1211 -1.3357  0.5049
  567MOL0     H76495   0.974  11.178   9.697 -0.0899 -1.7880 -0.5139
  567MOL0     H76496   1.273  11.348   9.601 -1.2114 -1.9991  1.5895
  567MOL0     H76497   1.375  11.467   9.373  0.6984  1.7742 -0.0665
  567MOL0     H76498   1.271  11.467   9.228  2.4995 -0.0544 -0.2643
  567MOL0     H76499   1.128  11.639   9.357 -0.2445 -4.4942 -0.3063
  567MOL0     H76500   1.243  11.639   9.490 -0.2195  1.4242 -0.2124
  567MOL0     H76501   1.430  11.724   9.340  0.2900  0.3090  1.5492
  567MOL0     H76502   1.295  11.833   9.369 -0.1056 -0.1905  1.5019
  567MOL0     H76503   1.208  11.757   9.132 -0.5874  0.2665 -0.1420
  567MOL0     H76504   1.357  11.662   9.117  1.2510  0.9437  1.7113
  567MOL0     H76505   1.374  11.942   8.849 -1.0644 -0.6553 -1.1612
  567MOL0     H76506   1.184  12.091   8.763  4.0596  2.3512 -0.5143
  567MOL0     H76507   1.052  12.550   8.903  0.3469  0.4549  0.1817
  567MOL0     H76508   0.905  12.735   8.839 -0.9516 -0.6698  0.4769
  567MOL0     H76509   0.525  12.821   8.624  2.7277  1.7930  0.0264
  567MOL0     H76510   0.569  12.671   8.527  2.5673 -0.9977  1.2936
  567MOL0     H76511   0.523  12.526   8.688 -0.5250  0.0290 -2.8276
  567MOL0     H76512   0.515  12.649   8.819 -0.0178 -2.0242  0.5302
  567MOL0     H76513   0.286  12.722   8.685 -3.9216 -2.1481  0.2845
  567MOL0     H76514   0.337  12.604   8.562  2.0986 -0.5253 -1.1233
  567MOL0     H76515   0.280  12.586   8.859  0.2970  2.0507 -0.5916
  567MOL0     H76516   0.327  12.440   8.760  0.2549  0.7079  2.5991
  567MOL0     H76517   0.133  12.468   8.610 -0.4423  2.1578 -0.3108
  567MOL0     H76518   0.087  12.599   8.711 -0.0806 -0.8924  0.8433
  567MOL0     H76519   0.094  12.307   8.782  0.9625  0.8551  0.0897
  567MOL0     H76520   0.073  12.434   8.902  1.0194  2.0756 -0.7056
  567MOL0     H76521  -0.112  12.425   8.674  4.1006 -0.6738 -1.0498
  567MOL0     H76522  -0.128  12.500   8.843 -1.4754 -0.1210 -0.1817
  567MOL0     H76523  -0.161  12.205   8.765 -1.9906  1.0401 -2.2753
  567MOL0     H76524  -0.106  12.251   8.919  0.1365  1.2425  0.2338
  567MOL0     H76525   0.709  12.506   8.550  0.7715  3.8378 -1.4257
  567MOL0     H76526   0.867  12.310   8.592 -3.3421  0.8235 -1.8994
  567MOL0     H76527   1.061  12.185   9.157 -1.3261 -0.0891 -0.8623
  567MOL0     H76528   1.238  12.015   9.250 -0.2538 -2.0880 -0.9241
  567MOL0     H76529   1.943  11.161   9.570  0.7324 -0.6700  4.8365
  567MOL0     H76530   2.154  11.295   9.496  0.9379 -0.4853 -2.8557
  567MOL0     H76531   2.470  11.391   9.419 -0.7437 -1.9106 -0.4722
  567MOL0     H76532   2.607  11.590   9.343 -1.5378  0.1035  0.8502
  567MOL0     H76533   2.732  11.720   9.249 -2.6911  2.9467  1.4454
  567MOL0     H76534   2.684  11.854   9.161  0.0415 -0.0821  0.4977
  567MOL0     H76535   2.900  11.665   9.057 -2.7109 -1.3230  1.6194
  567MOL0     H76536   2.924  11.799   9.165 -1.0577  1.1783  0.1247
  567MOL0     H76537   2.817  11.971   9.016 -1.2120  0.1720 -1.5065
  567MOL0     H76538   2.783  11.841   8.896  1.6919  2.4492 -2.7877
  567MOL0     H76539   3.049  11.970   8.950 -2.7871  3.7056 -1.1360
  567MOL0     H76540   3.049  11.812   8.875  3.1415  2.2447 -0.0589
  567MOL0     H76541   2.902  11.993   8.549  2.3917 -1.2669 -0.4685
  567MOL0     H76542   2.492  11.493   8.933 -0.0962  2.5166  0.5655
  567MOL0     H76543   2.335  11.336   8.906 -0.1124 -0.4444  1.2892
  567MOL0     H76544   2.481  11.244   8.911  0.2462  1.5580 -1.8927
  567MOL0     H76545   2.341  11.173   8.995  2.9894 -0.9972  3.9557
  568MOL0     O76546   7.447   8.340   1.815 -0.0352 -0.2743  0.4322
  568MOL0     C76547   7.327   8.346   1.802 -0.6430 -0.4506 -0.3005
  568MOL0     O76548   7.252   8.459   1.827 -0.3461  0.0959 -0.0721
  568MOL0     C76549   7.304   8.561   1.892  0.0808 -0.0747  0.5303
  568MOL0     C76550   7.427   8.632   1.870  0.3773  1.0288  0.3623
  568MOL0     C76551   7.471   8.735   1.944 -0.2728 -0.4522 -0.5330
  568MOL0     C76552   7.401   8.778   2.057 -0.3021  0.2291  0.0982
  568MOL0     O76553   7.464   8.854   2.158  0.7618 -0.2387 -0.3136
  568MOL0     C76554   7.569   8.954   2.120  0.8670  0.3438  0.5505
  568MOL0     C76555   7.567   9.073   2.217  0.1447 -0.5637  0.4093
  568MOL0     C76556   7.685   9.162   2.188 -0.1501  0.2290  0.4880
  568MOL0     C76557   7.695   9.211   2.037  1.3002  0.2341 -1.0021
  568MOL0     C76558   7.757   9.349   2.018 -0.1781 -0.4706  0.3545
  568MOL0     C76559   7.896   9.363   2.075 -0.6898 -0.3289 -0.0690
  568MOL0     C76560   7.976   9.490   2.021  0.4402  0.5882 -0.0457
  568MOL0     C76561   8.126   9.497   2.070  0.1085 -0.0805  1.3772
  568MOL0     N76562   8.201   9.624   2.051 -0.2750  0.2083 -0.9450
  568MOL0     C76563   8.244   9.664   1.932 -0.5086  0.3862 -1.0805
  568MOL0     C76564   8.305   9.778   1.962  0.0516  0.8986  0.4645
  568MOL0     C76565   8.367   9.863   1.853  0.4392  0.6205  0.3740
  568MOL0     C76566   8.466   9.956   1.916 -0.8513 -1.0256 -0.3138
  568MOL0     C76567   8.520  10.054   1.798 -0.5220  0.1280 -0.9609
  568MOL0     C76568   8.634   9.970   1.737 -0.0682 -0.0981 -0.1386
  568MOL0     O76569   8.705  10.061   1.646  0.6506 -1.0775 -0.1319
  568MOL0     C76570   8.812  10.011   1.572  0.1336  0.7689  0.4914
  568MOL0     C76571   8.815   9.882   1.518  0.0886  0.1173  0.8130
  568MOL0     C76572   8.903   9.846   1.416 -0.5882 -0.1468  0.7926
  568MOL0     C76573   8.991   9.943   1.354 -0.9609 -0.2104 -0.2085
  568MOL0     C76574   9.077   9.903   1.241  0.1750  1.6085  0.0610
  568MOL0     O76575   9.165   9.996   1.203 -0.4438 -0.8760  0.4569
  568MOL0     C76576   9.263   9.969   1.104  0.0040  0.2346  0.2656
  568MOL0     C76577   9.294  10.085   1.031 -0.4090  0.5504  0.4803
  568MOL0     C76578   9.394  10.085   0.939 -0.2442 -0.9088  0.3473
  568MOL0     C76579   9.465   9.968   0.907 -0.4673 -0.8405  0.2104
  568MOL0     O76580   9.556   9.983   0.814 -0.4504 -0.6565  0.4857
  568MOL0     C76581   9.619   9.881   0.738  0.1609 -0.5936 -0.1083
  568MOL0     C76582   9.515   9.853   0.628 -0.2289  0.1060  0.6434
  568MOL0     C76583   9.506   9.697   0.606 -0.4579  0.2356  0.6117
  568MOL0     C76584   9.376   9.669   0.535  0.5827 -1.0582 -0.3292
  568MOL0     C76585   9.368   9.690   0.385  0.0407  0.9371  1.3874
  568MOL0     C76586   9.218   9.692   0.337 -0.1728 -0.5463 -0.5035
  568MOL0     C76587   9.207   9.737   0.189  0.4497  0.2451  0.4575
  568MOL0     C76588   9.303   9.859   0.144  0.1565  0.7747  0.0728
  568MOL0    Cl76589   9.468   9.803   0.102 -0.6415  0.2599  0.0635
  568MOL0     C76590   9.432   9.852   0.968  0.1843  0.3213 -0.0864
  568MOL0     C76591   9.339   9.859   1.076  0.4670  0.0948 -0.2625
  568MOL0     O76592   9.041   9.803   1.173  0.6002 -0.3141 -0.2396
  568MOL0     C76593   8.992  10.070   1.420 -0.2681 -0.5148  0.2674
  568MOL0     C76594   8.899  10.099   1.519 -0.2255 -0.5315  0.0227
  568MOL0     N76595   8.308   9.795   2.102  0.7978 -1.3038 -0.8922
  568MOL0     N76596   8.249   9.691   2.154  1.2250 -0.3459 -0.7311
  568MOL0     C76597   7.276   8.718   2.088 -0.0149  0.9730 -0.4135
  568MOL0     C76598   7.230   8.610   2.007  0.2545 -0.6730  0.4295
  568MOL0     C76599   7.251   8.234   1.749 -0.1812 -0.6579 -0.0284
  568MOL0     C76600   7.108   8.233   1.765 -0.8405  0.0688  0.6900
  568MOL0     C76601   7.023   8.133   1.711 -0.3771  0.7358  1.0335
  568MOL0     C76602   7.086   8.031   1.632  0.1130  0.0155  0.3490
  568MOL0     O76603   7.007   7.936   1.566  0.0255  0.0984 -0.8394
  568MOL0     C76604   7.064   7.807   1.558 -0.2142  0.8546  0.3980
  568MOL0     C76605   6.961   7.699   1.543 -0.7170 -0.5527  0.2338
  568MOL0     C76606   6.887   7.717   1.406 -0.1755  0.0833  0.6229
  568MOL0     C76607   6.770   7.611   1.406 -0.0804 -0.6347  0.7451
  568MOL0     C76608   6.675   7.645   1.302  0.2596  0.0755  0.8793
  568MOL0     C76609   6.585   7.677   1.229  0.3378 -0.1458 -0.2379
  568MOL0     C76610   7.223   8.033   1.620  0.6097 -1.3076 -0.0944
  568MOL0     C76611   7.308   8.130   1.672  0.3009  0.6175 -0.0165
  568MOL0     C76612   7.453   8.118   1.649 -0.4579  0.4993  0.1172
  568MOL0     H76613   7.496   8.590   1.797 -1.8991 -3.7429  0.5927
  568MOL0     H76614   7.564   8.789   1.930  0.6711 -1.2427  2.1446
  568MOL0     H76615   7.671   8.915   2.118  2.1491  2.1530  7.4326
  568MOL0     H76616   7.542   8.995   2.022 -0.6233 -0.2150  0.6923
  568MOL0     H76617   7.561   9.044   2.322  0.8840  0.4433  0.7330
  568MOL0     H76618   7.481   9.139   2.198  1.6038  0.8181 -1.8741
  568MOL0     H76619   7.780   9.122   2.224 -1.1400 -1.3199  1.4699
  568MOL0     H76620   7.668   9.253   2.246  1.2962  0.6759  0.2540
  568MOL0     H76621   7.745   9.134   1.977  1.9560  1.8711 -2.6176
  568MOL0     H76622   7.596   9.204   1.991  0.1694 -2.7840  1.4882
  568MOL0     H76623   7.753   9.358   1.910  0.8604  0.8023  0.4008
  568MOL0     H76624   7.694   9.430   2.058 -3.0823 -3.2612  1.9002
  568MOL0     H76625   7.884   9.378   2.183 -0.0946  2.2929 -0.3073
  568MOL0     H76626   7.951   9.272   2.051  0.8952  1.1757 -2.5529
  568MOL0     H76627   7.928   9.585   2.046  0.3730  1.2935 -2.5913
  568MOL0     H76628   7.962   9.496   1.913 -1.9956  1.3533  0.2706
  568MOL0     H76629   8.141   9.464   2.173  0.4530 -1.8909  0.7863
  568MOL0     H76630   8.180   9.431   2.002  0.8595 -1.2595  3.0608
  568MOL0     H76631   8.225   9.620   1.835 -2.2281 -0.4335 -0.4224
  568MOL0     H76632   8.414   9.803   1.775 -1.2692  0.0419 -0.2480
  568MOL0     H76633   8.294   9.918   1.793 -0.9475 -0.0303  1.3910
  568MOL0     H76634   8.405  10.011   1.988  1.0210  0.1576  0.4390
  568MOL0     H76635   8.543   9.897   1.967 -0.4999  0.1835  0.5711
  568MOL0     H76636   8.561  10.147   1.838  2.8165 -0.7723 -1.9738
  568MOL0     H76637   8.450  10.087   1.722 -1.1367 -0.6297 -0.7394
  568MOL0     H76638   8.586   9.893   1.676  1.5433 -1.2090 -0.0609
  568MOL0     H76639   8.712   9.940   1.808  0.7285 -0.4974 -1.1664
  568MOL0     H76640   8.745   9.803   1.546  0.2157 -0.0239  0.7336
  568MOL0     H76641   8.899   9.747   1.371 -4.3547  1.0938 -2.1479
  568MOL0     H76642   9.244  10.180   1.050 -0.6919  0.5863 -0.3956
  568MOL0     H76643   9.433  10.176   0.894  1.8214 -1.9744 -0.1549
  568MOL0     H76644   9.709   9.918   0.687  0.4337 -1.4566 -0.2770
  568MOL0     H76645   9.645   9.798   0.804  0.2456  0.0267  0.6562
  568MOL0     H76646   9.420   9.898   0.660  0.4650  0.4330  2.3496
  568MOL0     H76647   9.545   9.904   0.536 -1.6788  0.3634  0.2848
  568MOL0     H76648   9.580   9.645   0.545 -2.3626 -1.9836  0.0573
  568MOL0     H76649   9.498   9.655   0.706  1.3764  0.0111  0.6977
  568MOL0     H76650   9.286   9.704   0.587 -0.7638 -3.3165 -1.0202
  568MOL0     H76651   9.352   9.564   0.552  0.4567 -1.1592 -1.0715
  568MOL0     H76652   9.433   9.619   0.334 -0.0275  1.4868  0.5076
  568MOL0     H76653   9.411   9.789   0.366  2.9824 -0.1358  1.9129
  568MOL0     H76654   9.178   9.591   0.349 -2.8575  0.3923 -0.8364
  568MOL0     H76655   9.167   9.763   0.402  2.8435  1.7588 -0.4485
  568MOL0     H76656   9.103   9.770   0.181  0.0219 -0.6849  1.7747
  568MOL0     H76657   9.232   9.651   0.126 -1.9975 -0.1111 -0.1194
  568MOL0     H76658   9.259   9.903   0.054  2.7807  1.7421 -0.8347
  568MOL0     H76659   9.302   9.931   0.227 -1.9459 -3.3057  4.0539
  568MOL0     H76660   9.489   9.764   0.940  0.1764  1.0247 -2.5901
  568MOL0     H76661   9.338   9.770   1.137 -1.4742  1.3963  1.7221
  568MOL0     H76662   9.068  10.143   1.394  0.9170 -2.1010 -0.8386
  568MOL0     H76663   8.899  10.204   1.546 -1.4349 -0.3593 -0.5893
  568MOL0     H76664   7.237   8.753   2.182 -0.0699  2.9184 -1.1179
  568MOL0     H76665   7.147   8.547   2.036 -0.1010  0.0360  0.9770
  568MOL0     H76666   7.057   8.313   1.817 -2.4033 -0.0441 -0.6149
  568MOL0     H76667   6.915   8.124   1.718 -0.3595 -1.6387 -0.6004
  568MOL0     H76668   7.119   7.774   1.647  0.3855  1.5030  0.2845
  568MOL0     H76669   7.129   7.792   1.471 -1.7846  0.7490 -0.7859
  568MOL0     H76670   6.894   7.704   1.630  2.4288 -1.4881  2.9429
  568MOL0     H76671   6.998   7.596   1.546 -2.0070 -1.1201 -1.6989
  568MOL0     H76672   6.946   7.686   1.320 -4.7383  0.2821 -2.9693
  568MOL0     H76673   6.848   7.817   1.383 -1.2439  0.2052  2.6950
  568MOL0     H76674   6.806   7.508   1.396  0.6130 -0.3826  0.5544
  568MOL0     H76675   6.717   7.632   1.500  0.5073  0.5325  0.8360
  568MOL0     H76676   6.505   7.717   1.171 -0.5880 -0.9550  0.4558
  568MOL0     H76677   7.265   7.946   1.569  0.9088 -0.5934 -1.0909
  568MOL0     H76678   7.492   8.215   1.619  4.3455 -1.4680 -0.8381
  568MOL0     H76679   7.499   8.076   1.738 -1.2665  2.1508  1.3616
  568MOL0     H76680   7.459   8.048   1.565 -1.5210 -0.0591  0.4891
  569MOL0     O76681   6.331   7.579  10.895 -0.2668  0.0358 -0.1702
  569MOL0     C76682   6.361   7.464  10.864  0.2529  0.4371 -0.0290
  569MOL0     O76683   6.272   7.366  10.817 -0.4019 -0.1814  0.8071
  569MOL0     C76684   6.139   7.409  10.831  0.8542 -0.0960 -0.6189
  569MOL0     C76685   6.087   7.423  10.959  0.9534  0.9462  0.0954
  569MOL0     C76686   5.950   7.459  10.974 -0.7641 -0.0656  0.6038
  569MOL0     C76687   5.868   7.474  10.861 -0.4739  0.7000  0.6221
  569MOL0     O76688   5.741   7.498  10.871  0.3712  0.4044 -0.2419
  569MOL0     C76689   5.683   7.372  10.912  0.3745  0.3071  0.1581
  569MOL0     C76690   5.547   7.437  10.955  0.9723 -0.0810 -0.3322
  569MOL0     C76691   5.459   7.334  11.029 -0.5390 -0.3111  0.8542
  569MOL0     C76692   5.311   7.378  11.057 -0.4810 -0.4244  0.2181
  569MOL0     C76693   5.260   7.280  11.171 -0.2220  0.3075  1.1796
  569MOL0     C76694   5.105   7.292  11.182 -0.3423  0.7000 -0.4563
  569MOL0     C76695   5.035   7.170  11.125 -0.1886  0.1386  0.3366
  569MOL0     C76696   5.002   7.071  11.238 -0.1436  1.2594 -0.0109
  569MOL0     N76697   4.907   6.969  11.172 -0.0106 -0.2363  0.3285
  569MOL0     C76698   4.924   6.910  11.043  0.2255  0.5855 -0.3969
  569MOL0     C76699   4.841   6.794  11.054 -0.1417 -0.3081 -0.3582
  569MOL0     C76700   4.833   6.679  10.954 -0.5602 -0.0600 -0.7558
  569MOL0     C76701   4.975   6.613  10.924  0.1379  0.3673  0.2031
  569MOL0     C76702   5.057   6.557  11.037  0.1040  0.2910  0.5837
  569MOL0     C76703   5.197   6.520  10.983  1.0032 -1.0494 -0.0637
  569MOL0     O76704   5.272   6.449  11.078  0.3802  0.6664  0.1314
  569MOL0     C76705   5.270   6.313  11.089 -0.0220  0.0038 -0.8205
  569MOL0     C76706   5.360   6.253  11.173  0.3719  0.0620  0.4575
  569MOL0     C76707   5.367   6.111  11.182  0.9257 -0.4778 -0.3173
  569MOL0     C76708   5.281   6.028  11.118  0.2401 -0.1835 -0.6305
  569MOL0     C76709   5.303   5.879  11.113 -0.3081  0.3457  0.4956
  569MOL0     O76710   5.428   5.825  11.156  0.2775 -0.0997 -0.1585
  569MOL0     C76711   5.455   5.684  11.170  0.5566 -0.2160  0.2761
  569MOL0     C76712   5.413   5.590  11.071 -0.0670  0.0638 -0.0037
  569MOL0     C76713   5.464   5.457  11.080 -0.5650 -0.0223 -0.6584
  569MOL0     C76714   5.557   5.413  11.179 -0.3758  0.2045  0.4224
  569MOL0     O76715   5.615   5.285  11.181  0.7277 -0.6761  0.7651
  569MOL0     C76716   5.698   5.249  11.289  0.0937 -0.0254 -0.0958
  569MOL0     C76717   5.845   5.270  11.239  0.4040 -0.0361 -1.1233
  569MOL0     C76718   5.882   5.173  11.143 -0.1204 -0.5649 -0.1945
  569MOL0     C76719   5.943   5.042  11.192  0.2763  0.0451  0.5784
  569MOL0     C76720   6.100   5.050  11.193 -0.1581 -0.3369 -0.5372
  569MOL0     C76721   6.178   4.928  11.252  0.0185 -0.2517  0.0452
  569MOL0     C76722   6.325   4.947  11.222 -0.2981 -0.0304  0.7791
  569MOL0     C76723   6.420   4.850  11.304  0.4376  0.3345 -0.2164
  569MOL0    Cl76724   6.427   4.915  11.472  0.4024 -0.2103  0.1697
  569MOL0     C76725   5.590   5.516  11.275  0.3644  0.7479 -0.4791
  569MOL0     C76726   5.542   5.641  11.267  0.3711 -0.5299 -0.2673
  569MOL0     O76727   5.218   5.808  11.054  0.3459 -0.0795  0.0520
  569MOL0     C76728   5.185   6.092  11.040  0.0469  0.7871  0.7962
  569MOL0     C76729   5.179   6.233  11.020  0.1105  0.4442 -0.1620
  569MOL0     N76730   4.767   6.790  11.172 -0.6405 -0.1849  1.1345
  569MOL0     N76731   4.812   6.897  11.235 -0.2019 -0.9078  0.4440
  569MOL0     C76732   5.925   7.464  10.735 -0.5435  0.0134 -0.9212
  569MOL0     C76733   6.057   7.433  10.718 -0.8810 -0.0481 -1.4478
  569MOL0     C76734   6.503   7.433  10.872  0.3876  0.4109 -0.1341
  569MOL0     C76735   6.577   7.509  10.778  0.8442 -0.4947 -0.3823
  569MOL0     C76736   6.720   7.498  10.774 -0.3167 -0.1390 -0.2933
  569MOL0     C76737   6.784   7.404  10.849 -0.3693 -0.5263  0.4237
  569MOL0     O76738   6.918   7.377  10.837  0.2269  0.1505 -0.3334
  569MOL0     C76739   6.994   7.482  10.791 -0.7448 -0.0255  0.4964
  569MOL0     C76740   7.138   7.428  10.780  0.7687  0.2773  0.1642
  569MOL0     C76741   7.219   7.446  10.908  0.9321  0.3363  0.7166
  569MOL0     C76742   7.361   7.399  10.888  0.0574 -0.7481 -0.0100
  569MOL0     C76743   7.439   7.487  10.805  0.3236 -0.6047  0.6685
  569MOL0     C76744   7.521   7.555  10.750  0.9449  0.4323 -0.1326
  569MOL0     C76745   6.702   7.322  10.933 -0.6821  0.1894  0.9086
  569MOL0     C76746   6.562   7.340  10.955 -0.1843 -0.7084 -0.3305
  569MOL0     C76747   6.486   7.251  11.050 -0.3507  0.0452 -0.7346
  569MOL0     H76748   6.158   7.414  11.041  0.4505  2.6457  0.7754
  569MOL0     H76749   5.911   7.484  11.072 -1.0476  1.3875  0.1357
  569MOL0     H76750   5.660   7.311  10.824 -2.3934 -0.3941  1.2424
  569MOL0     H76751   5.744   7.315  10.983  2.7868 -0.1372 -2.1435
  569MOL0     H76752   5.487   7.474  10.871 -3.1144 -0.8861  1.9533
  569MOL0     H76753   5.562   7.520  11.024  0.1208 -2.0741  2.4358
  569MOL0     H76754   5.499   7.327  11.131  3.2662 -0.1995 -0.4700
  569MOL0     H76755   5.465   7.237  10.979  0.2613  1.3068 -2.4934
  569MOL0     H76756   5.314   7.484  11.084 -3.0554 -0.0291 -0.7505
  569MOL0     H76757   5.252   7.378  10.965  1.0204  1.7673 -0.8188
  569MOL0     H76758   5.280   7.177  11.142 -2.3490  0.0314  0.5212
  569MOL0     H76759   5.303   7.301  11.270  2.4568  1.7975 -0.2007
  569MOL0     H76760   5.080   7.308  11.287  0.1113 -0.3079 -0.1741
  569MOL0     H76761   5.078   7.380  11.124 -3.3150 -0.7164 -1.4433
  569MOL0     H76762   5.095   7.128  11.043  1.0626 -3.6492  2.9174
  569MOL0     H76763   4.950   7.200  11.063  1.1838 -2.8554 -3.4684
  569MOL0     H76764   5.083   7.008  11.276 -2.9534 -3.5384 -1.1419
  569MOL0     H76765   4.953   7.124  11.320 -0.1590  2.1558 -0.5844
  569MOL0     H76766   4.994   6.932  10.964 -3.0663 -0.5009 -3.9201
  569MOL0     H76767   4.769   6.607  11.006  2.0869  0.5807  3.9212
  569MOL0     H76768   4.773   6.711  10.868  1.1205  1.6135 -1.3729
  569MOL0     H76769   4.953   6.529  10.857 -0.1955 -1.7225  2.7942
  569MOL0     H76770   5.038   6.687  10.873 -0.7537  0.9102 -0.1338
  569MOL0     H76771   5.006   6.469  11.078  0.0847 -0.2775 -0.6038
  569MOL0     H76772   5.060   6.631  11.116 -0.9725  1.5700 -0.5157
  569MOL0     H76773   5.250   6.613  10.962 -0.0298 -0.1162  1.2757
  569MOL0     H76774   5.184   6.476  10.884 -3.4868 -0.3957  0.0415
  569MOL0     H76775   5.428   6.313  11.233  0.7272 -0.7017  0.8382
  569MOL0     H76776   5.457   6.067  11.226  2.2139  0.6630 -1.7101
  569MOL0     H76777   5.347   5.602  10.985 -0.4218 -0.4101  0.1979
  569MOL0     H76778   5.430   5.378  11.013  0.7507 -0.2544 -1.0766
  569MOL0     H76779   5.674   5.300  11.383 -2.4880  0.2609 -0.8326
  569MOL0     H76780   5.684   5.144  11.317  1.4575  0.2147  1.6768
  569MOL0     H76781   5.856   5.370  11.196 -3.0308  1.6280  1.3832
  569MOL0     H76782   5.913   5.267  11.325  1.0745  3.5923 -1.3775
  569MOL0     H76783   5.799   5.154  11.075 -1.5390 -1.1762  1.6420
  569MOL0     H76784   5.958   5.228  11.087  0.5959 -1.2088  0.1233
  569MOL0     H76785   5.910   4.973  11.115  3.0943 -0.1201 -0.5997
  569MOL0     H76786   5.903   5.009  11.289  0.2698 -1.0322  0.2216
  569MOL0     H76787   6.132   5.148  11.230 -0.7510  0.9080 -3.0873
  569MOL0     H76788   6.132   5.054  11.089  2.4641 -0.4735  0.1776
  569MOL0     H76789   6.169   4.913  11.360 -2.9914 -2.1199 -0.3620
  569MOL0     H76790   6.146   4.837  11.201  0.4782 -1.1714  1.3648
  569MOL0     H76791   6.355   5.050  11.244 -1.0172  0.4994 -0.6384
  569MOL0     H76792   6.341   4.912  11.120  0.2838  0.2676  0.7667
  569MOL0     H76793   6.373   4.753  11.319  0.4669 -0.1298 -2.7261
  569MOL0     H76794   6.517   4.837  11.256  1.0501  2.8306  0.1949
  569MOL0     H76795   5.662   5.505  11.356  1.2156  2.5143 -0.9421
  569MOL0     H76796   5.585   5.719  11.328  0.4770  0.6099 -1.7511
  569MOL0     H76797   5.121   6.031  10.978  1.1636  1.5456 -1.1869
  569MOL0     H76798   5.099   6.275  10.959  0.7371  0.6394 -0.8728
  569MOL0     H76799   5.851   7.477  10.658 -0.6555  0.1948 -0.7849
  569MOL0     H76800   6.103   7.434  10.619 -0.6662  0.7607 -1.3446
  569MOL0     H76801   6.530   7.580  10.711 -2.0789 -1.9555 -0.0427
  569MOL0     H76802   6.770   7.562  10.702  1.2071  1.4476  2.0441
  569MOL0     H76803   6.989   7.574  10.849 -0.4326 -0.2351  0.8579
  569MOL0     H76804   6.961   7.519  10.693 -4.0964  1.2843  1.9572
  569MOL0     H76805   7.188   7.474  10.694 -0.0668  0.2188 -0.3719
  569MOL0     H76806   7.127   7.320  10.763 -2.8828 -0.0983  3.5263
  569MOL0     H76807   7.171   7.380  10.981 -1.5262  0.9993 -0.2190
  569MOL0     H76808   7.222   7.546  10.951  1.8671  0.4790  0.3538
  569MOL0     H76809   7.398   7.399  10.991  2.0902  1.4616 -0.6597
  569MOL0     H76810   7.358   7.297  10.850  2.2770 -0.6726 -0.4844
  569MOL0     H76811   7.575   7.603  10.671 -2.5633  0.0780 -3.0246
  569MOL0     H76812   6.753   7.240  10.983  2.0751 -0.5238 -2.6701
  569MOL0     H76813   6.561   7.211  11.120  0.2185 -0.4470 -1.6108
  569MOL0     H76814   6.418   7.308  11.114 -0.3149 -1.1993  0.4640
  569MOL0     H76815   6.461   7.154  11.006  0.3280  0.8899 -3.1161
  570MOL0     O76816   3.118   1.782   7.589  0.0186  0.1505 -0.1492
  570MOL0     C76817   3.068   1.863   7.514 -0.3066  0.5016  0.3314
  570MOL0     O76818   2.943   1.852   7.464  0.6418 -0.0549  0.2732
  570MOL0     C76819   2.882   1.731   7.455 -0.2683 -1.0562 -1.3024
  570MOL0     C76820   2.769   1.695   7.526  0.5166 -0.2514  0.1731
  570MOL0     C76821   2.709   1.571   7.501 -1.2032 -0.5154  0.7568
  570MOL0     C76822   2.754   1.484   7.404  0.9194  0.6706 -0.8892
  570MOL0     O76823   2.688   1.369   7.375 -0.1385 -0.5423  0.3005
  570MOL0     C76824   2.679   1.259   7.465 -0.2311  0.5305  0.2705
  570MOL0     C76825   2.568   1.153   7.427  0.4423  0.7750  0.3699
  570MOL0     C76826   2.580   1.037   7.528 -0.9322 -0.4700  0.2673
  570MOL0     C76827   2.449   0.952   7.516 -0.9355  0.3782  0.1934
  570MOL0     C76828   2.408   0.912   7.373 -0.5898  0.3510  0.3769
  570MOL0     C76829   2.510   0.836   7.299 -0.1553  1.0334 -0.3456
  570MOL0     C76830   2.585   0.731   7.377 -1.6059 -0.9060 -0.1507
  570MOL0     C76831   2.519   0.617   7.443 -0.7136  0.0950  0.4981
  570MOL0     N76832   2.614   0.519   7.490 -0.1197 -0.7085  0.0519
  570MOL0     C76833   2.696   0.519   7.596 -0.5487 -0.0013  0.0340
  570MOL0     C76834   2.764   0.404   7.595 -0.1438 -0.2849 -1.2547
  570MOL0     C76835   2.878   0.352   7.679 -0.3262  0.3213  1.0657
  570MOL0     C76836   3.015   0.421   7.639  0.1075  0.1817 -0.5073
  570MOL0     C76837   3.130   0.382   7.735 -1.1600  0.2422 -0.3865
  570MOL0     C76838   3.260   0.425   7.659 -0.5799  0.5487  0.2018
  570MOL0     O76839   3.340   0.307   7.640  0.1231  0.1894 -0.5538
  570MOL0     C76840   3.466   0.313   7.591  0.2932 -0.7713 -0.7986
  570MOL0     C76841   3.548   0.201   7.590  0.4474 -0.0353 -0.2641
  570MOL0     C76842   3.680   0.211   7.556  0.3283  0.5503 -0.6252
  570MOL0     C76843   3.733   0.330   7.520 -0.4819 -0.3249 -0.6240
  570MOL0     C76844   3.885   0.343   7.504  0.4929 -0.2496 -0.0283
  570MOL0     O76845   3.969   0.256   7.563 -0.7689 -0.1123  0.7507
  570MOL0     C76846   4.102   0.294   7.569 -0.0248 -0.8779 -0.6918
  570MOL0     C76847   4.137   0.423   7.622  0.3531  0.2050  0.5916
  570MOL0     C76848   4.277   0.453   7.632 -0.0584 -0.8454 -0.0024
  570MOL0     C76849   4.375   0.358   7.584  0.7252 -0.4256  0.1495
  570MOL0     O76850   4.508   0.354   7.598 -0.7664 -0.4646  0.1363
  570MOL0     C76851   4.565   0.459   7.684 -0.5652 -0.6812  0.2189
  570MOL0     C76852   4.561   0.422   7.832  0.1423  0.5193  1.3387
  570MOL0     C76853   4.626   0.536   7.915 -0.3473  0.7496 -0.6554
  570MOL0     C76854   4.774   0.522   7.941  0.5033 -0.1536 -0.6026
  570MOL0     C76855   4.822   0.640   8.031 -0.1843 -0.6134  0.0697
  570MOL0     C76856   4.958   0.625   8.108 -0.2268 -0.3315  0.5657
  570MOL0     C76857   4.985   0.754   8.183 -0.8456 -0.3523 -0.1172
  570MOL0     C76858   5.131   0.760   8.230  0.6240  0.9019 -0.5020
  570MOL0    Cl76859   5.163   0.907   8.327 -0.1902  0.3244 -0.1140
  570MOL0     C76860   4.336   0.242   7.526 -0.1934  0.2065 -0.4502
  570MOL0     C76861   4.199   0.214   7.513 -0.5667  0.1384  0.4688
  570MOL0     O76862   3.914   0.445   7.433  0.3002  0.9033 -0.7174
  570MOL0     C76863   3.654   0.446   7.508  0.2680  1.6099  0.2557
  570MOL0     C76864   3.525   0.435   7.546  0.2393 -0.3941 -0.5411
  570MOL0     N76865   2.722   0.326   7.488 -0.5916  0.5878  0.1520
  570MOL0     N76866   2.640   0.397   7.432  0.2931  0.1573  0.2248
  570MOL0     C76867   2.873   1.516   7.336  0.8049 -0.2475 -0.3658
  570MOL0     C76868   2.930   1.645   7.358 -1.1511  0.5997 -0.2782
  570MOL0     C76869   3.142   1.985   7.476  0.3078 -0.3956  0.0382
  570MOL0     C76870   3.072   2.098   7.442  0.2848 -0.5472  0.0354
  570MOL0     C76871   3.140   2.216   7.432 -0.2504  1.2008  1.1111
  570MOL0     C76872   3.274   2.230   7.452 -1.5690 -0.5524 -0.2153
  570MOL0     O76873   3.332   2.360   7.445 -0.7640 -0.5410 -0.4808
  570MOL0     C76874   3.470   2.376   7.468 -0.6734  0.3258  0.0678
  570MOL0     C76875   3.539   2.438   7.354 -0.6641 -0.6005  0.7272
  570MOL0     C76876   3.603   2.340   7.255 -0.4815 -1.0385 -0.5948
  570MOL0     C76877   3.502   2.255   7.172 -0.6104 -0.2667  0.5169
  570MOL0     C76878   3.558   2.183   7.057  0.8812  0.8384  0.7122
  570MOL0     C76879   3.615   2.130   6.961 -0.4449 -0.6480  0.5364
  570MOL0     C76880   3.345   2.113   7.479  0.2417  0.4932 -0.3721
  570MOL0     C76881   3.287   1.983   7.480 -0.3749  0.1771 -0.0011
  570MOL0     C76882   3.385   1.871   7.522  0.1037  0.1704  0.6754
  570MOL0     H76883   2.730   1.769   7.595  1.8930  1.3010 -0.6625
  570MOL0     H76884   2.627   1.542   7.567 -2.3698 -0.2344 -0.5208
  570MOL0     H76885   2.776   1.208   7.470  0.1692  1.3076  0.5423
  570MOL0     H76886   2.651   1.304   7.561  1.1506 -0.5705  1.2410
  570MOL0     H76887   2.574   1.117   7.324  0.9038  0.5642  0.4677
  570MOL0     H76888   2.473   1.208   7.430 -0.4401 -0.7204  1.6329
  570MOL0     H76889   2.612   1.069   7.628 -1.0539 -1.2206  0.5532
  570MOL0     H76890   2.666   0.988   7.482 -1.3792  1.2825 -2.6604
  570MOL0     H76891   2.458   0.863   7.580  1.2507  0.4780  0.1024
  570MOL0     H76892   2.363   1.015   7.541 -0.7463  1.8539 -2.5659
  570MOL0     H76893   2.316   0.853   7.381 -0.7439  0.5988  0.4730
  570MOL0     H76894   2.382   0.999   7.312  0.5419  2.3940  2.6088
  570MOL0     H76895   2.459   0.775   7.223  1.2698 -1.3354  0.4952
  570MOL0     H76896   2.575   0.906   7.246 -1.2380  3.0461  0.8453
  570MOL0     H76897   2.646   0.776   7.456  0.6670 -3.2072 -0.4387
  570MOL0     H76898   2.662   0.693   7.309 -0.9085 -0.8419  0.5908
  570MOL0     H76899   2.459   0.660   7.523 -1.9757  1.3729 -1.0596
  570MOL0     H76900   2.463   0.564   7.366  2.4294 -3.7269  0.5042
  570MOL0     H76901   2.711   0.606   7.659 -2.3727 -0.7880  1.6505
  570MOL0     H76902   2.864   0.352   7.787  1.0427  3.5110  1.3366
  570MOL0     H76903   2.893   0.251   7.639  1.0925  0.8002  0.3042
  570MOL0     H76904   3.047   0.387   7.540 -1.5361 -1.1837 -0.6164
  570MOL0     H76905   3.001   0.529   7.641 -3.6052 -0.1453 -1.9232
  570MOL0     H76906   3.136   0.277   7.764  1.3371  1.0860  2.7318
  570MOL0     H76907   3.124   0.440   7.828 -0.5200  0.3074 -0.3787
  570MOL0     H76908   3.324   0.500   7.706  1.9512 -0.1092 -1.9917
  570MOL0     H76909   3.238   0.469   7.561  1.4754 -1.4962 -1.2697
  570MOL0     H76910   3.507   0.105   7.618  0.0642 -0.7486 -2.9969
  570MOL0     H76911   3.733   0.118   7.569 -3.0142 -1.3590  0.4153
  570MOL0     H76912   4.063   0.496   7.650  1.2925  0.9527  1.1848
  570MOL0     H76913   4.310   0.545   7.679  0.7229 -2.3170  2.5381
  570MOL0     H76914   4.670   0.473   7.657 -0.6481  1.5380  0.7988
  570MOL0     H76915   4.518   0.557   7.671 -0.6339 -0.1869  3.3685
  570MOL0     H76916   4.454   0.404   7.850  0.2819 -1.2502  0.5602
  570MOL0     H76917   4.608   0.327   7.859  1.8701 -0.5578 -4.1252
  570MOL0     H76918   4.605   0.637   7.880  1.7189  2.0983  1.6213
  570MOL0     H76919   4.570   0.537   8.009 -0.4054  0.1979 -0.6799
  570MOL0     H76920   4.822   0.516   7.843  0.0579 -3.7699 -0.7049
  570MOL0     H76921   4.784   0.427   7.994 -0.7105  0.2600  0.4299
  570MOL0     H76922   4.742   0.658   8.102 -2.1154 -2.6881 -1.4297
  570MOL0     H76923   4.834   0.718   7.955 -0.4399 -2.3801 -1.8930
  570MOL0     H76924   4.943   0.544   8.179 -0.5292 -0.2035  0.6462
  570MOL0     H76925   5.043   0.596   8.044  2.1218 -2.4446  4.2793
  570MOL0     H76926   4.921   0.756   8.271  1.8266 -0.8211  1.9781
  570MOL0     H76927   4.950   0.839   8.124 -1.0707  0.5037  1.2048
  570MOL0     H76928   5.152   0.667   8.283 -3.3619 -0.5456 -1.1750
  570MOL0     H76929   5.193   0.768   8.141  1.6636 -0.7100  0.0363
  570MOL0     H76930   4.411   0.173   7.487 -0.6153 -2.0817  2.4018
  570MOL0     H76931   4.165   0.125   7.460  0.2538  0.1062 -0.0215
  570MOL0     H76932   3.681   0.545   7.474  0.7913  1.3552 -0.0808
  570MOL0     H76933   3.463   0.524   7.540  1.7394  0.5802 -2.7693
  570MOL0     H76934   2.930   1.467   7.258  1.8202 -0.0493  0.2393
  570MOL0     H76935   3.012   1.676   7.293 -1.7053  1.9081 -0.3819
  570MOL0     H76936   2.963   2.105   7.444  0.2950  1.1328 -2.1059
  570MOL0     H76937   3.083   2.305   7.404  2.5937  2.7293 -0.2499
  570MOL0     H76938   3.530   2.287   7.486  3.3217  2.3453 -2.0032
  570MOL0     H76939   3.472   2.429   7.563  0.4973 -0.9968  0.8024
  570MOL0     H76940   3.622   2.495   7.396 -0.6093  1.4590 -1.8518
  570MOL0     H76941   3.479   2.513   7.300 -0.1189 -0.8846 -0.3049
  570MOL0     H76942   3.666   2.263   7.301 -2.0353 -1.0979  1.5957
  570MOL0     H76943   3.660   2.400   7.184  1.5227 -1.5330  0.5126
  570MOL0     H76944   3.440   2.189   7.235 -1.5640  1.6813  1.7194
  570MOL0     H76945   3.423   2.326   7.144 -0.8058 -0.6046  0.1948
  570MOL0     H76946   3.692   2.101   6.891 -0.7992 -1.4897  0.4859
  570MOL0     H76947   3.453   2.114   7.490  0.5301  1.2199 -2.6995
  570MOL0     H76948   3.347   1.768   7.526  1.6223 -0.3744  2.6757
  570MOL0     H76949   3.472   1.868   7.456  0.2033 -0.4325  0.8311
  570MOL0     H76950   3.423   1.882   7.624  4.0183 -0.6643 -0.5510
  571MOL0     O76951   8.301   0.777   8.236  0.0088  0.6127 -0.2649
  571MOL0     C76952   8.376   0.818   8.153  0.5313  0.0394 -0.1809
  571MOL0     O76953   8.337   0.852   8.031  0.3346  0.1991  0.1924
  571MOL0     C76954   8.210   0.821   7.985 -0.7182  0.1459 -0.0968
  571MOL0     C76955   8.146   0.690   7.986  0.1197 -1.0224 -0.1054
  571MOL0     C76956   8.028   0.677   7.904 -0.3705  1.1088 -0.0499
  571MOL0     C76957   7.966   0.785   7.843  0.3891 -0.4471 -0.3465
  571MOL0     O76958   7.841   0.778   7.780 -0.4643  0.6430 -0.2519
  571MOL0     C76959   7.801   0.646   7.733 -0.0942 -0.6440 -0.1749
  571MOL0     C76960   7.671   0.652   7.657  0.3930  0.1932  0.4866
  571MOL0     C76961   7.605   0.516   7.655  0.6048  0.5323 -0.3638
  571MOL0     C76962   7.463   0.510   7.608 -0.3508  0.0346 -0.3423
  571MOL0     C76963   7.401   0.379   7.613  0.5892  1.0933 -0.5399
  571MOL0     C76964   7.267   0.370   7.541  0.6728  0.2999  0.6235
  571MOL0     C76965   7.203   0.230   7.559  0.0147 -0.1967  0.1025
  571MOL0     C76966   7.054   0.246   7.554  0.5620  0.5141  0.6822
  571MOL0     N76967   6.988   0.299   7.671 -0.6384  0.8494 -0.4151
  571MOL0     C76968   6.867   0.361   7.671  0.3573 -0.3337 -1.0386
  571MOL0     C76969   6.817   0.343   7.800  0.2994  0.4640 -0.4215
  571MOL0     C76970   6.692   0.404   7.854 -0.7443 -0.8851 -0.3554
  571MOL0     C76971   6.577   0.325   7.812  0.0577 -0.5131  0.7447
  571MOL0     C76972   6.572   0.188   7.877  0.7159  0.6249  0.4525
  571MOL0     C76973   6.424   0.152   7.921 -0.1108 -0.7973 -0.9012
  571MOL0     O76974   6.396   0.236   8.036  0.1265 -0.3226 -0.5260
  571MOL0     C76975   6.265   0.238   8.083  0.0911  0.5330 -0.5754
  571MOL0     C76976   6.171   0.129   8.070  0.0216 -0.4465 -0.0960
  571MOL0     C76977   6.049   0.145   8.129 -0.2775 -0.3554  0.5789
  571MOL0     C76978   6.011   0.258   8.204 -0.2006 -0.4908 -1.0047
  571MOL0     C76979   5.888   0.258   8.284  0.4617  0.4245  0.2451
  571MOL0     O76980   5.881   0.359   8.373 -0.3927 -0.3962 -0.0481
  571MOL0     C76981   5.765   0.381   8.442 -0.1733 -0.2457 -0.5668
  571MOL0     C76982   5.685   0.498   8.419 -0.3247 -0.7405 -1.1594
  571MOL0     C76983   5.574   0.530   8.495 -0.0997 -0.1596 -0.1455
  571MOL0     C76984   5.526   0.424   8.579 -0.9272 -0.3964 -1.0712
  571MOL0     O76985   5.417   0.434   8.659 -0.0243  0.6051 -0.3706
  571MOL0     C76986   5.443   0.509   8.771 -0.1060  0.2901 -1.0268
  571MOL0     C76987   5.323   0.498   8.862 -0.1838 -0.0715  0.9720
  571MOL0     C76988   5.361   0.559   8.991 -0.5148  0.8216 -0.2389
  571MOL0     C76989   5.289   0.497   9.115  0.4933  0.2229 -0.3034
  571MOL0     C76990   5.386   0.499   9.229 -0.6012  0.1340 -0.4550
  571MOL0     C76991   5.343   0.437   9.363 -0.0868 -0.7450 -0.5311
  571MOL0     C76992   5.334   0.280   9.382  0.0066 -0.3727 -0.1005
  571MOL0     C76993   5.258   0.235   9.517  0.6494  0.1108  0.8997
  571MOL0    Cl76994   5.318   0.320   9.654  0.1166  0.3349 -0.2100
  571MOL0     C76995   5.593   0.303   8.597 -0.9773  0.0946 -0.3130
  571MOL0     C76996   5.703   0.283   8.514  0.5000  0.4515 -1.0763
  571MOL0     O76997   5.809   0.167   8.271  0.9939 -0.6167 -0.0048
  571MOL0     C76998   6.108   0.354   8.220 -0.4618 -0.0185 -0.4527
  571MOL0     C76999   6.231   0.348   8.162 -0.7377 -0.5575  0.7861
  571MOL0     N77000   6.922   0.302   7.885 -0.2994  0.9016 -0.3463
  571MOL0     N77001   7.021   0.283   7.806  0.9137  0.4974  0.1211
  571MOL0     C77002   8.031   0.905   7.840  1.2027 -0.2681  0.2898
  571MOL0     C77003   8.145   0.928   7.918  0.9101  0.3996  0.2148
  571MOL0     C77004   8.514   0.820   8.177  0.0165 -0.2643 -0.3183
  571MOL0     C77005   8.600   0.798   8.071 -0.1532  0.9876 -0.3409
  571MOL0     C77006   8.736   0.755   8.087 -0.3472 -0.6845  0.0939
  571MOL0     C77007   8.786   0.734   8.217  0.2355 -0.7061  0.2923
  571MOL0     O77008   8.917   0.687   8.224 -0.4325  0.0100  0.4455
  571MOL0     C77009   8.951   0.618   8.347  0.9837  0.3760  0.0714
  571MOL0     C77010   9.097   0.583   8.346 -0.4860 -0.0623 -0.4972
  571MOL0     C77011   9.187   0.711   8.346 -0.0707  0.4112  0.1566
  571MOL0     C77012   9.329   0.685   8.378  0.7443 -0.4559 -0.3267
  571MOL0     C77013   9.344   0.684   8.530 -0.0042  0.2720  0.6324
  571MOL0     C77014   9.348   0.681   8.646 -0.8352  0.5884 -0.1570
  571MOL0     C77015   8.701   0.763   8.327 -0.0503 -0.0302  0.9248
  571MOL0     C77016   8.567   0.804   8.308 -0.4350  0.2859  0.1192
  571MOL0     C77017   8.493   0.821   8.439  0.9439 -0.1233 -0.1107
  571MOL0     H77018   8.179   0.614   8.055 -2.1781 -0.4608  1.7271
  571MOL0     H77019   7.969   0.589   7.928  3.2858 -1.2092  1.2494
  571MOL0     H77020   7.889   0.613   7.676  0.9803 -1.5137  1.8748
  571MOL0     H77021   7.785   0.579   7.818 -1.5626  1.0024  0.9083
  571MOL0     H77022   7.694   0.667   7.551  0.9389 -2.1043  0.2373
  571MOL0     H77023   7.601   0.724   7.702  0.6799  0.7778  0.0014
  571MOL0     H77024   7.627   0.466   7.750  0.6917 -0.1127 -0.7175
  571MOL0     H77025   7.661   0.445   7.593 -2.1533 -1.1252 -1.1151
  571MOL0     H77026   7.400   0.575   7.669 -2.2031  0.5410 -2.6785
  571MOL0     H77027   7.447   0.537   7.503 -2.8999 -0.5244 -0.1477
  571MOL0     H77028   7.462   0.301   7.569 -0.4825 -0.2162  0.2184
  571MOL0     H77029   7.386   0.352   7.718 -1.8248 -0.0938 -1.1111
  571MOL0     H77030   7.201   0.447   7.582  0.9007  0.1145  1.3434
  571MOL0     H77031   7.270   0.375   7.431 -0.5004 -1.0535  0.4985
  571MOL0     H77032   7.220   0.191   7.660  0.4623 -1.4048 -0.4190
  571MOL0     H77033   7.249   0.159   7.489 -1.1895 -1.2438  0.3331
  571MOL0     H77034   7.011   0.301   7.469 -0.7147 -0.1062  0.9048
  571MOL0     H77035   7.002   0.151   7.543  1.4867  0.1989 -1.7527
  571MOL0     H77036   6.807   0.415   7.599 -1.8023  1.4026  1.8354
  571MOL0     H77037   6.689   0.409   7.963 -0.7094  1.2473 -0.4044
  571MOL0     H77038   6.675   0.501   7.807 -0.8443 -1.5839 -1.8236
  571MOL0     H77039   6.487   0.384   7.834  0.4847  2.2002 -3.6375
  571MOL0     H77040   6.570   0.310   7.704  0.4539  1.4472  0.4206
  571MOL0     H77041   6.640   0.183   7.963  1.3804  1.1818 -0.0303
  571MOL0     H77042   6.601   0.106   7.810  2.0750 -0.1560  1.9403
  571MOL0     H77043   6.409   0.044   7.931  0.5713 -0.6502  3.7978
  571MOL0     H77044   6.348   0.189   7.851 -1.1509 -0.2029  0.5075
  571MOL0     H77045   6.193   0.041   8.011  0.4327  1.0928 -2.3831
  571MOL0     H77046   5.987   0.058   8.107  1.0579 -1.2154  0.0815
  571MOL0     H77047   5.724   0.579   8.358  0.0597 -0.9833 -1.2393
  571MOL0     H77048   5.515   0.622   8.488 -1.7455 -1.2717 -1.8691
  571MOL0     H77049   5.525   0.461   8.825 -1.9542  0.1673  1.8703
  571MOL0     H77050   5.461   0.615   8.752 -0.4760  0.2051 -1.9317
  571MOL0     H77051   5.235   0.540   8.811  1.1710  1.9067  0.1366
  571MOL0     H77052   5.316   0.389   8.873 -0.1867 -1.0211 -4.9254
  571MOL0     H77053   5.466   0.530   8.997 -1.3045 -2.0496  1.2585
  571MOL0     H77054   5.344   0.667   8.997 -3.5414  0.4191 -0.1281
  571MOL0     H77055   5.261   0.393   9.094  2.4922 -0.1223 -1.5049
  571MOL0     H77056   5.190   0.542   9.129 -2.6888 -4.2649 -4.5944
  571MOL0     H77057   5.413   0.603   9.249  1.6076 -0.8649  2.3829
  571MOL0     H77058   5.481   0.453   9.199  1.5047  3.4013  0.6105
  571MOL0     H77059   5.414   0.464   9.442 -3.8666 -2.5196  4.0216
  571MOL0     H77060   5.245   0.467   9.403 -0.5707 -2.2986 -0.4988
  571MOL0     H77061   5.436   0.241   9.371  0.8274  2.1667 -2.6990
  571MOL0     H77062   5.274   0.242   9.299 -0.3813  2.4462 -1.2038
  571MOL0     H77063   5.153   0.260   9.501  1.4146  1.3487 -3.5360
  571MOL0     H77064   5.272   0.127   9.525  1.3567  0.1631  0.5285
  571MOL0     H77065   5.549   0.244   8.677 -1.3463  0.2457 -0.4060
  571MOL0     H77066   5.756   0.189   8.526  1.3792  1.1317  0.6174
  571MOL0     H77067   6.077   0.438   8.282 -1.0510 -0.2518 -0.4182
  571MOL0     H77068   6.293   0.437   8.167  1.8677 -2.0103 -2.3223
  571MOL0     H77069   7.980   0.974   7.773 -1.5969 -3.7998 -1.5217
  571MOL0     H77070   8.196   1.022   7.902  0.8731  0.3014 -0.5291
  571MOL0     H77071   8.580   0.805   7.965  4.4720 -1.5643 -1.6537
  571MOL0     H77072   8.803   0.737   8.004  3.5708 -0.6983  2.9524
  571MOL0     H77073   8.887   0.529   8.346 -0.6175  1.4612 -1.6943
  571MOL0     H77074   8.945   0.690   8.429  0.7830  1.8835 -1.2181
  571MOL0     H77075   9.129   0.527   8.258 -1.9969 -2.7379  0.5228
  571MOL0     H77076   9.125   0.526   8.435  1.8366 -0.0503 -1.1437
  571MOL0     H77077   9.149   0.796   8.402  0.2295  0.3572  0.4472
  571MOL0     H77078   9.182   0.748   8.243  1.8403  3.4060  1.0017
  571MOL0     H77079   9.374   0.596   8.332 -0.1983  0.0381 -2.3160
  571MOL0     H77080   9.380   0.773   8.336  1.7999 -1.5579 -1.4576
  571MOL0     H77081   9.368   0.677   8.751 -0.0658 -1.5175 -0.3399
  571MOL0     H77082   8.731   0.753   8.431  0.3015 -3.4466  0.6101
  571MOL0     H77083   8.404   0.883   8.422  0.1899 -1.3969 -0.9075
  571MOL0     H77084   8.475   0.721   8.478  0.5373  0.4781  1.3382
  571MOL0     H77085   8.549   0.878   8.514 -0.6261 -0.2621  1.2244
  572MOL0     O77086   8.602   2.649   6.506 -0.3126  0.0083 -0.2394
  572MOL0     C77087   8.505   2.584   6.458  0.5509  0.5291 -0.5890
  572MOL0     O77088   8.377   2.585   6.505 -0.3571 -0.7365  0.0775
  572MOL0     C77089   8.349   2.714   6.553  0.6986 -0.3951  0.4296
  572MOL0     C77090   8.327   2.818   6.457  0.5920 -0.4836  0.0918
  572MOL0     C77091   8.290   2.939   6.502  0.4822  0.0728 -0.2122
  572MOL0     C77092   8.248   2.976   6.631 -0.0197  0.5598  0.5566
  572MOL0     O77093   8.213   3.108   6.652  0.1250  0.3193 -0.1434
  572MOL0     C77094   8.284   3.175   6.755 -0.4931  0.6108  0.0491
  572MOL0     C77095   8.196   3.189   6.879  0.3743  0.0587  0.3709
  572MOL0     C77096   8.222   3.310   6.968 -0.3898 -0.5043  0.0663
  572MOL0     C77097   8.134   3.313   7.084  0.1944 -0.0956  0.3101
  572MOL0     C77098   8.134   3.437   7.165  0.8381  0.1480  0.0606
  572MOL0     C77099   8.073   3.554   7.091  0.1247  1.6869  0.0191
  572MOL0     C77100   7.928   3.516   7.055 -0.2670 -0.4946 -0.3250
  572MOL0     C77101   7.834   3.640   7.018  0.6893  0.6455 -0.7408
  572MOL0     N77102   7.769   3.687   7.147 -0.6461 -0.2048  0.1034
  572MOL0     C77103   7.802   3.789   7.228 -0.3207  0.6569 -0.4968
  572MOL0     C77104   7.705   3.793   7.317  0.1362 -0.3011 -0.8035
  572MOL0     C77105   7.698   3.879   7.445 -0.5593 -0.3851 -0.2249
  572MOL0     C77106   7.810   3.867   7.542 -1.1720 -0.6506  0.3457
  572MOL0     C77107   7.827   3.728   7.610  0.1172 -0.2851 -0.9887
  572MOL0     C77108   7.860   3.616   7.523 -0.7960  0.7645  0.1696
  572MOL0     O77109   7.939   3.513   7.587  0.6324 -0.7357 -0.3041
  572MOL0     C77110   7.969   3.392   7.519  0.5790  0.2811  0.1693
  572MOL0     C77111   7.872   3.323   7.435  0.0369 -0.0166 -0.4448
  572MOL0     C77112   7.899   3.195   7.382  0.3247  0.5890  0.4152
  572MOL0     C77113   8.025   3.123   7.409  0.3753  0.1415  0.0574
  572MOL0     C77114   8.062   2.994   7.355  0.5145 -0.6893  0.8681
  572MOL0     O77115   7.955   2.914   7.318 -0.5989 -0.1541  0.2870
  572MOL0     C77116   7.977   2.808   7.241 -0.3554  0.5559  0.0549
  572MOL0     C77117   8.065   2.803   7.132  0.9210 -0.0682  1.0958
  572MOL0     C77118   8.074   2.687   7.047  0.7529  0.3242 -0.2545
  572MOL0     C77119   8.008   2.574   7.090  0.3142 -0.1377  0.2787
  572MOL0     O77120   8.035   2.449   7.036 -0.6119  0.1349  0.0265
  572MOL0     C77121   8.042   2.445   6.889 -0.3670 -0.1858 -1.0764
  572MOL0     C77122   8.025   2.302   6.849  0.7673  0.6866  0.1198
  572MOL0     C77123   8.033   2.298   6.693  0.0932 -0.5598 -0.1183
  572MOL0     C77124   7.973   2.163   6.635  0.5804  0.5061  0.3600
  572MOL0     C77125   8.002   2.143   6.488 -0.1824 -1.2353  0.1285
  572MOL0     C77126   7.985   2.004   6.444  0.2361  0.3766  0.8600
  572MOL0     C77127   8.037   1.982   6.300  0.4218  0.2077  1.1778
  572MOL0     C77128   7.998   1.841   6.247  0.6876  0.2477 -1.0709
  572MOL0    Cl77129   7.974   1.832   6.070  0.2007  0.2194 -0.4568
  572MOL0     C77130   7.938   2.569   7.206 -0.3176 -0.9025  0.0466
  572MOL0     C77131   7.922   2.687   7.277  0.3122  1.3010 -0.2741
  572MOL0     O77132   8.180   2.951   7.362 -0.2807 -0.1868 -0.5117
  572MOL0     C77133   8.106   3.192   7.505 -0.3838 -0.7741 -0.5747
  572MOL0     C77134   8.077   3.321   7.560 -0.5451  0.2248  0.2020
  572MOL0     N77135   7.615   3.697   7.290  1.1424 -0.2347  0.1196
  572MOL0     N77136   7.650   3.642   7.179  0.1747  0.0523 -0.1127
  572MOL0     C77137   8.264   2.870   6.727  0.2401  0.4086 -0.0852
  572MOL0     C77138   8.323   2.742   6.688 -0.6696 -0.2327  0.1495
  572MOL0     C77139   8.535   2.502   6.339 -0.0517 -0.4314  0.4130
  572MOL0     C77140   8.641   2.555   6.264  0.7631 -0.2373  0.1560
  572MOL0     C77141   8.673   2.501   6.143  0.0411 -0.2361  0.2530
  572MOL0     C77142   8.592   2.399   6.085  0.3997 -0.0696 -1.2457
  572MOL0     O77143   8.621   2.350   5.961  1.3296 -0.4744  0.7663
  572MOL0     C77144   8.527   2.272   5.881 -0.4327 -0.2183 -0.8698
  572MOL0     C77145   8.580   2.282   5.745 -0.4442  0.0672  0.5449
  572MOL0     C77146   8.732   2.242   5.732 -0.9601 -0.0392  1.1186
  572MOL0     C77147   8.778   2.273   5.592 -0.0885  0.3823  0.4238
  572MOL0     C77148   8.714   2.179   5.496  0.6026  0.6654  0.7106
  572MOL0     C77149   8.662   2.112   5.410  0.7531 -0.1023  0.0599
  572MOL0     C77150   8.489   2.352   6.166  0.3075  0.4258 -0.4597
  572MOL0     C77151   8.450   2.400   6.294 -0.4941  1.0540  0.3999
  572MOL0     C77152   8.353   2.329   6.379 -0.4541 -0.5397 -0.1581
  572MOL0     H77153   8.342   2.804   6.351 -1.0104 -3.9022  0.1986
  572MOL0     H77154   8.280   3.015   6.424 -0.0866  0.8500  0.5886
  572MOL0     H77155   8.384   3.142   6.786 -0.2581  0.7185 -0.5962
  572MOL0     H77156   8.288   3.278   6.719  4.8136  0.4994 -0.5171
  572MOL0     H77157   8.182   3.097   6.936 -3.3391  0.7615  0.8387
  572MOL0     H77158   8.095   3.200   6.838  0.5177  2.1725  0.4338
  572MOL0     H77159   8.197   3.395   6.904 -4.8092 -1.1109  0.6687
  572MOL0     H77160   8.327   3.317   6.998  0.1737 -0.8688 -1.7081
  572MOL0     H77161   8.030   3.295   7.055  0.2169  0.6485 -0.2648
  572MOL0     H77162   8.163   3.235   7.155 -2.4217 -0.2904  1.2845
  572MOL0     H77163   8.068   3.419   7.251 -1.4180  2.6881 -0.9951
  572MOL0     H77164   8.233   3.458   7.207  1.4732 -3.0554  0.4087
  572MOL0     H77165   8.074   3.638   7.161  1.1024  0.5083  1.4766
  572MOL0     H77166   8.116   3.581   6.994 -0.0544 -0.2696 -0.6610
  572MOL0     H77167   7.896   3.459   7.143  0.5588  1.6678  1.4827
  572MOL0     H77168   7.948   3.461   6.963 -3.5982 -1.5377 -0.5282
  572MOL0     H77169   7.862   3.711   6.940  0.1114  0.3701 -1.2148
  572MOL0     H77170   7.753   3.588   6.965 -1.5100  2.7875  0.2819
  572MOL0     H77171   7.889   3.853   7.220 -1.2817  1.8539 -1.6815
  572MOL0     H77172   7.685   3.983   7.412 -0.2988  0.9327  3.3535
  572MOL0     H77173   7.606   3.855   7.499 -1.2102  1.1788 -0.5654
  572MOL0     H77174   7.902   3.894   7.490 -0.3048 -0.3917  1.9593
  572MOL0     H77175   7.799   3.949   7.613 -0.1614 -0.9987  0.9323
  572MOL0     H77176   7.736   3.706   7.667  0.3849  2.6419  0.7662
  572MOL0     H77177   7.915   3.745   7.672 -0.7123 -0.7588  0.3377
  572MOL0     H77178   7.917   3.659   7.440 -1.3847 -0.9348 -1.1830
  572MOL0     H77179   7.770   3.570   7.483 -0.6675 -0.3177  1.0510
  572MOL0     H77180   7.781   3.381   7.423  1.5471  2.5986 -0.0268
  572MOL0     H77181   7.824   3.144   7.322  0.1717 -0.6894  1.6226
  572MOL0     H77182   8.111   2.893   7.092  2.0383 -1.3800 -0.6703
  572MOL0     H77183   8.132   2.695   6.955  1.8762  0.5570  0.4479
  572MOL0     H77184   7.958   2.501   6.847 -0.3746  0.4891 -0.1782
  572MOL0     H77185   8.141   2.480   6.859  1.3778 -3.4038  0.4088
  572MOL0     H77186   8.108   2.238   6.881 -0.7451 -2.4638 -1.6939
  572MOL0     H77187   7.933   2.260   6.890  1.3748  2.2369  3.4081
  572MOL0     H77188   7.970   2.381   6.660 -1.2474 -1.1516  0.8801
  572MOL0     H77189   8.137   2.316   6.665  0.6092 -2.3017  0.5257
  572MOL0     H77190   7.865   2.162   6.647  0.6862  0.9573  1.4438
  572MOL0     H77191   8.019   2.080   6.690  0.2957 -2.3585 -3.3045
  572MOL0     H77192   8.106   2.168   6.469  0.1264 -1.9161  0.8621
  572MOL0     H77193   7.938   2.209   6.429  0.2961 -1.0883 -0.2262
  572MOL0     H77194   8.034   1.939   6.517  0.5769  1.6153  1.7573
  572MOL0     H77195   7.878   1.983   6.439 -0.1243  2.0520  0.9420
  572MOL0     H77196   8.146   1.993   6.295  0.3924 -0.1333 -1.5328
  572MOL0     H77197   7.988   2.057   6.238  2.5457  0.2383 -0.6029
  572MOL0     H77198   8.070   1.762   6.273 -1.3126 -1.8753 -1.6688
  572MOL0     H77199   7.898   1.819   6.284  0.4920 -2.2125 -2.8432
  572MOL0     H77200   7.902   2.478   7.253  0.8730 -1.4256 -0.0075
  572MOL0     H77201   7.856   2.680   7.363  0.9845  2.5199  0.3664
  572MOL0     H77202   8.195   3.145   7.545 -0.2504  0.3459  0.5055
  572MOL0     H77203   8.136   3.362   7.642 -0.5488  3.0919 -1.1179
  572MOL0     H77204   8.241   2.885   6.832  2.6083  0.6882  0.4584
  572MOL0     H77205   8.331   2.659   6.758  2.7932  1.3889  1.8872
  572MOL0     H77206   8.717   2.618   6.307  2.6117 -2.0902 -0.2351
  572MOL0     H77207   8.764   2.530   6.093 -0.8811  2.2786 -0.1002
  572MOL0     H77208   8.422   2.303   5.874 -1.4838 -3.4443 -0.9020
  572MOL0     H77209   8.511   2.172   5.922 -2.1164 -0.3150 -1.6824
  572MOL0     H77210   8.571   2.383   5.705 -3.2656 -0.9407 -1.7558
  572MOL0     H77211   8.513   2.219   5.685 -1.1443  1.5999 -0.3708
  572MOL0     H77212   8.756   2.138   5.754  0.9737 -0.4020 -1.9943
  572MOL0     H77213   8.783   2.308   5.802 -5.1688  3.4622  1.3382
  572MOL0     H77214   8.753   2.373   5.557  4.7603  0.9007 -2.4410
  572MOL0     H77215   8.887   2.266   5.583 -0.0133  2.2304 -0.3697
  572MOL0     H77216   8.636   2.045   5.330  0.7821  0.0182 -0.0506
  572MOL0     H77217   8.426   2.269   6.138  1.3224 -1.0435  1.4569
  572MOL0     H77218   8.252   2.373   6.375 -0.3022 -0.2122 -0.4610
  572MOL0     H77219   8.349   2.227   6.341 -2.7364 -0.7811  0.5848
  572MOL0     H77220   8.378   2.312   6.484 -1.9270 -3.1195 -0.1333
  573MOL0     O77221   6.971  10.550   9.723 -0.1828 -0.2958  0.0560
  573MOL0     C77222   6.916  10.579   9.624  0.6415  0.5191  1.1810
  573MOL0     O77223   6.813  10.510   9.570 -0.5192 -0.1098  0.0266
  573MOL0     C77224   6.781  10.384   9.620 -0.3870  0.1747 -0.0516
  573MOL0     C77225   6.872  10.285   9.638 -0.3494  0.0641 -0.3829
  573MOL0     C77226   6.828  10.160   9.686 -0.2175 -0.5869  0.3692
  573MOL0     C77227   6.691  10.142   9.729 -0.2225  0.4983  0.5130
  573MOL0     O77228   6.643  10.027   9.778  0.6972  0.0637  0.2647
  573MOL0     C77229   6.733   9.918   9.799 -0.4673  0.2415  0.7109
  573MOL0     C77230   6.672   9.801   9.866  0.3030 -0.1657 -0.6592
  573MOL0     C77231   6.742   9.677   9.829 -0.2890 -0.2021 -0.0230
  573MOL0     C77232   6.832   9.610   9.942 -0.1478 -0.3746  0.1479
  573MOL0     C77233   6.878   9.462   9.907  0.5152 -0.2439  0.9476
  573MOL0     C77234   6.971   9.472   9.795  0.3189  0.1277  0.6856
  573MOL0     C77235   7.021   9.329   9.763  0.0615 -0.0152  0.2443
  573MOL0     C77236   6.916   9.244   9.690  0.3212  0.4736  0.3664
  573MOL0     N77237   7.002   9.130   9.631 -0.6826 -0.0022  0.3128
  573MOL0     C77238   7.097   9.061   9.698 -0.5493  0.5912 -0.6922
  573MOL0     C77239   7.096   8.940   9.632  0.5186 -0.3787  0.4963
  573MOL0     C77240   7.183   8.829   9.687  1.0114  0.7155  0.9355
  573MOL0     C77241   7.336   8.850   9.671 -0.8770  0.1544  0.2283
  573MOL0     C77242   7.425   8.785   9.773  0.1910  0.1606  0.8096
  573MOL0     C77243   7.389   8.630   9.781  0.2411 -0.4880 -0.0420
  573MOL0     O77244   7.424   8.588   9.654  0.4822  0.0659  0.1431
  573MOL0     C77245   7.441   8.450   9.627 -0.8830  0.3338  0.1561
  573MOL0     C77246   7.478   8.422   9.495  0.7122  0.0769  0.4316
  573MOL0     C77247   7.500   8.294   9.447  0.4040 -0.2241  0.5934
  573MOL0     C77248   7.502   8.188   9.541 -0.7378  0.7988  0.0782
  573MOL0     C77249   7.539   8.050   9.500  0.1161  0.3302  0.0042
  573MOL0     O77250   7.542   8.029   9.360  0.0647 -0.1604 -0.3691
  573MOL0     C77251   7.561   7.907   9.306 -0.1681 -0.9830 -0.3034
  573MOL0     C77252   7.459   7.844   9.238 -0.1386  0.5880 -0.9777
  573MOL0     C77253   7.482   7.716   9.181  0.7070  0.2445  0.4756
  573MOL0     C77254   7.605   7.650   9.200  0.1309 -0.0154  0.6295
  573MOL0     O77255   7.635   7.530   9.150  0.2411  0.1995  0.3741
  573MOL0     C77256   7.638   7.419   9.236 -0.2156  0.4877 -0.3926
  573MOL0     C77257   7.502   7.345   9.236  0.2821 -0.0762 -0.8378
  573MOL0     C77258   7.491   7.233   9.342  0.2687  0.1949  0.5277
  573MOL0     C77259   7.371   7.151   9.313  1.8479  0.1130  0.0822
  573MOL0     C77260   7.328   7.044   9.406 -0.2040 -0.1512  0.2941
  573MOL0     C77261   7.193   6.988   9.378 -0.1143  0.1455  0.0301
  573MOL0     C77262   7.142   6.891   9.483 -0.0170  1.2388  0.0512
  573MOL0     C77263   7.037   6.963   9.570 -0.1643  0.2265 -0.2582
  573MOL0    Cl77264   7.001   6.870   9.714  0.2457  0.3233 -0.3901
  573MOL0     C77265   7.700   7.709   9.278  0.3272  0.2823  1.0382
  573MOL0     C77266   7.685   7.838   9.325 -0.2716  0.6268  1.0140
  573MOL0     O77267   7.557   7.962   9.579 -0.8852 -0.1727 -0.1535
  573MOL0     C77268   7.458   8.215   9.674 -1.3677 -0.0267  0.4953
  573MOL0     C77269   7.436   8.346   9.717  0.1891 -1.0312  0.8845
  573MOL0     N77270   7.004   8.938   9.529 -0.5634 -0.9653  0.5565
  573MOL0     N77271   6.946   9.048   9.540  0.0655  0.7039  0.4398
  573MOL0     C77272   6.602  10.249   9.718 -0.3495  0.6198 -0.8063
  573MOL0     C77273   6.642  10.365   9.662  0.7903 -0.0048  0.0210
  573MOL0     C77274   6.974  10.685   9.541 -0.5223 -0.5518  0.0876
  573MOL0     C77275   6.989  10.668   9.406  0.0988  0.2538 -0.8816
  573MOL0     C77276   7.036  10.767   9.319 -0.8948 -0.7111 -0.6484
  573MOL0     C77277   7.065  10.900   9.369 -0.7180  1.2952 -0.0030
  573MOL0     O77278   7.096  10.991   9.267  0.7643 -0.2729  0.1734
  573MOL0     C77279   7.104  11.133   9.289 -0.8813  0.5209 -0.3510
  573MOL0     C77280   7.242  11.159   9.346  0.2489 -0.2519  1.0253
  573MOL0     C77281   7.247  11.310   9.388 -0.6299  0.1087 -1.2642
  573MOL0     C77282   7.384  11.327   9.455 -0.9158  0.2898 -0.2841
  573MOL0     C77283   7.364  11.417   9.576 -0.4879  0.4690  0.5040
  573MOL0     C77284   7.359  11.483   9.676 -0.2815 -1.4041 -0.6116
  573MOL0     C77285   7.048  10.919   9.509 -0.0694 -0.8278  0.3510
  573MOL0     C77286   6.993  10.818   9.595  0.1711  1.4340 -0.6193
  573MOL0     C77287   6.972  10.865   9.737  0.2522  0.5974  0.0562
  573MOL0     H77288   6.974  10.300   9.607 -0.6288 -0.7336 -1.7867
  573MOL0     H77289   6.905  10.084   9.688 -0.1745 -0.6480 -1.8751
  573MOL0     H77290   6.760   9.894   9.696  1.0673  2.5436  0.4973
  573MOL0     H77291   6.815   9.950   9.864 -2.1444  3.7277  1.3293
  573MOL0     H77292   6.566   9.789   9.844  0.3110  2.1050 -2.2534
  573MOL0     H77293   6.682   9.824   9.973 -1.6109 -2.2126  0.0225
  573MOL0     H77294   6.800   9.687   9.736 -1.4619 -2.1166 -1.0420
  573MOL0     H77295   6.665   9.600   9.816  1.9989 -3.1859  2.5140
  573MOL0     H77296   6.916   9.680   9.942 -1.2251  0.9656  0.8199
  573MOL0     H77297   6.778   9.606  10.037 -4.6564 -1.1313 -2.1455
  573MOL0     H77298   6.926   9.424   9.997 -0.6172  0.3905  1.8498
  573MOL0     H77299   6.788   9.404   9.885 -0.0586  1.6982 -2.5735
  573MOL0     H77300   6.927   9.514   9.705  2.0585  0.4575 -0.0550
  573MOL0     H77301   7.062   9.528   9.820  1.6853 -2.8835  3.2245
  573MOL0     H77302   7.054   9.279   9.855  0.7395 -1.2775 -0.6553
  573MOL0     H77303   7.110   9.336   9.700  2.1220  2.4402  3.1461
  573MOL0     H77304   6.836   9.216   9.759 -0.6544  2.8205  0.3015
  573MOL0     H77305   6.876   9.306   9.609  2.6874  2.3248  0.4939
  573MOL0     H77306   7.161   9.079   9.784 -3.5277  1.2615  1.5673
  573MOL0     H77307   7.143   8.826   9.789 -2.6775  0.5061 -0.3560
  573MOL0     H77308   7.158   8.735   9.637  0.6956  1.9770 -1.4518
  573MOL0     H77309   7.371   8.813   9.574  1.6888  5.6351 -1.3489
  573MOL0     H77310   7.355   8.958   9.676  0.1239  0.1094 -1.5088
  573MOL0     H77311   7.408   8.841   9.866  2.0190  5.0009 -1.4828
  573MOL0     H77312   7.530   8.804   9.752 -0.8900  2.1614 -3.9980
  573MOL0     H77313   7.280   8.618   9.775 -0.0531  0.7377  1.9289
  573MOL0     H77314   7.436   8.572   9.860  1.8011 -0.6379 -1.0478
  573MOL0     H77315   7.476   8.504   9.424  0.3733  1.4541  1.9614
  573MOL0     H77316   7.513   8.273   9.341 -1.0704  0.3469  0.2731
  573MOL0     H77317   7.363   7.894   9.225 -1.1289 -0.1783  2.4391
  573MOL0     H77318   7.396   7.671   9.133 -0.1549  2.6914 -0.4097
  573MOL0     H77319   7.702   7.340   9.196 -1.8767 -1.2475  0.2679
  573MOL0     H77320   7.676   7.446   9.335  0.4241 -2.7094  0.3467
  573MOL0     H77321   7.423   7.418   9.256  1.6963  0.5219  3.5747
  573MOL0     H77322   7.478   7.302   9.138 -1.9230  2.5075 -1.5350
  573MOL0     H77323   7.584   7.177   9.330  0.6880  0.3796  2.4999
  573MOL0     H77324   7.483   7.262   9.447 -0.7869  0.5076  0.3649
  573MOL0     H77325   7.397   7.105   9.217  1.8597  1.4888 -0.5998
  573MOL0     H77326   7.283   7.217   9.303 -0.2365 -2.6726 -1.4004
  573MOL0     H77327   7.322   7.088   9.506 -1.9104  3.5571 -1.2643
  573MOL0     H77328   7.399   6.961   9.402 -2.3417 -2.0527 -2.5028
  573MOL0     H77329   7.124   7.072   9.363 -0.4284 -0.3743 -1.6771
  573MOL0     H77330   7.193   6.935   9.282  4.9453  1.0906 -0.7424
  573MOL0     H77331   7.231   6.857   9.536 -1.6941 -0.6134  1.8197
  573MOL0     H77332   7.103   6.798   9.440  2.8722  0.9440 -2.2709
  573MOL0     H77333   7.067   7.064   9.599 -0.7833  0.5220 -0.6310
  573MOL0     H77334   6.945   6.978   9.512  0.6512  0.3729 -1.5454
  573MOL0     H77335   7.794   7.661   9.301 -0.3634 -1.9563 -0.4790
  573MOL0     H77336   7.773   7.890   9.361  1.5515 -1.9427  0.5408
  573MOL0     H77337   7.454   8.136   9.748 -1.7151 -0.4873 -0.0081
  573MOL0     H77338   7.394   8.383   9.809 -1.1712  0.5076 -0.2926
  573MOL0     H77339   6.497  10.226   9.731  0.1296 -0.6425  1.2974
  573MOL0     H77340   6.568  10.440   9.637  2.1977  1.4277  0.0186
  573MOL0     H77341   6.947  10.584   9.351 -3.6268  1.6610 -0.5239
  573MOL0     H77342   7.059  10.729   9.220  1.0441 -3.5940  0.7488
  573MOL0     H77343   7.011  11.167   9.335 -1.4276  0.9644 -1.7266
  573MOL0     H77344   7.107  11.182   9.191  2.6738 -0.3718 -0.8036
  573MOL0     H77345   7.316  11.138   9.269 -1.5088  0.7770 -1.0455
  573MOL0     H77346   7.241  11.097   9.437  0.0331 -0.5957  0.7899
  573MOL0     H77347   7.163  11.318   9.458 -0.0251  1.0572 -0.6224
  573MOL0     H77348   7.245  11.376   9.301  0.7869  0.4896 -1.0248
  573MOL0     H77349   7.422  11.231   9.491  0.8893  1.1845  0.3179
  573MOL0     H77350   7.454  11.369   9.382 -0.1490 -0.5571 -0.0552
  573MOL0     H77351   7.341  11.547   9.760 -1.6501  0.2359 -2.0689
  573MOL0     H77352   7.064  11.014   9.558 -2.0705 -0.3316  0.1259
  573MOL0     H77353   6.931  10.781   9.794 -0.9409  1.0272 -0.1578
  573MOL0     H77354   7.062  10.902   9.788 -0.3587  0.0874  1.5609
  573MOL0     H77355   6.888  10.934   9.746 -0.1042 -0.0980  3.5630
  574MOL0     O77356   2.298   9.923  11.007  0.0343  0.0682  0.3593
  574MOL0     C77357   2.217   9.858  10.936  0.1177  1.2372 -0.4485
  574MOL0     O77358   2.137   9.899  10.845 -0.5239 -0.3495  0.2277
  574MOL0     C77359   2.156  10.017  10.794 -0.0555 -0.0589 -0.2983
  574MOL0     C77360   2.271  10.075  10.731 -0.9572  0.7388 -0.1279
  574MOL0     C77361   2.257  10.207  10.688  0.0261 -0.9805 -0.1096
  574MOL0     C77362   2.140  10.286  10.718  0.3819 -0.5526 -0.2552
  574MOL0     O77363   2.128  10.409  10.655 -0.7009  0.2516 -0.3565
  574MOL0     C77364   1.999  10.470  10.654 -0.8957 -0.2489 -1.3472
  574MOL0     C77365   1.999  10.601  10.585 -0.4718 -0.4942 -0.2839
  574MOL0     C77366   2.111  10.696  10.629 -0.0085  0.5202  0.2298
  574MOL0     C77367   2.095  10.771  10.763 -0.0795  0.2997  0.1948
  574MOL0     C77368   2.129  10.680  10.876  0.5298  0.2181  0.1805
  574MOL0     C77369   2.131  10.742  11.012 -0.9065 -0.8947 -0.3021
  574MOL0     C77370   2.265  10.808  11.053  0.6524 -0.4416  0.3024
  574MOL0     C77371   2.235  10.888  11.173  0.7137  0.5214 -0.9483
  574MOL0     N77372   2.349  10.951  11.236 -0.1839  0.2207 -0.6885
  574MOL0     C77373   2.412  11.064  11.198  0.9478 -0.6487 -1.1853
  574MOL0     C77374   2.500  11.093  11.301  0.7926  0.0208 -0.9553
  574MOL0     C77375   2.589  11.202  11.323  0.3571  0.0454 -1.1318
  574MOL0     C77376   2.728  11.211  11.249 -0.4524  0.5833 -0.4649
  574MOL0     C77377   2.743  11.160  11.103  0.1043  0.0053 -1.1337
  574MOL0     C77378   2.814  11.269  11.028 -0.0655  0.6304  0.9941
  574MOL0     O77379   2.879  11.213  10.912  0.5902  0.0587 -0.3674
  574MOL0     C77380   3.005  11.153  10.920  0.1070 -0.3378  0.1139
  574MOL0     C77381   3.050  11.099  10.796  0.3038  0.1809  0.0135
  574MOL0     C77382   3.167  11.026  10.793 -0.6586  1.2609 -0.2344
  574MOL0     C77383   3.246  11.001  10.904 -0.6029  0.5101 -0.1054
  574MOL0     C77384   3.382  10.925  10.890 -0.0526 -0.4740  0.1311
  574MOL0     O77385   3.466  10.934  11.004 -1.8928  0.3809  0.3066
  574MOL0     C77386   3.579  10.856  10.999 -0.4448  0.5894  0.1733
  574MOL0     C77387   3.580  10.717  10.987 -0.6138 -0.0424  0.8320
  574MOL0     C77388   3.696  10.645  10.959 -0.3742  0.1936 -0.2651
  574MOL0     C77389   3.815  10.707  10.947 -0.4352  0.3737 -0.2667
  574MOL0     O77390   3.930  10.636  10.932 -0.0729 -0.1109  0.4902
  574MOL0     C77391   3.954  10.544  11.035  0.0491 -0.5808  0.2348
  574MOL0     C77392   4.096  10.504  11.011  0.1697  0.6378  1.1073
  574MOL0     C77393   4.163  10.414  11.117 -0.2244 -0.2225  0.0781
  574MOL0     C77394   4.155  10.264  11.104 -0.2911  0.1049  0.3613
  574MOL0     C77395   4.214  10.183  11.223 -0.0711 -1.1540 -0.0378
  574MOL0     C77396   4.217  10.029  11.195  0.5833 -0.3111 -0.9437
  574MOL0     C77397   4.088   9.979  11.134 -0.2089 -0.1544  0.6847
  574MOL0     C77398   4.077   9.830  11.136  0.3615  0.7429  0.1848
  574MOL0    Cl77399   4.215   9.736  11.083  0.1265 -0.2144  0.3376
  574MOL0     C77400   3.820  10.846  10.952 -0.1835  0.1112  0.7059
  574MOL0     C77401   3.706  10.915  10.982  0.5330 -0.2366  0.2116
  574MOL0     O77402   3.406  10.859  10.790 -0.2676 -0.1053 -0.2893
  574MOL0     C77403   3.193  11.045  11.030 -0.4780  0.2607  0.1520
  574MOL0     C77404   3.076  11.119  11.037 -0.6542 -0.6691 -0.8111
  574MOL0     N77405   2.491  10.992  11.394 -0.6709 -0.6992  0.8283
  574MOL0     N77406   2.396  10.911  11.349 -0.1401 -0.5431 -0.4666
  574MOL0     C77407   2.032  10.228  10.789 -0.8833  0.1675  0.0327
  574MOL0     C77408   2.038  10.094  10.818 -0.4237  0.4734 -1.1014
  574MOL0     C77409   2.171   9.731  10.990  0.3682  0.0558  0.6081
  574MOL0     C77410   2.030   9.693  10.977  0.1085  0.0115 -0.0362
  574MOL0     C77411   1.980   9.570  11.031  0.4553 -0.3507  0.1152
  574MOL0     C77412   2.067   9.485  11.099 -0.3965  0.0586 -0.7865
  574MOL0     O77413   2.014   9.380  11.157 -0.4945  0.4587  0.6211
  574MOL0     C77414   2.071   9.253  11.103  0.1757  0.0844  0.4586
  574MOL0     C77415   2.039   9.226  10.958  0.5483  0.2655 -0.2429
  574MOL0     C77416   1.891   9.258  10.908  0.3181 -0.6199 -0.8637
  574MOL0     C77417   1.868   9.208  10.764 -0.3401 -0.1031 -1.5100
  574MOL0     C77418   1.908   9.292  10.654  0.1932 -0.4433 -1.0652
  574MOL0     C77419   1.929   9.360  10.560  0.3222 -0.5463  0.3119
  574MOL0     C77420   2.203   9.518  11.117  0.4918  0.0223  0.1052
  574MOL0     C77421   2.255   9.636  11.060  0.5325  0.5441  0.8828
  574MOL0     C77422   2.393   9.662  11.076 -0.0772 -1.1549  0.3937
  574MOL0     H77423   2.363  10.019  10.728 -1.3328 -0.6437  4.7901
  574MOL0     H77424   2.334  10.268  10.642 -1.5662  2.1986  1.1670
  574MOL0     H77425   1.922  10.404  10.611 -3.7925  2.1357 -0.1644
  574MOL0     H77426   1.952  10.482  10.752  0.2396 -1.3901 -0.6210
  574MOL0     H77427   1.907  10.642  10.628 -0.8223 -2.2888  0.7656
  574MOL0     H77428   1.999  10.601  10.476  3.8171  2.0128 -0.4888
  574MOL0     H77429   2.125  10.755  10.538  0.3743 -0.9507 -0.6973
  574MOL0     H77430   2.205  10.641  10.623 -0.0981  0.4742 -1.2270
  574MOL0     H77431   2.164  10.856  10.760  0.9171 -0.4741  0.3502
  574MOL0     H77432   1.994  10.809  10.779  0.5806  1.1662  2.8892
  574MOL0     H77433   2.053  10.601  10.877 -0.1469  0.8441  1.9069
  574MOL0     H77434   2.223  10.626  10.867  3.1267  4.3726 -0.2058
  574MOL0     H77435   2.047  10.811  11.019 -0.8510 -0.6473 -1.7502
  574MOL0     H77436   2.107  10.662  11.082  0.8194  0.0182  1.4430
  574MOL0     H77437   2.312  10.876  10.981 -0.1732 -0.4260 -0.2459
  574MOL0     H77438   2.337  10.728  11.068 -0.1327 -0.8112  2.4056
  574MOL0     H77439   2.162  10.967  11.152 -0.3715  1.1129  3.8583
  574MOL0     H77440   2.188  10.812  11.236 -0.5117  0.0330 -2.3945
  574MOL0     H77441   2.414  11.120  11.105  0.5909 -1.9949 -2.0287
  574MOL0     H77442   2.526  11.284  11.289 -1.8576 -1.3008 -0.4892
  574MOL0     H77443   2.598  11.219  11.430 -0.3500  1.1092 -1.2274
  574MOL0     H77444   2.743  11.319  11.260 -1.5985  0.7275 -0.2217
  574MOL0     H77445   2.810  11.173  11.311  2.8766  0.8733 -4.2873
  574MOL0     H77446   2.646  11.142  11.056 -0.2581  0.0092 -0.4023
  574MOL0     H77447   2.809  11.073  11.093  0.6848  0.4310 -1.0564
  574MOL0     H77448   2.878  11.327  11.094  0.5687 -2.1016  2.9803
  574MOL0     H77449   2.733  11.334  10.993 -0.9666 -0.6527  0.5857
  574MOL0     H77450   2.988  11.115  10.708  0.4040  0.6828  0.0315
  574MOL0     H77451   3.207  10.983  10.702  1.1107 -1.0755  1.4957
  574MOL0     H77452   3.483  10.670  10.973 -0.5281  0.0441 -0.1060
  574MOL0     H77453   3.693  10.537  10.954  0.3768 -0.2644  4.4955
  574MOL0     H77454   3.943  10.589  11.134 -0.1455 -4.3862  2.1070
  574MOL0     H77455   3.888  10.457  11.036 -0.3817 -0.2872  2.0748
  574MOL0     H77456   4.098  10.464  10.909 -0.4295  3.4746 -0.1276
  574MOL0     H77457   4.147  10.600  10.996  0.3853  0.5248  1.1239
  574MOL0     H77458   4.268  10.446  11.121 -0.9150  2.2861 -0.2977
  574MOL0     H77459   4.108  10.433  11.210 -0.0932  3.9477 -0.5232
  574MOL0     H77460   4.214  10.219  11.023 -3.5283 -1.1863 -1.5247
  574MOL0     H77461   4.048  10.242  11.089  0.1905 -1.5883 -0.9444
  574MOL0     H77462   4.151  10.205  11.310 -2.2595 -1.1139 -1.5501
  574MOL0     H77463   4.313  10.214  11.258 -1.4029 -0.3067  3.4611
  574MOL0     H77464   4.300  10.004  11.128  2.0673 -2.0795  1.3858
  574MOL0     H77465   4.231   9.987  11.295  0.2234  0.5016 -0.5402
  574MOL0     H77466   4.075  10.017  11.032 -3.3124  1.0979  1.4209
  574MOL0     H77467   3.999  10.014  11.186 -0.8567 -0.6314 -0.0737
  574MOL0     H77468   4.066   9.804  11.242  1.6526  1.3680  0.4915
  574MOL0     H77469   3.987   9.802  11.081  0.3974  1.0109 -0.0158
  574MOL0     H77470   3.914  10.897  10.939 -0.1982  0.2089  0.9769
  574MOL0     H77471   3.709  11.023  10.977 -0.8634 -0.2020 -0.5391
  574MOL0     H77472   3.259  11.021  11.113  0.9639  2.8304 -0.1493
  574MOL0     H77473   3.050  11.150  11.138  2.0167 -0.2929 -0.1762
  574MOL0     H77474   1.935  10.272  10.810 -2.1590 -2.3661 -0.2324
  574MOL0     H77475   1.957  10.041  10.868  2.1800  1.1103  4.4317
  574MOL0     H77476   1.960   9.757  10.925 -1.1504 -2.5256 -1.6474
  574MOL0     H77477   1.873   9.549  11.028 -0.0541  2.0914 -1.8361
  574MOL0     H77478   2.018   9.177  11.162 -0.4828  0.9121  0.9630
  574MOL0     H77479   2.178   9.242  11.124  0.8465 -1.0971 -2.9963
  574MOL0     H77480   2.048   9.117  10.958 -0.6584  0.1155  1.5178
  574MOL0     H77481   2.117   9.261  10.890 -0.0653 -0.1571 -1.1852
  574MOL0     H77482   1.889   9.367  10.899  4.6433 -0.3662 -1.1398
  574MOL0     H77483   1.821   9.221  10.983  1.4353 -1.4271 -0.1910
  574MOL0     H77484   1.931   9.119  10.763  0.8004  0.6617  0.0115
  574MOL0     H77485   1.759   9.196  10.769 -0.7273  3.1447  0.3102
  574MOL0     H77486   1.962   9.416  10.474 -1.0006 -1.6938 -1.0073
  574MOL0     H77487   2.278   9.451  11.158  0.2783 -1.6430 -2.0175
  574MOL0     H77488   2.419   9.759  11.119  0.8453 -1.8099  1.3508
  574MOL0     H77489   2.444   9.591  11.140  0.4837  0.8671  2.3319
  574MOL0     H77490   2.435   9.636  10.978 -0.4900  1.6445 -0.6535
  575MOL0     O77491   6.268   6.869   2.944 -0.1449  0.3531 -0.8715
  575MOL0     C77492   6.177   6.911   2.873  0.1014 -0.0653 -0.3348
  575MOL0     O77493   6.113   7.033   2.890  0.2518 -0.1530 -0.2545
  575MOL0     C77494   6.129   7.099   3.008  0.8603  0.9879 -0.3061
  575MOL0     C77495   6.059   7.049   3.125 -0.6805 -0.0083 -0.2947
  575MOL0     C77496   6.086   7.111   3.254  0.2026 -1.0112  0.5209
  575MOL0     C77497   6.155   7.236   3.254 -0.1789  0.2273 -0.6819
  575MOL0     O77498   6.174   7.312   3.371 -0.2177 -0.2183  0.0806
  575MOL0     C77499   6.066   7.311   3.465  0.1963 -0.5699  0.0134
  575MOL0     C77500   5.927   7.365   3.400  0.4658 -0.2274 -1.0981
  575MOL0     C77501   5.906   7.514   3.395  0.3721  0.1300 -0.6403
  575MOL0     C77502   5.764   7.545   3.338 -0.0401  0.7208  0.0712
  575MOL0     C77503   5.752   7.700   3.328  0.2002  0.2548 -0.2828
  575MOL0     C77504   5.656   7.739   3.226  0.6769  0.3151  0.1391
  575MOL0     C77505   5.649   7.899   3.212  0.5692 -0.2232  0.5669
  575MOL0     C77506   5.566   7.952   3.097 -0.4586  0.1933  0.0123
  575MOL0     N77507   5.425   7.939   3.123  0.1422  0.5610 -0.0127
  575MOL0     C77508   5.344   8.031   3.169  0.2435  0.0108 -0.2637
  575MOL0     C77509   5.224   7.970   3.186 -0.8609  0.3635  0.5961
  575MOL0     C77510   5.092   8.044   3.226 -0.3468  0.3994  0.4466
  575MOL0     C77511   5.006   8.090   3.105 -0.5498 -0.0599 -0.5924
  575MOL0     C77512   5.057   8.220   3.038  0.6066 -0.3479 -0.2693
  575MOL0     C77513   4.936   8.274   2.963 -0.0618 -0.0010  0.4863
  575MOL0     O77514   4.981   8.355   2.849  0.7162  0.4648  0.2269
  575MOL0     C77515   4.882   8.412   2.773  0.3555 -0.4304  0.7502
  575MOL0     C77516   4.782   8.505   2.807 -0.1790 -0.4531 -0.0626
  575MOL0     C77517   4.691   8.553   2.717  0.8601 -0.6745  0.2469
  575MOL0     C77518   4.691   8.516   2.587  1.6239 -0.1109  1.5098
  575MOL0     C77519   4.581   8.553   2.498  0.0735  0.4352  0.8548
  575MOL0     O77520   4.520   8.669   2.516 -1.3908 -0.8955 -0.7299
  575MOL0     C77521   4.488   8.752   2.412 -0.2118  0.6616  0.5752
  575MOL0     C77522   4.584   8.768   2.304  0.1672  0.1628 -0.2198
  575MOL0     C77523   4.562   8.859   2.202 -0.8048  0.7347 -0.2916
  575MOL0     C77524   4.450   8.948   2.209 -0.6282 -0.1273  0.5281
  575MOL0     O77525   4.421   9.059   2.132 -0.1956  0.7953 -0.6188
  575MOL0     C77526   4.536   9.125   2.081 -0.7795 -0.3621  0.3514
  575MOL0     C77527   4.493   9.253   1.996 -0.0212 -0.2987  0.8489
  575MOL0     C77528   4.388   9.329   2.076  0.0742 -1.3082 -0.6395
  575MOL0     C77529   4.345   9.441   1.977  0.9148 -0.5298 -0.1713
  575MOL0     C77530   4.237   9.526   2.039 -0.9871  1.0239  0.4415
  575MOL0     C77531   4.199   9.629   1.932 -0.4743 -1.2185  0.2640
  575MOL0     C77532   4.103   9.721   2.005 -0.3362  0.7889  0.0149
  575MOL0     C77533   4.017   9.786   1.898 -0.3524 -0.0916 -0.2588
  575MOL0    Cl77534   3.869   9.847   1.981 -0.3145 -0.9181 -0.4325
  575MOL0     C77535   4.363   8.923   2.312 -0.2456  0.6744  0.3410
  575MOL0     C77536   4.376   8.821   2.412 -0.7176  0.6085  0.4236
  575MOL0     O77537   4.560   8.484   2.395  0.4410 -0.1601  0.5313
  575MOL0     C77538   4.791   8.425   2.550  0.2651 -1.6112 -0.2792
  575MOL0     C77539   4.879   8.379   2.642  0.4856  0.3751 -0.3626
  575MOL0     N77540   5.235   7.836   3.131  0.0967 -0.4303 -0.3209
  575MOL0     N77541   5.355   7.822   3.098  0.1154  0.4998 -0.2149
  575MOL0     C77542   6.198   7.286   3.129 -0.6520 -0.0385  0.6142
  575MOL0     C77543   6.206   7.213   3.011  0.8387  0.1191  0.6055
  575MOL0     C77544   6.122   6.814   2.770  0.2721 -0.8834  0.5555
  575MOL0     C77545   6.119   6.673   2.800 -0.2538  0.4782  0.9274
  575MOL0     C77546   6.057   6.583   2.703  0.4692  0.1124 -0.5130
  575MOL0     C77547   6.008   6.632   2.584  0.4106  0.0822  0.8919
  575MOL0     O77548   5.958   6.537   2.493  0.0803 -0.4106 -0.2131
  575MOL0     C77549   6.050   6.462   2.411  0.1191  0.3243  0.4449
  575MOL0     C77550   5.999   6.465   2.265 -0.4394  0.3724  0.1014
  575MOL0     C77551   6.091   6.394   2.174 -0.7064 -0.8215  0.5239
  575MOL0     C77552   6.041   6.388   2.028  0.6495 -0.3126  0.4076
  575MOL0     C77553   5.911   6.321   2.000  0.1125 -0.0093 -0.0693
  575MOL0     C77554   5.814   6.261   1.963  0.2071 -0.8139  0.4128
  575MOL0     C77555   6.028   6.763   2.547 -0.0822 -1.2160  0.4261
  575MOL0     C77556   6.071   6.860   2.642  0.7306  0.0491 -0.8276
  575MOL0     C77557   6.055   7.002   2.612  0.0779 -0.8910 -0.0942
  575MOL0     H77558   5.992   6.964   3.118 -1.1113  0.0701  2.0800
  575MOL0     H77559   6.047   7.065   3.344  1.5391 -0.1662  1.5740
  575MOL0     H77560   6.051   7.210   3.504 -1.0322 -0.1853  0.5677
  575MOL0     H77561   6.096   7.359   3.559 -1.4385 -1.4707  1.0284
  575MOL0     H77562   5.845   7.304   3.440 -1.5516  1.8660 -1.7570
  575MOL0     H77563   5.910   7.338   3.295 -1.9777 -2.1472 -0.3219
  575MOL0     H77564   5.984   7.555   3.331  1.4287  1.4715  1.4064
  575MOL0     H77565   5.914   7.558   3.495 -0.8985  0.1269 -0.5164
  575MOL0     H77566   5.770   7.515   3.233 -1.0463  1.0085 -0.0791
  575MOL0     H77567   5.687   7.495   3.397  1.2094  0.9747  2.0263
  575MOL0     H77568   5.719   7.732   3.428 -1.4735 -3.9479  0.7175
  575MOL0     H77569   5.844   7.752   3.297 -1.8968  3.2168 -2.0804
  575MOL0     H77570   5.693   7.702   3.130 -0.1011  2.8315 -1.2224
  575MOL0     H77571   5.562   7.689   3.249  1.0094 -0.2019  0.3756
  575MOL0     H77572   5.747   7.944   3.194  0.7333  0.7530  3.3800
  575MOL0     H77573   5.610   7.949   3.301 -1.2881 -1.9556  0.7796
  575MOL0     H77574   5.599   8.054   3.077 -3.2119  1.3715  1.0431
  575MOL0     H77575   5.580   7.898   3.002 -2.0548 -1.0891  0.4582
  575MOL0     H77576   5.371   8.132   3.196  0.7618 -0.7215  2.2078
  575MOL0     H77577   5.035   7.968   3.280 -0.3235  0.3951  0.4647
  575MOL0     H77578   5.109   8.131   3.292  0.1195  2.6746 -2.4458
  575MOL0     H77579   5.008   8.007   3.034 -2.1504  0.4639 -1.2927
  575MOL0     H77580   4.904   8.094   3.145 -0.2108 -0.3816  0.3258
  575MOL0     H77581   5.151   8.209   2.983  1.5486  0.4453  1.1280
  575MOL0     H77582   5.085   8.299   3.107  1.6354 -0.0181 -1.0515
  575MOL0     H77583   4.883   8.337   3.036 -0.7368  0.2028 -0.1656
  575MOL0     H77584   4.867   8.194   2.934  0.1783 -0.1547  0.3416
  575MOL0     H77585   4.773   8.524   2.914 -1.6814 -0.1474 -0.2202
  575MOL0     H77586   4.609   8.614   2.753 -0.3784 -1.7987 -0.5898
  575MOL0     H77587   4.676   8.712   2.294  0.2160  0.2445 -0.2271
  575MOL0     H77588   4.648   8.873   2.137  0.3579  2.4962  1.5375
  575MOL0     H77589   4.609   9.155   2.157  1.3077 -3.4538 -0.2331
  575MOL0     H77590   4.577   9.063   2.001  0.7175  1.1231 -0.1034
  575MOL0     H77591   4.583   9.311   1.975 -1.3746  1.3155 -0.8800
  575MOL0     H77592   4.454   9.205   1.905 -1.8358 -2.1324  2.4921
  575MOL0     H77593   4.304   9.261   2.093 -2.2192  1.3352 -0.6545
  575MOL0     H77594   4.435   9.385   2.157 -2.5007 -1.7248  1.2847
  575MOL0     H77595   4.313   9.401   1.880  0.8435  2.6790 -1.5767
  575MOL0     H77596   4.428   9.510   1.959  1.3045 -0.5547  1.3737
  575MOL0     H77597   4.268   9.573   2.133 -2.2904 -1.3857  2.1905
  575MOL0     H77598   4.150   9.466   2.067 -1.8490  3.2817  3.1351
  575MOL0     H77599   4.292   9.674   1.899  0.1863 -2.7823 -0.1126
  575MOL0     H77600   4.161   9.576   1.844  0.5390 -2.5725  0.6083
  575MOL0     H77601   4.159   9.798   2.058  2.2266 -0.4377 -0.7360
  575MOL0     H77602   4.039   9.665   2.074 -0.4172  1.1161  0.2084
  575MOL0     H77603   4.072   9.861   1.840 -0.5399  1.2388  1.2249
  575MOL0     H77604   3.983   9.708   1.829  1.4579 -1.1384 -0.0281
  575MOL0     H77605   4.275   8.987   2.317 -0.5185  0.3482 -0.1967
  575MOL0     H77606   4.304   8.826   2.493 -1.5517  1.6873 -0.3468
  575MOL0     H77607   4.788   8.389   2.447 -1.4366 -1.9906 -0.1332
  575MOL0     H77608   4.956   8.310   2.608 -0.3316 -0.8914  0.2630
  575MOL0     H77609   6.243   7.385   3.123 -3.4044  1.2666  0.1186
  575MOL0     H77610   6.254   7.254   2.923  2.7016 -0.6573  1.2013
  575MOL0     H77611   6.156   6.643   2.898  1.6186  2.1885  0.8271
  575MOL0     H77612   6.043   6.487   2.752 -3.0465  0.8329  0.1791
  575MOL0     H77613   6.070   6.357   2.433  3.4577  0.7908  0.1880
  575MOL0     H77614   6.145   6.517   2.409  0.9376 -1.0361 -1.5918
  575MOL0     H77615   5.981   6.561   2.217 -1.7689 -1.8304 -4.4424
  575MOL0     H77616   5.899   6.420   2.276  0.4839 -1.6970  0.4497
  575MOL0     H77617   6.096   6.290   2.209 -1.7113 -1.4075 -0.9741
  575MOL0     H77618   6.187   6.444   2.188 -0.8418 -0.3973 -0.0329
  575MOL0     H77619   6.037   6.490   1.990 -5.2652  0.7942  2.9366
  575MOL0     H77620   6.116   6.334   1.969 -0.8748 -2.2884  0.1653
  575MOL0     H77621   5.722   6.211   1.937 -1.2002  1.1686  1.3430
  575MOL0     H77622   5.987   6.792   2.451 -0.3813  1.7792  1.3576
  575MOL0     H77623   6.045   7.018   2.504 -0.5363 -3.3437 -0.4808
  575MOL0     H77624   5.974   7.046   2.671  0.6657  0.0940 -0.0150
  575MOL0     H77625   6.154   7.047   2.627 -0.2520  0.2064 -1.0752
  576MOL0     O77626   3.892   5.892   5.696  0.6840 -0.1093  0.0023
  576MOL0     C77627   3.819   5.810   5.753 -0.5065 -0.6457 -0.5342
  576MOL0     O77628   3.688   5.780   5.725 -0.4064  0.7252 -0.6985
  576MOL0     C77629   3.642   5.813   5.605 -0.1280  0.3097  0.5106
  576MOL0     C77630   3.614   5.947   5.565  0.1853 -0.4610 -0.4140
  576MOL0     C77631   3.563   5.976   5.440  0.2230 -0.5954  0.5237
  576MOL0     C77632   3.544   5.879   5.342  0.6365 -0.0038  0.7796
  576MOL0     O77633   3.498   5.914   5.210  0.3378  1.4892  0.0596
  576MOL0     C77634   3.439   6.036   5.182  0.7869  0.1692  0.5749
  576MOL0     C77635   3.394   6.032   5.032  0.5729 -0.3415 -1.3760
  576MOL0     C77636   3.507   6.020   4.929  0.0524 -0.0275  0.7485
  576MOL0     C77637   3.448   5.951   4.806  0.0986 -0.7369  1.0643
  576MOL0     C77638   3.531   6.005   4.686  0.0471  0.4608  0.1403
  576MOL0     C77639   3.471   5.972   4.547 -0.8871  0.1971 -0.7279
  576MOL0     C77640   3.585   5.969   4.445  0.2092 -0.2576 -0.2914
  576MOL0     C77641   3.526   5.931   4.314  0.0835  0.3434  0.8107
  576MOL0     N77642   3.646   5.903   4.231  0.0230 -0.3436 -0.3448
  576MOL0     C77643   3.754   5.980   4.199 -0.7415  0.1819  0.7380
  576MOL0     C77644   3.823   5.911   4.104 -0.0402  0.3127  0.9644
  576MOL0     C77645   3.942   5.955   4.019 -0.5529  0.5323  0.9932
  576MOL0     C77646   4.046   6.019   4.099 -0.6647  0.5609 -0.0199
  576MOL0     C77647   4.129   6.094   4.005  0.1811  0.1581 -0.7647
  576MOL0     C77648   4.079   6.245   3.958  0.0555 -0.7746 -0.4330
  576MOL0     O77649   4.178   6.311   3.869 -0.0370  0.1287  0.3715
  576MOL0     C77650   4.156   6.441   3.836  0.2487 -0.0502 -0.0808
  576MOL0     C77651   4.028   6.500   3.848  0.3724  0.3065  0.5193
  576MOL0     C77652   4.017   6.628   3.804  1.2027 -0.6015  0.1114
  576MOL0     C77653   4.114   6.704   3.745 -0.2809 -0.3963  0.1757
  576MOL0     C77654   4.076   6.830   3.682 -0.1259 -0.2767  0.0144
  576MOL0     O77655   3.947   6.869   3.674 -0.9333  0.5512 -0.6276
  576MOL0     C77656   3.933   7.003   3.636  0.3325 -0.0643  0.4711
  576MOL0     C77657   3.884   7.101   3.733 -0.8785 -0.1029  0.6154
  576MOL0     C77658   3.855   7.230   3.680  0.0149 -0.0353  0.1510
  576MOL0     C77659   3.862   7.260   3.546 -0.0030  0.2135 -0.1934
  576MOL0     O77660   3.838   7.392   3.508  0.1162  0.2236  0.2484
  576MOL0     C77661   3.896   7.451   3.386  0.1126  0.3151  0.1905
  576MOL0     C77662   3.882   7.610   3.390 -0.0485  1.0853  0.0865
  576MOL0     C77663   3.925   7.658   3.528  0.3358 -0.0625  0.4125
  576MOL0     C77664   3.945   7.809   3.528 -0.6885 -0.3610  0.6963
  576MOL0     C77665   3.972   7.879   3.665  0.0902  0.4133 -0.2733
  576MOL0     C77666   4.054   8.011   3.648 -0.0297  0.1864  0.2406
  576MOL0     C77667   4.037   8.093   3.785  0.5789 -1.0147  0.3227
  576MOL0     C77668   4.077   8.232   3.792 -0.0534  0.5966 -0.5405
  576MOL0    Cl77669   3.989   8.322   3.657 -0.8216 -0.2849 -0.6411
  576MOL0     C77670   3.907   7.158   3.462  0.3028 -0.4218 -0.2070
  576MOL0     C77671   3.936   7.030   3.498  0.6147 -0.4760  0.1231
  576MOL0     O77672   4.169   6.892   3.643  0.2891 -0.0007 -0.7194
  576MOL0     C77673   4.240   6.645   3.741  0.3299 -0.0524 -0.2745
  576MOL0     C77674   4.260   6.515   3.789  0.6276 -1.1536 -0.5829
  576MOL0     N77675   3.749   5.794   4.073 -0.0190 -0.6236  0.6936
  576MOL0     N77676   3.649   5.798   4.143  0.4377  0.4369 -0.1838
  576MOL0     C77677   3.575   5.739   5.376 -0.1254 -0.0191 -0.0196
  576MOL0     C77678   3.639   5.713   5.505  0.0935 -0.4614  0.0741
  576MOL0     C77679   3.862   5.760   5.882 -0.0117  0.3904  0.3872
  576MOL0     C77680   3.780   5.691   5.974 -0.3540 -0.1108  0.6723
  576MOL0     C77681   3.818   5.643   6.094  0.1126  0.5625 -0.3643
  576MOL0     C77682   3.949   5.664   6.142  1.1333  0.2617 -0.1944
  576MOL0     O77683   3.990   5.627   6.260  0.5058  0.2972 -0.3408
  576MOL0     C77684   4.131   5.597   6.275  0.0424  0.4632 -0.4983
  576MOL0     C77685   4.142   5.450   6.337  0.2833 -0.9593  0.6380
  576MOL0     C77686   4.051   5.339   6.274 -0.7494 -0.8595 -0.7340
  576MOL0     C77687   4.092   5.196   6.303  0.6015  0.4625 -0.1007
  576MOL0     C77688   3.995   5.096   6.255  0.3747  0.5555  0.6255
  576MOL0     C77689   3.915   5.010   6.214 -0.6831  0.4783  0.3037
  576MOL0     C77690   4.029   5.741   6.053 -1.0497  0.0926 -0.7975
  576MOL0     C77691   3.994   5.768   5.923  0.0505 -0.5112 -0.0017
  576MOL0     C77692   4.110   5.793   5.827  0.5824 -0.7654 -1.2542
  576MOL0     H77693   3.631   6.030   5.632  0.6714 -3.0885  3.0263
  576MOL0     H77694   3.551   6.081   5.417 -0.9678 -1.2430 -2.2574
  576MOL0     H77695   3.355   6.051   5.249  0.6090 -1.6233  0.7973
  576MOL0     H77696   3.521   6.108   5.188  0.5674  0.4733 -0.0150
  576MOL0     H77697   3.325   6.114   5.013 -1.5096 -2.0638 -1.6583
  576MOL0     H77698   3.333   5.942   5.023  1.1318 -0.8224 -0.5315
  576MOL0     H77699   3.584   5.954   4.969 -0.0718 -2.4455 -2.5498
  576MOL0     H77700   3.557   6.114   4.906  2.2617 -0.8457  1.9770
  576MOL0     H77701   3.465   5.843   4.813  3.3976 -0.3710  0.3151
  576MOL0     H77702   3.345   5.982   4.784 -0.2672 -1.2614  2.0022
  576MOL0     H77703   3.546   6.113   4.675  0.3247  0.3800 -0.2789
  576MOL0     H77704   3.631   5.965   4.704 -0.1514  0.3886  1.2002
  576MOL0     H77705   3.425   5.873   4.557 -1.4309  0.5982  1.0361
  576MOL0     H77706   3.389   6.037   4.514 -1.4995  0.0017  0.3593
  576MOL0     H77707   3.648   5.885   4.477 -0.6894 -0.6026  0.6391
  576MOL0     H77708   3.652   6.055   4.456  0.0256 -0.1624  0.0953
  576MOL0     H77709   3.454   5.848   4.324  1.1826 -0.9621 -1.3023
  576MOL0     H77710   3.462   6.007   4.268 -0.8345 -1.3851 -0.9676
  576MOL0     H77711   3.774   6.079   4.239  2.1052  0.5515 -1.2413
  576MOL0     H77712   3.976   5.878   3.949 -1.8453  4.1831 -4.2011
  576MOL0     H77713   3.891   6.030   3.959 -0.5051  0.8155  1.3084
  576MOL0     H77714   4.000   6.087   4.171 -1.5254 -1.6205  1.5750
  576MOL0     H77715   4.098   5.937   4.149  0.5130  0.5457 -1.2054
  576MOL0     H77716   4.142   6.033   3.915 -0.3787  1.9977 -2.1545
  576MOL0     H77717   4.227   6.114   4.049  0.7955 -0.8887 -1.6194
  576MOL0     H77718   4.060   6.297   4.053  0.8824 -3.0110  1.0619
  576MOL0     H77719   3.984   6.244   3.904 -0.6014  0.4613  0.6439
  576MOL0     H77720   3.942   6.454   3.895  1.3401 -0.0810  1.9813
  576MOL0     H77721   3.919   6.673   3.808  0.8917 -1.0913 -1.3907
  576MOL0     H77722   3.869   7.078   3.838  2.2768 -2.8496  0.6260
  576MOL0     H77723   3.837   7.311   3.751 -1.7604 -1.5828  1.5765
  576MOL0     H77724   4.000   7.418   3.384  0.5519  1.5817 -2.3581
  576MOL0     H77725   3.847   7.413   3.296  1.9047  4.5180 -2.8648
  576MOL0     H77726   3.950   7.654   3.316 -0.1703  1.2480  0.0707
  576MOL0     H77727   3.774   7.626   3.382 -0.6080 -1.8175  0.6978
  576MOL0     H77728   3.851   7.631   3.604  1.6059 -1.5565  1.1921
  576MOL0     H77729   4.019   7.607   3.551 -0.0836 -1.2708 -0.4547
  576MOL0     H77730   3.872   7.856   3.460  3.4331 -1.9680 -5.7544
  576MOL0     H77731   4.035   7.828   3.468 -1.3662  0.8342  0.0120
  576MOL0     H77732   4.044   7.810   3.710 -0.3772 -0.8180 -1.3486
  576MOL0     H77733   3.877   7.894   3.717 -0.7953 -0.6933 -1.4963
  576MOL0     H77734   4.160   7.993   3.633 -0.3056  0.0255 -1.8192
  576MOL0     H77735   4.019   8.062   3.558  0.0542  0.5255  0.4027
  576MOL0     H77736   4.091   8.051   3.870  0.6954 -0.3732  0.5741
  576MOL0     H77737   3.933   8.090   3.818  0.4223  1.5005  0.2747
  576MOL0     H77738   4.051   8.264   3.893 -0.2035  0.9791 -0.6975
  576MOL0     H77739   4.185   8.242   3.777 -0.2332 -0.1056 -2.7831
  576MOL0     H77740   3.927   7.177   3.357  1.6334 -2.5171 -0.3951
  576MOL0     H77741   3.958   6.956   3.423  0.2379 -0.6835  0.2156
  576MOL0     H77742   4.328   6.701   3.711  0.8958 -0.9641 -0.3669
  576MOL0     H77743   4.357   6.468   3.782  1.2464  0.2818 -5.3861
  576MOL0     H77744   3.545   5.672   5.297 -0.4196 -0.5606  0.5388
  576MOL0     H77745   3.665   5.610   5.529  1.7428  0.6152  3.5447
  576MOL0     H77746   3.676   5.676   5.945  0.4436 -1.7691 -1.4742
  576MOL0     H77747   3.744   5.602   6.162  0.3287  0.4651 -0.1856
  576MOL0     H77748   4.179   5.672   6.338 -1.8953  1.7936 -0.5178
  576MOL0     H77749   4.187   5.582   6.182  0.0002  0.2357 -0.4893
  576MOL0     H77750   4.105   5.457   6.439 -0.1341  0.7012  0.4072
  576MOL0     H77751   4.247   5.419   6.347 -0.0308 -1.7260  1.7144
  576MOL0     H77752   4.057   5.351   6.165  0.1725  0.6918 -0.5477
  576MOL0     H77753   3.949   5.366   6.303 -0.4240  1.2581 -1.3470
  576MOL0     H77754   4.186   5.185   6.249  0.9882  0.0712  0.6412
  576MOL0     H77755   4.102   5.197   6.412 -0.5015  0.4285  0.0163
  576MOL0     H77756   3.829   4.962   6.172 -1.8252  4.3347 -2.3955
  576MOL0     H77757   4.131   5.766   6.079 -1.8830  1.9715  0.9515
  576MOL0     H77758   4.106   5.902   5.825 -0.9872 -0.6445  1.8378
  576MOL0     H77759   4.209   5.773   5.870 -0.2886  2.9555  3.2519
  576MOL0     H77760   4.082   5.757   5.728 -4.3916  2.4918 -1.3397
  577MOL0     O77761   7.474   5.647  10.679 -0.3345 -0.2687  0.9455
  577MOL0     C77762   7.466   5.591  10.573  0.2581 -0.4216 -0.3996
  577MOL0     O77763   7.499   5.645  10.455 -0.2245  0.8092  0.8289
  577MOL0     C77764   7.520   5.777  10.457 -0.7039 -0.3840  0.3439
  577MOL0     C77765   7.653   5.832  10.473  0.2488  0.0081  0.7258
  577MOL0     C77766   7.662   5.971  10.480 -0.7984 -0.0791 -0.4816
  577MOL0     C77767   7.545   6.046  10.488 -0.5117 -0.9526  0.6476
  577MOL0     O77768   7.562   6.181  10.497  0.4887 -0.6226 -0.3729
  577MOL0     C77769   7.482   6.241  10.594  1.1401 -0.2812 -0.1279
  577MOL0     C77770   7.472   6.397  10.572 -0.2135 -0.5507  0.9458
  577MOL0     C77771   7.361   6.454  10.657  0.7284  0.3579  0.1886
  577MOL0     C77772   7.351   6.601  10.648 -0.2531 -0.2135  0.2309
  577MOL0     C77773   7.268   6.663  10.772  0.2117 -0.6634 -0.1888
  577MOL0     C77774   7.236   6.812  10.742  0.5424 -0.0110  0.9865
  577MOL0     C77775   7.139   6.877  10.849 -0.0845  0.0804 -0.3744
  577MOL0     C77776   7.209   6.923  10.972  0.3685 -0.0374 -0.8831
  577MOL0     N77777   7.122   6.986  11.079 -0.1974  0.1203  0.0253
  577MOL0     C77778   7.163   7.025  11.199  0.0669 -0.6116 -1.2483
  577MOL0     C77779   7.071   7.108  11.263 -0.4671  0.3777  0.1069
  577MOL0     C77780   7.085   7.182  11.395  1.0629  0.8317 -0.4115
  577MOL0     C77781   7.010   7.316  11.389 -0.0478  0.4348  0.3868
  577MOL0     C77782   7.089   7.423  11.319 -0.3740  0.3452  0.4931
  577MOL0     C77783   7.015   7.560  11.321  0.2371  0.7717 -0.0234
  577MOL0     O77784   7.058   7.650  11.212 -0.0053  0.4235  0.7527
  577MOL0     C77785   7.032   7.785  11.211  0.3716  0.1658  1.2193
  577MOL0     C77786   6.936   7.842  11.285  0.8806 -0.3392 -0.0898
  577MOL0     C77787   6.909   7.985  11.287 -0.0570  0.6236  0.8410
  577MOL0     C77788   6.978   8.069  11.192 -0.0099  0.1028 -1.0549
  577MOL0     C77789   6.975   8.218  11.198  0.2089  0.8063 -0.4439
  577MOL0     O77790   7.048   8.283  11.101 -0.0579  0.9871 -0.1209
  577MOL0     C77791   7.046   8.413  11.108 -0.1906  0.3757 -0.0466
  577MOL0     C77792   7.160   8.482  11.144  0.1855  0.4838  0.1862
  577MOL0     C77793   7.170   8.615  11.119  0.6988  0.2237  0.0321
  577MOL0     C77794   7.060   8.688  11.068 -0.0028 -0.0197  1.1806
  577MOL0     O77795   7.067   8.827  11.074  0.4355 -0.3409  0.0667
  577MOL0     C77796   6.974   8.918  10.999 -0.2231  0.2716  1.0946
  577MOL0     C77797   7.042   9.051  10.974  0.2308 -0.2931 -0.7787
  577MOL0     C77798   7.039   9.137  11.102  0.8848 -0.9390 -0.2456
  577MOL0     C77799   7.096   9.272  11.062  0.0329 -0.3751 -0.4930
  577MOL0     C77800   7.113   9.365  11.183  0.2406 -0.2819 -0.2637
  577MOL0     C77801   7.001   9.446  11.228  0.8252 -0.2481  0.0304
  577MOL0     C77802   7.052   9.567  11.313 -0.6206 -0.8255 -0.2054
  577MOL0     C77803   7.108   9.521  11.456 -0.8654 -0.8567  1.3164
  577MOL0    Cl77804   7.004   9.400  11.533  0.3290 -0.2070  0.0867
  577MOL0     C77805   6.955   8.615  11.021  1.0960 -0.3228 -0.3608
  577MOL0     C77806   6.942   8.480  11.047  0.5409 -0.6790 -0.4350
  577MOL0     O77807   6.919   8.269  11.291  0.6818 -0.7001 -0.8382
  577MOL0     C77808   7.058   8.000  11.101 -0.2975 -0.0793 -0.7433
  577MOL0     C77809   7.083   7.862  11.107  0.1856  0.0872  0.0434
  577MOL0     N77810   6.966   7.116  11.175 -0.1247 -0.5247 -0.1824
  577MOL0     N77811   7.001   7.044  11.062 -0.1908  0.0489  0.7760
  577MOL0     C77812   7.424   5.994  10.476 -0.4781  0.6030 -0.0655
  577MOL0     C77813   7.406   5.852  10.464 -0.0800  0.3453  0.0642
  577MOL0     C77814   7.391   5.459  10.579 -0.9209  0.2522 -1.4089
  577MOL0     C77815   7.337   5.404  10.696  0.0876 -0.0662  0.6542
  577MOL0     C77816   7.266   5.283  10.703 -0.1013  0.3618 -0.1621
  577MOL0     C77817   7.244   5.209  10.586 -0.8895  0.4576 -0.1239
  577MOL0     O77818   7.195   5.086  10.600  0.2757  0.2239 -0.1703
  577MOL0     C77819   7.171   4.983  10.501 -1.0339  0.5274 -0.9085
  577MOL0     C77820   7.291   4.913  10.442 -0.5017  0.4410  0.5456
  577MOL0     C77821   7.268   4.865  10.297 -0.6714 -0.5683  0.2442
  577MOL0     C77822   7.397   4.837  10.218  0.1084  0.7397 -1.2256
  577MOL0     C77823   7.369   4.821  10.078 -0.5918 -0.8483  1.1545
  577MOL0     C77824   7.349   4.808   9.957 -0.8238  0.3205 -0.2040
  577MOL0     C77825   7.288   5.263  10.466  0.0059  0.0141 -0.7902
  577MOL0     C77826   7.363   5.379  10.464 -0.0615  0.5542 -0.3477
  577MOL0     C77827   7.431   5.397  10.330 -0.3922 -0.5233  1.2562
  577MOL0     H77828   7.745   5.775  10.472  1.8568  2.3124 -2.7250
  577MOL0     H77829   7.763   6.010  10.480 -1.5231  1.8867 -0.0053
  577MOL0     H77830   7.382   6.197  10.595  0.9332  0.1917  0.0171
  577MOL0     H77831   7.523   6.218  10.693  1.6621 -3.9070 -1.0186
  577MOL0     H77832   7.448   6.421  10.468 -2.5983 -1.6866  1.1541
  577MOL0     H77833   7.569   6.446  10.587 -0.4037  0.5469 -1.0222
  577MOL0     H77834   7.378   6.418  10.759  2.2343  1.7792  0.4866
  577MOL0     H77835   7.272   6.411  10.610  2.2356 -2.5689 -0.2584
  577MOL0     H77836   7.444   6.657  10.634 -1.3906  1.1014 -3.0700
  577MOL0     H77837   7.297   6.625  10.556 -0.9348 -1.1756  0.3657
  577MOL0     H77838   7.178   6.603  10.786 -1.0179  1.4465  1.5967
  577MOL0     H77839   7.319   6.653  10.868 -0.1300 -2.2648 -0.1491
  577MOL0     H77840   7.331   6.867  10.735  2.3813 -3.1636 -0.8436
  577MOL0     H77841   7.188   6.822  10.645 -2.0335  3.5790  2.3843
  577MOL0     H77842   7.061   6.805  10.877 -0.9173  1.6389  1.6166
  577MOL0     H77843   7.074   6.959  10.816 -0.9229 -0.8810 -1.1504
  577MOL0     H77844   7.251   6.832  11.017  0.9478  0.6147 -0.0556
  577MOL0     H77845   7.298   6.985  10.954  1.6909 -2.1176 -1.8704
  577MOL0     H77846   7.259   6.994  11.239 -0.5412 -1.5826 -0.5054
  577MOL0     H77847   7.049   7.123  11.479  5.8352 -2.8563 -0.5131
  577MOL0     H77848   7.190   7.208  11.408  0.9056  0.6880  1.2456
  577MOL0     H77849   6.914   7.299  11.341  1.6679 -1.8136 -2.5578
  577MOL0     H77850   6.992   7.349  11.492  1.2316 -1.5405  1.3275
  577MOL0     H77851   7.119   7.380  11.222  0.1086  0.7582  0.4555
  577MOL0     H77852   7.187   7.442  11.364  1.0644 -1.0920 -1.8241
  577MOL0     H77853   7.036   7.616  11.412  1.4381  0.5413 -0.1441
  577MOL0     H77854   6.909   7.535  11.310  0.9610 -2.9733  0.1841
  577MOL0     H77855   6.880   7.775  11.350 -0.0996  0.7616  0.2417
  577MOL0     H77856   6.836   8.031  11.353 -0.0211  0.7138  0.8180
  577MOL0     H77857   7.233   8.419  11.193  0.6072  0.2846 -0.6723
  577MOL0     H77858   7.255   8.673  11.155  1.3588  1.2794 -2.9108
  577MOL0     H77859   6.955   8.871  10.902 -0.7819  1.5302  0.5716
  577MOL0     H77860   6.880   8.946  11.049 -1.4393  0.8543 -1.3522
  577MOL0     H77861   7.143   9.025  10.940  0.1155  0.5423 -1.8158
  577MOL0     H77862   6.986   9.105  10.898 -0.8937 -2.4796 -1.5909
  577MOL0     H77863   6.939   9.166  11.137  0.5624  0.1049 -1.9169
  577MOL0     H77864   7.098   9.083  11.177 -0.5460  3.0658  4.2820
  577MOL0     H77865   7.022   9.317  10.995 -1.8920  0.6965  2.2001
  577MOL0     H77866   7.193   9.265  11.012  1.3852 -1.6664  2.1567
  577MOL0     H77867   7.193   9.436  11.159 -1.3594  2.3725  1.6677
  577MOL0     H77868   7.151   9.304  11.266  1.3667 -2.1008 -2.0359
  577MOL0     H77869   6.946   9.476  11.138 -0.4141 -0.0785  0.8301
  577MOL0     H77870   6.923   9.393  11.282  0.8520 -1.8692 -1.4343
  577MOL0     H77871   6.974   9.644  11.323 -1.0164 -0.9582 -1.9696
  577MOL0     H77872   7.131   9.619  11.259 -2.7084  4.7331  1.3639
  577MOL0     H77873   7.206   9.475  11.444 -0.0394  1.1378  0.0620
  577MOL0     H77874   7.116   9.613  11.516 -4.2086  0.4769 -0.0311
  577MOL0     H77875   6.866   8.659  10.976 -0.5700 -0.6400  2.3612
  577MOL0     H77876   6.863   8.419  11.004 -0.1514  2.6202 -4.4148
  577MOL0     H77877   7.112   8.061  11.029 -3.2130 -0.1040 -3.1766
  577MOL0     H77878   7.151   7.811  11.039 -2.8774  0.2114 -3.3917
  577MOL0     H77879   7.329   6.042  10.497 -0.1347 -0.5540  5.7693
  577MOL0     H77880   7.314   5.796  10.453 -1.1912  2.1249 -0.0826
  577MOL0     H77881   7.354   5.466  10.784  1.0051  1.7321 -0.7267
  577MOL0     H77882   7.237   5.241  10.799  0.9973 -0.3077 -0.1118
  577MOL0     H77883   7.120   5.028  10.415  0.4138  2.6342 -0.7224
  577MOL0     H77884   7.109   4.907  10.551  0.2503  0.1860  0.2161
  577MOL0     H77885   7.313   4.826  10.504  0.5429 -0.0465 -0.4713
  577MOL0     H77886   7.370   4.990  10.443  0.2561 -0.3193  0.4586
  577MOL0     H77887   7.220   4.942  10.236 -5.5680 -1.8666  1.9727
  577MOL0     H77888   7.201   4.778  10.291  0.9134 -1.7970 -0.7149
  577MOL0     H77889   7.468   4.917  10.242  0.0619  0.1163  1.3030
  577MOL0     H77890   7.446   4.745  10.252 -0.2932  1.0917  0.4132
  577MOL0     H77891   7.319   4.809   9.854 -1.9365  4.8014 -0.0387
  577MOL0     H77892   7.269   5.201  10.379 -0.4687 -1.3698  0.2674
  577MOL0     H77893   7.403   5.324  10.254  1.6148 -0.1135  0.0630
  577MOL0     H77894   7.410   5.491  10.277 -0.0923 -1.2906 -0.2824
  577MOL0     H77895   7.538   5.382  10.347  0.0892  3.3640  2.5721
  578MOL0     O77896   5.000  10.391   5.865 -0.0992 -0.5756 -0.3649
  578MOL0     C77897   5.035  10.362   5.751  0.0086 -0.0308 -0.4533
  578MOL0     O77898   5.105  10.255   5.721 -0.3058  0.4052 -0.3393
  578MOL0     C77899   5.149  10.152   5.803  0.3703  0.1555  0.0478
  578MOL0     C77900   5.194  10.164   5.934 -0.2925 -0.3537 -0.4418
  578MOL0     C77901   5.219  10.049   6.009 -0.1954  0.2743 -0.0340
  578MOL0     C77902   5.217   9.919   5.962  0.3451 -1.1817  0.0294
  578MOL0     O77903   5.249   9.812   6.038  0.3168  0.1936 -0.1912
  578MOL0     C77904   5.288   9.682   5.985  0.7526 -0.0116 -0.1921
  578MOL0     C77905   5.320   9.585   6.098  0.0987  0.5121 -0.3675
  578MOL0     C77906   5.198   9.517   6.162  0.1952  0.1310 -0.6783
  578MOL0     C77907   5.233   9.421   6.269  0.2948 -0.1725  0.1728
  578MOL0     C77908   5.302   9.294   6.217  0.1834 -0.1105 -0.2716
  578MOL0     C77909   5.230   9.226   6.099  0.4418 -0.4264  0.5977
  578MOL0     C77910   5.279   9.078   6.058 -0.8407 -0.2888 -0.1456
  578MOL0     C77911   5.223   8.970   6.154  0.1411 -0.8118 -0.1643
  578MOL0     N77912   5.274   8.835   6.128 -0.7198 -0.2434  0.8449
  578MOL0     C77913   5.297   8.787   6.005  0.4974 -0.2142 -0.4122
  578MOL0     C77914   5.336   8.660   6.027 -0.3549 -0.3995 -0.5978
  578MOL0     C77915   5.400   8.572   5.926  0.6964  0.2894 -0.5304
  578MOL0     C77916   5.455   8.437   5.988  0.6718 -1.0395  0.6566
  578MOL0     C77917   5.552   8.385   5.880  0.1649  0.3303  0.1905
  578MOL0     C77918   5.491   8.365   5.739  0.8086  0.5206 -0.0440
  578MOL0     O77919   5.564   8.278   5.647  0.0010  0.2733 -0.1559
  578MOL0     C77920   5.484   8.213   5.549  0.1557 -0.6029  0.4030
  578MOL0     C77921   5.462   8.073   5.550  0.3729 -0.0209  0.5523
  578MOL0     C77922   5.357   8.024   5.464  1.0468  0.6219 -0.1277
  578MOL0     C77923   5.299   8.109   5.371 -0.1475  0.1353 -0.4242
  578MOL0     C77924   5.209   8.050   5.272  0.3873  0.1565 -0.5929
  578MOL0     O77925   5.202   8.106   5.152 -0.2852 -0.1100 -0.7088
  578MOL0     C77926   5.121   8.033   5.055  0.2126 -2.0269  0.8660
  578MOL0     C77927   4.997   7.970   5.077 -1.1086  0.0282  0.3420
  578MOL0     C77928   4.926   7.896   4.980  0.0421  0.3392 -1.0870
  578MOL0     C77929   4.968   7.888   4.850  0.4451 -0.1063  0.9088
  578MOL0     O77930   4.916   7.809   4.748  1.2875 -0.8711 -0.4399
  578MOL0     C77931   4.816   7.717   4.788  0.3396  0.2948  0.1852
  578MOL0     C77932   4.762   7.640   4.671 -0.1424  0.3052 -0.4477
  578MOL0     C77933   4.659   7.534   4.708 -0.2266 -0.0109  0.3308
  578MOL0     C77934   4.609   7.465   4.579  0.3816  0.1946  1.1821
  578MOL0     C77935   4.473   7.410   4.609 -0.8720  0.1479  0.0484
  578MOL0     C77936   4.401   7.355   4.498  0.0980  0.3413  0.7215
  578MOL0     C77937   4.267   7.287   4.532  0.3070  0.4259 -0.0121
  578MOL0     C77938   4.160   7.273   4.426  0.0517  0.8010  0.4118
  578MOL0    Cl77939   4.102   7.423   4.345 -0.0372  0.0573  0.3084
  578MOL0     C77940   5.088   7.958   4.814  0.0566 -0.2180 -0.2138
  578MOL0     C77941   5.156   8.042   4.918  0.2826 -0.4572  0.1377
  578MOL0     O77942   5.140   7.954   5.308 -0.2014  0.1938  0.3880
  578MOL0     C77943   5.314   8.250   5.364 -0.5625  1.1340 -0.0126
  578MOL0     C77944   5.413   8.291   5.450 -0.1389  0.2987 -0.0630
  578MOL0     N77945   5.350   8.636   6.161  0.4906 -0.1881 -1.1679
  578MOL0     N77946   5.317   8.744   6.224  0.5237 -0.0985  0.1702
  578MOL0     C77947   5.182   9.913   5.826 -1.3051 -0.6462 -0.2771
  578MOL0     C77948   5.156  10.024   5.750  0.2224  0.1470  0.8754
  578MOL0     C77949   4.981  10.448   5.641 -0.7266 -0.1508  0.5183
  578MOL0     C77950   4.940  10.391   5.519 -0.5098  0.9541 -0.3175
  578MOL0     C77951   4.892  10.463   5.418 -0.4676  0.2293  0.2760
  578MOL0     C77952   4.873  10.598   5.424  0.0144  0.2878  0.2955
  578MOL0     O77953   4.821  10.665   5.315 -0.1635  0.3566  0.2477
  578MOL0     C77954   4.898  10.778   5.277 -0.0776 -0.0339  0.4872
  578MOL0     C77955   4.810  10.871   5.196 -0.0445 -0.3986  0.3718
  578MOL0     C77956   4.707  10.947   5.279  0.4479  1.2704  0.2303
  578MOL0     C77957   4.743  11.087   5.318 -0.0049 -0.3852 -0.2939
  578MOL0     C77958   4.849  11.084   5.420  0.0779 -0.0631 -0.0674
  578MOL0     C77959   4.916  11.102   5.516 -0.3961 -0.0807  0.7654
  578MOL0     C77960   4.910  10.665   5.541 -0.8391  0.5162 -0.4836
  578MOL0     C77961   4.973  10.601   5.650 -0.2017 -0.1363 -0.2852
  578MOL0     C77962   4.998  10.681   5.778  0.5410 -0.0296 -0.9704
  578MOL0     H77963   5.200  10.261   5.982  0.5561  1.1852 -3.3926
  578MOL0     H77964   5.240  10.071   6.113 -0.3251  2.8467 -0.4978
  578MOL0     H77965   5.200   9.652   5.928  1.1098  0.5920 -1.0761
  578MOL0     H77966   5.377   9.706   5.927  2.1217  0.2718  1.9260
  578MOL0     H77967   5.362   9.643   6.181  0.7726  1.6295 -1.4509
  578MOL0     H77968   5.383   9.502   6.064  0.9100 -0.8770  3.8905
  578MOL0     H77969   5.131   9.477   6.085  0.4855  0.0458 -0.8867
  578MOL0     H77970   5.142   9.599   6.209 -0.4277  0.2727 -1.6435
  578MOL0     H77971   5.302   9.464   6.342 -0.8463  1.8857  0.1185
  578MOL0     H77972   5.150   9.373   6.322  1.4086 -2.5095 -0.0526
  578MOL0     H77973   5.402   9.333   6.195  2.2632 -2.5748  3.5727
  578MOL0     H77974   5.304   9.219   6.297 -0.2080 -1.4527 -1.4696
  578MOL0     H77975   5.121   9.227   6.112  0.6108  1.1631  2.2602
  578MOL0     H77976   5.248   9.288   6.011  2.5567 -0.7130  0.7940
  578MOL0     H77977   5.388   9.085   6.053 -1.0094  2.1643 -2.3179
  578MOL0     H77978   5.242   9.055   5.958  0.8883 -0.3644 -0.7940
  578MOL0     H77979   5.246   8.986   6.260  0.3931 -0.4767 -0.2698
  578MOL0     H77980   5.114   8.964   6.145  0.0571  0.2612  0.0121
  578MOL0     H77981   5.286   8.828   5.905  1.9741 -3.6573 -2.1461
  578MOL0     H77982   5.329   8.551   5.846  1.1108 -2.6084 -0.2452
  578MOL0     H77983   5.482   8.631   5.885 -0.8254  0.2394 -3.9889
  578MOL0     H77984   5.516   8.457   6.076  0.5223 -3.5687  1.4140
  578MOL0     H77985   5.375   8.367   6.014 -1.4957 -0.0112 -2.5995
  578MOL0     H77986   5.590   8.286   5.909  1.8409  0.5077 -1.2947
  578MOL0     H77987   5.638   8.450   5.865  1.3434 -0.9191  1.2005
  578MOL0     H77988   5.488   8.469   5.707  0.6692  0.7781  0.7681
  578MOL0     H77989   5.386   8.335   5.729  0.3181  2.0893  0.1329
  578MOL0     H77990   5.515   8.021   5.629 -1.1101 -2.1236  0.2392
  578MOL0     H77991   5.316   7.925   5.447 -1.9997  1.9841 -1.2193
  578MOL0     H77992   4.946   7.973   5.172  0.1584 -1.6491  1.1183
  578MOL0     H77993   4.835   7.851   5.019  1.3396  1.0857  3.4381
  578MOL0     H77994   4.853   7.639   4.856 -0.7135 -1.3064 -1.0209
  578MOL0     H77995   4.734   7.779   4.825  1.6411  2.5975 -0.5566
  578MOL0     H77996   4.718   7.714   4.603 -0.1758  0.5863 -0.1236
  578MOL0     H77997   4.842   7.584   4.622  0.9530  0.6759  0.8888
  578MOL0     H77998   4.708   7.461   4.772 -0.4782  1.7607  2.6622
  578MOL0     H77999   4.578   7.585   4.761  0.5948  1.6510  0.0629
  578MOL0     H78000   4.681   7.388   4.550 -1.0183  0.2072 -3.1272
  578MOL0     H78001   4.595   7.532   4.494  2.5773  1.7245  1.9676
  578MOL0     H78002   4.409   7.481   4.663 -0.8000 -1.5923  2.5956
  578MOL0     H78003   4.483   7.329   4.682  0.2835 -0.3585 -0.6534
  578MOL0     H78004   4.383   7.433   4.423  1.1521 -1.1171 -1.1521
  578MOL0     H78005   4.464   7.276   4.455 -1.5830  0.2217 -1.7466
  578MOL0     H78006   4.211   7.332   4.615 -0.3091  0.9518 -0.7094
  578MOL0     H78007   4.274   7.187   4.576 -2.1237  0.7195  1.1965
  578MOL0     H78008   4.196   7.210   4.344  2.6949 -0.7788  2.5924
  578MOL0     H78009   4.067   7.229   4.462  0.8298 -1.2541  0.0452
  578MOL0     H78010   5.139   7.961   4.718  3.9791  6.1783  1.5070
  578MOL0     H78011   5.241   8.098   4.881  0.9886 -2.6549 -1.7719
  578MOL0     H78012   5.249   8.310   5.302 -0.8109  1.3354  0.4394
  578MOL0     H78013   5.442   8.394   5.433  0.1515  0.7647  2.7692
  578MOL0     H78014   5.179   9.811   5.790 -2.1668 -0.2037 -1.5410
  578MOL0     H78015   5.132  10.024   5.644  0.9219  1.6152  0.6926
  578MOL0     H78016   4.943  10.285   5.497 -1.5940  0.3160  2.2458
  578MOL0     H78017   4.865  10.405   5.330  0.8643 -2.3181  1.4602
  578MOL0     H78018   4.979  10.753   5.208 -1.1683 -1.7547 -0.2382
  578MOL0     H78019   4.944  10.831   5.360  1.7221 -1.4165  0.4179
  578MOL0     H78020   4.775  10.802   5.117  2.3835 -1.8807  0.4964
  578MOL0     H78021   4.875  10.937   5.139  0.6606 -2.6940 -1.6414
  578MOL0     H78022   4.668  10.885   5.361 -0.6071  1.4574 -0.1107
  578MOL0     H78023   4.618  10.964   5.219  1.8321  1.9629 -1.7198
  578MOL0     H78024   4.756  11.150   5.229 -1.7763 -2.0648 -1.8388
  578MOL0     H78025   4.649  11.131   5.352 -0.8834 -0.9819 -1.8324
  578MOL0     H78026   4.978  11.117   5.602  1.0584 -2.0288  0.1276
  578MOL0     H78027   4.871  10.764   5.559 -0.3717  1.1806 -2.8472
  578MOL0     H78028   4.923  10.646   5.849  0.3471 -1.7196 -1.9357
  578MOL0     H78029   5.094  10.661   5.826  0.4487  0.3500 -0.6235
  578MOL0     H78030   4.976  10.785   5.755  0.0595  0.7923  2.6636
  579MOL0     O78031   9.783   1.947   1.424 -0.4377 -0.4213  0.0026
  579MOL0     C78032   9.690   1.992   1.497 -0.3748 -0.5298  0.1001
  579MOL0     O78033   9.634   2.114   1.490 -0.1723 -0.3715 -0.1885
  579MOL0     C78034   9.672   2.202   1.391  1.1940  0.4844  0.3599
  579MOL0     C78035   9.571   2.284   1.356  0.2249 -1.5453 -0.2127
  579MOL0     C78036   9.579   2.392   1.269  0.8106  0.3251  0.3942
  579MOL0     C78037   9.706   2.406   1.198 -0.3375 -0.1814 -0.6429
  579MOL0     O78038   9.713   2.495   1.095 -0.6110  0.3652 -0.3233
  579MOL0     C78039   9.849   2.540   1.059 -0.0364 -0.7756 -0.0593
  579MOL0     C78040   9.838   2.653   0.952  0.3988  0.0700 -0.6828
  579MOL0     C78041   9.812   2.595   0.814 -0.0507 -0.5297  0.6228
  579MOL0     C78042   9.837   2.682   0.694  0.0431  0.3504  1.6214
  579MOL0     C78043   9.844   2.601   0.555  0.0121 -0.3798 -0.3301
  579MOL0     C78044   9.915   2.672   0.446 -0.1357  0.3671  0.9987
  579MOL0     C78045   9.916   2.613   0.304 -0.0165  0.9389 -0.4872
  579MOL0     C78046   9.946   2.467   0.294  0.7658  0.3171 -0.6778
  579MOL0     N78047  10.084   2.444   0.321  0.5200  0.6228  0.1915
  579MOL0     C78048  10.139   2.361   0.419  0.9363  0.0671  0.8390
  579MOL0     C78049  10.253   2.308   0.368 -0.2893  0.8767  0.2440
  579MOL0     C78050  10.356   2.213   0.429  0.3626 -0.3458  0.3320
  579MOL0     C78051  10.288   2.070   0.449 -0.4334 -0.5736 -0.8427
  579MOL0     C78052  10.403   1.965   0.473  0.4314 -0.6780  0.0076
  579MOL0     C78053  10.344   1.826   0.460 -0.1929  0.3830 -0.4502
  579MOL0     O78054  10.412   1.727   0.541  0.0025 -0.5259 -0.1130
  579MOL0     C78055  10.468   1.619   0.485 -0.0877 -0.2713  0.3113
  579MOL0     C78056  10.405   1.496   0.502 -0.0511 -0.5539 -0.0699
  579MOL0     C78057  10.468   1.378   0.445  0.9911 -0.6103  0.0172
  579MOL0     C78058  10.587   1.395   0.370 -0.3701 -0.0824  0.4087
  579MOL0     C78059  10.642   1.273   0.295 -0.1155 -0.6833  0.2207
  579MOL0     O78060  10.685   1.307   0.168 -0.5590  1.0014 -0.6294
  579MOL0     C78061  10.754   1.224   0.086 -0.4078 -0.0739  1.2097
  579MOL0     C78062  10.822   1.102   0.120 -0.5456 -0.6113 -0.2021
  579MOL0     C78063  10.884   1.022   0.025 -1.0535  0.2140  0.8285
  579MOL0     C78064  10.871   1.049  -0.111  0.2336  0.0024  0.4218
  579MOL0     O78065  10.920   0.966  -0.204 -0.0612  0.5719  0.4774
  579MOL0     C78066  10.871   0.824  -0.192  1.0042 -0.0864  1.5486
  579MOL0     C78067  10.901   0.738  -0.318  0.7771  0.3410  0.7231
  579MOL0     C78068  11.044   0.723  -0.349 -0.9747  0.2281 -0.2498
  579MOL0     C78069  11.083   0.636  -0.469 -0.9670  0.2179 -0.7517
  579MOL0     C78070  11.027   0.687  -0.599  0.8896 -0.8379  0.3693
  579MOL0     C78071  11.073   0.601  -0.725 -0.3530 -0.4460  0.4458
  579MOL0     C78072  11.033   0.675  -0.858 -0.1506 -0.0040 -0.7553
  579MOL0     C78073  10.884   0.677  -0.885  0.0915 -0.2633 -0.2454
  579MOL0    Cl78074  10.808   0.513  -0.905  0.1637 -0.4924 -0.0910
  579MOL0     C78075  10.804   1.167  -0.143  0.7069 -0.2688  0.3134
  579MOL0     C78076  10.751   1.262  -0.049 -0.2665 -0.3814  0.5678
  579MOL0     O78077  10.631   1.166   0.348  0.8283 -0.4067  0.7223
  579MOL0     C78078  10.647   1.519   0.350  0.1374 -0.3603 -0.2419
  579MOL0     C78079  10.583   1.631   0.410 -0.0872 -0.1797 -0.2341
  579MOL0     N78080  10.274   2.377   0.256  0.3293 -1.1066  0.0044
  579MOL0     N78081  10.178   2.456   0.221  0.0644  0.3375 -0.0425
  579MOL0     C78082   9.813   2.321   1.237  0.0951  0.4468 -0.1329
  579MOL0     C78083   9.797   2.213   1.334 -0.8500 -0.1718  0.8426
  579MOL0     C78084   9.631   1.876   1.585 -0.6115 -0.5238 -0.3737
  579MOL0     C78085   9.697   1.749   1.606  0.2094  0.1313 -0.0337
  579MOL0     C78086   9.640   1.639   1.664 -0.0957 -0.3580  0.6744
  579MOL0     C78087   9.517   1.658   1.733 -0.7942 -0.2329 -0.2180
  579MOL0     O78088   9.474   1.583   1.835 -0.1421  0.6245 -0.7614
  579MOL0     C78089   9.521   1.449   1.855 -1.5856  0.7852  0.4263
  579MOL0     C78090   9.413   1.351   1.900 -0.1886  0.6140  0.2965
  579MOL0     C78091   9.313   1.392   2.005  0.0382  0.1056  0.8435
  579MOL0     C78092   9.328   1.305   2.126  0.2308  0.7369 -0.9904
  579MOL0     C78093   9.461   1.323   2.198 -0.4459 -0.0683  0.9962
  579MOL0     C78094   9.574   1.333   2.237 -0.1385 -0.8605 -0.0225
  579MOL0     C78095   9.457   1.784   1.721  0.1781 -0.2111 -0.6636
  579MOL0     C78096   9.498   1.890   1.641  0.1761  0.6480 -0.1572
  579MOL0     C78097   9.396   2.004   1.630 -1.8038  0.9358  0.8007
  579MOL0     H78098   9.473   2.263   1.397  0.1802 -2.9559 -0.9672
  579MOL0     H78099   9.491   2.450   1.248  1.1069  0.8861  0.6659
  579MOL0     H78100   9.888   2.590   1.148  0.0610 -0.2273 -0.4085
  579MOL0     H78101   9.913   2.461   1.019  0.0963 -3.2029  4.2980
  579MOL0     H78102   9.931   2.711   0.953 -1.6074  3.5637  0.2467
  579MOL0     H78103   9.761   2.723   0.986 -0.1526  1.9945 -5.1105
  579MOL0     H78104   9.703   2.583   0.816 -0.1585 -0.0693 -1.0538
  579MOL0     H78105   9.858   2.496   0.812  0.7285 -0.1704 -0.1784
  579MOL0     H78106   9.751   2.750   0.690  0.1327  0.4076 -1.3971
  579MOL0     H78107   9.922   2.747   0.717  0.0520  3.7112 -5.3565
  579MOL0     H78108   9.897   2.508   0.577  1.2103  0.2049 -0.6543
  579MOL0     H78109   9.744   2.580   0.516  0.0953  1.3316 -1.5802
  579MOL0     H78110   9.869   2.772   0.449 -2.1957 -0.3466 -1.9650
  579MOL0     H78111  10.018   2.687   0.482  0.0533  1.6658  0.0015
  579MOL0     H78112   9.985   2.660   0.234  0.1871  1.7309  0.2250
  579MOL0     H78113   9.814   2.628   0.268 -1.8864 -4.4202  1.5098
  579MOL0     H78114   9.890   2.422   0.376 -0.6860 -1.6316 -2.6097
  579MOL0     H78115   9.909   2.419   0.203 -0.4418  0.7470 -0.4305
  579MOL0     H78116  10.080   2.335   0.506 -2.6348  1.4155 -1.0061
  579MOL0     H78117  10.441   2.199   0.361  0.3544 -0.2919  0.3108
  579MOL0     H78118  10.382   2.252   0.528 -0.3597  1.4964 -0.1750
  579MOL0     H78119  10.211   2.063   0.526 -1.5070 -1.7635 -1.9738
  579MOL0     H78120  10.232   2.043   0.359 -2.3229 -0.1983  0.1705
  579MOL0     H78121  10.454   1.971   0.569  2.5334 -1.3254 -1.0030
  579MOL0     H78122  10.470   1.981   0.388 -0.2499  1.6229 -0.1791
  579MOL0     H78123  10.342   1.795   0.355 -2.5958 -1.1703 -0.0249
  579MOL0     H78124  10.239   1.821   0.492 -0.2667 -3.9633 -0.7463
  579MOL0     H78125  10.311   1.487   0.556  1.4275 -2.5087  2.4344
  579MOL0     H78126  10.432   1.277   0.456  0.9697 -0.7289 -1.0184
  579MOL0     H78127  10.828   1.070   0.224 -0.0455 -1.7035 -0.5457
  579MOL0     H78128  10.936   0.928   0.041  1.5666  0.8959 -2.5524
  579MOL0     H78129  10.912   0.778  -0.101  1.2607 -0.0712  1.4418
  579MOL0     H78130  10.762   0.828  -0.181  1.1172  3.2496  2.4076
  579MOL0     H78131  10.853   0.639  -0.324  0.6434  0.4497 -4.3635
  579MOL0     H78132  10.864   0.799  -0.402  2.9444 -0.7068 -1.1061
  579MOL0     H78133  11.093   0.820  -0.363 -1.0258  0.4253  0.8090
  579MOL0     H78134  11.081   0.664  -0.265 -2.9025 -2.8787 -1.4147
  579MOL0     H78135  11.050   0.533  -0.454 -0.6857  0.4203  1.4872
  579MOL0     H78136  11.192   0.626  -0.470 -0.8944  0.9845 -1.8201
  579MOL0     H78137  11.062   0.789  -0.617  3.2494 -1.6856 -0.0829
  579MOL0     H78138  10.917   0.681  -0.599  0.9053 -1.1890  0.3982
  579MOL0     H78139  11.183   0.597  -0.726 -0.3600 -0.4886 -0.0885
  579MOL0     H78140  11.022   0.504  -0.727 -1.1377 -0.0311 -1.7812
  579MOL0     H78141  11.090   0.621  -0.935  0.6407 -1.5551  0.8457
  579MOL0     H78142  11.073   0.777  -0.852  0.0207  0.0320 -2.0858
  579MOL0     H78143  10.843   0.739  -0.804  1.0035 -0.8160  0.6562
  579MOL0     H78144  10.868   0.726  -0.982 -0.8074 -0.4036 -0.1766
  579MOL0     H78145  10.797   1.202  -0.245  0.4728  1.8199  0.9862
  579MOL0     H78146  10.691   1.348  -0.075 -1.3038 -1.7169 -1.7622
  579MOL0     H78147  10.737   1.502   0.294 -1.3752 -0.2537 -2.8514
  579MOL0     H78148  10.626   1.731   0.406 -0.4742 -0.0161 -0.2811
  579MOL0     H78149   9.909   2.319   1.186  0.1271  2.8009 -0.2565
  579MOL0     H78150   9.883   2.151   1.359  0.1018  0.3019 -1.0597
  579MOL0     H78151   9.803   1.744   1.585  0.2788  3.3027 -0.8654
  579MOL0     H78152   9.697   1.549   1.684 -2.5759 -1.6174  2.6254
  579MOL0     H78153   9.605   1.433   1.922 -0.7086  0.2462 -0.7481
  579MOL0     H78154   9.556   1.415   1.757  0.6709  3.9784 -0.0217
  579MOL0     H78155   9.455   1.259   1.942 -1.0092  1.0617  2.1690
  579MOL0     H78156   9.362   1.327   1.806 -1.4543  3.7457  0.0832
  579MOL0     H78157   9.209   1.368   1.983 -0.0274 -1.6669  2.7349
  579MOL0     H78158   9.330   1.499   2.023 -0.6942  0.2470  0.7026
  579MOL0     H78159   9.256   1.350   2.194 -0.2250  0.3677 -1.2264
  579MOL0     H78160   9.298   1.200   2.116 -0.1345  0.6080  1.0139
  579MOL0     H78161   9.673   1.320   2.276  0.2779  3.0187  0.6410
  579MOL0     H78162   9.369   1.811   1.779  0.2213  1.9197 -1.4973
  579MOL0     H78163   9.320   2.001   1.708 -2.8726  1.8521 -0.1724
  579MOL0     H78164   9.458   2.093   1.647 -0.9575  0.2838  1.2562
  579MOL0     H78165   9.343   2.001   1.535  0.5674 -4.1250 -0.7094
  580MOL0     O78166   3.937   4.883   4.998 -0.0929  0.5484  0.8484
  580MOL0     C78167   3.900   4.847   5.113  0.7664 -0.7146  0.7178
  580MOL0     O78168   3.877   4.724   5.150 -0.2712  0.8590  0.0754
  580MOL0     C78169   3.813   4.639   5.064  0.4747  0.0404  0.1482
  580MOL0     C78170   3.704   4.680   4.989 -0.9678  0.5363 -0.1646
  580MOL0     C78171   3.627   4.583   4.914 -0.5640 -0.3076  0.4240
  580MOL0     C78172   3.666   4.448   4.905 -0.0875  0.4518  0.6144
  580MOL0     O78173   3.608   4.344   4.838 -0.4786 -0.1353  0.0085
  580MOL0     C78174   3.476   4.370   4.781  0.4893  0.3468  0.1038
  580MOL0     C78175   3.397   4.231   4.791  0.3247 -0.2722 -0.2675
  580MOL0     C78176   3.267   4.243   4.714  0.9400 -0.4941  0.2917
  580MOL0     C78177   3.172   4.128   4.751 -0.0312  0.5650 -0.1559
  580MOL0     C78178   3.044   4.112   4.669 -0.4616  0.1171 -0.3429
  580MOL0     C78179   3.069   4.017   4.549 -0.4220 -0.1084  0.5406
  580MOL0     C78180   2.942   4.009   4.460  0.3194  0.3685  0.0620
  580MOL0     C78181   2.953   3.891   4.346  0.0367 -0.0975  0.1348
  580MOL0     N78182   2.825   3.881   4.273  0.0286  0.3081 -0.0325
  580MOL0     C78183   2.707   3.861   4.337  0.3607 -0.0838  0.2353
  580MOL0     C78184   2.620   3.832   4.231 -0.0113 -0.3944 -0.4644
  580MOL0     C78185   2.477   3.779   4.251  0.1596  0.1412 -0.3176
  580MOL0     C78186   2.475   3.624   4.262  1.1402 -0.8852  0.8439
  580MOL0     C78187   2.328   3.582   4.267 -0.5091  0.4889 -0.2167
  580MOL0     C78188   2.253   3.580   4.132 -0.0220  0.6095  0.2504
  580MOL0     O78189   2.113   3.573   4.151 -0.6768  0.4662 -0.7077
  580MOL0     C78190   2.049   3.632   4.051 -0.8073  1.3080 -0.2007
  580MOL0     C78191   2.024   3.764   4.071 -0.7496 -0.2833  0.3292
  580MOL0     C78192   1.968   3.833   3.959 -0.3776 -0.7765 -0.0729
  580MOL0     C78193   1.926   3.764   3.847  0.0772  0.3413  0.0263
  580MOL0     C78194   1.871   3.834   3.733  1.2043  0.2503 -0.5878
  580MOL0     O78195   1.867   3.971   3.754  0.0435  0.0685 -0.4129
  580MOL0     C78196   1.843   4.052   3.650  0.4277  0.7148 -0.4552
  580MOL0     C78197   1.920   4.163   3.636 -0.1305  0.0818  0.0438
  580MOL0     C78198   1.929   4.244   3.520  0.8904  0.1234  0.8715
  580MOL0     C78199   1.834   4.215   3.415  0.1897 -0.0503 -0.5498
  580MOL0     O78200   1.822   4.286   3.297  0.2116  0.5045  0.2672
  580MOL0     C78201   1.912   4.393   3.255  0.5324  0.0123 -0.5435
  580MOL0     C78202   1.879   4.403   3.101  0.3494  0.0295 -0.5231
  580MOL0     C78203   1.986   4.469   3.011  1.1919 -0.2925 -0.3828
  580MOL0     C78204   2.107   4.371   2.996  0.0586  0.0002 -0.0826
  580MOL0     C78205   2.211   4.407   2.888 -0.1950  0.5251  0.6904
  580MOL0     C78206   2.269   4.550   2.909  0.7567 -1.3732 -0.0075
  580MOL0     C78207   2.403   4.528   2.986  0.6855  0.0187  0.5005
  580MOL0     C78208   2.494   4.657   2.984  0.8438  0.3049 -0.0222
  580MOL0    Cl78209   2.426   4.787   3.091  0.2812 -0.1963 -0.0933
  580MOL0     C78210   1.737   4.116   3.438 -0.1015  0.6910  0.4617
  580MOL0     C78211   1.748   4.033   3.551 -0.3808 -0.1778  0.1915
  580MOL0     O78212   1.847   3.775   3.631 -0.3617 -0.2314  0.5056
  580MOL0     C78213   1.940   3.622   3.845  0.5717  0.7019 -0.0262
  580MOL0     C78214   1.991   3.550   3.952  0.1404 -0.5467 -0.1481
  580MOL0     N78215   2.683   3.835   4.101  0.6131 -0.7560  0.4494
  580MOL0     N78216   2.812   3.865   4.138  0.0965  0.0127 -0.1465
  580MOL0     C78217   3.782   4.404   4.988 -0.1338 -0.7135  1.1561
  580MOL0     C78218   3.851   4.504   5.062 -0.2756 -0.1211 -0.5347
  580MOL0     C78219   3.885   4.963   5.207 -0.1627 -0.9523  0.0100
  580MOL0     C78220   3.918   5.094   5.164  0.0948  0.0185 -0.2750
  580MOL0     C78221   3.920   5.204   5.258  0.9206  0.2095 -0.2167
  580MOL0     C78222   3.881   5.179   5.388  0.2983 -0.7092  0.1995
  580MOL0     O78223   3.876   5.295   5.473 -1.0867  0.3641 -0.4694
  580MOL0     C78224   3.980   5.296   5.565  0.1348 -0.0693 -0.6120
  580MOL0     C78225   4.011   5.452   5.584 -1.2882  0.0596  0.3415
  580MOL0     C78226   4.139   5.459   5.666 -0.4247  1.7710  0.3275
  580MOL0     C78227   4.103   5.434   5.811  0.1658  0.1648 -0.0990
  580MOL0     C78228   4.133   5.297   5.849 -0.3001 -0.5549 -0.0169
  580MOL0     C78229   4.140   5.187   5.898 -0.0813  0.8046 -1.3070
  580MOL0     C78230   3.846   5.055   5.424 -0.8097  0.1475  0.1036
  580MOL0     C78231   3.847   4.944   5.341 -0.6730 -0.1546  0.1112
  580MOL0     C78232   3.802   4.813   5.387  1.0103  0.6327  0.1820
  580MOL0     H78233   3.676   4.784   4.995 -0.4452  0.6643  0.1634
  580MOL0     H78234   3.538   4.619   4.863 -1.8371 -1.0202  2.0427
  580MOL0     H78235   3.422   4.448   4.836 -0.1418 -0.6206  0.9099
  580MOL0     H78236   3.475   4.399   4.676 -2.5103 -0.7174 -0.2601
  580MOL0     H78237   3.391   4.220   4.899  0.7404  0.4290 -0.1666
  580MOL0     H78238   3.455   4.150   4.745 -1.2307 -2.0531  0.8000
  580MOL0     H78239   3.287   4.238   4.606  0.1625  3.0439 -0.1249
  580MOL0     H78240   3.226   4.343   4.730  1.2104  0.0067 -1.8172
  580MOL0     H78241   3.232   4.038   4.763 -0.7224  0.0873 -0.1998
  580MOL0     H78242   3.144   4.148   4.855 -2.0735 -1.6472 -0.1889
  580MOL0     H78243   2.959   4.077   4.728  1.0170 -5.1674 -0.8119
  580MOL0     H78244   3.031   4.214   4.632  3.7373  0.6721 -0.8172
  580MOL0     H78245   3.153   4.061   4.494  0.6212 -1.1887  1.2275
  580MOL0     H78246   3.090   3.916   4.585 -1.2525  0.5017  2.9326
  580MOL0     H78247   2.941   4.101   4.402  0.1555  0.8990  0.8890
  580MOL0     H78248   2.856   3.984   4.524  0.0393 -3.0887 -1.4240
  580MOL0     H78249   3.039   3.920   4.284  0.2930 -0.5463  0.2776
  580MOL0     H78250   2.977   3.799   4.400  3.3213  0.3622 -0.3303
  580MOL0     H78251   2.686   3.852   4.443  1.5341  1.0325  0.5862
  580MOL0     H78252   2.444   3.821   4.347  2.8880  0.5338  0.5475
  580MOL0     H78253   2.399   3.814   4.183 -0.0142 -1.4390 -0.9799
  580MOL0     H78254   2.505   3.582   4.166  1.7076 -0.7098  0.9384
  580MOL0     H78255   2.526   3.582   4.349 -0.0930  0.5005  2.3081
  580MOL0     H78256   2.272   3.649   4.331 -1.6582  2.3147 -2.9521
  580MOL0     H78257   2.329   3.481   4.310  0.5706  0.8603  0.6671
  580MOL0     H78258   2.291   3.490   4.083  2.1194  0.2042  2.4287
  580MOL0     H78259   2.279   3.670   4.076  2.6398  0.0483  0.4335
  580MOL0     H78260   2.060   3.813   4.161 -2.3765 -2.4271  2.2938
  580MOL0     H78261   1.954   3.939   3.976 -0.9080 -0.9475  0.6213
  580MOL0     H78262   1.986   4.200   3.713 -0.1791  1.9365 -0.7519
  580MOL0     H78263   1.991   4.331   3.501  1.7491 -0.4972  0.7693
  580MOL0     H78264   1.902   4.488   3.308 -0.7614 -0.6300  0.4220
  580MOL0     H78265   2.017   4.365   3.265  0.2383 -0.7135  0.7939
  580MOL0     H78266   1.854   4.302   3.068  2.0539 -0.8630  0.7175
  580MOL0     H78267   1.789   4.465   3.104  0.6914  0.5199 -0.2845
  580MOL0     H78268   1.935   4.477   2.914  1.8715 -1.4147 -0.8540
  580MOL0     H78269   2.010   4.566   3.056  1.0478  0.7849 -2.5111
  580MOL0     H78270   2.067   4.270   2.983 -2.4623  0.5789  2.2044
  580MOL0     H78271   2.154   4.375   3.095  0.3387 -2.6927 -0.0268
  580MOL0     H78272   2.163   4.405   2.790  2.5414 -1.8192 -0.7684
  580MOL0     H78273   2.300   4.344   2.885 -0.9088 -0.4803 -0.2729
  580MOL0     H78274   2.302   4.598   2.816 -0.0064  0.6983  0.7360
  580MOL0     H78275   2.196   4.623   2.945 -1.1450 -2.1959 -1.9315
  580MOL0     H78276   2.459   4.449   2.934  0.4664  1.1165 -1.5182
  580MOL0     H78277   2.384   4.510   3.092 -0.2075  0.2763  0.3847
  580MOL0     H78278   2.596   4.632   3.016  0.6109  0.4155  0.8094
  580MOL0     H78279   2.501   4.691   2.880  0.1820 -1.5418 -0.7187
  580MOL0     H78280   1.665   4.103   3.358  1.1885  1.0752 -0.8051
  580MOL0     H78281   1.684   3.946   3.553 -2.6166  1.2525 -2.6682
  580MOL0     H78282   1.907   3.561   3.761  0.9014 -1.3127  1.2506
  580MOL0     H78283   2.012   3.444   3.950 -1.1395 -0.9402 -4.4775
  580MOL0     H78284   3.820   4.305   4.963  3.3083  0.3439  1.7214
  580MOL0     H78285   3.944   4.481   5.112  1.1984  1.3634 -2.4638
  580MOL0     H78286   3.932   5.107   5.057 -0.7889 -0.1990 -0.4226
  580MOL0     H78287   3.925   5.310   5.237 -2.6830  0.8532  1.4039
  580MOL0     H78288   4.064   5.232   5.536 -0.5332 -2.6169  2.5172
  580MOL0     H78289   3.940   5.252   5.657  0.0467 -1.3745 -1.2605
  580MOL0     H78290   3.928   5.499   5.637 -0.2757  0.6787  1.4298
  580MOL0     H78291   4.024   5.496   5.485  1.7514 -0.7053  0.3141
  580MOL0     H78292   4.182   5.559   5.655  1.8320  0.7395 -0.9671
  580MOL0     H78293   4.206   5.382   5.629 -1.4425  1.7592 -1.6239
  580MOL0     H78294   4.162   5.497   5.877 -4.0745  2.0570  2.2486
  580MOL0     H78295   3.998   5.452   5.835  0.6466  0.4744  1.9597
  580MOL0     H78296   4.131   5.087   5.936 -0.5758  0.8943 -1.1819
  580MOL0     H78297   3.817   5.047   5.528 -0.2084  2.7617  0.5303
  580MOL0     H78298   3.712   4.774   5.337  1.3612 -1.0997  0.8443
  580MOL0     H78299   3.880   4.737   5.386  0.9530  0.4798  2.5414
  580MOL0     H78300   3.768   4.825   5.490 -1.7681 -1.2863 -0.3889
  581MOL0     O78301   2.948   7.637  11.145  0.0631 -0.7462 -0.6745
  581MOL0     C78302   2.859   7.586  11.069 -0.0744  0.8276  0.9170
  581MOL0     O78303   2.809   7.647  10.952 -0.1077  0.2391  0.3368
  581MOL0     C78304   2.880   7.753  10.907 -0.1581  0.6078  0.0746
  581MOL0     C78305   2.951   7.758  10.786  0.4187  0.5658 -0.4382
  581MOL0     C78306   3.035   7.857  10.751  1.1896 -0.2017 -0.3777
  581MOL0     C78307   3.045   7.961  10.832  0.1375  0.1928  0.2580
  581MOL0     O78308   3.126   8.068  10.803  0.2455 -0.1042 -0.4858
  581MOL0     C78309   3.243   8.062  10.717 -0.2117 -0.4577 -0.5891
  581MOL0     C78310   3.303   8.202  10.740  0.0248 -0.1427  0.1064
  581MOL0     C78311   3.202   8.307  10.670 -0.3854  0.6438  0.0205
  581MOL0     C78312   3.288   8.434  10.637  0.2304 -1.1126 -0.2475
  581MOL0     C78313   3.215   8.555  10.578  0.6946 -0.6671  0.2249
  581MOL0     C78314   3.063   8.571  10.618  0.0951 -0.2413  0.0560
  581MOL0     C78315   2.987   8.675  10.537  0.1039 -0.9846  0.4683
  581MOL0     C78316   2.847   8.704  10.598  0.1750 -0.0825 -0.3026
  581MOL0     N78317   2.776   8.803  10.511  0.6530  0.4496  0.8830
  581MOL0     C78318   2.706   8.773  10.400  0.7559  0.7701 -0.2388
  581MOL0     C78319   2.676   8.890  10.344 -0.2951 -0.4624  0.1364
  581MOL0     C78320   2.591   8.938  10.224 -0.2848  0.2307  0.3159
  581MOL0     C78321   2.635   8.870  10.089  0.2133 -1.0779  0.3180
  581MOL0     C78322   2.783   8.872  10.079  0.1272  0.0478 -0.0638
  581MOL0     C78323   2.818   8.870   9.931  1.0910 -1.0567 -0.4921
  581MOL0     O78324   2.760   8.752   9.872 -1.1589 -0.0373 -0.4520
  581MOL0     C78325   2.709   8.766   9.744 -0.7335 -0.2839 -0.1658
  581MOL0     C78326   2.628   8.656   9.703 -0.6541 -0.2303  0.6810
  581MOL0     C78327   2.560   8.662   9.573  0.0573  0.2838 -0.8420
  581MOL0     C78328   2.597   8.755   9.480  0.4438  0.6107 -1.1626
  581MOL0     C78329   2.548   8.739   9.343  0.5956 -0.3321  0.6971
  581MOL0     O78330   2.488   8.841   9.280  0.9722 -0.1523  1.1436
  581MOL0     C78331   2.425   8.820   9.155 -0.5289 -0.0421 -0.3280
  581MOL0     C78332   2.421   8.929   9.068  0.0958 -0.0954 -0.4866
  581MOL0     C78333   2.367   8.910   8.941  0.7200 -0.2561  0.0906
  581MOL0     C78334   2.331   8.780   8.884 -1.0287 -1.3221 -0.2373
  581MOL0     O78335   2.305   8.753   8.753 -0.0302  0.6831  0.3016
  581MOL0     C78336   2.280   8.863   8.664 -0.3801 -0.3854  0.4927
  581MOL0     C78337   2.256   8.817   8.517  0.0929  0.3413  0.1428
  581MOL0     C78338   2.122   8.736   8.512 -0.1826  0.9292 -0.7467
  581MOL0     C78339   2.082   8.690   8.375 -0.2269 -0.1492  0.5040
  581MOL0     C78340   1.960   8.598   8.370 -0.6625 -0.0326 -0.0423
  581MOL0     C78341   1.831   8.683   8.381  0.5524 -0.0355  0.0833
  581MOL0     C78342   1.816   8.783   8.266 -0.7481 -0.4577  0.5494
  581MOL0     C78343   1.682   8.851   8.271  0.6068 -0.0641 -0.1357
  581MOL0    Cl78344   1.538   8.734   8.227 -0.6958  0.2379  0.0463
  581MOL0     C78345   2.326   8.678   8.978 -0.3380 -0.2285  0.0718
  581MOL0     C78346   2.353   8.708   9.114  0.1540  0.7361 -1.3290
  581MOL0     O78347   2.568   8.631   9.290  0.3613  0.3584 -0.5354
  581MOL0     C78348   2.677   8.861   9.516 -1.0367  0.7799 -0.5449
  581MOL0     C78349   2.726   8.872   9.650 -0.0763 -0.0747  0.4634
  581MOL0     N78350   2.733   8.988  10.428 -0.1541  0.7940  0.1016
  581MOL0     N78351   2.792   8.933  10.527 -0.2955  0.5245  0.3671
  581MOL0     C78352   2.975   7.972  10.945 -0.7926 -0.2653 -0.1059
  581MOL0     C78353   2.882   7.869  10.977  0.3079 -0.6750 -0.2515
  581MOL0     C78354   2.789   7.454  11.117  0.8396  0.0815  0.6330
  581MOL0     C78355   2.681   7.405  11.038  0.4573 -0.4923 -0.0063
  581MOL0     C78356   2.596   7.313  11.094 -0.3322  0.9115 -0.3595
  581MOL0     C78357   2.620   7.242  11.215  0.5156  0.0059 -0.1339
  581MOL0     O78358   2.523   7.160  11.264  0.5329  0.5135 -0.1569
  581MOL0     C78359   2.511   7.134  11.398  0.4824  1.1171 -0.6553
  581MOL0     C78360   2.373   7.064  11.420 -0.0455  0.5553 -0.5450
  581MOL0     C78361   2.367   6.959  11.534  0.0171  0.5811  0.3229
  581MOL0     C78362   2.237   6.884  11.550 -0.4576  0.4765  0.0888
  581MOL0     C78363   2.122   6.965  11.603 -0.3171 -1.6439  0.6186
  581MOL0     C78364   2.036   7.042  11.647  0.8828  0.4210 -0.8899
  581MOL0     C78365   2.737   7.280  11.284 -0.2614 -0.2331  0.2758
  581MOL0     C78366   2.820   7.386  11.242  0.2908  0.5159  0.2728
  581MOL0     C78367   2.936   7.425  11.336 -0.1651 -0.3388  0.0601
  581MOL0     H78368   2.957   7.671  10.722 -1.6672 -1.2002  1.6117
  581MOL0     H78369   3.082   7.848  10.654 -0.7639  4.7793 -2.1146
  581MOL0     H78370   3.318   7.984  10.731 -0.8071 -0.7087  1.4787
  581MOL0     H78371   3.205   8.061  10.614  0.1144  0.1147 -0.7232
  581MOL0     H78372   3.401   8.200  10.692  1.5060  0.8681  2.8784
  581MOL0     H78373   3.324   8.220  10.845  0.7420 -1.7907  0.2755
  581MOL0     H78374   3.112   8.326  10.729 -1.8745 -2.7860 -0.8632
  581MOL0     H78375   3.163   8.265  10.576  1.4089  1.1734 -0.9963
  581MOL0     H78376   3.339   8.456  10.732 -1.4964 -1.6258  0.8564
  581MOL0     H78377   3.364   8.419  10.561 -0.7605  0.2774 -1.5655
  581MOL0     H78378   3.274   8.644  10.604 -0.2175  0.0825 -0.2113
  581MOL0     H78379   3.209   8.530  10.472 -2.3110 -0.7096  0.3187
  581MOL0     H78380   3.014   8.476  10.594  0.5978 -1.6289  3.8385
  581MOL0     H78381   3.041   8.588  10.724 -1.5030  0.4606 -0.3578
  581MOL0     H78382   2.975   8.642  10.433  1.2342 -2.3448  0.7455
  581MOL0     H78383   3.034   8.774  10.534  0.6447 -1.2445 -2.3053
  581MOL0     H78384   2.788   8.613  10.595  1.1568 -0.7541  0.4237
  581MOL0     H78385   2.849   8.738  10.702  0.1794 -3.8655  1.0844
  581MOL0     H78386   2.687   8.670  10.371 -4.1731  0.0216  4.1013
  581MOL0     H78387   2.488   8.934  10.259  0.3993 -0.2129  2.4140
  581MOL0     H78388   2.599   9.046  10.204 -1.6506  0.3558  0.3421
  581MOL0     H78389   2.604   8.765  10.093  1.3437 -1.4050  0.7605
  581MOL0     H78390   2.585   8.915  10.003  0.6188 -2.8464 -0.8970
  581MOL0     H78391   2.819   8.782  10.129 -0.1041  1.3394  2.6197
  581MOL0     H78392   2.832   8.957  10.128 -0.2688  1.5808 -2.1653
  581MOL0     H78393   2.926   8.863   9.919  0.8358 -0.7726 -4.1356
  581MOL0     H78394   2.793   8.961   9.876  3.7882 -0.0593 -0.1853
  581MOL0     H78395   2.623   8.572   9.772 -0.9164 -0.5728  0.2460
  581MOL0     H78396   2.498   8.580   9.537  0.2154 -0.7679  1.1664
  581MOL0     H78397   2.466   9.023   9.100 -1.2201  0.0185  1.1680
  581MOL0     H78398   2.363   8.995   8.874 -0.2910  1.0126  1.6742
  581MOL0     H78399   2.189   8.905   8.708  0.3765  0.9694  0.8389
  581MOL0     H78400   2.353   8.944   8.658 -3.2259  2.2571 -3.5361
  581MOL0     H78401   2.261   8.903   8.450 -3.0063 -0.2975 -1.0787
  581MOL0     H78402   2.343   8.753   8.497  0.5162  0.9305  0.0824
  581MOL0     H78403   2.126   8.655   8.585 -5.1018  0.3340 -0.7726
  581MOL0     H78404   2.053   8.819   8.534  0.4517  1.4518 -0.7029
  581MOL0     H78405   2.161   8.626   8.334  0.5413 -1.4824  3.7567
  581MOL0     H78406   2.070   8.782   8.317 -2.2258 -1.3114 -1.0492
  581MOL0     H78407   1.958   8.521   8.449  1.8967  0.1459  0.2511
  581MOL0     H78408   1.961   8.548   8.273  0.6002 -0.6472  0.2699
  581MOL0     H78409   1.745   8.614   8.378  0.2640  0.2600  1.1726
  581MOL0     H78410   1.824   8.725   8.481  0.2117  3.8447 -1.3985
  581MOL0     H78411   1.815   8.724   8.174  2.0850 -1.4191  1.0282
  581MOL0     H78412   1.889   8.863   8.255 -3.1484  1.8630  0.4997
  581MOL0     H78413   1.656   8.902   8.364 -2.6861  2.6861 -2.2665
  581MOL0     H78414   1.683   8.933   8.198  0.4242  1.1149  1.1487
  581MOL0     H78415   2.281   8.581   8.961 -0.9248  0.2304 -1.1462
  581MOL0     H78416   2.327   8.632   9.187  3.2694 -1.2808 -2.1225
  581MOL0     H78417   2.685   8.934   9.436 -0.8259  0.5060 -0.7767
  581MOL0     H78418   2.768   8.969   9.675  2.1354 -0.4126 -1.5888
  581MOL0     H78419   2.998   8.062  11.002 -0.7439 -0.8718  0.8542
  581MOL0     H78420   2.824   7.879  11.068  1.2067  2.6263  0.1088
  581MOL0     H78421   2.639   7.448  10.949 -4.1790 -0.9014  1.7095
  581MOL0     H78422   2.503   7.303  11.040 -0.2550  0.9568 -0.5023
  581MOL0     H78423   2.528   7.212  11.473  4.5862  1.7956 -2.0145
  581MOL0     H78424   2.590   7.061  11.417 -0.6344  0.2011  0.7358
  581MOL0     H78425   2.341   7.006  11.333  0.7629 -1.3791  0.3787
  581MOL0     H78426   2.309   7.152  11.433  3.4430  3.1174  0.8727
  581MOL0     H78427   2.393   7.006  11.629 -0.7948  1.2899  0.2046
  581MOL0     H78428   2.441   6.879  11.522  0.9677  0.9633  3.0096
  581MOL0     H78429   2.209   6.847  11.451 -3.0143 -3.3359  1.9609
  581MOL0     H78430   2.246   6.788  11.602 -3.8055 -0.5343 -0.9513
  581MOL0     H78431   1.976   7.113  11.701 -1.6199 -1.3344 -1.1727
  581MOL0     H78432   2.759   7.234  11.380  2.2647  2.2999  1.0393
  581MOL0     H78433   2.946   7.367  11.428 -0.8641  0.4548  0.6590
  581MOL0     H78434   3.032   7.418  11.285  0.2277 -1.7536  0.9460
  581MOL0     H78435   2.925   7.527  11.374  0.3089  2.0145 -5.1812
  582MOL0     O78436   1.978   2.497   0.291 -0.4658 -0.9354  0.2052
  582MOL0     C78437   1.859   2.497   0.316 -0.1245  0.0470 -0.1895
  582MOL0     O78438   1.772   2.410   0.258  0.3999  0.1572  0.2270
  582MOL0     C78439   1.817   2.316   0.170 -0.5961  1.0965  0.1521
  582MOL0     C78440   1.825   2.334   0.032  0.1255 -0.2612  0.4182
  582MOL0     C78441   1.886   2.249  -0.053  0.5628  1.3540 -0.8085
  582MOL0     C78442   1.930   2.120  -0.008  0.0529  0.5578  0.0275
  582MOL0     O78443   1.987   2.025  -0.086 -0.1775 -0.4710 -0.8174
  582MOL0     C78444   1.943   2.007  -0.214  0.6315  0.0670  0.0363
  582MOL0     C78445   1.920   1.863  -0.231 -0.1420 -0.4088 -0.0670
  582MOL0     C78446   1.889   1.834  -0.380 -0.3051  0.2906 -0.3113
  582MOL0     C78447   1.861   1.682  -0.392  0.1064 -0.4990  1.2143
  582MOL0     C78448   1.847   1.641  -0.531 -0.0775  0.0341 -0.4850
  582MOL0     C78449   1.736   1.707  -0.598 -0.0130  0.0174  0.0818
  582MOL0     C78450   1.596   1.679  -0.533 -0.2213 -0.6248 -0.3425
  582MOL0     C78451   1.543   1.540  -0.521  0.0810  0.1328  0.8469
  582MOL0     N78452   1.520   1.478  -0.652 -0.1906 -0.4974  0.5280
  582MOL0     C78453   1.401   1.483  -0.722  0.7646 -1.1105 -0.5822
  582MOL0     C78454   1.422   1.413  -0.836  0.3044  0.5879 -0.4213
  582MOL0     C78455   1.327   1.393  -0.949  0.3264 -0.6644  0.0701
  582MOL0     C78456   1.387   1.420  -1.096 -0.6583 -0.3989  1.3199
  582MOL0     C78457   1.503   1.327  -1.145  0.1245 -0.2377 -0.1031
  582MOL0     C78458   1.532   1.351  -1.299 -0.6001  0.0856 -0.6133
  582MOL0     O78459   1.590   1.481  -1.323  0.2019  0.5160  0.1175
  582MOL0     C78460   1.615   1.528  -1.449 -0.1323 -0.3071  0.5663
  582MOL0     C78461   1.616   1.451  -1.566  0.7060  0.2071  0.0729
  582MOL0     C78462   1.666   1.501  -1.684 -0.5944 -0.0644  0.7731
  582MOL0     C78463   1.711   1.637  -1.692 -0.6849  1.6812  0.1677
  582MOL0     C78464   1.757   1.697  -1.815 -0.1564  1.0051 -0.8331
  582MOL0     O78465   1.822   1.808  -1.795 -0.3302 -0.7477  0.7617
  582MOL0     C78466   1.887   1.882  -1.894  0.4518  0.5991 -0.3647
  582MOL0     C78467   1.827   1.908  -2.017 -0.9871  0.7787  0.3284
  582MOL0     C78468   1.899   1.990  -2.120  0.8303  0.4738 -0.0629
  582MOL0     C78469   2.027   2.036  -2.093 -0.5655 -0.5904 -0.4324
  582MOL0     O78470   2.083   2.108  -2.201  0.1622 -0.0527  0.0729
  582MOL0     C78471   2.187   2.197  -2.179 -0.1129  0.2563  0.1574
  582MOL0     C78472   2.150   2.349  -2.191  0.1338  0.2682  0.1395
  582MOL0     C78473   2.262   2.441  -2.167  0.4404  0.5068  0.4660
  582MOL0     C78474   2.218   2.581  -2.215  0.7197  0.2346 -0.2357
  582MOL0     C78475   2.341   2.662  -2.253 -0.1323 -0.4044  0.4113
  582MOL0     C78476   2.289   2.811  -2.268  0.5096  0.3694 -0.0432
  582MOL0     C78477   2.389   2.900  -2.325  0.3258 -0.0716  0.5157
  582MOL0     C78478   2.327   3.035  -2.381 -0.8380 -0.1875  0.5258
  582MOL0    Cl78479   2.462   3.129  -2.468  0.1328  0.0566 -0.0491
  582MOL0     C78480   2.084   2.002  -1.972 -0.4233 -0.1209  0.8082
  582MOL0     C78481   2.012   1.942  -1.869 -0.2766 -0.3199 -0.2764
  582MOL0     O78482   1.733   1.638  -1.924  0.1148  0.4391 -0.9461
  582MOL0     C78483   1.720   1.709  -1.569 -0.0240  0.4806  0.4352
  582MOL0     C78484   1.666   1.657  -1.453  0.0840  0.0940 -0.5423
  582MOL0     N78485   1.540   1.331  -0.820  0.8652 -0.0728  0.0786
  582MOL0     N78486   1.594   1.378  -0.714 -0.1865 -0.0841  0.9771
  582MOL0     C78487   1.923   2.093   0.133  0.5352  0.1553  0.4182
  582MOL0     C78488   1.865   2.192   0.219  0.1072 -0.4768 -0.1226
  582MOL0     C78489   1.792   2.583   0.426  0.3314  0.0219 -0.6070
  582MOL0     C78490   1.676   2.539   0.481  0.3665  0.0686 -0.2966
  582MOL0     C78491   1.606   2.604   0.580  0.5583 -0.3173 -0.3534
  582MOL0     C78492   1.655   2.724   0.628 -0.3893  0.2765 -0.3962
  582MOL0     O78493   1.583   2.797   0.712  0.8099  0.2182 -0.3390
  582MOL0     C78494   1.535   2.745   0.846 -0.5761  1.0120  0.3486
  582MOL0     C78495   1.539   2.836   0.972 -0.1854 -0.2242  0.4054
  582MOL0     C78496   1.683   2.886   1.006 -0.7897  0.5846 -1.1458
  582MOL0     C78497   1.765   2.946   0.892  0.3216  0.5533 -0.1645
  582MOL0     C78498   1.886   3.018   0.935  1.1190  0.9633  0.3677
  582MOL0     C78499   1.987   3.055   0.974 -0.7481 -0.0721  0.0864
  582MOL0     C78500   1.777   2.774   0.567 -0.2258  0.2819  0.4078
  582MOL0     C78501   1.846   2.708   0.465  0.3002  0.5422 -0.6690
  582MOL0     C78502   1.971   2.778   0.407  0.5021 -0.2789  0.2626
  582MOL0     H78503   1.792   2.430  -0.007  0.7228 -0.5227 -0.8035
  582MOL0     H78504   1.886   2.280  -0.156  2.1601  1.9524 -0.6628
  582MOL0     H78505   1.845   2.053  -0.230 -0.8851 -1.4064  3.9532
  582MOL0     H78506   2.016   2.044  -0.286  2.5666 -0.6831  1.5160
  582MOL0     H78507   1.839   1.824  -0.169 -0.5335  0.1163 -0.2382
  582MOL0     H78508   2.017   1.817  -0.207 -0.1567 -0.7624 -0.6754
  582MOL0     H78509   1.975   1.864  -0.440  1.5476  0.3430  2.2333
  582MOL0     H78510   1.798   1.887  -0.411 -2.0049 -0.6605  2.6735
  582MOL0     H78511   1.949   1.626  -0.358 -1.5943 -1.9969  3.4632
  582MOL0     H78512   1.775   1.643  -0.338  0.9586 -0.8479  2.3721
  582MOL0     H78513   1.940   1.666  -0.583  0.5998  0.4332  0.8445
  582MOL0     H78514   1.832   1.534  -0.547 -2.9042  0.4148 -0.9131
  582MOL0     H78515   1.738   1.816  -0.606 -2.6902  0.0239 -1.5440
  582MOL0     H78516   1.736   1.664  -0.698  1.6313 -1.6432  0.7295
  582MOL0     H78517   1.521   1.729  -0.594 -1.0446 -1.6451 -0.1922
  582MOL0     H78518   1.589   1.735  -0.439 -0.3100  1.2603 -1.4303
  582MOL0     H78519   1.598   1.464  -0.465 -1.9341  0.0712  2.8792
  582MOL0     H78520   1.450   1.560  -0.467  0.6884 -0.7609  2.2737
  582MOL0     H78521   1.307   1.536  -0.712  0.3623 -1.1697 -3.2869
  582MOL0     H78522   1.279   1.294  -0.947  0.7495 -0.8593  1.0895
  582MOL0     H78523   1.243   1.462  -0.934  1.4583  1.2763 -1.8310
  582MOL0     H78524   1.312   1.433  -1.174  0.2492 -0.2434  0.4506
  582MOL0     H78525   1.412   1.526  -1.100 -6.5161  1.3175  0.8021
  582MOL0     H78526   1.494   1.221  -1.120  2.3988 -0.8869 -1.6700
  582MOL0     H78527   1.593   1.357  -1.090  0.1416  0.8073 -0.6628
  582MOL0     H78528   1.432   1.356  -1.344  0.2370 -1.0199 -2.7284
  582MOL0     H78529   1.600   1.271  -1.329  0.4233  0.7118 -0.0268
  582MOL0     H78530   1.580   1.349  -1.574  1.1126  0.1731 -1.7381
  582MOL0     H78531   1.664   1.440  -1.774 -2.1458 -2.5995  2.4169
  582MOL0     H78532   1.728   1.871  -2.040 -1.3618  0.7444  1.9015
  582MOL0     H78533   1.851   2.010  -2.215 -1.1315  3.1068  1.3582
  582MOL0     H78534   2.241   2.169  -2.088  0.9679  1.1769 -0.1681
  582MOL0     H78535   2.269   2.171  -2.247  0.9326  2.5801  0.3954
  582MOL0     H78536   2.107   2.360  -2.291 -2.9569  1.0439  1.4366
  582MOL0     H78537   2.073   2.386  -2.123 -0.3432  1.7574 -1.1326
  582MOL0     H78538   2.285   2.438  -2.060 -1.0187 -1.2940  0.7745
  582MOL0     H78539   2.353   2.420  -2.224 -0.8275 -0.1331 -1.4266
  582MOL0     H78540   2.159   2.635  -2.141  1.7211  4.4464 -2.2232
  582MOL0     H78541   2.155   2.586  -2.304  0.9042  1.1744 -0.3161
  582MOL0     H78542   2.379   2.617  -2.345 -0.1495  2.0661 -0.8800
  582MOL0     H78543   2.423   2.648  -2.181 -0.7883 -1.2402  1.0157
  582MOL0     H78544   2.199   2.818  -2.329  0.4728 -0.5541 -0.0937
  582MOL0     H78545   2.263   2.839  -2.165 -0.6651  0.1495 -0.2684
  582MOL0     H78546   2.438   2.849  -2.408  3.4916 -0.8633  2.7004
  582MOL0     H78547   2.474   2.926  -2.261  1.9393 -0.2858 -1.4316
  582MOL0     H78548   2.247   3.012  -2.453  2.0140  0.0461 -2.9713
  582MOL0     H78549   2.288   3.094  -2.298  0.4609 -0.5989  1.4497
  582MOL0     H78550   2.179   2.040  -1.938 -0.3741 -2.8217  4.2367
  582MOL0     H78551   2.064   1.939  -1.774  0.0317 -3.7911 -0.4116
  582MOL0     H78552   1.768   1.806  -1.563  1.4656 -0.3258  3.3083
  582MOL0     H78553   1.676   1.705  -1.356  0.7135  0.7769 -0.9385
  582MOL0     H78554   1.969   2.003   0.171 -0.1310 -0.5881 -0.4766
  582MOL0     H78555   1.854   2.190   0.327  0.7040  3.4083  0.1574
  582MOL0     H78556   1.624   2.452   0.443 -0.2202  1.3562 -2.6051
  582MOL0     H78557   1.507   2.573   0.612 -0.0174  2.1488  0.4918
  582MOL0     H78558   1.578   2.647   0.865  1.4794  1.6943 -0.5089
  582MOL0     H78559   1.429   2.719   0.838  0.3231 -2.8763 -0.8198
  582MOL0     H78560   1.494   2.783   1.057 -0.3226  0.7681  0.9574
  582MOL0     H78561   1.468   2.917   0.958 -0.2917 -0.2741  0.6576
  582MOL0     H78562   1.734   2.795   1.039 -2.5609  0.6813  2.3094
  582MOL0     H78563   1.672   2.952   1.092 -1.6223 -0.5152 -0.3676
  582MOL0     H78564   1.802   2.865   0.829  2.1279  1.6260 -0.5722
  582MOL0     H78565   1.706   3.017   0.833 -0.7853  0.0875  0.3593
  582MOL0     H78566   2.089   3.076   0.997 -0.1876 -2.9292  0.5236
  582MOL0     H78567   1.814   2.869   0.604 -0.0160  1.4110 -2.4429
  582MOL0     H78568   1.974   2.887   0.415  1.1751 -0.1614 -1.1893
  582MOL0     H78569   2.064   2.727   0.434  1.2973  1.6596  1.4113
  582MOL0     H78570   1.954   2.765   0.299 -1.5876  0.7966  0.3993
  583MOL0     O78571   1.891   0.558   4.211 -1.0648 -0.4325 -0.2821
  583MOL0     C78572   1.974   0.564   4.307 -0.7766 -0.0364  0.3724
  583MOL0     O78573   1.999   0.680   4.376 -0.4459 -0.6449  0.3542
  583MOL0     C78574   1.962   0.804   4.330 -1.0031  0.3051 -0.3863
  583MOL0     C78575   1.850   0.867   4.386 -0.0498  0.2378 -0.1888
  583MOL0     C78576   1.829   1.000   4.355 -0.0011  0.8601 -0.2579
  583MOL0     C78577   1.900   1.061   4.247 -0.8671 -0.5794 -0.3731
  583MOL0     O78578   1.849   1.185   4.203  0.2456  0.8990 -0.0634
  583MOL0     C78579   1.841   1.207   4.064  0.2907 -0.3857  0.2977
  583MOL0     C78580   1.800   1.349   4.024 -0.0197  0.2947 -0.4191
  583MOL0     C78581   1.833   1.459   4.131 -0.8099  0.3130  0.5837
  583MOL0     C78582   1.786   1.598   4.077 -1.3076  0.2011  0.2426
  583MOL0     C78583   1.850   1.726   4.144  0.8302 -0.3224 -0.4200
  583MOL0     C78584   1.822   1.861   4.070 -0.0395 -0.1025  0.6713
  583MOL0     C78585   1.682   1.850   4.007  0.3091 -0.8426 -0.3449
  583MOL0     C78586   1.614   1.993   3.969  0.1383 -0.4252 -0.5584
  583MOL0     N78587   1.671   2.101   4.050  0.2672 -0.7437 -0.3270
  583MOL0     C78588   1.791   2.158   4.018  0.3209  0.4171 -0.3242
  583MOL0     C78589   1.798   2.290   4.064  0.1462 -0.4784 -0.6322
  583MOL0     C78590   1.905   2.401   4.068  0.7163 -0.0223  0.1709
  583MOL0     C78591   1.925   2.459   3.923 -1.2383  1.4124 -0.1665
  583MOL0     C78592   2.036   2.371   3.844 -0.2013  0.3709  0.4031
  583MOL0     C78593   2.115   2.457   3.743  1.3087  0.5680  1.6083
  583MOL0     O78594   2.062   2.470   3.609 -0.3327 -0.4063 -0.0141
  583MOL0     C78595   1.950   2.547   3.617 -0.1949 -0.5253 -0.8600
  583MOL0     C78596   1.937   2.662   3.690 -0.7650 -0.5480 -0.4195
  583MOL0     C78597   1.811   2.712   3.740  0.8345  0.9338  0.1995
  583MOL0     C78598   1.684   2.665   3.683 -0.2999  0.9369  0.4943
  583MOL0     C78599   1.552   2.713   3.731 -0.8518  0.4576  0.0548
  583MOL0     O78600   1.552   2.796   3.832 -0.0144 -0.0497  0.3931
  583MOL0     C78601   1.435   2.860   3.881 -0.4158 -0.3798 -0.3327
  583MOL0     C78602   1.324   2.899   3.806 -0.6910  0.0065  0.3143
  583MOL0     C78603   1.226   2.966   3.880 -0.3299  0.6207 -0.1648
  583MOL0     C78604   1.224   2.987   4.021  0.2255  0.8373  0.4714
  583MOL0     O78605   1.128   3.049   4.091  0.1482  0.3634 -0.0580
  583MOL0     C78606   1.159   3.129   4.212 -0.7278 -0.4595  0.8161
  583MOL0     C78607   1.063   3.251   4.211  0.3360  0.7846 -0.3674
  583MOL0     C78608   1.091   3.358   4.107  0.3345  0.9072 -0.4036
  583MOL0     C78609   1.151   3.477   4.171  0.5947  0.0364 -0.2788
  583MOL0     C78610   1.153   3.600   4.074 -0.1387 -0.7648  0.4121
  583MOL0     C78611   1.235   3.715   4.131 -0.6140 -0.0079 -0.6732
  583MOL0     C78612   1.228   3.837   4.040  0.1074  0.0521  0.2710
  583MOL0     C78613   1.300   3.954   4.103  1.4020 -0.5875 -1.0936
  583MOL0    Cl78614   1.247   3.982   4.281 -0.0063  0.0158  0.3864
  583MOL0     C78615   1.333   2.941   4.088 -0.6527  0.5707 -0.4102
  583MOL0     C78616   1.444   2.883   4.016 -0.2148  0.5515  0.8228
  583MOL0     O78617   1.456   2.676   3.672 -0.4801 -0.3363  0.4072
  583MOL0     C78618   1.709   2.551   3.600  0.6902 -1.1451 -0.4515
  583MOL0     C78619   1.833   2.491   3.569  0.0779  0.0939  0.0591
  583MOL0     N78620   1.668   2.313   4.114 -0.1672  0.3537  0.0866
  583MOL0     N78621   1.598   2.200   4.108  0.2968 -0.0342 -0.3852
  583MOL0     C78622   2.007   0.997   4.187 -0.0534 -0.4428 -0.8150
  583MOL0     C78623   2.034   0.868   4.228 -0.0641 -0.9517  0.0886
  583MOL0     C78624   2.029   0.438   4.365 -0.5994  0.1423  0.5833
  583MOL0     C78625   2.111   0.458   4.470  0.2664  0.0819 -0.4361
  583MOL0     C78626   2.161   0.357   4.544 -0.6600  0.6497  0.8803
  583MOL0     C78627   2.149   0.222   4.502  0.0362 -0.4643  0.3449
  583MOL0     O78628   2.202   0.127   4.585 -0.1413 -0.1696 -0.2366
  583MOL0     C78629   2.280   0.164   4.700  0.2131 -0.4139  0.4993
  583MOL0     C78630   2.329   0.042   4.770 -0.5946  0.0953 -1.0372
  583MOL0     C78631   2.227  -0.010   4.877 -1.2268 -0.3072  0.1448
  583MOL0     C78632   2.293  -0.132   4.938  0.0498  0.9960  0.0302
  583MOL0     C78633   2.442  -0.128   4.965  0.3488 -0.4450  0.4665
  583MOL0     C78634   2.552  -0.161   5.002 -0.5009 -0.4328  0.0748
  583MOL0     C78635   2.070   0.195   4.391 -0.7928  0.3824  0.4260
  583MOL0     C78636   2.005   0.302   4.323 -0.2014  0.0767 -0.8782
  583MOL0     C78637   1.933   0.276   4.192  0.4475 -0.1551 -0.1972
  583MOL0     H78638   1.790   0.815   4.460 -2.5046  1.6851 -1.0560
  583MOL0     H78639   1.748   1.046   4.410  1.1118  0.2065  2.0504
  583MOL0     H78640   1.931   1.180   4.008 -0.3869 -0.9393 -0.5633
  583MOL0     H78641   1.766   1.131   4.037  1.2179 -1.3203  0.2521
  583MOL0     H78642   1.691   1.355   4.015 -0.2270 -0.7110  1.0631
  583MOL0     H78643   1.839   1.372   3.925 -1.3626  3.5036 -0.3140
  583MOL0     H78644   1.941   1.456   4.152 -0.8122  0.8950  0.6818
  583MOL0     H78645   1.788   1.444   4.230 -2.9460 -2.4824 -0.6743
  583MOL0     H78646   1.805   1.604   3.969  1.5995 -3.2244  0.3795
  583MOL0     H78647   1.677   1.597   4.084 -1.3304 -2.9628  0.6766
  583MOL0     H78648   1.828   1.743   4.250  0.5102 -0.8775 -0.3953
  583MOL0     H78649   1.957   1.714   4.127  1.1558 -2.1992  2.3856
  583MOL0     H78650   1.820   1.930   4.155 -1.6743 -1.6096  1.9453
  583MOL0     H78651   1.900   1.888   3.998 -1.6908 -1.8439 -1.9255
  583MOL0     H78652   1.620   1.800   4.083 -0.0643  0.4106  0.1975
  583MOL0     H78653   1.681   1.797   3.911 -0.2913 -2.1748  0.3663
  583MOL0     H78654   1.633   2.025   3.867  0.1026  3.1387  0.4288
  583MOL0     H78655   1.506   2.004   3.983  0.5130  0.7603  1.9892
  583MOL0     H78656   1.874   2.101   3.979 -1.6793 -1.0394 -2.7657
  583MOL0     H78657   1.876   2.482   4.135  2.1018  0.3512  0.3314
  583MOL0     H78658   2.002   2.366   4.102  0.5749  0.6752  1.3451
  583MOL0     H78659   1.828   2.481   3.879 -2.4481 -2.3812  0.2083
  583MOL0     H78660   1.976   2.553   3.946  0.2754  0.4187  0.6692
  583MOL0     H78661   1.975   2.306   3.779  0.8297 -1.6089  1.3483
  583MOL0     H78662   2.105   2.310   3.903  1.5678  2.1070  0.2208
  583MOL0     H78663   2.207   2.400   3.729  0.2595 -0.8723  0.3736
  583MOL0     H78664   2.152   2.549   3.790 -0.9203  2.1750  0.3866
  583MOL0     H78665   2.026   2.713   3.727  0.1716 -2.7209  0.4700
  583MOL0     H78666   1.811   2.781   3.824  2.5149  3.9081 -2.0732
  583MOL0     H78667   1.320   2.865   3.703 -0.1371 -0.9646  0.6020
  583MOL0     H78668   1.139   3.001   3.826  0.6980  1.0302 -1.6190
  583MOL0     H78669   1.143   3.075   4.305  0.3540 -0.6340  0.9161
  583MOL0     H78670   1.262   3.167   4.209 -0.6891 -0.6028 -1.3134
  583MOL0     H78671   0.960   3.213   4.204  0.9774 -1.1730  0.3323
  583MOL0     H78672   1.056   3.293   4.312  2.5802  0.4696 -0.0278
  583MOL0     H78673   1.146   3.310   4.025 -0.5646 -1.7813  0.4552
  583MOL0     H78674   0.994   3.398   4.074 -0.8634  2.5298  4.2900
  583MOL0     H78675   1.255   3.462   4.203  1.6133  1.8471 -2.4957
  583MOL0     H78676   1.088   3.502   4.257  1.7591 -0.8898  0.8825
  583MOL0     H78677   1.050   3.636   4.063 -0.2467 -1.0021  0.6390
  583MOL0     H78678   1.191   3.584   3.973 -0.0400  0.1674  0.2941
  583MOL0     H78679   1.196   3.729   4.232 -0.8669 -0.7309 -0.6706
  583MOL0     H78680   1.339   3.680   4.138 -0.3142  1.1473  1.6763
  583MOL0     H78681   1.127   3.865   4.008  0.6879  1.5334 -0.2990
  583MOL0     H78682   1.284   3.813   3.949 -1.0213  3.2867 -1.4084
  583MOL0     H78683   1.404   3.925   4.116  1.2576 -1.1497 -1.1691
  583MOL0     H78684   1.287   4.044   4.042  1.3849  0.4888  0.4590
  583MOL0     H78685   1.340   2.942   4.196  2.2961  2.0428 -0.5299
  583MOL0     H78686   1.530   2.838   4.064  0.7095  3.8803  2.5846
  583MOL0     H78687   1.621   2.514   3.547 -0.9592  1.4683  0.2788
  583MOL0     H78688   1.825   2.392   3.525 -1.1896 -2.2088  4.8333
  583MOL0     H78689   2.064   1.053   4.114  0.2329 -1.0890 -1.0897
  583MOL0     H78690   2.118   0.809   4.193  1.7084 -1.1281  4.1836
  583MOL0     H78691   2.144   0.556   4.502  1.7046 -0.8555  1.0852
  583MOL0     H78692   2.223   0.385   4.629 -0.9264  0.0134  1.2898
  583MOL0     H78693   2.221   0.231   4.763  0.5865  0.9487 -0.5787
  583MOL0     H78694   2.375   0.213   4.675 -0.4808  0.5028 -0.3745
  583MOL0     H78695   2.426   0.065   4.816 -0.5820  1.6805 -1.7989
  583MOL0     H78696   2.356  -0.045   4.710  1.3580 -1.6045  2.0171
  583MOL0     H78697   2.132  -0.049   4.841 -1.1754 -1.5074  1.1902
  583MOL0     H78698   2.208   0.059   4.959 -0.1911 -0.0271  0.1612
  583MOL0     H78699   2.238  -0.171   5.024 -2.3072  0.0403 -1.8070
  583MOL0     H78700   2.284  -0.213   4.865 -0.8349 -0.0790  1.2817
  583MOL0     H78701   2.640  -0.196   5.051  1.7692  1.7435 -2.1686
  583MOL0     H78702   2.054   0.098   4.345 -0.9315  1.1872 -1.3200
  583MOL0     H78703   1.963   0.344   4.112 -0.4014 -2.3804 -2.5579
  583MOL0     H78704   1.952   0.176   4.152 -0.2580 -0.0820 -0.7272
  583MOL0     H78705   1.828   0.299   4.209  0.6168  3.8517 -3.3314
  584MOL0     O78706   9.932   2.798   2.578 -0.0782 -0.6703 -0.4634
  584MOL0     C78707  10.043   2.772   2.627  0.9349 -1.0388  1.1162
  584MOL0     O78708  10.068   2.668   2.706  0.8695  0.9561 -0.3792
  584MOL0     C78709   9.965   2.591   2.760 -0.1781 -0.6315 -1.0786
  584MOL0     C78710   9.908   2.629   2.880 -0.2201 -0.1545  0.1963
  584MOL0     C78711   9.809   2.546   2.930 -0.6263  0.4979  0.1252
  584MOL0     C78712   9.774   2.421   2.872 -0.5007 -0.7220 -0.2265
  584MOL0     O78713   9.685   2.337   2.928  0.0580 -0.1713 -0.1678
  584MOL0     C78714   9.608   2.380   3.050  0.4207  0.1156 -0.1447
  584MOL0     C78715   9.574   2.254   3.127  0.8846  0.0336 -0.3239
  584MOL0     C78716   9.463   2.272   3.233  0.2337 -0.4552 -0.7398
  584MOL0     C78717   9.450   2.136   3.318  1.5419 -0.8343 -0.6873
  584MOL0     C78718   9.371   2.157   3.442  1.1154 -0.5533  0.0161
  584MOL0     C78719   9.374   2.028   3.520  1.0407  0.5627  0.3036
  584MOL0     C78720   9.285   2.029   3.642  1.0064 -0.5499 -0.6264
  584MOL0     C78721   9.128   2.041   3.618 -0.3371  0.7155  0.1243
  584MOL0     N78722   9.071   1.927   3.544 -0.4112 -1.2230 -0.8342
  584MOL0     C78723   9.066   1.938   3.403 -0.8646  0.0806 -0.9758
  584MOL0     C78724   8.989   1.835   3.365 -0.9681  1.1745 -0.4584
  584MOL0     C78725   8.931   1.825   3.229 -0.1879 -0.2065  0.2746
  584MOL0     C78726   9.046   1.770   3.138  0.8477  0.1760 -0.3131
  584MOL0     C78727   8.993   1.762   3.005  0.3547 -1.2148 -0.4645
  584MOL0     C78728   9.097   1.740   2.892 -0.7877  0.2230 -0.3602
  584MOL0     O78729   9.189   1.854   2.912 -0.7333 -0.6807 -0.4426
  584MOL0     C78730   9.280   1.883   2.816  0.0622 -0.1235 -1.3489
  584MOL0     C78731   9.308   1.799   2.699  0.7166 -0.0392 -0.1717
  584MOL0     C78732   9.428   1.829   2.623  0.2568  0.9268 -1.2706
  584MOL0     C78733   9.499   1.951   2.645  0.4849 -0.0073  0.9279
  584MOL0     C78734   9.603   2.000   2.550  0.0122  0.6061 -0.8923
  584MOL0     O78735   9.676   2.112   2.581 -0.2170  0.6752 -0.0038
  584MOL0     C78736   9.783   2.137   2.498  0.8299 -0.3813  1.1134
  584MOL0     C78737   9.915   2.096   2.512 -0.0280 -1.0856 -0.5036
  584MOL0     C78738  10.011   2.137   2.415 -0.8184  0.2642 -0.1733
  584MOL0     C78739   9.974   2.208   2.309  0.0741  0.3655 -0.0718
  584MOL0     O78740  10.050   2.236   2.202 -0.5176 -0.3671  0.1459
  584MOL0     C78741  10.183   2.177   2.175 -0.5728 -0.4448 -0.3390
  584MOL0     C78742  10.221   2.245   2.037 -0.0311 -0.0726  0.5750
  584MOL0     C78743  10.305   2.376   2.049 -0.0532  0.4571  1.0463
  584MOL0     C78744  10.346   2.442   1.917 -0.1059  0.5819  1.0239
  584MOL0     C78745  10.393   2.585   1.947 -0.6124 -0.1444  0.4637
  584MOL0     C78746  10.420   2.671   1.828 -0.1235  0.5579  0.2471
  584MOL0     C78747  10.453   2.814   1.856 -1.0550  0.7822 -0.4682
  584MOL0     C78748  10.594   2.828   1.918  0.0123  0.2836 -0.4337
  584MOL0    Cl78749  10.593   3.001   1.978  0.2412 -0.0530 -0.3021
  584MOL0     C78750   9.841   2.254   2.294 -0.2509 -0.9510 -0.5240
  584MOL0     C78751   9.747   2.217   2.388  1.0954  0.2462  1.1762
  584MOL0     O78752   9.621   1.927   2.452  0.1735 -0.9285  0.4324
  584MOL0     C78753   9.461   2.038   2.757  0.5270  0.3733 -0.1409
  584MOL0     C78754   9.352   2.001   2.838 -0.6829  0.0562 -0.3424
  584MOL0     N78755   8.949   1.771   3.489  0.5826  0.3286  0.4421
  584MOL0     N78756   9.012   1.819   3.592 -0.6931  0.1383 -0.3254
  584MOL0     C78757   9.842   2.381   2.760 -0.0032 -0.3767  0.0373
  584MOL0     C78758   9.930   2.471   2.697 -0.2427 -0.8558  0.2957
  584MOL0     C78759  10.159   2.839   2.570  0.2329  0.1728 -0.7903
  584MOL0     C78760  10.279   2.816   2.627  0.5631 -0.0304  0.3273
  584MOL0     C78761  10.389   2.901   2.599  0.5408  0.0342 -0.1881
  584MOL0     C78762  10.382   3.001   2.504 -0.5164  0.0342 -0.4198
  584MOL0     O78763  10.490   3.086   2.488 -0.0791 -0.2561  0.5159
  584MOL0     C78764  10.514   3.142   2.350  1.6772  0.0159 -0.1974
  584MOL0     C78765  10.639   3.212   2.358  0.1090  0.2242 -0.1346
  584MOL0     C78766  10.652   3.310   2.480 -0.5273  0.0214 -0.4668
  584MOL0     C78767  10.530   3.417   2.485 -0.5936 -0.1544 -1.0252
  584MOL0     C78768  10.520   3.494   2.363  0.7552 -0.4009  0.5634
  584MOL0     C78769  10.529   3.558   2.263 -0.3363  0.2499  0.4032
  584MOL0     C78770  10.258   3.013   2.437 -0.1398 -0.0489 -0.3299
  584MOL0     C78771  10.146   2.929   2.460  0.6458 -0.1376 -0.8944
  584MOL0     C78772  10.029   2.950   2.368 -0.4317 -0.8991 -0.4230
  584MOL0     H78773   9.937   2.726   2.918 -1.6461 -0.0591  1.1224
  584MOL0     H78774   9.756   2.595   3.011 -0.8167  1.4423 -0.5552
  584MOL0     H78775   9.658   2.454   3.113  1.1153  0.0475 -0.6089
  584MOL0     H78776   9.510   2.422   3.024  0.5279 -0.7681 -2.1981
  584MOL0     H78777   9.672   2.224   3.166  1.4180  1.6680 -0.3334
  584MOL0     H78778   9.537   2.184   3.052 -0.7508  1.6289 -1.0518
  584MOL0     H78779   9.370   2.306   3.187  0.6783  0.7271 -0.8174
  584MOL0     H78780   9.495   2.346   3.307  0.0333 -1.7330  0.6693
  584MOL0     H78781   9.396   2.062   3.259 -1.4013 -1.1993  2.1467
  584MOL0     H78782   9.550   2.093   3.334  1.8598  0.8169  2.9309
  584MOL0     H78783   9.418   2.234   3.504 -1.4481  0.8438  0.3491
  584MOL0     H78784   9.270   2.192   3.422  2.1594  1.1754 -2.7639
  584MOL0     H78785   9.345   1.946   3.454  0.1110  0.0908  1.2751
  584MOL0     H78786   9.471   2.008   3.568  1.1061  0.7592  0.2543
  584MOL0     H78787   9.318   2.121   3.692 -0.0224 -0.8193  0.5889
  584MOL0     H78788   9.298   1.942   3.708 -2.8501  0.6359  2.0679
  584MOL0     H78789   9.077   2.046   3.715 -0.9445  2.2304 -0.2365
  584MOL0     H78790   9.122   2.135   3.561  1.4981 -0.3783 -2.0469
  584MOL0     H78791   9.099   2.022   3.342 -1.1677  0.8222 -0.1345
  584MOL0     H78792   8.838   1.768   3.223 -2.1428  2.5706  1.5728
  584MOL0     H78793   8.893   1.921   3.192 -2.6188 -0.8007  1.0306
  584MOL0     H78794   9.137   1.829   3.147  1.1628 -0.4193  0.5260
  584MOL0     H78795   9.083   1.671   3.167  3.2175  0.7616 -1.1847
  584MOL0     H78796   8.955   1.861   2.979  4.1201  1.1665  2.0488
  584MOL0     H78797   8.915   1.687   2.994 -0.1472 -0.4237 -2.8056
  584MOL0     H78798   9.058   1.734   2.790 -0.4531  1.3562 -0.5628
  584MOL0     H78799   9.153   1.648   2.914  2.2087  1.9842 -0.0618
  584MOL0     H78800   9.259   1.704   2.683  0.1429  0.6281 -2.8959
  584MOL0     H78801   9.452   1.759   2.544  2.3169  0.3064 -0.1511
  584MOL0     H78802   9.952   2.025   2.586  3.4241  0.0739 -0.9332
  584MOL0     H78803  10.108   2.092   2.434 -1.7739 -0.7160  3.2135
  584MOL0     H78804  10.264   2.190   2.247  0.7217 -0.3208 -1.7689
  584MOL0     H78805  10.181   2.069   2.154  2.6205 -0.3573 -1.6456
  584MOL0     H78806  10.286   2.175   1.984  1.9830  2.3584 -0.3523
  584MOL0     H78807  10.135   2.269   1.974  0.8083  2.9507  0.3992
  584MOL0     H78808  10.234   2.434   2.109 -1.3266 -2.0231  2.0989
  584MOL0     H78809  10.393   2.352   2.109  0.1608 -2.5643 -0.3042
  584MOL0     H78810  10.269   2.436   1.840 -0.5417  0.3254  1.4742
  584MOL0     H78811  10.429   2.378   1.885 -0.0555  1.2428 -0.2084
  584MOL0     H78812  10.480   2.576   2.013 -0.8336 -0.3106  0.7345
  584MOL0     H78813  10.311   2.637   1.997 -2.8454 -3.0840  0.0896
  584MOL0     H78814  10.507   2.627   1.778 -0.8169  0.7076 -1.1449
  584MOL0     H78815  10.326   2.667   1.773  0.1399 -1.3338 -0.1380
  584MOL0     H78816  10.375   2.844   1.927 -1.6697 -0.7588 -0.4623
  584MOL0     H78817  10.447   2.875   1.766  1.1122  3.7701  1.2019
  584MOL0     H78818  10.620   2.761   2.001  0.7156  2.5757  1.2816
  584MOL0     H78819  10.657   2.798   1.834 -1.0981 -0.3789 -1.0578
  584MOL0     H78820   9.805   2.312   2.210  0.2613 -1.5126 -1.1433
  584MOL0     H78821   9.652   2.263   2.363  2.8595  3.0262 -0.9833
  584MOL0     H78822   9.508   2.131   2.787  1.7687 -1.0546  2.7220
  584MOL0     H78823   9.337   2.068   2.921 -2.2886  1.2212 -1.5025
  584MOL0     H78824   9.813   2.289   2.711  3.1255 -2.8038  2.3945
  584MOL0     H78825   9.981   2.439   2.606  1.9200  4.0297 -0.5498
  584MOL0     H78826  10.291   2.745   2.708 -1.4231  0.2046  0.8970
  584MOL0     H78827  10.486   2.883   2.644  0.2148  0.4400  0.7074
  584MOL0     H78828  10.431   3.212   2.335  1.2549 -0.1163  1.3202
  584MOL0     H78829  10.516   3.062   2.276 -2.1940 -1.3118  0.8780
  584MOL0     H78830  10.646   3.267   2.264 -2.0748 -0.6559 -0.8638
  584MOL0     H78831  10.726   3.146   2.365  1.5397  1.5164 -3.6722
  584MOL0     H78832  10.745   3.366   2.468 -0.5051 -0.0974 -0.8838
  584MOL0     H78833  10.650   3.247   2.569 -0.7230 -0.2873 -0.6867
  584MOL0     H78834  10.439   3.364   2.517  0.2065 -0.9221  0.0554
  584MOL0     H78835  10.543   3.487   2.568 -2.8200  2.2928 -2.5561
  584MOL0     H78836  10.544   3.621   2.177  2.7428 -2.6921 -1.4189
  584MOL0     H78837  10.243   3.094   2.367  2.5518 -1.0925 -2.2448
  584MOL0     H78838   9.960   2.866   2.355 -0.5096 -0.3932 -4.5967
  584MOL0     H78839   9.964   3.031   2.404  2.7250  2.0483 -0.8669
  584MOL0     H78840  10.069   2.973   2.269 -0.9118 -0.3254 -0.4925
  585MOL0     O78841   3.715   0.302   1.643  0.3873 -0.2956  0.5821
  585MOL0     C78842   3.702   0.414   1.599  0.3198 -0.4501  0.0815
  585MOL0     O78843   3.788   0.519   1.620 -0.7084 -0.1528 -0.3128
  585MOL0     C78844   3.928   0.497   1.643 -0.3537 -0.2053 -0.0162
  585MOL0     C78845   4.009   0.591   1.707 -0.5201 -0.8719 -0.9231
  585MOL0     C78846   4.144   0.565   1.736 -0.4720  0.3141  0.4007
  585MOL0     C78847   4.210   0.445   1.694  0.1447 -0.3998  0.4814
  585MOL0     O78848   4.342   0.419   1.718 -0.1819 -0.2574 -0.0603
  585MOL0     C78849   4.421   0.534   1.748 -0.1569 -0.0869 -0.9687
  585MOL0     C78850   4.533   0.482   1.837  0.6408 -1.2937 -0.2388
  585MOL0     C78851   4.628   0.595   1.883  0.2251  0.0860 -0.0292
  585MOL0     C78852   4.776   0.587   1.832  0.2091 -0.0597  0.1975
  585MOL0     C78853   4.847   0.456   1.880 -0.3920  0.1109 -0.1349
  585MOL0     C78854   4.873   0.452   2.034 -0.6266 -1.0062  0.6184
  585MOL0     C78855   4.880   0.320   2.102  0.5304  0.1175  1.0104
  585MOL0     C78856   4.939   0.305   2.249  0.4504 -0.7276  0.4376
  585MOL0     N78857   5.048   0.401   2.274  0.4473 -0.7423 -0.6759
  585MOL0     C78858   5.167   0.407   2.209  0.1575 -0.0072 -0.1404
  585MOL0     C78859   5.232   0.511   2.287 -0.5012  0.5998  0.3314
  585MOL0     C78860   5.374   0.566   2.268  0.7144 -0.3874 -0.4919
  585MOL0     C78861   5.484   0.477   2.320 -0.6549 -0.1003 -0.5833
  585MOL0     C78862   5.632   0.505   2.281  0.2987  0.4057  0.7112
  585MOL0     C78863   5.723   0.386   2.320  0.1345 -0.9382 -0.2218
  585MOL0     O78864   5.857   0.432   2.287  0.4757  0.3975  0.0021
  585MOL0     C78865   5.962   0.344   2.310  0.8305  0.1499 -0.0579
  585MOL0     C78866   6.033   0.326   2.429 -1.2223 -0.2108 -0.1182
  585MOL0     C78867   6.136   0.240   2.448 -0.4264  0.5199  0.3700
  585MOL0     C78868   6.179   0.158   2.339 -0.0916 -0.9957 -1.1755
  585MOL0     C78869   6.297   0.074   2.353  0.0846  0.4570 -0.5958
  585MOL0     O78870   6.364   0.086   2.472  0.4525  0.0929  0.2811
  585MOL0     C78871   6.478   0.009   2.507  0.5553 -1.2274  0.4840
  585MOL0     C78872   6.578  -0.028   2.405 -0.3324  0.4693 -0.8058
  585MOL0     C78873   6.694  -0.087   2.445  0.1269 -0.3909 -0.1413
  585MOL0     C78874   6.725  -0.106   2.576  0.1678  0.8649 -0.6120
  585MOL0     O78875   6.845  -0.161   2.607  1.0287 -0.2677  0.8639
  585MOL0     C78876   6.872  -0.184   2.740 -1.3883  0.0234  0.0759
  585MOL0     C78877   7.000  -0.258   2.749  0.1241 -1.0627 -0.2947
  585MOL0     C78878   7.023  -0.296   2.901 -0.7794  0.5520  0.6039
  585MOL0     C78879   7.159  -0.377   2.908  0.1727  0.0523 -0.0404
  585MOL0     C78880   7.232  -0.368   3.049  0.1557  0.3345  0.1139
  585MOL0     C78881   7.350  -0.272   3.041  0.0190 -0.1756 -0.2992
  585MOL0     C78882   7.441  -0.302   3.152 -0.5059  0.3324 -0.4096
  585MOL0     C78883   7.565  -0.213   3.147  0.2862  0.4091 -0.1015
  585MOL0    Cl78884   7.690  -0.290   3.245 -0.0238 -0.2257 -0.2248
  585MOL0     C78885   6.618  -0.067   2.674  0.1607 -0.5721 -0.5380
  585MOL0     C78886   6.502  -0.008   2.640 -0.2029  0.0654  1.2169
  585MOL0     O78887   6.317  -0.012   2.267 -0.3595  0.0854  0.4202
  585MOL0     C78888   6.102   0.162   2.222  0.6928 -0.5700 -0.0481
  585MOL0     C78889   5.995   0.249   2.209  0.4946 -1.2355  0.0577
  585MOL0     N78890   5.154   0.571   2.377  0.1304  0.3564 -0.5854
  585MOL0     N78891   5.052   0.499   2.372 -0.0874 -0.4635 -0.7374
  585MOL0     C78892   4.129   0.354   1.634  0.5905  0.4837 -0.5342
  585MOL0     C78893   3.993   0.372   1.616 -0.0261 -0.0344  0.3604
  585MOL0     C78894   3.562   0.444   1.545 -0.2482 -0.2268 -0.1715
  585MOL0     C78895   3.517   0.575   1.557  0.4434 -0.9822 -0.1164
  585MOL0     C78896   3.399   0.628   1.502 -0.1919  0.4478  0.5084
  585MOL0     C78897   3.321   0.546   1.422 -0.8248 -0.3458 -0.5598
  585MOL0     O78898   3.208   0.608   1.372 -0.1019 -0.0551  0.4602
  585MOL0     C78899   3.087   0.574   1.437  0.8606 -0.4582  0.1374
  585MOL0     C78900   3.004   0.693   1.415  0.0735  0.1864 -0.1201
  585MOL0     C78901   2.888   0.678   1.510  0.3316 -0.5920  0.2152
  585MOL0     C78902   2.784   0.786   1.482  0.1516 -0.8582  1.5486
  585MOL0     C78903   2.828   0.927   1.478  0.3107  0.6834 -0.2143
  585MOL0     C78904   2.882   1.029   1.477  0.6858 -0.3856 -1.3362
  585MOL0     C78905   3.361   0.409   1.413 -0.2849  0.4304  0.5663
  585MOL0     C78906   3.476   0.356   1.479  0.5099  0.6905  0.3016
  585MOL0     C78907   3.522   0.220   1.436 -0.0235 -0.0775 -0.8420
  585MOL0     H78908   3.958   0.676   1.752  0.4494 -1.4185  1.3434
  585MOL0     H78909   4.194   0.647   1.786  0.4097  0.4345 -0.6381
  585MOL0     H78910   4.453   0.576   1.652 -0.3829  0.4625 -0.8074
  585MOL0     H78911   4.374   0.614   1.806 -0.1548 -1.1525  0.5422
  585MOL0     H78912   4.591   0.409   1.780  2.8299  0.9069 -1.0182
  585MOL0     H78913   4.489   0.443   1.929 -0.0912 -0.1861 -0.0998
  585MOL0     H78914   4.623   0.616   1.990 -1.8726  2.0467 -0.4346
  585MOL0     H78915   4.581   0.681   1.834 -3.3842 -0.0181  2.8315
  585MOL0     H78916   4.770   0.573   1.724  0.8736 -0.0115  0.1545
  585MOL0     H78917   4.828   0.679   1.859 -0.0178 -0.7735  3.5782
  585MOL0     H78918   4.800   0.362   1.849  2.0138 -1.7379  1.4216
  585MOL0     H78919   4.944   0.443   1.831  1.1842 -0.3849  2.9108
  585MOL0     H78920   4.966   0.509   2.042 -2.5204  2.5035 -0.3331
  585MOL0     H78921   4.798   0.516   2.081 -0.3424  0.0961 -0.3879
  585MOL0     H78922   4.949   0.261   2.040 -0.1027 -0.3718  0.7673
  585MOL0     H78923   4.776   0.287   2.102 -0.0315  1.7007 -0.6783
  585MOL0     H78924   4.851   0.319   2.312 -0.9066 -0.7534 -1.3686
  585MOL0     H78925   4.969   0.202   2.269  2.4973 -0.3842 -0.5626
  585MOL0     H78926   5.208   0.361   2.120 -4.5450  1.5603 -3.5418
  585MOL0     H78927   5.400   0.584   2.163 -0.7313 -0.8823 -0.9538
  585MOL0     H78928   5.378   0.664   2.316 -0.7145 -0.8392  0.5871
  585MOL0     H78929   5.478   0.464   2.429 -1.3376  2.1581 -0.3047
  585MOL0     H78930   5.465   0.384   2.266 -0.1680  1.3536 -3.4323
  585MOL0     H78931   5.654   0.593   2.343 -0.6227  2.6581 -1.9512
  585MOL0     H78932   5.641   0.521   2.173 -0.2179  4.1680  1.0954
  585MOL0     H78933   5.695   0.294   2.267 -0.3939 -1.8285  1.5105
  585MOL0     H78934   5.731   0.364   2.427  2.3027  0.9122  0.0797
  585MOL0     H78935   6.000   0.373   2.521 -1.0043 -1.1075  0.4288
  585MOL0     H78936   6.186   0.250   2.544  0.9116 -2.0457  0.0229
  585MOL0     H78937   6.566  -0.008   2.299  1.0470  0.8491 -0.9193
  585MOL0     H78938   6.761  -0.130   2.371 -2.4400 -2.2800 -1.5426
  585MOL0     H78939   6.869  -0.096   2.804  1.6653  0.4601 -0.2121
  585MOL0     H78940   6.788  -0.245   2.775  1.6064 -2.9009  2.9225
  585MOL0     H78941   6.994  -0.356   2.699 -0.5688  0.3886 -3.2936
  585MOL0     H78942   7.086  -0.205   2.708 -0.9357  0.3814 -0.7186
  585MOL0     H78943   7.035  -0.201   2.952 -0.1595  2.5249 -2.8793
  585MOL0     H78944   6.938  -0.354   2.938 -2.4237 -0.3660 -3.9121
  585MOL0     H78945   7.233  -0.345   2.834 -0.6330 -1.6376 -1.6375
  585MOL0     H78946   7.125  -0.477   2.880 -1.8890  1.9440 -5.7446
  585MOL0     H78947   7.257  -0.472   3.072 -0.6282 -0.2385 -1.4609
  585MOL0     H78948   7.163  -0.325   3.122  3.2594  1.9891  2.3230
  585MOL0     H78949   7.409  -0.282   2.949  1.8151  1.4119  0.6013
  585MOL0     H78950   7.306  -0.172   3.049 -1.2239 -0.8329  1.8781
  585MOL0     H78951   7.477  -0.405   3.142 -0.1222  0.3045  1.0386
  585MOL0     H78952   7.377  -0.299   3.240 -1.6766  0.1822 -1.2444
  585MOL0     H78953   7.611  -0.204   3.048 -0.1188  2.1390 -0.1628
  585MOL0     H78954   7.552  -0.109   3.178  0.3042  0.2890  0.3207
  585MOL0     H78955   6.635  -0.063   2.781  0.3659  1.0855 -0.6069
  585MOL0     H78956   6.428   0.018   2.715 -2.7956 -0.9244 -0.8470
  585MOL0     H78957   6.127   0.099   2.137 -0.6139 -0.4307 -0.5621
  585MOL0     H78958   5.929   0.247   2.122 -1.4011  3.4996  1.0452
  585MOL0     H78959   4.152   0.257   1.592 -1.7266 -1.3754  2.0776
  585MOL0     H78960   3.946   0.284   1.574 -0.0325  0.6245 -1.0864
  585MOL0     H78961   3.574   0.653   1.608  2.6228 -1.2600 -1.9579
  585MOL0     H78962   3.386   0.731   1.537  1.0222  0.0303  2.3192
  585MOL0     H78963   3.100   0.548   1.543  0.6741 -0.4074  0.1720
  585MOL0     H78964   3.040   0.486   1.392 -0.6596  1.7230 -2.8754
  585MOL0     H78965   2.976   0.701   1.309 -1.1677  2.2526  0.3172
  585MOL0     H78966   3.058   0.785   1.440  1.5176 -0.3934 -0.9712
  585MOL0     H78967   2.916   0.694   1.614  0.1960 -1.4934  0.3940
  585MOL0     H78968   2.841   0.581   1.494 -2.2682  0.9181 -2.1729
  585MOL0     H78969   2.748   0.770   1.380 -0.1111  1.6014  1.1967
  585MOL0     H78970   2.692   0.776   1.542  0.0517 -3.7319  1.0820
  585MOL0     H78971   2.926   1.127   1.474 -0.2715  0.0369 -1.6691
  585MOL0     H78972   3.293   0.337   1.369 -2.0328  1.2199  1.8517
  585MOL0     H78973   3.506   0.169   1.531  1.3625  0.4497 -0.3058
  585MOL0     H78974   3.461   0.170   1.360 -4.1186  0.0206  2.0677
  585MOL0     H78975   3.631   0.215   1.427  0.1632 -1.5628  1.4390
  586MOL0     O78976   0.067   2.332   4.863 -0.0931  0.4354  0.5467
  586MOL0     C78977  -0.033   2.292   4.902  0.1962 -1.2140 -0.3484
  586MOL0     O78978  -0.151   2.284   4.830 -0.5732  0.4376  0.1949
  586MOL0     C78979  -0.151   2.334   4.699  0.5997  0.0234 -0.3952
  586MOL0     C78980  -0.283   2.370   4.661  0.1394 -0.1027  0.1921
  586MOL0     C78981  -0.311   2.422   4.537  0.4308 -0.9370 -0.0736
  586MOL0     C78982  -0.201   2.446   4.450  0.4274 -0.0028  0.2230
  586MOL0     O78983  -0.221   2.503   4.323  0.2239 -0.0892  0.1473
  586MOL0     C78984  -0.353   2.557   4.289 -0.0090  0.5346 -0.1571
  586MOL0     C78985  -0.341   2.583   4.141  0.1455 -0.0918  0.1830
  586MOL0     C78986  -0.232   2.688   4.110 -0.2847 -0.0436 -0.0031
  586MOL0     C78987  -0.242   2.721   3.961  0.5136  0.5626  0.5145
  586MOL0     C78988  -0.145   2.825   3.918  0.3251  0.5775 -0.2018
  586MOL0     C78989  -0.191   2.889   3.792  1.4082  0.1726  0.3500
  586MOL0     C78990  -0.087   2.890   3.678  1.1553  0.0354 -1.6080
  586MOL0     C78991   0.055   2.946   3.724 -0.3531  0.5166  0.8430
  586MOL0     N78992   0.145   2.982   3.610 -0.1575 -0.3104  0.9269
  586MOL0     C78993   0.231   2.896   3.560 -0.4732  0.5341 -1.3225
  586MOL0     C78994   0.281   2.965   3.452 -0.1684 -1.0889 -0.6000
  586MOL0     C78995   0.392   2.908   3.367  0.0731 -0.9322 -0.0424
  586MOL0     C78996   0.500   3.017   3.368  0.5335 -0.0780 -0.9555
  586MOL0     C78997   0.632   2.975   3.319 -0.1235 -0.7479 -0.0365
  586MOL0     C78998   0.703   3.114   3.267  1.0493  0.0720 -0.4333
  586MOL0     O78999   0.726   3.204   3.379  0.3031  0.4144 -0.2775
  586MOL0     C79000   0.819   3.297   3.358 -0.5847 -0.1116  0.7111
  586MOL0     C79001   0.908   3.319   3.248  0.0194  0.8441  0.3402
  586MOL0     C79002   1.014   3.420   3.260  0.6165 -0.0252  0.7262
  586MOL0     C79003   1.029   3.497   3.375 -0.9431 -0.0251  0.3350
  586MOL0     C79004   1.150   3.585   3.385 -0.0940  0.3553  0.0376
  586MOL0     O79005   1.251   3.579   3.286 -0.3096  0.0512 -0.2409
  586MOL0     C79006   1.361   3.657   3.289  0.0944  0.2948 -0.1553
  586MOL0     C79007   1.484   3.615   3.324 -0.3140 -0.1743  1.1361
  586MOL0     C79008   1.597   3.700   3.310 -0.3135  1.4140 -0.2447
  586MOL0     C79009   1.592   3.813   3.228 -0.8091 -0.0518 -0.7945
  586MOL0     O79010   1.695   3.904   3.197  0.0145 -0.4703 -0.1865
  586MOL0     C79011   1.823   3.844   3.209  0.5190 -0.1387  0.4248
  586MOL0     C79012   1.925   3.937   3.142 -0.7174  0.1532 -0.0929
  586MOL0     C79013   2.068   3.876   3.150  0.4670  0.7978 -0.5632
  586MOL0     C79014   2.130   3.855   3.290  0.2361 -0.4461  0.2006
  586MOL0     C79015   2.131   3.704   3.338  0.4417 -0.9841  0.0993
  586MOL0     C79016   2.172   3.692   3.488 -0.0270 -0.6047  0.0336
  586MOL0     C79017   2.142   3.550   3.528 -0.6595  0.0000  0.0787
  586MOL0     C79018   2.211   3.521   3.656 -0.0188  0.2093  0.2150
  586MOL0    Cl79019   2.128   3.359   3.690  0.2820  0.0079 -0.4594
  586MOL0     C79020   1.462   3.853   3.186 -0.0068 -0.3251 -0.5140
  586MOL0     C79021   1.354   3.779   3.227 -0.5666 -0.6557  0.0691
  586MOL0     O79022   1.164   3.659   3.481 -0.5315 -0.8933 -0.5431
  586MOL0     C79023   0.932   3.493   3.476 -0.6654  1.2308 -0.5321
  586MOL0     C79024   0.838   3.386   3.466  1.1024  1.3669  0.0968
  586MOL0     N79025   0.221   3.090   3.442 -0.3349  0.0987 -0.1058
  586MOL0     N79026   0.153   3.104   3.542  0.3087 -0.2697  0.4299
  586MOL0     C79027  -0.067   2.403   4.486 -0.6548 -0.5176  0.5440
  586MOL0     C79028  -0.050   2.342   4.607 -0.5417 -0.7387  0.0894
  586MOL0     C79029  -0.055   2.265   5.055  0.0395  0.0828 -0.0253
  586MOL0     C79030  -0.185   2.217   5.098 -0.3520 -0.9299 -0.2975
  586MOL0     C79031  -0.213   2.185   5.232 -0.1584 -0.3163 -0.6036
  586MOL0     C79032  -0.113   2.195   5.327  1.0246  0.2701  0.1167
  586MOL0     O79033  -0.130   2.158   5.457  0.2043  0.3396  0.2133
  586MOL0     C79034  -0.178   2.021   5.471 -0.1325 -0.9725 -0.6900
  586MOL0     C79035  -0.174   1.999   5.623 -0.7855  0.6815  0.1171
  586MOL0     C79036  -0.033   1.968   5.685  0.1202 -1.1470  0.1256
  586MOL0     C79037   0.066   2.087   5.713 -0.6092 -0.1732  0.0730
  586MOL0     C79038   0.185   2.031   5.777  0.0276 -0.0930 -0.4668
  586MOL0     C79039   0.283   1.983   5.831  0.2819  0.2373 -0.2555
  586MOL0     C79040   0.008   2.244   5.295  0.2077 -0.3706  1.6061
  586MOL0     C79041   0.036   2.278   5.157  0.4170 -0.3003 -0.9216
  586MOL0     C79042   0.181   2.327   5.135 -0.7230 -0.1867 -0.3387
  586MOL0     H79043  -0.364   2.373   4.733  0.6033  4.2227  0.7809
  586MOL0     H79044  -0.410   2.460   4.514 -0.4531 -2.6025  0.8540
  586MOL0     H79045  -0.432   2.481   4.290  0.7638 -0.3203 -1.1103
  586MOL0     H79046  -0.382   2.644   4.348 -4.1640  0.0317 -1.1152
  586MOL0     H79047  -0.440   2.613   4.106  0.0519 -0.1989  0.3522
  586MOL0     H79048  -0.324   2.493   4.081 -1.9355  0.0269 -0.6655
  586MOL0     H79049  -0.134   2.652   4.143 -0.2972  1.2751  1.5781
  586MOL0     H79050  -0.252   2.785   4.154  0.6322 -0.4725  1.4177
  586MOL0     H79051  -0.224   2.627   3.908  0.9282 -0.5810  2.5852
  586MOL0     H79052  -0.343   2.760   3.946  0.3209  0.3740  1.2561
  586MOL0     H79053  -0.120   2.900   3.994 -0.6926  3.6626 -2.7189
  586MOL0     H79054  -0.057   2.759   3.913 -1.1517 -1.7673  1.9765
  586MOL0     H79055  -0.275   2.837   3.744  2.2797 -2.0156  1.0797
  586MOL0     H79056  -0.222   2.990   3.821 -0.0449  0.3868 -1.7011
  586MOL0     H79057  -0.136   2.952   3.601 -0.6482  0.0389 -0.5121
  586MOL0     H79058  -0.071   2.791   3.634  4.0942  0.3327 -1.4033
  586MOL0     H79059   0.038   3.041   3.774  2.7472  1.2775  0.6723
  586MOL0     H79060   0.109   2.875   3.788 -0.2580 -1.9017 -1.7000
  586MOL0     H79061   0.252   2.793   3.586 -1.5237  1.0902  2.3875
  586MOL0     H79062   0.438   2.818   3.410  5.5394  0.8246 -1.3596
  586MOL0     H79063   0.364   2.887   3.264  1.6131  0.1639 -0.7194
  586MOL0     H79064   0.465   3.092   3.296  0.8427  0.1429 -0.8793
  586MOL0     H79065   0.514   3.058   3.468 -2.4148 -0.2403 -0.3982
  586MOL0     H79066   0.608   2.906   3.237 -2.3420 -0.7891  0.5997
  586MOL0     H79067   0.698   2.938   3.398  1.1150  1.6783  0.1641
  586MOL0     H79068   0.654   3.177   3.193  2.7023  3.4107  1.1353
  586MOL0     H79069   0.800   3.081   3.228  0.3631  1.0268 -3.1644
  586MOL0     H79070   0.908   3.260   3.158  0.0406  1.7426 -0.2625
  586MOL0     H79071   1.075   3.437   3.172  0.7984  3.3635  1.4074
  586MOL0     H79072   1.502   3.517   3.365  0.8362 -0.0544  0.9520
  586MOL0     H79073   1.697   3.668   3.338 -0.3601 -0.8606 -2.3722
  586MOL0     H79074   1.847   3.834   3.315 -2.4305 -0.5762  1.1226
  586MOL0     H79075   1.820   3.740   3.176 -1.1064  0.6904 -2.3486
  586MOL0     H79076   1.895   3.946   3.037 -2.6215  1.1692  0.4971
  586MOL0     H79077   1.926   4.039   3.182  1.7054  0.3013 -0.3833
  586MOL0     H79078   2.074   3.777   3.104  1.6549  0.5308  0.1219
  586MOL0     H79079   2.139   3.930   3.087  1.2673 -0.2023 -0.5294
  586MOL0     H79080   2.068   3.906   3.365  2.2777  0.8035  1.0984
  586MOL0     H79081   2.229   3.901   3.290 -0.8326  2.1718 -2.1716
  586MOL0     H79082   2.205   3.646   3.283  2.3253  1.6005 -0.3329
  586MOL0     H79083   2.036   3.653   3.325 -0.6746  1.2246 -1.0804
  586MOL0     H79084   2.277   3.714   3.506 -0.2377  0.3376  0.1473
  586MOL0     H79085   2.116   3.764   3.548  3.3260  0.4891  2.1168
  586MOL0     H79086   2.182   3.491   3.445  2.4382 -0.4151  1.7118
  586MOL0     H79087   2.034   3.536   3.534 -0.4754 -1.5764  0.2673
  586MOL0     H79088   2.320   3.525   3.650 -0.0740  1.3517 -0.3211
  586MOL0     H79089   2.189   3.590   3.737  0.2147  1.0603 -0.4335
  586MOL0     H79090   1.457   3.943   3.125  2.0667  0.0010 -0.2769
  586MOL0     H79091   1.262   3.800   3.174  0.4395 -1.5535 -2.1625
  586MOL0     H79092   0.937   3.569   3.554 -1.6160 -0.4461  1.2528
  586MOL0     H79093   0.778   3.371   3.555  2.0454  0.3664  0.5858
  586MOL0     H79094   0.022   2.429   4.429 -0.4773  1.5928  1.6895
  586MOL0     H79095   0.043   2.294   4.634  0.0290  0.7750  0.9232
  586MOL0     H79096  -0.265   2.201   5.026 -0.2410 -0.7205 -0.4688
  586MOL0     H79097  -0.312   2.147   5.258 -0.9892 -0.4284 -3.5805
  586MOL0     H79098  -0.114   1.963   5.404  2.7065  3.6905 -2.4946
  586MOL0     H79099  -0.280   2.010   5.432 -1.9055  0.7851  2.9250
  586MOL0     H79100  -0.235   1.912   5.649 -0.0772  0.5174  1.2667
  586MOL0     H79101  -0.234   2.080   5.665 -2.0007 -0.5107  0.7634
  586MOL0     H79102   0.019   1.898   5.618 -2.0157 -0.5242 -2.3556
  586MOL0     H79103  -0.044   1.903   5.773 -1.6039  0.7354  1.3898
  586MOL0     H79104   0.094   2.129   5.616  0.9618 -0.1144  0.5351
  586MOL0     H79105   0.016   2.162   5.775 -2.6495  0.1341 -1.7947
  586MOL0     H79106   0.364   1.918   5.857 -2.1197 -1.9934  2.3486
  586MOL0     H79107   0.083   2.251   5.373  4.2236 -3.4925 -1.5625
  586MOL0     H79108   0.175   2.434   5.112  0.6746 -0.2341 -1.0321
  586MOL0     H79109   0.237   2.315   5.228 -0.1800 -0.9018 -0.7435
  586MOL0     H79110   0.218   2.261   5.056 -0.4602  0.6914 -0.9681
  587MOL0     O79111  11.030   2.860   7.418  0.5150  0.3868 -0.5136
  587MOL0     C79112  11.122   2.787   7.429 -0.0819 -1.3938  0.1786
  587MOL0     O79113  11.161   2.708   7.328 -0.5619  0.5582 -0.6657
  587MOL0     C79114  11.056   2.651   7.254 -0.1343 -0.2565 -0.5018
  587MOL0     C79115  11.073   2.624   7.121  0.6096  0.9928  0.9082
  587MOL0     C79116  10.967   2.554   7.048  0.0638  0.6890  0.0895
  587MOL0     C79117  10.851   2.501   7.111 -0.0401  0.1639 -0.5571
  587MOL0     O79118  10.772   2.414   7.029  0.0445 -0.2450  0.6296
  587MOL0     C79119  10.696   2.325   7.103 -0.3721 -0.3168 -0.0011
  587MOL0     C79120  10.687   2.183   7.046 -0.0203 -0.5483 -0.4927
  587MOL0     C79121  10.623   2.192   6.904  0.4739  0.1167 -0.2419
  587MOL0     C79122  10.611   2.053   6.850 -0.2047 -0.6067  0.3832
  587MOL0     C79123  10.541   2.059   6.708 -0.2472 -0.1002  0.1278
  587MOL0     C79124  10.542   1.926   6.632  0.2691  0.0663 -0.0840
  587MOL0     C79125  10.488   1.943   6.488 -1.1223  0.3594 -0.8034
  587MOL0     C79126  10.503   1.824   6.397  0.7775  0.7230 -0.0267
  587MOL0     N79127  10.487   1.863   6.257 -0.8020 -0.6198 -0.4050
  587MOL0     C79128  10.379   1.920   6.198  0.1409 -0.4852  0.2323
  587MOL0     C79129  10.409   1.953   6.074  0.1187  0.1552  0.8580
  587MOL0     C79130  10.320   2.009   5.963  0.3622  0.6505 -0.5730
  587MOL0     C79131  10.345   1.955   5.818 -0.2712  0.4743  0.1141
  587MOL0     C79132  10.461   2.023   5.746 -0.0557 -0.2548  0.1429
  587MOL0     C79133  10.456   1.981   5.594 -0.0623  0.0908 -0.9283
  587MOL0     O79134  10.561   2.040   5.513  0.2368  0.1155  0.3193
  587MOL0     C79135  10.569   2.174   5.504  0.3023  0.5580  0.7126
  587MOL0     C79136  10.467   2.254   5.447  0.5607  0.4346  0.2781
  587MOL0     C79137  10.481   2.392   5.474  0.4734 -0.0255 -0.2809
  587MOL0     C79138  10.594   2.453   5.535 -0.2209 -0.2992 -0.0766
  587MOL0     C79139  10.616   2.599   5.566  0.0826  0.6559  0.2737
  587MOL0     O79140  10.727   2.635   5.638 -0.8196  0.2375 -0.4021
  587MOL0     C79141  10.752   2.761   5.670 -0.2661 -0.3417  0.2855
  587MOL0     C79142  10.803   2.788   5.799  0.7454 -0.4820  0.3887
  587MOL0     C79143  10.839   2.910   5.844 -0.5083 -0.4917 -0.7626
  587MOL0     C79144  10.845   3.015   5.758 -0.5295 -0.1780  0.4390
  587MOL0     O79145  10.899   3.132   5.787  0.1378  0.6153 -0.1530
  587MOL0     C79146  10.962   3.154   5.907  0.5065  0.2793  0.0149
  587MOL0     C79147  11.062   3.266   5.895  0.0870  0.4870 -0.2003
  587MOL0     C79148  11.017   3.398   5.828 -0.6945  0.1917  0.3829
  587MOL0     C79149  10.975   3.490   5.946  0.8760  0.2245  0.2577
  587MOL0     C79150  10.925   3.630   5.892 -0.1777 -0.6290 -0.4585
  587MOL0     C79151  11.026   3.723   5.828 -0.5554 -0.7186 -0.6891
  587MOL0     C79152  11.112   3.817   5.930 -0.0015  0.5801 -1.3433
  587MOL0     C79153  11.154   3.941   5.857 -0.0034 -0.4432  0.0198
  587MOL0    Cl79154  11.287   4.005   5.950 -0.3380 -0.3752 -0.0352
  587MOL0     C79155  10.792   2.997   5.622 -1.1283  0.0055 -0.8784
  587MOL0     C79156  10.756   2.870   5.577  0.9487  1.4566 -0.8456
  587MOL0     O79157  10.540   2.675   5.510  0.4430 -0.1356  0.1782
  587MOL0     C79158  10.693   2.368   5.582  0.2716  0.3734 -0.3624
  587MOL0     C79159  10.675   2.230   5.568 -0.3564  0.2460  0.1454
  587MOL0     N79160  10.544   1.924   6.062  0.9162 -0.0440  0.3232
  587MOL0     N79161  10.587   1.878   6.169  0.1508 -0.7784 -0.3634
  587MOL0     C79162  10.843   2.520   7.250  1.7190 -0.0842  0.6581
  587MOL0     C79163  10.939   2.599   7.313  0.3088  0.1927 -0.4623
  587MOL0     C79164  11.206   2.796   7.552 -0.7242  0.2687 -0.0398
  587MOL0     C79165  11.350   2.791   7.529 -0.3774 -0.4768  0.2465
  587MOL0     C79166  11.439   2.789   7.644  0.0112 -0.8297  1.1322
  587MOL0     C79167  11.384   2.776   7.776 -0.7996 -0.1580 -0.3416
  587MOL0     O79168  11.470   2.786   7.884 -1.2491  0.1263  0.5357
  587MOL0     C79169  11.447   2.698   7.988  0.1427 -0.1129  0.1447
  587MOL0     C79170  11.560   2.658   8.079  0.4949  1.0238  0.1843
  587MOL0     C79171  11.625   2.520   8.037 -1.0309  0.5246 -0.5123
  587MOL0     C79172  11.763   2.508   8.088 -0.6095  0.9984  0.0089
  587MOL0     C79173  11.834   2.409   8.006  0.1727 -0.0389  1.0490
  587MOL0     C79174  11.864   2.322   7.926 -0.1327 -1.2455  0.3067
  587MOL0     C79175  11.244   2.783   7.790  0.5213  0.1428 -0.9387
  587MOL0     C79176  11.155   2.807   7.691 -0.4422 -0.4309  0.2941
  587MOL0     C79177  11.008   2.808   7.724  0.3250 -1.1784 -0.5388
  587MOL0     H79178  11.167   2.656   7.079  2.7567 -1.9447  2.9943
  587MOL0     H79179  10.992   2.527   6.945  1.9765 -0.5051  0.7946
  587MOL0     H79180  10.726   2.316   7.208  4.1759  2.0547 -0.8637
  587MOL0     H79181  10.596   2.368   7.094 -1.1276 -1.6397  1.5798
  587MOL0     H79182  10.626   2.128   7.118 -0.1899  1.2936  0.8460
  587MOL0     H79183  10.790   2.149   7.049  0.7804  1.5186 -2.1709
  587MOL0     H79184  10.692   2.247   6.840  1.2595 -0.3256  0.2032
  587MOL0     H79185  10.520   2.229   6.901  0.6270  0.6223  0.5696
  587MOL0     H79186  10.713   2.014   6.857 -0.4093 -0.9050  3.4196
  587MOL0     H79187  10.550   1.985   6.912 -0.8962  1.0706  1.6192
  587MOL0     H79188  10.435   2.084   6.718 -0.7751 -1.7833 -0.7782
  587MOL0     H79189  10.587   2.137   6.647 -1.6791 -0.3568 -1.3441
  587MOL0     H79190  10.639   1.875   6.632  0.6686  0.8092 -0.8605
  587MOL0     H79191  10.468   1.868   6.688 -0.3719  0.6192 -0.3554
  587MOL0     H79192  10.534   2.030   6.442 -1.9772 -0.2172 -2.8340
  587MOL0     H79193  10.381   1.964   6.496 -0.9432  1.1256 -0.3674
  587MOL0     H79194  10.603   1.782   6.408  0.9672  0.1269 -3.1327
  587MOL0     H79195  10.431   1.745   6.422  2.0940 -1.3486 -2.4140
  587MOL0     H79196  10.277   1.930   6.232 -0.7296 -1.4825 -1.9423
  587MOL0     H79197  10.221   1.975   5.993  0.9746 -0.0791  0.7177
  587MOL0     H79198  10.307   2.118   5.968 -1.2629  0.4194  1.6121
  587MOL0     H79199  10.368   1.849   5.826 -2.6650  0.0063  1.5955
  587MOL0     H79200  10.251   1.967   5.764 -0.5838 -0.4921  0.4352
  587MOL0     H79201  10.555   1.994   5.793  1.2063  2.0361 -0.8312
  587MOL0     H79202  10.444   2.131   5.741 -0.1722  0.0416  4.1150
  587MOL0     H79203  10.358   2.011   5.557 -1.5863  0.0383  2.6125
  587MOL0     H79204  10.455   1.872   5.584 -2.8836  0.1302 -2.0815
  587MOL0     H79205  10.375   2.222   5.400  1.1254 -0.9547  0.0710
  587MOL0     H79206  10.399   2.449   5.432 -0.9830 -0.2696  2.1185
  587MOL0     H79207  10.812   2.705   5.868 -1.1401  0.7085  2.1693
  587MOL0     H79208  10.867   2.918   5.949  0.6353 -0.8875 -1.0321
  587MOL0     H79209  10.883   3.175   5.979  0.2685  0.0206 -0.1696
  587MOL0     H79210  11.014   3.063   5.940 -2.7700 -1.8654 -0.2751
  587MOL0     H79211  11.103   3.284   5.994 -0.6448  0.7165  0.0670
  587MOL0     H79212  11.144   3.231   5.832 -0.1044 -1.9020  0.7946
  587MOL0     H79213  11.091   3.455   5.770 -1.5349  1.1849  0.2534
  587MOL0     H79214  10.931   3.382   5.763 -0.5174  1.5063 -0.2133
  587MOL0     H79215  11.059   3.509   6.014  0.6430  0.7174  0.4135
  587MOL0     H79216  10.906   3.441   6.015  1.8550  1.3398  2.1170
  587MOL0     H79217  10.880   3.681   5.977  4.3178  0.4123  1.6291
  587MOL0     H79218  10.850   3.606   5.816 -1.2802 -1.5910  0.8838
  587MOL0     H79219  11.096   3.667   5.765 -1.8744 -1.0878 -1.8418
  587MOL0     H79220  10.976   3.789   5.757 -3.9372 -1.2459  1.0140
  587MOL0     H79221  11.196   3.764   5.976 -0.5060  0.7815 -0.1451
  587MOL0     H79222  11.053   3.843   6.019  0.3387 -1.8722 -0.3364
  587MOL0     H79223  11.186   3.921   5.755  0.5696 -1.2266  0.3397
  587MOL0     H79224  11.069   4.009   5.858 -0.4471 -0.9878  0.7338
  587MOL0     H79225  10.799   3.086   5.560  2.7229  1.0253  0.7427
  587MOL0     H79226  10.727   2.856   5.473 -0.7229 -2.9386  0.0120
  587MOL0     H79227  10.774   2.394   5.650 -0.5754 -1.0700  1.3065
  587MOL0     H79228  10.752   2.159   5.594  0.5348  0.9452 -0.5096
  587MOL0     H79229  10.760   2.487   7.312  0.6137  0.3907 -0.5042
  587MOL0     H79230  10.923   2.601   7.420  0.0842  0.3635 -0.4984
  587MOL0     H79231  11.395   2.774   7.432  1.0054 -2.0358  1.0964
  587MOL0     H79232  11.545   2.801   7.624  0.1244 -0.1210  2.1220
  587MOL0     H79233  11.406   2.611   7.936  0.9580  1.0980 -2.6828
  587MOL0     H79234  11.374   2.743   8.056 -0.2158 -0.9379  0.3215
  587MOL0     H79235  11.532   2.635   8.183  1.9588 -0.4657  0.2831
  587MOL0     H79236  11.631   2.741   8.079 -0.0958  1.5861 -1.8394
  587MOL0     H79237  11.624   2.500   7.929 -0.9637  0.4569 -0.5010
  587MOL0     H79238  11.570   2.435   8.079  1.3264 -0.4687  0.7175
  587MOL0     H79239  11.817   2.603   8.077 -1.7995  1.6202 -0.7870
  587MOL0     H79240  11.764   2.485   8.194  1.8857  1.7391  0.2216
  587MOL0     H79241  11.878   2.249   7.849 -0.4533  0.5229 -1.5326
  587MOL0     H79242  11.203   2.770   7.889 -1.9566 -2.9504 -2.1950
  587MOL0     H79243  10.940   2.758   7.654 -2.5582  0.8619  0.6189
  587MOL0     H79244  10.995   2.756   7.819 -0.8954 -1.7556 -0.9906
  587MOL0     H79245  10.955   2.903   7.731  2.0328 -0.2387  0.1966
  588MOL0     O79246   5.894   4.096   0.091 -0.0988 -0.0672  0.4094
  588MOL0     C79247   5.803   4.032   0.049  0.3305 -0.2236  0.8170
  588MOL0     O79248   5.763   3.913   0.102 -0.3095  0.3267  0.3255
  588MOL0     C79249   5.848   3.823   0.179  0.0006  0.1984 -0.3015
  588MOL0     C79250   5.970   3.858   0.241 -0.9623 -0.3056  0.6722
  588MOL0     C79251   6.041   3.763   0.318 -0.7622 -0.7717 -0.8940
  588MOL0     C79252   5.998   3.627   0.316 -0.1458 -0.0070  0.1085
  588MOL0     O79253   6.074   3.545   0.396  0.0382  0.4479 -0.1118
  588MOL0     C79254   6.082   3.408   0.358  0.0073  0.5620  0.3149
  588MOL0     C79255   6.221   3.348   0.368 -0.8569  0.4591 -0.0453
  588MOL0     C79256   6.297   3.399   0.500  0.0874  1.0818  0.4765
  588MOL0     C79257   6.232   3.358   0.636 -0.5333 -0.0593  0.5020
  588MOL0     C79258   6.297   3.412   0.763 -0.4142 -0.0551 -0.3782
  588MOL0     C79259   6.285   3.567   0.771 -0.4529 -0.7032  0.2551
  588MOL0     C79260   6.318   3.598   0.926  0.6954 -0.4286  0.8689
  588MOL0     C79261   6.295   3.749   0.952 -0.0106  0.4707  0.3303
  588MOL0     N79262   6.144   3.784   0.938  1.1179  0.2811  0.2084
  588MOL0     C79263   6.054   3.795   1.048  0.2192  0.2826  0.9980
  588MOL0     C79264   5.954   3.870   0.998 -0.0959 -0.4843  0.4921
  588MOL0     C79265   5.827   3.898   1.074 -0.4709  0.3095  0.4296
  588MOL0     C79266   5.755   4.035   1.058  1.2269 -0.0580  0.5504
  588MOL0     C79267   5.677   4.041   0.922  0.7734  1.0250  0.6102
  588MOL0     C79268   5.642   4.182   0.888  0.3217 -0.2952  0.6728
  588MOL0     O79269   5.561   4.186   0.774  0.1166  0.6047  0.3848
  588MOL0     C79270   5.520   4.299   0.713 -0.1966  0.5793  0.3180
  588MOL0     C79271   5.443   4.280   0.599 -0.8959 -0.3694 -0.3498
  588MOL0     C79272   5.376   4.388   0.544 -0.0914  0.3800 -0.5816
  588MOL0     C79273   5.386   4.522   0.593 -0.7587 -0.1892  0.0004
  588MOL0     C79274   5.325   4.633   0.537  0.6619  0.1085  1.2499
  588MOL0     O79275   5.276   4.621   0.397  0.5831 -0.2970 -0.7753
  588MOL0     C79276   5.173   4.702   0.354 -0.4032  0.2678  0.0074
  588MOL0     C79277   5.143   4.691   0.219  0.6966  0.1658  0.8820
  588MOL0     C79278   5.026   4.740   0.165  0.5610 -0.3511  0.1561
  588MOL0     C79279   4.927   4.802   0.242  0.1274  0.3018  0.1775
  588MOL0     O79280   4.815   4.854   0.177 -0.0965  0.4416 -0.4306
  588MOL0     C79281   4.700   4.882   0.254  0.8142  0.3947 -0.4221
  588MOL0     C79282   4.570   4.884   0.175 -0.1778 -0.0825  0.7437
  588MOL0     C79283   4.545   5.017   0.102 -0.3712 -0.4511 -0.0705
  588MOL0     C79284   4.405   5.031   0.046 -0.3872  0.1473  0.3924
  588MOL0     C79285   4.391   5.174  -0.007  1.0620  0.3025 -0.4482
  588MOL0     C79286   4.256   5.205  -0.067  0.1428 -0.2783 -0.2552
  588MOL0     C79287   4.229   5.149  -0.209 -0.2752 -0.7952  0.0315
  588MOL0     C79288   4.096   5.196  -0.263  1.0326  0.7229 -0.3217
  588MOL0    Cl79289   4.054   5.079  -0.387  0.5326  0.9320  0.5627
  588MOL0     C79290   4.963   4.826   0.377  0.4561 -0.4584  0.7111
  588MOL0     C79291   5.076   4.766   0.437 -0.7156  0.0044 -0.1999
  588MOL0     O79292   5.321   4.736   0.602 -0.9927 -0.1824  0.6738
  588MOL0     C79293   5.469   4.526   0.703  0.0272 -0.7056  1.0938
  588MOL0     C79294   5.541   4.424   0.762  0.5642  0.9516  0.7404
  588MOL0     N79295   5.987   3.913   0.865 -0.3118  0.0556  0.4117
  588MOL0     N79296   6.097   3.855   0.829  0.5519  0.2126 -0.2201
  588MOL0     C79297   5.866   3.594   0.266 -0.1047  0.7475 -0.4625
  588MOL0     C79298   5.793   3.691   0.204 -0.9948 -1.0786 -0.0484
  588MOL0     C79299   5.709   4.101  -0.048  0.7981 -0.3280 -0.0226
  588MOL0     C79300   5.605   4.020  -0.102 -0.4883  0.4525 -0.0429
  588MOL0     C79301   5.510   4.069  -0.190 -0.3356  0.7732  0.2600
  588MOL0     C79302   5.507   4.203  -0.227 -0.0402  0.9543  0.2538
  588MOL0     O79303   5.414   4.269  -0.317 -0.9794 -0.3613 -0.4435
  588MOL0     C79304   5.319   4.192  -0.394  0.2423  0.1703 -0.5111
  588MOL0     C79305   5.364   4.159  -0.537 -0.4863  0.6392  0.3543
  588MOL0     C79306   5.322   4.011  -0.571 -0.4917  0.5131  0.9352
  588MOL0     C79307   5.347   3.983  -0.719  0.3326 -0.4735 -0.9083
  588MOL0     C79308   5.334   3.831  -0.730  0.0104 -0.2775  0.0626
  588MOL0     C79309   5.343   3.712  -0.743 -0.5882 -0.6524  0.6766
  588MOL0     C79310   5.601   4.277  -0.173  0.1384 -0.2171 -0.4445
  588MOL0     C79311   5.702   4.238  -0.074  0.6834 -0.3722  0.6531
  588MOL0     C79312   5.807   4.343  -0.025  0.2825 -0.6248  0.3654
  588MOL0     H79313   6.015   3.957   0.241 -0.9523 -0.2315  3.0707
  588MOL0     H79314   6.132   3.802   0.364 -0.4497 -2.5569  0.1024
  588MOL0     H79315   6.023   3.346   0.427  1.1764 -1.3160 -0.3062
  588MOL0     H79316   6.032   3.386   0.263 -2.2688  0.6093  1.4129
  588MOL0     H79317   6.287   3.387   0.290  0.6323 -1.5049  0.1450
  588MOL0     H79318   6.223   3.239   0.358  1.8623  0.6419 -3.0937
  588MOL0     H79319   6.317   3.504   0.478  1.5444 -0.0805 -5.5156
  588MOL0     H79320   6.392   3.347   0.482 -0.9100  0.1956 -2.8220
  588MOL0     H79321   6.126   3.381   0.631 -0.9484 -1.8991  0.0579
  588MOL0     H79322   6.249   3.250   0.648 -1.7033 -0.6480 -2.4186
  588MOL0     H79323   6.252   3.378   0.857 -1.9542  1.8500 -0.3459
  588MOL0     H79324   6.400   3.375   0.761 -0.8197 -1.3374  0.6898
  588MOL0     H79325   6.348   3.619   0.699  0.0361 -0.8238  0.5866
  588MOL0     H79326   6.184   3.607   0.761 -0.4009  0.5980  3.6560
  588MOL0     H79327   6.417   3.563   0.957  0.2624 -0.4094  2.3559
  588MOL0     H79328   6.245   3.545   0.988  0.2591 -0.0578  0.6808
  588MOL0     H79329   6.330   3.764   1.055 -1.3966  3.1319  0.5039
  588MOL0     H79330   6.357   3.799   0.877  0.2009 -1.7704 -1.0980
  588MOL0     H79331   6.063   3.748   1.145  0.5245  0.9543  1.3010
  588MOL0     H79332   5.760   3.817   1.046 -3.7121  2.6701  0.7350
  588MOL0     H79333   5.859   3.891   1.179  1.3362  0.6756 -0.0597
  588MOL0     H79334   5.674   4.046   1.131  2.1282 -2.2272  1.9883
  588MOL0     H79335   5.822   4.122   1.059  1.1067  0.0897 -1.1898
  588MOL0     H79336   5.592   3.972   0.921  1.2749  0.2884 -2.4676
  588MOL0     H79337   5.744   3.999   0.847 -2.8050 -0.4801 -2.0362
  588MOL0     H79338   5.730   4.243   0.863 -2.1729  3.5379  0.4277
  588MOL0     H79339   5.597   4.236   0.972  0.8932  3.1817 -1.0831
  588MOL0     H79340   5.425   4.185   0.549 -1.2209  1.4501 -4.1162
  588MOL0     H79341   5.313   4.364   0.459 -4.0923 -0.3110  2.2842
  588MOL0     H79342   5.213   4.645   0.150 -0.6465 -0.5893 -0.0164
  588MOL0     H79343   5.009   4.738   0.058 -0.1982 -2.3520  0.2620
  588MOL0     H79344   4.686   4.810   0.336 -0.7748 -0.5106 -1.4323
  588MOL0     H79345   4.709   4.982   0.297  2.6079 -0.2801  0.9073
  588MOL0     H79346   4.558   4.792   0.117 -1.3104 -0.8185  2.0838
  588MOL0     H79347   4.483   4.889   0.242  1.2695  1.6269  2.6189
  588MOL0     H79348   4.569   5.097   0.172 -0.3507  0.1616 -0.7605
  588MOL0     H79349   4.614   5.037   0.019 -2.8496 -1.7934 -2.6490
  588MOL0     H79350   4.328   5.008   0.120 -0.5694 -1.1543 -0.1730
  588MOL0     H79351   4.392   4.959  -0.035  0.7618  0.9894 -0.5814
  588MOL0     H79352   4.468   5.201  -0.080  0.9649  0.9686 -0.3074
  588MOL0     H79353   4.409   5.238   0.080 -1.7967  0.6637 -0.0413
  588MOL0     H79354   4.172   5.172  -0.006  0.3637  0.2148  0.3255
  588MOL0     H79355   4.247   5.313  -0.073 -2.0405 -0.4950 -1.9800
  588MOL0     H79356   4.220   5.041  -0.196 -0.0169 -0.8151  0.0527
  588MOL0     H79357   4.308   5.169  -0.282 -1.8449  0.3047 -1.4705
  588MOL0     H79358   4.027   5.205  -0.178  0.9981  3.5588 -0.5461
  588MOL0     H79359   4.087   5.292  -0.314  4.1834  0.1936 -2.1455
  588MOL0     H79360   4.893   4.875   0.444  2.4766  3.0345  0.4987
  588MOL0     H79361   5.089   4.782   0.544 -0.6648  0.0571 -0.2134
  588MOL0     H79362   5.476   4.620   0.755  0.1865 -0.0164 -0.1441
  588MOL0     H79363   5.589   4.441   0.858  4.0167  2.7486 -1.0925
  588MOL0     H79364   5.826   3.493   0.275 -0.9176  1.2270  2.1816
  588MOL0     H79365   5.696   3.667   0.162 -1.1159  0.3654 -0.6434
  588MOL0     H79366   5.609   3.915  -0.076  3.3199  0.3791 -0.3138
  588MOL0     H79367   5.439   3.993  -0.221 -1.9230  2.0004  0.7686
  588MOL0     H79368   5.223   4.244  -0.389  1.4060  2.3451  3.6719
  588MOL0     H79369   5.297   4.107  -0.329  1.9334  2.6213  3.6505
  588MOL0     H79370   5.472   4.172  -0.541 -0.1230 -2.0419 -1.2941
  588MOL0     H79371   5.318   4.232  -0.605  1.9981  1.9876 -0.0047
  588MOL0     H79372   5.224   3.987  -0.531  0.5578  1.5019  4.4816
  588MOL0     H79373   5.387   3.967  -0.495 -1.0740  1.5928  2.1056
  588MOL0     H79374   5.279   4.028  -0.791  0.9084 -1.8013 -2.3545
  588MOL0     H79375   5.452   3.997  -0.748  0.2752 -0.0052 -0.8869
  588MOL0     H79376   5.360   3.606  -0.746  1.2264 -0.3721  0.3498
  588MOL0     H79377   5.611   4.382  -0.199 -1.5954  0.0860  0.0211
  588MOL0     H79378   5.892   4.357  -0.091  1.4620  0.1535  1.9752
  588MOL0     H79379   5.764   4.443  -0.031  3.1629  0.6664 -0.3198
  588MOL0     H79380   5.833   4.333   0.081  0.2399 -3.2741  0.1988
  589MOL0     O79381   6.512   2.941   6.487 -0.1611 -0.0169 -0.8146
  589MOL0     C79382   6.495   3.047   6.544  0.3372 -0.3711 -1.3165
  589MOL0     O79383   6.404   3.090   6.641 -0.4132 -0.0594 -0.8629
  589MOL0     C79384   6.305   3.003   6.682  0.2656  0.6213 -0.9163
  589MOL0     C79385   6.247   2.896   6.611  0.1500  0.3241 -0.3378
  589MOL0     C79386   6.166   2.797   6.691  0.5257 -1.0671  0.4183
  589MOL0     C79387   6.111   2.838   6.814  1.0760 -1.0316 -0.2633
  589MOL0     O79388   6.044   2.752   6.894  0.6434 -0.1849 -0.5821
  589MOL0     C79389   5.912   2.694   6.866 -0.4328  0.3628 -0.7451
  589MOL0     C79390   5.907   2.550   6.902  0.2507  0.2782  0.3121
  589MOL0     C79391   6.022   2.476   6.828 -0.6296  0.8573 -0.4705
  589MOL0     C79392   5.990   2.324   6.828 -0.5249 -0.6352 -0.5527
  589MOL0     C79393   6.099   2.232   6.769 -1.3098  0.9516 -0.0071
  589MOL0     C79394   6.246   2.248   6.830 -0.1592  0.3717  0.1922
  589MOL0     C79395   6.345   2.147   6.777 -0.3922  0.8858  0.1855
  589MOL0     C79396   6.412   2.183   6.641 -0.5040 -1.0628  0.4736
  589MOL0     N79397   6.532   2.269   6.670  1.3324 -0.7359  0.9033
  589MOL0     C79398   6.531   2.407   6.678 -0.3792  0.2636 -0.3092
  589MOL0     C79399   6.661   2.447   6.671  0.1681 -0.3149 -0.2252
  589MOL0     C79400   6.724   2.585   6.667 -0.5368  0.3959  0.1021
  589MOL0     C79401   6.649   2.678   6.561 -0.1625 -0.5102  0.8424
  589MOL0     C79402   6.636   2.628   6.415  0.3888  0.1397 -0.4142
  589MOL0     C79403   6.768   2.581   6.350  0.3844 -1.0834  0.0680
  589MOL0     O79404   6.758   2.537   6.209 -0.3410 -0.6609  0.1936
  589MOL0     C79405   6.721   2.413   6.176 -0.7517  0.7965 -0.1917
  589MOL0     C79406   6.746   2.356   6.047 -0.3706 -0.1409 -0.2326
  589MOL0     C79407   6.699   2.226   6.015  0.4469  0.2852  0.7115
  589MOL0     C79408   6.632   2.148   6.107 -0.3885  0.3364 -0.8020
  589MOL0     C79409   6.573   2.018   6.067 -0.1498  0.5800  0.6006
  589MOL0     O79410   6.509   1.963   6.168  0.0335  0.7545 -0.3509
  589MOL0     C79411   6.422   1.849   6.155  0.0129 -1.0447  0.4629
  589MOL0     C79412   6.332   1.818   6.049  0.4485  0.0376  0.2984
  589MOL0     C79413   6.276   1.696   6.047 -0.4903  0.0658  0.2068
  589MOL0     C79414   6.288   1.604   6.148  0.5501 -0.0437  0.2743
  589MOL0     O79415   6.220   1.483   6.146  0.1964  0.0949  0.6990
  589MOL0     C79416   6.230   1.382   6.255 -1.7114 -0.5234  0.2789
  589MOL0     C79417   6.102   1.313   6.234  0.2177  0.4846 -0.2360
  589MOL0     C79418   6.123   1.188   6.322  0.2003 -0.0421  0.8587
  589MOL0     C79419   5.999   1.090   6.306 -0.5185 -0.0796 -0.6057
  589MOL0     C79420   5.965   1.023   6.440  0.0583  0.2056  0.4397
  589MOL0     C79421   5.863   0.906   6.430  0.1020  0.5332  0.5648
  589MOL0     C79422   5.726   0.957   6.373 -0.5792  0.2302  0.8850
  589MOL0     C79423   5.617   0.858   6.386 -0.1546  0.2305  0.2586
  589MOL0    Cl79424   5.632   0.723   6.265 -0.6838  0.3948  0.3448
  589MOL0     C79425   6.371   1.635   6.259 -0.0315  0.1476  0.1405
  589MOL0     C79426   6.428   1.763   6.264  0.1895 -0.6329  0.3551
  589MOL0     O79427   6.593   1.966   5.949  0.0978 -0.6434  0.0838
  589MOL0     C79428   6.609   2.205   6.233 -0.1314  0.3696 -0.1830
  589MOL0     C79429   6.663   2.326   6.273 -0.2657 -0.2014  0.1686
  589MOL0     N79430   6.744   2.336   6.666  0.9864  0.3043 -0.5340
  589MOL0     N79431   6.660   2.234   6.655 -0.5422  0.6750 -0.5985
  589MOL0     C79432   6.154   2.955   6.872 -0.0484  0.2093  0.3650
  589MOL0     C79433   6.250   3.031   6.810  0.2403  0.3036  0.5773
  589MOL0     C79434   6.590   3.153   6.496  0.5255  0.9245 -0.1236
  589MOL0     C79435   6.672   3.133   6.385 -0.2193 -0.9739  1.1152
  589MOL0     C79436   6.782   3.200   6.351  0.7007 -0.2851  0.1498
  589MOL0     C79437   6.814   3.313   6.425  0.2102  0.1878  0.6268
  589MOL0     O79438   6.911   3.384   6.369 -0.1780 -0.0976 -0.5196
  589MOL0     C79439   7.021   3.428   6.459 -0.0140  1.1200  0.3851
  589MOL0     C79440   7.120   3.514   6.370 -0.6210 -0.1985  0.7122
  589MOL0     C79441   7.079   3.660   6.362 -0.0883 -0.1232 -0.5878
  589MOL0     C79442   7.129   3.729   6.230 -0.2927 -0.8092 -0.5089
  589MOL0     C79443   7.125   3.874   6.220 -0.3104 -0.1918 -0.6197
  589MOL0     C79444   7.110   3.993   6.247  0.3163 -0.4979  0.3320
  589MOL0     C79445   6.735   3.348   6.532 -0.5770  0.4043 -0.1772
  589MOL0     C79446   6.624   3.275   6.574 -0.0419 -0.1360  0.6481
  589MOL0     C79447   6.534   3.335   6.691 -0.1699  0.2590 -0.3625
  589MOL0     H79448   6.261   2.892   6.504  3.7160  4.9213 -0.3653
  589MOL0     H79449   6.136   2.706   6.640  0.0519 -0.3969 -0.5405
  589MOL0     H79450   5.829   2.746   6.916  0.7285  1.6794 -0.1353
  589MOL0     H79451   5.898   2.699   6.758 -1.8845 -1.3171 -0.6990
  589MOL0     H79452   5.810   2.501   6.888 -1.5139  3.2032  1.3106
  589MOL0     H79453   5.934   2.537   7.007  0.0517 -1.6585  0.1490
  589MOL0     H79454   6.118   2.497   6.875  1.3202 -3.8819 -1.7243
  589MOL0     H79455   6.020   2.513   6.725 -0.6066 -1.8806 -1.5513
  589MOL0     H79456   5.954   2.292   6.926  1.0423 -1.4361 -0.1987
  589MOL0     H79457   5.902   2.319   6.763 -0.3279 -2.2057 -0.7443
  589MOL0     H79458   6.073   2.126   6.776  2.3592 -0.0197  1.2333
  589MOL0     H79459   6.102   2.261   6.664  1.0053  0.1576 -0.2296
  589MOL0     H79460   6.287   2.350   6.831 -1.7070  1.0439  2.0742
  589MOL0     H79461   6.242   2.235   6.938  3.0376  1.0219  0.4883
  589MOL0     H79462   6.290   2.053   6.775 -2.1195  1.8275  0.8358
  589MOL0     H79463   6.424   2.154   6.853  0.7494  0.4894 -0.9266
  589MOL0     H79464   6.460   2.092   6.602  0.2444 -0.3648 -0.2796
  589MOL0     H79465   6.345   2.222   6.564  0.6693 -1.6581 -0.9146
  589MOL0     H79466   6.449   2.477   6.664  0.5175  1.6514  1.1524
  589MOL0     H79467   6.723   2.632   6.766  1.6801  0.2815  0.2281
  589MOL0     H79468   6.828   2.580   6.634 -1.1425  1.9943 -2.3814
  589MOL0     H79469   6.547   2.688   6.600 -0.3769  4.2120 -0.3272
  589MOL0     H79470   6.687   2.780   6.558 -0.8620 -0.2469  0.5934
  589MOL0     H79471   6.598   2.711   6.355 -0.1857  1.2251  1.3829
  589MOL0     H79472   6.565   2.546   6.410  0.8729 -0.3922  1.0968
  589MOL0     H79473   6.806   2.495   6.407  1.6544 -1.4482 -1.2781
  589MOL0     H79474   6.843   2.659   6.370  1.5025 -2.3126  0.8971
  589MOL0     H79475   6.799   2.421   5.977 -2.3851  0.7878 -0.9817
  589MOL0     H79476   6.729   2.180   5.921 -0.2799 -2.6315  1.7778
  589MOL0     H79477   6.323   1.898   5.977  2.4000  0.0176 -0.0278
  589MOL0     H79478   6.207   1.668   5.969  2.1641 -1.5977 -1.7274
  589MOL0     H79479   6.315   1.318   6.233 -1.8044 -0.8584  0.9003
  589MOL0     H79480   6.238   1.418   6.358  2.9358 -1.5869  0.4629
  589MOL0     H79481   6.026   1.382   6.273 -0.3188 -0.5793  0.6642
  589MOL0     H79482   6.082   1.285   6.131 -1.5580 -2.9972  0.8935
  589MOL0     H79483   6.216   1.134   6.309 -0.6384 -0.8450 -2.8782
  589MOL0     H79484   6.115   1.215   6.428  1.4480  0.9914  0.7131
  589MOL0     H79485   6.032   1.022   6.227 -1.6088 -0.9371 -0.3446
  589MOL0     H79486   5.910   1.144   6.275  0.1553  0.8309 -0.9858
  589MOL0     H79487   5.924   1.104   6.501 -1.2101 -1.6761  2.2353
  589MOL0     H79488   6.055   0.978   6.482 -0.1385 -1.0986 -0.4910
  589MOL0     H79489   5.905   0.820   6.377  2.0701 -0.3953  3.3617
  589MOL0     H79490   5.854   0.864   6.531  2.6737 -4.0920 -0.8056
  589MOL0     H79491   5.732   0.986   6.267  0.9417  1.0004  1.1573
  589MOL0     H79492   5.693   1.046   6.426  1.1430  1.4365  0.0140
  589MOL0     H79493   5.627   0.817   6.487 -0.1118 -0.4324 -0.0085
  589MOL0     H79494   5.521   0.911   6.382  0.4415  1.2877 -0.5594
  589MOL0     H79495   6.385   1.569   6.344  2.1181  2.0061  1.3330
  589MOL0     H79496   6.493   1.784   6.349 -0.4087 -2.1834  1.2520
  589MOL0     H79497   6.545   2.154   6.304 -0.3304  1.3520  0.3613
  589MOL0     H79498   6.618   2.354   6.368  1.0513 -2.5013  1.5887
  589MOL0     H79499   6.130   2.972   6.977  2.2755  3.3917  0.5025
  589MOL0     H79500   6.294   3.115   6.863  0.6375 -0.9564  2.3321
  589MOL0     H79501   6.648   3.060   6.308 -1.2999  0.0145  0.4800
  589MOL0     H79502   6.849   3.167   6.272  0.0011 -1.9534  0.2347
  589MOL0     H79503   7.082   3.343   6.489  2.2300  2.2966 -0.5475
  589MOL0     H79504   6.990   3.483   6.548 -1.5042 -1.4052  1.5385
  589MOL0     H79505   7.135   3.469   6.271  1.7398 -1.6865  1.6602
  589MOL0     H79506   7.220   3.514   6.415  1.1235  0.8439 -2.7480
  589MOL0     H79507   7.123   3.713   6.448  0.8796 -1.0389 -0.4940
  589MOL0     H79508   6.970   3.661   6.361 -0.1642  2.1965  1.3510
  589MOL0     H79509   7.236   3.712   6.216  0.1587  1.0395  0.3936
  589MOL0     H79510   7.070   3.697   6.144 -3.8030  0.2242  1.2778
  589MOL0     H79511   7.109   4.096   6.276  2.5534 -0.4411  0.3724
  589MOL0     H79512   6.758   3.440   6.585  0.9365 -1.3199  2.4342
  589MOL0     H79513   6.595   3.416   6.732 -0.7389  0.5737 -0.1418
  589MOL0     H79514   6.447   3.367   6.633  0.2094  1.6685 -0.1932
  589MOL0     H79515   6.492   3.274   6.771 -2.5284 -0.6151 -2.1556
  590MOL0     O79516   9.740   3.205   8.170  0.0087  0.1404  0.6063
  590MOL0     C79517   9.852   3.223   8.218  0.3137 -0.1315 -0.8487
  590MOL0     O79518   9.875   3.283   8.333 -0.5256 -0.4909 -0.7955
  590MOL0     C79519   9.778   3.369   8.361  0.2767 -0.7787  0.7293
  590MOL0     C79520   9.780   3.493   8.310 -0.2094  0.0826  0.6087
  590MOL0     C79521   9.688   3.596   8.341  1.5480 -0.7867 -0.5489
  590MOL0     C79522   9.596   3.574   8.442 -0.5435 -0.5873  0.4630
  590MOL0     O79523   9.513   3.677   8.484 -0.4129  0.7572  0.5843
  590MOL0     C79524   9.503   3.813   8.435  0.8270 -0.3840 -0.4463
  590MOL0     C79525   9.627   3.888   8.498  0.0920  0.0932 -0.4304
  590MOL0     C79526   9.661   3.987   8.386 -0.4816 -0.3144  0.0228
  590MOL0     C79527   9.760   4.097   8.417 -0.1104 -0.1808 -0.9031
  590MOL0     C79528   9.694   4.222   8.460  0.0089 -0.2074 -0.6325
  590MOL0     C79529   9.625   4.223   8.592  0.0822  0.3186  0.2155
  590MOL0     C79530   9.555   4.353   8.630  0.6825 -0.2242 -0.7890
  590MOL0     C79531   9.647   4.474   8.635 -0.6929  0.1078 -0.1086
  590MOL0     N79532   9.573   4.590   8.667  0.1645  0.1964 -0.2546
  590MOL0     C79533   9.571   4.703   8.595 -0.3847  0.2656 -0.8252
  590MOL0     C79534   9.477   4.782   8.660 -0.4587 -0.6113 -0.1796
  590MOL0     C79535   9.462   4.935   8.645  0.1797  0.0423 -0.4270
  590MOL0     C79536   9.462   4.977   8.503 -0.0906 -0.5433  0.3039
  590MOL0     C79537   9.450   5.126   8.499 -0.5667  0.1353 -0.4069
  590MOL0     C79538   9.463   5.193   8.370  0.2319  1.1898 -0.0865
  590MOL0     O79539   9.378   5.122   8.274 -0.2550  0.1625  0.9915
  590MOL0     C79540   9.365   5.186   8.153 -0.0296  0.0308 -1.1606
  590MOL0     C79541   9.288   5.120   8.061  0.2876 -0.4848  0.8221
  590MOL0     C79542   9.261   5.183   7.936  1.0054  1.3793 -1.1140
  590MOL0     C79543   9.313   5.303   7.898  0.3998 -0.7361 -0.2257
  590MOL0     C79544   9.265   5.363   7.776 -0.5688  0.8231  0.5632
  590MOL0     O79545   9.217   5.276   7.688 -0.1565  0.0452  0.3272
  590MOL0     C79546   9.210   5.322   7.554  0.3714  0.1570 -0.0353
  590MOL0     C79547   9.085   5.355   7.510  0.9877 -0.4019 -0.1331
  590MOL0     C79548   9.061   5.416   7.386 -0.6777 -0.1894  0.3682
  590MOL0     C79549   9.172   5.446   7.306  0.6420 -0.0624 -0.4209
  590MOL0     O79550   9.169   5.491   7.174  0.7003 -0.4328 -0.6163
  590MOL0     C79551   9.038   5.549   7.141 -0.2657 -0.3185  0.5522
  590MOL0     C79552   9.041   5.646   7.020  0.3230  1.0225 -0.4745
  590MOL0     C79553   8.899   5.622   6.951 -0.1521 -0.6510 -0.2492
  590MOL0     C79554   8.798   5.730   6.998  0.3527  0.9192 -0.4670
  590MOL0     C79555   8.833   5.880   6.974 -0.0555  0.1377  0.1427
  590MOL0     C79556   8.728   5.973   7.040 -0.2414  0.3169 -0.4607
  590MOL0     C79557   8.758   6.125   7.041  0.9079 -0.6430  0.3734
  590MOL0     C79558   8.734   6.190   6.908 -0.0473  0.8675 -0.3451
  590MOL0    Cl79559   8.854   6.141   6.783 -0.1280  0.1225  0.2845
  590MOL0     C79560   9.304   5.423   7.354 -0.6260  0.7379 -0.1543
  590MOL0     C79561   9.322   5.355   7.480 -0.4964 -0.5088  0.4106
  590MOL0     O79562   9.298   5.479   7.750  0.0348  0.1687  0.1565
  590MOL0     C79563   9.395   5.369   7.987  0.5037  0.1596 -0.0956
  590MOL0     C79564   9.422   5.314   8.117 -0.1539  0.3187  0.1145
  590MOL0     N79565   9.426   4.714   8.767 -0.3948  0.6518  0.1619
  590MOL0     N79566   9.492   4.605   8.776  0.2409 -0.0236 -0.2480
  590MOL0     C79567   9.586   3.447   8.499  0.5334  0.1504  0.3395
  590MOL0     C79568   9.671   3.342   8.449 -0.1090  0.2488  0.3857
  590MOL0     C79569   9.970   3.176   8.150 -0.0646  0.8600 -0.0835
  590MOL0     C79570   9.949   3.082   8.050  0.0697  0.0767  0.8921
  590MOL0     C79571  10.055   3.012   7.983  0.6757 -0.3651 -0.1205
  590MOL0     C79572  10.184   3.032   8.033 -0.7864 -0.0086  0.1590
  590MOL0     O79573  10.284   2.945   8.013  0.0734 -0.3831 -0.5381
  590MOL0     C79574  10.411   2.995   7.974  0.5257 -0.5519  0.8869
  590MOL0     C79575  10.428   2.942   7.828  0.7082  0.2396  0.0813
  590MOL0     C79576  10.572   2.940   7.757 -0.2136 -0.0002 -0.6244
  590MOL0     C79577  10.610   3.070   7.685  0.0203 -0.9414  0.5719
  590MOL0     C79578  10.681   3.030   7.561  0.1259  0.1602 -0.0385
  590MOL0     C79579  10.739   2.976   7.468  0.0869  0.5038  0.0337
  590MOL0     C79580  10.206   3.127   8.136 -0.1923 -0.0973 -1.7224
  590MOL0     C79581  10.102   3.196   8.194  0.8741 -0.7281  0.2857
  590MOL0     C79582  10.143   3.293   8.300 -0.1723 -0.3150 -0.2864
  590MOL0     H79583   9.861   3.511   8.240 -0.4203  1.8822  0.7787
  590MOL0     H79584   9.712   3.693   8.297 -0.3549  1.0952  2.2556
  590MOL0     H79585   9.495   3.815   8.326  2.4579 -3.0241 -0.6944
  590MOL0     H79586   9.411   3.852   8.478  0.0596 -2.5788  0.0430
  590MOL0     H79587   9.708   3.815   8.509 -0.9298 -1.7013 -3.6683
  590MOL0     H79588   9.612   3.932   8.597 -0.4228 -1.6067  0.2878
  590MOL0     H79589   9.571   4.026   8.337 -0.3386 -0.5345 -0.4278
  590MOL0     H79590   9.711   3.920   8.315  0.2595 -0.5549  0.7562
  590MOL0     H79591   9.830   4.051   8.488 -0.0214  2.6183  0.9825
  590MOL0     H79592   9.819   4.121   8.328 -1.0564  1.3070 -1.1541
  590MOL0     H79593   9.776   4.294   8.452  0.3170 -0.6104 -1.2174
  590MOL0     H79594   9.616   4.244   8.386 -0.6116  0.9945  0.3523
  590MOL0     H79595   9.557   4.138   8.596  1.1399 -0.5144  1.7257
  590MOL0     H79596   9.693   4.206   8.676  1.4695 -2.6235 -1.3365
  590MOL0     H79597   9.505   4.345   8.727  0.8135  1.5598 -0.5340
  590MOL0     H79598   9.478   4.375   8.555 -1.5889  1.9429  1.9203
  590MOL0     H79599   9.725   4.455   8.709 -2.4767  3.9906  3.2194
  590MOL0     H79600   9.675   4.497   8.532 -2.5171  3.7675  0.0170
  590MOL0     H79601   9.636   4.736   8.515  1.8324 -0.5984  0.5378
  590MOL0     H79602   9.369   4.964   8.695  0.0477 -0.8348 -0.1337
  590MOL0     H79603   9.543   4.981   8.702 -1.1555  0.9144  0.8574
  590MOL0     H79604   9.555   4.951   8.452  0.9234 -2.3640  2.8961
  590MOL0     H79605   9.387   4.914   8.454 -0.2253 -0.1622  0.0058
  590MOL0     H79606   9.517   5.167   8.575 -0.0048 -1.3165 -0.0754
  590MOL0     H79607   9.350   5.141   8.541  0.9968  4.9204  2.3781
  590MOL0     H79608   9.567   5.182   8.341  0.2304 -0.0489  0.3004
  590MOL0     H79609   9.436   5.299   8.382  0.2389  1.3216 -1.1620
  590MOL0     H79610   9.248   5.021   8.077 -1.7454  0.2000  0.2918
  590MOL0     H79611   9.187   5.124   7.883  2.3324 -2.2417  0.7797
  590MOL0     H79612   9.009   5.335   7.585 -0.0569  4.1901  0.3564
  590MOL0     H79613   8.960   5.430   7.349 -0.6943  3.0558  1.3435
  590MOL0     H79614   8.974   5.462   7.122 -0.7410  0.2068 -0.3390
  590MOL0     H79615   8.990   5.601   7.225 -0.8520 -1.6798  1.0779
  590MOL0     H79616   9.051   5.750   7.052 -3.3038 -0.0706  6.0190
  590MOL0     H79617   9.116   5.630   6.942  0.7835 -1.7793  0.4063
  590MOL0     H79618   8.901   5.646   6.844  1.1792  4.5576  0.6632
  590MOL0     H79619   8.870   5.518   6.965  2.2341 -1.6972 -2.2708
  590MOL0     H79620   8.764   5.708   7.100  0.8424 -2.2318 -0.9027
  590MOL0     H79621   8.710   5.707   6.937  0.6826  0.5623 -0.8082
  590MOL0     H79622   8.844   5.894   6.866  0.7957 -0.4535  0.1465
  590MOL0     H79623   8.924   5.911   7.027 -1.3427  3.0719  0.8856
  590MOL0     H79624   8.634   5.943   6.993 -0.4627  0.0032  0.1702
  590MOL0     H79625   8.720   5.946   7.146 -3.5317 -2.1338 -1.1665
  590MOL0     H79626   8.860   6.151   7.073  1.2862  0.4406 -1.5706
  590MOL0     H79627   8.697   6.176   7.116  0.9617 -0.7667  0.5031
  590MOL0     H79628   8.642   6.147   6.867  1.5287 -0.4543 -2.7257
  590MOL0     H79629   8.726   6.298   6.918  2.3941  1.0049  0.7237
  590MOL0     H79630   9.397   5.442   7.301 -0.0902 -1.5784 -0.1390
  590MOL0     H79631   9.421   5.324   7.511  0.7257  0.8683 -1.8489
  590MOL0     H79632   9.414   5.470   7.951 -2.9267  0.2149 -2.2007
  590MOL0     H79633   9.474   5.384   8.182 -2.1446  3.0550 -1.0528
  590MOL0     H79634   9.511   3.431   8.575  1.0698 -2.2409  0.4585
  590MOL0     H79635   9.667   3.243   8.491  1.3116 -0.0545 -0.1118
  590MOL0     H79636   9.846   3.055   8.030 -0.8721  2.8589  1.4877
  590MOL0     H79637  10.042   2.931   7.912  1.7264 -2.0749  1.5219
  590MOL0     H79638  10.499   2.959   8.028  0.9790 -0.5331  0.1730
  590MOL0     H79639  10.410   3.104   7.968  2.8843 -0.5390 -0.5953
  590MOL0     H79640  10.346   2.984   7.769 -0.2593  1.7293  2.3633
  590MOL0     H79641  10.412   2.833   7.831  1.7393  0.0983  2.4359
  590MOL0     H79642  10.586   2.857   7.687  0.7743  0.0833 -0.5452
  590MOL0     H79643  10.642   2.921   7.840  2.0166  1.3948 -2.0775
  590MOL0     H79644  10.515   3.116   7.657  0.2692 -0.7249  0.0705
  590MOL0     H79645  10.666   3.145   7.741 -0.3483 -1.2677  1.3950
  590MOL0     H79646  10.794   2.936   7.385 -0.5991 -0.5963  0.0823
  590MOL0     H79647  10.302   3.144   8.183 -0.0772 -0.0739 -1.9632
  590MOL0     H79648  10.100   3.239   8.385  5.2900 -3.2577  1.1190
  590MOL0     H79649  10.248   3.289   8.330 -0.2802 -2.3803 -0.0084
  590MOL0     H79650  10.106   3.391   8.271 -1.3645 -1.0296 -1.3033
  591MOL0     O79651  10.937   2.564   9.850  0.0618 -0.1979  0.4369
  591MOL0     C79652  10.927   2.503   9.956  0.3357  0.6950 -0.2483
  591MOL0     O79653  10.820   2.509  10.040  1.2032 -0.0819  0.0844
  591MOL0     C79654  10.715   2.598  10.020 -0.4800  0.5168  0.1887
  591MOL0     C79655  10.729   2.733  10.045  0.3394 -0.4576  0.1113
  591MOL0     C79656  10.615   2.824  10.025  0.5233 -0.7002 -0.4226
  591MOL0     C79657  10.500   2.778   9.967  0.3647 -0.4023 -0.8228
  591MOL0     O79658  10.386   2.856   9.957  0.5011  0.1171  0.9165
  591MOL0     C79659  10.325   2.918  10.074  0.1040  0.2331  0.2197
  591MOL0     C79660  10.326   2.836  10.202  0.7082 -0.5156 -0.5447
  591MOL0     C79661  10.246   2.709  10.196 -0.5082 -0.5360 -0.4562
  591MOL0     C79662  10.315   2.590  10.265 -0.3536 -0.2154 -0.7231
  591MOL0     C79663  10.233   2.461  10.259 -0.5077 -0.1722 -0.5929
  591MOL0     C79664  10.300   2.344  10.343 -0.3606  0.3482  0.0174
  591MOL0     C79665  10.347   2.363  10.490 -0.8313  0.1196 -0.0875
  591MOL0     C79666  10.245   2.448  10.581  0.0841 -0.2774  0.7736
  591MOL0     N79667  10.304   2.449  10.721 -0.5095  0.9975 -0.1575
  591MOL0     C79668  10.264   2.351  10.811 -0.1200 -0.2608  0.6271
  591MOL0     C79669  10.372   2.351  10.890 -0.0245  0.2754  0.8470
  591MOL0     C79670  10.372   2.272  11.010  0.3506  0.5724 -0.3323
  591MOL0     C79671  10.480   2.156  10.998  0.0315 -0.7030  0.2306
  591MOL0     C79672  10.451   2.059  10.875 -0.2772 -0.2827 -0.1344
  591MOL0     C79673  10.359   1.941  10.926 -0.0626 -0.5950 -0.2417
  591MOL0     O79674  10.223   1.985  10.952  0.1832  0.2830 -0.7441
  591MOL0     C79675  10.142   2.021  10.845 -0.9277  1.4177  0.0862
  591MOL0     C79676  10.026   2.072  10.879  0.2194 -0.6558 -0.4315
  591MOL0     C79677   9.939   2.128  10.781  0.1724  0.2936 -0.6869
  591MOL0     C79678   9.979   2.131  10.644 -0.0036  0.1338  0.4917
  591MOL0     C79679   9.902   2.210  10.543 -0.2310 -0.0943  0.4007
  591MOL0     O79680   9.936   2.214  10.412 -0.2556 -0.1145 -0.7723
  591MOL0     C79681   9.854   2.259  10.308  0.4355 -0.0306 -0.4400
  591MOL0     C79682   9.925   2.303  10.194  0.3252 -0.3810 -0.1495
  591MOL0     C79683   9.848   2.370  10.090 -0.4067  0.7576  0.1400
  591MOL0     C79684   9.711   2.376  10.094  0.4079 -0.2476  0.2617
  591MOL0     O79685   9.648   2.432   9.993  0.4061 -0.0406  0.3570
  591MOL0     C79686   9.649   2.355   9.875  0.3581 -0.8380 -0.1673
  591MOL0     C79687   9.657   2.447   9.760  0.6374 -0.3429  0.3758
  591MOL0     C79688   9.670   2.371   9.616  0.2041 -0.0181 -0.2445
  591MOL0     C79689   9.641   2.473   9.509  0.6417 -0.1072 -0.4459
  591MOL0     C79690   9.683   2.444   9.364  1.1151 -0.6094  0.8733
  591MOL0     C79691   9.648   2.554   9.258 -0.1103  0.0817  0.3959
  591MOL0     C79692   9.706   2.540   9.120  0.1499  1.2777 -0.5246
  591MOL0     C79693   9.669   2.666   9.033 -0.1388 -0.3155 -0.4988
  591MOL0    Cl79694   9.746   2.627   8.885 -0.2334  0.3891 -0.2311
  591MOL0     C79695   9.645   2.343  10.208  0.1030 -1.0069  0.2750
  591MOL0     C79696   9.712   2.289  10.317 -0.0699 -0.9780 -0.8767
  591MOL0     O79697   9.806   2.276  10.587  0.7841 -0.2343  0.5094
  591MOL0     C79698  10.099   2.073  10.610 -0.0491  0.4922  0.2875
  591MOL0     C79699  10.183   2.017  10.707  0.1856  0.6369 -0.2042
  591MOL0     N79700  10.472   2.436  10.843  0.6778 -1.0919 -0.1404
  591MOL0     N79701  10.428   2.499  10.745 -0.0156 -0.5586 -0.4488
  591MOL0     C79702  10.482   2.643   9.943 -0.4639  0.3939 -0.3264
  591MOL0     C79703  10.593   2.552   9.968  0.6660 -0.5795  0.3882
  591MOL0     C79704  11.032   2.410  10.003  0.1379 -0.1150 -0.1988
  591MOL0     C79705  11.036   2.396  10.142 -0.2260 -0.1279 -0.2945
  591MOL0     C79706  11.120   2.298  10.193  1.0065  1.3270  0.2526
  591MOL0     C79707  11.215   2.229  10.117  1.2789  0.9554  0.7051
  591MOL0     O79708  11.323   2.164  10.172 -0.4992  0.9839  0.0794
  591MOL0     C79709  11.322   2.133  10.312  0.0539 -0.3222 -0.1746
  591MOL0     C79710  11.230   2.012  10.352 -0.3683  0.3380  0.0673
  591MOL0     C79711  11.227   1.878  10.273 -0.0254 -0.0009 -0.7942
  591MOL0     C79712  11.144   1.782  10.356  0.2588 -0.1736 -0.0226
  591MOL0     C79713  11.160   1.645  10.313 -0.3729 -0.3827 -0.2116
  591MOL0     C79714  11.194   1.533  10.292  0.3135 -0.8038 -0.2068
  591MOL0     C79715  11.218   2.263   9.983 -0.0176  0.0436  0.2384
  591MOL0     C79716  11.126   2.341   9.918  0.3774 -0.6437 -0.4208
  591MOL0     C79717  11.144   2.366   9.769  0.1912 -0.3340  0.9136
  591MOL0     H79718  10.819   2.782  10.078 -1.9045  4.1231  0.2376
  591MOL0     H79719  10.633   2.929  10.045  0.1864 -0.8263  0.5694
  591MOL0     H79720  10.389   3.003  10.099 -0.9681  0.9435  0.6167
  591MOL0     H79721  10.227   2.961  10.053  1.7694  3.1986 -2.2511
  591MOL0     H79722  10.287   2.906  10.277  3.1919  0.3352  0.0506
  591MOL0     H79723  10.429   2.818  10.234  0.6639  2.9962  2.2137
  591MOL0     H79724  10.230   2.684  10.091  0.4030 -2.9356 -0.0724
  591MOL0     H79725  10.148   2.726  10.242 -0.1120  0.8769 -0.0787
  591MOL0     H79726  10.406   2.570  10.209  0.3850  3.5251 -1.1656
  591MOL0     H79727  10.355   2.607  10.366 -1.7201  1.1989 -0.3854
  591MOL0     H79728  10.135   2.471  10.306  0.5718  1.5439  1.5050
  591MOL0     H79729  10.232   2.423  10.157  1.5279 -1.0466 -0.3453
  591MOL0     H79730  10.223   2.266  10.348 -0.6184  0.6455  0.9418
  591MOL0     H79731  10.384   2.311  10.282  0.0636  0.7666  0.3674
  591MOL0     H79732  10.442   2.417  10.485 -0.9824  0.2851 -1.7858
  591MOL0     H79733  10.374   2.264  10.526  2.0914 -0.0787 -2.3990
  591MOL0     H79734  10.254   2.549  10.540 -0.6401 -0.3926  0.3105
  591MOL0     H79735  10.141   2.418  10.565  0.5461 -1.8565  0.5469
  591MOL0     H79736  10.165   2.306  10.817 -1.6464  1.7007 -4.3858
  591MOL0     H79737  10.406   2.331  11.096 -3.1066  0.1213  1.5040
  591MOL0     H79738  10.270   2.246  11.038 -0.9149  2.3988 -2.8387
  591MOL0     H79739  10.570   2.212  10.974 -1.1409  2.1870  2.0201
  591MOL0     H79740  10.493   2.103  11.093 -0.4596 -2.2694 -0.5438
  591MOL0     H79741  10.546   2.012  10.847 -1.6062 -2.1832 -1.7168
  591MOL0     H79742  10.420   2.120  10.790 -0.7401 -1.0611 -0.5430
  591MOL0     H79743  10.421   1.904  11.008  0.4695 -0.1348 -0.4207
  591MOL0     H79744  10.357   1.863  10.850  2.1025  0.9430 -2.0080
  591MOL0     H79745   9.999   2.064  10.983 -0.1198 -0.2433 -0.4859
  591MOL0     H79746   9.848   2.178  10.813  0.2526 -0.2678  0.4641
  591MOL0     H79747  10.030   2.281  10.176  0.6614  2.1845 -1.8382
  591MOL0     H79748   9.903   2.399  10.001  3.0533  1.0318  2.1681
  591MOL0     H79749   9.728   2.279   9.876 -0.7591 -2.0421  0.9046
  591MOL0     H79750   9.554   2.301   9.877 -0.4167  0.5022  0.0605
  591MOL0     H79751   9.563   2.503   9.769  0.2929 -0.9611  0.6947
  591MOL0     H79752   9.735   2.522   9.775 -0.8675  0.8129  3.2867
  591MOL0     H79753   9.770   2.326   9.614  0.5489  0.6682  0.7531
  591MOL0     H79754   9.599   2.288   9.607  2.5072 -2.0577 -0.8749
  591MOL0     H79755   9.700   2.553   9.555 -1.5249  0.1706  2.1235
  591MOL0     H79756   9.536   2.500   9.516  0.2893 -1.5717  0.4388
  591MOL0     H79757   9.612   2.369   9.330 -2.9903  2.1191  2.6523
  591MOL0     H79758   9.789   2.416   9.361  0.9421 -1.2558 -1.4760
  591MOL0     H79759   9.540   2.570   9.250  0.0665  0.5056 -2.2576
  591MOL0     H79760   9.688   2.646   9.301 -0.3612 -0.0966  1.0220
  591MOL0     H79761   9.674   2.444   9.077  2.2714  0.6246 -0.7555
  591MOL0     H79762   9.812   2.542   9.146 -0.1741 -0.7086  1.2194
  591MOL0     H79763   9.560   2.669   9.020 -0.0632  0.6770 -0.9252
  591MOL0     H79764   9.702   2.761   9.074 -2.7771  0.4963 -0.0681
  591MOL0     H79765   9.537   2.350  10.223  0.5601  0.4709  4.1316
  591MOL0     H79766   9.647   2.265  10.401 -0.3525  2.9693  0.2338
  591MOL0     H79767  10.129   2.077  10.506 -0.6225  1.7093  0.1516
  591MOL0     H79768  10.281   1.983  10.674  0.4754  0.8841  0.3846
  591MOL0     H79769  10.385   2.616   9.903 -1.9468  2.1808  1.8263
  591MOL0     H79770  10.584   2.445   9.953  1.5852 -0.6457  0.2536
  591MOL0     H79771  10.981   2.470  10.200 -1.1352  0.7370 -2.1745
  591MOL0     H79772  11.109   2.283  10.300  2.1359  4.5925  0.9246
  591MOL0     H79773  11.289   2.220  10.370  0.5632 -0.3673  0.1928
  591MOL0     H79774  11.423   2.102  10.342 -0.4082 -2.8565 -0.9968
  591MOL0     H79775  11.127   2.049  10.362 -0.7975 -1.0075  0.8141
  591MOL0     H79776  11.264   1.981  10.451 -2.0056 -1.4168  0.1373
  591MOL0     H79777  11.329   1.840  10.263 -0.2185 -0.4160 -1.1992
  591MOL0     H79778  11.177   1.897  10.178 -1.3855  0.3903 -0.0238
  591MOL0     H79779  11.167   1.786  10.463 -2.6530 -1.7128  0.7854
  591MOL0     H79780  11.042   1.818  10.341  0.8217  0.3431 -3.3789
  591MOL0     H79781  11.205   1.430  10.263 -0.4059 -0.2619 -2.6922
  591MOL0     H79782  11.297   2.222   9.921 -0.3252 -1.3499  0.7178
  591MOL0     H79783  11.042   2.378   9.732 -0.9924  1.6488  4.3193
  591MOL0     H79784  11.195   2.463   9.757  0.7843 -0.8107 -0.6637
  591MOL0     H79785  11.187   2.285   9.709 -3.7958 -1.3601 -0.8708
  592MOL0     O79786  11.165   7.469   7.713  0.4437 -1.1606  0.3139
  592MOL0     C79787  11.084   7.551   7.755  0.7426  0.8144 -0.1895
  592MOL0     O79788  11.007   7.635   7.671  0.2492  0.6653 -0.2756
  592MOL0     C79789  11.006   7.617   7.537  0.4586 -0.2389 -0.2058
  592MOL0     C79790  11.129   7.597   7.469  0.5076  1.1359  0.3434
  592MOL0     C79791  11.125   7.576   7.332 -0.2393 -0.3108  0.2248
  592MOL0     C79792  11.008   7.557   7.265  0.4619  0.3617 -0.4198
  592MOL0     O79793  10.995   7.528   7.132  0.5656  0.4361  0.2997
  592MOL0     C79794  11.107   7.520   7.039  0.0425  0.2344 -0.5705
  592MOL0     C79795  11.145   7.647   6.977 -0.5787 -0.2735  0.2563
  592MOL0     C79796  11.038   7.759   6.970 -0.6016 -0.4794  1.0503
  592MOL0     C79797  10.935   7.726   6.860  0.0641  1.3589  0.8861
  592MOL0     C79798  10.813   7.804   6.896  0.7285  0.9908  0.4548
  592MOL0     C79799  10.693   7.764   6.803 -1.1696  0.3512 -0.5905
  592MOL0     C79800  10.580   7.866   6.805  0.4104 -0.8710  0.8451
  592MOL0     C79801  10.523   7.883   6.950 -0.2975  0.6702  1.3677
  592MOL0     N79802  10.424   7.997   6.949 -0.7602 -0.4037 -0.1750
  592MOL0     C79803  10.294   8.005   6.901 -0.3724 -0.4280  0.1638
  592MOL0     C79804  10.263   8.134   6.899 -0.0738 -0.3238 -1.1355
  592MOL0     C79805  10.126   8.194   6.847 -0.1730  0.1191 -0.3381
  592MOL0     C79806  10.045   8.267   6.970  0.4164  0.3874  0.4176
  592MOL0     C79807  10.056   8.205   7.119  0.5431 -0.1431 -1.6939
  592MOL0     C79808   9.954   8.269   7.220 -0.6020 -1.1244  0.7659
  592MOL0     O79809   9.825   8.243   7.171 -0.1031  1.0481  0.1778
  592MOL0     C79810   9.712   8.328   7.195 -0.4302  0.7266  0.2056
  592MOL0     C79811   9.597   8.302   7.123 -0.4605  0.9992  0.1985
  592MOL0     C79812   9.479   8.374   7.156  0.5412  0.2109 -0.5578
  592MOL0     C79813   9.474   8.472   7.256  0.0891 -0.0539 -0.9007
  592MOL0     C79814   9.354   8.550   7.281  0.6162  0.3088 -1.0543
  592MOL0     O79815   9.230   8.513   7.233 -0.4193  0.6279  0.4883
  592MOL0     C79816   9.112   8.582   7.248  0.8806 -0.1439  0.3696
  592MOL0     C79817   9.098   8.719   7.252  0.3807 -0.3188 -0.7947
  592MOL0     C79818   8.967   8.769   7.265 -0.2700 -0.6901 -0.3804
  592MOL0     C79819   8.854   8.684   7.259 -0.6051 -0.3240  0.1767
  592MOL0     O79820   8.722   8.734   7.280 -0.2139 -0.6022  0.4506
  592MOL0     C79821   8.706   8.849   7.369 -0.5980  0.0532 -0.3040
  592MOL0     C79822   8.738   8.791   7.509 -0.1454 -0.9407  0.1406
  592MOL0     C79823   8.626   8.723   7.573  0.2231 -0.2622 -0.8253
  592MOL0     C79824   8.634   8.571   7.564 -0.3253  0.7580 -0.1851
  592MOL0     C79825   8.505   8.511   7.634  0.3116 -1.1706 -1.6284
  592MOL0     C79826   8.520   8.367   7.645  0.4351 -0.7498  0.0366
  592MOL0     C79827   8.620   8.322   7.746 -0.4105  1.0301  0.1524
  592MOL0     C79828   8.595   8.169   7.794 -0.1262  0.5369 -0.7632
  592MOL0    Cl79829   8.535   8.062   7.676  0.1738  0.0225 -0.3890
  592MOL0     C79830   8.871   8.550   7.254 -0.0356 -0.5116  0.5438
  592MOL0     C79831   9.000   8.497   7.237  0.5462 -0.0736 -0.9784
  592MOL0     O79832   9.377   8.637   7.362  0.2534  0.2117  0.8817
  592MOL0     C79833   9.594   8.498   7.318 -0.3744  0.2561  0.1359
  592MOL0     C79834   9.711   8.426   7.287  0.1102  0.0679 -0.1479
  592MOL0     N79835  10.372   8.211   6.947  0.0326 -0.7193  0.8758
  592MOL0     N79836  10.463   8.125   6.982 -0.8130 -0.9002  0.7121
  592MOL0     C79837  10.884   7.576   7.335  0.0569  0.1176 -0.5207
  592MOL0     C79838  10.887   7.609   7.477  0.1844  0.2558  0.5505
  592MOL0     C79839  11.065   7.542   7.904  0.3876 -0.1921 -0.6121
  592MOL0     C79840  11.053   7.410   7.962  0.9304  0.3424 -0.4775
  592MOL0     C79841  11.017   7.399   8.100 -0.6433 -0.1731  0.4020
  592MOL0     C79842  10.989   7.511   8.180  0.0481  0.3848  0.2680
  592MOL0     O79843  10.964   7.498   8.307 -0.0627  0.0083 -0.1643
  592MOL0     C79844  11.046   7.418   8.392 -0.8695  0.3801 -0.4564
  592MOL0     C79845  11.138   7.507   8.485 -0.3928 -0.0657  0.0525
  592MOL0     C79846  11.048   7.600   8.576 -0.2256  0.1240  0.0878
  592MOL0     C79847  11.001   7.515   8.688 -0.0326  0.2504 -0.3636
  592MOL0     C79848  10.971   7.602   8.814  0.4086 -0.5162 -0.3649
  592MOL0     C79849  10.931   7.640   8.926  0.5925  0.7859 -0.0338
  592MOL0     C79850  10.981   7.641   8.108  0.1268  1.6124 -0.2948
  592MOL0     C79851  11.017   7.653   7.982 -0.1989 -0.3206 -0.7213
  592MOL0     C79852  10.999   7.790   7.924 -0.1464 -0.3270 -0.7428
  592MOL0     H79853  11.229   7.612   7.508  0.1842  2.1677  0.8288
  592MOL0     H79854  11.216   7.570   7.274  0.3071  0.9270  0.9222
  592MOL0     H79855  11.195   7.474   7.085 -1.9213  0.8637  4.5273
  592MOL0     H79856  11.086   7.449   6.959 -0.1995 -1.0842  0.6078
  592MOL0     H79857  11.176   7.630   6.873 -1.5625 -1.8669  0.1897
  592MOL0     H79858  11.227   7.694   7.033 -0.4252 -2.0097  1.5518
  592MOL0     H79859  11.081   7.856   6.946  0.4782 -0.7276  1.9303
  592MOL0     H79860  11.003   7.785   7.070 -1.4086  0.0760  0.6387
  592MOL0     H79861  10.962   7.756   6.759  2.2649  2.3892  1.7088
  592MOL0     H79862  10.921   7.618   6.868  1.1211  1.2105  0.8073
  592MOL0     H79863  10.781   7.788   6.999 -5.2621  2.3736 -0.8610
  592MOL0     H79864  10.833   7.911   6.880 -0.3611  1.3442  1.3535
  592MOL0     H79865  10.733   7.762   6.702  2.5086  0.6504  0.7225
  592MOL0     H79866  10.653   7.663   6.813  1.0576 -0.4849  0.5911
  592MOL0     H79867  10.494   7.841   6.743  1.4703 -2.7118  0.0476
  592MOL0     H79868  10.626   7.960   6.771 -3.7213  1.4997  1.1437
  592MOL0     H79869  10.477   7.790   6.985  0.2850 -0.2139 -0.0963
  592MOL0     H79870  10.607   7.901   7.017  1.7346  0.8195 -1.0647
  592MOL0     H79871  10.231   7.922   6.872  0.6551 -0.4006 -2.4053
  592MOL0     H79872  10.162   8.261   6.768  2.5147 -0.9352 -0.1079
  592MOL0     H79873  10.077   8.106   6.806  2.2473 -1.9718  0.9494
  592MOL0     H79874  10.074   8.373   6.969 -0.1638  0.5505 -0.1098
  592MOL0     H79875   9.938   8.277   6.951  0.5636  2.2885  0.3487
  592MOL0     H79876  10.157   8.223   7.156 -0.0016  3.7373 -1.6989
  592MOL0     H79877  10.043   8.097   7.117  2.2485 -0.5482  1.9015
  592MOL0     H79878   9.974   8.377   7.217 -2.5557 -0.7343 -0.6627
  592MOL0     H79879   9.964   8.226   7.319 -1.3955  1.5557  2.1095
  592MOL0     H79880   9.596   8.221   7.051  0.2333  1.1387  0.0336
  592MOL0     H79881   9.391   8.373   7.093 -2.5357 -1.3767  3.3171
  592MOL0     H79882   9.185   8.782   7.248  0.0227  0.1345 -1.8258
  592MOL0     H79883   8.966   8.878   7.264  0.4967 -0.6781 -0.8192
  592MOL0     H79884   8.774   8.933   7.352 -1.1607  0.3249 -1.2822
  592MOL0     H79885   8.603   8.879   7.352 -0.2711  1.7102  0.4618
  592MOL0     H79886   8.830   8.734   7.525  1.8754  1.5298 -1.7841
  592MOL0     H79887   8.759   8.885   7.563 -0.8918 -0.0869 -1.0032
  592MOL0     H79888   8.623   8.751   7.679 -0.2814 -0.0855 -0.8842
  592MOL0     H79889   8.531   8.757   7.530 -1.7985 -4.0275  0.1561
  592MOL0     H79890   8.725   8.540   7.616  0.1794 -0.5346 -1.7426
  592MOL0     H79891   8.642   8.531   7.463  3.7584  1.8066 -0.4548
  592MOL0     H79892   8.413   8.547   7.587 -1.4125  1.3727  2.9728
  592MOL0     H79893   8.499   8.542   7.739  2.1896 -1.8778 -1.2745
  592MOL0     H79894   8.418   8.339   7.674 -0.9387  1.1844 -2.4874
  592MOL0     H79895   8.548   8.325   7.548 -0.0603  1.1762 -0.9906
  592MOL0     H79896   8.593   8.384   7.832 -2.0307  2.1449 -1.0999
  592MOL0     H79897   8.722   8.350   7.718 -1.5769  2.8530 -2.7711
  592MOL0     H79898   8.689   8.134   7.838 -1.5977 -1.6166  0.8965
  592MOL0     H79899   8.520   8.170   7.874 -0.6306  1.7478 -1.2225
  592MOL0     H79900   8.797   8.474   7.272  1.3561 -2.1221 -0.1873
  592MOL0     H79901   9.012   8.389   7.237  0.8157 -0.1289  2.3385
  592MOL0     H79902   9.601   8.577   7.392 -2.0778  1.0584 -0.5023
  592MOL0     H79903   9.804   8.447   7.339  3.1648  0.6157 -5.2067
  592MOL0     H79904  10.788   7.576   7.284 -1.2614  3.7292  1.5530
  592MOL0     H79905  10.801   7.617   7.543  0.5623 -2.0906  1.4248
  592MOL0     H79906  11.080   7.320   7.908  0.0700 -0.0151 -0.3248
  592MOL0     H79907  11.009   7.300   8.144 -1.5635  0.0806  0.8103
  592MOL0     H79908  11.108   7.348   8.336  0.1868  1.0431 -0.1393
  592MOL0     H79909  10.983   7.364   8.464 -0.1892  1.7362  1.2191
  592MOL0     H79910  11.200   7.576   8.426 -1.4297  2.0606  1.3077
  592MOL0     H79911  11.200   7.440   8.544  2.3378 -0.3803 -2.8645
  592MOL0     H79912  10.967   7.643   8.518  1.2564  2.9066 -0.0797
  592MOL0     H79913  11.116   7.682   8.604 -1.1341  0.8602  0.1805
  592MOL0     H79914  10.911   7.463   8.656  0.4916 -0.9137  0.0072
  592MOL0     H79915  11.079   7.445   8.719  1.9208  1.2072 -2.7762
  592MOL0     H79916  10.904   7.675   9.024  0.1622  4.3994 -1.2730
  592MOL0     H79917  10.968   7.731   8.167  0.6808  1.5424 -0.0638
  592MOL0     H79918  10.922   7.794   7.846 -0.2754  3.4395 -0.5966
  592MOL0     H79919  10.956   7.860   7.996 -0.5755 -0.7502 -0.5847
  592MOL0     H79920  11.093   7.830   7.885 -1.4030  3.9481  0.0662
  593MOL0     O79921   3.297   4.233   5.809  0.5852  0.3239 -0.2121
  593MOL0     C79922   3.275   4.352   5.785 -0.3615  0.7332 -0.2770
  593MOL0     O79923   3.329   4.462   5.848 -0.4115 -0.4351  0.5963
  593MOL0     C79924   3.414   4.437   5.952  0.9217 -0.3561  0.8508
  593MOL0     C79925   3.363   4.465   6.078  0.5381 -0.2066  0.6828
  593MOL0     C79926   3.445   4.440   6.188  0.4182  0.4562 -0.3243
  593MOL0     C79927   3.578   4.401   6.168 -1.4975 -0.1458 -0.9022
  593MOL0     O79928   3.670   4.384   6.271 -0.1247 -1.0842 -0.3313
  593MOL0     C79929   3.676   4.494   6.369  0.8374  0.2392 -0.3559
  593MOL0     C79930   3.797   4.482   6.467 -0.5293 -0.2892 -0.5925
  593MOL0     C79931   3.795   4.353   6.559  0.5010 -0.2821 -0.3922
  593MOL0     C79932   3.802   4.218   6.477 -0.1947  0.5348 -1.5936
  593MOL0     C79933   3.822   4.095   6.572 -0.7067 -0.7881  1.2906
  593MOL0     C79934   3.701   4.030   6.644 -0.1067 -0.8950 -0.2333
  593MOL0     C79935   3.749   3.902   6.711  0.7956 -0.7067 -0.9227
  593MOL0     C79936   3.632   3.808   6.706  0.2825 -0.1835  0.1384
  593MOL0     N79937   3.666   3.677   6.746 -0.2049  0.0429 -0.7071
  593MOL0     C79938   3.685   3.628   6.873 -0.2642 -0.2541  0.3953
  593MOL0     C79939   3.721   3.501   6.855  0.0283  0.2082 -0.2276
  593MOL0     C79940   3.787   3.417   6.966  0.2781 -0.2695 -0.5111
  593MOL0     C79941   3.698   3.366   7.080 -0.2463  0.2337 -0.3393
  593MOL0     C79942   3.583   3.266   7.021  0.1820 -0.4440  0.4714
  593MOL0     C79943   3.627   3.122   6.997 -0.1234  0.0095 -0.4034
  593MOL0     O79944   3.690   3.075   7.119 -0.8842  0.2074 -0.2315
  593MOL0     C79945   3.744   2.946   7.113 -0.7590 -0.7121 -0.0927
  593MOL0     C79946   3.756   2.876   6.995 -0.1035  0.5544 -0.2975
  593MOL0     C79947   3.804   2.743   6.995 -0.1578  0.2470 -0.4910
  593MOL0     C79948   3.847   2.684   7.111  0.6747  0.4910  0.4879
  593MOL0     C79949   3.897   2.546   7.112 -0.0098  0.8607  0.0369
  593MOL0     O79950   3.851   2.469   7.003 -0.4069 -0.1273  0.9928
  593MOL0     C79951   3.907   2.348   6.971 -0.3467  0.3034  0.1102
  593MOL0     C79952   3.906   2.232   7.057  0.0991  0.0520  1.0574
  593MOL0     C79953   3.953   2.110   7.012  0.1151 -0.7400 -0.2417
  593MOL0     C79954   4.003   2.098   6.880  0.5365 -0.0553  0.1421
  593MOL0     O79955   4.077   1.993   6.827 -0.1293 -0.4086  0.2517
  593MOL0     C79956   4.141   1.909   6.916 -0.9713  1.2542  0.2949
  593MOL0     C79957   4.209   1.813   6.816 -0.4045  0.1551 -0.4092
  593MOL0     C79958   4.110   1.700   6.776 -0.0969 -0.2490 -0.4520
  593MOL0     C79959   4.139   1.630   6.647  0.2344 -0.0037 -0.3774
  593MOL0     C79960   4.051   1.511   6.612 -0.3199 -0.3608 -0.1669
  593MOL0     C79961   4.086   1.473   6.467 -0.7577 -0.0360  1.1239
  593MOL0     C79962   4.000   1.345   6.432 -0.0654 -0.3982  0.0946
  593MOL0     C79963   4.056   1.269   6.316  0.0892  0.2762  0.0439
  593MOL0    Cl79964   3.943   1.117   6.314  0.0567  0.0232  0.1043
  593MOL0     C79965   3.996   2.217   6.798  0.2668  0.6898  0.5575
  593MOL0     C79966   3.945   2.337   6.839 -1.2176  0.4068 -0.2709
  593MOL0     O79967   3.979   2.520   7.196 -0.2763  0.1690 -0.4901
  593MOL0     C79968   3.851   2.758   7.227 -0.2369  0.2217 -0.1954
  593MOL0     C79969   3.792   2.883   7.236  0.2055 -0.0758  0.0254
  593MOL0     N79970   3.726   3.483   6.713  0.9217 -0.3554 -0.6575
  593MOL0     N79971   3.698   3.591   6.653  0.0103  0.4820  0.2525
  593MOL0     C79972   3.623   4.367   6.035  0.6991 -0.0984  0.0238
  593MOL0     C79973   3.539   4.386   5.929 -0.5298 -0.9201  0.3372
  593MOL0     C79974   3.185   4.364   5.667  0.8506  0.0941 -0.4615
  593MOL0     C79975   3.081   4.268   5.647  0.3264  0.7883 -0.1862
  593MOL0     C79976   2.992   4.280   5.537 -0.4128  0.6209 -1.0317
  593MOL0     C79977   2.993   4.393   5.457  0.3800 -0.2770 -0.5377
  593MOL0     O79978   2.909   4.388   5.351  0.3477 -0.3869  0.9499
  593MOL0     C79979   2.878   4.506   5.262  0.5517 -0.2099 -0.1131
  593MOL0     C79980   2.985   4.554   5.158  0.3348 -0.5014 -0.7922
  593MOL0     C79981   3.034   4.429   5.090 -0.8521 -0.3865 -0.0686
  593MOL0     C79982   3.150   4.467   4.989  0.2979  0.8582  0.5450
  593MOL0     C79983   3.274   4.517   5.050 -0.5145  0.1774  1.1569
  593MOL0     C79984   3.376   4.558   5.102 -1.3588 -0.2715  0.6180
  593MOL0     C79985   3.097   4.490   5.481  0.7386 -0.6037  0.5587
  593MOL0     C79986   3.187   4.478   5.579  0.4772 -0.3797 -0.5538
  593MOL0     C79987   3.308   4.573   5.574 -0.2016 -1.2078  0.4075
  593MOL0     H79988   3.265   4.510   6.086 -0.8819 -2.6866 -1.0855
  593MOL0     H79989   3.420   4.455   6.293  3.6281  0.7210  0.5161
  593MOL0     H79990   3.689   4.591   6.321  0.8055  1.0707  1.2425
  593MOL0     H79991   3.577   4.505   6.413  0.8128  2.3425 -0.8246
  593MOL0     H79992   3.814   4.562   6.540  5.2638 -0.0884 -1.6426
  593MOL0     H79993   3.887   4.467   6.406 -2.5431 -4.1049 -2.9794
  593MOL0     H79994   3.701   4.354   6.615 -0.1182 -2.7827 -1.2220
  593MOL0     H79995   3.887   4.356   6.617  1.1684 -1.8385 -1.3240
  593MOL0     H79996   3.717   4.203   6.409 -0.3403  1.5415 -1.6590
  593MOL0     H79997   3.895   4.232   6.422  0.2906 -0.2336 -0.9761
  593MOL0     H79998   3.864   4.014   6.511  0.4288 -0.8424  2.1138
  593MOL0     H79999   3.886   4.118   6.657  3.0022  0.3763 -1.5048
  593MOL0     H80000   3.675   4.107   6.716  0.5366 -0.9486  0.0611
  593MOL0     H80001   3.631   4.022   6.560  0.5398  2.6053 -1.2740
  593MOL0     H80002   3.785   3.938   6.808  2.8313  1.0811 -2.2312
  593MOL0     H80003   3.835   3.862   6.657  0.7160  2.1345 -3.4723
  593MOL0     H80004   3.553   3.841   6.774  1.4018 -0.4464  1.6076
  593MOL0     H80005   3.590   3.801   6.604 -2.0746  1.9932  0.8247
  593MOL0     H80006   3.669   3.678   6.967 -3.3229  2.1583 -1.2262
  593MOL0     H80007   3.838   3.329   6.927 -0.2259 -0.3345 -1.0344
  593MOL0     H80008   3.865   3.485   7.002 -1.4800  3.5661 -3.2442
  593MOL0     H80009   3.758   3.320   7.159  0.0059  3.4605  1.5230
  593MOL0     H80010   3.657   3.458   7.123  1.4157  1.1462 -0.6477
  593MOL0     H80011   3.545   3.297   6.923 -4.2608 -3.7055  0.8407
  593MOL0     H80012   3.502   3.261   7.094 -0.1584 -1.6239  0.0357
  593MOL0     H80013   3.693   3.136   6.911 -0.5314  0.8120 -0.5959
  593MOL0     H80014   3.538   3.062   6.977 -0.8809  0.8145  0.4424
  593MOL0     H80015   3.731   2.920   6.899 -0.1945  1.3954  0.1044
  593MOL0     H80016   3.808   2.691   6.900 -1.8764 -2.2199  0.6869
  593MOL0     H80017   3.857   2.232   7.153 -3.7387  1.2775 -0.7045
  593MOL0     H80018   3.935   2.025   7.077 -4.3884  1.0914  1.3070
  593MOL0     H80019   4.210   1.963   6.981  0.3931 -2.4953  2.2166
  593MOL0     H80020   4.070   1.860   6.983  1.6855 -1.0608  1.6225
  593MOL0     H80021   4.249   1.862   6.727 -1.0185 -0.5476 -1.0948
  593MOL0     H80022   4.289   1.765   6.872 -1.9494  0.3822  2.1549
  593MOL0     H80023   4.110   1.626   6.857 -2.1840  1.3880  1.2039
  593MOL0     H80024   4.012   1.749   6.775 -1.3890 -2.6926 -1.3193
  593MOL0     H80025   4.245   1.605   6.648  0.3401  0.4561  0.4698
  593MOL0     H80026   4.125   1.717   6.582  0.6843  0.3995  0.0549
  593MOL0     H80027   3.945   1.540   6.613 -0.7460 -1.7576  1.5212
  593MOL0     H80028   4.059   1.422   6.676 -2.7777 -1.4242 -1.2082
  593MOL0     H80029   4.052   1.551   6.397 -1.1892 -2.7462 -1.9590
  593MOL0     H80030   4.193   1.452   6.458 -1.3275 -3.7882  1.6905
  593MOL0     H80031   3.896   1.370   6.410  0.2938  2.1549  0.9410
  593MOL0     H80032   4.000   1.272   6.514  0.8900  0.4166  0.8547
  593MOL0     H80033   4.055   1.329   6.225 -0.0372  1.6919  0.9440
  593MOL0     H80034   4.156   1.229   6.336 -0.1372 -1.3400 -1.7600
  593MOL0     H80035   4.031   2.214   6.695  1.7811  2.2227  0.9874
  593MOL0     H80036   3.950   2.423   6.773  0.5377 -0.3851 -1.2525
  593MOL0     H80037   3.885   2.719   7.323  1.3002  1.0811 -0.3655
  593MOL0     H80038   3.794   2.932   7.333 -5.0041  1.5329 -0.3612
  593MOL0     H80039   3.719   4.331   6.002  1.3736  3.0663 -1.9626
  593MOL0     H80040   3.559   4.365   5.825 -3.9921 -2.3002 -0.1970
  593MOL0     H80041   3.083   4.170   5.694 -0.3070  0.1157 -1.4768
  593MOL0     H80042   2.927   4.194   5.525 -0.5300  0.0005  2.7722
  593MOL0     H80043   2.840   4.587   5.326 -2.6032  0.9865 -3.1904
  593MOL0     H80044   2.797   4.480   5.193  0.8936  0.6830 -0.8709
  593MOL0     H80045   3.061   4.601   5.221 -1.4977  1.5011  0.0413
  593MOL0     H80046   2.948   4.631   5.090  2.6250  0.6728 -0.8017
  593MOL0     H80047   2.949   4.389   5.034 -3.3006  0.2984  2.8909
  593MOL0     H80048   3.071   4.357   5.164  2.6711  3.3558  2.2468
  593MOL0     H80049   3.171   4.368   4.947 -3.7308 -0.5669  1.3893
  593MOL0     H80050   3.094   4.531   4.921 -1.4899 -2.2071 -1.1160
  593MOL0     H80051   3.462   4.609   5.140 -1.0078 -0.8185  0.5733
  593MOL0     H80052   3.108   4.578   5.418  0.4247 -1.2517 -0.4256
  593MOL0     H80053   3.341   4.582   5.471 -5.7432 -1.1474 -1.7290
  593MOL0     H80054   3.264   4.666   5.611  3.3063 -0.2547  2.6658
  593MOL0     H80055   3.390   4.546   5.641 -0.3230  4.6423  3.5264
  594MOL0     O80056   9.485   6.627   3.981 -0.7247 -0.4401 -0.8227
  594MOL0     C80057   9.479   6.727   3.900  0.8756  0.0530 -0.3844
  594MOL0     O80058   9.587   6.774   3.824  0.6791 -0.1266 -0.2547
  594MOL0     C80059   9.706   6.721   3.866  0.2242  0.2905 -0.1904
  594MOL0     C80060   9.790   6.654   3.782  0.4713 -0.0480  0.3074
  594MOL0     C80061   9.915   6.601   3.829 -0.2510  0.4608  0.7721
  594MOL0     C80062   9.968   6.623   3.957  1.2003  1.6560 -0.2711
  594MOL0     O80063  10.090   6.591   4.009 -0.7593  0.4949  0.2401
  594MOL0     C80064  10.181   6.493   3.961  0.5884  0.4100  0.3557
  594MOL0     C80065  10.282   6.473   4.070 -0.0253  0.0008 -0.7008
  594MOL0     C80066  10.219   6.468   4.217 -1.7125  0.7273  0.7284
  594MOL0     C80067  10.342   6.466   4.311  0.1761 -0.5110  0.1505
  594MOL0     C80068  10.295   6.464   4.454  0.3219  0.2784  0.8023
  594MOL0     C80069  10.247   6.327   4.509  0.6639  0.0771 -0.0109
  594MOL0     C80070  10.236   6.304   4.655 -0.1147 -0.3440 -0.1106
  594MOL0     C80071  10.370   6.335   4.721  0.5376  0.8024 -0.4307
  594MOL0     N80072  10.478   6.250   4.671  0.5087  0.3161  0.5355
  594MOL0     C80073  10.488   6.116   4.699  0.1615 -0.6180 -0.5383
  594MOL0     C80074  10.596   6.076   4.622  0.8878  1.3190 -0.3580
  594MOL0     C80075  10.629   5.930   4.605 -0.3140 -0.3469  0.6386
  594MOL0     C80076  10.765   5.887   4.673  0.8297  1.0889 -1.1489
  594MOL0     C80077  10.874   5.976   4.615 -0.0558  0.1996 -0.4175
  594MOL0     C80078  11.010   5.914   4.662  0.4341  0.0898 -0.3677
  594MOL0     O80079  11.002   5.866   4.800 -0.0888  0.0024 -0.7948
  594MOL0     C80080  11.089   5.765   4.836 -0.7729 -0.5442 -0.2164
  594MOL0     C80081  11.049   5.657   4.911 -0.8021 -0.5591 -0.8510
  594MOL0     C80082  11.146   5.548   4.943 -0.1492 -0.4990 -0.0194
  594MOL0     C80083  11.279   5.550   4.917 -0.2932  0.1221 -1.3011
  594MOL0     C80084  11.371   5.437   4.943 -0.4365 -0.0030  0.1562
  594MOL0     O80085  11.323   5.318   5.013 -0.1325  0.0953  0.5727
  594MOL0     C80086  11.417   5.223   5.057 -0.6292 -0.2538  0.5332
  594MOL0     C80087  11.532   5.261   5.131  0.0018  0.0187 -0.1656
  594MOL0     C80088  11.610   5.163   5.194 -0.4657 -0.2490 -0.0963
  594MOL0     C80089  11.597   5.030   5.183  0.4709  0.2967  0.3179
  594MOL0     O80090  11.667   4.940   5.261  1.1908  0.6659  0.5330
  594MOL0     C80091  11.712   4.816   5.201 -0.7918 -0.4636  0.4125
  594MOL0     C80092  11.663   4.708   5.300  0.0461  0.6040  0.4677
  594MOL0     C80093  11.706   4.562   5.262 -0.8204  0.4588 -0.1993
  594MOL0     C80094  11.849   4.541   5.287  0.1475  0.8272  0.3327
  594MOL0     C80095  11.883   4.383   5.293  0.3396  0.2715  0.2790
  594MOL0     C80096  11.885   4.322   5.153  0.4243  0.3896  0.3723
  594MOL0     C80097  12.009   4.354   5.062 -0.4586  0.2213  0.3313
  594MOL0     C80098  11.971   4.362   4.905 -0.3448  0.2741 -0.0688
  594MOL0    Cl80099  12.125   4.375   4.818 -0.4486 -0.2674 -0.3942
  594MOL0     C80100  11.474   4.990   5.117 -0.1314  0.0134 -0.3707
  594MOL0     C80101  11.393   5.087   5.054  0.2524 -0.1820  1.7413
  594MOL0     O80102  11.488   5.452   4.903  0.1259  0.0240 -0.6660
  594MOL0     C80103  11.321   5.664   4.851 -0.3235 -0.3768 -0.6289
  594MOL0     C80104  11.229   5.773   4.812  0.1903  0.5753 -0.0892
  594MOL0     N80105  10.662   6.187   4.566 -0.6050 -0.5708 -0.1586
  594MOL0     N80106  10.589   6.292   4.591 -0.5033  0.7184  0.6670
  594MOL0     C80107   9.879   6.691   4.042  0.0363  0.6996  0.6688
  594MOL0     C80108   9.751   6.734   3.998  0.1992  0.6660 -0.6718
  594MOL0     C80109   9.337   6.784   3.874  0.2169  0.1123 -0.8102
  594MOL0     C80110   9.336   6.910   3.828  0.0249  0.0397 -0.1436
  594MOL0     C80111   9.220   6.971   3.786  0.8955 -0.7900  0.9346
  594MOL0     C80112   9.099   6.902   3.797 -0.4117  1.2448 -0.0725
  594MOL0     O80113   8.994   6.963   3.743 -0.1034  0.6048  0.1694
  594MOL0     C80114   8.871   6.964   3.807 -1.0090  1.0514  0.7375
  594MOL0     C80115   8.785   7.073   3.756  0.6505  0.3856 -0.0507
  594MOL0     C80116   8.822   7.202   3.818  0.4493 -0.1733 -0.4073
  594MOL0     C80117   8.758   7.208   3.958  0.3579 -0.9016 -0.8047
  594MOL0     C80118   8.818   7.329   4.025 -0.3501 -0.4607 -0.6348
  594MOL0     C80119   8.869   7.420   4.087 -0.2886 -0.9180  0.3240
  594MOL0     C80120   9.100   6.779   3.865 -0.4722 -0.0330  0.0891
  594MOL0     C80121   9.214   6.721   3.906 -0.5753  0.3850  0.3672
  594MOL0     C80122   9.202   6.582   3.969 -0.2809  0.0049 -0.4480
  594MOL0     H80123   9.758   6.642   3.679 -1.5743 -4.5694  1.1949
  594MOL0     H80124   9.984   6.551   3.762  0.7540  1.2734  1.1757
  594MOL0     H80125  10.130   6.396   3.951 -0.0242  0.7340  0.2904
  594MOL0     H80126  10.225   6.507   3.862 -2.6027 -3.1482 -1.8490
  594MOL0     H80127  10.326   6.572   4.056 -2.8959  1.5200  0.4502
  594MOL0     H80128  10.353   6.392   4.048 -0.6587 -0.4719 -1.0213
  594MOL0     H80129  10.161   6.376   4.214 -0.4568 -0.0965  0.9266
  594MOL0     H80130  10.144   6.546   4.236 -1.0623  1.7025 -0.4741
  594MOL0     H80131  10.415   6.384   4.311  2.0610  1.0966  0.4517
  594MOL0     H80132  10.405   6.554   4.292  0.1229 -0.4522  0.2441
  594MOL0     H80133  10.382   6.485   4.517 -1.2003  1.1830  2.7214
  594MOL0     H80134  10.222   6.542   4.478  0.4400  0.1133  1.7397
  594MOL0     H80135  10.154   6.300   4.457  0.4851 -0.4499  0.5689
  594MOL0     H80136  10.304   6.241   4.474  0.0779 -0.8161  1.1471
  594MOL0     H80137  10.218   6.198   4.676 -0.9149  0.1717  2.0791
  594MOL0     H80138  10.152   6.345   4.712  2.0178  0.0358  3.0128
  594MOL0     H80139  10.399   6.441   4.718  0.3877  0.8284 -2.7100
  594MOL0     H80140  10.355   6.311   4.826 -0.6645 -0.5692 -0.8931
  594MOL0     H80141  10.413   6.059   4.751  0.5565  0.9895  1.9623
  594MOL0     H80142  10.555   5.868   4.656  1.6740 -2.3484  1.2403
  594MOL0     H80143  10.622   5.910   4.497  1.5919 -0.7755  0.5657
  594MOL0     H80144  10.759   5.893   4.782  1.1509  0.1291 -1.0720
  594MOL0     H80145  10.767   5.781   4.646  0.2451  1.2738 -1.9610
  594MOL0     H80146  10.869   6.077   4.656 -1.6104  0.6518 -1.6181
  594MOL0     H80147  10.871   5.978   4.506  0.8769  0.3299 -0.4465
  594MOL0     H80148  11.074   6.002   4.653 -1.6849  1.6156 -1.3126
  594MOL0     H80149  11.038   5.831   4.596  1.9313  0.2897 -0.0133
  594MOL0     H80150  10.942   5.648   4.927 -0.7584  0.5687  0.1637
  594MOL0     H80151  11.100   5.471   5.004 -3.6694  2.1221  0.9905
  594MOL0     H80152  11.535   5.368   5.152 -4.3546  0.7992 -2.2712
  594MOL0     H80153  11.690   5.198   5.258  0.7547  1.9498 -2.6120
  594MOL0     H80154  11.672   4.810   5.100  3.0368  0.6069 -1.3443
  594MOL0     H80155  11.821   4.820   5.187 -0.8792  0.6645 -0.0655
  594MOL0     H80156  11.720   4.733   5.390  1.2015  3.4455 -0.9375
  594MOL0     H80157  11.558   4.726   5.326  0.4896  2.6295  0.9969
  594MOL0     H80158  11.643   4.505   5.330 -1.6092  1.8730  0.3037
  594MOL0     H80159  11.677   4.525   5.163  0.1993 -0.6049 -0.1250
  594MOL0     H80160  11.870   4.590   5.382 -1.0774  1.3615  0.3554
  594MOL0     H80161  11.914   4.589   5.215  0.5778  1.3401  1.0548
  594MOL0     H80162  11.821   4.324   5.361  0.5245 -1.5046 -1.0155
  594MOL0     H80163  11.985   4.364   5.325  0.4529  1.8199  0.9483
  594MOL0     H80164  11.892   4.213   5.164 -0.7060  0.1930 -0.5477
  594MOL0     H80165  11.794   4.339   5.094  2.0178  0.3202 -2.2410
  594MOL0     H80166  12.076   4.268   5.062 -0.6889  0.0279  1.2268
  594MOL0     H80167  12.069   4.437   5.100  0.2534 -0.6320  1.1176
  594MOL0     H80168  11.924   4.275   4.857  2.4153 -2.1216  1.2074
  594MOL0     H80169  11.910   4.450   4.885 -2.3357 -0.7544  1.2069
  594MOL0     H80170  11.442   4.887   5.123  0.3694 -0.0659  4.2933
  594MOL0     H80171  11.301   5.048   5.012  1.6069 -2.1652  0.4774
  594MOL0     H80172  11.427   5.677   4.832  0.5756 -1.5686  2.9162
  594MOL0     H80173  11.267   5.857   4.755  2.9768 -1.6601 -1.8521
  594MOL0     H80174   9.908   6.697   4.147  2.2951  1.1146  0.0621
  594MOL0     H80175   9.682   6.783   4.066 -3.2533 -1.0894 -2.6419
  594MOL0     H80176   9.424   6.973   3.824 -1.5576  2.6508  2.2047
  594MOL0     H80177   9.223   7.069   3.738  0.5766 -0.5547  1.3832
  594MOL0     H80178   8.888   6.953   3.915 -1.5566  1.5385  0.8770
  594MOL0     H80179   8.823   6.869   3.780  1.2624  0.7513 -2.8996
  594MOL0     H80180   8.681   7.043   3.769  0.7216 -0.9508 -2.0038
  594MOL0     H80181   8.798   7.087   3.648  0.3224 -2.9076 -0.6324
  594MOL0     H80182   8.773   7.279   3.758 -0.0302 -1.5435 -1.8497
  594MOL0     H80183   8.929   7.221   3.818  0.1881  1.5117  0.8147
  594MOL0     H80184   8.652   7.235   3.951  0.6776  0.1393 -2.1254
  594MOL0     H80185   8.770   7.121   4.022 -1.0278  0.5674  1.5900
  594MOL0     H80186   8.917   7.488   4.154 -3.9669  2.0283  0.3103
  594MOL0     H80187   9.010   6.724   3.891  1.6666 -1.4774  5.9306
  594MOL0     H80188   9.189   6.516   3.884 -2.9645  0.6399 -0.6256
  594MOL0     H80189   9.277   6.553   4.043 -0.4067  0.2110 -0.2336
  594MOL0     H80190   9.112   6.592   4.030 -0.2782  1.5846 -0.6520
  595MOL0     O80191   8.812   7.580   8.037  0.9225 -0.1997  0.8814
  595MOL0     C80192   8.727   7.565   8.129 -0.1000 -0.2943 -0.0799
  595MOL0     O80193   8.684   7.664   8.215  0.6870 -0.6720  1.5060
  595MOL0     C80194   8.712   7.799   8.193 -0.1638  0.6487  0.4695
  595MOL0     C80195   8.751   7.857   8.068 -0.2754 -0.4410 -0.1104
  595MOL0     C80196   8.747   7.999   8.067  0.4603 -0.4394 -0.0268
  595MOL0     C80197   8.702   8.077   8.179 -0.2475 -0.3333  0.1241
  595MOL0     O80198   8.710   8.216   8.154  0.1298  0.3347  0.3222
  595MOL0     C80199   8.722   8.294   8.270  0.3130 -0.9956  0.7381
  595MOL0     C80200   8.762   8.441   8.249 -0.8376 -0.3066  0.0185
  595MOL0     C80201   8.659   8.529   8.166  0.0226 -0.9223 -0.8854
  595MOL0     C80202   8.741   8.647   8.123  0.0185  1.1946 -0.4833
  595MOL0     C80203   8.662   8.745   8.031 -0.7161  0.2754  0.8537
  595MOL0     C80204   8.756   8.874   8.007 -0.4916 -0.1823 -0.6370
  595MOL0     C80205   8.654   8.985   7.970 -0.2199  0.0884 -0.2339
  595MOL0     C80206   8.711   9.111   7.917 -0.1984 -0.3233 -0.1162
  595MOL0     N80207   8.826   9.161   7.989 -0.3706 -0.9963 -0.2586
  595MOL0     C80208   8.952   9.152   7.935 -0.4952  0.3702  0.3072
  595MOL0     C80209   9.025   9.214   8.030 -0.2082 -0.2157  0.2853
  595MOL0     C80210   9.166   9.237   8.009  1.6748 -0.3917 -0.6217
  595MOL0     C80211   9.195   9.314   7.881  0.6218 -0.9609 -0.2291
  595MOL0     C80212   9.350   9.325   7.866 -1.4815 -0.8405 -0.1653
  595MOL0     C80213   9.377   9.422   7.745 -0.5439 -0.6141 -0.0328
  595MOL0     O80214   9.510   9.468   7.747 -0.3351 -0.4829 -0.1613
  595MOL0     C80215   9.610   9.407   7.673 -0.0698  0.4464  0.3741
  595MOL0     C80216   9.599   9.285   7.596  0.8014  0.8195  0.1662
  595MOL0     C80217   9.707   9.234   7.528 -0.0633  0.6628  0.2512
  595MOL0     C80218   9.828   9.305   7.521 -0.1400 -0.7895  0.2518
  595MOL0     C80219   9.929   9.253   7.431 -0.4124 -0.6741 -0.3793
  595MOL0     O80220  10.020   9.343   7.398  0.5055  0.4625  0.7797
  595MOL0     C80221  10.119   9.297   7.313 -0.4022  0.2300 -0.0105
  595MOL0     C80222  10.254   9.319   7.352  1.1289 -0.9288 -0.0507
  595MOL0     C80223  10.357   9.297   7.260 -0.0609  0.9842  0.4772
  595MOL0     C80224  10.338   9.234   7.140  0.1200  0.4676 -0.0482
  595MOL0     O80225  10.444   9.214   7.051 -0.3384 -0.1802  0.4370
  595MOL0     C80226  10.493   9.085   7.043 -0.6777  0.8338  0.4806
  595MOL0     C80227  10.608   9.056   7.137 -0.0895  0.3429 -0.5481
  595MOL0     C80228  10.740   9.074   7.062 -1.0699 -0.1497 -0.1004
  595MOL0     C80229  10.855   9.137   7.155 -0.2058  0.0501 -0.1405
  595MOL0     C80230  10.879   9.065   7.290 -0.4822 -0.7317 -0.4637
  595MOL0     C80231  10.905   8.903   7.280 -0.7017 -0.4654 -0.0596
  595MOL0     C80232  10.965   8.840   7.405  0.5617  0.0535  1.2020
  595MOL0     C80233  11.020   8.698   7.381 -0.0483 -0.1895  0.4594
  595MOL0    Cl80234  11.154   8.698   7.257  0.5731  0.2175  0.0061
  595MOL0     C80235  10.205   9.203   7.110  0.9195  0.0503  0.2793
  595MOL0     C80236  10.101   9.234   7.197  0.4075 -0.2136 -0.1517
  595MOL0     O80237   9.937   9.132   7.409  0.5121  0.8899 -0.1118
  595MOL0     C80238   9.842   9.428   7.594  0.1957 -0.6881  0.1625
  595MOL0     C80239   9.736   9.473   7.668 -0.1446 -0.1600 -0.4434
  595MOL0     N80240   8.951   9.271   8.133 -0.4446  0.0678 -0.4947
  595MOL0     N80241   8.832   9.230   8.112  0.1925  0.4694 -1.1193
  595MOL0     C80242   8.680   8.008   8.300 -0.4171 -0.8979  0.0758
  595MOL0     C80243   8.689   7.875   8.306  0.2572 -0.5759 -0.8298
  595MOL0     C80244   8.676   7.437   8.173 -0.4084 -0.8151  1.7315
  595MOL0     C80245   8.678   7.403   8.306 -0.0518 -0.0738 -0.3024
  595MOL0     C80246   8.641   7.280   8.346 -0.8510  0.2246  0.7362
  595MOL0     C80247   8.619   7.179   8.256  1.0152 -0.0635  0.2843
  595MOL0     O80248   8.577   7.060   8.310  0.0731  0.0588  0.0024
  595MOL0     C80249   8.617   6.949   8.221  0.2133  0.8189 -0.3549
  595MOL0     C80250   8.575   6.825   8.301 -0.5056 -0.8481  0.0523
  595MOL0     C80251   8.580   6.700   8.220 -0.2122  0.3849  0.7070
  595MOL0     C80252   8.574   6.570   8.307 -0.1499  0.4213 -1.0188
  595MOL0     C80253   8.488   6.557   8.424  0.5962 -0.3762 -0.3831
  595MOL0     C80254   8.417   6.552   8.524  0.1018 -0.3067 -0.3727
  595MOL0     C80255   8.630   7.201   8.124 -0.4503 -0.7549 -0.6241
  595MOL0     C80256   8.666   7.330   8.078  1.2308  0.3427  0.1678
  595MOL0     C80257   8.683   7.347   7.920 -0.3386 -0.0251  0.4707
  595MOL0     H80258   8.780   7.807   7.976  1.2675 -1.2409  0.7749
  595MOL0     H80259   8.779   8.060   7.983  1.0725 -0.7935 -0.0569
  595MOL0     H80260   8.625   8.287   8.321  0.7330 -0.3164  1.6483
  595MOL0     H80261   8.799   8.266   8.342  0.7081  2.9969  2.0852
  595MOL0     H80262   8.864   8.448   8.209 -1.1904  2.3347 -0.6151
  595MOL0     H80263   8.782   8.500   8.339  1.1870 -1.1367  0.1767
  595MOL0     H80264   8.576   8.569   8.225  1.1168  3.0811 -1.7412
  595MOL0     H80265   8.624   8.476   8.078  2.5608  0.6101 -2.9605
  595MOL0     H80266   8.779   8.709   8.205  0.2529 -2.7496  2.6477
  595MOL0     H80267   8.828   8.610   8.069 -1.0544 -0.7395 -0.9696
  595MOL0     H80268   8.633   8.698   7.937 -0.0913 -3.3301  2.2771
  595MOL0     H80269   8.569   8.762   8.086 -1.0292 -0.1994  0.4684
  595MOL0     H80270   8.803   8.900   8.102 -2.6175  0.0634  0.3984
  595MOL0     H80271   8.830   8.853   7.929  1.6771  0.3161  1.2011
  595MOL0     H80272   8.586   9.000   8.054 -0.5997 -1.3983 -0.2509
  595MOL0     H80273   8.605   8.937   7.884  3.3491 -2.6892 -0.9276
  595MOL0     H80274   8.740   9.089   7.813  0.8462  0.7136 -0.0642
  595MOL0     H80275   8.638   9.192   7.922 -0.9500 -1.0329  0.7539
  595MOL0     H80276   8.990   9.098   7.849  0.6599 -0.4789  1.3256
  595MOL0     H80277   9.197   9.303   8.090 -1.9104  1.7028 -0.7628
  595MOL0     H80278   9.224   9.144   8.018  0.3897 -1.3215 -1.6104
  595MOL0     H80279   9.152   9.253   7.801 -0.4730  0.9571 -1.1658
  595MOL0     H80280   9.151   9.413   7.890  0.9917 -0.3388 -3.6309
  595MOL0     H80281   9.414   9.236   7.867  0.7104  0.5479  4.0079
  595MOL0     H80282   9.372   9.381   7.957 -0.1027  2.1030 -2.1885
  595MOL0     H80283   9.318   9.509   7.774  1.5162  0.4919  1.0515
  595MOL0     H80284   9.356   9.371   7.651  0.3922 -3.0545  0.9810
  595MOL0     H80285   9.508   9.225   7.598  0.0715  1.8248 -1.0823
  595MOL0     H80286   9.704   9.151   7.457  1.6674  2.0179 -1.5195
  595MOL0     H80287  10.266   9.382   7.440 -3.1102 -1.8228  1.3945
  595MOL0     H80288  10.461   9.314   7.287 -0.5016  1.3535  2.0483
  595MOL0     H80289  10.408   9.017   7.052 -1.3612  1.4555 -0.8434
  595MOL0     H80290  10.534   9.083   6.941 -1.0574  0.2285  0.3353
  595MOL0     H80291  10.597   9.139   7.207  1.1556 -1.2628  1.6650
  595MOL0     H80292  10.605   8.966   7.199  2.5252  0.9094  0.5507
  595MOL0     H80293  10.773   8.979   7.020 -0.0056  0.6170 -1.0687
  595MOL0     H80294  10.723   9.129   6.968 -1.4092 -2.4654 -1.4594
  595MOL0     H80295  10.824   9.239   7.179 -1.8868  0.1284 -2.3199
  595MOL0     H80296  10.951   9.153   7.104  0.2367 -0.6727  0.4383
  595MOL0     H80297  10.798   9.082   7.362 -1.3160  0.1667 -1.5536
  595MOL0     H80298  10.959   9.123   7.335 -0.4334 -2.6158  2.0761
  595MOL0     H80299  10.810   8.856   7.252 -0.5760 -1.7982  1.5987
  595MOL0     H80300  10.973   8.901   7.195 -0.4752  3.7744 -0.2165
  595MOL0     H80301  10.887   8.834   7.481 -1.3009  0.1124 -0.6146
  595MOL0     H80302  11.044   8.907   7.440  1.8776 -0.4836 -0.5551
  595MOL0     H80303  11.061   8.654   7.472 -0.5963 -2.5139 -0.3396
  595MOL0     H80304  10.934   8.636   7.352  0.9449 -0.0063 -3.4487
  595MOL0     H80305  10.166   9.144   7.027  1.6828  0.4811 -0.4038
  595MOL0     H80306  10.000   9.210   7.164  1.1346  1.5256 -4.2888
  595MOL0     H80307   9.927   9.493   7.577 -1.0437  0.5311 -1.7799
  595MOL0     H80308   9.752   9.558   7.734  0.2136 -2.2531  2.3307
  595MOL0     H80309   8.659   8.071   8.386  2.3810 -1.0169  0.9416
  595MOL0     H80310   8.671   7.822   8.399 -0.2671  1.0971  0.0529
  595MOL0     H80311   8.688   7.474   8.388  1.7918  1.5169 -1.8089
  595MOL0     H80312   8.634   7.256   8.452  2.1659  1.0068  1.1900
  595MOL0     H80313   8.725   6.943   8.208  0.0738  2.7705 -3.8739
  595MOL0     H80314   8.565   6.944   8.125 -0.6449  2.5079 -0.0107
  595MOL0     H80315   8.472   6.842   8.332  0.1202  0.3875  1.6063
  595MOL0     H80316   8.630   6.817   8.396 -2.6227  0.9617  1.5312
  595MOL0     H80317   8.669   6.692   8.158 -0.9626 -1.3183 -0.2215
  595MOL0     H80318   8.488   6.690   8.162  0.8763 -0.7766 -0.8747
  595MOL0     H80319   8.553   6.492   8.233 -3.0213  3.6126 -3.9864
  595MOL0     H80320   8.675   6.556   8.346 -0.3671 -1.7884 -1.1229
  595MOL0     H80321   8.350   6.560   8.607 -3.1781  5.3856 -3.0063
  595MOL0     H80322   8.602   7.133   8.044 -0.9224 -1.5641  0.2017
  595MOL0     H80323   8.671   7.257   7.859  0.0405  0.1859  0.0819
  595MOL0     H80324   8.628   7.433   7.880  0.4702 -0.6995 -2.3124
  595MOL0     H80325   8.791   7.368   7.916 -0.7261  2.0014 -1.3935
  596MOL0     O80326   2.178   7.814   5.792 -0.2094 -0.3795  0.7008
  596MOL0     C80327   2.295   7.778   5.782 -0.5549 -1.1581 -0.6915
  596MOL0     O80328   2.368   7.753   5.669 -0.1881 -0.5607  0.2169
  596MOL0     C80329   2.309   7.713   5.546 -0.2940 -0.0597 -0.5157
  596MOL0     C80330   2.391   7.721   5.426  0.1094  0.0825 -0.5728
  596MOL0     C80331   2.337   7.670   5.307 -0.3349 -0.5869  0.7294
  596MOL0     C80332   2.205   7.622   5.300 -0.4585 -0.2261 -0.2248
  596MOL0     O80333   2.170   7.581   5.170 -0.5016 -0.5701 -0.4109
  596MOL0     C80334   2.040   7.596   5.122 -0.1086  0.2561  0.6228
  596MOL0     C80335   1.986   7.738   5.102  0.0582 -0.3263 -0.8577
  596MOL0     C80336   2.074   7.842   5.027 -0.8822 -0.4397 -0.0395
  596MOL0     C80337   1.976   7.947   4.977 -0.3702 -0.5294 -0.0711
  596MOL0     C80338   2.047   8.072   4.937 -0.5842 -0.2069  0.2437
  596MOL0     C80339   2.080   8.162   5.061  0.0815 -0.3086  0.5304
  596MOL0     C80340   2.162   8.294   5.027 -0.7077 -0.5843 -0.0187
  596MOL0     C80341   2.198   8.371   5.158 -0.2824  0.0355  0.8020
  596MOL0     N80342   2.286   8.488   5.126 -0.5089  0.1774 -0.0895
  596MOL0     C80343   2.381   8.539   5.212  0.0178 -0.5885 -1.2865
  596MOL0     C80344   2.424   8.659   5.166  0.1336  0.3875  0.9210
  596MOL0     C80345   2.530   8.760   5.224 -0.2265  1.0947  0.4387
  596MOL0     C80346   2.483   8.912   5.222 -0.3632 -0.4015  0.2761
  596MOL0     C80347   2.379   8.944   5.328 -0.3667 -0.3835 -0.4511
  596MOL0     C80348   2.248   8.876   5.303  0.5351 -0.4392 -1.0950
  596MOL0     O80349   2.151   8.928   5.395  0.8607  0.0422 -0.0250
  596MOL0     C80350   2.021   8.905   5.370 -0.0254 -0.1932  0.5654
  596MOL0     C80351   1.934   8.929   5.477  0.4664 -0.2937 -0.1113
  596MOL0     C80352   1.793   8.921   5.467 -0.1323  0.2331 -0.7960
  596MOL0     C80353   1.734   8.852   5.356  0.4363  0.3681  0.2623
  596MOL0     C80354   1.587   8.848   5.342  0.3145 -0.0259 -0.5490
  596MOL0     O80355   1.518   8.937   5.425  0.4803  0.4253 -0.6490
  596MOL0     C80356   1.397   8.976   5.375  0.4291  0.7186 -0.6217
  596MOL0     C80357   1.384   9.030   5.244  0.4503  0.5150 -0.0488
  596MOL0     C80358   1.247   9.071   5.203  0.2832 -0.2316  0.2566
  596MOL0     C80359   1.147   9.076   5.297 -0.1661  0.1038  0.4799
  596MOL0     O80360   1.020   9.110   5.257 -0.2398 -0.8461 -0.2974
  596MOL0     C80361   0.909   9.034   5.297  0.4374 -0.4583 -0.2706
  596MOL0     C80362   0.834   9.125   5.396 -0.3126 -0.5963 -0.3621
  596MOL0     C80363   0.725   9.055   5.463  1.1221 -0.0405  0.2445
  596MOL0     C80364   0.670   9.133   5.589 -0.4516 -0.1482  0.8209
  596MOL0     C80365   0.566   9.045   5.655 -0.0291 -0.1223  0.2240
  596MOL0     C80366   0.462   9.122   5.739 -0.3448 -0.5846 -0.9366
  596MOL0     C80367   0.402   9.033   5.851 -0.6221  0.5150 -0.7089
  596MOL0     C80368   0.292   9.107   5.948 -0.4387 -0.7992  0.4917
  596MOL0    Cl80369   0.189   8.986   6.032  0.0621 -0.2102  0.2729
  596MOL0     C80370   1.168   9.026   5.424  0.0002  0.4034  0.4365
  596MOL0     C80371   1.294   8.980   5.466 -0.6274  0.0892 -0.3151
  596MOL0     O80372   1.541   8.774   5.250  0.1170 -1.0050 -0.0638
  596MOL0     C80373   1.828   8.827   5.254  0.1252 -0.2700  0.1688
  596MOL0     C80374   1.965   8.851   5.255 -0.3066 -0.4195 -0.5127
  596MOL0     N80375   2.346   8.683   5.049 -0.4139  0.4979 -0.7177
  596MOL0     N80376   2.276   8.576   5.021  0.4133 -1.0443  0.0521
  596MOL0     C80377   2.130   7.611   5.414  0.3617 -0.2599  0.6343
  596MOL0     C80378   2.184   7.664   5.531  0.3089 -0.2801  1.0887
  596MOL0     C80379   2.366   7.782   5.917 -0.2282  0.2393  0.4856
  596MOL0     C80380   2.289   7.781   6.032 -0.0230 -0.2276 -0.5152
  596MOL0     C80381   2.335   7.774   6.162 -0.5707 -0.6674 -0.9022
  596MOL0     C80382   2.470   7.763   6.188 -0.3956  0.9499 -0.7196
  596MOL0     O80383   2.511   7.767   6.327  0.2740 -0.1336  0.0969
  596MOL0     C80384   2.637   7.700   6.364 -0.5379  0.2036 -1.0510
  596MOL0     C80385   2.752   7.803   6.380  0.8917 -0.4524 -0.3504
  596MOL0     C80386   2.883   7.743   6.394 -0.5207 -0.2973  0.2187
  596MOL0     C80387   2.907   7.662   6.520  0.1439 -0.3970 -0.4876
  596MOL0     C80388   2.932   7.740   6.640 -0.0514  0.3538  0.3080
  596MOL0     C80389   2.953   7.819   6.738 -0.8267  0.9828  0.6346
  596MOL0     C80390   2.557   7.765   6.074  0.0884 -0.0192  0.5365
  596MOL0     C80391   2.508   7.771   5.936  1.3888 -0.0943 -0.4155
  596MOL0     C80392   2.611   7.782   5.819 -0.0893 -1.3098 -0.0996
  596MOL0     H80393   2.495   7.752   5.427  0.0735  0.4533  2.5247
  596MOL0     H80394   2.398   7.670   5.217 -0.1916  4.0146  0.6320
  596MOL0     H80395   2.030   7.571   5.016 -1.1371  2.8139  0.0359
  596MOL0     H80396   1.968   7.539   5.181  2.2562 -0.3424  3.1097
  596MOL0     H80397   1.973   7.782   5.202  0.7220  2.2323 -1.8400
  596MOL0     H80398   1.886   7.734   5.059 -0.0860 -2.2637 -0.4601
  596MOL0     H80399   2.136   7.797   4.949  2.7909  0.1634  2.2664
  596MOL0     H80400   2.142   7.888   5.099  0.4941 -0.6963 -1.1367
  596MOL0     H80401   1.913   7.910   4.895  0.9149 -1.5704 -0.6429
  596MOL0     H80402   1.918   7.982   5.062 -0.7285 -2.0372  0.3466
  596MOL0     H80403   2.141   8.047   4.888 -0.8820  0.1569 -0.5449
  596MOL0     H80404   1.988   8.131   4.865  2.8731  3.2770 -0.0276
  596MOL0     H80405   1.992   8.196   5.116  0.4184  1.2166  0.1902
  596MOL0     H80406   2.149   8.117   5.133  2.3843  3.2618  0.8140
  596MOL0     H80407   2.098   8.363   4.971  0.7377  1.7558  1.0517
  596MOL0     H80408   2.254   8.277   4.971  0.5141 -1.3532  2.1056
  596MOL0     H80409   2.099   8.399   5.195 -0.8601  1.6900 -1.7752
  596MOL0     H80410   2.258   8.306   5.223  1.5155 -1.5109 -2.1928
  596MOL0     H80411   2.429   8.476   5.287 -0.8241 -1.4336 -1.4504
  596MOL0     H80412   2.569   8.733   5.323 -3.7626 -1.7529  1.2482
  596MOL0     H80413   2.614   8.759   5.155 -0.4180  0.2864  0.2138
  596MOL0     H80414   2.575   8.969   5.237 -1.3790  0.7674  2.4846
  596MOL0     H80415   2.438   8.932   5.124 -0.6757 -1.5714  0.1727
  596MOL0     H80416   2.361   9.050   5.306  1.4737 -0.4765 -2.7365
  596MOL0     H80417   2.411   8.938   5.432  1.3813 -1.5683 -1.0151
  596MOL0     H80418   2.252   8.770   5.331  1.9913  0.2162  1.5045
  596MOL0     H80419   2.216   8.886   5.199  1.9054 -0.9436 -1.5948
  596MOL0     H80420   1.982   8.978   5.562  1.1786  1.7192 -1.6028
  596MOL0     H80421   1.730   8.966   5.542  0.3196 -0.6245  0.1278
  596MOL0     H80422   1.463   9.039   5.170 -1.7838 -1.9562 -3.0130
  596MOL0     H80423   1.217   9.101   5.103  1.4716 -0.8309 -0.2970
  596MOL0     H80424   0.842   9.025   5.211  1.4551  1.9651 -1.4105
  596MOL0     H80425   0.936   8.936   5.339 -0.3492 -1.2765 -1.5931
  596MOL0     H80426   0.888   9.171   5.480 -2.5767 -1.2798  1.5615
  596MOL0     H80427   0.792   9.201   5.329  0.2312 -0.0159 -0.0580
  596MOL0     H80428   0.639   9.039   5.397  0.3502  0.3426  1.1326
  596MOL0     H80429   0.752   8.954   5.493  0.3057  0.2129  1.9335
  596MOL0     H80430   0.616   9.224   5.561 -4.7910 -2.6730  0.0495
  596MOL0     H80431   0.743   9.169   5.663 -1.0167  1.6885  0.5296
  596MOL0     H80432   0.623   8.973   5.713 -0.8121 -0.2063  0.9014
  596MOL0     H80433   0.510   8.998   5.573  1.4720  2.0816 -2.2391
  596MOL0     H80434   0.495   9.214   5.789 -1.0906 -0.2021 -1.1475
  596MOL0     H80435   0.381   9.151   5.673 -2.3495 -1.0887  1.1737
  596MOL0     H80436   0.477   8.987   5.916 -3.2786 -1.5698  1.1202
  596MOL0     H80437   0.345   8.954   5.802 -2.2148 -0.4256  2.3563
  596MOL0     H80438   0.341   9.168   6.026  3.5543 -1.0126 -1.5767
  596MOL0     H80439   0.238   9.172   5.879 -0.2278  0.4654  1.4685
  596MOL0     H80440   1.088   9.032   5.498 -1.4551  0.2311 -1.0692
  596MOL0     H80441   1.302   8.951   5.570  0.1128 -1.7527 -0.8483
  596MOL0     H80442   1.792   8.755   5.181  1.7416  1.2980 -2.3135
  596MOL0     H80443   2.025   8.822   5.169 -0.8635  1.7194 -1.6837
  596MOL0     H80444   2.029   7.571   5.421  0.7224 -1.0579  1.4934
  596MOL0     H80445   2.124   7.657   5.620 -0.7222 -1.3014  0.3418
  596MOL0     H80446   2.181   7.775   6.037  0.0906 -1.9175  4.2531
  596MOL0     H80447   2.267   7.808   6.240 -3.0646  0.0299 -3.2558
  596MOL0     H80448   2.666   7.626   6.289 -0.7397 -1.0889  0.1113
  596MOL0     H80449   2.631   7.650   6.461  1.4503  1.6856 -0.0868
  596MOL0     H80450   2.725   7.856   6.472 -1.3103 -3.1643  0.6999
  596MOL0     H80451   2.752   7.870   6.293  1.7524  0.9326  0.6823
  596MOL0     H80452   2.957   7.824   6.385 -0.3165 -0.3266  1.3829
  596MOL0     H80453   2.892   7.687   6.301  0.9168 -2.0656  1.3715
  596MOL0     H80454   2.820   7.600   6.540 -0.5886  1.3438  2.3064
  596MOL0     H80455   2.990   7.594   6.499  0.2778  0.2399 -2.1392
  596MOL0     H80456   2.984   7.879   6.822  0.1344  1.7431 -0.2377
  596MOL0     H80457   2.664   7.769   6.094  0.0841  1.0439  0.3660
  596MOL0     H80458   2.618   7.694   5.753  1.3149  0.4050 -2.3979
  596MOL0     H80459   2.602   7.871   5.755  3.1420 -3.1532 -3.5413
  596MOL0     H80460   2.709   7.787   5.867 -0.4055  0.2321  0.4154
  597MOL0     O80461   3.999   6.864   1.968 -0.2913  0.2508  0.0449
  597MOL0     C80462   4.042   6.952   2.039 -0.1507 -0.0723  0.0348
  597MOL0     O80463   4.138   6.931   2.129  0.3381  0.1109 -0.1793
  597MOL0     C80464   4.183   6.806   2.159  0.6378  0.6584  0.2601
  597MOL0     C80465   4.130   6.754   2.276  0.3400  0.6629  0.5434
  597MOL0     C80466   4.173   6.637   2.330 -0.1167 -0.5178 -0.1935
  597MOL0     C80467   4.294   6.582   2.287  0.6362 -0.1275  0.0074
  597MOL0     O80468   4.349   6.478   2.343 -0.5033 -0.0427 -0.7457
  597MOL0     C80469   4.334   6.469   2.490 -0.4422  0.4229  0.1149
  597MOL0     C80470   4.424   6.359   2.549 -0.0523 -0.0372 -1.3202
  597MOL0     C80471   4.573   6.369   2.510  0.8262 -0.0423  0.2343
  597MOL0     C80472   4.647   6.238   2.545 -0.1987  0.7828  0.2558
  597MOL0     C80473   4.797   6.263   2.531 -0.0317 -0.0514 -0.6031
  597MOL0     C80474   4.873   6.337   2.658 -0.2691  0.1306 -0.4315
  597MOL0     C80475   5.004   6.273   2.714  0.1322 -0.1330  0.0912
  597MOL0     C80476   4.971   6.168   2.813  1.1270  0.3958  0.5534
  597MOL0     N80477   4.914   6.047   2.751 -0.1856 -0.2271 -0.3062
  597MOL0     C80478   4.975   5.951   2.667  0.2772 -0.0651  0.3689
  597MOL0     C80479   4.896   5.840   2.667  0.2714  0.0413 -0.3982
  597MOL0     C80480   4.925   5.713   2.593 -0.4343 -1.2952  0.9940
  597MOL0     C80481   4.887   5.603   2.685 -0.7826 -0.3973  0.7596
  597MOL0     C80482   4.967   5.593   2.817 -0.7551  0.4516 -0.1193
  597MOL0     C80483   4.929   5.470   2.898 -0.7120 -0.0385  0.2133
  597MOL0     O80484   5.034   5.455   2.987 -0.6537 -0.1998 -0.5906
  597MOL0     C80485   5.035   5.335   3.052  0.5568  0.0904 -0.8533
  597MOL0     C80486   5.145   5.244   3.029 -0.0059 -0.3177  0.3247
  597MOL0     C80487   5.141   5.122   3.088 -0.5678  0.3404 -0.4573
  597MOL0     C80488   5.040   5.082   3.178  0.3765  0.8642  0.5571
  597MOL0     C80489   5.048   4.955   3.252  0.5970  0.9453  0.1319
  597MOL0     O80490   4.938   4.941   3.344 -0.1504  0.0211  0.2133
  597MOL0     C80491   4.960   4.840   3.432  0.6341 -0.0209  0.7185
  597MOL0     C80492   4.922   4.700   3.416 -0.7126 -0.2786  0.0803
  597MOL0     C80493   4.964   4.604   3.510 -1.3469  0.0912  0.2102
  597MOL0     C80494   5.047   4.636   3.617 -0.9612 -0.3564 -0.7030
  597MOL0     O80495   5.075   4.531   3.704  0.6971 -0.3817 -0.3643
  597MOL0     C80496   5.166   4.565   3.812  0.4070 -0.0332  0.1703
  597MOL0     C80497   5.209   4.441   3.887 -0.1003 -0.2242 -0.3847
  597MOL0     C80498   5.326   4.361   3.816  0.0762  0.0702 -0.6588
  597MOL0     C80499   5.348   4.222   3.891 -0.6177 -0.0831 -0.1000
  597MOL0     C80500   5.472   4.145   3.836 -0.5308 -0.1079  0.2926
  597MOL0     C80501   5.511   4.034   3.922  0.5940  0.3109  0.0103
  597MOL0     C80502   5.598   4.088   4.032 -0.7609 -0.7267 -0.5997
  597MOL0     C80503   5.646   3.992   4.139 -0.4129 -0.9138 -0.3877
  597MOL0    Cl80504   5.784   3.897   4.067 -0.5271 -0.2889  0.2644
  597MOL0     C80505   5.081   4.775   3.636  0.3313 -0.6977  0.1310
  597MOL0     C80506   5.037   4.870   3.541  0.7547 -0.5903 -0.3549
  597MOL0     O80507   5.144   4.882   3.238  0.3849  0.6279 -0.2817
  597MOL0     C80508   4.940   5.174   3.200  0.0113 -0.5436  0.2204
  597MOL0     C80509   4.940   5.297   3.142 -0.0815 -0.7519 -0.8410
  597MOL0     N80510   4.798   5.862   2.760 -0.5170 -0.5706 -0.4289
  597MOL0     N80511   4.802   5.985   2.807  0.6815  0.0382  0.5847
  597MOL0     C80512   4.356   6.636   2.170 -0.2733  1.2200  0.2627
  597MOL0     C80513   4.297   6.745   2.105 -0.1160  0.6906 -0.9097
  597MOL0     C80514   3.979   7.081   2.014  0.1543  0.2422 -0.3381
  597MOL0     C80515   3.899   7.087   1.904  0.7313  0.8238 -0.4556
  597MOL0     C80516   3.853   7.207   1.858 -0.0036  0.3920  0.9940
  597MOL0     C80517   3.861   7.323   1.924  0.6069 -0.0295 -0.5346
  597MOL0     O80518   3.786   7.421   1.864  0.2601 -0.1823 -0.1451
  597MOL0     C80519   3.826   7.556   1.888  0.2975  0.2037 -0.4624
  597MOL0     C80520   3.958   7.591   1.823 -0.5424  0.5550 -0.3692
  597MOL0     C80521   3.968   7.529   1.678 -0.3756 -0.0949 -0.4122
  597MOL0     C80522   4.108   7.549   1.617  0.5715  0.2061 -0.3759
  597MOL0     C80523   4.209   7.465   1.693  0.6432  0.0401  0.2002
  597MOL0     C80524   4.278   7.397   1.755 -0.8289  1.0448 -1.0325
  597MOL0     C80525   3.927   7.317   2.051  0.3033 -0.7928  0.1869
  597MOL0     C80526   3.980   7.195   2.093 -0.3431  0.1037  0.2976
  597MOL0     C80527   4.036   7.181   2.229  0.3970  0.0498  0.5275
  597MOL0     H80528   4.036   6.793   2.313  0.0398  0.2414  0.2341
  597MOL0     H80529   4.112   6.595   2.409  1.3504 -2.2821  0.0430
  597MOL0     H80530   4.361   6.557   2.549 -4.3671 -1.4147  5.3264
  597MOL0     H80531   4.234   6.456   2.531  0.1038 -0.5075  1.1857
  597MOL0     H80532   4.394   6.260   2.515  3.8690 -1.8401 -0.0582
  597MOL0     H80533   4.407   6.365   2.657  0.7414  0.5998 -1.2259
  597MOL0     H80534   4.631   6.449   2.558  0.8729 -0.3636  0.7094
  597MOL0     H80535   4.567   6.391   2.403  0.3998  1.1089  0.4815
  597MOL0     H80536   4.618   6.211   2.647  0.2559 -1.6504 -0.1870
  597MOL0     H80537   4.610   6.163   2.474 -1.8762  4.0706 -2.6351
  597MOL0     H80538   4.845   6.167   2.511 -1.5843 -0.7617 -1.0615
  597MOL0     H80539   4.810   6.324   2.441  2.8888  1.9507  1.0007
  597MOL0     H80540   4.907   6.432   2.616  1.1888 -0.5125 -0.7461
  597MOL0     H80541   4.800   6.359   2.737  0.9569  0.0706  0.7476
  597MOL0     H80542   5.056   6.359   2.756 -1.9461  1.5749 -0.6496
  597MOL0     H80543   5.066   6.226   2.638 -0.3408 -2.1678  0.8849
  597MOL0     H80544   5.063   6.143   2.868  0.4304  1.3251  2.2109
  597MOL0     H80545   4.901   6.207   2.887 -0.1219  0.1029 -0.4502
  597MOL0     H80546   5.063   5.970   2.606 -2.0635  1.2432 -2.9274
  597MOL0     H80547   4.864   5.717   2.503 -1.1606  0.8233  1.5179
  597MOL0     H80548   5.029   5.694   2.566 -0.5284 -3.3255  1.8739
  597MOL0     H80549   4.784   5.621   2.719  0.5383  3.0442  3.5237
  597MOL0     H80550   4.884   5.512   2.624 -2.5736  0.7744 -1.0621
  597MOL0     H80551   4.945   5.683   2.875 -1.9862  1.0644 -1.4754
  597MOL0     H80552   5.074   5.595   2.794 -0.7939 -0.5548 -0.4535
  597MOL0     H80553   4.913   5.387   2.829  0.8378 -0.8906  0.8361
  597MOL0     H80554   4.840   5.481   2.961  0.5863 -0.8604  2.2991
  597MOL0     H80555   5.222   5.286   2.964 -0.5055  1.3241  0.7318
  597MOL0     H80556   5.226   5.056   3.078  0.3323  1.3418  0.3552
  597MOL0     H80557   4.877   4.676   3.320 -1.5887 -0.1984  0.4684
  597MOL0     H80558   4.935   4.500   3.507 -1.1520 -0.0147  1.3936
  597MOL0     H80559   5.262   4.606   3.779  0.8714 -1.0074  0.2824
  597MOL0     H80560   5.120   4.641   3.875 -0.5950  0.4328 -1.0828
  597MOL0     H80561   5.246   4.471   3.986 -1.1200  0.0177 -0.0706
  597MOL0     H80562   5.116   4.386   3.899 -1.7667  2.6622  0.9124
  597MOL0     H80563   5.309   4.351   3.708 -3.6025  2.7387 -0.5272
  597MOL0     H80564   5.417   4.422   3.824  1.1175 -1.4106 -0.7838
  597MOL0     H80565   5.254   4.168   3.877 -1.7536  1.7199  0.2851
  597MOL0     H80566   5.372   4.238   3.996  0.0965  2.3946 -0.5759
  597MOL0     H80567   5.559   4.211   3.826 -1.0113  0.2163 -2.4015
  597MOL0     H80568   5.447   4.102   3.739  1.2866 -1.5294  0.4023
  597MOL0     H80569   5.426   3.979   3.963  1.1208  0.4208  1.2777
  597MOL0     H80570   5.572   3.964   3.864  5.0530  0.7863  3.6234
  597MOL0     H80571   5.553   4.161   4.100  0.8611  1.3076 -1.6193
  597MOL0     H80572   5.680   4.147   3.992  0.2363 -1.4109  0.3797
  597MOL0     H80573   5.658   4.044   4.234  2.0970 -0.0107 -1.1201
  597MOL0     H80574   5.562   3.926   4.158 -0.8511 -0.4335 -0.6383
  597MOL0     H80575   5.145   4.822   3.710 -0.7568  6.1041 -2.5454
  597MOL0     H80576   5.049   4.976   3.560  0.3916 -0.9061  2.0022
  597MOL0     H80577   4.866   5.163   3.279 -2.5960  1.6089 -1.6998
  597MOL0     H80578   4.862   5.360   3.181  0.1152 -1.9190  1.5993
  597MOL0     H80579   4.444   6.588   2.129 -0.3975 -0.1317  1.5121
  597MOL0     H80580   4.339   6.779   2.010  0.7535  0.8355 -0.4787
  597MOL0     H80581   3.868   7.002   1.844  2.6001  0.4884 -1.0114
  597MOL0     H80582   3.804   7.200   1.761  1.8797 -2.6375  0.0915
  597MOL0     H80583   3.815   7.586   1.992 -1.3631 -2.0087  0.0740
  597MOL0     H80584   3.747   7.610   1.835  0.1053 -1.2257 -1.7313
  597MOL0     H80585   4.047   7.576   1.886  0.6887 -0.0910 -2.1584
  597MOL0     H80586   3.952   7.697   1.795 -2.7269  0.4003 -0.6206
  597MOL0     H80587   3.908   7.581   1.602 -1.5965 -1.0923 -0.1626
  597MOL0     H80588   3.957   7.420   1.674  0.7410 -0.2001 -0.9677
  597MOL0     H80589   4.112   7.515   1.514 -1.4805  0.6669 -0.6462
  597MOL0     H80590   4.132   7.656   1.612 -0.7092  0.6076  1.1487
  597MOL0     H80591   4.353   7.338   1.803  0.2501  1.4509 -2.1765
  597MOL0     H80592   3.929   7.412   2.104 -2.2717  1.6878 -3.6701
  597MOL0     H80593   3.993   7.087   2.265  2.4976 -0.4698  1.8487
  597MOL0     H80594   4.145   7.185   2.221  0.2896  1.5695 -0.7827
  597MOL0     H80595   4.017   7.251   2.311  2.8831 -0.0827  1.2792
  598MOL0     O80596  10.703   7.632  10.767  0.5895  0.0877  0.5370
  598MOL0     C80597  10.773   7.712  10.696  0.2425  0.1664  0.5984
  598MOL0     O80598  10.746   7.849  10.682  0.0227 -0.7432  0.8824
  598MOL0     C80599  10.630   7.900  10.739 -0.0799  0.7157  0.1561
  598MOL0     C80600  10.514   7.929  10.659 -0.0189 -0.4042 -0.3813
  598MOL0     C80601  10.400   7.974  10.726 -0.0672 -0.1810  0.4856
  598MOL0     C80602  10.392   7.986  10.868 -0.4903  0.0408  0.3270
  598MOL0     O80603  10.282   8.016  10.938  0.0080 -0.2959 -1.0971
  598MOL0     C80604  10.158   8.030  10.865  0.0765  1.0050 -0.6942
  598MOL0     C80605  10.050   8.064  10.972  0.6055 -0.1170 -1.1828
  598MOL0     C80606   9.908   8.060  10.905 -0.2559  0.8583  0.2094
  598MOL0     C80607   9.801   8.090  11.003 -0.0454  0.6022 -0.0115
  598MOL0     C80608   9.660   8.081  10.931 -0.1615  0.1048 -0.7417
  598MOL0     C80609   9.554   8.026  11.021  0.6520  0.4850 -0.4437
  598MOL0     C80610   9.416   8.006  10.957  0.3894  0.1982  0.2940
  598MOL0     C80611   9.318   7.938  11.061  0.0260  0.9791  0.6353
  598MOL0     N80612   9.193   7.886  10.999  0.3574 -0.1164  0.1913
  598MOL0     C80613   9.095   7.813  11.063  1.0364 -0.8553 -0.8513
  598MOL0     C80614   9.009   7.785  10.964  0.0924  0.2734  0.7329
  598MOL0     C80615   8.886   7.696  10.981  1.4093 -0.4022 -0.0881
  598MOL0     C80616   8.769   7.764  11.055  0.5434 -1.5233  0.9055
  598MOL0     C80617   8.645   7.676  11.052 -0.8538 -0.3506  0.6840
  598MOL0     C80618   8.637   7.598  11.185  0.5979 -0.2948 -1.0153
  598MOL0     O80619   8.650   7.682  11.305  0.2303  0.2605  0.3328
  598MOL0     C80620   8.539   7.693  11.384  0.0105 -0.1282  0.7782
  598MOL0     C80621   8.497   7.811  11.431 -0.3981  0.7808  0.9723
  598MOL0     C80622   8.386   7.835  11.519  0.2786 -0.0427  0.0454
  598MOL0     C80623   8.312   7.721  11.554 -0.5795  0.6257 -0.5261
  598MOL0     C80624   8.202   7.730  11.642  0.0749  0.5960 -0.1821
  598MOL0     O80625   8.167   7.621  11.716  0.4071  0.2613  0.2244
  598MOL0     C80626   8.054   7.643  11.800  0.1154 -0.0627  0.4275
  598MOL0     C80627   7.927   7.688  11.742  0.2673  0.3534  0.2281
  598MOL0     C80628   7.826   7.721  11.831  0.1471  0.0924  0.1859
  598MOL0     C80629   7.838   7.705  11.968 -0.4962  0.7682 -0.7288
  598MOL0     O80630   7.748   7.731  12.064 -0.4670 -0.5799 -0.3034
  598MOL0     C80631   7.616   7.780  12.053 -0.2326  0.9536  0.2157
  598MOL0     C80632   7.520   7.662  12.081  1.1091  0.2297  0.8029
  598MOL0     C80633   7.520   7.556  11.971 -0.1147 -1.3352  0.3048
  598MOL0     C80634   7.377   7.488  11.961 -0.0284 -0.2684  0.2226
  598MOL0     C80635   7.376   7.371  12.073 -0.5722 -0.3317  0.1838
  598MOL0     C80636   7.224   7.339  12.096 -0.3585  0.5584  1.4000
  598MOL0     C80637   7.200   7.257  12.229  0.3996 -0.4470  0.8075
  598MOL0     C80638   7.172   7.123  12.191 -0.2412  0.1148 -0.1050
  598MOL0    Cl80639   7.144   7.041  12.341  0.9161 -0.3745  0.4219
  598MOL0     C80640   7.955   7.639  12.018  0.7485 -0.0931  0.3309
  598MOL0     C80641   8.062   7.615  11.939  0.3620 -0.8231 -0.2903
  598MOL0     O80642   8.148   7.841  11.648  0.0173  0.0613  0.0929
  598MOL0     C80643   8.358   7.593  11.511  0.6190 -0.3095  0.1654
  598MOL0     C80644   8.469   7.582  11.424 -0.7473  0.8463 -0.1707
  598MOL0     N80645   9.047   7.850  10.847 -0.1754  0.5529  0.1473
  598MOL0     N80646   9.160   7.912  10.869 -0.0531  1.0196 -0.1538
  598MOL0     C80647  10.503   7.951  10.947  0.6124  0.8413  0.9975
  598MOL0     C80648  10.621   7.918  10.876  0.0420  0.1162  0.2668
  598MOL0     C80649  10.861   7.653  10.593 -0.0680  0.7209  0.4425
  598MOL0     C80650  10.901   7.743  10.491  0.2531 -0.4157 -0.5042
  598MOL0     C80651  10.977   7.691  10.378 -0.8182 -0.6354 -0.1488
  598MOL0     C80652  11.017   7.567  10.373 -0.1722  0.2380  0.5101
  598MOL0     O80653  11.093   7.525  10.266 -0.4742 -1.2071  0.1447
  598MOL0     C80654  11.030   7.455  10.155  0.4112 -0.2154 -0.5711
  598MOL0     C80655  11.142   7.354  10.109  0.6158 -0.2501 -0.2237
  598MOL0     C80656  11.076   7.243  10.031  0.1802  0.0639  0.0112
  598MOL0     C80657  11.011   7.127  10.116  0.8664 -0.2358  0.3867
  598MOL0     C80658  11.007   7.000  10.050 -0.0043  0.1278  0.0592
  598MOL0     C80659  11.033   6.894   9.990 -0.0182 -0.4049  0.0058
  598MOL0     C80660  10.967   7.474  10.464  0.1641 -0.5671 -0.2436
  598MOL0     C80661  10.904   7.517  10.577  0.0601  0.1273  0.5487
  598MOL0     C80662  10.893   7.415  10.694 -0.9339 -0.1860 -0.7131
  598MOL0     H80663  10.520   7.904  10.554 -4.0701 -2.2763 -0.3388
  598MOL0     H80664  10.312   7.987  10.664 -1.2175  0.0979  2.1239
  598MOL0     H80665  10.149   8.101  10.782 -2.2396  2.0398  0.3607
  598MOL0     H80666  10.125   7.932  10.829  1.1158  1.6612 -3.7739
  598MOL0     H80667  10.067   8.168  11.001 -1.6885 -0.7077  3.0226
  598MOL0     H80668  10.054   8.004  11.063  1.9782  1.7066  0.0398
  598MOL0     H80669   9.899   7.959  10.863 -0.4979  1.7710 -2.0929
  598MOL0     H80670   9.904   8.136  10.827 -2.4146  0.2477 -0.3463
  598MOL0     H80671   9.804   8.023  11.089  0.8034  2.6296  1.6551
  598MOL0     H80672   9.829   8.187  11.046  3.1399 -0.9255  1.6958
  598MOL0     H80673   9.632   8.183  10.903 -0.4793 -0.1988 -1.5598
  598MOL0     H80674   9.681   8.016  10.846  2.2127 -0.2063  0.0111
  598MOL0     H80675   9.580   7.926  11.058  1.6901  1.1069  0.5625
  598MOL0     H80676   9.537   8.092  11.106  1.0294  1.7203 -1.2904
  598MOL0     H80677   9.429   7.939  10.871  0.1446  0.7001 -0.1407
  598MOL0     H80678   9.374   8.099  10.915  4.2537  1.9876 -0.0453
  598MOL0     H80679   9.363   7.851  11.110 -1.7891 -0.0681  0.5373
  598MOL0     H80680   9.301   8.010  11.141 -1.0253 -1.1692  2.4604
  598MOL0     H80681   9.112   7.779  11.164  2.9190  0.0764 -0.8073
  598MOL0     H80682   8.850   7.673  10.880  4.2883 -1.0537 -1.0805
  598MOL0     H80683   8.919   7.606  11.034  1.6756  0.5609  1.4392
  598MOL0     H80684   8.803   7.785  11.156  1.7845 -4.2056  1.1250
  598MOL0     H80685   8.732   7.857  11.011  0.6623 -0.0112  3.7627
  598MOL0     H80686   8.669   7.607  10.970  1.5471 -0.9842  1.8333
  598MOL0     H80687   8.555   7.737  11.041 -1.8937 -1.2341  3.5007
  598MOL0     H80688   8.716   7.523  11.189 -0.1678 -1.1244 -1.1456
  598MOL0     H80689   8.551   7.532  11.171 -0.9796  1.0376  1.5975
  598MOL0     H80690   8.530   7.898  11.375 -3.0621  0.8751 -0.6612
  598MOL0     H80691   8.356   7.934  11.550  0.6686  0.1936 -0.3214
  598MOL0     H80692   7.922   7.698  11.634  2.3048 -0.5821 -0.0008
  598MOL0     H80693   7.726   7.744  11.797  0.0629  0.4446  0.6641
  598MOL0     H80694   7.619   7.862  12.126  1.2728  1.6018 -0.5300
  598MOL0     H80695   7.599   7.807  11.948  1.8175 -1.9979 -0.9896
  598MOL0     H80696   7.543   7.608  12.173  1.5226 -0.2981  0.3899
  598MOL0     H80697   7.422   7.711  12.089 -0.5028 -2.5309 -0.4312
  598MOL0     H80698   7.546   7.600  11.875  0.5509  0.3126  1.1921
  598MOL0     H80699   7.596   7.483  11.999 -0.4616 -1.6436  0.4525
  598MOL0     H80700   7.362   7.458  11.858 -2.0111  2.2210 -0.3145
  598MOL0     H80701   7.290   7.550  11.984 -0.9875 -0.8753 -1.6365
  598MOL0     H80702   7.422   7.419  12.159  1.5835 -0.4292 -0.8535
  598MOL0     H80703   7.440   7.288  12.040 -0.0434  0.5136 -0.9929
  598MOL0     H80704   7.161   7.429  12.097 -0.5871  0.7001 -3.1730
  598MOL0     H80705   7.190   7.279  12.011 -1.3013 -0.5196  2.4962
  598MOL0     H80706   7.118   7.300  12.288  0.9366  2.3560 -0.3254
  598MOL0     H80707   7.296   7.271  12.280  0.5843 -0.2210  0.4009
  598MOL0     H80708   7.088   7.118  12.121 -1.3277  1.8705  1.0252
  598MOL0     H80709   7.261   7.086  12.139 -0.0460  1.7115 -0.9583
  598MOL0     H80710   7.955   7.628  12.126 -2.0375 -0.1482  0.4076
  598MOL0     H80711   8.162   7.579  11.961  1.1512 -0.6694 -3.1754
  598MOL0     H80712   8.305   7.505  11.548  0.2324  0.6673  2.0930
  598MOL0     H80713   8.496   7.482  11.391  1.9799  1.4975 -0.1215
  598MOL0     H80714  10.495   7.949  11.055 -2.7334 -0.7371  0.8306
  598MOL0     H80715  10.711   7.892  10.930  0.7330  0.0754 -0.8818
  598MOL0     H80716  10.875   7.848  10.487 -0.8016 -0.6504 -0.1966
  598MOL0     H80717  10.994   7.765  10.300 -0.3748  1.2381  1.6359
  598MOL0     H80718  10.978   7.509  10.075 -0.2910 -0.5728 -0.3702
  598MOL0     H80719  10.953   7.393  10.202  1.3787  0.5297  2.1454
  598MOL0     H80720  11.188   7.318  10.202 -2.0837 -0.0440  1.2923
  598MOL0     H80721  11.204   7.420  10.048 -1.1003  0.2986 -1.4533
  598MOL0     H80722  11.143   7.203   9.955 -0.6014  1.5878 -1.5762
  598MOL0     H80723  10.991   7.288   9.978  1.5318  0.2061 -2.1680
  598MOL0     H80724  11.064   7.100  10.208  1.1610  0.1941  0.3461
  598MOL0     H80725  10.908   7.148  10.146  1.3311 -0.7087  2.5102
  598MOL0     H80726  11.055   6.797   9.951 -3.0330 -0.7432 -1.1281
  598MOL0     H80727  10.985   7.369  10.444  0.0692 -0.3393 -1.6521
  598MOL0     H80728  10.918   7.444  10.796  1.1344 -1.6361 -0.7439
  598MOL0     H80729  10.798   7.361  10.689 -1.0728  0.1678 -2.2706
  598MOL0     H80730  10.976   7.343  10.689 -1.3020 -1.1571  3.4989
  599MOL0     O80731  10.416   5.687   3.798 -0.4925 -0.9268 -0.5689
  599MOL0     C80732  10.339   5.708   3.707  0.1752  0.3655 -1.0737
  599MOL0     O80733  10.302   5.615   3.620  0.0023 -0.0854  0.2112
  599MOL0     C80734  10.344   5.479   3.637  0.0729  0.1732  0.1809
  599MOL0     C80735  10.474   5.433   3.596  0.0565  0.7187  0.2407
  599MOL0     C80736  10.506   5.301   3.615 -0.6257  0.0548  0.5116
  599MOL0     C80737  10.412   5.209   3.665 -0.6877  0.3352 -0.3280
  599MOL0     O80738  10.467   5.093   3.693  0.2257  0.2200  0.0204
  599MOL0     C80739  10.397   4.991   3.778  0.3644 -0.8029 -0.5137
  599MOL0     C80740  10.317   4.890   3.712 -0.1421 -0.4988  0.7924
  599MOL0     C80741  10.387   4.783   3.619 -0.5120  0.3081 -0.3841
  599MOL0     C80742  10.456   4.672   3.697 -0.6215  0.3699 -1.3330
  599MOL0     C80743  10.536   4.585   3.602 -0.7368  0.3772 -0.4131
  599MOL0     C80744  10.655   4.656   3.534  0.1791  0.0408 -0.7291
  599MOL0     C80745  10.738   4.558   3.451  0.3344  0.5270 -0.7533
  599MOL0     C80746  10.844   4.626   3.363  0.0873 -0.2842 -0.3890
  599MOL0     N80747  10.852   4.551   3.235 -0.6145  0.7041  0.3514
  599MOL0     C80748  10.746   4.556   3.148 -0.7273  0.3622 -0.1212
  599MOL0     C80749  10.796   4.493   3.038 -0.5720 -1.6937 -0.3394
  599MOL0     C80750  10.711   4.467   2.923 -0.0401 -0.2103 -0.5705
  599MOL0     C80751  10.768   4.393   2.808 -0.8168 -0.2146  0.5722
  599MOL0     C80752  10.689   4.409   2.676 -0.4192  0.4186 -0.5680
  599MOL0     C80753  10.734   4.301   2.575  1.0615  0.1958  1.0818
  599MOL0     O80754  10.866   4.264   2.589  0.0736  0.2050 -0.4862
  599MOL0     C80755  10.964   4.284   2.493  0.3505 -0.4993 -0.0100
  599MOL0     C80756  10.952   4.378   2.388  0.7290 -0.1336  0.5913
  599MOL0     C80757  11.057   4.419   2.310 -0.2122 -0.4941  0.2064
  599MOL0     C80758  11.189   4.362   2.329  0.3101  0.0482 -1.2766
  599MOL0     C80759  11.296   4.397   2.239  0.8216  0.5574  1.2111
  599MOL0     O80760  11.263   4.497   2.147  0.7250  0.4371  0.4534
  599MOL0     C80761  11.373   4.531   2.077  0.2434 -0.0571  0.7727
  599MOL0     C80762  11.404   4.472   1.946  1.2622  0.0245  0.9817
  599MOL0     C80763  11.503   4.512   1.864 -1.1243 -0.0850 -1.0755
  599MOL0     C80764  11.600   4.610   1.901  0.0805 -0.5837 -0.1797
  599MOL0     O80765  11.699   4.636   1.811  1.1524 -0.0121  0.3737
  599MOL0     C80766  11.816   4.698   1.868  0.4122 -0.8851  0.6022
  599MOL0     C80767  11.885   4.755   1.748  0.5586 -0.1950 -0.7406
  599MOL0     C80768  11.950   4.630   1.673  0.1629  0.0473  0.1167
  599MOL0     C80769  12.038   4.682   1.567  0.8094 -0.4975 -0.5213
  599MOL0     C80770  12.129   4.569   1.525 -0.1806 -0.5101  0.8113
  599MOL0     C80771  12.193   4.594   1.386 -0.9591  0.6985 -0.8829
  599MOL0     C80772  12.283   4.717   1.370 -0.2046  0.1255  0.2718
  599MOL0     C80773  12.369   4.730   1.245  0.1290 -0.2456  0.7991
  599MOL0    Cl80774  12.264   4.747   1.098 -0.2083  0.1224  0.2717
  599MOL0     C80775  11.574   4.671   2.024  0.4968 -1.8988  0.0648
  599MOL0     C80776  11.460   4.632   2.097 -0.1553 -2.0080  0.7786
  599MOL0     O80777  11.407   4.342   2.261  1.0709  0.6970  0.1115
  599MOL0     C80778  11.200   4.267   2.430 -0.2957 -0.3145  0.6119
  599MOL0     C80779  11.095   4.236   2.519 -0.5307 -0.3561  0.1888
  599MOL0     N80780  10.931   4.457   3.059  0.1977 -0.0704  0.9526
  599MOL0     N80781  10.961   4.494   3.180 -0.0980  0.0781  0.4808
  599MOL0     C80782  10.278   5.254   3.692  0.6281  0.8528  0.3083
  599MOL0     C80783  10.248   5.387   3.680 -0.5002  0.0497  0.1881
  599MOL0     C80784  10.270   5.839   3.719 -0.2064 -0.1167  0.6663
  599MOL0     C80785  10.334   5.956   3.761 -0.0028 -0.0894  0.5214
  599MOL0     C80786  10.276   6.081   3.775 -0.4088  1.0528 -0.1629
  599MOL0     C80787  10.148   6.101   3.734  0.2071  0.0072  0.6122
  599MOL0     O80788  10.082   6.227   3.748 -0.3536  0.6877  0.6978
  599MOL0     C80789   9.984   6.276   3.645  0.3127 -0.5622  0.2134
  599MOL0     C80790  10.058   6.307   3.519 -0.0989  0.0531  0.1407
  599MOL0     C80791  10.155   6.427   3.521 -0.6576  0.5529  0.2988
  599MOL0     C80792  10.216   6.447   3.385 -0.0621 -0.9396 -0.2229
  599MOL0     C80793  10.323   6.360   3.328 -0.1322 -0.0900  0.2821
  599MOL0     C80794  10.412   6.278   3.294  0.6341 -1.3893 -0.6789
  599MOL0     C80795  10.066   5.990   3.692 -0.0960  0.2036 -0.3862
  599MOL0     C80796  10.131   5.855   3.682 -0.8569 -1.2235 -0.2995
  599MOL0     C80797  10.041   5.732   3.658 -0.8902 -0.9692 -0.8643
  599MOL0     H80798  10.558   5.496   3.569  2.5349 -0.8017  3.6712
  599MOL0     H80799  10.602   5.260   3.583 -1.3716 -0.2680 -1.4580
  599MOL0     H80800  10.472   4.936   3.834  0.0709 -2.5731 -1.7822
  599MOL0     H80801  10.325   5.024   3.854 -1.9987  0.0679 -2.9533
  599MOL0     H80802  10.252   4.959   3.657  1.5282  0.8637  0.4370
  599MOL0     H80803  10.258   4.833   3.784  0.9103  2.5686  4.4050
  599MOL0     H80804  10.452   4.833   3.548  2.7715 -1.0776  1.4384
  599MOL0     H80805  10.302   4.737   3.566 -2.9887  0.6150  2.9502
  599MOL0     H80806  10.522   4.708   3.776  0.0190 -1.1517 -1.1439
  599MOL0     H80807  10.377   4.618   3.751  0.2029  0.0965 -0.3627
  599MOL0     H80808  10.576   4.509   3.670  0.0963  0.7478 -0.4852
  599MOL0     H80809  10.473   4.534   3.528  1.1021  1.8846 -3.1837
  599MOL0     H80810  10.609   4.732   3.471 -0.5572  2.7009  2.6888
  599MOL0     H80811  10.720   4.706   3.606 -1.5503  0.4160  0.6402
  599MOL0     H80812  10.660   4.502   3.397 -0.2535 -1.6108  2.0951
  599MOL0     H80813  10.790   4.489   3.517  1.3499  0.8597 -1.1896
  599MOL0     H80814  10.814   4.730   3.346  3.8764  0.5999 -2.7517
  599MOL0     H80815  10.940   4.640   3.412 -0.8639  1.8068  1.0449
  599MOL0     H80816  10.642   4.580   3.167 -1.2368 -1.2748 -0.6647
  599MOL0     H80817  10.621   4.414   2.954 -0.3591 -0.1082 -1.3089
  599MOL0     H80818  10.676   4.566   2.895 -2.2140 -1.1086 -1.2908
  599MOL0     H80819  10.868   4.423   2.776 -0.5486 -1.0876  0.5768
  599MOL0     H80820  10.783   4.290   2.841 -0.8392  0.5360  3.0933
  599MOL0     H80821  10.717   4.507   2.635  2.5518  0.6049  1.5137
  599MOL0     H80822  10.581   4.403   2.685 -0.4863 -1.1872 -2.0330
  599MOL0     H80823  10.723   4.326   2.469  1.1849 -1.4725  0.6429
  599MOL0     H80824  10.675   4.210   2.586 -3.9410  2.3840 -3.2783
  599MOL0     H80825  10.859   4.426   2.360  0.4260  0.9398  3.1266
  599MOL0     H80826  11.042   4.497   2.236  0.1940 -0.6555 -0.0522
  599MOL0     H80827  11.328   4.399   1.919  0.3822  1.9874 -2.4486
  599MOL0     H80828  11.511   4.472   1.763  0.4881  1.5226 -1.6449
  599MOL0     H80829  11.776   4.788   1.916 -2.0561 -0.1948 -2.3911
  599MOL0     H80830  11.882   4.637   1.931  1.2103 -1.2117 -0.5232
  599MOL0     H80831  11.815   4.814   1.689  0.4817  3.0770  2.2479
  599MOL0     H80832  11.964   4.825   1.777 -1.8577  1.3470  2.8053
  599MOL0     H80833  12.004   4.566   1.744 -0.8977  2.3222  3.1859
  599MOL0     H80834  11.871   4.575   1.622 -2.4477  3.4230  0.1477
  599MOL0     H80835  12.088   4.775   1.596 -0.8648  0.2688  0.0880
  599MOL0     H80836  11.981   4.716   1.480  1.6080 -0.0771 -0.8882
  599MOL0     H80837  12.065   4.481   1.525 -2.1203  0.7712 -2.0755
  599MOL0     H80838  12.197   4.564   1.610 -0.4319 -1.6149  0.9530
  599MOL0     H80839  12.252   4.503   1.374 -1.7504 -0.5971  3.3946
  599MOL0     H80840  12.112   4.605   1.313 -0.0409  0.0991 -2.0260
  599MOL0     H80841  12.343   4.716   1.461 -2.7990  1.0277  2.1120
  599MOL0     H80842  12.216   4.803   1.366 -0.9494 -0.4397  0.3325
  599MOL0     H80843  12.430   4.821   1.246  2.5470 -1.7243 -1.0386
  599MOL0     H80844  12.430   4.640   1.231  0.1979  0.0183 -0.8373
  599MOL0     H80845  11.622   4.758   2.067 -0.9613 -1.0480  0.0665
  599MOL0     H80846  11.436   4.683   2.190 -2.2761  0.4396 -0.9509
  599MOL0     H80847  11.295   4.218   2.449  0.4182  1.5232  2.1579
  599MOL0     H80848  11.095   4.180   2.612 -3.2640 -0.2793  0.3012
  599MOL0     H80849  10.200   5.181   3.710 -0.3044  0.9626 -2.7018
  599MOL0     H80850  10.149   5.422   3.707 -0.1290 -1.0493  3.4492
  599MOL0     H80851  10.441   5.948   3.775 -0.2474 -3.4231  1.3432
  599MOL0     H80852  10.335   6.163   3.813  0.1679  0.3867  0.3898
  599MOL0     H80853   9.930   6.362   3.686  1.0276 -0.9351  2.0696
  599MOL0     H80854   9.914   6.195   3.622 -0.8445 -0.3340  2.5625
  599MOL0     H80855   9.982   6.329   3.443  1.8132 -1.8860 -2.5341
  599MOL0     H80856  10.112   6.219   3.481 -2.5240 -1.3017 -0.3521
  599MOL0     H80857  10.232   6.417   3.598 -0.1363  1.3763 -0.0939
  599MOL0     H80858  10.085   6.510   3.537 -0.7222  0.9037 -1.5900
  599MOL0     H80859  10.130   6.442   3.318 -0.5058 -2.1292  0.3904
  599MOL0     H80860  10.255   6.549   3.383  0.8218 -1.2431  0.5717
  599MOL0     H80861  10.482   6.201   3.267  0.6969 -1.8038  0.5839
  599MOL0     H80862   9.959   5.997   3.672 -0.4665 -1.9351  0.4709
  599MOL0     H80863  10.047   5.652   3.732  1.1449 -1.0042 -1.0049
  599MOL0     H80864   9.936   5.762   3.667 -0.9713 -1.1820 -1.0739
  599MOL0     H80865  10.053   5.686   3.559 -0.7213  2.1059 -2.3850
  600MOL0     O80866   3.977   6.498  10.851  0.7179 -0.8798 -0.6301
  600MOL0     C80867   3.978   6.379  10.892  0.4359 -0.7458  0.7574
  600MOL0     O80868   3.878   6.324  10.960  0.0785  0.7721 -0.2042
  600MOL0     C80869   3.751   6.376  10.959  0.1754 -0.6413 -0.7009
  600MOL0     C80870   3.681   6.459  10.866 -0.0682  0.6116  0.7398
  600MOL0     C80871   3.542   6.483  10.875  0.4705 -0.3651  0.1203
  600MOL0     C80872   3.469   6.444  10.993 -0.9952 -0.7208 -0.1398
  600MOL0     O80873   3.338   6.491  11.007 -0.6379  0.9052  0.4186
  600MOL0     C80874   3.231   6.407  11.051  0.8376  0.1455 -0.6591
  600MOL0     C80875   3.106   6.462  10.994  0.0175 -0.1789 -1.0471
  600MOL0     C80876   3.040   6.558  11.103  0.8223  0.5910 -0.1419
  600MOL0     C80877   3.001   6.489  11.243 -0.4597  0.0729  0.3344
  600MOL0     C80878   2.895   6.559  11.317 -0.9278 -0.5268 -0.1369
  600MOL0     C80879   2.888   6.501  11.459  0.4839  0.1710 -0.2771
  600MOL0     C80880   2.769   6.564  11.538 -0.4642 -0.3976  0.4621
  600MOL0     C80881   2.741   6.495  11.674 -0.1468 -0.2387 -0.7259
  600MOL0     N80882   2.757   6.590  11.792 -1.1468 -0.1195 -0.3271
  600MOL0     C80883   2.874   6.625  11.846  0.2609  0.1918  0.3086
  600MOL0     C80884   2.839   6.700  11.956 -0.1412  0.3997  0.2096
  600MOL0     C80885   2.943   6.761  12.052  0.1181 -0.5764  0.2599
  600MOL0     C80886   2.906   6.908  12.084  0.0555 -0.0626  0.2988
  600MOL0     C80887   3.011   6.970  12.172  0.7406  0.5049  0.4778
  600MOL0     C80888   2.981   7.117  12.180  0.0579 -0.2730  0.3705
  600MOL0     O80889   2.986   7.191  12.060 -0.8830  0.5611  0.4323
  600MOL0     C80890   2.948   7.329  12.055 -0.6450  0.2730 -0.7430
  600MOL0     C80891   2.941   7.389  11.934 -0.8222  0.7040  0.6563
  600MOL0     C80892   2.899   7.525  11.924  0.2480  0.1150  0.4681
  600MOL0     C80893   2.870   7.601  12.036  0.1494  0.2566  0.2247
  600MOL0     C80894   2.827   7.749  12.040  0.3239 -0.0645 -0.3331
  600MOL0     O80895   2.803   7.814  12.159  0.1498  0.4822 -0.4451
  600MOL0     C80896   2.760   7.943  12.144 -0.3035  0.8281  0.1219
  600MOL0     C80897   2.637   7.965  12.204  0.1983  0.0339 -0.2376
  600MOL0     C80898   2.599   8.095  12.238 -0.2578 -0.2247 -0.5516
  600MOL0     C80899   2.680   8.209  12.200 -0.2404  0.4795  0.3511
  600MOL0     O80900   2.640   8.335  12.236 -0.2554 -0.4876 -0.3417
  600MOL0     C80901   2.536   8.389  12.151  0.5426  0.0715 -0.2358
  600MOL0     C80902   2.452   8.476  12.255  0.5562  0.3474  0.2247
  600MOL0     C80903   2.348   8.550  12.180 -0.1729 -0.8273 -0.5552
  600MOL0     C80904   2.325   8.680  12.262 -0.3755  1.1443 -0.0200
  600MOL0     C80905   2.207   8.750  12.191  0.7878  0.1418 -1.3657
  600MOL0     C80906   2.069   8.675  12.183  0.5516 -0.7614  0.1188
  600MOL0     C80907   1.968   8.769  12.128  0.1614 -0.7389 -0.2584
  600MOL0     C80908   1.820   8.712  12.141 -0.8156 -0.0027 -0.3761
  600MOL0    Cl80909   1.799   8.565  12.057 -0.0660  0.1501  0.1469
  600MOL0     C80910   2.793   8.179  12.128 -0.6728 -0.3528  0.2341
  600MOL0     C80911   2.831   8.049  12.102  0.6806 -0.0893 -0.0774
  600MOL0     O80912   2.835   7.804  11.927 -0.2948  0.1091 -0.8452
  600MOL0     C80913   2.892   7.540  12.165  0.3680 -0.9869  0.7728
  600MOL0     C80914   2.926   7.405  12.170 -0.2123  0.1477  0.2466
  600MOL0     N80915   2.703   6.711  11.958  0.1969 -0.2617 -0.2685
  600MOL0     N80916   2.651   6.630  11.864  0.0944  0.3173 -0.7509
  600MOL0     C80917   3.543   6.368  11.088  0.0603 -0.1813  0.1529
  600MOL0     C80918   3.677   6.336  11.072 -0.2767  0.2542  0.3668
  600MOL0     C80919   4.081   6.282  10.844 -0.4704  0.6559  0.0627
  600MOL0     C80920   4.050   6.141  10.825  0.7703 -0.4008 -0.5808
  600MOL0     C80921   4.140   6.049  10.767  0.2828  0.1030 -0.6332
  600MOL0     C80922   4.269   6.097  10.741  0.0875 -0.1091 -0.1105
  600MOL0     O80923   4.375   6.018  10.702 -0.6764  0.7812 -0.1368
  600MOL0     C80924   4.341   5.902  10.625 -0.0200  0.3418  0.5686
  600MOL0     C80925   4.289   5.943  10.485  0.3534 -0.0134  0.7845
  600MOL0     C80926   4.380   6.022  10.400 -1.3953 -0.7425 -0.8897
  600MOL0     C80927   4.311   6.124  10.306  0.5923 -0.1633 -0.3942
  600MOL0     C80928   4.230   6.228  10.380  0.1660 -0.7461 -0.0089
  600MOL0     C80929   4.162   6.310  10.439 -0.2531 -0.6811 -0.4187
  600MOL0     C80930   4.300   6.235  10.761  0.4522  0.1174  0.7949
  600MOL0     C80931   4.214   6.328  10.807  0.9021  0.1367 -1.1966
  600MOL0     C80932   4.275   6.473  10.806 -0.5608 -0.4502 -0.4460
  600MOL0     H80933   3.733   6.497  10.779  1.5476  0.2241  1.4957
  600MOL0     H80934   3.479   6.531  10.802 -1.7322 -0.2151  2.0137
  600MOL0     H80935   3.251   6.309  11.006  0.3960  1.7882 -4.9176
  600MOL0     H80936   3.238   6.390  11.159 -1.4442  1.7496 -0.1838
  600MOL0     H80937   3.043   6.376  10.968 -0.1167  0.5092 -3.1498
  600MOL0     H80938   3.120   6.510  10.897 -1.1569 -1.3627 -1.8490
  600MOL0     H80939   2.949   6.602  11.063  0.3508 -0.0877  0.1716
  600MOL0     H80940   3.101   6.646  11.128 -0.2834  1.0982  0.8933
  600MOL0     H80941   2.960   6.390  11.223 -1.1573  0.3235  0.5195
  600MOL0     H80942   3.093   6.484  11.304  0.3475 -0.3436 -0.8849
  600MOL0     H80943   2.926   6.664  11.323 -1.8907 -0.3021  2.6510
  600MOL0     H80944   2.801   6.539  11.264 -0.5956 -0.9465 -0.5699
  600MOL0     H80945   2.860   6.395  11.462 -2.1202  0.8225  0.4134
  600MOL0     H80946   2.982   6.506  11.515 -0.3627 -0.3195  1.2663
  600MOL0     H80947   2.679   6.565  11.476 -0.6914  0.9044  0.7812
  600MOL0     H80948   2.792   6.671  11.544 -2.0595 -0.0472  0.6971
  600MOL0     H80949   2.639   6.457  11.667 -0.3030  0.1928 -0.7929
  600MOL0     H80950   2.791   6.398  11.685 -0.1237 -0.0335  1.4695
  600MOL0     H80951   2.973   6.594  11.812  0.1742 -0.4710  0.6430
  600MOL0     H80952   2.941   6.703  12.144 -0.5317  0.8078  1.1482
  600MOL0     H80953   3.042   6.762  12.005  0.8827  1.0235  1.7736
  600MOL0     H80954   2.895   6.949  11.984 -0.6088  1.6559  1.0351
  600MOL0     H80955   2.810   6.913  12.136 -0.2466 -4.2479  0.5323
  600MOL0     H80956   3.112   6.948  12.136  0.3250  0.2010 -0.5381
  600MOL0     H80957   3.007   6.930  12.274 -2.7939 -0.2856  0.1841
  600MOL0     H80958   3.043   7.166  12.257  1.9773 -0.7502 -0.7949
  600MOL0     H80959   2.877   7.123  12.214  0.1830 -2.2591  1.2067
  600MOL0     H80960   2.969   7.327  11.850  0.8550  0.2813  1.4815
  600MOL0     H80961   2.881   7.564  11.824 -0.8393 -0.1479  0.5529
  600MOL0     H80962   2.583   7.883  12.249 -2.1687  1.9490  0.6490
  600MOL0     H80963   2.517   8.119  12.304  0.7423  0.6840  0.4163
  600MOL0     H80964   2.567   8.455  12.069  0.2524  0.3857 -0.0983
  600MOL0     H80965   2.471   8.312  12.108  0.3225  0.4492 -0.5927
  600MOL0     H80966   2.422   8.405  12.332  0.6293 -3.3409 -2.8504
  600MOL0     H80967   2.523   8.544  12.303  0.8635  1.0132 -1.1179
  600MOL0     H80968   2.383   8.569  12.078 -0.2905 -2.6780 -0.9893
  600MOL0     H80969   2.264   8.481  12.167  0.3150 -1.2481 -1.5941
  600MOL0     H80970   2.414   8.743  12.266  0.7653 -0.3450 -0.7429
  600MOL0     H80971   2.278   8.645  12.354 -1.3107 -0.4823 -1.0563
  600MOL0     H80972   2.234   8.793  12.094 -0.7935  5.6167  0.2593
  600MOL0     H80973   2.188   8.832  12.261 -1.6581  0.5602 -2.4188
  600MOL0     H80974   2.061   8.578  12.133  0.4679  0.3509 -2.1696
  600MOL0     H80975   2.037   8.662  12.286 -1.4645  0.5264 -0.2800
  600MOL0     H80976   1.987   8.784  12.021  2.1611  1.1417  0.2780
  600MOL0     H80977   1.995   8.863  12.176  1.5153 -1.7253  1.0327
  600MOL0     H80978   1.800   8.694  12.247 -1.0437 -0.2645 -0.4611
  600MOL0     H80979   1.754   8.794  12.110 -0.0130  0.4820 -0.8280
  600MOL0     H80980   2.866   8.256  12.105 -2.1642  0.4604 -2.1615
  600MOL0     H80981   2.920   8.025  12.044  0.6230 -0.8224  0.1207
  600MOL0     H80982   2.879   7.604  12.252  1.6207  3.0945 -1.7641
  600MOL0     H80983   2.926   7.354  12.266  0.8163 -0.7311 -0.2091
  600MOL0     H80984   3.511   6.331  11.185  1.5337 -0.3419  0.5982
  600MOL0     H80985   3.731   6.271  11.139  1.0002 -0.5602 -1.3865
  600MOL0     H80986   3.950   6.104  10.841  0.5868 -1.3475 -3.4299
  600MOL0     H80987   4.108   5.947  10.748 -2.6768  0.8774 -0.1592
  600MOL0     H80988   4.273   5.837  10.681  1.5696  0.8484  3.2921
  600MOL0     H80989   4.430   5.840  10.615  0.3181  1.0907 -1.4331
  600MOL0     H80990   4.206   6.014  10.492  1.0262  0.9324 -0.5293
  600MOL0     H80991   4.261   5.856  10.426  1.6344  2.7401 -4.5133
  600MOL0     H80992   4.452   5.958  10.347  2.0314 -2.5576  5.0424
  600MOL0     H80993   4.442   6.089  10.460 -1.2980 -0.2544 -1.5155
  600MOL0     H80994   4.381   6.174  10.239  0.1608 -0.9775 -1.4751
  600MOL0     H80995   4.245   6.074  10.235 -0.6878  0.8501  0.0421
  600MOL0     H80996   4.098   6.380  10.488  1.1103 -1.1615  2.2336
  600MOL0     H80997   4.399   6.273  10.740  1.0650 -1.6761  0.2505
  600MOL0     H80998   4.330   6.494  10.714  0.1622 -0.8125 -0.0984
  600MOL0     H80999   4.198   6.551  10.805 -0.7598 -0.4928  2.6828
  600MOL0     H81000   4.337   6.485  10.895 -2.9413 -0.6387  1.3447
  601MOL0     O81001   4.234   8.606   3.391 -0.1515 -0.5574 -0.0633
  601MOL0     C81002   4.205   8.493   3.424  0.1895  1.5230  0.3615
  601MOL0     O81003   4.104   8.423   3.370  0.3490  0.4195  0.5884
  601MOL0     C81004   4.046   8.472   3.257 -0.0466  0.4631  0.5351
  601MOL0     C81005   3.903   8.480   3.262  0.0094 -0.3944  0.4157
  601MOL0     C81006   3.832   8.533   3.155 -0.1642  0.8326  0.4652
  601MOL0     C81007   3.894   8.546   3.033  0.6375  0.0311  1.0899
  601MOL0     O81008   3.815   8.544   2.918  0.0076  0.2834  0.2005
  601MOL0     C81009   3.875   8.554   2.783 -0.4922 -0.6782 -0.6911
  601MOL0     C81010   3.786   8.512   2.667 -0.4035 -0.1586  1.0727
  601MOL0     C81011   3.740   8.365   2.652  0.4036  1.3432 -0.2600
  601MOL0     C81012   3.783   8.263   2.762 -0.5787  0.6261 -0.6175
  601MOL0     C81013   3.763   8.117   2.709  0.5970  0.1935  1.2947
  601MOL0     C81014   3.883   8.080   2.615  0.3591 -0.6815  0.0046
  601MOL0     C81015   3.873   7.928   2.584 -0.6782  0.0576  0.9758
  601MOL0     C81016   4.010   7.862   2.547  0.3820  0.3155  0.4682
  601MOL0     N81017   3.998   7.713   2.528 -0.7177 -1.1126 -0.1948
  601MOL0     C81018   3.891   7.637   2.566  0.1134  0.5799 -0.0442
  601MOL0     C81019   3.927   7.511   2.533  0.4887 -0.5519 -0.1086
  601MOL0     C81020   3.843   7.383   2.543 -1.1601 -0.8771 -0.6070
  601MOL0     C81021   3.849   7.335   2.685 -0.1772 -0.0512 -0.2722
  601MOL0     C81022   3.798   7.188   2.704 -0.3021 -0.3288  0.4686
  601MOL0     C81023   3.862   7.120   2.828  0.6155 -0.5469 -0.8801
  601MOL0     O81024   3.796   6.994   2.863 -0.8341  0.0068 -0.7853
  601MOL0     C81025   3.679   6.993   2.938  0.0070  0.1318  0.2764
  601MOL0     C81026   3.590   6.895   2.902 -0.1056 -0.5347  0.4294
  601MOL0     C81027   3.474   6.870   2.972 -0.9521  0.6731 -0.6740
  601MOL0     C81028   3.459   6.933   3.097  0.2261  0.2755  0.1219
  601MOL0     C81029   3.356   6.885   3.187 -0.1604  0.0660  0.1297
  601MOL0     O81030   3.273   6.784   3.141 -0.7523  0.3387 -0.4339
  601MOL0     C81031   3.190   6.731   3.237  0.4316  0.6371  0.2948
  601MOL0     C81032   3.213   6.606   3.294 -0.2055 -1.1328 -0.2016
  601MOL0     C81033   3.126   6.545   3.385 -0.6672  0.2748 -0.0051
  601MOL0     C81034   3.007   6.617   3.423  0.1120  0.1838 -0.4784
  601MOL0     O81035   2.911   6.567   3.501  0.0017 -0.4466 -1.3663
  601MOL0     C81036   2.946   6.519   3.633  0.6112 -0.5584 -0.2918
  601MOL0     C81037   2.830   6.563   3.716  0.0448  0.0909 -0.7195
  601MOL0     C81038   2.847   6.543   3.862 -0.1626  0.3278  0.3543
  601MOL0     C81039   2.829   6.397   3.891  0.2792  0.0409  0.9360
  601MOL0     C81040   2.892   6.368   4.025  0.0594  0.3651 -0.0445
  601MOL0     C81041   3.029   6.319   3.998 -0.0939  0.2782  1.6168
  601MOL0     C81042   3.111   6.304   4.120 -0.7885  0.5072  0.1740
  601MOL0     C81043   3.265   6.307   4.082 -0.2786 -0.8640 -0.3939
  601MOL0    Cl81044   3.348   6.302   4.228 -0.3229 -0.1967  0.1053
  601MOL0     C81045   2.985   6.737   3.358 -0.2238 -0.3925 -0.5674
  601MOL0     C81046   3.074   6.796   3.266 -0.5872  0.1959  0.2152
  601MOL0     O81047   3.347   6.934   3.295  0.6660  0.0528  0.8018
  601MOL0     C81048   3.538   7.040   3.133 -0.0626  0.0487 -0.4748
  601MOL0     C81049   3.653   7.065   3.055  0.2457  0.7527 -0.2467
  601MOL0     N81050   4.046   7.520   2.459 -0.4653  0.9366 -0.2499
  601MOL0     N81051   4.096   7.644   2.467 -0.4831  1.0168  0.6108
  601MOL0     C81052   4.038   8.540   3.031 -0.2481 -0.4211  0.3282
  601MOL0     C81053   4.113   8.508   3.146 -0.2597  0.0474 -0.0840
  601MOL0     C81054   4.304   8.417   3.510 -0.7148  0.0500 -0.8231
  601MOL0     C81055   4.316   8.277   3.494  0.7359 -0.1560 -0.6196
  601MOL0     C81056   4.394   8.193   3.568  0.2627 -0.0935 -1.4450
  601MOL0     C81057   4.481   8.248   3.665  0.1882 -0.4160 -0.6907
  601MOL0     O81058   4.535   8.188   3.772  0.2482  0.2133  0.8056
  601MOL0     C81059   4.549   8.046   3.772  0.4490 -0.2374  0.0396
  601MOL0     C81060   4.441   7.969   3.857  0.6117 -0.5083 -0.1440
  601MOL0     C81061   4.492   7.831   3.907 -1.0691  0.1989  0.0881
  601MOL0     C81062   4.372   7.740   3.926  0.8448  0.1928  0.1552
  601MOL0     C81063   4.321   7.696   3.795 -0.5314  0.4013  0.3589
  601MOL0     C81064   4.278   7.652   3.685 -0.9075  0.1758  0.6017
  601MOL0     C81065   4.488   8.389   3.670 -0.5580  0.6374  0.3615
  601MOL0     C81066   4.402   8.470   3.600  0.2727  0.1230  0.3121
  601MOL0     C81067   4.415   8.612   3.629 -0.8637 -0.3145 -0.3553
  601MOL0     H81068   3.841   8.466   3.350  0.1352  0.1224  0.5875
  601MOL0     H81069   3.724   8.544   3.166 -0.2671  0.6968 -0.3319
  601MOL0     H81070   3.901   8.660   2.771 -3.6453  0.0924 -1.5916
  601MOL0     H81071   3.963   8.489   2.792  0.5874  0.9320  1.1690
  601MOL0     H81072   3.831   8.545   2.572 -2.0371  0.1514  0.3749
  601MOL0     H81073   3.703   8.583   2.672  1.1642  1.7767  1.1572
  601MOL0     H81074   3.774   8.327   2.556  1.3115  1.1098  0.1509
  601MOL0     H81075   3.630   8.362   2.649  0.4267 -0.2702 -0.3456
  601MOL0     H81076   3.887   8.274   2.793 -0.9892 -1.6159  1.9326
  601MOL0     H81077   3.731   8.285   2.856 -1.6408  2.4288 -1.5683
  601MOL0     H81078   3.767   8.058   2.802  1.2907 -0.1522  1.0569
  601MOL0     H81079   3.674   8.097   2.649  1.9495  1.3762 -1.2540
  601MOL0     H81080   3.867   8.133   2.521  0.4439 -0.5755  0.0504
  601MOL0     H81081   3.975   8.111   2.664 -0.5297 -2.0275  2.7746
  601MOL0     H81082   3.804   7.922   2.500 -1.0312 -0.0603  1.2747
  601MOL0     H81083   3.817   7.874   2.661  2.8398 -1.8910  2.4085
  601MOL0     H81084   4.041   7.908   2.453  0.9386  0.3218  0.6518
  601MOL0     H81085   4.085   7.875   2.626  1.9465  1.3487 -1.1066
  601MOL0     H81086   3.812   7.672   2.632  0.1766 -1.5328  1.2583
  601MOL0     H81087   3.742   7.412   2.513 -0.4044  3.3399  0.1688
  601MOL0     H81088   3.886   7.313   2.472 -2.6328 -0.8464 -1.5721
  601MOL0     H81089   3.950   7.348   2.724 -0.6731 -0.8224  1.3398
  601MOL0     H81090   3.783   7.395   2.750  0.6343 -1.5283  2.0392
  601MOL0     H81091   3.821   7.124   2.618 -4.9312  0.9962 -2.1333
  601MOL0     H81092   3.691   7.190   2.728 -0.5074 -1.9217 -0.1910
  601MOL0     H81093   3.867   7.196   2.907 -0.9161  2.4660 -3.4831
  601MOL0     H81094   3.962   7.088   2.797  0.5477  1.2848 -3.2506
  601MOL0     H81095   3.612   6.828   2.819  1.8302  2.5173 -1.7320
  601MOL0     H81096   3.398   6.795   2.950 -2.5026  2.1759 -0.6296
  601MOL0     H81097   3.306   6.551   3.278  0.4688 -0.3538  0.8537
  601MOL0     H81098   3.139   6.445   3.422 -0.2903 -0.1247 -1.1592
  601MOL0     H81099   2.946   6.410   3.635 -0.0551 -0.5455  1.0650
  601MOL0     H81100   3.039   6.563   3.671  1.7452 -2.1487 -1.1095
  601MOL0     H81101   2.797   6.665   3.693 -3.5447 -0.8422 -0.2480
  601MOL0     H81102   2.747   6.509   3.671  1.5386 -5.3768  2.2050
  601MOL0     H81103   2.945   6.571   3.899 -0.4726 -1.3917  2.7025
  601MOL0     H81104   2.774   6.599   3.922 -2.5459  0.1608 -2.1798
  601MOL0     H81105   2.872   6.342   3.807 -1.1086 -1.2341  1.0168
  601MOL0     H81106   2.721   6.381   3.883  0.3944 -0.2356 -0.4922
  601MOL0     H81107   2.832   6.297   4.083  1.2686  1.7382  3.1123
  601MOL0     H81108   2.898   6.458   4.086  0.8824  0.0373  0.3831
  601MOL0     H81109   3.027   6.221   3.948 -1.6892  0.5085  1.1982
  601MOL0     H81110   3.074   6.386   3.924 -1.5389 -1.6374 -1.1611
  601MOL0     H81111   3.088   6.214   4.177 -0.0530  0.2791  0.1219
  601MOL0     H81112   3.097   6.390   4.187 -2.7558  1.8868 -1.8396
  601MOL0     H81113   3.295   6.225   4.016 -1.1913 -1.9067  0.4505
  601MOL0     H81114   3.299   6.399   4.034  2.0114 -0.9625  0.9022
  601MOL0     H81115   2.897   6.792   3.391  0.8188  0.3526  1.1113
  601MOL0     H81116   3.044   6.899   3.247  0.1134  0.3537 -0.0842
  601MOL0     H81117   3.515   7.087   3.229 -0.1241  1.2982 -1.0795
  601MOL0     H81118   3.732   7.136   3.077 -0.3103  1.6237 -0.9430
  601MOL0     H81119   4.097   8.562   2.943  0.0798  1.3998  0.9676
  601MOL0     H81120   4.221   8.516   3.149 -0.2693  0.2899 -0.3520
  601MOL0     H81121   4.269   8.222   3.412  1.4543 -0.1420 -1.0534
  601MOL0     H81122   4.391   8.084   3.565  1.7732 -0.2320  0.4134
  601MOL0     H81123   4.650   8.040   3.814  1.5759  0.9769 -2.2631
  601MOL0     H81124   4.551   8.007   3.670 -0.5211  0.1857 -0.1548
  601MOL0     H81125   4.342   7.970   3.811  0.9817  1.1533 -1.0013
  601MOL0     H81126   4.422   8.038   3.940  1.6185  0.5767 -0.7841
  601MOL0     H81127   4.549   7.847   3.999 -0.4970  0.6578 -0.3407
  601MOL0     H81128   4.558   7.785   3.832 -0.0508  3.2038 -0.9817
  601MOL0     H81129   4.408   7.657   3.987 -0.8067 -0.0849  0.7909
  601MOL0     H81130   4.284   7.785   3.972  0.7044 -0.8323  0.9407
  601MOL0     H81131   4.238   7.601   3.600 -2.4910 -1.3846  2.2053
  601MOL0     H81132   4.568   8.422   3.735  0.8184 -1.1362 -0.3357
  601MOL0     H81133   4.494   8.641   3.699 -0.0492 -0.4295 -1.2147
  601MOL0     H81134   4.438   8.658   3.533 -1.0849 -0.9751 -0.7261
  601MOL0     H81135   4.322   8.651   3.671 -1.2630 -0.7307 -0.8514
  602MOL0     O81136   2.331   1.525   3.677 -0.2569 -0.0771 -0.1822
  602MOL0     C81137   2.384   1.534   3.566  0.2476 -0.3986 -0.8685
  602MOL0     O81138   2.518   1.507   3.542  0.6461 -0.6535 -0.5693
  602MOL0     C81139   2.600   1.472   3.645  1.2996 -0.6137 -0.1487
  602MOL0     C81140   2.649   1.339   3.647  0.0125 -0.9045 -0.3485
  602MOL0     C81141   2.740   1.296   3.738 -0.1075  0.4660  0.3163
  602MOL0     C81142   2.768   1.378   3.853 -0.5147  0.2477  0.0325
  602MOL0     O81143   2.859   1.341   3.953  0.8622 -0.6296 -0.9762
  602MOL0     C81144   2.888   1.200   3.982  0.5221 -0.5723 -0.6462
  602MOL0     C81145   2.922   1.177   4.130  0.0934  0.0853  0.1084
  602MOL0     C81146   2.798   1.136   4.220  0.9931  0.4403 -0.3333
  602MOL0     C81147   2.673   1.240   4.239  0.3097 -0.2781 -0.7970
  602MOL0     C81148   2.710   1.373   4.298 -0.6444  0.5613 -0.1618
  602MOL0     C81149   2.589   1.442   4.343  0.1950  0.5771  0.3416
  602MOL0     C81150   2.614   1.591   4.393  0.0237  0.2618  0.6969
  602MOL0     C81151   2.612   1.687   4.271 -0.7709  0.4858  0.2340
  602MOL0     N81152   2.651   1.819   4.324  1.1574  0.4282 -0.0661
  602MOL0     C81153   2.762   1.893   4.279  0.4690 -0.1187 -0.2299
  602MOL0     C81154   2.755   2.021   4.324 -0.4458 -0.2187  0.1701
  602MOL0     C81155   2.858   2.137   4.321 -0.6565 -0.3727  0.3277
  602MOL0     C81156   2.889   2.171   4.171  0.4131  0.2546 -0.6490
  602MOL0     C81157   2.769   2.174   4.081  0.1268 -0.5026 -0.2355
  602MOL0     C81158   2.642   2.251   4.123  0.4443  0.4151  0.7539
  602MOL0     O81159   2.631   2.360   4.025  0.1297 -0.3194 -1.1870
  602MOL0     C81160   2.527   2.451   4.027  0.8764 -0.1695 -0.8795
  602MOL0     C81161   2.414   2.448   4.106 -0.3650  0.4086  0.6631
  602MOL0     C81162   2.303   2.535   4.095 -0.6882 -0.4979  0.4453
  602MOL0     C81163   2.315   2.639   4.007  0.2243 -0.2751  0.6195
  602MOL0     C81164   2.212   2.751   4.010 -0.2279  0.9296  0.1946
  602MOL0     O81165   2.122   2.749   4.110 -0.5626 -0.6847 -0.3593
  602MOL0     C81166   2.031   2.852   4.139 -0.0876 -0.6075 -0.3902
  602MOL0     C81167   1.908   2.816   4.185 -0.1508  0.1756 -0.2052
  602MOL0     C81168   1.812   2.919   4.215 -0.4155 -0.7760 -0.0786
  602MOL0     C81169   1.840   3.050   4.179 -0.1067 -1.9011  0.6446
  602MOL0     O81170   1.746   3.151   4.183  0.4020 -0.5686 -0.5755
  602MOL0     C81171   1.654   3.154   4.075 -0.1240  0.4616  0.1201
  602MOL0     C81172   1.675   3.269   3.982  0.0614  0.7630 -0.3740
  602MOL0     C81173   1.552   3.267   3.882 -0.3333  0.7155 -0.4514
  602MOL0     C81174   1.472   3.394   3.906  0.4230  0.9200 -0.0408
  602MOL0     C81175   1.381   3.433   3.793  0.9801  1.1100  0.2249
  602MOL0     C81176   1.455   3.483   3.665  0.3739  0.6235 -0.3055
  602MOL0     C81177   1.524   3.616   3.678 -0.0752  0.1663 -0.2127
  602MOL0     C81178   1.422   3.721   3.686 -0.2624 -0.3072  0.0280
  602MOL0    Cl81179   1.505   3.866   3.745  0.0369  0.0768  0.0016
  602MOL0     C81180   1.966   3.088   4.130  0.1019  0.3317 -0.5550
  602MOL0     C81181   2.059   2.989   4.103  0.3042 -0.0617  1.0167
  602MOL0     O81182   2.217   2.839   3.925 -0.4521 -0.2896 -0.2072
  602MOL0     C81183   2.432   2.648   3.929  0.2794  0.0927 -0.6165
  602MOL0     C81184   2.535   2.564   3.943 -0.1091  0.0863 -0.8076
  602MOL0     N81185   2.630   2.027   4.389 -1.2433  0.8928  0.9473
  602MOL0     N81186   2.562   1.910   4.385 -0.2614  0.0396  0.4098
  602MOL0     C81187   2.695   1.501   3.862 -0.1242  0.2877  0.1933
  602MOL0     C81188   2.620   1.549   3.758 -0.3635  0.8153  0.3005
  602MOL0     C81189   2.310   1.576   3.448 -0.4632 -0.2582 -0.2650
  602MOL0     C81190   2.329   1.503   3.329 -0.5630  0.3002  0.2981
  602MOL0     C81191   2.279   1.549   3.210 -0.1151 -0.2607 -0.3003
  602MOL0     C81192   2.218   1.668   3.199 -0.7077 -0.5539 -0.2376
  602MOL0     O81193   2.167   1.712   3.079 -0.0347  0.2322  0.3617
  602MOL0     C81194   2.025   1.741   3.070 -0.8613  1.0761 -0.8847
  602MOL0     C81195   1.945   1.658   2.969  0.4353  0.0372 -1.1015
  602MOL0     C81196   1.936   1.513   3.014  0.6532 -0.8232 -0.5273
  602MOL0     C81197   2.030   1.423   2.941  0.2094  0.1720 -0.5810
  602MOL0     C81198   2.003   1.407   2.801  0.1360 -1.6167  1.1096
  602MOL0     C81199   1.983   1.395   2.678  0.7117  0.1136 -0.2479
  602MOL0     C81200   2.192   1.739   3.319  0.6265  1.0003  0.3546
  602MOL0     C81201   2.228   1.689   3.441 -0.3965 -0.3089 -0.6899
  602MOL0     C81202   2.196   1.779   3.553  0.5868  0.8245 -0.4047
  602MOL0     H81203   2.623   1.279   3.560  1.3690 -0.6530 -0.9547
  602MOL0     H81204   2.792   1.204   3.715 -2.1705 -1.0805  1.4845
  602MOL0     H81205   2.793   1.150   3.963 -0.8023  0.6446  2.2425
  602MOL0     H81206   2.968   1.162   3.917  0.3399 -2.4450  0.1462
  602MOL0     H81207   2.980   1.259   4.174  1.8501 -1.6186  1.1485
  602MOL0     H81208   2.988   1.090   4.116  1.7879  1.5277 -1.2813
  602MOL0     H81209   2.837   1.126   4.322 -2.5409 -0.3176  1.1042
  602MOL0     H81210   2.757   1.038   4.192  2.1801 -0.9937  2.5231
  602MOL0     H81211   2.618   1.251   4.146 -0.7484  1.5740 -0.0157
  602MOL0     H81212   2.606   1.197   4.315  1.5385  3.6355  2.9221
  602MOL0     H81213   2.769   1.358   4.389 -1.4849  0.9789  0.4690
  602MOL0     H81214   2.759   1.432   4.220 -2.4310  2.9941  0.3941
  602MOL0     H81215   2.515   1.446   4.262  0.0424  1.2267  0.5129
  602MOL0     H81216   2.538   1.396   4.428  0.6147 -1.1612 -0.2884
  602MOL0     H81217   2.709   1.592   4.448  1.4063  2.9117 -1.5048
  602MOL0     H81218   2.529   1.623   4.453 -2.4744  2.1975 -3.4376
  602MOL0     H81219   2.683   1.651   4.197 -2.6367 -2.1417 -0.4303
  602MOL0     H81220   2.519   1.693   4.213  1.7619  2.8820 -4.1105
  602MOL0     H81221   2.857   1.856   4.241  0.0301 -0.6292 -0.8415
  602MOL0     H81222   2.821   2.222   4.379  1.4988  1.5844 -0.9822
  602MOL0     H81223   2.954   2.103   4.361  1.8143  2.9987 -2.1098
  602MOL0     H81224   2.933   2.272   4.172  1.9329 -0.3752 -0.4812
  602MOL0     H81225   2.964   2.097   4.142  0.0244 -0.3921 -0.0383
  602MOL0     H81226   2.746   2.068   4.065  1.5390 -0.8827  0.1384
  602MOL0     H81227   2.802   2.222   3.989 -0.2101  2.6551  1.1675
  602MOL0     H81228   2.651   2.301   4.220  1.1855  3.6495 -0.8429
  602MOL0     H81229   2.558   2.181   4.132 -0.2740  0.8471 -1.8939
  602MOL0     H81230   2.396   2.377   4.186 -2.7430 -0.2604 -0.3624
  602MOL0     H81231   2.213   2.531   4.155 -1.7739  4.3172 -0.4245
  602MOL0     H81232   1.879   2.713   4.204 -0.4140  0.2893  0.0286
  602MOL0     H81233   1.719   2.905   4.269  0.9121 -1.7161  2.0825
  602MOL0     H81234   1.656   3.054   4.029  1.6161  0.4985  0.0581
  602MOL0     H81235   1.553   3.161   4.115  0.4871  0.6068  1.7049
  602MOL0     H81236   1.687   3.355   4.049  1.0738  0.5814 -0.3053
  602MOL0     H81237   1.771   3.256   3.931  1.2855  0.0677  1.9607
  602MOL0     H81238   1.598   3.280   3.784  2.0446  4.2028  0.9096
  602MOL0     H81239   1.495   3.175   3.896 -1.0546  0.7562 -2.6537
  602MOL0     H81240   1.534   3.483   3.914  0.3875  1.1317 -1.7579
  602MOL0     H81241   1.406   3.385   3.993 -2.1498  2.7050 -1.6737
  602MOL0     H81242   1.310   3.513   3.816  0.6214  1.0381 -0.5804
  602MOL0     H81243   1.326   3.343   3.762 -0.4194  1.9808  0.1195
  602MOL0     H81244   1.530   3.409   3.633 -0.4490 -0.8530  1.0363
  602MOL0     H81245   1.386   3.490   3.581  0.0237 -1.2246 -0.2141
  602MOL0     H81246   1.581   3.628   3.585  1.8771  0.9594  1.0101
  602MOL0     H81247   1.596   3.620   3.761  0.1611  0.8474 -0.4432
  602MOL0     H81248   1.380   3.744   3.588  0.5138 -1.1999 -0.5294
  602MOL0     H81249   1.340   3.704   3.757 -0.7261  2.1734  0.1617
  602MOL0     H81250   1.985   3.192   4.109  1.4854 -0.3254 -3.0441
  602MOL0     H81251   2.156   3.016   4.062 -0.0664 -1.0791 -0.6147
  602MOL0     H81252   2.444   2.738   3.869 -1.0688  1.6414  1.3103
  602MOL0     H81253   2.624   2.574   3.882  0.1055 -0.3069 -0.5638
  602MOL0     H81254   2.698   1.551   3.959 -0.0923 -0.7575  0.7436
  602MOL0     H81255   2.573   1.646   3.770 -2.3694  0.0901 -1.0484
  602MOL0     H81256   2.390   1.413   3.335 -1.0470  0.0048  0.8094
  602MOL0     H81257   2.292   1.495   3.117 -2.5081  0.1760 -0.9464
  602MOL0     H81258   2.009   1.848   3.055  3.1528  1.5844 -2.7741
  602MOL0     H81259   1.980   1.718   3.167 -1.6952  2.0916 -1.0245
  602MOL0     H81260   1.996   1.671   2.873 -2.2246  1.5962 -2.4262
  602MOL0     H81261   1.848   1.709   2.963 -0.7033 -1.5339  2.0278
  602MOL0     H81262   1.833   1.482   2.993 -0.7371  1.7062  1.8427
  602MOL0     H81263   1.941   1.495   3.122 -2.6009  1.1188  0.0876
  602MOL0     H81264   2.132   1.460   2.959 -0.2113  0.1726  2.2812
  602MOL0     H81265   2.038   1.319   2.972 -3.9965 -0.1157  0.1461
  602MOL0     H81266   1.977   1.403   2.571  1.7276  2.2758 -0.2140
  602MOL0     H81267   2.144   1.834   3.300  0.3433  0.2569 -3.3391
  602MOL0     H81268   2.262   1.866   3.559 -0.9568  1.9491  1.5069
  602MOL0     H81269   2.097   1.824   3.539 -0.6345 -0.5774  2.8644
  602MOL0     H81270   2.186   1.717   3.642 -0.6226  1.7359  0.1245
  603MOL0     O81271   0.648   5.246   8.458 -0.4986  0.3944 -0.3896
  603MOL0     C81272   0.767   5.217   8.453 -0.3405  0.1047  0.9301
  603MOL0     O81273   0.860   5.220   8.548  0.6782  0.1650 -0.6978
  603MOL0     C81274   0.823   5.274   8.668 -1.0164  0.3291  0.6664
  603MOL0     C81275   0.765   5.195   8.773  0.1840 -0.0143  0.6900
  603MOL0     C81276   0.753   5.243   8.908  0.7467  0.0181 -0.6045
  603MOL0     C81277   0.772   5.378   8.927  0.3735 -0.5510 -0.1384
  603MOL0     O81278   0.755   5.444   9.046 -0.0497  1.3052 -0.0903
  603MOL0     C81279   0.718   5.375   9.161  1.2452  0.0609  0.0719
  603MOL0     C81280   0.692   5.467   9.275 -0.2096  0.4749  0.0351
  603MOL0     C81281   0.583   5.566   9.262  0.4711  0.6088  0.1891
  603MOL0     C81282   0.586   5.667   9.367 -0.2047  0.0463  0.1791
  603MOL0     C81283   0.549   5.602   9.504 -0.1832  0.2627 -0.8820
  603MOL0     C81284   0.423   5.521   9.501  0.5265  0.0744 -0.3910
  603MOL0     C81285   0.379   5.465   9.637 -1.1194  0.8979  0.3474
  603MOL0     C81286   0.351   5.579   9.745  0.3334 -1.0841 -0.2309
  603MOL0     N81287   0.236   5.661   9.699  0.1272 -1.0142  0.0479
  603MOL0     C81288   0.231   5.794   9.729 -0.0050 -1.4169 -0.4219
  603MOL0     C81289   0.098   5.827   9.694 -0.6609  0.4094 -0.4383
  603MOL0     C81290   0.031   5.970   9.701 -0.0163  0.6618 -0.3520
  603MOL0     C81291   0.116   6.093   9.740  0.1490 -0.4296 -0.4334
  603MOL0     C81292   0.051   6.192   9.843 -0.2697  0.4163 -1.3989
  603MOL0     C81293  -0.069   6.272   9.789  0.2002  0.0498 -0.0297
  603MOL0     O81294  -0.138   6.352   9.883 -0.0988 -0.1628  0.5188
  603MOL0     C81295  -0.099   6.480   9.913 -0.2867 -0.2668 -0.2260
  603MOL0     C81296   0.014   6.552   9.854  0.4472 -0.3583  0.1083
  603MOL0     C81297   0.038   6.680   9.904 -0.0117 -0.2332  0.6910
  603MOL0     C81298  -0.053   6.750   9.990  0.0635  0.2680  0.3149
  603MOL0     C81299  -0.020   6.888  10.037 -0.4349 -0.1196  0.3912
  603MOL0     O81300  -0.116   6.960  10.107  0.2331  0.6975  0.0831
  603MOL0     C81301  -0.089   7.086  10.153  0.2774  0.6614  0.2252
  603MOL0     C81302  -0.066   7.110  10.292 -0.0697 -0.3192  0.0835
  603MOL0     C81303  -0.030   7.238  10.333 -0.1354 -0.4161 -0.0420
  603MOL0     C81304  -0.008   7.347  10.240  0.2678  0.4842  0.0772
  603MOL0     O81305   0.034   7.470  10.270  0.2805  0.4373 -0.2789
  603MOL0     C81306   0.141   7.484  10.362  0.3809  0.3496  0.1692
  603MOL0     C81307   0.218   7.615  10.336  0.0350 -1.6760  0.1261
  603MOL0     C81308   0.324   7.606  10.232  0.1029 -0.0416 -0.3944
  603MOL0     C81309   0.455   7.675  10.262 -0.8677 -0.3520 -0.4172
  603MOL0     C81310   0.572   7.664  10.150  0.4256 -0.5144 -0.2886
  603MOL0     C81311   0.526   7.701  10.008 -0.5489 -0.4067 -1.6377
  603MOL0     C81312   0.479   7.848   9.994  0.1808  0.3313 -0.8517
  603MOL0     C81313   0.489   7.898   9.849  0.6768 -0.3460  0.1896
  603MOL0    Cl81314   0.668   7.911   9.808 -0.3182  0.4157  0.2843
  603MOL0     C81315  -0.042   7.322  10.106  0.8758 -0.2274 -0.3296
  603MOL0     C81316  -0.077   7.193  10.059  0.8984  0.0410 -0.1363
  603MOL0     O81317   0.087   6.933   9.991  0.2872 -0.5464 -0.4387
  603MOL0     C81318  -0.175   6.683  10.024  0.1181 -0.6107  0.6511
  603MOL0     C81319  -0.197   6.551   9.984 -0.6110  0.3614  0.4034
  603MOL0     N81320   0.034   5.711   9.659 -0.6152 -0.0843  0.1381
  603MOL0     N81321   0.117   5.614   9.662  0.7515  0.1828 -1.1375
  603MOL0     C81322   0.812   5.458   8.815 -0.0184 -0.0427  0.2192
  603MOL0     C81323   0.842   5.406   8.688 -0.7612  0.7902  0.3295
  603MOL0     C81324   0.818   5.173   8.330 -0.0697  0.3211  0.1857
  603MOL0     C81325   0.824   5.033   8.304  0.8241 -0.2262 -0.4772
  603MOL0     C81326   0.856   4.993   8.170  0.2656  0.5311 -0.9983
  603MOL0     C81327   0.906   5.090   8.069  0.5491 -0.2770  0.0477
  603MOL0     O81328   0.957   5.031   7.956 -0.9816 -0.4260  0.3303
  603MOL0     C81329   1.053   5.101   7.873  0.3538 -0.8747  1.0307
  603MOL0     C81330   0.976   5.151   7.751 -0.2314  0.4114  0.9270
  603MOL0     C81331   0.906   5.037   7.681 -0.0709  0.0545  0.4722
  603MOL0     C81332   0.872   5.057   7.535 -0.3926  0.0864  0.6131
  603MOL0     C81333   0.739   5.116   7.537 -1.2487  0.2375 -0.8281
  603MOL0     C81334   0.623   5.154   7.529 -0.2869 -0.7802  0.6406
  603MOL0     C81335   0.899   5.225   8.100  0.4217  0.1358  0.2062
  603MOL0     C81336   0.853   5.267   8.219  0.3942  0.1778  0.3111
  603MOL0     C81337   0.864   5.418   8.250 -0.5804 -0.1867  0.1667
  603MOL0     H81338   0.744   5.093   8.742 -1.9724  0.3415  0.8701
  603MOL0     H81339   0.726   5.164   8.978  1.0001 -2.6836 -3.3541
  603MOL0     H81340   0.625   5.321   9.145  0.3216  1.4221  0.7001
  603MOL0     H81341   0.796   5.301   9.184  1.3048  0.4465  1.1938
  603MOL0     H81342   0.782   5.528   9.287  0.9905 -0.7471 -2.0280
  603MOL0     H81343   0.681   5.390   9.352  0.2071 -2.9692 -3.0550
  603MOL0     H81344   0.483   5.522   9.262  0.3332  0.9198  0.5082
  603MOL0     H81345   0.598   5.609   9.162 -0.1161  0.7221  0.1493
  603MOL0     H81346   0.685   5.713   9.371 -1.1386  2.1118  3.0096
  603MOL0     H81347   0.513   5.741   9.333 -1.6669 -0.9470  1.0113
  603MOL0     H81348   0.633   5.538   9.534  1.3449  0.7826 -3.6862
  603MOL0     H81349   0.541   5.673   9.587 -1.8173 -3.4871  2.5694
  603MOL0     H81350   0.342   5.569   9.446  0.1639 -0.1824 -0.0857
  603MOL0     H81351   0.446   5.442   9.429  3.0046  1.6533 -1.4794
  603MOL0     H81352   0.448   5.388   9.674 -0.3906  2.7602  3.2597
  603MOL0     H81353   0.280   5.422   9.621 -2.1189  2.9562  0.6135
  603MOL0     H81354   0.323   5.530   9.839  0.0002  2.1037  1.5029
  603MOL0     H81355   0.441   5.635   9.773 -1.1543  1.9980 -1.1785
  603MOL0     H81356   0.311   5.857   9.765 -0.5587 -3.2643  4.9188
  603MOL0     H81357  -0.009   5.992   9.601 -0.5184  0.2250 -0.2535
  603MOL0     H81358  -0.050   5.965   9.775  0.0052 -1.7028 -0.4189
  603MOL0     H81359   0.206   6.054   9.788  0.8732 -1.1411 -2.2945
  603MOL0     H81360   0.150   6.149   9.653 -3.6209 -1.7938 -3.0067
  603MOL0     H81361   0.119   6.270   9.878 -0.6773 -0.1754  0.8702
  603MOL0     H81362   0.026   6.144   9.938  0.4975  1.5446 -0.5955
  603MOL0     H81363  -0.138   6.191   9.763  1.4038 -1.4710  1.3048
  603MOL0     H81364  -0.047   6.343   9.709 -5.2440  1.6353 -0.5242
  603MOL0     H81365   0.081   6.502   9.785  0.1367  1.1390 -1.3537
  603MOL0     H81366   0.113   6.748   9.864 -3.9546  4.1291 -0.1028
  603MOL0     H81367  -0.086   7.019  10.347 -1.4885 -1.9308 -2.8293
  603MOL0     H81368   0.001   7.267  10.434  0.0478  2.5324 -0.8335
  603MOL0     H81369   0.097   7.505  10.460  0.2879  1.2859 -0.0673
  603MOL0     H81370   0.202   7.393  10.370  1.3259  0.7896 -1.6315
  603MOL0     H81371   0.159   7.703  10.310 -0.0684 -0.5771  3.5592
  603MOL0     H81372   0.260   7.660  10.427  1.9462 -0.7925 -1.1357
  603MOL0     H81373   0.352   7.501  10.216 -1.0302 -0.4772  0.3630
  603MOL0     H81374   0.283   7.647  10.139  1.2166  1.1364 -0.3955
  603MOL0     H81375   0.496   7.637  10.356 -0.1450 -0.3834 -0.7387
  603MOL0     H81376   0.429   7.780  10.275 -2.1719 -0.4889 -1.6272
  603MOL0     H81377   0.607   7.560  10.156  2.1147  0.0593  4.1336
  603MOL0     H81378   0.643   7.742  10.181  2.0655 -2.1418  0.2632
  603MOL0     H81379   0.596   7.671   9.929 -0.9388 -3.0073 -1.0823
  603MOL0     H81380   0.441   7.639   9.981 -1.5417  1.0103 -1.8616
  603MOL0     H81381   0.537   7.918  10.054 -3.0055  0.0936  2.9839
  603MOL0     H81382   0.381   7.854  10.042  1.5214  1.5515  1.9787
  603MOL0     H81383   0.427   7.829   9.790  0.4586  1.2835 -1.6014
  603MOL0     H81384   0.450   7.999   9.836  0.7856 -0.5582 -2.2007
  603MOL0     H81385  -0.035   7.401  10.032  0.3878 -2.3121 -2.7300
  603MOL0     H81386  -0.074   7.176   9.952  0.4644  0.2726 -0.1857
  603MOL0     H81387  -0.255   6.729  10.081  1.1939  2.0887  0.1590
  603MOL0     H81388  -0.290   6.506  10.016 -0.5902 -0.4395 -0.5841
  603MOL0     H81389   0.829   5.561   8.844  1.0270 -0.1461 -0.0048
  603MOL0     H81390   0.893   5.457   8.607  0.5189 -0.7866  0.0832
  603MOL0     H81391   0.785   4.969   8.382 -0.0478  2.4702  1.4554
  603MOL0     H81392   0.841   4.887   8.153  0.7351  0.2798  0.1118
  603MOL0     H81393   1.119   5.020   7.842  1.6222 -1.2612  4.4348
  603MOL0     H81394   1.104   5.184   7.923  0.6557 -0.4820  0.0944
  603MOL0     H81395   1.045   5.182   7.672  0.5837 -2.5040  0.3600
  603MOL0     H81396   0.901   5.228   7.773 -0.7923  0.7341 -1.7236
  603MOL0     H81397   0.820   4.998   7.735 -0.1158 -0.9456 -0.3018
  603MOL0     H81398   0.978   4.956   7.667 -1.0297 -0.4391 -2.1367
  603MOL0     H81399   0.946   5.117   7.480 -0.4399  0.6596  1.1658
  603MOL0     H81400   0.845   4.966   7.481 -3.3752  1.5632 -0.5863
  603MOL0     H81401   0.525   5.195   7.519 -0.5551 -1.1490  1.5621
  603MOL0     H81402   0.940   5.301   8.034 -0.8591 -0.8677 -1.8780
  603MOL0     H81403   0.923   5.472   8.175  0.1047  2.1331  2.2561
  603MOL0     H81404   0.771   5.475   8.244  0.0790  0.9832  0.7934
  603MOL0     H81405   0.906   5.434   8.350  1.5648  0.4727 -0.7748
  604MOL0     O81406   1.076   1.563   0.174 -0.4874  0.5837 -0.4084
  604MOL0     C81407   1.009   1.504   0.262  1.3768  0.0684 -0.1497
  604MOL0     O81408   0.998   1.539   0.395 -0.0023 -0.0718  0.0583
  604MOL0     C81409   1.090   1.599   0.471 -0.8649  0.2377  1.1141
  604MOL0     C81410   1.055   1.635   0.590 -0.3376 -0.1161  0.1446
  604MOL0     C81411   1.147   1.684   0.681 -0.0198 -0.1974 -0.3733
  604MOL0     C81412   1.275   1.707   0.643  0.3579 -0.9542  0.0718
  604MOL0     O81413   1.365   1.768   0.728  0.1226  0.0994  0.1749
  604MOL0     C81414   1.318   1.873   0.815 -0.4131 -0.6198 -1.0567
  604MOL0     C81415   1.418   1.980   0.852  0.1208  0.2106 -0.0601
  604MOL0     C81416   1.557   1.954   0.931  0.8826 -0.4935 -0.1924
  604MOL0     C81417   1.630   2.084   0.956  0.3185  0.0489  0.0920
  604MOL0     C81418   1.782   2.066   1.010 -0.1774  0.2734  0.0496
  604MOL0     C81419   1.778   1.988   1.133  0.5030  0.6881 -0.9351
  604MOL0     C81420   1.920   1.967   1.191 -0.5163 -0.2788 -0.4104
  604MOL0     C81421   1.900   1.900   1.328 -0.0034 -0.2704  0.8135
  604MOL0     N81422   2.001   1.797   1.350  0.3808 -0.7512  0.3354
  604MOL0     C81423   1.961   1.669   1.366  0.5363 -0.4119 -0.5876
  604MOL0     C81424   2.074   1.600   1.371  1.0838  0.3196 -0.3952
  604MOL0     C81425   2.085   1.448   1.384  0.0234  0.5897  0.3365
  604MOL0     C81426   2.220   1.398   1.321  0.0189  0.2645 -0.8491
  604MOL0     C81427   2.211   1.371   1.171 -0.2082 -0.0584  0.9786
  604MOL0     C81428   2.102   1.297   1.115  0.2190  0.2911 -1.4595
  604MOL0     O81429   2.064   1.176   1.198 -0.5070 -0.1981  0.1628
  604MOL0     C81430   1.990   1.085   1.126 -0.0487 -0.4600 -0.4083
  604MOL0     C81431   1.877   1.023   1.183  0.5767 -0.2961  0.0866
  604MOL0     C81432   1.791   0.938   1.117 -0.0256  0.2661 -0.0236
  604MOL0     C81433   1.812   0.920   0.980 -0.3072  0.1049  1.4277
  604MOL0     C81434   1.715   0.842   0.902 -0.4788 -0.1925  0.7963
  604MOL0     O81435   1.731   0.821   0.765 -0.1904  1.0275 -0.4301
  604MOL0     C81436   1.629   0.748   0.708  1.2528 -1.1138  0.1390
  604MOL0     C81437   1.560   0.781   0.587 -0.7308 -0.6937 -0.3681
  604MOL0     C81438   1.464   0.700   0.529  0.9101 -0.1637  1.4328
  604MOL0     C81439   1.431   0.574   0.581  0.8370  0.1263  1.6092
  604MOL0     O81440   1.343   0.510   0.500 -0.2000  0.1819  0.3298
  604MOL0     C81441   1.384   0.376   0.454  1.1358 -0.3190  0.5220
  604MOL0     C81442   1.292   0.320   0.348  0.0621  0.3927  0.1544
  604MOL0     C81443   1.326   0.386   0.215  0.3035 -0.2529 -1.0281
  604MOL0     C81444   1.270   0.296   0.102 -0.4324 -0.1548 -0.1455
  604MOL0     C81445   1.267   0.359  -0.044  0.4307 -0.3507  0.3357
  604MOL0     C81446   1.185   0.278  -0.149  0.7023  0.8391 -0.1956
  604MOL0     C81447   1.160   0.349  -0.275 -0.3671 -0.0045  0.1969
  604MOL0     C81448   1.077   0.277  -0.381 -1.7880 -0.8790  0.8982
  604MOL0    Cl81449   1.115   0.382  -0.529 -0.2551 -0.2934 -0.0202
  604MOL0     C81450   1.497   0.528   0.695  0.7347 -0.0887  0.1001
  604MOL0     C81451   1.593   0.618   0.756  0.5518  0.5252  0.4009
  604MOL0     O81452   1.614   0.810   0.966 -0.2480  0.7243  0.3652
  604MOL0     C81453   1.929   0.983   0.926  0.8166  0.1627  0.6269
  604MOL0     C81454   2.015   1.059   1.001  0.3475  0.3213  1.0469
  604MOL0     N81455   2.177   1.698   1.383  0.8449  0.2645 -0.1245
  604MOL0     N81456   2.131   1.814   1.375  0.1962 -0.1639 -0.3891
  604MOL0     C81457   1.323   1.655   0.524  0.6695 -0.5553  1.1144
  604MOL0     C81458   1.224   1.596   0.434 -0.5402  0.0244 -1.3321
  604MOL0     C81459   0.925   1.387   0.221  0.4436  0.4277  0.3267
  604MOL0     C81460   0.915   1.293   0.320  0.5506  0.2949  0.5183
  604MOL0     C81461   0.836   1.173   0.292 -0.8943  0.2603  0.8792
  604MOL0     C81462   0.795   1.146   0.161 -0.0583 -0.1409  0.1382
  604MOL0     O81463   0.750   1.019   0.142  0.4195  0.0796  0.0572
  604MOL0     C81464   0.755   0.952   0.020 -0.6026 -0.3002  0.3422
  604MOL0     C81465   0.741   0.800   0.045 -0.0566 -0.1552 -0.1986
  604MOL0     C81466   0.845   0.742   0.151  0.2045  0.0617  0.6601
  604MOL0     C81467   0.858   0.594   0.138  0.7938  0.8439 -0.3166
  604MOL0     C81468   0.739   0.502   0.140  0.2157 -0.8973  0.9882
  604MOL0     C81469   0.639   0.440   0.135  0.5704 -0.6925 -0.5280
  604MOL0     C81470   0.807   1.242   0.062  0.7444 -0.1758  0.0003
  604MOL0     C81471   0.865   1.370   0.091  0.1574 -0.7428 -0.0984
  604MOL0     C81472   0.857   1.481  -0.005  0.3094  0.3989  0.5278
  604MOL0     H81473   0.953   1.604   0.613 -0.8758  0.0205 -1.8626
  604MOL0     H81474   1.099   1.710   0.775  0.2345 -0.2112 -0.2386
  604MOL0     H81475   1.229   1.923   0.776  1.2043  1.3619 -2.4138
  604MOL0     H81476   1.299   1.821   0.909  0.0862  2.0985  0.6516
  604MOL0     H81477   1.365   2.057   0.909 -1.2215 -2.8356  3.2256
  604MOL0     H81478   1.448   2.034   0.762  2.5209  3.0250  2.2232
  604MOL0     H81479   1.632   1.891   0.882 -0.7998 -1.5602 -1.4957
  604MOL0     H81480   1.534   1.899   1.023  0.1038 -1.9258 -1.2168
  604MOL0     H81481   1.648   2.130   0.859  2.8474  0.2205  0.5720
  604MOL0     H81482   1.578   2.147   1.029  1.7873  0.6717  0.6208
  604MOL0     H81483   1.845   2.022   0.932 -0.4681 -2.6324  1.3219
  604MOL0     H81484   1.815   2.170   1.014 -0.6905  0.5063 -1.1682
  604MOL0     H81485   1.709   2.025   1.209 -0.8606  1.1387 -2.3483
  604MOL0     H81486   1.748   1.891   1.093 -1.7835  0.9500  0.0112
  604MOL0     H81487   1.963   2.066   1.206  2.1491 -1.2405 -1.1601
  604MOL0     H81488   1.979   1.917   1.114 -2.1243 -2.3333 -0.4012
  604MOL0     H81489   1.897   1.984   1.399  0.9294  0.1841  0.3408
  604MOL0     H81490   1.807   1.843   1.332  0.4824 -1.0204  1.6536
  604MOL0     H81491   1.859   1.631   1.364  0.2865  0.2674 -1.9284
  604MOL0     H81492   2.099   1.424   1.490  2.7240 -1.1915 -0.3152
  604MOL0     H81493   1.994   1.406   1.340  0.1368 -0.4296  1.0328
  604MOL0     H81494   2.297   1.472   1.341 -1.9304  1.7144  1.8199
  604MOL0     H81495   2.234   1.304   1.374  0.2002  0.7877  0.0388
  604MOL0     H81496   2.300   1.312   1.144 -0.8978 -0.9328  0.5412
  604MOL0     H81497   2.224   1.467   1.121  0.3261  0.0005  1.2262
  604MOL0     H81498   2.127   1.284   1.009  0.2724 -0.5007 -1.3528
  604MOL0     H81499   2.027   1.376   1.125  2.1677  1.8686  3.1467
  604MOL0     H81500   1.860   1.041   1.289  0.1214 -0.9069  0.1233
  604MOL0     H81501   1.706   0.906   1.176  0.4608 -2.2366 -0.5657
  604MOL0     H81502   1.564   0.876   0.536 -0.6644  0.0242  0.9434
  604MOL0     H81503   1.417   0.741   0.440  1.7093  0.2931  1.2110
  604MOL0     H81504   1.482   0.391   0.408  1.6944 -2.4261  0.9130
  604MOL0     H81505   1.399   0.312   0.541 -2.8180  0.7763  2.2855
  604MOL0     H81506   1.331   0.219   0.331  2.4279  1.5251 -1.6990
  604MOL0     H81507   1.185   0.316   0.371  0.5720 -3.2619  2.9192
  604MOL0     H81508   1.282   0.485   0.208 -1.7114 -1.2257 -3.5193
  604MOL0     H81509   1.434   0.398   0.201  0.2032  2.0045 -0.2878
  604MOL0     H81510   1.168   0.263   0.124  0.1147  0.1445  3.3001
  604MOL0     H81511   1.337   0.212   0.087 -0.1282 -0.1461  1.1046
  604MOL0     H81512   1.366   0.377  -0.087  0.3662  0.1492  0.3952
  604MOL0     H81513   1.227   0.459  -0.029  0.6587 -0.6983  4.4170
  604MOL0     H81514   1.248   0.191  -0.169  1.3861  1.5315 -1.1799
  604MOL0     H81515   1.094   0.251  -0.095  3.3768  1.2197  5.2034
  604MOL0     H81516   1.246   0.387  -0.331 -1.5614 -0.5879 -2.2079
  604MOL0     H81517   1.105   0.441  -0.258 -0.1480  0.4854 -1.5068
  604MOL0     H81518   1.120   0.177  -0.379 -0.3376 -0.2858  2.5387
  604MOL0     H81519   0.970   0.264  -0.361 -1.4471 -2.1921  2.0643
  604MOL0     H81520   1.472   0.426   0.721 -0.2315 -0.8514 -3.2857
  604MOL0     H81521   1.646   0.570   0.838 -0.9106 -1.8639  0.0674
  604MOL0     H81522   1.959   0.981   0.821  0.8736  0.0522  0.6457
  604MOL0     H81523   2.097   1.104   0.946 -0.9662 -0.1931 -1.4981
  604MOL0     H81524   1.425   1.659   0.487  0.3763 -2.0057  0.0632
  604MOL0     H81525   1.261   1.547   0.345 -1.9277 -0.8481 -1.4555
  604MOL0     H81526   0.948   1.309   0.423 -0.7274 -0.1822  1.0222
  604MOL0     H81527   0.828   1.093   0.365  0.2967 -0.4661  0.2490
  604MOL0     H81528   0.841   0.982  -0.041 -0.5652 -0.8175  0.1403
  604MOL0     H81529   0.667   0.976  -0.040 -0.8569 -3.7624 -0.8899
  604MOL0     H81530   0.750   0.746  -0.050 -4.8873 -1.1839 -0.3414
  604MOL0     H81531   0.645   0.788   0.096 -0.0672  3.0476  0.7405
  604MOL0     H81532   0.834   0.764   0.257  0.8232 -1.8297  1.1634
  604MOL0     H81533   0.945   0.782   0.132  0.0710 -1.1037 -3.3465
  604MOL0     H81534   0.909   0.574   0.043 -1.6774  0.1559 -1.5860
  604MOL0     H81535   0.918   0.557   0.222 -1.1467 -1.9004  0.0152
  604MOL0     H81536   0.558   0.380   0.101  0.4739 -1.3200  0.7782
  604MOL0     H81537   0.762   1.236  -0.036 -0.7781  1.6704  0.5277
  604MOL0     H81538   0.802   1.457  -0.096  1.2158  1.6661 -0.4026
  604MOL0     H81539   0.818   1.570   0.045 -2.9709 -1.4357  1.4754
  604MOL0     H81540   0.963   1.489  -0.032 -0.3008  1.3375 -1.8184
  605MOL0     O81541   5.623   6.730  10.941 -1.0987 -0.4317  0.8249
  605MOL0     C81542   5.637   6.624  10.880  1.0170 -0.2056  0.1807
  605MOL0     O81543   5.743   6.541  10.893 -0.4747  0.1736  0.4303
  605MOL0     C81544   5.837   6.567  10.993  1.2927  1.5162  0.4969
  605MOL0     C81545   5.861   6.460  11.079  0.1385 -0.8090 -0.2314
  605MOL0     C81546   5.961   6.472  11.179  0.2651  1.2461 -0.1711
  605MOL0     C81547   6.045   6.585  11.176  0.4861  0.1917 -0.5985
  605MOL0     O81548   6.154   6.596  11.257 -0.1871  0.2334 -1.0756
  605MOL0     C81549   6.157   6.516  11.376 -0.3049 -0.1450  1.1474
  605MOL0     C81550   6.269   6.544  11.473 -0.5468  0.2720  0.0394
  605MOL0     C81551   6.417   6.522  11.420  0.9518  0.0587  0.2205
  605MOL0     C81552   6.455   6.384  11.450  0.7411  0.1094 -0.2730
  605MOL0     C81553   6.598   6.365  11.399  0.0877 -0.1304 -0.5344
  605MOL0     C81554   6.646   6.229  11.452  0.0782 -0.1955 -0.1553
  605MOL0     C81555   6.787   6.208  11.427 -1.2278 -1.0475 -0.6348
  605MOL0     C81556   6.863   6.127  11.542 -0.4308  0.3900  1.2700
  605MOL0     N81557   6.994   6.191  11.581 -0.2091  0.4244 -0.4366
  605MOL0     C81558   7.001   6.311  11.649  0.1394  0.3396  0.7957
  605MOL0     C81559   7.132   6.319  11.685  0.2333  0.0733  0.3732
  605MOL0     C81560   7.211   6.419  11.761 -0.4616 -0.7057 -0.0771
  605MOL0     C81561   7.178   6.559  11.713  0.7248 -0.6859  0.0744
  605MOL0     C81562   7.239   6.671  11.790  0.6194  0.5516 -0.2770
  605MOL0     C81563   7.181   6.807  11.758  0.4118 -0.0521 -0.3091
  605MOL0     O81564   7.244   6.901  11.843  0.3554  0.1897 -0.2672
  605MOL0     C81565   7.219   7.037  11.809 -0.3224  1.2382 -0.1246
  605MOL0     C81566   7.093   7.094  11.806 -0.9938 -0.0948 -0.1788
  605MOL0     C81567   7.072   7.225  11.765 -0.1329  0.9134  0.4469
  605MOL0     C81568   7.182   7.303  11.723  0.0125 -0.3385 -0.2801
  605MOL0     C81569   7.163   7.445  11.694 -0.6211 -0.1880  0.9197
  605MOL0     O81570   7.113   7.526  11.791 -0.2727 -0.6767 -0.4361
  605MOL0     C81571   7.113   7.658  11.758 -0.1191  0.1245  0.2488
  605MOL0     C81572   6.991   7.701  11.701 -0.2543 -0.3903 -0.2008
  605MOL0     C81573   6.981   7.835  11.665 -0.8141 -0.2375  0.0829
  605MOL0     C81574   7.082   7.923  11.676 -0.5104 -0.3169  0.2607
  605MOL0     O81575   7.048   8.049  11.631  0.0760 -1.1872  0.2668
  605MOL0     C81576   7.173   8.137  11.605 -0.5563  0.6174  0.3885
  605MOL0     C81577   7.128   8.278  11.573 -0.3011 -0.8644 -0.0598
  605MOL0     C81578   7.081   8.352  11.699  0.0293 -0.4638  0.1658
  605MOL0     C81579   7.016   8.483  11.668  0.0707 -0.1112  0.0597
  605MOL0     C81580   7.127   8.583  11.631  0.0067  0.1518  0.9094
  605MOL0     C81581   7.075   8.733  11.644  0.2343 -0.5138  0.2354
  605MOL0     C81582   6.968   8.769  11.533  0.9869 -0.9312 -0.7473
  605MOL0     C81583   6.983   8.896  11.452  0.0145  0.5845  1.0330
  605MOL0    Cl81584   6.837   8.887  11.348  0.0069 -0.5096  0.3117
  605MOL0     C81585   7.207   7.884  11.736  0.0766 -0.8222 -0.0250
  605MOL0     C81586   7.220   7.746  11.770 -1.7777  0.0801 -0.3655
  605MOL0     O81587   7.217   7.483  11.591 -0.6196  0.8326 -0.3567
  605MOL0     C81588   7.311   7.241  11.721 -0.2719  0.1314  0.1488
  605MOL0     C81589   7.335   7.114  11.773  0.2891 -0.2601 -0.4520
  605MOL0     N81590   7.196   6.202  11.651 -0.1494  0.3638  1.6339
  605MOL0     N81591   7.116   6.126  11.586  0.4788  0.8131  0.4414
  605MOL0     C81592   6.018   6.692  11.092  0.2667 -0.0827  0.6674
  605MOL0     C81593   5.917   6.680  11.000  0.4431  0.7434 -0.1882
  605MOL0     C81594   5.513   6.595  10.789 -0.7619  0.2367 -1.3077
  605MOL0     C81595   5.429   6.697  10.745  0.1297  0.1639 -0.1948
  605MOL0     C81596   5.307   6.661  10.666 -0.4917 -0.2275  0.2948
  605MOL0     C81597   5.272   6.534  10.649  0.2087  0.1936 -0.9780
  605MOL0     O81598   5.177   6.482  10.564 -1.0833  1.0873 -0.6762
  605MOL0     C81599   5.064   6.560  10.527 -0.5915 -0.3924  0.1376
  605MOL0     C81600   4.968   6.465  10.468 -0.2019 -0.1098  0.0248
  605MOL0     C81601   4.912   6.367  10.577  0.0366 -1.2659 -0.4739
  605MOL0     C81602   4.798   6.437  10.657  0.6076 -0.8854  0.0014
  605MOL0     C81603   4.666   6.438  10.592  0.2429 -1.3372 -0.1391
  605MOL0     C81604   4.553   6.461  10.538 -0.6341  0.0320 -0.3378
  605MOL0     C81605   5.358   6.435  10.702  0.8822  0.2370 -0.1270
  605MOL0     C81606   5.467   6.465  10.782 -0.6587  0.9323 -0.6095
  605MOL0     C81607   5.520   6.352  10.874 -0.1460  0.3340  0.7078
  605MOL0     H81608   5.816   6.362  11.069  0.0946 -0.8711  0.4809
  605MOL0     H81609   5.981   6.384  11.239 -0.5463  1.0051 -0.2476
  605MOL0     H81610   6.066   6.533  11.433 -0.3156 -1.3215  1.5260
  605MOL0     H81611   6.167   6.414  11.335 -3.3420  0.7009 -2.1953
  605MOL0     H81612   6.273   6.484  11.565  2.1100  2.8207  1.7771
  605MOL0     H81613   6.257   6.648  11.506 -0.5888  0.3870 -0.3412
  605MOL0     H81614   6.483   6.596  11.465  0.4220  0.2096  0.7440
  605MOL0     H81615   6.405   6.534  11.312 -0.3018 -3.1160 -0.1124
  605MOL0     H81616   6.458   6.386  11.560 -0.4967  2.0738 -0.2213
  605MOL0     H81617   6.380   6.314  11.415  1.0479  1.5238 -4.1961
  605MOL0     H81618   6.608   6.365  11.290  2.1062 -1.2368 -0.4145
  605MOL0     H81619   6.666   6.446  11.428 -0.5625 -0.4177  2.0581
  605MOL0     H81620   6.626   6.223  11.559 -1.0242 -2.9249 -0.4147
  605MOL0     H81621   6.594   6.140  11.414 -1.6579  0.2852  0.9777
  605MOL0     H81622   6.839   6.305  11.420  2.2678 -2.8330 -2.4707
  605MOL0     H81623   6.794   6.156  11.331  0.8618 -2.2898  0.1132
  605MOL0     H81624   6.800   6.121  11.631 -1.2202  1.7603  0.8206
  605MOL0     H81625   6.882   6.029  11.497 -2.3277  1.2732 -1.7197
  605MOL0     H81626   6.919   6.379  11.669 -1.3188 -1.3605  0.7698
  605MOL0     H81627   7.197   6.418  11.870  1.2813  0.1819  0.2022
  605MOL0     H81628   7.316   6.400  11.735 -1.3446 -2.2760 -2.9112
  605MOL0     H81629   7.220   6.568  11.612  1.1938  3.3421  0.4915
  605MOL0     H81630   7.070   6.578  11.707 -0.4177 -5.7090 -0.5455
  605MOL0     H81631   7.346   6.677  11.769  0.5996 -1.1281 -0.9902
  605MOL0     H81632   7.213   6.653  11.894  1.4148  0.5507 -0.0713
  605MOL0     H81633   7.071   6.803  11.762  0.3194 -1.9349 -2.4246
  605MOL0     H81634   7.204   6.843  11.657 -3.5538  1.3183 -0.9210
  605MOL0     H81635   7.010   7.034  11.841 -0.9884 -1.2994 -2.0878
  605MOL0     H81636   6.968   7.255  11.771 -0.8175 -0.7227 -1.7029
  605MOL0     H81637   6.910   7.631  11.681  0.5556 -0.9906 -1.4224
  605MOL0     H81638   6.887   7.871  11.625  0.9184  2.5236 -1.8309
  605MOL0     H81639   7.247   8.142  11.686  1.0372 -0.2846 -0.9338
  605MOL0     H81640   7.226   8.102  11.516  1.2595  0.6045  1.4040
  605MOL0     H81641   7.205   8.343  11.531 -2.4492  1.4791 -0.6532
  605MOL0     H81642   7.046   8.279  11.500 -0.4482 -0.8234  0.1044
  605MOL0     H81643   7.017   8.282  11.753 -2.6618  1.7549  0.0944
  605MOL0     H81644   7.171   8.363  11.760 -1.4911 -4.2132  3.5438
  605MOL0     H81645   6.953   8.517  11.751 -0.3245  0.3021 -0.4033
  605MOL0     H81646   6.952   8.469  11.580  0.5055  0.2711 -0.3189
  605MOL0     H81647   7.162   8.567  11.529 -1.1743  0.7091  0.3981
  605MOL0     H81648   7.219   8.584  11.690  0.1159  1.2782  0.7444
  605MOL0     H81649   7.030   8.745  11.743  0.4331  1.4804  0.1221
  605MOL0     H81650   7.164   8.796  11.645  1.0650 -1.5909  2.5289
  605MOL0     H81651   6.867   8.776  11.575  0.2943  1.9181 -2.5814
  605MOL0     H81652   6.986   8.690  11.459  3.1390  0.6301 -2.0143
  605MOL0     H81653   6.982   8.986  11.514  2.7549  0.9680  0.6354
  605MOL0     H81654   7.067   8.880  11.383 -1.7444 -1.5525 -0.7623
  605MOL0     H81655   7.291   7.949  11.757 -1.0900  0.8907 -0.4280
  605MOL0     H81656   7.320   7.708  11.787 -1.9584  0.1216  0.9023
  605MOL0     H81657   7.385   7.312  11.686 -0.6427  0.3507 -0.1984
  605MOL0     H81658   7.440   7.091  11.761  0.4217  1.1177 -2.4622
  605MOL0     H81659   6.075   6.784  11.083 -0.0799 -0.0517 -1.5346
  605MOL0     H81660   5.896   6.763  10.934 -1.7902  0.7704  0.4732
  605MOL0     H81661   5.459   6.801  10.747  0.1998  0.3530 -4.2136
  605MOL0     H81662   5.239   6.733  10.622 -1.6946 -0.2039  2.0659
  605MOL0     H81663   5.086   6.639  10.455 -1.6340 -1.2879 -1.2190
  605MOL0     H81664   5.030   6.607  10.620  0.4228 -1.9772  1.3567
  605MOL0     H81665   5.018   6.404  10.393  2.6754  0.6476  1.2044
  605MOL0     H81666   4.883   6.514  10.419  1.7049  1.1788 -2.2037
  605MOL0     H81667   4.990   6.347  10.651 -1.4191 -1.7797  0.9779
  605MOL0     H81668   4.876   6.274  10.532 -0.1208 -1.1437 -0.6036
  605MOL0     H81669   4.785   6.374  10.745  0.0936 -0.4123  0.2773
  605MOL0     H81670   4.813   6.541  10.688  0.9008 -1.0319  0.3497
  605MOL0     H81671   4.460   6.477  10.488 -1.0248 -2.3774 -0.5285
  605MOL0     H81672   5.318   6.335  10.688 -1.9931  1.0912  1.2927
  605MOL0     H81673   5.607   6.300  10.833 -0.8537 -1.0402  0.8979
  605MOL0     H81674   5.537   6.391  10.975 -1.8165  2.8637  0.1163
  605MOL0     H81675   5.450   6.268  10.873  0.0875  0.1366  0.8947
  606MOL0     O81676   0.046   6.949   3.042  0.5024 -0.3892 -0.4634
  606MOL0     C81677  -0.053   6.928   3.113  0.1218 -0.0352 -0.4115
  606MOL0     O81678  -0.141   7.026   3.141  0.0215  0.1376  0.0690
  606MOL0     C81679  -0.111   7.151   3.124 -0.7712 -0.6613 -0.3356
  606MOL0     C81680  -0.002   7.200   3.206  0.4911 -0.2670 -0.2846
  606MOL0     C81681   0.032   7.328   3.180  0.2010 -0.0568  0.1626
  606MOL0     C81682  -0.034   7.419   3.090  0.4689  0.1059 -0.2002
  606MOL0     O81683   0.018   7.551   3.068  0.1169  0.2883  0.2007
  606MOL0     C81684  -0.025   7.632   2.958 -0.2060 -0.4330  0.9595
  606MOL0     C81685   0.088   7.729   2.922 -0.8117 -1.1391 -0.5373
  606MOL0     C81686   0.066   7.827   2.808 -1.0077 -0.1733  1.1607
  606MOL0     C81687  -0.057   7.916   2.823  0.7265 -0.7315 -0.3902
  606MOL0     C81688  -0.064   8.035   2.720 -0.3122  0.0745 -0.6111
  606MOL0     C81689  -0.202   8.100   2.730 -0.9336  0.3176 -0.1752
  606MOL0     C81690  -0.226   8.194   2.610 -0.2468  0.4229 -0.0827
  606MOL0     C81691  -0.120   8.303   2.582 -1.1530 -0.0218 -0.2987
  606MOL0     N81692  -0.157   8.393   2.471 -0.0259 -0.4204  1.2761
  606MOL0     C81693  -0.257   8.492   2.469  0.5564  0.4926  1.1064
  606MOL0     C81694  -0.222   8.544   2.352  1.0284 -0.6686  0.1421
  606MOL0     C81695  -0.294   8.656   2.278  0.8286  0.2082  0.6311
  606MOL0     C81696  -0.367   8.752   2.366  0.1535  0.1870 -0.6138
  606MOL0     C81697  -0.427   8.869   2.286  0.0126 -0.4887 -0.3867
  606MOL0     C81698  -0.508   8.976   2.362 -0.1952  0.3730  0.1662
  606MOL0     O81699  -0.420   9.035   2.460  0.3586 -0.1323 -0.8875
  606MOL0     C81700  -0.487   9.088   2.569 -0.1574  0.0170 -0.3753
  606MOL0     C81701  -0.404   9.120   2.684 -0.5098 -0.0309  1.3112
  606MOL0     C81702  -0.458   9.190   2.785 -0.7106 -0.5211  0.0948
  606MOL0     C81703  -0.594   9.226   2.788 -0.5485 -0.7497 -0.1660
  606MOL0     C81704  -0.653   9.291   2.908 -0.3034 -0.6436  0.2835
  606MOL0     O81705  -0.790   9.316   2.929  0.5766  0.2033  0.3815
  606MOL0     C81706  -0.848   9.396   3.032  0.4189  0.2507 -0.5729
  606MOL0     C81707  -0.789   9.524   3.059 -0.6334 -0.1638 -0.0628
  606MOL0     C81708  -0.835   9.611   3.159 -0.1054  0.5229  0.8047
  606MOL0     C81709  -0.937   9.559   3.246 -0.0766  0.7283  0.3695
  606MOL0     O81710  -0.978   9.647   3.342  0.1527  0.1480 -0.0524
  606MOL0     C81711  -1.038   9.772   3.303 -0.0190 -0.5630 -0.0092
  606MOL0     C81712  -1.188   9.771   3.322  0.9100 -0.5227 -0.1297
  606MOL0     C81713  -1.228   9.825   3.459 -0.0274 -0.0823 -0.8028
  606MOL0     C81714  -1.192   9.716   3.560  0.1272 -0.4075  1.1629
  606MOL0     C81715  -1.235   9.763   3.702  0.4267 -0.0072  0.3979
  606MOL0     C81716  -1.396   9.774   3.716  0.5781 -1.2829  0.5424
  606MOL0     C81717  -1.487   9.655   3.695 -0.3769  0.0899 -0.7160
  606MOL0     C81718  -1.607   9.700   3.621  0.4889  0.4151 -0.2953
  606MOL0    Cl81719  -1.567   9.695   3.452 -0.5440 -0.0212 -0.1768
  606MOL0     C81720  -0.991   9.433   3.235 -0.3053  0.3097  0.8694
  606MOL0     C81721  -0.950   9.353   3.122  0.1131 -0.2204  0.9966
  606MOL0     O81722  -0.570   9.342   2.982  0.2274 -0.2128  0.7452
  606MOL0     C81723  -0.676   9.194   2.676 -0.3639  0.0352  0.0480
  606MOL0     C81724  -0.624   9.130   2.560 -0.1413  0.8523 -0.2398
  606MOL0     N81725  -0.120   8.486   2.282 -0.3467  0.0814 -0.0737
  606MOL0     N81726  -0.086   8.391   2.353 -0.7180 -0.0041 -0.0724
  606MOL0     C81727  -0.144   7.371   3.016  0.4301  0.0988 -0.0717
  606MOL0     C81728  -0.179   7.235   3.035  0.1832  0.5681  1.0909
  606MOL0     C81729  -0.067   6.785   3.157  0.1550  0.2018  0.2443
  606MOL0     C81730   0.052   6.711   3.180 -0.3889 -0.3767  0.7995
  606MOL0     C81731   0.037   6.570   3.213  0.3566 -0.1616  0.1316
  606MOL0     C81732  -0.087   6.513   3.244 -0.7692 -0.6555  0.1835
  606MOL0     O81733  -0.105   6.387   3.286 -0.6124  0.1034  0.7675
  606MOL0     C81734   0.014   6.315   3.331  0.6796  0.6200  0.1751
  606MOL0     C81735  -0.032   6.179   3.391 -0.3977 -0.7026 -0.6934
  606MOL0     C81736   0.085   6.110   3.468  0.2986 -1.3812  0.8649
  606MOL0     C81737   0.030   6.000   3.559  0.2912  0.3670  0.0299
  606MOL0     C81738  -0.033   5.894   3.480  0.7226 -0.2482  0.6508
  606MOL0     C81739  -0.093   5.805   3.422 -0.1329  0.3296 -0.5982
  606MOL0     C81740  -0.198   6.595   3.239  0.9340  0.1438  0.0656
  606MOL0     C81741  -0.198   6.727   3.197 -0.0511 -2.0830  0.8168
  606MOL0     C81742  -0.322   6.812   3.196 -0.1770 -0.0631  0.3936
  606MOL0     H81743   0.052   7.137   3.276  0.1977  1.0524  1.1911
  606MOL0     H81744   0.122   7.358   3.233  0.2113  0.0025  0.1115
  606MOL0     H81745  -0.043   7.570   2.869  1.4942 -0.0107  0.2958
  606MOL0     H81746  -0.120   7.686   2.967 -0.4806 -0.7358  0.0252
  606MOL0     H81747   0.164   7.658   2.890 -0.8147 -0.8991 -1.0848
  606MOL0     H81748   0.113   7.784   3.013 -0.4746 -1.2754 -0.5471
  606MOL0     H81749   0.074   7.776   2.711 -0.5081 -3.0762  2.6004
  606MOL0     H81750   0.154   7.890   2.818 -0.1305 -0.7094 -2.0776
  606MOL0     H81751  -0.146   7.853   2.814  0.3227 -0.9626  3.3787
  606MOL0     H81752  -0.067   7.941   2.929  5.2632 -3.0249  0.8644
  606MOL0     H81753   0.017   8.108   2.730 -1.1648  1.1980 -1.5944
  606MOL0     H81754  -0.060   7.972   2.631  0.4561 -0.8915  0.0812
  606MOL0     H81755  -0.290   8.035   2.730  0.8384 -2.3681 -3.8347
  606MOL0     H81756  -0.197   8.171   2.814  0.3626 -1.0456  0.9552
  606MOL0     H81757  -0.317   8.252   2.624 -1.2228 -1.7014  4.0021
  606MOL0     H81758  -0.235   8.133   2.520 -0.4718  0.0402  0.1969
  606MOL0     H81759  -0.101   8.354   2.677 -1.6384 -3.8475  2.0691
  606MOL0     H81760  -0.028   8.253   2.551  1.5145  2.6679  2.4620
  606MOL0     H81761  -0.352   8.501   2.521  0.6248 -0.4826  1.4256
  606MOL0     H81762  -0.231   8.713   2.209  1.3403  0.7748  1.5491
  606MOL0     H81763  -0.371   8.616   2.210  0.4458  1.0987  0.5233
  606MOL0     H81764  -0.444   8.697   2.421  1.2771 -1.1438 -0.3259
  606MOL0     H81765  -0.297   8.780   2.445  3.6160 -1.1870 -2.9417
  606MOL0     H81766  -0.492   8.838   2.203  1.0332  1.0255 -1.8132
  606MOL0     H81767  -0.337   8.918   2.248  0.1253 -1.7006 -1.7818
  606MOL0     H81768  -0.593   8.922   2.406  0.8111 -1.5184 -0.0895
  606MOL0     H81769  -0.541   9.058   2.298 -1.1961  0.9255  1.3549
  606MOL0     H81770  -0.300   9.091   2.684 -0.5321 -0.1124  1.4830
  606MOL0     H81771  -0.407   9.219   2.876  1.4746  0.4429 -1.3356
  606MOL0     H81772  -0.704   9.561   3.002 -0.0893  1.5570  1.7483
  606MOL0     H81773  -0.811   9.717   3.161  0.8148  0.4580 -2.1753
  606MOL0     H81774  -0.993   9.859   3.351  3.1661 -1.0084 -1.8926
  606MOL0     H81775  -1.042   9.784   3.194 -1.6683  1.6991  0.2113
  606MOL0     H81776  -1.225   9.849   3.255  1.2200 -1.5874 -1.5936
  606MOL0     H81777  -1.228   9.674   3.291  3.3021 -0.7468 -3.0870
  606MOL0     H81778  -1.175   9.912   3.497  0.7894 -0.8430 -0.1738
  606MOL0     H81779  -1.334   9.851   3.451  0.6803  2.6626 -2.3759
  606MOL0     H81780  -1.085   9.698   3.574  0.3539  2.2115  3.5502
  606MOL0     H81781  -1.248   9.623   3.546  0.3442 -0.8914  3.1559
  606MOL0     H81782  -1.196   9.864   3.717 -2.3647  0.8336  2.7623
  606MOL0     H81783  -1.186   9.703   3.780 -1.1574  2.4887  3.5256
  606MOL0     H81784  -1.410   9.830   3.809 -0.2469 -0.9733  0.2477
  606MOL0     H81785  -1.430   9.841   3.635  0.9126 -0.9153  0.7045
  606MOL0     H81786  -1.507   9.624   3.798 -2.4569  1.4740 -0.6554
  606MOL0     H81787  -1.437   9.568   3.650  0.8878 -0.5316  1.6919
  606MOL0     H81788  -1.683   9.622   3.627  0.3242  0.2032 -3.4414
  606MOL0     H81789  -1.655   9.789   3.660  0.0589 -0.7774  2.0848
  606MOL0     H81790  -1.059   9.398   3.313 -1.0623 -0.7688 -0.2470
  606MOL0     H81791  -0.995   9.258   3.098 -1.5918  0.8560 -0.2358
  606MOL0     H81792  -0.780   9.221   2.668 -0.7627 -1.7214 -1.6280
  606MOL0     H81793  -0.690   9.120   2.475 -0.7508  0.9985  0.2033
  606MOL0     H81794  -0.189   7.433   2.938  2.1964 -0.3332 -1.4966
  606MOL0     H81795  -0.255   7.195   2.968 -2.4695  2.2991  2.8975
  606MOL0     H81796   0.152   6.749   3.162  0.4656 -1.2092  3.3839
  606MOL0     H81797   0.126   6.514   3.240 -2.1511 -3.5427  2.1040
  606MOL0     H81798   0.071   6.369   3.407  0.2293  0.0390  0.9462
  606MOL0     H81799   0.068   6.288   3.240 -2.4197 -2.1894 -1.0564
  606MOL0     H81800  -0.067   6.125   3.303 -5.4110  0.1690  0.4492
  606MOL0     H81801  -0.118   6.197   3.456  0.4817 -2.1161  0.9558
  606MOL0     H81802   0.142   6.188   3.518  2.8792  0.4465 -4.1975
  606MOL0     H81803   0.154   6.067   3.395  0.3694  0.2686 -0.0778
  606MOL0     H81804   0.104   5.946   3.617  1.1639 -0.6820 -1.9484
  606MOL0     H81805  -0.040   6.047   3.629  0.7806  0.2816  0.5728
  606MOL0     H81806  -0.118   5.716   3.367 -3.8714  1.6334 -1.3303
  606MOL0     H81807  -0.289   6.545   3.269  0.4159 -0.1721 -1.8852
  606MOL0     H81808  -0.322   6.890   3.274 -3.1492 -0.3394  0.7904
  606MOL0     H81809  -0.317   6.858   3.097  1.3380 -0.0520  0.4493
  606MOL0     H81810  -0.408   6.744   3.199  0.9355 -1.4973  1.8805
  607MOL0     O81811   5.900   2.127  11.398 -0.0107 -0.1562  0.5033
  607MOL0     C81812   5.866   2.178  11.508 -0.5996 -0.0722 -0.8296
  607MOL0     O81813   5.955   2.247  11.590 -1.0142  0.3731  0.1171
  607MOL0     C81814   6.091   2.240  11.549  0.6091 -0.2593  0.0302
  607MOL0     C81815   6.168   2.145  11.618 -0.5609 -0.7087  0.4881
  607MOL0     C81816   6.306   2.135  11.584 -0.3279  1.0658 -0.5194
  607MOL0     C81817   6.361   2.211  11.484 -0.0046  0.0525 -0.2029
  607MOL0     O81818   6.497   2.213  11.454  0.2984  0.5175 -0.2593
  607MOL0     C81819   6.526   2.125  11.355 -0.4216  0.2023  0.2337
  607MOL0     C81820   6.671   2.144  11.294 -0.2376 -0.1882 -0.1564
  607MOL0     C81821   6.650   2.086  11.149  0.2215 -0.9123  0.2427
  607MOL0     C81822   6.796   2.083  11.096  0.6921 -0.2609  0.2056
  607MOL0     C81823   6.815   2.163  10.965 -0.5756 -0.3080 -0.1477
  607MOL0     C81824   6.818   2.314  10.987 -0.7073  0.0066  1.0092
  607MOL0     C81825   6.767   2.384  10.857 -0.1356 -0.1881 -0.8057
  607MOL0     C81826   6.794   2.529  10.876 -0.0040  0.1036  0.5121
  607MOL0     N81827   6.763   2.616  10.763  0.0875 -0.0021  0.3851
  607MOL0     C81828   6.653   2.610  10.680 -0.1156 -0.5783 -0.4242
  607MOL0     C81829   6.671   2.713  10.605  0.3583  0.0585 -0.6168
  607MOL0     C81830   6.599   2.773  10.491  0.0382  0.6891 -0.0339
  607MOL0     C81831   6.524   2.900  10.541 -0.3314  0.3590 -0.3144
  607MOL0     C81832   6.428   2.969  10.435 -0.2420  0.7300  0.3199
  607MOL0     C81833   6.337   3.053  10.522  0.1333  0.0726 -0.2206
  607MOL0     O81834   6.237   2.973  10.589  0.8397  0.1374  1.2931
  607MOL0     C81835   6.149   3.047  10.660 -0.5067 -0.4976  0.9485
  607MOL0     C81836   6.018   3.051  10.609  0.0525 -0.3788  0.8230
  607MOL0     C81837   5.921   3.112  10.684  0.6221  0.2714 -0.4735
  607MOL0     C81838   5.944   3.171  10.814 -0.2537  0.3035  0.2680
  607MOL0     C81839   5.837   3.226  10.903 -0.0975 -0.0125 -0.3782
  607MOL0     O81840   5.864   3.282  11.027 -0.1135  0.5021  0.3276
  607MOL0     C81841   5.774   3.347  11.093  0.3678  0.2391 -0.2382
  607MOL0     C81842   5.731   3.472  11.050 -0.5265 -1.0255  0.3566
  607MOL0     C81843   5.629   3.540  11.118 -1.1779 -0.1801  0.5888
  607MOL0     C81844   5.576   3.493  11.234  0.2662 -0.0676  0.7123
  607MOL0     O81845   5.467   3.551  11.285  0.2541  0.1594 -0.1503
  607MOL0     C81846   5.500   3.641  11.383  0.5146  0.3701 -0.7923
  607MOL0     C81847   5.388   3.672  11.475 -0.6499  0.0208 -0.2258
  607MOL0     C81848   5.356   3.541  11.531 -0.7196  0.0482 -0.1290
  607MOL0     C81849   5.255   3.546  11.646 -0.1707  0.3664  0.3318
  607MOL0     C81850   5.112   3.597  11.617  0.9907  1.4059  0.5351
  607MOL0     C81851   5.024   3.510  11.530  0.3278 -0.7996  0.8729
  607MOL0     C81852   4.889   3.570  11.509 -0.7436  0.9181 -0.1538
  607MOL0     C81853   4.810   3.468  11.419 -0.3846  0.4623 -0.5012
  607MOL0    Cl81854   4.649   3.538  11.407 -0.5663  0.1707 -0.1056
  607MOL0     C81855   5.634   3.381  11.293 -0.4020 -0.2873  0.4646
  607MOL0     C81856   5.730   3.312  11.218  1.3509  1.4692  1.2509
  607MOL0     O81857   5.723   3.223  10.849 -0.1451 -0.2292  0.3710
  607MOL0     C81858   6.076   3.162  10.862 -0.0797  0.5773  0.7787
  607MOL0     C81859   6.173   3.093  10.791  0.2383 -0.5379 -0.4425
  607MOL0     N81860   6.793   2.772  10.636  0.2635  0.0078  0.2998
  607MOL0     N81861   6.847   2.726  10.743  0.4708 -0.0217  0.2656
  607MOL0     C81862   6.277   2.313  11.427 -0.1666 -0.4395  0.1780
  607MOL0     C81863   6.147   2.326  11.458  0.8999  0.0972 -0.5019
  607MOL0     C81864   5.723   2.161  11.552 -0.0460 -0.6223  0.7779
  607MOL0     C81865   5.620   2.179  11.453 -0.7980 -0.9133  0.3555
  607MOL0     C81866   5.487   2.155  11.476 -0.6321  0.8363 -0.0679
  607MOL0     C81867   5.457   2.094  11.588 -0.2518 -0.6611 -0.3032
  607MOL0     O81868   5.332   2.035  11.610  0.3237 -0.1688  0.1527
  607MOL0     C81869   5.240   2.036  11.503  0.1019  0.7271  0.7900
  607MOL0     C81870   5.100   2.007  11.561 -0.0222 -0.1226  0.5582
  607MOL0     C81871   4.988   2.006  11.460 -0.6007  0.5334  0.2959
  607MOL0     C81872   4.862   1.996  11.545 -0.2709  0.6420 -0.1220
  607MOL0     C81873   4.747   1.956  11.459 -0.2940 -0.5836  0.4202
  607MOL0     C81874   4.646   1.921  11.408 -0.1076 -0.1334  0.1285
  607MOL0     C81875   5.544   2.074  11.696 -0.5324 -0.1675 -0.4647
  607MOL0     C81876   5.681   2.119  11.683  1.5260  0.7394  0.1660
  607MOL0     C81877   5.767   2.128  11.803 -0.1055 -0.0885 -0.2509
  607MOL0     H81878   6.115   2.085  11.691 -3.0786  3.4927  2.5173
  607MOL0     H81879   6.378   2.069  11.632  1.0894  1.9990 -1.3078
  607MOL0     H81880   6.513   2.025  11.398 -0.3005 -0.1121 -0.4410
  607MOL0     H81881   6.451   2.149  11.279 -0.8574 -0.8651  0.3056
  607MOL0     H81882   6.747   2.087  11.348  1.2919  2.1032  0.2495
  607MOL0     H81883   6.704   2.247  11.279  3.9063 -1.0860  1.3288
  607MOL0     H81884   6.585   2.155  11.095  0.0135  2.0305  3.8339
  607MOL0     H81885   6.608   1.986  11.161 -1.5945  0.0012  1.9947
  607MOL0     H81886   6.873   2.126  11.161 -2.5710  0.5347  3.9015
  607MOL0     H81887   6.820   1.979  11.072  0.0412 -0.5678  0.8674
  607MOL0     H81888   6.907   2.119  10.925  1.3890  1.7918  1.7186
  607MOL0     H81889   6.734   2.139  10.896 -0.4472 -0.2419 -0.3201
  607MOL0     H81890   6.741   2.338  11.061  0.9888  1.5136  2.4092
  607MOL0     H81891   6.911   2.352  11.032 -1.7240  0.2901  2.9607
  607MOL0     H81892   6.663   2.375  10.823 -0.5639  3.0716 -0.7046
  607MOL0     H81893   6.830   2.356  10.772  1.5595  0.7945  0.0832
  607MOL0     H81894   6.741   2.568  10.964  0.1051  3.3856 -0.7212
  607MOL0     H81895   6.902   2.534  10.891 -0.2822  0.0555  2.9565
  607MOL0     H81896   6.567   2.543  10.681 -0.5699 -0.0520 -1.7037
  607MOL0     H81897   6.667   2.814  10.416 -0.4178 -1.3874 -1.6839
  607MOL0     H81898   6.541   2.697  10.438  1.4963  1.4509 -2.8988
  607MOL0     H81899   6.475   2.877  10.636  1.4922 -0.2451  0.5367
  607MOL0     H81900   6.600   2.973  10.571  1.5441 -2.3173  2.0423
  607MOL0     H81901   6.369   2.889  10.389 -0.1048  1.9426 -2.1600
  607MOL0     H81902   6.480   3.029  10.359  0.1185  0.2823  0.2092
  607MOL0     H81903   6.288   3.126  10.457 -1.7612 -0.7281  0.2474
  607MOL0     H81904   6.405   3.110  10.586  0.7050  0.4118 -1.1023
  607MOL0     H81905   5.990   3.009  10.513  0.8871  2.1992 -0.6523
  607MOL0     H81906   5.819   3.117  10.649  1.0145 -1.2409 -1.9440
  607MOL0     H81907   5.766   3.514  10.956  1.9470  1.1663  2.0895
  607MOL0     H81908   5.586   3.629  11.071 -0.0649  2.1877  3.6999
  607MOL0     H81909   5.583   3.597  11.439  1.5262  1.0107 -1.7448
  607MOL0     H81910   5.538   3.736  11.343  3.5025  0.1369  1.2343
  607MOL0     H81911   5.419   3.742  11.553 -1.6881 -1.7590  1.8867
  607MOL0     H81912   5.305   3.723  11.424  2.0010  1.3708 -3.5821
  607MOL0     H81913   5.299   3.487  11.455 -0.2130 -1.1282  0.2992
  607MOL0     H81914   5.442   3.483  11.565  2.1820  4.2680  0.5143
  607MOL0     H81915   5.270   3.602  11.738 -0.0126 -4.1435  3.3688
  607MOL0     H81916   5.242   3.446  11.687  0.1185  1.2222  2.6411
  607MOL0     H81917   5.110   3.698  11.575  1.2611  1.6907  1.1915
  607MOL0     H81918   5.049   3.596  11.707 -1.6026 -4.0780 -0.8673
  607MOL0     H81919   5.079   3.491  11.438  3.7234 -0.3973  2.6823
  607MOL0     H81920   5.009   3.410  11.573 -0.5946 -1.1824 -0.2849
  607MOL0     H81921   4.894   3.666  11.456  0.8483  2.1265  2.0128
  607MOL0     H81922   4.847   3.585  11.609  2.0147 -0.0437  1.2548
  607MOL0     H81923   4.851   3.462  11.318 -3.7119 -0.8264 -1.9303
  607MOL0     H81924   4.814   3.368  11.464  1.7745  0.2432 -1.0515
  607MOL0     H81925   5.595   3.349  11.389 -0.3911  0.4219  0.7089
  607MOL0     H81926   5.770   3.218  11.255 -0.0493  1.1648  2.0482
  607MOL0     H81927   6.090   3.201  10.963 -0.1263  3.9592 -0.3859
  607MOL0     H81928   6.274   3.068  10.823  0.3034 -0.4119 -0.5460
  607MOL0     H81929   6.330   2.392  11.374  2.1380 -1.2205  1.1833
  607MOL0     H81930   6.078   2.394  11.408  0.8210  0.1190 -0.3620
  607MOL0     H81931   5.642   2.211  11.352  0.8728 -4.1875 -0.4779
  607MOL0     H81932   5.420   2.170  11.392 -2.1256 -1.0700  0.7076
  607MOL0     H81933   5.267   1.958  11.432  3.2432  0.1998  2.4071
  607MOL0     H81934   5.230   2.135  11.457  0.2993  0.0787 -0.6721
  607MOL0     H81935   5.082   2.095  11.624  0.6285  0.8820 -0.6189
  607MOL0     H81936   5.117   1.906  11.600  1.3023 -1.2121 -2.5882
  607MOL0     H81937   4.986   1.927  11.384 -1.0968  3.1144 -2.5802
  607MOL0     H81938   4.999   2.101  11.407  3.7844 -0.9427 -1.9636
  607MOL0     H81939   4.866   1.912  11.615 -2.6669  0.1728 -0.4673
  607MOL0     H81940   4.852   2.091  11.597  0.0732  2.0269 -2.4068
  607MOL0     H81941   4.549   1.879  11.390  0.1269 -0.1065 -1.2977
  607MOL0     H81942   5.519   2.050  11.799  3.8233  0.9142  1.0736
  607MOL0     H81943   5.705   2.194  11.865 -1.7176 -2.4207  0.7742
  607MOL0     H81944   5.785   2.034  11.857 -1.5903 -0.5835 -0.5697
  607MOL0     H81945   5.862   2.178  11.781 -0.7304  0.5356 -1.6249
  608MOL0     O81946   8.113   7.515   1.874 -0.4425 -0.4881  0.1604
  608MOL0     C81947   8.018   7.593   1.884 -0.4534  0.7855  0.0944
  608MOL0     O81948   7.899   7.564   1.940  0.3260  0.1624 -0.9442
  608MOL0     C81949   7.837   7.436   1.960  1.4569 -1.0261 -0.0075
  608MOL0     C81950   7.818   7.344   1.855  0.7375 -0.0539  0.1801
  608MOL0     C81951   7.741   7.224   1.871  0.3737 -0.1029 -0.6885
  608MOL0     C81952   7.670   7.205   1.987 -0.5540 -0.3784  0.1822
  608MOL0     O81953   7.622   7.082   2.026 -0.3876  0.4143  0.3603
  608MOL0     C81954   7.717   6.980   2.056 -0.4679  0.0839 -0.4136
  608MOL0     C81955   7.667   6.920   2.187 -0.4542 -0.2543  0.9119
  608MOL0     C81956   7.520   6.879   2.178  0.4597 -0.3220 -0.2460
  608MOL0     C81957   7.507   6.765   2.276  0.5509 -1.1150 -0.6015
  608MOL0     C81958   7.362   6.750   2.312  0.8206  0.8577 -0.6599
  608MOL0     C81959   7.322   6.612   2.367  0.5506 -0.0002  0.3075
  608MOL0     C81960   7.377   6.474   2.296  0.6829 -0.0165  0.3472
  608MOL0     C81961   7.326   6.350   2.365  0.9617  0.1709  0.4641
  608MOL0     N81962   7.382   6.338   2.499  0.1909  0.9141 -0.7389
  608MOL0     C81963   7.486   6.252   2.521 -0.8622 -0.1462  0.3615
  608MOL0     C81964   7.519   6.260   2.645 -0.5321  0.0982 -0.4640
  608MOL0     C81965   7.626   6.189   2.725  0.0138  0.1584 -0.1371
  608MOL0     C81966   7.735   6.282   2.777 -0.7931  0.5677 -0.4475
  608MOL0     C81967   7.828   6.215   2.875 -0.4203 -1.9777 -0.3844
  608MOL0     C81968   7.906   6.082   2.836  0.4206  0.5456  0.2425
  608MOL0     O81969   8.036   6.079   2.895  0.4223  0.1163 -0.2441
  608MOL0     C81970   8.036   6.087   3.030 -0.6405 -1.1251 -0.0954
  608MOL0     C81971   8.118   6.175   3.097 -0.0442  0.3286  0.4046
  608MOL0     C81972   8.115   6.183   3.242 -0.2049  0.1979 -0.0728
  608MOL0     C81973   8.039   6.077   3.312 -0.6854 -0.2243  0.2195
  608MOL0     C81974   8.059   6.052   3.460 -0.7428 -0.7618  0.5459
  608MOL0     O81975   8.172   6.111   3.518 -0.2642 -0.6588  0.0446
  608MOL0     C81976   8.196   6.087   3.654  1.1326  0.1875 -0.0546
  608MOL0     C81977   8.101   6.119   3.759  0.1811 -1.1689  0.4299
  608MOL0     C81978   8.141   6.097   3.885 -1.3171 -0.0365 -0.5374
  608MOL0     C81979   8.267   6.042   3.917  0.5441 -0.2217 -1.0873
  608MOL0     O81980   8.290   6.042   4.049 -0.0933 -0.4940  0.1324
  608MOL0     C81981   8.425   6.050   4.092 -0.0435 -0.0092  0.0673
  608MOL0     C81982   8.442   6.082   4.238  0.5996 -0.4793  0.0537
  608MOL0     C81983   8.389   6.225   4.281  0.2531 -0.1396 -0.0369
  608MOL0     C81984   8.452   6.345   4.206 -0.6626  0.4641  0.0293
  608MOL0     C81985   8.393   6.479   4.253 -0.2829  0.3295  0.0271
  608MOL0     C81986   8.465   6.597   4.196  0.2759  0.0338  0.2118
  608MOL0     C81987   8.445   6.605   4.050  0.0192 -0.4042 -0.1194
  608MOL0     C81988   8.488   6.745   4.008 -0.0532  0.2300 -0.7087
  608MOL0    Cl81989   8.520   6.754   3.827 -0.2508 -0.2605 -0.3102
  608MOL0     C81990   8.351   5.996   3.817 -0.4552 -0.1035 -0.2060
  608MOL0     C81991   8.311   6.015   3.680  0.5279 -0.4663 -0.4372
  608MOL0     O81992   7.983   5.975   3.520 -0.1632  0.2089 -0.4963
  608MOL0     C81993   7.952   5.991   3.240 -0.8857  0.4220 -0.2034
  608MOL0     C81994   7.950   5.999   3.099 -0.5756 -0.0189 -0.1506
  608MOL0     N81995   7.451   6.367   2.694  0.7557  0.0494 -0.3919
  608MOL0     N81996   7.369   6.413   2.608  0.1849 -0.3599  0.5065
  608MOL0     C81997   7.687   7.306   2.089  0.1627  0.2140 -0.1741
  608MOL0     C81998   7.773   7.414   2.086  0.1455  0.6652  0.3082
  608MOL0     C81999   8.040   7.723   1.826  0.9927 -0.9835  0.8378
  608MOL0     C82000   8.170   7.771   1.818 -0.1170  0.5756  0.5628
  608MOL0     C82001   8.196   7.904   1.770 -0.0511 -0.0366  0.8027
  608MOL0     C82002   8.094   7.994   1.727  0.6819  0.0425  0.3223
  608MOL0     O82003   8.124   8.124   1.695 -0.0962  0.1921 -0.3051
  608MOL0     C82004   8.104   8.217   1.797 -0.0711  0.0098 -0.8432
  608MOL0     C82005   7.973   8.288   1.760  0.1013 -0.8671  0.2909
  608MOL0     C82006   8.002   8.395   1.643  0.2727  0.7299 -0.0628
  608MOL0     C82007   7.883   8.494   1.623  0.8680  0.0737  0.0387
  608MOL0     C82008   7.903   8.590   1.512 -0.0146  0.1215 -0.5213
  608MOL0     C82009   7.918   8.662   1.420  0.1650 -0.3474 -0.1679
  608MOL0     C82010   7.975   7.935   1.723  1.1350 -0.3167 -0.3151
  608MOL0     C82011   7.937   7.807   1.778  0.3664 -0.0164  0.4812
  608MOL0     C82012   7.790   7.763   1.767  0.3867  0.4203  0.5510
  608MOL0     H82013   7.858   7.375   1.759 -1.2987  0.7596 -0.4570
  608MOL0     H82014   7.707   7.163   1.788 -1.0284 -2.0915  1.2278
  608MOL0     H82015   7.710   6.904   1.978 -0.8244 -0.8115  0.4679
  608MOL0     H82016   7.819   7.016   2.067 -0.7745  0.6362  0.7148
  608MOL0     H82017   7.685   7.000   2.260 -3.2505  0.6174  0.7882
  608MOL0     H82018   7.735   6.838   2.211  0.3029  0.8458  2.7455
  608MOL0     H82019   7.483   6.852   2.079  0.5450 -1.0996 -0.0751
  608MOL0     H82020   7.467   6.965   2.219 -1.3909 -1.5688  0.0923
  608MOL0     H82021   7.551   6.677   2.227  2.8771 -0.3141 -0.0469
  608MOL0     H82022   7.585   6.772   2.352 -0.2428 -4.5784  0.7123
  608MOL0     H82023   7.329   6.828   2.381  1.6660  1.2392 -0.6764
  608MOL0     H82024   7.306   6.757   2.219  1.7323 -2.6092 -1.6169
  608MOL0     H82025   7.376   6.599   2.462  1.5119 -2.6661 -0.5135
  608MOL0     H82026   7.213   6.612   2.376  0.3688  1.1884 -1.4101
  608MOL0     H82027   7.486   6.469   2.296  0.8076  0.6490 -2.9182
  608MOL0     H82028   7.350   6.461   2.191 -0.8914  2.0268  0.4374
  608MOL0     H82029   7.216   6.347   2.368  0.9449  1.0058  1.3270
  608MOL0     H82030   7.347   6.261   2.306 -0.8402 -1.0148  1.5032
  608MOL0     H82031   7.526   6.182   2.448  1.9886  1.4413  0.2262
  608MOL0     H82032   7.579   6.156   2.817 -2.1361  2.0666 -0.4579
  608MOL0     H82033   7.659   6.096   2.678 -0.4584 -0.9946  1.7124
  608MOL0     H82034   7.793   6.326   2.695 -0.5262  4.7443  1.7039
  608MOL0     H82035   7.686   6.372   2.816 -0.8175  0.7952 -0.9786
  608MOL0     H82036   7.768   6.199   2.965  1.2493  0.8995  1.4061
  608MOL0     H82037   7.898   6.293   2.906 -0.6236 -2.7202  2.2006
  608MOL0     H82038   7.904   6.061   2.729 -0.6035 -0.7236  0.4799
  608MOL0     H82039   7.847   5.998   2.874  1.5827  0.5037  2.0446
  608MOL0     H82040   8.179   6.250   3.048  2.3132 -1.3650  0.5742
  608MOL0     H82041   8.179   6.256   3.290  0.1130 -0.5083  0.5993
  608MOL0     H82042   8.005   6.163   3.738  1.1883  2.5493  2.7519
  608MOL0     H82043   8.083   6.132   3.970  1.7829  2.4211  0.7900
  608MOL0     H82044   8.479   5.956   4.077  1.0964  0.4365  1.1919
  608MOL0     H82045   8.480   6.123   4.032  2.0734  2.4263  4.5056
  608MOL0     H82046   8.399   6.002   4.298 -0.1639  1.2261  1.9140
  608MOL0     H82047   8.550   6.078   4.253  0.8498 -0.7609 -1.6722
  608MOL0     H82048   8.281   6.240   4.273  0.2257  1.9563  2.8985
  608MOL0     H82049   8.403   6.223   4.389 -1.4681 -2.5839  0.2295
  608MOL0     H82050   8.422   6.337   4.101  1.9915  0.9492 -0.8213
  608MOL0     H82051   8.560   6.336   4.211 -0.3853 -1.2181 -4.4979
  608MOL0     H82052   8.406   6.482   4.362 -0.0139  1.6692 -0.0194
  608MOL0     H82053   8.287   6.475   4.224 -1.4039 -1.9375  3.7301
  608MOL0     H82054   8.442   6.694   4.241  0.1165  1.4144 -2.6092
  608MOL0     H82055   8.570   6.577   4.216  0.4681 -1.5699 -1.9506
  608MOL0     H82056   8.344   6.582   4.015 -1.5237  4.6405  0.1776
  608MOL0     H82057   8.523   6.535   4.018 -2.4358 -3.7867  0.8335
  608MOL0     H82058   8.407   6.815   4.032 -1.8761 -1.5395 -1.3829
  608MOL0     H82059   8.569   6.771   4.075 -0.8726 -1.7439  1.1720
  608MOL0     H82060   8.438   5.939   3.849 -1.1854 -1.1354  0.0083
  608MOL0     H82061   8.355   5.953   3.602 -0.2884 -3.2122  1.1485
  608MOL0     H82062   7.899   5.912   3.293 -0.9738  1.2296  0.9401
  608MOL0     H82063   7.881   5.928   3.054  2.2051 -3.7710  0.9042
  608MOL0     H82064   7.632   7.305   2.183 -0.5710  1.1641 -0.5763
  608MOL0     H82065   7.771   7.487   2.167 -1.0935  1.1437 -0.1252
  608MOL0     H82066   8.248   7.711   1.864  1.9670 -0.0299 -3.3496
  608MOL0     H82067   8.296   7.947   1.776  0.9549 -2.3703  1.9892
  608MOL0     H82068   8.186   8.289   1.807  0.3428 -0.5733  0.2392
  608MOL0     H82069   8.091   8.166   1.893  0.1335 -0.5869 -1.1310
  608MOL0     H82070   7.938   8.336   1.852  0.3484  0.6289 -0.3644
  608MOL0     H82071   7.895   8.221   1.724 -0.0266  0.0302 -1.1942
  608MOL0     H82072   8.033   8.332   1.559 -1.5419  0.9881 -0.9817
  608MOL0     H82073   8.092   8.455   1.655  2.2667 -1.7451 -1.6632
  608MOL0     H82074   7.794   8.436   1.597  1.1723 -0.9542  1.1658
  608MOL0     H82075   7.877   8.554   1.714 -0.3429  0.9171 -0.5766
  608MOL0     H82076   7.949   8.716   1.333 -0.7038  1.2569  0.4743
  608MOL0     H82077   7.905   7.992   1.663  2.3302  0.4056 -1.0483
  608MOL0     H82078   7.795   7.673   1.705 -1.8120  1.3151 -1.0437
  608MOL0     H82079   7.751   7.729   1.863  1.0530 -3.8019 -0.4977
  608MOL0     H82080   7.715   7.826   1.718 -2.3878 -2.3677  0.9270
  609MOL0     O82081   3.278   5.712   9.453  0.2508 -0.0290  0.9980
  609MOL0     C82082   3.240   5.600   9.416  0.2405  0.3285  0.0764
  609MOL0     O82083   3.175   5.512   9.490 -0.0857  0.9041 -0.4927
  609MOL0     C82084   3.143   5.552   9.614 -0.2993  0.3312 -0.7182
  609MOL0     C82085   3.019   5.619   9.632  0.1573 -0.0594  0.0554
  609MOL0     C82086   2.984   5.671   9.752  0.2224 -1.0036 -0.6859
  609MOL0     C82087   3.075   5.662   9.866  0.8587 -0.7294  0.0193
  609MOL0     O82088   3.031   5.711   9.984 -0.0901  0.5393 -0.7625
  609MOL0     C82089   3.098   5.673  10.112  0.2532 -0.6895  0.0349
  609MOL0     C82090   3.035   5.729  10.235 -0.2141 -0.3855 -0.6004
  609MOL0     C82091   3.122   5.720  10.355  1.0510  0.8275 -0.5882
  609MOL0     C82092   3.214   5.597  10.364  0.2576 -0.0787  0.0177
  609MOL0     C82093   3.308   5.628  10.472 -0.3332 -0.5636  0.1492
  609MOL0     C82094   3.262   5.588  10.606  0.5393 -1.0788  0.2228
  609MOL0     C82095   3.383   5.600  10.692  0.5326 -1.3411  0.1893
  609MOL0     C82096   3.350   5.575  10.841  0.5178  0.3468 -0.1527
  609MOL0     N82097   3.469   5.522  10.905 -0.0099 -0.3725 -0.0320
  609MOL0     C82098   3.592   5.592  10.909 -0.1484  0.5712 -0.0977
  609MOL0     C82099   3.674   5.514  10.987 -0.3069 -0.8601 -0.6478
  609MOL0     C82100   3.812   5.546  11.048  0.6567 -0.0450 -0.4250
  609MOL0     C82101   3.819   5.533  11.197 -0.8885  0.4685  0.3023
  609MOL0     C82102   3.952   5.585  11.252 -0.0884  0.7284 -0.6644
  609MOL0     C82103   3.966   5.602  11.411  0.3793  0.1108  0.1624
  609MOL0     O82104   3.855   5.675  11.464 -0.0327  0.9911  0.3173
  609MOL0     C82105   3.876   5.802  11.497 -0.0468 -0.3238  0.4559
  609MOL0     C82106   3.960   5.893  11.444 -0.7075  0.3990  0.5725
  609MOL0     C82107   3.968   6.021  11.502 -0.5177 -0.3289 -0.2348
  609MOL0     C82108   3.887   6.059  11.610 -0.3579  0.0553 -0.4614
  609MOL0     C82109   3.906   6.190  11.679  0.5888  0.1945  0.6162
  609MOL0     O82110   3.822   6.211  11.784  0.1372 -1.2128  0.7266
  609MOL0     C82111   3.864   6.313  11.874  0.2875  0.5383  0.3885
  609MOL0     C82112   3.822   6.446  11.869 -0.5892 -0.7724  0.5909
  609MOL0     C82113   3.871   6.531  11.973 -0.3012 -0.5978  0.3628
  609MOL0     C82114   3.946   6.479  12.078 -1.1318 -0.6174  0.6798
  609MOL0     O82115   3.992   6.576  12.160  0.3801 -0.0235 -0.4548
  609MOL0     C82116   3.929   6.567  12.289  0.3409  0.3811  0.2508
  609MOL0     C82117   3.958   6.687  12.385 -0.1788  1.1675 -0.2070
  609MOL0     C82118   3.848   6.791  12.377  0.1568  0.8685 -0.2392
  609MOL0     C82119   3.887   6.921  12.462 -0.3626  0.9477 -0.5790
  609MOL0     C82120   3.835   7.046  12.394 -0.2342 -1.1220  0.3378
  609MOL0     C82121   3.853   7.178  12.479  0.7686  0.0935  0.7707
  609MOL0     C82122   3.821   7.306  12.395  0.3628  0.3026 -0.0634
  609MOL0     C82123   3.715   7.378  12.470  0.1165 -0.4065 -0.2917
  609MOL0    Cl82124   3.789   7.429  12.625 -0.0411  0.3229  0.1737
  609MOL0     C82125   3.980   6.347  12.090  1.0823 -0.3382 -0.2972
  609MOL0     C82126   3.935   6.259  11.983  0.5544 -0.3700 -0.0203
  609MOL0     O82127   3.992   6.268  11.636  0.3000  0.4079  0.0013
  609MOL0     C82128   3.796   5.970  11.658  0.3031 -0.9457 -0.0759
  609MOL0     C82129   3.788   5.842  11.600 -0.7556 -0.2133 -0.5761
  609MOL0     N82130   3.600   5.407  11.031 -0.0894  0.0647  0.4942
  609MOL0     N82131   3.475   5.411  10.988  0.3090  0.1217  0.0589
  609MOL0     C82132   3.203   5.609   9.845 -0.4385  0.0579 -0.1290
  609MOL0     C82133   3.232   5.547   9.719  0.6246  0.7381  1.0235
  609MOL0     C82134   3.281   5.556   9.281  1.2085 -0.1019  0.8405
  609MOL0     C82135   3.270   5.417   9.265 -0.0464  1.2462  0.1611
  609MOL0     C82136   3.269   5.366   9.135 -0.6932  0.6109 -0.8217
  609MOL0     C82137   3.295   5.446   9.020 -0.0646  0.4152 -0.8364
  609MOL0     O82138   3.294   5.400   8.885 -0.1021 -0.6716 -0.0609
  609MOL0     C82139   3.159   5.339   8.852  0.4751  0.6269  0.4991
  609MOL0     C82140   3.186   5.193   8.780  0.2985 -0.9169  0.2223
  609MOL0     C82141   3.289   5.194   8.660 -0.0172  0.7729 -0.0959
  609MOL0     C82142   3.246   5.290   8.547 -0.4884 -0.1344  0.5769
  609MOL0     C82143   3.111   5.277   8.499 -0.0962  1.5573 -0.2069
  609MOL0     C82144   2.996   5.250   8.467 -0.1803 -0.8049  0.5149
  609MOL0     C82145   3.316   5.581   9.046  0.8153 -0.6972  0.0176
  609MOL0     C82146   3.309   5.637   9.170  1.4371  0.3799  0.2259
  609MOL0     C82147   3.336   5.788   9.180  0.2283 -0.2660  1.1773
  609MOL0     H82148   2.950   5.621   9.548 -0.3039  0.8594  0.4397
  609MOL0     H82149   2.881   5.702   9.765  0.4429 -1.1178  1.9720
  609MOL0     H82150   3.099   5.564  10.122  0.2566 -0.6141  0.9183
  609MOL0     H82151   3.204   5.702  10.107 -0.3105  1.3459 -1.0175
  609MOL0     H82152   2.940   5.679  10.252  0.0753 -1.3751 -1.7556
  609MOL0     H82153   3.028   5.835  10.207  0.1178 -0.2021 -0.0287
  609MOL0     H82154   3.065   5.724  10.449  1.1280 -2.2869 -0.3084
  609MOL0     H82155   3.181   5.811  10.355 -2.9485  3.7438  1.4514
  609MOL0     H82156   3.175   5.495  10.366  2.3083 -0.8932 -0.0908
  609MOL0     H82157   3.268   5.593  10.269 -0.2860  2.0634 -0.4332
  609MOL0     H82158   3.399   5.570  10.450 -0.2954 -0.5653  0.3061
  609MOL0     H82159   3.338   5.733  10.468  1.6826 -1.1239 -0.9419
  609MOL0     H82160   3.185   5.664  10.624  2.0993  1.1673 -1.9528
  609MOL0     H82161   3.207   5.494  10.600 -4.3887  1.3300  2.0969
  609MOL0     H82162   3.430   5.699  10.691  1.2974 -1.6684  1.2654
  609MOL0     H82163   3.455   5.527  10.654  1.3815 -0.6753  0.4904
  609MOL0     H82164   3.317   5.669  10.885 -0.0804  1.1493 -2.2325
  609MOL0     H82165   3.283   5.489  10.844  1.7649 -0.6513  0.6397
  609MOL0     H82166   3.608   5.681  10.849 -0.1771  1.1792  0.7734
  609MOL0     H82167   3.877   5.472  11.000 -1.9963 -3.1467  0.3873
  609MOL0     H82168   3.845   5.648  11.025 -1.2644  0.4287 -1.2401
  609MOL0     H82169   3.729   5.587  11.227 -3.2538 -3.0240  0.0440
  609MOL0     H82170   3.810   5.427  11.224 -0.2194  0.0742 -0.9463
  609MOL0     H82171   3.999   5.675  11.211  3.4268 -0.7079 -0.1760
  609MOL0     H82172   4.028   5.514  11.218 -1.4739 -1.2806  0.2364
  609MOL0     H82173   4.064   5.647  11.427  0.6235  0.2532 -1.4973
  609MOL0     H82174   3.978   5.507  11.464 -0.8071 -0.4605 -0.5377
  609MOL0     H82175   4.021   5.856  11.362  0.2930 -1.4322  2.0422
  609MOL0     H82176   4.031   6.091  11.448 -2.2169  1.8773  0.4986
  609MOL0     H82177   3.754   6.474  11.789 -0.0427  0.4557  0.5251
  609MOL0     H82178   3.841   6.636  11.971 -2.4749 -0.9279  4.8398
  609MOL0     H82179   3.821   6.550  12.301  0.5298  0.8892  3.5351
  609MOL0     H82180   3.968   6.477  12.337 -2.0284 -0.9871 -0.1984
  609MOL0     H82181   3.981   6.643  12.482  0.9290  1.6546 -0.2383
  609MOL0     H82182   4.056   6.719  12.351  1.7371 -1.3002  2.4860
  609MOL0     H82183   3.848   6.806  12.269  0.8699  2.6568 -0.0317
  609MOL0     H82184   3.749   6.755  12.408  0.5785  0.1078  0.2758
  609MOL0     H82185   3.996   6.929  12.471 -0.2715 -1.2031  1.0760
  609MOL0     H82186   3.842   6.908  12.560 -3.0111  3.1115 -1.4017
  609MOL0     H82187   3.726   7.041  12.385 -0.4534  2.1212 -0.1307
  609MOL0     H82188   3.874   7.062  12.293 -2.9151  0.9350 -0.4881
  609MOL0     H82189   3.776   7.178  12.556 -0.7584  1.7824 -0.6653
  609MOL0     H82190   3.957   7.183  12.514  1.8758 -1.7153 -1.8827
  609MOL0     H82191   3.798   7.289  12.289  0.3362  2.0102 -0.3617
  609MOL0     H82192   3.905   7.376  12.391 -0.0184  0.7286 -1.7411
  609MOL0     H82193   3.703   7.472  12.415 -0.5827 -1.1236 -1.4085
  609MOL0     H82194   3.614   7.337  12.476  0.9091 -2.2494  1.3781
  609MOL0     H82195   4.040   6.318  12.175  1.7861  1.4246 -0.1536
  609MOL0     H82196   3.965   6.155  11.982 -0.9496 -0.8300 -1.1384
  609MOL0     H82197   3.734   5.985  11.745  1.6496 -3.0315  1.3525
  609MOL0     H82198   3.715   5.774  11.642 -2.2629  3.4088  3.3783
  609MOL0     H82199   3.282   5.594   9.917 -0.8199 -3.9006 -0.2977
  609MOL0     H82200   3.331   5.506   9.704 -0.0730 -0.9747  0.9316
  609MOL0     H82201   3.260   5.348   9.348  0.0324  1.8941  0.7273
  609MOL0     H82202   3.261   5.265   9.097  0.6469 -0.0672  0.6104
  609MOL0     H82203   3.110   5.404   8.779  1.4009  1.2101  0.3803
  609MOL0     H82204   3.089   5.328   8.934  0.3345 -0.4816  0.2568
  609MOL0     H82205   3.093   5.144   8.751 -0.0194  0.6157 -1.5786
  609MOL0     H82206   3.226   5.136   8.864  0.9667  0.8096  1.1380
  609MOL0     H82207   3.291   5.088   8.634  1.1917  1.0541 -1.2808
  609MOL0     H82208   3.388   5.226   8.694 -0.1248  2.0408 -0.8730
  609MOL0     H82209   3.261   5.394   8.574 -0.2924  0.0674 -0.2864
  609MOL0     H82210   3.314   5.286   8.462  1.5628  4.0852  1.7463
  609MOL0     H82211   2.890   5.238   8.451 -0.0536  0.5478 -1.9115
  609MOL0     H82212   3.333   5.643   8.958  1.3132 -0.5874  0.1918
  609MOL0     H82213   3.440   5.794   9.214  1.2556  0.7045 -1.8296
  609MOL0     H82214   3.317   5.838   9.085 -0.1190 -1.2287  0.7221
  609MOL0     H82215   3.277   5.848   9.250  0.2982 -0.4026  1.3547
  610MOL0     O82216   7.305   0.408   6.616 -0.4449  0.6305 -0.2549
  610MOL0     C82217   7.296   0.303   6.680  0.1948  1.4215  0.3038
  610MOL0     O82218   7.402   0.241   6.747 -1.0598  0.4869  0.0079
  610MOL0     C82219   7.516   0.298   6.779 -0.2447 -0.9052  0.4949
  610MOL0     C82220   7.544   0.437   6.808 -0.4392 -0.2601 -0.1907
  610MOL0     C82221   7.668   0.477   6.863 -0.7942 -1.0465 -0.3236
  610MOL0     C82222   7.765   0.383   6.893  0.1300  0.3456 -0.5226
  610MOL0     O82223   7.878   0.417   6.959 -0.9805  0.6444 -0.3497
  610MOL0     C82224   7.957   0.526   6.888  0.2108 -0.5301 -0.7395
  610MOL0     C82225   8.066   0.574   6.997  0.3467  0.7193  0.1668
  610MOL0     C82226   8.110   0.722   6.963  0.1218 -0.8426 -0.0815
  610MOL0     C82227   8.228   0.759   7.046  0.4045  0.3575 -0.2487
  610MOL0     C82228   8.260   0.910   7.047 -0.0698  0.3494  0.4621
  610MOL0     C82229   8.387   0.942   7.122 -0.3591  0.3700  0.8086
  610MOL0     C82230   8.360   0.950   7.270  0.2808 -0.6931  0.2512
  610MOL0     C82231   8.270   1.075   7.321 -0.0743  0.5174 -0.0588
  610MOL0     N82232   8.329   1.146   7.434  0.1265  0.3335  0.0477
  610MOL0     C82233   8.332   1.113   7.568 -0.4679  0.1321 -1.1573
  610MOL0     C82234   8.382   1.216   7.638 -0.4561 -0.8342  0.2982
  610MOL0     C82235   8.426   1.208   7.782 -1.7698 -0.1638  0.9145
  610MOL0     C82236   8.503   1.076   7.794  0.4138 -0.1312  0.4157
  610MOL0     C82237   8.614   1.064   7.690  0.8865 -0.0071  0.9753
  610MOL0     C82238   8.713   0.948   7.722 -0.3289  0.0022 -0.2236
  610MOL0     O82239   8.818   0.927   7.625  0.4171  0.2553  0.4845
  610MOL0     C82240   8.789   0.859   7.509  0.8517 -0.2494 -0.1484
  610MOL0     C82241   8.767   0.938   7.389  1.0174  1.2007 -0.0283
  610MOL0     C82242   8.736   0.871   7.276 -0.3804 -0.0433  0.1338
  610MOL0     C82243   8.734   0.730   7.269  0.5627  1.0864 -0.1362
  610MOL0     C82244   8.703   0.668   7.137 -0.4977 -0.2520  0.2069
  610MOL0     O82245   8.707   0.750   7.030  0.6437  0.1954 -0.3235
  610MOL0     C82246   8.659   0.704   6.906 -0.8899  0.2806 -0.8261
  610MOL0     C82247   8.553   0.617   6.891  0.2568 -0.4763  0.1221
  610MOL0     C82248   8.492   0.604   6.765  0.2292 -1.0508  0.7166
  610MOL0     C82249   8.546   0.666   6.657 -0.3386 -0.5447 -0.4944
  610MOL0     O82250   8.483   0.679   6.537 -0.7848 -0.4201  0.5201
  610MOL0     C82251   8.480   0.545   6.469 -0.8278  0.5477  0.3684
  610MOL0     C82252   8.436   0.531   6.323  0.0684 -0.7910  0.0639
  610MOL0     C82253   8.399   0.384   6.290 -0.0123 -0.8676  0.1365
  610MOL0     C82254   8.350   0.375   6.146  0.8771 -0.2095 -0.0273
  610MOL0     C82255   8.322   0.232   6.095  0.7048 -0.1483  0.8116
  610MOL0     C82256   8.275   0.247   5.952 -0.3840 -0.1918  0.2014
  610MOL0     C82257   8.295   0.106   5.883  0.1347 -0.9197  0.2765
  610MOL0     C82258   8.243   0.122   5.735  0.8569 -0.3183  0.4423
  610MOL0    Cl82259   8.228  -0.040   5.659  0.3914 -0.5567 -0.0738
  610MOL0     C82260   8.657   0.746   6.672 -0.0741 -0.2103 -0.2363
  610MOL0     C82261   8.699   0.779   6.800 -0.2160 -0.8255  0.1080
  610MOL0     O82262   8.711   0.547   7.130  0.4468 -0.0776  0.4424
  610MOL0     C82263   8.752   0.652   7.388 -0.1747  1.2017 -0.7757
  610MOL0     C82264   8.783   0.719   7.509 -0.1429 -0.3887 -0.2969
  610MOL0     N82265   8.418   1.316   7.550 -0.0688 -0.4346 -0.0693
  610MOL0     N82266   8.380   1.274   7.435 -0.5773 -0.9427  0.3413
  610MOL0     C82267   7.737   0.251   6.863 -0.8919  0.7320  0.0491
  610MOL0     C82268   7.610   0.210   6.814 -0.1161 -0.0180 -0.5834
  610MOL0     C82269   7.171   0.228   6.701  0.4379 -0.4878  0.3321
  610MOL0     C82270   7.177   0.115   6.780 -0.5347  0.1779 -0.8363
  610MOL0     C82271   7.068   0.029   6.791  0.8398  0.3449 -0.4930
  610MOL0     C82272   6.940   0.061   6.723  0.3623  0.3454  0.2684
  610MOL0     O82273   6.835  -0.023   6.743  0.7231  0.3339 -0.1462
  610MOL0     C82274   6.720   0.041   6.797  0.2544 -1.0318 -0.7864
  610MOL0     C82275   6.749   0.061   6.942 -0.7151 -0.1570 -0.1950
  610MOL0     C82276   6.743  -0.082   7.004  1.0464  0.3855 -0.0251
  610MOL0     C82277   6.774  -0.085   7.149  0.0301 -0.2397 -0.5923
  610MOL0     C82278   6.774  -0.215   7.225 -0.0836  0.1708 -0.1893
  610MOL0     C82279   6.779  -0.323   7.286  0.5009 -1.0139 -0.0285
  610MOL0     C82280   6.939   0.174   6.641  0.9310 -0.3939  0.0327
  610MOL0     C82281   7.049   0.257   6.626 -0.8841 -0.0852  0.2884
  610MOL0     C82282   7.027   0.352   6.517 -0.2873 -0.6097  0.0342
  610MOL0     H82283   7.474   0.516   6.783  0.7818  0.1265 -2.6691
  610MOL0     H82284   7.686   0.580   6.893  1.9216 -1.8263  1.0861
  610MOL0     H82285   8.010   0.496   6.798 -2.3187 -2.8661 -1.5836
  610MOL0     H82286   7.901   0.616   6.858  3.0762  1.4695 -0.5322
  610MOL0     H82287   8.158   0.518   6.982  0.5732  1.1462 -0.0461
  610MOL0     H82288   8.036   0.563   7.102 -0.4686  1.2003  0.0001
  610MOL0     H82289   8.030   0.785   7.003 -0.0677 -2.0947  1.6037
  610MOL0     H82290   8.125   0.747   6.857 -0.0823  2.3326  0.5229
  610MOL0     H82291   8.221   0.723   7.149 -0.6091 -1.0897 -0.7944
  610MOL0     H82292   8.311   0.712   6.993 -1.7094 -0.7090 -2.8366
  610MOL0     H82293   8.282   0.922   6.941  4.2035  0.0304  1.1509
  610MOL0     H82294   8.176   0.972   7.079 -0.5022 -0.5867  1.2037
  610MOL0     H82295   8.459   0.863   7.100 -0.0385  0.5051  1.3660
  610MOL0     H82296   8.424   1.037   7.083 -0.3374  0.1074  0.1741
  610MOL0     H82297   8.456   0.945   7.321  0.4920 -0.9111 -0.1720
  610MOL0     H82298   8.311   0.864   7.317  0.8145 -1.3487 -0.3924
  610MOL0     H82299   8.262   1.149   7.240  1.5277 -0.4889 -1.1879
  610MOL0     H82300   8.169   1.036   7.335 -0.6011  2.1358  0.9527
  610MOL0     H82301   8.296   1.024   7.620 -1.1389  0.0425 -1.7526
  610MOL0     H82302   8.504   1.283   7.803 -1.1798 -0.7101  0.6983
  610MOL0     H82303   8.337   1.227   7.842 -2.1992  0.7464  0.0160
  610MOL0     H82304   8.538   1.079   7.898  0.0533 -0.6892  0.5592
  610MOL0     H82305   8.436   0.990   7.785 -0.0489 -0.0739  2.7755
  610MOL0     H82306   8.677   1.152   7.674  2.3290 -1.1207  0.3402
  610MOL0     H82307   8.574   1.034   7.593  0.2413  0.5589  1.0601
  610MOL0     H82308   8.645   0.862   7.726 -2.6359  1.7251 -0.3164
  610MOL0     H82309   8.776   0.960   7.811  3.1619 -0.1550 -2.5102
  610MOL0     H82310   8.769   1.046   7.386 -1.1919  1.4142  2.4382
  610MOL0     H82311   8.716   0.936   7.192 -1.4141 -0.0137  0.3919
  610MOL0     H82312   8.512   0.554   6.970  1.5647 -2.0347 -0.3894
  610MOL0     H82313   8.408   0.537   6.751 -1.1955  1.0010 -1.5015
  610MOL0     H82314   8.580   0.502   6.477  0.1839  2.8263  0.7384
  610MOL0     H82315   8.421   0.473   6.527 -0.4708  0.4412  0.6070
  610MOL0     H82316   8.343   0.589   6.317 -2.3438 -4.1874  1.6258
  610MOL0     H82317   8.508   0.574   6.252 -1.6586  2.1920 -0.0439
  610MOL0     H82318   8.480   0.313   6.272  1.8181  1.5102 -1.7414
  610MOL0     H82319   8.324   0.342   6.357 -0.4125 -1.7659 -0.8380
  610MOL0     H82320   8.412   0.435   6.078 -0.1606  1.7930  0.7004
  610MOL0     H82321   8.254   0.428   6.139  0.3761 -1.0322  0.4285
  610MOL0     H82322   8.249   0.173   6.152 -0.1602  0.0324 -0.0801
  610MOL0     H82323   8.416   0.178   6.080  0.7674  0.5723 -1.7002
  610MOL0     H82324   8.168   0.266   5.961 -0.1515  0.7276  1.1859
  610MOL0     H82325   8.335   0.328   5.908  0.0127 -0.7887 -0.3839
  610MOL0     H82326   8.250   0.031   5.949  3.1435 -1.7391  1.5780
  610MOL0     H82327   8.401   0.082   5.873  0.6321  1.8853 -2.6075
  610MOL0     H82328   8.143   0.164   5.736  1.4065  1.0366  1.3053
  610MOL0     H82329   8.312   0.190   5.684 -0.3065  0.4294 -0.1627
  610MOL0     H82330   8.711   0.775   6.582  3.4921 -1.7852  1.2040
  610MOL0     H82331   8.783   0.846   6.812 -0.1278 -1.1291  1.3343
  610MOL0     H82332   8.757   0.544   7.391  2.3273  1.1373  4.1212
  610MOL0     H82333   8.811   0.666   7.599 -2.7190 -2.4141 -0.5981
  610MOL0     H82334   7.811   0.177   6.893 -1.7243  0.4189  1.4336
  610MOL0     H82335   7.584   0.105   6.804  0.6252 -0.1998 -0.6702
  610MOL0     H82336   7.271   0.085   6.827 -0.7748 -0.3600 -0.6855
  610MOL0     H82337   7.075  -0.062   6.850  1.2479  0.6644 -0.0342
  610MOL0     H82338   6.627  -0.016   6.785  0.5090 -1.2098 -2.0335
  610MOL0     H82339   6.701   0.141   6.756 -0.4631 -0.5737  0.5993
  610MOL0     H82340   6.677   0.134   6.981 -0.2089  0.6791 -0.7949
  610MOL0     H82341   6.849   0.100   6.961 -0.5677 -0.3782 -0.5030
  610MOL0     H82342   6.811  -0.147   6.949  2.3047  0.6674  1.1398
  610MOL0     H82343   6.638  -0.113   6.995  0.3568  1.9593  1.8024
  610MOL0     H82344   6.866  -0.031   7.171  1.1085 -2.1916 -0.0777
  610MOL0     H82345   6.698  -0.032   7.208  1.6234 -0.1049  1.4526
  610MOL0     H82346   6.782  -0.417   7.337 -3.6555 -1.5286 -0.3327
  610MOL0     H82347   6.849   0.207   6.589 -0.1783 -3.5013 -0.2101
  610MOL0     H82348   7.009   0.451   6.560 -0.5856 -0.5968 -0.1154
  610MOL0     H82349   7.121   0.367   6.463  1.5365 -2.5423  2.4400
  610MOL0     H82350   6.957   0.318   6.441  0.4530 -1.4101 -0.3096
  611MOL0     O82351   0.188   2.843   0.302  0.5277 -0.4204 -0.0710
  611MOL0     C82352   0.225   2.917   0.210  0.3673  0.9259  0.7560
  611MOL0     O82353   0.223   3.056   0.203 -0.6961  0.1090 -0.3895
  611MOL0     C82354   0.136   3.115   0.295 -0.7927  0.5202 -0.4243
  611MOL0     C82355   0.183   3.206   0.396 -0.4024  1.0329 -0.3656
  611MOL0     C82356   0.104   3.256   0.491 -0.0410 -0.0812 -1.1386
  611MOL0     C82357  -0.038   3.239   0.476 -0.3749 -0.7854 -0.4604
  611MOL0     O82358  -0.131   3.307   0.561 -1.1325 -0.2676  0.5303
  611MOL0     C82359  -0.119   3.446   0.563 -0.5921  0.2487  0.1875
  611MOL0     C82360  -0.215   3.508   0.659 -0.4978 -0.5344  0.0298
  611MOL0     C82361  -0.195   3.654   0.688 -0.5151 -0.4712  0.1930
  611MOL0     C82362  -0.309   3.717   0.776 -0.7998  0.5284  0.1550
  611MOL0     C82363  -0.285   3.867   0.773  1.2141  0.6355  0.2955
  611MOL0     C82364  -0.322   3.938   0.641 -0.5522 -0.4122 -0.3028
  611MOL0     C82365  -0.470   3.952   0.615 -0.0054  0.2346 -0.3824
  611MOL0     C82366  -0.497   4.024   0.489 -0.3631  1.0289 -0.1115
  611MOL0     N82367  -0.460   4.165   0.473 -0.4895  0.2392 -0.8116
  611MOL0     C82368  -0.370   4.226   0.377 -0.3563  0.4704  0.9401
  611MOL0     C82369  -0.369   4.358   0.407 -0.2050 -0.4691 -0.3471
  611MOL0     C82370  -0.304   4.472   0.340 -0.1334 -0.3228  0.3311
  611MOL0     C82371  -0.351   4.489   0.190  0.4842  0.4281  0.3505
  611MOL0     C82372  -0.236   4.530   0.098 -0.0442  0.2547  0.1494
  611MOL0     C82373  -0.194   4.671   0.132 -0.3663 -0.2508 -0.3290
  611MOL0     O82374  -0.257   4.780   0.078  0.1635 -0.1750  0.0382
  611MOL0     C82375  -0.239   4.825  -0.054 -0.0794  0.1749 -0.7025
  611MOL0     C82376  -0.273   4.954  -0.073  0.9500 -0.3881 -0.1903
  611MOL0     C82377  -0.260   5.012  -0.202 -0.7471 -0.7884  0.6023
  611MOL0     C82378  -0.213   4.938  -0.311  1.2088  0.1330  0.2519
  611MOL0     C82379  -0.200   5.001  -0.443  0.7486  0.2031  0.4918
  611MOL0     O82380  -0.203   5.133  -0.446 -0.2339 -0.3342 -1.2189
  611MOL0     C82381  -0.155   5.208  -0.551 -0.1913  0.8992 -0.9735
  611MOL0     C82382  -0.087   5.168  -0.667 -0.5635 -0.5463 -0.3911
  611MOL0     C82383  -0.043   5.269  -0.754 -0.0487 -0.2595  0.7924
  611MOL0     C82384  -0.072   5.407  -0.741 -0.1371  0.7468  0.1424
  611MOL0     O82385  -0.021   5.477  -0.850 -0.2649  0.0524 -0.2727
  611MOL0     C82386  -0.061   5.614  -0.856  1.3315  0.7193 -0.5415
  611MOL0     C82387  -0.019   5.676  -0.988  0.0873 -0.1377  0.2695
  611MOL0     C82388  -0.100   5.630  -1.107 -0.1779  0.0718 -0.4796
  611MOL0     C82389  -0.259   5.654  -1.110 -0.8059 -0.8187 -1.1399
  611MOL0     C82390  -0.328   5.594  -1.237 -0.3521  0.4090  0.5934
  611MOL0     C82391  -0.473   5.633  -1.266  0.7804 -0.7739  0.3768
  611MOL0     C82392  -0.562   5.510  -1.236 -0.6446 -0.2012 -0.3858
  611MOL0     C82393  -0.589   5.497  -1.082 -0.1127  1.0123 -0.5017
  611MOL0    Cl82394  -0.674   5.644  -1.037 -0.2394 -0.6486  0.2768
  611MOL0     C82395  -0.141   5.447  -0.624  0.0900  0.2627  0.4304
  611MOL0     C82396  -0.176   5.344  -0.530 -0.4070 -1.0459 -1.1265
  611MOL0     O82397  -0.201   4.932  -0.545  0.7085 -0.6536 -0.1487
  611MOL0     C82398  -0.171   4.801  -0.287 -0.3932  0.5017 -0.8436
  611MOL0     C82399  -0.183   4.747  -0.164 -0.6317  0.3957 -0.3278
  611MOL0     N82400  -0.460   4.382   0.510 -0.1785  0.9443 -0.9566
  611MOL0     N82401  -0.510   4.266   0.548  0.6730 -0.9928 -0.1954
  611MOL0     C82402  -0.081   3.170   0.367 -0.7872  0.4031  0.2273
  611MOL0     C82403   0.001   3.104   0.270 -0.3514 -0.3200  0.7228
  611MOL0     C82404   0.265   2.849   0.081  0.1362 -1.0232  0.0752
  611MOL0     C82405   0.255   2.927  -0.034  0.1313  0.4409 -0.0679
  611MOL0     C82406   0.284   2.877  -0.162 -0.7432 -0.1228 -0.6831
  611MOL0     C82407   0.319   2.746  -0.175 -0.6579 -0.3169 -0.3655
  611MOL0     O82408   0.351   2.699  -0.301 -0.0262 -0.0261  0.2279
  611MOL0     C82409   0.432   2.577  -0.317  1.1694 -0.3879 -0.1944
  611MOL0     C82410   0.489   2.600  -0.464 -0.8815 -0.5433  0.4258
  611MOL0     C82411   0.599   2.497  -0.500 -0.2346  0.3070 -0.5314
  611MOL0     C82412   0.674   2.545  -0.619  0.6935 -0.3529  0.5687
  611MOL0     C82413   0.772   2.445  -0.657  0.1049 -1.2747 -0.1879
  611MOL0     C82414   0.857   2.368  -0.706  0.5454 -0.4051 -1.9253
  611MOL0     C82415   0.309   2.661  -0.063  0.3573  0.3319 -1.1829
  611MOL0     C82416   0.293   2.712   0.071 -0.5369  0.2865  0.1632
  611MOL0     C82417   0.295   2.602   0.182 -0.2851 -0.0016  0.2118
  611MOL0     H82418   0.288   3.224   0.416 -1.1620  3.3358  2.2131
  611MOL0     H82419   0.148   3.309   0.575 -0.8409 -0.4980 -0.4296
  611MOL0     H82420  -0.026   3.469   0.617 -0.6319 -1.7300  1.2174
  611MOL0     H82421  -0.127   3.497   0.467 -1.7523  1.2915  0.8199
  611MOL0     H82422  -0.211   3.446   0.749 -2.0017 -2.2927 -1.0490
  611MOL0     H82423  -0.314   3.495   0.614 -1.9152  1.7182  2.2146
  611MOL0     H82424  -0.172   3.702   0.593 -2.8744 -0.0669 -0.2505
  611MOL0     H82425  -0.101   3.665   0.743 -1.0183  3.3119  0.5689
  611MOL0     H82426  -0.411   3.695   0.743 -0.5949 -3.1680  1.4885
  611MOL0     H82427  -0.284   3.680   0.876  3.8787  1.5495 -0.3861
  611MOL0     H82428  -0.346   3.905   0.855  0.9374 -0.2326  0.5008
  611MOL0     H82429  -0.179   3.890   0.784  1.0291  0.9265  1.5766
  611MOL0     H82430  -0.276   4.037   0.636  1.7115 -1.4639 -1.9247
  611MOL0     H82431  -0.276   3.878   0.562  1.7385 -0.1655  0.7372
  611MOL0     H82432  -0.507   4.003   0.705  0.3988 -1.6697  0.9206
  611MOL0     H82433  -0.525   3.859   0.602  0.8485 -0.6482  1.8295
  611MOL0     H82434  -0.442   3.966   0.414 -4.5004 -1.2083 -1.6964
  611MOL0     H82435  -0.604   4.018   0.466  0.0212  0.5386 -1.9467
  611MOL0     H82436  -0.311   4.182   0.297 -0.1180  0.7819  0.9400
  611MOL0     H82437  -0.325   4.559   0.402  2.2346 -0.8648  2.0464
  611MOL0     H82438  -0.196   4.453   0.342  0.0981  0.7743  3.2293
  611MOL0     H82439  -0.381   4.391   0.151 -4.1442  1.3180  1.1039
  611MOL0     H82440  -0.435   4.559   0.197  0.0102 -0.2653  2.0365
  611MOL0     H82441  -0.256   4.510  -0.008  1.8371 -1.4435  0.0539
  611MOL0     H82442  -0.147   4.467   0.106 -1.1023 -1.7600 -2.2639
  611MOL0     H82443  -0.089   4.675   0.104  0.4561 -0.5458  2.3966
  611MOL0     H82444  -0.194   4.687   0.240  1.9123  0.1289 -0.3495
  611MOL0     H82445  -0.300   5.022   0.007 -1.4974  0.3420 -1.5347
  611MOL0     H82446  -0.276   5.120  -0.207  0.6114 -0.6387 -1.0899
  611MOL0     H82447  -0.067   5.063  -0.684  0.0731 -0.3974 -0.6109
  611MOL0     H82448   0.009   5.237  -0.844 -3.3785 -1.8853 -0.7752
  611MOL0     H82449  -0.169   5.602  -0.840  2.0506 -1.2369  5.1350
  611MOL0     H82450  -0.024   5.667  -0.768  0.2882 -1.2264  1.1715
  611MOL0     H82451  -0.033   5.785  -0.987  2.6983  0.2678 -0.3594
  611MOL0     H82452   0.087   5.655  -1.005 -0.1035 -0.7716 -0.1922
  611MOL0     H82453  -0.047   5.684  -1.185  1.1617 -0.9586 -0.3380
  611MOL0     H82454  -0.088   5.522  -1.123  2.1342 -0.3519  2.9077
  611MOL0     H82455  -0.271   5.763  -1.110  0.7155 -0.6276 -0.4340
  611MOL0     H82456  -0.307   5.605  -1.025  1.3940 -2.3081 -0.6758
  611MOL0     H82457  -0.319   5.486  -1.223  0.2381  0.2530 -0.8424
  611MOL0     H82458  -0.267   5.625  -1.322 -0.1603 -0.7620  0.2818
  611MOL0     H82459  -0.504   5.725  -1.217 -2.8048 -2.2852  1.2554
  611MOL0     H82460  -0.483   5.644  -1.374 -2.7869 -2.7007  0.3467
  611MOL0     H82461  -0.523   5.423  -1.290 -1.8879  0.0928 -1.8209
  611MOL0     H82462  -0.655   5.520  -1.293 -0.1182  2.2859 -0.9570
  611MOL0     H82463  -0.651   5.410  -1.057  3.6498 -2.0604 -1.0213
  611MOL0     H82464  -0.497   5.480  -1.026 -0.7423 -0.9161  0.0220
  611MOL0     H82465  -0.137   5.553  -0.600 -1.2752  0.5431 -0.4384
  611MOL0     H82466  -0.223   5.370  -0.436  0.5744  0.8425 -1.1088
  611MOL0     H82467  -0.134   4.740  -0.369 -0.7374 -2.1565  0.8645
  611MOL0     H82468  -0.155   4.642  -0.154  0.8135  0.8302  0.4258
  611MOL0     H82469  -0.189   3.162   0.370 -0.7373  0.1844  1.9652
  611MOL0     H82470  -0.026   3.057   0.176 -0.3120 -0.8241  0.9645
  611MOL0     H82471   0.210   3.026  -0.024  0.7236  0.5984  1.3082
  611MOL0     H82472   0.276   2.956  -0.237 -0.8540  0.3183 -0.2179
  611MOL0     H82473   0.373   2.485  -0.313 -1.1343  0.9971 -0.3661
  611MOL0     H82474   0.511   2.550  -0.246  1.2966 -4.0467 -1.4962
  611MOL0     H82475   0.524   2.703  -0.480 -1.9255 -0.7460 -5.0148
  611MOL0     H82476   0.408   2.591  -0.538  0.0285 -1.0927 -0.5261
  611MOL0     H82477   0.551   2.405  -0.536 -0.2059  0.8972 -2.1503
  611MOL0     H82478   0.661   2.473  -0.414  1.2328 -0.5278 -1.7603
  611MOL0     H82479   0.610   2.579  -0.701  3.1422  0.0875 -1.2660
  611MOL0     H82480   0.731   2.626  -0.573 -0.7895  0.8351  0.4180
  611MOL0     H82481   0.924   2.286  -0.719  1.9182  0.3592 -0.1507
  611MOL0     H82482   0.330   2.555  -0.063  1.8135  0.5529  0.9085
  611MOL0     H82483   0.330   2.512   0.130  1.6003  0.2881  0.8836
  611MOL0     H82484   0.359   2.614   0.270  0.4456  1.3396 -0.4766
  611MOL0     H82485   0.194   2.584   0.219 -0.4104 -1.9642 -0.9679
  612MOL0     O82486   8.289   3.891   7.380 -0.1551  0.2616  0.1952
  612MOL0     C82487   8.365   3.842   7.305 -0.1560 -0.0901 -0.5249
  612MOL0     O82488   8.455   3.752   7.339 -0.3959  0.4271 -0.2614
  612MOL0     C82489   8.476   3.738   7.479  0.7157 -0.2500  0.1958
  612MOL0     C82490   8.583   3.811   7.529 -0.2167 -0.4900  0.2572
  612MOL0     C82491   8.605   3.795   7.665 -0.0353  0.1938 -0.0937
  612MOL0     C82492   8.522   3.718   7.747 -0.2611 -0.6681 -0.5350
  612MOL0     O82493   8.556   3.724   7.878 -0.5450 -0.3948  0.5745
  612MOL0     C82494   8.471   3.639   7.955  0.7614 -0.6253  0.4234
  612MOL0     C82495   8.506   3.642   8.115  1.1585 -0.4874  0.0999
  612MOL0     C82496   8.401   3.564   8.205 -0.3670  0.3116 -0.0370
  612MOL0     C82497   8.262   3.625   8.212  0.9064  0.4135 -0.1093
  612MOL0     C82498   8.251   3.781   8.222 -0.3950  0.2556 -0.8648
  612MOL0     C82499   8.311   3.819   8.364  0.6203  1.0998 -1.1607
  612MOL0     C82500   8.265   3.951   8.438  0.4181  0.2306 -0.3559
  612MOL0     C82501   8.364   4.070   8.441 -0.2230 -0.3276 -0.1736
  612MOL0     N82502   8.485   4.026   8.505 -0.6100  0.4011 -0.0877
  612MOL0     C82503   8.506   3.992   8.636  0.0548 -0.0080  0.3120
  612MOL0     C82504   8.624   3.940   8.641 -0.7550  0.2122 -1.1310
  612MOL0     C82505   8.681   3.860   8.762  0.2270  0.1785  0.4145
  612MOL0     C82506   8.772   3.943   8.857  0.0860  1.3305 -0.0669
  612MOL0     C82507   8.916   3.958   8.810  0.0497 -0.0628  0.1107
  612MOL0     C82508   9.001   4.042   8.906  0.5095  0.2770 -0.0427
  612MOL0     O82509   8.982   4.012   9.044  0.3004  0.0767  0.5069
  612MOL0     C82510   9.025   3.902   9.113  0.1094  0.0340  0.0686
  612MOL0     C82511   8.969   3.899   9.244 -0.8223  1.0107  0.8957
  612MOL0     C82512   9.014   3.793   9.326 -0.3819  0.0530  0.6865
  612MOL0     C82513   9.118   3.701   9.285  0.0298  0.6487  0.2334
  612MOL0     C82514   9.171   3.592   9.370  0.1673 -0.1394 -0.6190
  612MOL0     O82515   9.259   3.496   9.322  0.0545 -0.1756  0.7648
  612MOL0     C82516   9.361   3.436   9.400 -0.1313  0.7038 -0.7184
  612MOL0     C82517   9.474   3.403   9.329 -0.1611  0.3182  0.6800
  612MOL0     C82518   9.576   3.320   9.377  0.1527 -0.0147 -0.4779
  612MOL0     C82519   9.573   3.306   9.520  1.2149  0.6131 -0.1855
  612MOL0     O82520   9.685   3.274   9.595  0.4916 -0.0762 -0.1579
  612MOL0     C82521   9.785   3.191   9.526 -0.3482 -0.3790  0.5364
  612MOL0     C82522   9.734   3.050   9.496  0.3175 -0.9049  0.3465
  612MOL0     C82523   9.827   2.965   9.405  0.2702 -0.1033 -0.3708
  612MOL0     C82524   9.950   2.906   9.486 -0.7038 -0.4897 -0.5101
  612MOL0     C82525   9.930   2.754   9.511 -0.2098 -0.7333 -0.4794
  612MOL0     C82526  10.049   2.687   9.573  0.2132  0.5560  0.1681
  612MOL0     C82527  10.064   2.742   9.720  0.3437  0.2290  0.3917
  612MOL0     C82528  10.167   2.668   9.797 -0.1279  0.2463  0.2068
  612MOL0    Cl82529  10.131   2.492   9.805 -0.0432  0.1264 -0.0634
  612MOL0     C82530   9.462   3.341   9.590 -0.4217 -0.8944 -0.4234
  612MOL0     C82531   9.353   3.390   9.533  0.4391 -0.0195 -0.1126
  612MOL0     O82532   9.132   3.603   9.488  0.4348  0.5229 -0.0820
  612MOL0     C82533   9.172   3.710   9.154  0.8724 -0.3132  0.7953
  612MOL0     C82534   9.114   3.804   9.069  0.8491 -0.5918 -0.2656
  612MOL0     N82535   8.685   3.953   8.516 -0.3372  1.2348 -0.2862
  612MOL0     N82536   8.597   4.008   8.438 -0.1093  0.0681  0.3287
  612MOL0     C82537   8.407   3.651   7.689 -0.0098  0.1219 -0.2222
  612MOL0     C82538   8.390   3.655   7.551 -0.6109 -0.4773  1.0630
  612MOL0     C82539   8.363   3.854   7.153  0.5624 -0.4949 -0.1974
  612MOL0     C82540   8.467   3.801   7.075  1.2169  1.6768  0.2429
  612MOL0     C82541   8.474   3.804   6.941  0.6971  0.8547 -0.0419
  612MOL0     C82542   8.381   3.873   6.877  0.3174  0.8035  1.1164
  612MOL0     O82543   8.384   3.874   6.744  0.3494  0.0618 -0.6293
  612MOL0     C82544   8.488   3.950   6.683 -0.2805  0.4136 -0.0475
  612MOL0     C82545   8.447   4.097   6.657 -0.8135  0.1464 -0.5757
  612MOL0     C82546   8.372   4.117   6.530  0.2246 -0.3342 -0.1743
  612MOL0     C82547   8.229   4.093   6.559  0.1629 -0.2474  0.1527
  612MOL0     C82548   8.160   4.207   6.626  1.1378  0.6436 -0.0345
  612MOL0     C82549   8.086   4.284   6.681 -0.1048 -0.8364  0.1617
  612MOL0     C82550   8.267   3.924   6.941 -0.2374  0.7139 -0.1322
  612MOL0     C82551   8.258   3.918   7.083  0.9066 -0.2551 -0.1030
  612MOL0     C82552   8.138   3.973   7.153 -0.9520 -0.5707 -0.0621
  612MOL0     H82553   8.650   3.867   7.464 -0.0059 -0.9833  0.0443
  612MOL0     H82554   8.693   3.837   7.714 -0.9120 -2.3082  4.1626
  612MOL0     H82555   8.364   3.658   7.944  0.5746 -2.5418 -1.8339
  612MOL0     H82556   8.485   3.536   7.921  0.5146 -0.4791 -0.1261
  612MOL0     H82557   8.517   3.747   8.143  3.6984 -0.6478  0.0214
  612MOL0     H82558   8.607   3.598   8.124  2.0982  1.7250  1.0484
  612MOL0     H82559   8.441   3.559   8.306  1.3161 -5.1007 -0.6099
  612MOL0     H82560   8.412   3.458   8.177 -1.3523  0.2276 -0.1178
  612MOL0     H82561   8.212   3.588   8.122  2.2338 -0.0821 -0.6832
  612MOL0     H82562   8.214   3.583   8.301 -1.7243  1.3059 -1.0405
  612MOL0     H82563   8.305   3.838   8.146 -1.2061 -0.2675 -1.8546
  612MOL0     H82564   8.148   3.815   8.221  0.1230  1.9663 -2.9776
  612MOL0     H82565   8.299   3.739   8.437  0.5207 -1.7354 -4.0713
  612MOL0     H82566   8.420   3.820   8.352  0.5881  3.8749 -1.9278
  612MOL0     H82567   8.240   3.940   8.544 -1.0028  3.4637 -0.2381
  612MOL0     H82568   8.166   3.976   8.399 -1.1564  0.9403  3.6117
  612MOL0     H82569   8.374   4.093   8.334  0.1063 -2.8706 -0.7611
  612MOL0     H82570   8.309   4.150   8.491 -3.6114 -2.6665  0.2120
  612MOL0     H82571   8.437   4.004   8.719 -0.4598  0.1645 -0.1381
  612MOL0     H82572   8.597   3.834   8.828  1.0377  0.9889  1.8220
  612MOL0     H82573   8.716   3.769   8.714 -3.0090 -0.9425 -0.0355
  612MOL0     H82574   8.718   4.031   8.891 -1.9170 -0.4938  1.8378
  612MOL0     H82575   8.787   3.889   8.952  0.9684  0.4222 -0.7017
  612MOL0     H82576   8.930   4.003   8.711  2.6067 -1.0522 -0.0470
  612MOL0     H82577   8.968   3.862   8.812  1.1371  0.3011 -3.5978
  612MOL0     H82578   8.976   4.148   8.897 -1.3205  0.1386  2.3349
  612MOL0     H82579   9.106   4.022   8.884  0.9615  0.0726  2.0914
  612MOL0     H82580   8.896   3.973   9.275 -3.6886 -2.0315  2.0405
  612MOL0     H82581   8.970   3.793   9.425 -1.5041  3.4266  0.3072
  612MOL0     H82582   9.469   3.429   9.223  0.6130  1.4369  0.9005
  612MOL0     H82583   9.655   3.277   9.315  0.8524 -1.4104  1.2763
  612MOL0     H82584   9.824   3.236   9.434 -2.3765 -1.5331 -0.9463
  612MOL0     H82585   9.865   3.175   9.600 -1.1839 -0.1434  1.5152
  612MOL0     H82586   9.719   3.005   9.595  2.1706  1.6471  1.8984
  612MOL0     H82587   9.631   3.055   9.458  0.5180 -0.5525 -0.1635
  612MOL0     H82588   9.756   2.889   9.372 -1.3979  1.3782 -0.3208
  612MOL0     H82589   9.864   3.025   9.322  0.5423  1.0942  0.5821
  612MOL0     H82590   9.978   2.959   9.577  0.2459  1.0533 -1.6537
  612MOL0     H82591  10.038   2.920   9.423 -1.1442 -1.0833 -1.2742
  612MOL0     H82592   9.920   2.702   9.415 -1.2324 -3.1627  0.8744
  612MOL0     H82593   9.844   2.742   9.577 -1.0131  1.4605 -1.0224
  612MOL0     H82594  10.037   2.579   9.565 -0.7820  0.4296  2.5415
  612MOL0     H82595  10.145   2.705   9.523  0.6612 -4.6533 -1.4667
  612MOL0     H82596   9.972   2.740   9.779 -0.6695 -1.9760 -1.1158
  612MOL0     H82597  10.090   2.848   9.718  1.7208 -0.0808  0.4406
  612MOL0     H82598  10.262   2.684   9.745 -0.0589 -0.3222  0.1525
  612MOL0     H82599  10.160   2.694   9.903 -0.0098 -0.3121  0.3539
  612MOL0     H82600   9.460   3.342   9.699 -1.3445 -2.5681 -0.3883
  612MOL0     H82601   9.255   3.388   9.580  0.1238  0.8130 -0.7209
  612MOL0     H82602   9.252   3.647   9.116  0.6957 -2.6782  3.9376
  612MOL0     H82603   9.136   3.804   8.963  1.4143 -2.5210 -0.1854
  612MOL0     H82604   8.341   3.581   7.738  0.0321 -1.3250 -2.1330
  612MOL0     H82605   8.314   3.601   7.496  0.1442  0.7050 -1.2760
  612MOL0     H82606   8.532   3.732   7.129 -2.1358 -1.8595  0.1922
  612MOL0     H82607   8.552   3.745   6.895 -1.5682 -3.4865  1.1017
  612MOL0     H82608   8.512   3.906   6.585 -1.3773  1.3908 -0.7828
  612MOL0     H82609   8.580   3.944   6.742 -0.2041 -1.9877 -0.2947
  612MOL0     H82610   8.546   4.144   6.649  0.6040 -2.5928 -0.2883
  612MOL0     H82611   8.398   4.146   6.742 -1.2052 -0.7455 -0.2762
  612MOL0     H82612   8.393   4.054   6.444  1.2507  0.7854 -0.7623
  612MOL0     H82613   8.381   4.219   6.490  1.4925 -0.0395  0.8051
  612MOL0     H82614   8.173   4.082   6.465  0.4571 -1.1966  0.0871
  612MOL0     H82615   8.215   3.999   6.612  0.5494 -1.6377 -2.0558
  612MOL0     H82616   8.012   4.349   6.723  0.7703 -0.7361  1.6235
  612MOL0     H82617   8.197   3.984   6.884  0.4073  2.7581  1.0983
  612MOL0     H82618   8.081   3.889   7.193  0.4253 -1.4207  0.1731
  612MOL0     H82619   8.155   4.038   7.240 -3.1532 -0.4077  0.3007
  612MOL0     H82620   8.077   4.037   7.088 -0.0236 -1.0016 -1.3958
  613MOL0     O82621   8.174  11.425   8.706 -0.0731 -0.0167  0.1374
  613MOL0     C82622   8.136  11.400   8.818 -0.6655 -0.3660 -0.4976
  613MOL0     O82623   8.010  11.424   8.860  0.1075 -0.1269  0.4912
  613MOL0     C82624   7.927  11.516   8.794 -0.0259 -0.7731 -0.9605
  613MOL0     C82625   7.871  11.616   8.868 -0.4961 -0.2191 -0.0283
  613MOL0     C82626   7.806  11.728   8.815  0.9723  0.8391 -0.2352
  613MOL0     C82627   7.782  11.737   8.672 -0.7693 -0.1014  0.3263
  613MOL0     O82628   7.721  11.851   8.618 -0.9047  0.0774 -0.3131
  613MOL0     C82629   7.662  11.830   8.489  0.6831  0.0659 -0.1632
  613MOL0     C82630   7.549  11.925   8.487 -0.9000  0.1060  0.1562
  613MOL0     C82631   7.601  12.068   8.488  0.3371 -0.3833 -0.0277
  613MOL0     C82632   7.493  12.164   8.438 -0.6437  0.3218 -1.1445
  613MOL0     C82633   7.547  12.303   8.398  0.4897  0.2195  0.9424
  613MOL0     C82634   7.428  12.401   8.370  0.1272 -0.2029  0.3953
  613MOL0     C82635   7.481  12.518   8.296 -0.4558 -0.3672  0.4976
  613MOL0     C82636   7.380  12.593   8.215  0.0867  0.3682  0.0464
  613MOL0     N82637   7.417  12.722   8.157  0.2249 -0.3510 -0.3278
  613MOL0     C82638   7.473  12.831   8.219 -1.6830  0.1690 -0.2544
  613MOL0     C82639   7.493  12.921   8.123  0.4665 -0.0520  0.5279
  613MOL0     C82640   7.560  13.053   8.133  0.2307  0.0928 -0.2611
  613MOL0     C82641   7.576  13.123   7.995  0.0135  0.5177 -0.4257
  613MOL0     C82642   7.627  13.264   8.018 -0.1538 -0.2021  0.0985
  613MOL0     C82643   7.673  13.328   7.883  0.6062  0.7582  0.1657
  613MOL0     O82644   7.788  13.272   7.809  0.0071  0.8455  0.8277
  613MOL0     C82645   7.755  13.240   7.677  0.0406  0.5893  0.0853
  613MOL0     C82646   7.656  13.142   7.651 -0.3622 -1.0509 -0.0477
  613MOL0     C82647   7.626  13.117   7.525  0.2426  0.5853  0.2800
  613MOL0     C82648   7.691  13.175   7.412 -0.7956  0.3828 -0.3680
  613MOL0     C82649   7.661  13.130   7.268  0.1236 -0.5724  0.4367
  613MOL0     O82650   7.589  13.014   7.256 -0.1434 -0.2853 -0.3187
  613MOL0     C82651   7.544  12.992   7.132  0.6666 -0.0813  0.2871
  613MOL0     C82652   7.563  12.869   7.067 -0.3624 -0.0995  1.2178
  613MOL0     C82653   7.512  12.843   6.938 -0.1960 -0.7216  1.1337
  613MOL0     C82654   7.430  12.939   6.879 -0.8086 -0.1185 -0.6228
  613MOL0     O82655   7.394  12.898   6.749 -0.0937 -0.6302 -0.4722
  613MOL0     C82656   7.253  12.904   6.718  0.5542  0.5035 -0.0784
  613MOL0     C82657   7.167  12.780   6.778 -0.0758  0.4513  0.1193
  613MOL0     C82658   7.244  12.647   6.762 -0.1163  1.2544  0.2002
  613MOL0     C82659   7.186  12.528   6.854 -0.5637  0.6359  0.5096
  613MOL0     C82660   7.218  12.391   6.794 -0.7140 -0.1672 -0.6082
  613MOL0     C82661   7.155  12.276   6.878  0.0919  1.2315 -0.4135
  613MOL0     C82662   7.228  12.248   7.010 -0.3821 -0.0199  0.4958
  613MOL0     C82663   7.216  12.106   7.053 -0.6057  0.4128 -0.0927
  613MOL0    Cl82664   7.053  12.029   7.069  0.0902  0.2122  0.1478
  613MOL0     C82665   7.397  13.054   6.950 -0.2252 -0.2667  1.0531
  613MOL0     C82666   7.448  13.079   7.076 -0.1188  0.0714 -0.3392
  613MOL0     O82667   7.711  13.196   7.172 -0.2223  0.1441 -0.7502
  613MOL0     C82668   7.788  13.267   7.442  0.1516  0.2581  0.0669
  613MOL0     C82669   7.820  13.306   7.570 -0.1872 -0.1630 -0.6543
  613MOL0     N82670   7.429  12.865   8.010 -0.7766  0.4923  0.6938
  613MOL0     N82671   7.401  12.743   8.026  0.3814 -0.3056  0.7970
  613MOL0     C82672   7.835  11.629   8.600  0.3451  0.4095 -0.0095
  613MOL0     C82673   7.905  11.520   8.659  0.5650 -0.2424  0.6316
  613MOL0     C82674   8.230  11.355   8.931 -0.2828 -0.6224 -0.0300
  613MOL0     C82675   8.180  11.331   9.068  0.3052 -0.6578  1.0310
  613MOL0     C82676   8.258  11.292   9.170 -0.7212 -0.1189 -0.3736
  613MOL0     C82677   8.394  11.274   9.154 -0.0487  0.4141 -0.7839
  613MOL0     O82678   8.475  11.245   9.260 -0.1976 -0.8235  0.6031
  613MOL0     C82679   8.445  11.120   9.320  0.5166 -0.5509  0.1388
  613MOL0     C82680   8.548  11.012   9.267 -0.7520  0.7777 -0.2157
  613MOL0     C82681   8.519  10.973   9.122  0.8663  0.6269  1.5915
  613MOL0     C82682   8.529  10.821   9.092  0.3813  0.5736  0.4662
  613MOL0     C82683   8.663  10.774   9.119 -0.3258 -0.8932  0.2047
  613MOL0     C82684   8.772  10.743   9.140  0.1124 -0.5862  0.5666
  613MOL0     C82685   8.450  11.292   9.023  0.2881  0.3615 -0.1222
  613MOL0     C82686   8.374  11.325   8.912  0.1599  0.7224  0.1978
  613MOL0     C82687   8.444  11.310   8.771  0.1334 -0.0083 -0.6731
  613MOL0     H82688   7.901  11.631   8.971  0.2690 -2.2240  0.1021
  613MOL0     H82689   7.780  11.805   8.887 -1.5933 -2.0221  2.1285
  613MOL0     H82690   7.722  11.841   8.399 -0.3207 -1.9911 -1.1568
  613MOL0     H82691   7.624  11.728   8.484 -0.2996  0.4714 -1.6277
  613MOL0     H82692   7.486  11.913   8.576  0.4131  1.0091  1.2523
  613MOL0     H82693   7.498  11.890   8.397  1.1418  0.3157 -1.1454
  613MOL0     H82694   7.682  12.074   8.415 -0.8464  2.8675 -1.2265
  613MOL0     H82695   7.636  12.090   8.589  1.4660  0.0702 -0.5032
  613MOL0     H82696   7.438  12.112   8.360  1.9961 -1.8461 -1.7071
  613MOL0     H82697   7.430  12.179   8.527 -0.0572 -2.6724 -0.0968
  613MOL0     H82698   7.624  12.344   8.464  1.0150 -0.4273  0.7461
  613MOL0     H82699   7.595  12.281   8.302 -2.0110  2.2697 -0.9112
  613MOL0     H82700   7.344  12.348   8.325 -1.5976  1.6954  1.2476
  613MOL0     H82701   7.391  12.431   8.468  0.8722 -1.2594  1.0298
  613MOL0     H82702   7.561  12.489   8.228 -1.9608 -2.1316 -0.6264
  613MOL0     H82703   7.529  12.577   8.375 -1.2431  0.0198  0.7014
  613MOL0     H82704   7.352  12.525   8.134 -0.2046 -0.5817  0.9190
  613MOL0     H82705   7.294  12.597   8.282  1.1889 -1.5438  1.6971
  613MOL0     H82706   7.500  12.846   8.323  0.0539 -1.7369 -0.3701
  613MOL0     H82707   7.489  13.118   8.187 -0.6052 -1.5188  0.6680
  613MOL0     H82708   7.655  13.045   8.187 -0.9013 -3.1529  1.4935
  613MOL0     H82709   7.648  13.065   7.935 -1.3274 -2.0162  0.2535
  613MOL0     H82710   7.482  13.127   7.938  0.8291  1.9656 -1.7444
  613MOL0     H82711   7.713  13.254   8.086  0.2057  0.2822 -0.2828
  613MOL0     H82712   7.553  13.330   8.065 -0.0647 -2.6128  4.1500
  613MOL0     H82713   7.695  13.435   7.893 -1.0175  1.0550  0.9306
  613MOL0     H82714   7.583  13.330   7.819  0.1391 -1.1364  0.7054
  613MOL0     H82715   7.611  13.098   7.739 -2.6392  0.0034 -0.6018
  613MOL0     H82716   7.567  13.028   7.510  0.6967  0.5802 -1.6795
  613MOL0     H82717   7.638  12.808   7.116 -1.4286  0.6490  4.0159
  613MOL0     H82718   7.522  12.749   6.885  0.0349 -1.2702  2.1322
  613MOL0     H82719   7.212  13.002   6.746 -0.4189  0.1404 -0.1835
  613MOL0     H82720   7.230  12.902   6.611  0.0121  1.8431 -0.0039
  613MOL0     H82721   7.141  12.803   6.882  2.8043 -0.0154  1.0437
  613MOL0     H82722   7.073  12.764   6.725  0.1215  2.2401 -0.8801
  613MOL0     H82723   7.253  12.611   6.659  0.9993  1.9772  0.0332
  613MOL0     H82724   7.349  12.659   6.790  0.3801 -0.9022 -0.5427
  613MOL0     H82725   7.078  12.541   6.861 -0.9007 -2.0888  1.3858
  613MOL0     H82726   7.224  12.535   6.957 -0.3931  2.4108  0.3646
  613MOL0     H82727   7.325  12.365   6.794 -0.6562  0.0504 -1.0538
  613MOL0     H82728   7.167  12.377   6.698 -2.0013  1.5830 -0.2107
  613MOL0     H82729   7.049  12.296   6.898  0.2239  1.7058 -0.1500
  613MOL0     H82730   7.168  12.193   6.808  1.0442  1.4830 -0.5506
  613MOL0     H82731   7.185  12.319   7.082 -0.7588 -0.1927  0.4444
  613MOL0     H82732   7.335  12.267   7.004  0.1525 -2.4971  0.7466
  613MOL0     H82733   7.283  12.050   6.988 -0.2052 -0.2508  0.8785
  613MOL0     H82734   7.241  12.104   7.159 -1.4087 -1.6162  0.1050
  613MOL0     H82735   7.342  13.135   6.902  0.9692 -0.9629 -1.6817
  613MOL0     H82736   7.414  13.165   7.134 -2.2481 -1.5290  0.9071
  613MOL0     H82737   7.848  13.308   7.362 -0.0234  0.0899 -0.1512
  613MOL0     H82738   7.906  13.372   7.580 -0.9164  1.1089 -2.2189
  613MOL0     H82739   7.809  11.621   8.495 -0.7459  2.9566 -0.0155
  613MOL0     H82740   7.945  11.441   8.597 -1.2025 -1.3194  0.7911
  613MOL0     H82741   8.079  11.357   9.096 -0.1349  1.9404 -2.3349
  613MOL0     H82742   8.227  11.283   9.274  2.8822  3.2735  1.2712
  613MOL0     H82743   8.347  11.076   9.297  0.1849  0.9546 -1.5272
  613MOL0     H82744   8.452  11.127   9.429 -2.7477 -1.6324  0.5447
  613MOL0     H82745   8.536  10.924   9.331 -1.7294  1.7370  0.9730
  613MOL0     H82746   8.648  11.056   9.272 -0.0338 -0.7206 -0.8423
  613MOL0     H82747   8.591  11.018   9.053 -0.6627  1.5212  0.4874
  613MOL0     H82748   8.420  11.011   9.092  1.8085  0.7777 -1.7049
  613MOL0     H82749   8.462  10.764   9.158 -0.1011  1.9620  1.2155
  613MOL0     H82750   8.507  10.799   8.987 -2.2233 -1.5548  1.3326
  613MOL0     H82751   8.873  10.720   9.169 -0.1471 -0.4878  1.6054
  613MOL0     H82752   8.557  11.278   9.013 -0.1742 -3.6398 -0.7453
  613MOL0     H82753   8.457  11.409   8.726  0.4428 -0.6995 -2.1751
  613MOL0     H82754   8.541  11.258   8.765 -0.3032 -0.7014 -2.9260
  613MOL0     H82755   8.384  11.247   8.705  0.1165 -0.6440 -0.0590
  614MOL0     O82756   0.583   1.912   9.738 -0.1672 -0.7050 -0.0876
  614MOL0     C82757   0.498   1.827   9.735 -1.6099  0.5011  0.4539
  614MOL0     O82758   0.365   1.842   9.739 -0.1699  0.0512 -0.7042
  614MOL0     C82759   0.295   1.957   9.735 -0.7144 -0.4629 -0.7898
  614MOL0     C82760   0.152   1.943   9.730  0.6651  0.1283 -0.1072
  614MOL0     C82761   0.069   2.053   9.718 -0.2417 -0.3787  0.8329
  614MOL0     C82762   0.121   2.184   9.731  0.1024 -0.0024  0.4406
  614MOL0     O82763   0.023   2.284   9.723 -0.3514 -0.0459  0.0373
  614MOL0     C82764   0.070   2.418   9.719 -1.0922 -0.3723  1.1134
  614MOL0     C82765   0.078   2.459   9.572 -0.5570  0.0093 -0.8187
  614MOL0     C82766   0.138   2.596   9.560  1.2413 -0.5546  0.3826
  614MOL0     C82767   0.291   2.598   9.574  0.8369  0.0452  0.1997
  614MOL0     C82768   0.348   2.744   9.558  0.2393 -0.6958 -0.3086
  614MOL0     C82769   0.472   2.766   9.638 -0.0138 -0.1535 -0.2379
  614MOL0     C82770   0.578   2.673   9.584 -0.4882  0.2388  1.1170
  614MOL0     C82771   0.713   2.690   9.656  0.0760 -1.2477  0.8877
  614MOL0     N82772   0.721   2.609   9.779  0.2317  0.6546 -0.4404
  614MOL0     C82773   0.742   2.474   9.777  0.2027 -0.6568  0.8564
  614MOL0     C82774   0.717   2.440   9.904  0.2620 -0.0003 -0.7336
  614MOL0     C82775   0.738   2.303   9.961 -0.0682  0.8604  0.7329
  614MOL0     C82776   0.611   2.232  10.000  0.7830 -0.2785 -0.6650
  614MOL0     C82777   0.635   2.082  10.011 -0.6616 -0.0550  0.3369
  614MOL0     C82778   0.690   2.042  10.149  0.4558  0.8132 -0.1163
  614MOL0     O82779   0.579   2.057  10.240  0.1739  0.0209  0.9881
  614MOL0     C82780   0.601   2.054  10.380  1.3810  0.1572  0.4264
  614MOL0     C82781   0.707   2.021  10.445  0.5380 -0.1522  0.4730
  614MOL0     C82782   0.715   2.016  10.580  0.3924  0.1150  0.9007
  614MOL0     C82783   0.596   2.040  10.655  0.2896  0.0465 -0.0770
  614MOL0     C82784   0.601   2.040  10.803 -0.1555 -0.1611 -0.4356
  614MOL0     O82785   0.710   1.999  10.868  0.0794  0.4377 -0.5550
  614MOL0     C82786   0.711   1.994  11.004  0.2206  0.5326 -0.2880
  614MOL0     C82787   0.682   2.099  11.089 -0.8536 -0.3762  0.0407
  614MOL0     C82788   0.702   2.089  11.222 -0.6709 -1.0438 -0.6878
  614MOL0     C82789   0.743   1.969  11.285  0.3511 -0.1679 -0.1982
  614MOL0     O82790   0.773   1.954  11.421  0.3676  0.3383  0.3480
  614MOL0     C82791   0.760   2.076  11.500  0.7115  0.5137 -0.0615
  614MOL0     C82792   0.846   2.052  11.625 -0.0750 -0.6056  0.5048
  614MOL0     C82793   0.794   1.956  11.729  0.1531 -0.0445  0.3271
  614MOL0     C82794   0.846   1.993  11.870  0.9985 -0.8436  1.0793
  614MOL0     C82795   0.784   1.888  11.966  0.3052  0.0476  0.7247
  614MOL0     C82796   0.818   1.902  12.113 -0.6232  0.6522  0.4747
  614MOL0     C82797   0.768   2.028  12.181 -0.0333  0.2256 -0.0123
  614MOL0     C82798   0.795   2.015  12.334  0.2799 -0.3273  0.2719
  614MOL0    Cl82799   0.745   2.186  12.391 -0.4632 -0.5419  0.1810
  614MOL0     C82800   0.771   1.860  11.208  0.4405 -0.4777 -0.8119
  614MOL0     C82801   0.758   1.878  11.070  0.7016 -0.6477  0.0966
  614MOL0     O82802   0.504   2.094  10.853  0.6136  0.4897  0.3435
  614MOL0     C82803   0.480   2.068  10.591  0.2922  0.6326 -0.6688
  614MOL0     C82804   0.486   2.085  10.454  0.7358  0.2828  0.7241
  614MOL0     N82805   0.682   2.555   9.978  0.0938  0.5804  0.2799
  614MOL0     N82806   0.681   2.656   9.898  0.2863  0.3985  0.4290
  614MOL0     C82807   0.258   2.201   9.743  0.0128  0.1305 -0.7353
  614MOL0     C82808   0.341   2.088   9.733  0.4082  0.1487  0.4426
  614MOL0     C82809   0.556   1.685   9.736 -0.9593  0.0365  0.6071
  614MOL0     C82810   0.686   1.664   9.669  0.9707 -0.7822 -0.3311
  614MOL0     C82811   0.729   1.529   9.640  0.5468 -0.3845 -0.8147
  614MOL0     C82812   0.643   1.427   9.679  1.3363  1.1090  0.0058
  614MOL0     O82813   0.684   1.303   9.644 -0.0539 -0.1149  0.4637
  614MOL0     C82814   0.649   1.192   9.736  0.3730 -0.1636 -0.0482
  614MOL0     C82815   0.762   1.097   9.723  0.6969 -0.1574  0.4314
  614MOL0     C82816   0.748   0.994   9.833 -0.0314  0.2839  0.6539
  614MOL0     C82817   0.844   0.875   9.830 -0.9543  0.4371 -0.2597
  614MOL0     C82818   0.796   0.788   9.944 -0.7612 -0.4074 -1.0436
  614MOL0     C82819   0.746   0.732  10.033 -1.6844  0.4634  0.1660
  614MOL0     C82820   0.528   1.446   9.755  0.4910  0.7333  0.5814
  614MOL0     C82821   0.477   1.569   9.774 -0.0921  0.0851 -0.8869
  614MOL0     C82822   0.338   1.561   9.823 -0.6464 -0.7638 -0.7685
  614MOL0     H82823   0.112   1.843   9.723  0.4046  0.1681  0.6981
  614MOL0     H82824  -0.037   2.040   9.701 -0.4299 -0.2796  1.8558
  614MOL0     H82825  -0.001   2.474   9.781  0.4471  1.0138  1.6878
  614MOL0     H82826   0.165   2.429   9.771 -0.4964 -2.7905  0.6381
  614MOL0     H82827  -0.024   2.459   9.533 -0.4317  1.9746 -1.2700
  614MOL0     H82828   0.139   2.386   9.518 -0.0688 -0.1698 -0.0472
  614MOL0     H82829   0.104   2.665   9.638 -2.6841 -1.3274 -0.4333
  614MOL0     H82830   0.116   2.643   9.464  0.8329  2.0152  1.6367
  614MOL0     H82831   0.316   2.548   9.667 -2.6471 -0.3045  1.0770
  614MOL0     H82832   0.339   2.542   9.493  1.8211 -1.2757  1.6582
  614MOL0     H82833   0.354   2.760   9.450 -2.1882 -0.7659 -0.5166
  614MOL0     H82834   0.280   2.828   9.579 -1.1303 -2.1237  1.2641
  614MOL0     H82835   0.500   2.871   9.628 -1.3885  0.2047 -0.6528
  614MOL0     H82836   0.453   2.741   9.743  1.2182 -0.3346 -0.0485
  614MOL0     H82837   0.595   2.677   9.476 -1.1167 -0.4329  0.9808
  614MOL0     H82838   0.539   2.572   9.601  0.2923  0.4801  5.3536
  614MOL0     H82839   0.794   2.660   9.588  0.1111 -0.2743  0.4707
  614MOL0     H82840   0.727   2.796   9.679  0.0407 -0.6010 -1.7589
  614MOL0     H82841   0.768   2.401   9.700 -1.2509  0.4991 -0.8318
  614MOL0     H82842   0.799   2.239   9.896 -0.7958  1.8492 -0.9956
  614MOL0     H82843   0.806   2.315  10.046  0.1991  0.9854  0.5033
  614MOL0     H82844   0.565   2.286  10.083 -0.8990  1.1928 -2.4516
  614MOL0     H82845   0.543   2.251   9.915  0.0068  1.4868  0.3062
  614MOL0     H82846   0.707   2.047   9.937  0.6299  3.1092 -0.0822
  614MOL0     H82847   0.538   2.037   9.991 -0.6064 -0.5592  1.1441
  614MOL0     H82848   0.785   2.087  10.180 -0.9039  0.9602  4.5362
  614MOL0     H82849   0.711   1.935  10.145 -2.2957  0.2214 -0.1750
  614MOL0     H82850   0.800   1.996  10.394 -1.4560 -2.6164 -2.2863
  614MOL0     H82851   0.814   1.993  10.619  1.5505 -0.2052 -1.9427
  614MOL0     H82852   0.634   2.193  11.061 -0.8200  0.3430  2.2285
  614MOL0     H82853   0.676   2.177  11.281  2.3096 -0.0709 -0.6597
  614MOL0     H82854   0.800   2.158  11.439  1.2733  0.8928  0.7912
  614MOL0     H82855   0.653   2.089  11.522  0.6035 -2.4195  1.6781
  614MOL0     H82856   0.945   2.014  11.597  0.5695  0.8006  0.7792
  614MOL0     H82857   0.846   2.158  11.653 -3.2035 -0.6244  0.8432
  614MOL0     H82858   0.685   1.955  11.737  0.0205 -0.1795 -1.1174
  614MOL0     H82859   0.833   1.855  11.710  1.9549  0.2371  2.1775
  614MOL0     H82860   0.814   2.094  11.900  0.5952 -0.1156 -1.6000
  614MOL0     H82861   0.956   1.987  11.870  1.1576  0.5156 -1.5773
  614MOL0     H82862   0.825   1.793  11.932 -0.2272 -0.3193  1.0902
  614MOL0     H82863   0.675   1.894  11.954  0.1587 -0.1622  1.8672
  614MOL0     H82864   0.770   1.818  12.164  1.3276 -0.5617  0.3951
  614MOL0     H82865   0.924   1.878  12.120 -1.2216 -1.7728  3.8426
  614MOL0     H82866   0.665   2.058  12.161  0.7298  2.7849 -0.4337
  614MOL0     H82867   0.821   2.114  12.139 -1.2664  0.6046 -0.8756
  614MOL0     H82868   0.733   1.935  12.374  1.8804 -0.4952  2.6556
  614MOL0     H82869   0.899   1.993  12.359  0.4936  1.0064  0.6600
  614MOL0     H82870   0.808   1.765  11.247 -0.2044 -1.0437 -1.5405
  614MOL0     H82871   0.796   1.799  11.006  0.1807 -0.8363  0.0160
  614MOL0     H82872   0.385   2.074  10.645  0.7707  1.0580  0.1498
  614MOL0     H82873   0.395   2.118  10.404  0.8066 -0.1657  0.2944
  614MOL0     H82874   0.292   2.300   9.772 -1.6790  0.2680  0.9988
  614MOL0     H82875   0.448   2.106   9.730 -0.1059  4.6531  0.9611
  614MOL0     H82876   0.750   1.742   9.630 -0.5617  0.5123 -0.3382
  614MOL0     H82877   0.818   1.508   9.581 -0.9626 -0.8637 -3.0412
  614MOL0     H82878   0.560   1.135   9.706  0.6750 -0.8417  0.3132
  614MOL0     H82879   0.661   1.228   9.838  1.7554 -0.3080 -0.1364
  614MOL0     H82880   0.860   1.146   9.719  0.3153  0.5948  0.1766
  614MOL0     H82881   0.752   1.045   9.628  1.1476  1.3350 -0.4662
  614MOL0     H82882   0.649   0.950   9.819  0.7492 -1.2149 -0.5001
  614MOL0     H82883   0.741   1.045   9.929 -1.6846  1.3053  0.0386
  614MOL0     H82884   0.826   0.813   9.741 -6.4370  0.4535  0.5066
  614MOL0     H82885   0.948   0.907   9.832 -0.6537 -0.5261  0.5484
  614MOL0     H82886   0.710   0.661  10.104 -2.2405  0.2892 -0.2815
  614MOL0     H82887   0.455   1.366   9.764 -0.6499  1.0940 -3.5144
  614MOL0     H82888   0.336   1.475   9.890  0.4161  0.1790  0.5213
  614MOL0     H82889   0.309   1.653   9.873 -1.3762 -0.2533 -2.0741
  614MOL0     H82890   0.273   1.544   9.736 -0.9945  2.9120 -1.3599
  615MOL0     O82891   5.759   1.654   0.922  0.0304  0.3732  0.2370
  615MOL0     C82892   5.774   1.550   0.982 -0.5407  0.4751  0.2958
  615MOL0     O82893   5.882   1.468   0.968 -0.1892  0.1508 -0.7277
  615MOL0     C82894   5.989   1.517   0.902 -0.0014 -0.0766 -0.4010
  615MOL0     C82895   6.036   1.454   0.791 -0.0150 -0.8615  0.2651
  615MOL0     C82896   6.145   1.507   0.718 -0.5156  0.0403  0.8529
  615MOL0     C82897   6.196   1.640   0.746 -0.8839  1.0369 -0.0375
  615MOL0     O82898   6.299   1.712   0.683  0.3330 -0.3439  0.0818
  615MOL0     C82899   6.401   1.627   0.618  0.5629  0.0857  0.1342
  615MOL0     C82900   6.512   1.709   0.565 -0.0570  0.0836  1.1997
  615MOL0     C82901   6.483   1.782   0.438  0.0568  0.1119 -0.4229
  615MOL0     C82902   6.609   1.863   0.393  0.5281 -0.4818  1.0120
  615MOL0     C82903   6.600   1.913   0.252 -0.6049 -0.4154  0.3990
  615MOL0     C82904   6.716   1.991   0.182  0.1091  0.5116 -0.5620
  615MOL0     C82905   6.736   2.127   0.248 -0.2513  0.6805  0.7194
  615MOL0     C82906   6.789   2.238   0.152  0.0607 -0.1273 -0.0878
  615MOL0     N82907   6.921   2.201   0.104 -0.1577 -0.5477 -0.4019
  615MOL0     C82908   7.040   2.210   0.185  0.4839  0.1708  0.8908
  615MOL0     C82909   7.132   2.148   0.108 -0.8540  0.4486 -0.5701
  615MOL0     C82910   7.263   2.088   0.143 -0.8713 -0.1356  0.6409
  615MOL0     C82911   7.261   2.022   0.277 -0.0456  0.2370  0.5171
  615MOL0     C82912   7.297   2.124   0.388  0.9994 -0.8395  0.0816
  615MOL0     C82913   7.245   2.075   0.527  1.2512 -0.6864 -0.7507
  615MOL0     O82914   7.103   2.065   0.524  0.3164  0.6425 -0.2922
  615MOL0     C82915   7.038   1.987   0.613 -0.2072 -0.1871 -0.5703
  615MOL0     C82916   7.094   1.896   0.706 -1.1127 -0.7481  0.5463
  615MOL0     C82917   7.024   1.835   0.813  0.3899 -0.1252 -0.0242
  615MOL0     C82918   6.888   1.856   0.832 -0.2601 -1.5554  0.8627
  615MOL0     C82919   6.816   1.796   0.945  0.9104 -0.0289 -0.1327
  615MOL0     O82920   6.675   1.813   0.941 -0.3504  0.4232  0.1639
  615MOL0     C82921   6.595   1.773   1.048 -0.2781 -0.3587  0.2581
  615MOL0     C82922   6.479   1.702   1.031  0.2484 -1.1823  0.0572
  615MOL0     C82923   6.405   1.655   1.141  0.3730  0.9886 -0.1804
  615MOL0     C82924   6.438   1.691   1.275 -0.3448  0.7215  0.3470
  615MOL0     O82925   6.369   1.649   1.388  0.8187 -0.7712  1.1357
  615MOL0     C82926   6.262   1.552   1.366  0.6520  1.1374 -0.0113
  615MOL0     C82927   6.187   1.531   1.507  0.3815 -0.2852 -0.3868
  615MOL0     C82928   6.096   1.408   1.492  0.2958  0.8329 -0.9539
  615MOL0     C82929   5.991   1.396   1.596  0.1872  0.8100 -0.5644
  615MOL0     C82930   5.964   1.246   1.627  0.0688  0.0954 -0.6059
  615MOL0     C82931   5.865   1.233   1.738 -0.3876  0.0488  0.2403
  615MOL0     C82932   5.831   1.089   1.755 -0.3318 -0.5897  0.5575
  615MOL0     C82933   5.739   1.062   1.868  0.2989  0.3839  0.5127
  615MOL0    Cl82934   5.573   1.145   1.842 -0.4579  0.4976 -0.5103
  615MOL0     C82935   6.549   1.771   1.288 -0.2788 -0.9729 -0.0227
  615MOL0     C82936   6.629   1.812   1.182 -0.5979 -0.1056 -0.2197
  615MOL0     O82937   6.877   1.726   1.025  0.3601 -0.4981 -0.0168
  615MOL0     C82938   6.830   1.938   0.727  0.5163  0.9432 -0.6349
  615MOL0     C82939   6.899   2.003   0.627 -0.1819 -0.4276  0.5058
  615MOL0     N82940   7.084   2.150  -0.018  0.2117 -1.6096  0.8820
  615MOL0     N82941   6.960   2.167  -0.023 -0.0057  0.1057 -0.7184
  615MOL0     C82942   6.147   1.704   0.861  0.7128  0.4385  0.4277
  615MOL0     C82943   6.050   1.642   0.935 -0.5208 -0.5022  0.1311
  615MOL0     C82944   5.680   1.506   1.079  0.4864  0.2075  0.5973
  615MOL0     C82945   5.736   1.483   1.206  0.0610  0.2350 -0.1349
  615MOL0     C82946   5.657   1.457   1.310 -0.7658  0.1516  0.2591
  615MOL0     C82947   5.524   1.436   1.298 -1.3439  0.5887  0.0860
  615MOL0     O82948   5.434   1.423   1.406 -0.9167  0.3050 -1.0261
  615MOL0     C82949   5.485   1.451   1.547  0.0174  0.3354 -0.2283
  615MOL0     C82950   5.364   1.440   1.636  0.3305  0.7098  0.0651
  615MOL0     C82951   5.250   1.537   1.597  0.3460  0.1286 -0.6007
  615MOL0     C82952   5.266   1.686   1.629  0.0591  0.8334 -1.0325
  615MOL0     C82953   5.257   1.713   1.770 -0.4487 -0.2101 -0.4959
  615MOL0     C82954   5.242   1.740   1.888  0.3346  0.3290  0.1540
  615MOL0     C82955   5.460   1.457   1.176  0.1243  0.0859 -1.0853
  615MOL0     C82956   5.538   1.495   1.064 -0.3628 -0.2814  0.0650
  615MOL0     C82957   5.463   1.530   0.936 -0.0711 -0.7859 -0.0351
  615MOL0     H82958   5.978   1.367   0.761 -1.0796  0.3115 -1.2424
  615MOL0     H82959   6.187   1.469   0.626 -0.1872  4.2324 -0.9505
  615MOL0     H82960   6.449   1.574   0.701 -3.0949 -0.7393  1.9280
  615MOL0     H82961   6.369   1.578   0.526  3.0620  1.3646 -1.5322
  615MOL0     H82962   6.605   1.652   0.554  2.0407  3.6324 -1.5120
  615MOL0     H82963   6.529   1.785   0.642 -0.2313  1.4310 -0.0467
  615MOL0     H82964   6.396   1.847   0.449  0.9559  1.6979 -2.1174
  615MOL0     H82965   6.460   1.711   0.358  1.5508 -0.0164 -0.7717
  615MOL0     H82966   6.633   1.939   0.468 -0.0595 -0.0193  0.7403
  615MOL0     H82967   6.691   1.792   0.408  0.1778 -0.6301  2.3622
  615MOL0     H82968   6.586   1.830   0.181  1.3986 -0.2089 -0.2883
  615MOL0     H82969   6.513   1.979   0.244  2.1207  3.3353 -1.3733
  615MOL0     H82970   6.813   1.941   0.185 -0.6047 -1.3683 -3.9126
  615MOL0     H82971   6.687   2.013   0.079 -2.5317  0.1922  0.0534
  615MOL0     H82972   6.808   2.133   0.331  0.4783  0.4690  0.1095
  615MOL0     H82973   6.638   2.159   0.287 -0.0438  0.6975  1.2376
  615MOL0     H82974   6.726   2.260   0.066  0.7894  0.5307 -0.4665
  615MOL0     H82975   6.782   2.336   0.200 -3.1409  0.3017 -1.1702
  615MOL0     H82976   7.036   2.224   0.293 -0.6312  3.1627  0.5266
  615MOL0     H82977   7.291   2.019   0.062  0.3345  4.6660 -3.5566
  615MOL0     H82978   7.332   2.173   0.149 -0.7815 -0.2980  2.1559
  615MOL0     H82979   7.161   1.977   0.274  0.7379 -2.2761  4.4933
  615MOL0     H82980   7.330   1.939   0.290  1.9412  2.1008  2.7896
  615MOL0     H82981   7.249   2.222   0.376 -0.8277 -1.5757  0.9337
  615MOL0     H82982   7.405   2.139   0.385  0.8340  0.4262 -2.1622
  615MOL0     H82983   7.260   2.148   0.606 -3.8071  1.1070 -1.0988
  615MOL0     H82984   7.300   1.981   0.542 -0.2572 -1.2471  1.8243
  615MOL0     H82985   7.202   1.885   0.703 -0.6035  2.7867  1.6464
  615MOL0     H82986   7.078   1.774   0.886 -0.4656 -2.4685 -1.2423
  615MOL0     H82987   6.441   1.670   0.934 -0.9962 -1.0485  0.4839
  615MOL0     H82988   6.318   1.590   1.134  1.2006 -0.7502  3.2667
  615MOL0     H82989   6.195   1.575   1.284  0.1365 -3.1551 -1.0278
  615MOL0     H82990   6.304   1.454   1.343  0.1859  0.9938 -0.2526
  615MOL0     H82991   6.249   1.522   1.596  0.2567  2.8419  0.1290
  615MOL0     H82992   6.126   1.618   1.534 -0.4123 -1.1534  0.6572
  615MOL0     H82993   6.043   1.402   1.397  0.5214 -0.0452 -1.0333
  615MOL0     H82994   6.160   1.319   1.491 -1.4471 -0.4747 -1.4312
  615MOL0     H82995   5.898   1.440   1.560  0.0861  0.4939 -0.6948
  615MOL0     H82996   6.019   1.440   1.692 -0.3215 -1.4057  0.6476
  615MOL0     H82997   6.056   1.191   1.649 -1.0857 -0.6215  3.1399
  615MOL0     H82998   5.922   1.196   1.540  0.4728 -1.6286  0.1512
  615MOL0     H82999   5.910   1.268   1.831  2.3658  0.6342 -1.2134
  615MOL0     H83000   5.776   1.293   1.720  0.5181  1.7539  1.1663
  615MOL0     H83001   5.915   1.018   1.765 -0.7312 -1.0780  0.4891
  615MOL0     H83002   5.785   1.056   1.661 -0.7916  1.5879 -0.0185
  615MOL0     H83003   5.736   0.953   1.876  1.8928  0.3611  1.1474
  615MOL0     H83004   5.788   1.098   1.959 -1.0889  3.8707  0.0695
  615MOL0     H83005   6.557   1.807   1.390 -0.1853 -0.3316 -0.2541
  615MOL0     H83006   6.716   1.877   1.190  0.2718 -1.1977 -0.5876
  615MOL0     H83007   6.724   1.961   0.737  0.8642  1.9035  1.4564
  615MOL0     H83008   6.851   2.088   0.580 -1.6534  0.8406  3.9260
  615MOL0     H83009   6.182   1.802   0.891 -0.2188  1.2727 -1.1177
  615MOL0     H83010   6.027   1.695   1.027  1.3776  2.0227 -0.7544
  615MOL0     H83011   5.840   1.510   1.223  0.3863 -0.3076 -1.1520
  615MOL0     H83012   5.690   1.435   1.411  1.1093  1.3823 -0.0497
  615MOL0     H83013   5.541   1.541   1.570 -1.5278  0.7651  2.2034
  615MOL0     H83014   5.555   1.370   1.571  0.9491  1.4896  1.0932
  615MOL0     H83015   5.389   1.473   1.737  1.9474 -1.4728  0.4762
  615MOL0     H83016   5.328   1.337   1.637  3.3517 -0.4675 -0.8446
  615MOL0     H83017   5.160   1.503   1.650  0.3987  0.7977 -0.0571
  615MOL0     H83018   5.243   1.525   1.489  0.2898  2.1118 -0.8556
  615MOL0     H83019   5.362   1.708   1.582  0.7624 -1.4521 -0.7898
  615MOL0     H83020   5.189   1.752   1.589 -3.3164 -0.9343  1.9477
  615MOL0     H83021   5.209   1.756   1.989  2.9670  2.9546  0.7573
  615MOL0     H83022   5.354   1.437   1.160  0.6234 -0.7115 -4.0267
  615MOL0     H83023   5.448   1.436   0.882  2.2275 -0.1331 -2.0006
  615MOL0     H83024   5.365   1.574   0.957  0.3570  0.5712 -0.7452
  615MOL0     H83025   5.520   1.600   0.874 -0.2809 -0.6570 -0.0850
  616MOL0     O83026   7.815   6.446   5.262 -0.2512 -0.9187  0.0191
  616MOL0     C83027   7.763   6.543   5.211 -0.7212  0.0136  0.6558
  616MOL0     O83028   7.695   6.646   5.275  0.6755  0.0015 -0.1917
  616MOL0     C83029   7.686   6.645   5.410  0.8759 -0.3080  0.2162
  616MOL0     C83030   7.754   6.572   5.510  1.1979 -0.0310 -0.5119
  616MOL0     C83031   7.726   6.589   5.646  0.2497  0.3888 -0.7601
  616MOL0     C83032   7.617   6.672   5.681  0.1811 -0.0073 -0.3157
  616MOL0     O83033   7.594   6.693   5.813 -0.2396  0.4538  0.0761
  616MOL0     C83034   7.478   6.633   5.852  0.2921 -0.0560 -0.3617
  616MOL0     C83035   7.359   6.719   5.896 -0.1620  0.1469 -0.2078
  616MOL0     C83036   7.388   6.794   6.027 -0.2918 -0.5223 -0.5421
  616MOL0     C83037   7.354   6.723   6.158 -0.1774 -0.3684 -0.6495
  616MOL0     C83038   7.408   6.812   6.274 -0.6230 -0.4373 -0.0144
  616MOL0     C83039   7.404   6.731   6.405 -0.8085  0.4375  0.5866
  616MOL0     C83040   7.460   6.824   6.517 -0.0438 -0.2786  0.0658
  616MOL0     C83041   7.372   6.933   6.569  0.9575  1.3996  0.2272
  616MOL0     N83042   7.398   6.975   6.707  0.1121  0.1551  0.3950
  616MOL0     C83043   7.521   7.009   6.759 -0.2683  1.3085  0.0494
  616MOL0     C83044   7.503   7.046   6.886 -0.3174 -0.9638 -0.4925
  616MOL0     C83045   7.589   7.111   6.990  0.4513  1.0689 -0.2254
  616MOL0     C83046   7.552   7.258   7.023 -0.0913 -0.0264  0.0729
  616MOL0     C83047   7.477   7.268   7.160 -0.8915 -0.2109  0.8546
  616MOL0     C83048   7.339   7.202   7.162 -0.5963 -0.9012  0.7714
  616MOL0     O83049   7.289   7.221   7.296 -0.2469 -0.8660 -0.6744
  616MOL0     C83050   7.158   7.187   7.323 -0.0164  0.9433  0.7436
  616MOL0     C83051   7.071   7.136   7.227 -0.2194 -1.0010  0.5832
  616MOL0     C83052   6.933   7.122   7.252 -0.6697  0.6994  0.2613
  616MOL0     C83053   6.885   7.165   7.378  0.5248  1.0599 -0.4045
  616MOL0     C83054   6.735   7.172   7.400  0.1768  0.3370  0.7820
  616MOL0     O83055   6.708   7.261   7.501  0.4987  0.5957 -0.4119
  616MOL0     C83056   6.575   7.283   7.552 -0.2495 -0.9854  0.3833
  616MOL0     C83057   6.450   7.225   7.511  0.0661 -0.6889  0.4200
  616MOL0     C83058   6.341   7.247   7.594  0.7981  1.5160 -0.1315
  616MOL0     C83059   6.339   7.335   7.698 -0.1732  0.0276 -0.9829
  616MOL0     O83060   6.230   7.333   7.786 -0.2421 -0.1736  0.2227
  616MOL0     C83061   6.250   7.377   7.921 -0.7774 -0.1386 -0.0659
  616MOL0     C83062   6.222   7.524   7.930 -0.0456  0.0444 -1.2970
  616MOL0     C83063   6.186   7.564   8.068 -0.0207 -1.5981 -1.5353
  616MOL0     C83064   6.108   7.704   8.082 -0.4378 -0.4644  0.0350
  616MOL0     C83065   6.119   7.749   8.225 -0.1733  0.2688 -0.0300
  616MOL0     C83066   6.049   7.889   8.241  0.4129  0.1577 -0.3232
  616MOL0     C83067   5.956   7.883   8.365  0.0060  0.6888  0.3352
  616MOL0     C83068   5.859   8.003   8.378  0.5273 -0.6897 -0.6714
  616MOL0    Cl83069   5.964   8.148   8.406 -0.1032 -0.4177  0.2562
  616MOL0     C83070   6.459   7.406   7.734 -0.0244 -0.0025  0.2056
  616MOL0     C83071   6.574   7.366   7.662  0.2926  0.0297 -0.6799
  616MOL0     O83072   6.654   7.131   7.317 -0.7469  0.2166 -0.2310
  616MOL0     C83073   6.971   7.205   7.472 -0.9370  0.2283 -0.2513
  616MOL0     C83074   7.111   7.212   7.452  0.6857  0.8207 -1.3105
  616MOL0     N83075   7.370   7.023   6.908  0.2888 -0.0798 -0.5019
  616MOL0     N83076   7.305   6.979   6.810 -0.2158  0.1764  0.4148
  616MOL0     C83077   7.559   6.751   5.589  0.2922  0.2473 -0.1665
  616MOL0     C83078   7.598   6.747   5.453  0.0931 -0.1367 -0.0846
  616MOL0     C83079   7.786   6.559   5.059 -0.8645 -0.2063  0.1602
  616MOL0     C83080   7.670   6.612   4.987  0.1909  0.3056  0.5659
  616MOL0     C83081   7.679   6.634   4.854 -0.5298  0.7755 -0.2154
  616MOL0     C83082   7.799   6.607   4.780 -0.4747 -0.5169  0.0035
  616MOL0     O83083   7.818   6.625   4.647  0.0050 -0.4768  0.1914
  616MOL0     C83084   7.714   6.643   4.554 -0.9546 -0.3513  0.6199
  616MOL0     C83085   7.644   6.514   4.515 -0.1164 -0.3858  0.1312
  616MOL0     C83086   7.735   6.383   4.492 -0.1479 -0.3072 -0.5885
  616MOL0     C83087   7.836   6.415   4.387  0.5015 -0.3137  0.0902
  616MOL0     C83088   7.768   6.415   4.258 -0.0671 -0.4545 -0.1885
  616MOL0     C83089   7.709   6.402   4.157  0.6792 -0.9629 -0.2944
  616MOL0     C83090   7.912   6.564   4.848  0.0083  0.5907  0.0324
  616MOL0     C83091   7.902   6.532   4.982  0.1388  0.5364  0.3315
  616MOL0     C83092   8.016   6.457   5.045 -0.4342  0.2847  0.0340
  616MOL0     H83093   7.837   6.506   5.490  0.2666 -1.8239  1.1131
  616MOL0     H83094   7.771   6.533   5.727 -0.1440  0.7494 -0.2866
  616MOL0     H83095   7.435   6.560   5.782 -4.2244  0.5807  1.4693
  616MOL0     H83096   7.497   6.573   5.941 -0.8444  2.0965  1.4210
  616MOL0     H83097   7.280   6.648   5.922  1.5615 -2.0691 -0.6198
  616MOL0     H83098   7.326   6.781   5.812  2.8335 -0.1465 -1.7634
  616MOL0     H83099   7.320   6.880   6.030  1.1843  0.6787 -0.0484
  616MOL0     H83100   7.492   6.825   6.015 -0.6993 -0.2607 -7.3205
  616MOL0     H83101   7.245   6.711   6.166 -0.2175 -0.1963 -0.9024
  616MOL0     H83102   7.397   6.623   6.157  0.1855 -0.2129 -1.2184
  616MOL0     H83103   7.513   6.838   6.254 -1.1379  0.1671 -2.2517
  616MOL0     H83104   7.362   6.909   6.290  1.3378  0.7713 -1.2324
  616MOL0     H83105   7.305   6.688   6.422 -1.0363  1.5630  2.3217
  616MOL0     H83106   7.478   6.651   6.396  1.5300  2.6028 -0.4239
  616MOL0     H83107   7.556   6.871   6.494 -0.2019  1.1718  2.0882
  616MOL0     H83108   7.476   6.757   6.602  1.0289 -0.5198 -0.3090
  616MOL0     H83109   7.395   7.015   6.500  0.4718 -0.2722 -2.0395
  616MOL0     H83110   7.268   6.910   6.544  0.3139  1.3261  2.6685
  616MOL0     H83111   7.612   7.021   6.701 -0.7460  0.4382 -0.9227
  616MOL0     H83112   7.577   7.041   7.074 -1.7032 -0.9710 -2.1130
  616MOL0     H83113   7.693   7.115   6.955  0.1145 -0.1090 -1.4035
  616MOL0     H83114   7.640   7.322   7.034 -0.3358  0.2369  0.5320
  616MOL0     H83115   7.483   7.302   6.950  0.8177  1.0060 -0.1968
  616MOL0     H83116   7.455   7.372   7.184 -0.8779  0.1555 -0.6085
  616MOL0     H83117   7.537   7.221   7.238 -1.5072  0.7310  1.9243
  616MOL0     H83118   7.352   7.094   7.146 -3.8560 -1.5205  1.5325
  616MOL0     H83119   7.269   7.243   7.088  2.8511  0.7563 -1.8307
  616MOL0     H83120   7.103   7.100   7.129 -3.9523 -1.8608 -0.4862
  616MOL0     H83121   6.865   7.076   7.181  2.4220 -2.4289 -0.9733
  616MOL0     H83122   6.450   7.157   7.427  1.6428  0.6215 -0.6997
  616MOL0     H83123   6.248   7.192   7.584  1.4586  0.2513  0.4217
  616MOL0     H83124   6.176   7.326   7.983 -1.1383 -1.4866 -1.5336
  616MOL0     H83125   6.354   7.370   7.955 -0.0276  0.6846 -2.0245
  616MOL0     H83126   6.308   7.582   7.896 -0.3207  1.5021  0.3604
  616MOL0     H83127   6.135   7.545   7.868 -0.1315 -4.4373 -3.0606
  616MOL0     H83128   6.125   7.490   8.121  0.1590 -1.3844 -1.0241
  616MOL0     H83129   6.278   7.584   8.123 -0.1577  0.1588 -1.9089
  616MOL0     H83130   6.002   7.700   8.057 -0.0322  2.1480 -2.6041
  616MOL0     H83131   6.152   7.775   8.012  0.1617 -0.6068  0.2576
  616MOL0     H83132   6.223   7.777   8.247 -0.3706 -0.1521  1.5283
  616MOL0     H83133   6.093   7.669   8.294  0.2005 -0.2919 -0.5288
  616MOL0     H83134   6.133   7.957   8.260 -1.8295  2.8279  0.6691
  616MOL0     H83135   5.998   7.932   8.155 -0.9824  2.5350  1.5905
  616MOL0     H83136   6.007   7.858   8.459 -0.8634  0.5770  0.7882
  616MOL0     H83137   5.893   7.795   8.348  0.6937 -0.5044  3.2834
  616MOL0     H83138   5.807   8.026   8.284  0.4593  1.7434 -0.1266
  616MOL0     H83139   5.790   8.001   8.462  0.7881  3.6942 -0.0991
  616MOL0     H83140   6.464   7.479   7.814 -0.7537 -0.3019  0.5334
  616MOL0     H83141   6.669   7.408   7.693 -0.3034  1.3476 -0.5506
  616MOL0     H83142   6.925   7.254   7.557 -2.5037 -0.2560 -0.7972
  616MOL0     H83143   7.176   7.243   7.533  0.6524 -0.9091 -0.5682
  616MOL0     H83144   7.501   6.827   5.639  2.1588  1.2017  0.6313
  616MOL0     H83145   7.553   6.808   5.375 -0.2227 -2.1529 -1.5496
  616MOL0     H83146   7.577   6.629   5.041 -0.8915  0.7263 -1.3568
  616MOL0     H83147   7.597   6.677   4.797 -2.4932  1.4252  2.8875
  616MOL0     H83148   7.768   6.688   4.470  0.7441 -1.2715  1.1876
  616MOL0     H83149   7.639   6.720   4.576  2.3810  2.7336  2.2724
  616MOL0     H83150   7.588   6.535   4.423 -0.4316 -2.9308 -0.3418
  616MOL0     H83151   7.568   6.490   4.590 -0.0984 -1.1588 -0.0928
  616MOL0     H83152   7.683   6.293   4.459 -3.1289  0.4376  1.6580
  616MOL0     H83153   7.780   6.344   4.584 -2.9323 -1.6095  0.3244
  616MOL0     H83154   7.896   6.504   4.407 -0.5813  0.2658  0.8573
  616MOL0     H83155   7.906   6.330   4.393 -0.2084 -0.7845  3.0044
  616MOL0     H83156   7.674   6.396   4.056  1.2013  2.0518 -0.7556
  616MOL0     H83157   8.004   6.541   4.798  2.4451 -2.9001  5.2252
  616MOL0     H83158   8.043   6.492   5.145  5.5186 -4.5901  0.7049
  616MOL0     H83159   7.983   6.356   5.070 -0.6676  0.3203 -0.1197
  616MOL0     H83160   8.110   6.457   4.989  0.3691 -0.3670  1.3260
  617MOL0     O83161   1.414   7.886  10.969 -0.7854 -0.1235  0.2687
  617MOL0     C83162   1.465   7.788  10.926 -0.7252 -0.1259  0.5188
  617MOL0     O83163   1.563   7.791  10.830 -0.5061 -0.1798 -0.9353
  617MOL0     C83164   1.577   7.889  10.741  0.8522  0.2339 -0.0100
  617MOL0     C83165   1.509   7.888  10.617 -0.1636  1.0282 -0.0885
  617MOL0     C83166   1.507   7.988  10.532 -1.0767 -0.0271  0.3237
  617MOL0     C83167   1.599   8.098  10.554  0.1647  0.3974 -0.4636
  617MOL0     O83168   1.594   8.195  10.455 -0.6388  0.5793 -0.3044
  617MOL0     C83169   1.687   8.298  10.470 -1.4171 -0.6597  0.1500
  617MOL0     C83170   1.650   8.405  10.368  0.6959 -0.6222  0.5113
  617MOL0     C83171   1.670   8.361  10.225  0.0258  0.3640  0.1106
  617MOL0     C83172   1.638   8.472  10.121 -0.9139 -0.3697 -0.5850
  617MOL0     C83173   1.492   8.480  10.082 -1.0004 -0.0943 -0.3762
  617MOL0     C83174   1.462   8.595   9.984 -0.0165  0.2956 -0.4541
  617MOL0     C83175   1.522   8.573   9.848  0.3928 -0.3440  1.4389
  617MOL0     C83176   1.463   8.661   9.745  0.0407 -0.3191 -0.1238
  617MOL0     N83177   1.550   8.683   9.629 -0.4433 -0.0556 -0.4810
  617MOL0     C83178   1.656   8.777   9.617  0.5328  0.0306  0.8271
  617MOL0     C83179   1.693   8.776   9.488  0.0346  0.2846 -0.0273
  617MOL0     C83180   1.809   8.850   9.427  1.0387 -0.4544  0.4971
  617MOL0     C83181   1.834   8.823   9.277  0.0448  0.4594 -0.1512
  617MOL0     C83182   1.940   8.920   9.219  0.9808  0.6012 -0.5552
  617MOL0     C83183   2.085   8.876   9.214  0.0454  0.5343  0.3214
  617MOL0     O83184   2.131   8.832   9.337 -0.3248  0.0306  0.2394
  617MOL0     C83185   2.187   8.920   9.427 -0.5618  0.8056  0.1377
  617MOL0     C83186   2.259   8.851   9.526  0.4805 -0.0543  0.0403
  617MOL0     C83187   2.338   8.917   9.623  0.7359  0.4110  0.2338
  617MOL0     C83188   2.340   9.054   9.617 -0.0075  0.1539  0.2230
  617MOL0     C83189   2.416   9.136   9.716 -0.3412  0.3410 -0.3155
  617MOL0     O83190   2.431   9.260   9.681 -0.4472 -0.3782  0.4969
  617MOL0     C83191   2.533   9.328   9.724  0.7115 -0.0519  0.8454
  617MOL0     C83192   2.551   9.380   9.845  0.5285  0.0753 -0.5725
  617MOL0     C83193   2.672   9.446   9.879 -0.1986  0.0625  0.3725
  617MOL0     C83194   2.773   9.452   9.778  0.4621  0.5140  0.1652
  617MOL0     O83195   2.894   9.498   9.821 -0.4387 -0.5831  0.1993
  617MOL0     C83196   3.004   9.527   9.730  0.2684 -0.5079  0.4267
  617MOL0     C83197   2.993   9.667   9.661  0.2144  0.1065 -0.3660
  617MOL0     C83198   3.109   9.689   9.560  1.1514 -0.1956 -0.1928
  617MOL0     C83199   3.097   9.609   9.433  0.2114  1.2871  0.6665
  617MOL0     C83200   3.225   9.631   9.352 -0.4505 -0.3876  0.7263
  617MOL0     C83201   3.208   9.592   9.212 -0.1539 -0.1857  0.1915
  617MOL0     C83202   3.158   9.448   9.194  1.3210  0.1322  1.0111
  617MOL0     C83203   3.185   9.386   9.054  0.0708  0.9550  0.2855
  617MOL0    Cl83204   3.371   9.344   9.034 -0.1045  0.2057  0.3604
  617MOL0     C83205   2.749   9.406   9.651 -0.7291  0.6836  1.4350
  617MOL0     C83206   2.629   9.342   9.627  0.2507  0.8331  0.4879
  617MOL0     O83207   2.450   9.080   9.822  0.1453 -0.7794 -0.2435
  617MOL0     C83208   2.267   9.118   9.516 -0.4694  0.3612 -0.1302
  617MOL0     C83209   2.183   9.057   9.425  0.1668 -0.0289 -0.2360
  617MOL0     N83210   1.600   8.696   9.415 -0.0583  0.1078  0.7752
  617MOL0     N83211   1.529   8.639   9.508 -0.1401 -0.4123  0.0632
  617MOL0     C83212   1.672   8.098  10.673  0.2801  0.7680  0.4369
  617MOL0     C83213   1.655   7.999  10.774  0.2265  0.7113 -0.4451
  617MOL0     C83214   1.430   7.657  10.977  0.1904 -1.4157 -0.9352
  617MOL0     C83215   1.465   7.540  10.904  0.1366  0.1358 -0.0142
  617MOL0     C83216   1.440   7.414  10.951  0.0655 -0.1257 -0.6615
  617MOL0     C83217   1.383   7.390  11.074  0.5623 -0.3231  0.5915
  617MOL0     O83218   1.346   7.272  11.130  0.3700 -0.0008  0.0933
  617MOL0     C83219   1.375   7.151  11.057 -0.8529 -0.0067 -0.0359
  617MOL0     C83220   1.250   7.113  10.969 -0.2123  0.4890 -0.6744
  617MOL0     C83221   1.263   6.976  10.893  0.4373  0.0456 -0.0087
  617MOL0     C83222   1.127   6.940  10.820  0.5603  0.1079  0.2185
  617MOL0     C83223   1.113   7.034  10.710  1.6830 -0.3408  0.3798
  617MOL0     C83224   1.057   7.101  10.629 -0.2856 -0.4005  1.2634
  617MOL0     C83225   1.353   7.498  11.153  0.1992 -0.2973  0.1517
  617MOL0     C83226   1.366   7.626  11.103  0.3112 -0.5531 -0.8598
  617MOL0     C83227   1.325   7.731  11.205  0.2223 -0.0281 -0.2099
  617MOL0     H83228   1.437   7.808  10.601  0.2473  1.3086 -4.2732
  617MOL0     H83229   1.452   7.962  10.442  0.2934 -2.7972  0.1710
  617MOL0     H83230   1.672   8.344  10.568  2.6878 -0.3425  0.8170
  617MOL0     H83231   1.790   8.263  10.459 -1.7774 -1.3011 -1.5904
  617MOL0     H83232   1.713   8.492  10.391 -0.0428 -0.2982  1.3615
  617MOL0     H83233   1.543   8.428  10.374  0.2953 -2.2160  0.0177
  617MOL0     H83234   1.607   8.274  10.204  2.4934 -1.4792 -0.0066
  617MOL0     H83235   1.770   8.328  10.198 -0.6626 -0.9705 -0.9692
  617MOL0     H83236   1.658   8.574  10.155 -1.8235  0.4681 -2.3985
  617MOL0     H83237   1.681   8.448  10.023 -0.3056 -0.4363 -0.3075
  617MOL0     H83238   1.444   8.384  10.060  0.3895 -0.5424 -1.6004
  617MOL0     H83239   1.438   8.512  10.172 -0.1637  1.1920 -0.3094
  617MOL0     H83240   1.353   8.603   9.977 -0.0734  1.2183  1.0032
  617MOL0     H83241   1.498   8.691  10.022  3.8130 -0.1347 -2.5288
  617MOL0     H83242   1.515   8.468   9.817 -0.7153  0.7675 -2.8190
  617MOL0     H83243   1.629   8.592   9.833 -0.0628  0.8381 -0.8765
  617MOL0     H83244   1.363   8.638   9.707 -1.4541  1.4976  2.3664
  617MOL0     H83245   1.445   8.760   9.788  1.8573  0.0384 -0.1049
  617MOL0     H83246   1.692   8.837   9.701  3.1278  0.0577 -0.2299
  617MOL0     H83247   1.789   8.955   9.450 -0.1849 -0.3780 -0.7806
  617MOL0     H83248   1.895   8.844   9.495 -0.5365  0.8191  2.7404
  617MOL0     H83249   1.863   8.719   9.262 -1.6543  0.1768 -1.8459
  617MOL0     H83250   1.755   8.813   9.202  0.8326  1.2757 -1.1324
  617MOL0     H83251   1.947   9.012   9.279 -1.2689  0.2485  0.3373
  617MOL0     H83252   1.903   8.944   9.119 -1.1064 -0.5630 -0.1169
  617MOL0     H83253   2.148   8.957   9.175 -0.2767 -0.8185 -3.3468
  617MOL0     H83254   2.101   8.795   9.142  3.0379  0.8669  0.4812
  617MOL0     H83255   2.256   8.743   9.530  0.5667 -0.0274  1.9463
  617MOL0     H83256   2.382   8.851   9.697  2.7730  1.9614  0.5019
  617MOL0     H83257   2.460   9.376   9.904  0.6708  0.3633 -0.3290
  617MOL0     H83258   2.692   9.479   9.980 -1.5208 -0.6026  0.8853
  617MOL0     H83259   3.097   9.529   9.789 -1.0555  2.0475  2.6846
  617MOL0     H83260   3.005   9.448   9.655 -2.3862 -1.6403  1.4829
  617MOL0     H83261   2.904   9.687   9.601  1.0776 -0.2835 -1.8296
  617MOL0     H83262   3.002   9.741   9.741  0.5205  1.3969 -1.5466
  617MOL0     H83263   3.120   9.795   9.535  0.1797  0.0858  0.5128
  617MOL0     H83264   3.201   9.657   9.609  0.5890 -1.6931 -0.0648
  617MOL0     H83265   3.009   9.646   9.380  0.7309  2.9206  0.8833
  617MOL0     H83266   3.098   9.501   9.453  1.2715  0.9795 -0.8738
  617MOL0     H83267   3.307   9.570   9.391  2.0292  1.1335 -1.7871
  617MOL0     H83268   3.264   9.733   9.347  0.6951 -0.8662 -1.5293
  617MOL0     H83269   3.124   9.653   9.179  0.0285 -0.0284  0.0117
  617MOL0     H83270   3.304   9.610   9.162  0.7306  1.7491  2.4165
  617MOL0     H83271   3.048   9.445   9.200  1.2680 -0.5280 -0.0920
  617MOL0     H83272   3.189   9.371   9.265 -3.1375 -3.2362 -0.2160
  617MOL0     H83273   3.138   9.288   9.047  0.9609  0.3305  2.2135
  617MOL0     H83274   3.139   9.435   8.968  2.0884 -2.6729 -3.1981
  617MOL0     H83275   2.821   9.407   9.569 -2.6001  0.6007 -0.3030
  617MOL0     H83276   2.621   9.286   9.534 -1.8293 -1.7908  2.0755
  617MOL0     H83277   2.268   9.227   9.508  0.0024  0.2585 -1.9750
  617MOL0     H83278   2.132   9.114   9.347 -1.5009  0.3407  1.0561
  617MOL0     H83279   1.740   8.177  10.703  1.5662  0.4034 -1.3369
  617MOL0     H83280   1.717   7.982  10.861  0.4289 -4.6860 -1.3365
  617MOL0     H83281   1.516   7.539  10.808 -0.5089  2.5097 -0.4492
  617MOL0     H83282   1.442   7.333  10.878 -0.4862 -0.6047 -0.1559
  617MOL0     H83283   1.408   7.074  11.128  3.5655  0.0137 -1.7492
  617MOL0     H83284   1.460   7.150  10.989 -1.7587 -3.3016 -1.3540
  617MOL0     H83285   1.230   7.197  10.901  0.3852 -1.3939 -3.3278
  617MOL0     H83286   1.167   7.102  11.040  1.4721  0.0842  1.3209
  617MOL0     H83287   1.291   6.903  10.969  2.5927  0.4856 -0.3046
  617MOL0     H83288   1.340   6.967  10.815  1.1481  2.3156  0.3606
  617MOL0     H83289   1.127   6.838  10.781  0.0411  0.6164 -1.1695
  617MOL0     H83290   1.049   6.939  10.897 -0.1629  0.5406 -0.4908
  617MOL0     H83291   1.000   7.160  10.560 -0.9950  0.9520  2.9478
  617MOL0     H83292   1.320   7.478  11.254  2.2377 -1.0355  0.7241
  617MOL0     H83293   1.388   7.820  11.205  0.6425 -0.3208  0.3204
  617MOL0     H83294   1.231   7.771  11.167  0.9411  0.3839 -1.6226
  617MOL0     H83295   1.315   7.691  11.306  2.9856  0.5031  0.3502
  618MOL0     O83296  11.031   0.572   7.357  0.0828 -0.5490  0.9321
  618MOL0     C83297  10.919   0.526   7.357  0.8667  0.6097 -0.3585
  618MOL0     O83298  10.870   0.439   7.454  0.0010 -0.0294  0.5495
  618MOL0     C83299  10.958   0.375   7.538  0.5770 -0.9706 -0.0398
  618MOL0     C83300  11.030   0.256   7.495 -0.7763  0.4764 -0.0866
  618MOL0     C83301  11.113   0.184   7.585  0.0892  0.5491  0.7333
  618MOL0     C83302  11.113   0.230   7.724  0.2565  0.1792  0.5619
  618MOL0     O83303  11.182   0.169   7.824  0.7909 -0.3684  0.4980
  618MOL0     C83304  11.201   0.026   7.817  0.1703 -0.0860 -0.2050
  618MOL0     C83305  11.212  -0.020   7.955 -0.1322  0.7325 -0.1345
  618MOL0     C83306  11.083   0.014   8.040  0.7069  0.0220 -0.1429
  618MOL0     C83307  11.101  -0.009   8.191  0.1754  0.5126  0.7454
  618MOL0     C83308  11.230   0.044   8.245 -0.9493 -0.5653  0.2163
  618MOL0     C83309  11.263   0.194   8.210  0.1964 -1.2771  0.4527
  618MOL0     C83310  11.413   0.226   8.247  0.1785  0.1189 -0.5171
  618MOL0     C83311  11.503   0.228   8.121 -0.2901  0.7560 -0.2011
  618MOL0     N83312  11.486   0.356   8.045  0.9085 -0.1225  0.3224
  618MOL0     C83313  11.427   0.360   7.918  0.3181  0.4266 -0.1543
  618MOL0     C83314  11.431   0.488   7.883 -0.2339 -0.1084  1.1019
  618MOL0     C83315  11.376   0.549   7.757 -0.2654  0.6853 -0.6417
  618MOL0     C83316  11.423   0.495   7.621 -0.8259 -0.7960  0.9361
  618MOL0     C83317  11.321   0.532   7.509 -0.4603  0.3893  0.4552
  618MOL0     C83318  11.405   0.559   7.382  0.6389  0.2960  0.1505
  618MOL0     O83319  11.467   0.433   7.334  0.6653 -0.1867 -0.0149
  618MOL0     C83320  11.410   0.346   7.245  0.2147  0.7813 -1.0480
  618MOL0     C83321  11.479   0.221   7.214  0.6193  0.0874  0.3869
  618MOL0     C83322  11.419   0.133   7.126  0.4907 -1.0383  0.5176
  618MOL0     C83323  11.288   0.148   7.081  0.1483  0.4733  0.1162
  618MOL0     C83324  11.238   0.063   6.972  0.1673 -0.4244  0.0236
  618MOL0     O83325  11.319  -0.026   6.920 -0.3759  0.3360 -0.3442
  618MOL0     C83326  11.300  -0.086   6.806  0.7723 -0.2227  0.4114
  618MOL0     C83327  11.209  -0.195   6.803  0.7191 -0.6556  0.1006
  618MOL0     C83328  11.172  -0.249   6.672 -0.3719  0.4920 -0.9707
  618MOL0     C83329  11.236  -0.209   6.555 -0.2626  0.4763  0.3360
  618MOL0     O83330  11.207  -0.280   6.444  0.2008 -0.8666  0.3363
  618MOL0     C83331  11.071  -0.298   6.409  0.0079 -0.3387  0.5448
  618MOL0     C83332  11.054  -0.246   6.268 -0.7696  0.1027 -0.2418
  618MOL0     C83333  11.051  -0.094   6.250  0.4436 -0.3019 -0.0195
  618MOL0     C83334  10.925  -0.007   6.284 -0.3992  0.1648  0.3361
  618MOL0     C83335  10.930   0.132   6.237 -0.3573 -0.0857 -0.1088
  618MOL0     C83336  10.803   0.207   6.247 -0.6932  0.0699  0.5039
  618MOL0     C83337  10.818   0.357   6.218  0.0379  0.2555  0.0939
  618MOL0     C83338  10.706   0.434   6.153 -0.0706 -0.4692  0.0189
  618MOL0    Cl83339  10.558   0.453   6.264 -0.0371  0.0491  0.0743
  618MOL0     C83340  11.330  -0.110   6.558 -0.1691 -0.4260 -0.5728
  618MOL0     C83341  11.362  -0.047   6.683 -0.2146 -0.1482  0.0981
  618MOL0     O83342  11.118   0.075   6.935  0.1587  0.6608  0.0661
  618MOL0     C83343  11.222   0.260   7.122  0.1134 -0.4733  0.4766
  618MOL0     C83344  11.278   0.357   7.205 -0.7645 -0.2296 -0.3598
  618MOL0     N83345  11.495   0.566   7.979 -0.1625  0.3403  0.2514
  618MOL0     N83346  11.532   0.480   8.077  0.4018  0.1937  1.1436
  618MOL0     C83347  11.065   0.362   7.752 -0.4906 -0.3471 -0.6960
  618MOL0     C83348  10.994   0.432   7.656 -0.2030 -0.7590 -0.6230
  618MOL0     C83349  10.829   0.535   7.240  0.9214 -0.6625  0.5529
  618MOL0     C83350  10.723   0.441   7.232 -0.4747  0.0491 -0.8867
  618MOL0     C83351  10.618   0.465   7.137 -0.3114 -0.4214  0.0674
  618MOL0     C83352  10.615   0.581   7.060  0.4163 -0.3424  0.5835
  618MOL0     O83353  10.503   0.598   6.983  0.6506  0.3195  0.4687
  618MOL0     C83354  10.520   0.607   6.842  0.0731  0.1219  0.5488
  618MOL0     C83355  10.509   0.747   6.783  0.0264 -1.3650 -0.1445
  618MOL0     C83356  10.545   0.747   6.636 -0.4548 -1.3322 -0.5795
  618MOL0     C83357  10.697   0.777   6.629  0.9870 -0.3887  0.3528
  618MOL0     C83358  10.742   0.756   6.487  0.5469  0.0686  0.5881
  618MOL0     C83359  10.776   0.726   6.376  0.1607  0.9510 -0.2122
  618MOL0     C83360  10.722   0.678   7.063  0.0173  0.7598 -0.8546
  618MOL0     C83361  10.833   0.651   7.151 -0.2001 -0.5841  0.6033
  618MOL0     C83362  10.935   0.756   7.151  0.2089 -0.1233  0.4035
  618MOL0     H83363  11.029   0.217   7.394  0.6856 -2.0066  0.7622
  618MOL0     H83364  11.167   0.095   7.555  4.2900  2.9208  0.4811
  618MOL0     H83365  11.124  -0.030   7.763  0.9290  0.5747 -2.0467
  618MOL0     H83366  11.291  -0.002   7.761 -0.8038 -0.2298 -1.7483
  618MOL0     H83367  11.312   0.013   7.984  0.7042 -0.7825 -1.1069
  618MOL0     H83368  11.226  -0.128   7.964  1.9256  0.7958 -1.8095
  618MOL0     H83369  11.011  -0.061   8.006 -0.2741  1.9075 -2.5009
  618MOL0     H83370  11.030   0.107   8.020 -0.6899 -0.4647  1.1761
  618MOL0     H83371  11.010   0.030   8.239 -1.7772 -0.7752 -1.6769
  618MOL0     H83372  11.089  -0.113   8.223  0.0616  0.0889 -0.6371
  618MOL0     H83373  11.229   0.050   8.354 -1.3456 -0.2203  0.1975
  618MOL0     H83374  11.309  -0.024   8.215  1.3048  2.0351 -0.1503
  618MOL0     H83375  11.248   0.219   8.104 -0.2063 -3.5866 -0.0893
  618MOL0     H83376  11.201   0.262   8.268 -1.0457 -0.8746 -1.2507
  618MOL0     H83377  11.446   0.148   8.316 -1.6779  0.7111  1.1505
  618MOL0     H83378  11.427   0.325   8.292  0.7784 -0.1328 -0.1345
  618MOL0     H83379  11.608   0.222   8.150  0.1332  0.1521 -1.7949
  618MOL0     H83380  11.462   0.148   8.059  0.3709  0.5196 -0.3291
  618MOL0     H83381  11.376   0.279   7.869  0.6235 -0.2778  0.6614
  618MOL0     H83382  11.267   0.540   7.764 -0.2041 -0.0194 -0.5761
  618MOL0     H83383  11.400   0.656   7.762  3.0924  0.2195 -3.1726
  618MOL0     H83384  11.515   0.552   7.605 -1.4859  0.4075  1.2969
  618MOL0     H83385  11.439   0.386   7.626 -0.5259 -0.7228  5.0675
  618MOL0     H83386  11.278   0.628   7.540 -0.6445 -0.3019  2.4390
  618MOL0     H83387  11.243   0.456   7.500  1.5658 -1.6908 -0.8260
  618MOL0     H83388  11.485   0.628   7.409  2.4718 -1.2711 -0.9733
  618MOL0     H83389  11.347   0.606   7.302  0.8300  2.1144  1.0431
  618MOL0     H83390  11.584   0.205   7.235  0.2478 -2.6826  0.4843
  618MOL0     H83391  11.477   0.057   7.074 -2.2516 -0.0238 -4.7620
  618MOL0     H83392  11.156  -0.230   6.891 -0.4935  0.0976 -0.3033
  618MOL0     H83393  11.104  -0.333   6.680  1.3476 -0.8710  0.0823
  618MOL0     H83394  11.043  -0.403   6.406 -0.5020 -0.2015  0.3922
  618MOL0     H83395  11.001  -0.239   6.469  1.8237  1.6980  0.8078
  618MOL0     H83396  11.124  -0.294   6.198  0.7706 -0.5947  1.6691
  618MOL0     H83397  10.950  -0.273   6.246 -0.1940 -2.2436 -0.3267
  618MOL0     H83398  11.137  -0.052   6.303 -0.5850 -0.1617  1.6111
  618MOL0     H83399  11.070  -0.078   6.143  0.8866 -3.1844 -0.4545
  618MOL0     H83400  10.912  -0.001   6.393  0.7340 -0.7602  0.5458
  618MOL0     H83401  10.839  -0.050   6.233 -0.7126  3.5664 -2.3826
  618MOL0     H83402  10.965   0.128   6.134 -0.8755 -0.2810 -0.2805
  618MOL0     H83403  11.003   0.183   6.301 -1.9983  1.1657  0.8263
  618MOL0     H83404  10.728   0.155   6.187  0.3638 -0.0110 -0.7920
  618MOL0     H83405  10.780   0.209   6.354 -0.2060  4.5474  0.7251
  618MOL0     H83406  10.901   0.370   6.148  0.4105 -2.9223 -0.1874
  618MOL0     H83407  10.846   0.403   6.313 -4.6147  0.7625  1.4809
  618MOL0     H83408  10.754   0.532   6.138 -2.2978  0.6571 -0.2918
  618MOL0     H83409  10.677   0.406   6.051  0.6779  2.2105 -1.0192
  618MOL0     H83410  11.389  -0.085   6.470  1.8189 -0.2418  0.7598
  618MOL0     H83411  11.431   0.036   6.666  0.4701 -0.5077  1.0382
  618MOL0     H83412  11.122   0.287   7.090  1.0925  1.0575 -1.4878
  618MOL0     H83413  11.224   0.448   7.227 -1.7110 -0.5515 -1.2833
  618MOL0     H83414  11.076   0.414   7.847  2.5380  0.4210 -1.3459
  618MOL0     H83415  10.953   0.529   7.681  1.4248 -0.2038  0.0390
  618MOL0     H83416  10.706   0.363   7.306  4.2536 -2.1241 -1.7477
  618MOL0     H83417  10.533   0.398   7.136 -1.5988  1.1005  1.2557
  618MOL0     H83418  10.443   0.550   6.790  1.2237  0.5062 -1.7084
  618MOL0     H83419  10.618   0.565   6.818  1.1154  1.6345  1.9317
  618MOL0     H83420  10.571   0.813   6.844 -1.2111  0.9527 -1.2460
  618MOL0     H83421  10.412   0.797   6.793 -0.5243 -2.8577  3.5009
  618MOL0     H83422  10.493   0.827   6.583  1.6403 -1.5347 -3.1555
  618MOL0     H83423  10.516   0.654   6.586 -0.7815 -0.7409 -1.5126
  618MOL0     H83424  10.722   0.875   6.670  0.7726  0.0523 -0.5613
  618MOL0     H83425  10.750   0.707   6.694 -1.4287 -1.0921  1.7097
  618MOL0     H83426  10.812   0.695   6.280 -1.6578  2.2316 -1.3642
  618MOL0     H83427  10.730   0.767   7.001  1.7754  0.1611 -1.5412
  618MOL0     H83428  10.928   0.821   7.239  0.3306 -0.7290  0.8671
  618MOL0     H83429  11.028   0.700   7.154  0.5754  0.5115  2.3202
  618MOL0     H83430  10.939   0.809   7.055 -0.0304 -1.5478 -0.4292
  619MOL0     O83431   7.572   7.654   6.818  0.5646  0.2760  0.0626
  619MOL0     C83432   7.650   7.629   6.909 -0.2757  0.6536 -0.6775
  619MOL0     O83433   7.761   7.540   6.899 -0.6958 -0.4023 -0.2105
  619MOL0     C83434   7.777   7.456   6.791 -0.3717 -0.0176 -0.2976
  619MOL0     C83435   7.747   7.486   6.654  0.5588 -0.0304 -0.2855
  619MOL0     C83436   7.778   7.397   6.549  0.4340 -0.5624  0.5159
  619MOL0     C83437   7.823   7.270   6.579  1.0890  0.6704  1.0076
  619MOL0     O83438   7.821   7.155   6.498 -0.4351  0.6423 -0.1260
  619MOL0     C83439   7.739   7.169   6.378 -0.9086  0.7481 -0.5507
  619MOL0     C83440   7.723   7.033   6.309  0.9543  0.3463  0.3794
  619MOL0     C83441   7.852   7.015   6.228  0.3441 -0.5122  0.1401
  619MOL0     C83442   7.862   6.871   6.187  0.7500 -0.0246  1.1017
  619MOL0     C83443   7.983   6.851   6.101 -0.0277 -0.0351  1.0252
  619MOL0     C83444   7.981   6.707   6.048  0.2652 -0.8438 -0.4108
  619MOL0     C83445   8.091   6.687   5.939  0.1481  0.1262 -0.2909
  619MOL0     C83446   8.230   6.726   5.998  0.1590 -0.3820  1.1367
  619MOL0     N83447   8.288   6.854   5.946  0.0575  0.3334  0.6384
  619MOL0     C83448   8.430   6.871   5.922  0.0429 -0.1409 -0.0276
  619MOL0     C83449   8.440   6.996   5.858 -0.6066 -0.4118  0.2849
  619MOL0     C83450   8.543   7.049   5.773  0.3039  0.4084 -0.0444
  619MOL0     C83451   8.689   7.028   5.832  0.3897 -0.4929  0.5284
  619MOL0     C83452   8.783   7.118   5.742  1.7404  1.1610  0.2856
  619MOL0     C83453   8.773   7.266   5.775 -0.6633  0.2120 -0.5385
  619MOL0     O83454   8.901   7.318   5.756 -0.2803  0.2564  0.3066
  619MOL0     C83455   8.918   7.455   5.746  0.9031 -0.1048  0.0978
  619MOL0     C83456   8.988   7.510   5.633 -0.2119  0.7027 -0.0605
  619MOL0     C83457   8.989   7.643   5.604 -0.1150 -0.5569  0.2355
  619MOL0     C83458   8.920   7.738   5.682  0.4074  0.3129  0.1114
  619MOL0     C83459   8.925   7.889   5.670 -0.1959 -0.0659 -0.6115
  619MOL0     O83460   8.830   7.958   5.739  0.1649 -0.2571  0.1770
  619MOL0     C83461   8.837   8.097   5.730 -0.4091 -0.3271 -0.4928
  619MOL0     C83462   8.772   8.160   5.625 -0.3882  1.2427 -0.2407
  619MOL0     C83463   8.757   8.305   5.634 -0.4708 -0.0452 -1.1105
  619MOL0     C83464   8.839   8.378   5.719  0.1845  0.2868 -0.0219
  619MOL0     O83465   8.862   8.507   5.706  0.2001  0.5074  0.2537
  619MOL0     C83466   8.744   8.574   5.755 -0.1822 -0.0413 -0.5463
  619MOL0     C83467   8.786   8.630   5.889  0.5938  0.2812  0.1594
  619MOL0     C83468   8.680   8.739   5.921  0.1862 -0.3333  0.5520
  619MOL0     C83469   8.668   8.751   6.077 -0.7155 -0.5220  0.5836
  619MOL0     C83470   8.543   8.842   6.093 -0.2367 -0.3802  0.2338
  619MOL0     C83471   8.504   8.857   6.237 -0.6212  0.1616 -0.1950
  619MOL0     C83472   8.589   8.959   6.315  0.3539  0.1985 -0.1120
  619MOL0     C83473   8.537   8.979   6.453  0.5285  0.4754  0.1453
  619MOL0    Cl83474   8.629   9.115   6.525 -0.4350  0.4814  0.1502
  619MOL0     C83475   8.917   8.309   5.811  0.9229  0.0683  0.5113
  619MOL0     C83476   8.914   8.171   5.819 -0.8345 -0.0927  0.7121
  619MOL0     O83477   9.015   7.941   5.604  1.0414  0.1452 -0.2421
  619MOL0     C83478   8.846   7.690   5.794 -0.8774  0.5789  1.0200
  619MOL0     C83479   8.844   7.552   5.823  0.1562  0.5153 -0.5163
  619MOL0     N83480   8.318   7.055   5.867 -0.9310  0.2479 -0.2318
  619MOL0     N83481   8.230   6.968   5.917 -0.7178  0.0079  1.0176
  619MOL0     C83482   7.858   7.241   6.712  0.1325  0.5955  0.3252
  619MOL0     C83483   7.848   7.336   6.813  0.1695 -0.7838 -0.7719
  619MOL0     C83484   7.658   7.716   7.024 -1.5525 -0.1021 -0.1930
  619MOL0     C83485   7.780   7.766   7.066 -0.4902  0.1451 -1.0485
  619MOL0     C83486   7.789   7.858   7.171 -0.4269  0.1881  0.9472
  619MOL0     C83487   7.669   7.907   7.235 -0.6507  0.3777 -0.0808
  619MOL0     O83488   7.672   8.018   7.320 -0.0257  0.7248 -0.8086
  619MOL0     C83489   7.738   7.990   7.444  0.0312 -0.7880 -0.7542
  619MOL0     C83490   7.740   8.109   7.537  1.1510  0.9695 -0.6718
  619MOL0     C83491   7.761   8.257   7.480 -0.8048 -0.2021  0.2932
  619MOL0     C83492   7.889   8.283   7.402 -0.2665 -0.5976 -0.5278
  619MOL0     C83493   8.011   8.293   7.478 -0.4369  0.0747 -0.5781
  619MOL0     C83494   8.117   8.303   7.534 -0.4545 -0.9855  0.5315
  619MOL0     C83495   7.548   7.854   7.204 -0.1606  1.2520  0.1317
  619MOL0     C83496   7.544   7.770   7.091  0.2271  0.8172 -0.2146
  619MOL0     C83497   7.401   7.735   7.037 -0.6610  0.2121  0.2096
  619MOL0     H83498   7.713   7.585   6.626  3.4986  1.2015  0.1796
  619MOL0     H83499   7.748   7.419   6.448  1.9199 -1.4271 -0.1503
  619MOL0     H83500   7.638   7.190   6.415 -0.1630  0.7855  1.5845
  619MOL0     H83501   7.760   7.246   6.303 -2.3731  0.6277 -1.1249
  619MOL0     H83502   7.635   7.038   6.245  0.2811  2.0270  1.3542
  619MOL0     H83503   7.714   6.945   6.373  1.0579  0.9874  1.2981
  619MOL0     H83504   7.945   7.034   6.283  1.4294 -1.3586 -1.3295
  619MOL0     H83505   7.853   7.082   6.142 -1.6445  2.0328  1.9643
  619MOL0     H83506   7.863   6.804   6.273 -3.4090  1.0153  2.1849
  619MOL0     H83507   7.772   6.844   6.131  0.1276 -1.2102  2.5952
  619MOL0     H83508   8.003   6.919   6.017  3.1175 -2.1099 -0.1095
  619MOL0     H83509   8.078   6.866   6.153  1.7755  1.1998 -2.3124
  619MOL0     H83510   7.992   6.639   6.132 -2.5371  1.0548  1.6825
  619MOL0     H83511   7.887   6.686   5.995 -0.8685 -1.0834  1.6222
  619MOL0     H83512   8.073   6.741   5.846 -1.2581  0.3075  0.0555
  619MOL0     H83513   8.085   6.578   5.925 -1.3400 -0.0190  1.1361
  619MOL0     H83514   8.241   6.717   6.106  1.4652 -2.8004  0.8561
  619MOL0     H83515   8.289   6.642   5.961 -2.8690 -1.1218 -2.6745
  619MOL0     H83516   8.507   6.795   5.918 -0.7505 -0.9082 -1.8718
  619MOL0     H83517   8.538   7.003   5.674 -2.7224  3.3550 -1.4481
  619MOL0     H83518   8.516   7.155   5.761  2.4821  0.7731 -2.7660
  619MOL0     H83519   8.691   7.073   5.932  1.3125  1.8716 -0.4804
  619MOL0     H83520   8.724   6.926   5.849  2.5294  0.3083  1.2633
  619MOL0     H83521   8.757   7.101   5.637 -0.7349  1.7366  0.7398
  619MOL0     H83522   8.888   7.095   5.762  1.5697  1.0662  1.0898
  619MOL0     H83523   8.745   7.279   5.880 -0.2920 -3.1606  0.0823
  619MOL0     H83524   8.697   7.306   5.707  0.6823  0.5610 -1.8865
  619MOL0     H83525   9.030   7.435   5.567  0.4579 -1.3245  2.4936
  619MOL0     H83526   9.045   7.688   5.523 -2.6397  0.7313 -0.9167
  619MOL0     H83527   8.716   8.102   5.552 -1.9971  3.6013 -0.9689
  619MOL0     H83528   8.704   8.355   5.553 -4.1859 -1.9055 -0.0815
  619MOL0     H83529   8.735   8.656   5.682 -0.0517  0.0270 -0.4851
  619MOL0     H83530   8.652   8.515   5.760 -0.5505  0.4841 -0.9945
  619MOL0     H83531   8.769   8.548   5.960 -2.5763  1.6943  1.2059
  619MOL0     H83532   8.885   8.675   5.895 -0.2410  3.2587 -3.8778
  619MOL0     H83533   8.710   8.837   5.882 -0.5841  0.1476  1.1535
  619MOL0     H83534   8.584   8.697   5.890 -0.4588  0.1160  1.8687
  619MOL0     H83535   8.764   8.796   6.106 -0.6396  1.2634 -2.0760
  619MOL0     H83536   8.669   8.648   6.115  2.9948 -1.8785 -2.4412
  619MOL0     H83537   8.458   8.790   6.047  1.7337 -3.7841  0.1149
  619MOL0     H83538   8.555   8.942   6.052  0.3422  0.0097  1.3001
  619MOL0     H83539   8.400   8.888   6.256  0.8940  3.7536  3.7712
  619MOL0     H83540   8.518   8.762   6.289  1.0405  0.3280 -0.3162
  619MOL0     H83541   8.595   9.055   6.262  0.3780  0.1166 -0.2586
  619MOL0     H83542   8.689   8.914   6.311 -0.0433 -0.7671 -4.7198
  619MOL0     H83543   8.429   8.997   6.451  0.7289  1.9803 -2.5572
  619MOL0     H83544   8.548   8.895   6.522  2.6399  0.9638  0.4733
  619MOL0     H83545   8.989   8.367   5.867  0.7553  0.4596  0.3217
  619MOL0     H83546   8.973   8.131   5.901 -0.1966 -2.0708 -0.6430
  619MOL0     H83547   8.802   7.762   5.862 -0.7410  1.8759 -0.2264
  619MOL0     H83548   8.790   7.509   5.907  0.2551 -1.2282 -1.3101
  619MOL0     H83549   7.908   7.146   6.727  1.5365  1.4640  1.4702
  619MOL0     H83550   7.881   7.322   6.916  1.5477 -1.5894 -1.3092
  619MOL0     H83551   7.865   7.720   7.018 -0.6279  0.0329 -1.1860
  619MOL0     H83552   7.891   7.885   7.198  0.7099 -3.6166  1.0667
  619MOL0     H83553   7.839   7.960   7.416 -0.4736  0.2427 -4.1096
  619MOL0     H83554   7.687   7.912   7.501 -0.7667  0.5366  0.3997
  619MOL0     H83555   7.820   8.095   7.610  0.7103 -1.3537 -0.5337
  619MOL0     H83556   7.653   8.122   7.602  1.4131 -1.7497  0.3908
  619MOL0     H83557   7.746   8.323   7.565 -1.0452 -1.0840  0.9545
  619MOL0     H83558   7.674   8.284   7.419 -2.3398  0.7749  2.7849
  619MOL0     H83559   7.897   8.209   7.321 -1.3446 -0.5076 -0.7341
  619MOL0     H83560   7.883   8.380   7.353  4.1520 -0.0621 -0.4493
  619MOL0     H83561   8.214   8.330   7.571 -2.6607  3.5974  4.1045
  619MOL0     H83562   7.456   7.901   7.236 -1.6150 -0.7847 -0.8819
  619MOL0     H83563   7.326   7.734   7.117 -2.3110  0.0497 -1.2579
  619MOL0     H83564   7.378   7.810   6.960  0.1619  0.8586  0.5751
  619MOL0     H83565   7.394   7.644   6.977  3.9061  0.2142 -0.6269
  620MOL0     O83566  11.448   2.910  10.010 -0.7462 -0.4634 -0.2913
  620MOL0     C83567  11.418   2.806   9.955 -0.4093  0.1655  0.5459
  620MOL0     O83568  11.314   2.782   9.864 -0.2229 -0.1507  0.1582
  620MOL0     C83569  11.283   2.893   9.793 -0.0029  0.1833  0.4432
  620MOL0     C83570  11.348   2.926   9.672  0.9796 -0.9985  0.5428
  620MOL0     C83571  11.303   3.033   9.600  0.2954 -0.0024  0.0340
  620MOL0     C83572  11.184   3.110   9.629  0.1835  0.5871 -0.1388
  620MOL0     O83573  11.133   3.198   9.538 -0.1723 -0.1773  0.2557
  620MOL0     C83574  11.009   3.272   9.565 -0.1582  0.3618 -0.7253
  620MOL0     C83575  10.950   3.349   9.452 -0.3456  0.4043  0.0871
  620MOL0     C83576  11.048   3.462   9.406  0.3025 -0.7444 -0.8019
  620MOL0     C83577  10.972   3.587   9.362  0.1075 -0.1545 -0.0510
  620MOL0     C83578  11.070   3.689   9.301 -0.3863 -0.4947  0.7173
  620MOL0     C83579  10.995   3.801   9.245 -0.0597  0.4123 -0.1552
  620MOL0     C83580  11.083   3.882   9.155 -0.5741 -0.2203 -0.4898
  620MOL0     C83581  11.020   4.019   9.157  0.4933 -1.0780 -0.7021
  620MOL0     N83582  10.889   4.031   9.084  0.7388 -0.4774  0.3582
  620MOL0     C83583  10.863   4.057   8.949 -0.9699  0.8170 -0.7251
  620MOL0     C83584  10.728   4.060   8.935  0.9581 -0.2505  0.7247
  620MOL0     C83585  10.640   4.104   8.810 -0.1468 -0.6647  0.2685
  620MOL0     C83586  10.555   3.988   8.753  0.3048 -0.3531  0.2123
  620MOL0     C83587  10.483   4.027   8.623 -0.8470  0.3144  0.4961
  620MOL0     C83588  10.387   4.140   8.632 -0.8146 -0.3334  0.2055
  620MOL0     O83589  10.276   4.124   8.540  0.8370  0.1857 -0.2840
  620MOL0     C83590  10.292   4.157   8.413 -0.0750 -0.0371  0.9566
  620MOL0     C83591  10.180   4.140   8.338  0.2763  0.7653 -0.9777
  620MOL0     C83592  10.178   4.145   8.201 -0.1673  0.7288 -0.0537
  620MOL0     C83593  10.298   4.191   8.136 -1.0381 -0.0127  0.5899
  620MOL0     C83594  10.310   4.205   7.989  0.8829 -0.4704  0.3338
  620MOL0     O83595  10.191   4.181   7.924  0.5270  0.3244  0.1857
  620MOL0     C83596  10.173   4.161   7.790 -0.2478  0.7328 -0.4657
  620MOL0     C83597  10.042   4.188   7.739 -0.9152  0.8663  0.0662
  620MOL0     C83598  10.025   4.193   7.599  1.0755 -0.4495 -0.3490
  620MOL0     C83599  10.128   4.141   7.519  0.6284 -0.5309 -0.4128
  620MOL0     O83600  10.129   4.154   7.383  1.0410 -0.7738  0.0390
  620MOL0     C83601  10.011   4.157   7.300 -0.0648  1.1219  0.0596
  620MOL0     C83602  10.064   4.196   7.160 -0.4603  0.4354  0.5386
  620MOL0     C83603  10.167   4.088   7.108  0.6225 -0.4523 -0.0348
  620MOL0     C83604  10.308   4.140   7.118  0.8169  0.3969  0.2083
  620MOL0     C83605  10.399   4.009   7.107  0.0222 -0.9711 -0.0133
  620MOL0     C83606  10.409   3.929   6.975  0.8003 -0.3724 -0.0595
  620MOL0     C83607  10.502   3.811   6.982  0.3333  0.6179 -0.0925
  620MOL0     C83608  10.524   3.728   6.862  0.4593 -0.2164 -0.0882
  620MOL0    Cl83609  10.654   3.800   6.760  0.0615  0.1716 -0.0487
  620MOL0     C83610  10.246   4.092   7.575  0.2285 -0.4612 -0.4792
  620MOL0     C83611  10.274   4.118   7.704 -0.1628 -0.1078  0.0140
  620MOL0     O83612  10.414   4.235   7.933  0.1311 -0.0535 -0.5661
  620MOL0     C83613  10.410   4.226   8.207  0.6421 -0.1307  0.7123
  620MOL0     C83614  10.404   4.222   8.351  0.2766  0.1880 -0.2915
  620MOL0     N83615  10.664   4.032   9.053 -0.2220 -0.7784 -0.5564
  620MOL0     N83616  10.757   4.018   9.138 -0.5071  0.7221 -0.0732
  620MOL0     C83617  11.130   3.092   9.755  0.4124  0.2562 -0.2680
  620MOL0     C83618  11.168   2.977   9.825  0.4615  0.0171 -0.7044
  620MOL0     C83619  11.500   2.703   9.993  0.1452  0.3038 -0.5446
  620MOL0     C83620  11.441   2.594  10.060 -0.1900 -0.0271 -0.2359
  620MOL0     C83621  11.517   2.473  10.081 -0.2016 -0.7655 -0.3804
  620MOL0     C83622  11.656   2.469  10.056  0.9395 -0.5346 -0.1085
  620MOL0     O83623  11.744   2.360  10.065  0.5002  0.0663 -0.1119
  620MOL0     C83624  11.714   2.264  10.171 -0.1661 -0.1008  0.0875
  620MOL0     C83625  11.673   2.135  10.094  0.1143  0.4051 -0.2123
  620MOL0     C83626  11.713   1.997  10.157  0.2832 -0.3463 -0.2235
  620MOL0     C83627  11.650   1.877  10.086  0.4493 -0.1633 -0.7260
  620MOL0     C83628  11.666   1.751  10.168  0.2910 -0.2111 -0.2577
  620MOL0     C83629  11.677   1.643  10.221 -0.2780  0.1611  0.2447
  620MOL0     C83630  11.711   2.586  10.003  0.4290  0.6559  0.2178
  620MOL0     C83631  11.639   2.695   9.980  0.4447  0.1138 -0.4691
  620MOL0     C83632  11.720   2.820   9.923 -0.0395  0.0429  0.2888
  620MOL0     H83633  11.432   2.870   9.632  0.2285  0.2360 -3.0914
  620MOL0     H83634  11.358   3.066   9.512 -0.4985  1.3444  0.0252
  620MOL0     H83635  10.931   3.199   9.586  0.8995 -0.4572  0.5288
  620MOL0     H83636  11.020   3.338   9.652 -3.4060 -2.4841  2.1480
  620MOL0     H83637  10.853   3.394   9.477 -0.0830  1.5030 -0.8307
  620MOL0     H83638  10.945   3.281   9.366  0.9241  0.3258  0.0689
  620MOL0     H83639  11.115   3.436   9.324  0.9358  1.8111 -1.2003
  620MOL0     H83640  11.107   3.492   9.493 -3.3513  2.4053  0.9283
  620MOL0     H83641  10.899   3.552   9.289  0.8432  1.0868 -1.4469
  620MOL0     H83642  10.918   3.627   9.448 -4.1964 -1.2028 -2.0053
  620MOL0     H83643  11.139   3.725   9.378 -0.8523  0.2980  0.7739
  620MOL0     H83644  11.110   3.638   9.212 -0.8690 -1.6297  1.1333
  620MOL0     H83645  10.916   3.761   9.182 -3.5796  2.8710  2.3252
  620MOL0     H83646  10.953   3.853   9.332 -2.7872 -1.0748 -0.4695
  620MOL0     H83647  11.081   3.826   9.061  2.8997 -2.4390  0.5887
  620MOL0     H83648  11.185   3.880   9.194 -0.7641  0.7509  0.1023
  620MOL0     H83649  11.003   4.050   9.261 -1.0360 -0.0940 -1.2049
  620MOL0     H83650  11.083   4.102   9.123 -2.3719  0.9417 -1.5094
  620MOL0     H83651  10.934   4.073   8.868  0.0860 -3.1493 -0.7676
  620MOL0     H83652  10.580   4.189   8.844 -2.1230 -0.0452 -4.1494
  620MOL0     H83653  10.699   4.144   8.727 -0.3028  1.2952  1.0631
  620MOL0     H83654  10.621   3.900   8.742  2.5672  1.3733 -0.9773
  620MOL0     H83655  10.471   3.965   8.820 -0.5283 -0.6345 -0.9073
  620MOL0     H83656  10.437   3.935   8.588  1.7938 -1.9409  2.4410
  620MOL0     H83657  10.550   4.048   8.539 -3.0965  0.1120 -1.4269
  620MOL0     H83658  10.448   4.227   8.607 -0.3258 -1.3681 -2.5840
  620MOL0     H83659  10.346   4.154   8.733 -0.8349 -0.3079  0.1940
  620MOL0     H83660  10.107   4.081   8.393  1.8199 -1.3107 -1.0432
  620MOL0     H83661  10.093   4.111   8.142 -1.8908  1.7077  1.7164
  620MOL0     H83662   9.957   4.208   7.803 -0.2051  0.8844  1.0379
  620MOL0     H83663   9.936   4.235   7.553  1.2959  2.2054  1.4278
  620MOL0     H83664   9.957   4.063   7.296  1.8500  0.0023 -1.5727
  620MOL0     H83665   9.934   4.229   7.330 -0.4368  0.1172  1.5639
  620MOL0     H83666   9.972   4.196   7.100 -2.9137 -2.6593  3.8066
  620MOL0     H83667  10.115   4.292   7.153 -3.0960  1.8008 -1.4462
  620MOL0     H83668  10.153   3.994   7.161 -0.5609  1.0331  2.4319
  620MOL0     H83669  10.137   4.085   7.002 -2.2100  1.8818  0.5644
  620MOL0     H83670  10.333   4.189   7.213 -0.7209  1.5838  0.0340
  620MOL0     H83671  10.332   4.206   7.034 -1.5472 -1.2411 -1.9059
  620MOL0     H83672  10.355   3.943   7.181 -0.5148  0.0412  0.5964
  620MOL0     H83673  10.500   4.048   7.124  0.0607 -0.7356 -0.7257
  620MOL0     H83674  10.314   3.913   6.924  1.6401  2.6807 -2.9288
  620MOL0     H83675  10.467   3.991   6.905  1.3692  0.4787  1.1210
  620MOL0     H83676  10.446   3.759   7.061  1.3752  1.1285  1.0165
  620MOL0     H83677  10.600   3.833   7.026  1.8709 -2.3133 -1.7513
  620MOL0     H83678  10.565   3.633   6.897 -0.0697 -1.2725 -2.1763
  620MOL0     H83679  10.435   3.699   6.805  1.7474 -0.8528 -1.8702
  620MOL0     H83680  10.332   4.059   7.518 -0.6103  1.2767 -2.9208
  620MOL0     H83681  10.370   4.085   7.743 -0.4248 -2.4374 -1.1589
  620MOL0     H83682  10.503   4.251   8.156  0.4140  0.5353  0.6126
  620MOL0     H83683  10.503   4.235   8.394  0.9219 -3.0163 -0.5909
  620MOL0     H83684  11.054   3.157   9.798 -0.5816 -0.4104 -0.9734
  620MOL0     H83685  11.109   2.946   9.911  0.5204  0.5857 -0.4561
  620MOL0     H83686  11.336   2.592  10.090  0.9778 -1.9666  4.6923
  620MOL0     H83687  11.464   2.388  10.121 -3.6185  0.7616 -1.2840
  620MOL0     H83688  11.629   2.297  10.232  0.3120  0.5370  0.4147
  620MOL0     H83689  11.803   2.237  10.228 -0.2410  1.0362  0.7582
  620MOL0     H83690  11.724   2.127   9.998  1.4699 -1.2656  0.5850
  620MOL0     H83691  11.567   2.134  10.070 -0.6746 -1.5887  2.7603
  620MOL0     H83692  11.671   1.995  10.259 -0.3935  0.9822 -0.4505
  620MOL0     H83693  11.820   1.976  10.168  0.3483  1.2117  4.3377
  620MOL0     H83694  11.541   1.882  10.078  0.2681 -1.5019  0.5149
  620MOL0     H83695  11.693   1.864   9.986  0.0068 -3.0901 -0.6132
  620MOL0     H83696  11.694   1.545  10.259 -2.9842 -0.3375  0.4079
  620MOL0     H83697  11.813   2.584   9.965  0.7266  5.9126 -0.0619
  620MOL0     H83698  11.729   2.800   9.816 -0.3926 -0.9185  0.4286
  620MOL0     H83699  11.669   2.917   9.925  0.0962  0.3349 -3.5048
  620MOL0     H83700  11.820   2.822   9.966  1.3486  1.2477 -2.7079
  621MOL0     O83701   2.536   3.753   8.824  0.0865 -0.1120 -0.1390
  621MOL0     C83702   2.577   3.770   8.710  0.0015 -0.4705  0.1913
  621MOL0     O83703   2.584   3.674   8.613  0.3812 -0.8267 -0.1792
  621MOL0     C83704   2.516   3.559   8.637  0.5110 -0.2617 -1.0403
  621MOL0     C83705   2.402   3.533   8.567 -0.2212  0.3304 -0.7636
  621MOL0     C83706   2.323   3.414   8.587 -0.1236 -0.0796 -0.3903
  621MOL0     C83707   2.369   3.322   8.677  0.3325  0.7197  0.1260
  621MOL0     O83708   2.302   3.199   8.672  0.1188 -0.4966 -0.1061
  621MOL0     C83709   2.385   3.085   8.677 -0.0965 -0.4340  0.0651
  621MOL0     C83710   2.294   2.962   8.685 -0.6487  0.3513 -0.2997
  621MOL0     C83711   2.375   2.830   8.726 -0.5731 -0.4507  0.0212
  621MOL0     C83712   2.462   2.773   8.606 -0.4212  0.0034 -0.0228
  621MOL0     C83713   2.543   2.647   8.641 -0.5072  0.2671 -0.4443
  621MOL0     C83714   2.573   2.546   8.540  0.6541 -0.1470 -0.4787
  621MOL0     C83715   2.711   2.476   8.575 -0.0842  0.1024 -0.5263
  621MOL0     C83716   2.716   2.359   8.484  1.2129 -0.3153  0.5614
  621MOL0     N83717   2.842   2.297   8.451 -0.4663  0.4627  0.6375
  621MOL0     C83718   2.960   2.359   8.417 -0.0900  0.8403  0.2276
  621MOL0     C83719   3.057   2.260   8.401  0.4704  0.4148  1.0856
  621MOL0     C83720   3.202   2.281   8.397 -0.4185  0.1842  0.0565
  621MOL0     C83721   3.281   2.179   8.313  0.0675 -0.0894 -0.3153
  621MOL0     C83722   3.428   2.185   8.351  0.0835  0.4080 -0.1807
  621MOL0     C83723   3.518   2.105   8.244  0.0791  0.0611 -0.8097
  621MOL0     O83724   3.534   2.192   8.129 -1.3465  0.4154  0.3984
  621MOL0     C83725   3.624   2.173   8.025  0.4364  0.2035  0.5119
  621MOL0     C83726   3.719   2.069   8.010 -0.5808 -0.0157  0.2330
  621MOL0     C83727   3.781   2.036   7.888  0.0342 -0.3163  0.1163
  621MOL0     C83728   3.756   2.130   7.778 -0.3965 -0.2908  0.2354
  621MOL0     C83729   3.799   2.097   7.635  0.4953 -0.4299 -0.5956
  621MOL0     O83730   3.822   1.970   7.609  0.4282 -0.1596  0.1575
  621MOL0     C83731   3.826   1.920   7.480  0.2257  0.4084 -0.0277
  621MOL0     C83732   3.729   1.958   7.382  0.5229 -0.8430  0.4703
  621MOL0     C83733   3.732   1.907   7.250 -0.7189  0.5826  0.3273
  621MOL0     C83734   3.842   1.813   7.225  0.0311 -0.0534  1.6416
  621MOL0     O83735   3.848   1.757   7.100 -0.4914  0.7578  0.3755
  621MOL0     C83736   3.837   1.609   7.112  0.8482 -0.0977 -0.2954
  621MOL0     C83737   3.798   1.548   6.977 -0.7315  0.1498 -0.0100
  621MOL0     C83738   3.816   1.393   6.982 -0.3458 -0.2014  1.4765
  621MOL0     C83739   3.962   1.352   6.991 -1.0609  0.1354 -0.5389
  621MOL0     C83740   3.972   1.200   6.962  0.0281  0.3331 -0.5857
  621MOL0     C83741   3.941   1.159   6.811 -0.4642  0.3252 -0.0257
  621MOL0     C83742   3.933   1.002   6.811  0.1019 -0.1711 -0.9609
  621MOL0     C83743   3.936   0.969   6.667  0.3588 -0.0328 -0.1395
  621MOL0    Cl83744   4.090   0.996   6.583 -0.0833  0.0473 -0.3213
  621MOL0     C83745   3.930   1.776   7.322 -0.0268 -0.2346 -0.5335
  621MOL0     C83746   3.924   1.833   7.449 -0.0404  0.4864  0.4743
  621MOL0     O83747   3.806   2.190   7.553 -0.3720  0.6956 -0.5942
  621MOL0     C83748   3.673   2.246   7.800 -0.7213  0.4766  0.5031
  621MOL0     C83749   3.616   2.266   7.924  1.1874  0.1972 -0.6261
  621MOL0     N83750   2.994   2.135   8.437 -0.5047 -0.5782 -0.4605
  621MOL0     N83751   2.871   2.163   8.464  0.6495  0.0353  0.2282
  621MOL0     C83752   2.486   3.349   8.754  0.7325  0.9658  0.4143
  621MOL0     C83753   2.560   3.462   8.737 -0.6006 -0.4142  0.0045
  621MOL0     C83754   2.649   3.897   8.668 -0.6764 -0.1817 -0.5925
  621MOL0     C83755   2.684   3.922   8.529 -0.1912  0.3242  0.1834
  621MOL0     C83756   2.753   4.039   8.486 -0.0194 -0.7703 -0.1620
  621MOL0     C83757   2.783   4.144   8.573 -0.5372  0.8272 -0.0657
  621MOL0     O83758   2.837   4.261   8.528 -0.7359  1.2650 -1.6840
  621MOL0     C83759   2.750   4.323   8.431 -0.1089  0.2569  1.3628
  621MOL0     C83760   2.643   4.411   8.481  0.7014 -0.8068 -0.0524
  621MOL0     C83761   2.619   4.424   8.624 -0.4640  0.9359 -0.1312
  621MOL0     C83762   2.512   4.522   8.667  0.2916 -0.0767 -0.6069
  621MOL0     C83763   2.503   4.519   8.814  0.6848 -0.3370  0.0668
  621MOL0     C83764   2.494   4.510   8.933  0.0208 -1.2817 -0.3079
  621MOL0     C83765   2.741   4.116   8.701 -0.1094 -0.6140  0.4803
  621MOL0     C83766   2.678   4.002   8.753  0.4231 -0.2997 -1.0688
  621MOL0     C83767   2.658   3.992   8.908 -0.7788  0.6529  0.4111
  621MOL0     H83768   2.364   3.608   8.498 -0.0552  1.4397  0.3200
  621MOL0     H83769   2.233   3.393   8.530 -3.7302  4.0647  3.1041
  621MOL0     H83770   2.447   3.082   8.587 -2.4833  0.5157 -1.7529
  621MOL0     H83771   2.446   3.095   8.767  0.7305 -5.1194  0.2584
  621MOL0     H83772   2.242   2.945   8.590 -0.7558  0.1030 -0.1970
  621MOL0     H83773   2.220   2.989   8.760  0.6593  3.8475 -0.0750
  621MOL0     H83774   2.309   2.757   8.774 -0.1268  0.1295  1.5719
  621MOL0     H83775   2.451   2.854   8.801  0.8965 -0.2755 -1.4648
  621MOL0     H83776   2.393   2.748   8.525  0.7038  1.9209 -1.6600
  621MOL0     H83777   2.540   2.840   8.570 -1.8333  1.6958 -0.0518
  621MOL0     H83778   2.636   2.681   8.686 -1.7302  2.2947  0.6952
  621MOL0     H83779   2.495   2.589   8.720  0.1500 -0.6300 -0.6994
  621MOL0     H83780   2.496   2.469   8.544 -0.8335  1.3260  0.5350
  621MOL0     H83781   2.573   2.588   8.439  2.5111  0.9999 -0.0645
  621MOL0     H83782   2.715   2.445   8.680 -2.3965  0.0943 -0.3766
  621MOL0     H83783   2.799   2.530   8.542  0.2554 -1.4145 -2.3114
  621MOL0     H83784   2.661   2.280   8.536  0.5143 -1.0190 -1.1611
  621MOL0     H83785   2.665   2.380   8.390  0.6836 -0.9688  0.6998
  621MOL0     H83786   2.991   2.463   8.417 -2.8642  1.8912  3.6071
  621MOL0     H83787   3.224   2.380   8.355 -0.4839  0.2462  0.1672
  621MOL0     H83788   3.245   2.286   8.498  0.4527  1.8588 -0.3688
  621MOL0     H83789   3.240   2.080   8.336  0.1932  0.2494  1.5034
  621MOL0     H83790   3.271   2.197   8.206  0.3132 -0.8610 -0.4731
  621MOL0     H83791   3.439   2.143   8.452  0.8346 -0.4640 -0.6129
  621MOL0     H83792   3.468   2.286   8.364 -3.0209  1.5363  1.6139
  621MOL0     H83793   3.466   2.017   8.207 -0.7278  1.4834 -3.3190
  621MOL0     H83794   3.616   2.080   8.285  0.4167  1.6680 -0.5372
  621MOL0     H83795   3.754   2.004   8.090 -0.7705 -0.6483 -0.1939
  621MOL0     H83796   3.844   1.949   7.886  2.6305  1.4170  1.3339
  621MOL0     H83797   3.644   2.024   7.398  1.7067  0.6838  0.6946
  621MOL0     H83798   3.654   1.920   7.176  0.0593  0.7816 -0.4850
  621MOL0     H83799   3.934   1.565   7.138  1.4843  1.1333 -0.5371
  621MOL0     H83800   3.763   1.578   7.186 -0.4947  1.2697 -1.0292
  621MOL0     H83801   3.695   1.574   6.952 -0.6005  1.4600  0.7403
  621MOL0     H83802   3.870   1.600   6.913  1.4965 -2.2797  0.3913
  621MOL0     H83803   3.759   1.356   7.068 -2.9679 -1.2678 -0.6007
  621MOL0     H83804   3.770   1.352   6.892  5.2663  1.4214 -2.7307
  621MOL0     H83805   4.008   1.375   7.088  1.0097 -5.2752  0.0622
  621MOL0     H83806   4.005   1.416   6.914 -1.5587  3.0958  1.4486
  621MOL0     H83807   3.913   1.138   7.029  0.8995  0.3273  0.2023
  621MOL0     H83808   4.077   1.180   6.986 -0.7941  0.5926  4.1458
  621MOL0     H83809   3.849   1.205   6.775  0.5597 -0.0378 -3.4956
  621MOL0     H83810   4.021   1.198   6.748 -2.8863  0.9471 -2.9392
  621MOL0     H83811   3.835   0.984   6.857 -0.3440  0.3864 -1.6862
  621MOL0     H83812   4.010   0.949   6.870 -0.7214  0.8013  1.0839
  621MOL0     H83813   3.920   0.863   6.645 -0.9027  0.2466 -0.6432
  621MOL0     H83814   3.862   1.027   6.611  1.9417  1.0265 -1.2142
  621MOL0     H83815   4.000   1.696   7.301  0.3053 -0.3651  0.9325
  621MOL0     H83816   3.982   1.795   7.533 -2.1420 -1.5710  1.1099
  621MOL0     H83817   3.654   2.316   7.720  0.8161 -1.4811 -1.7137
  621MOL0     H83818   3.547   2.345   7.950 -1.5551 -2.6756  1.7035
  621MOL0     H83819   2.520   3.276   8.827  1.4904  2.2677  1.3918
  621MOL0     H83820   2.653   3.481   8.790  0.1948 -1.1362 -1.0903
  621MOL0     H83821   2.659   3.845   8.456  0.3999 -3.1452  3.3034
  621MOL0     H83822   2.778   4.044   8.380  0.4386 -0.0089 -0.0235
  621MOL0     H83823   2.725   4.259   8.346  2.1097  0.8118  0.2192
  621MOL0     H83824   2.821   4.391   8.382  0.7819 -1.7888 -0.3360
  621MOL0     H83825   2.555   4.388   8.420  2.2507 -0.0576 -2.7464
  621MOL0     H83826   2.676   4.511   8.449  0.7680 -1.2291 -1.3492
  621MOL0     H83827   2.709   4.466   8.670 -0.4539  1.2584 -0.4410
  621MOL0     H83828   2.593   4.327   8.668 -3.0995  0.3411 -2.7386
  621MOL0     H83829   2.541   4.621   8.630 -1.0406 -0.2245 -2.1702
  621MOL0     H83830   2.413   4.489   8.631  0.0902 -0.0428 -0.0949
  621MOL0     H83831   2.483   4.496   9.039 -0.2737 -0.6875 -0.2587
  621MOL0     H83832   2.770   4.204   8.757 -0.6872  2.3547 -3.4328
  621MOL0     H83833   2.551   3.975   8.920 -0.9045 -3.5692 -3.7236
  621MOL0     H83834   2.717   3.908   8.946  3.0428  2.8027 -0.2175
  621MOL0     H83835   2.697   4.088   8.942  2.9660  0.2056 -1.9527
  622MOL0     O83836   5.303   7.660   7.004 -0.0284  0.4278 -0.4243
  622MOL0     C83837   5.260   7.709   7.112  0.4248  0.1211  0.2207
  622MOL0     O83838   5.141   7.774   7.138  0.6586  0.4412  0.0558
  622MOL0     C83839   5.063   7.822   7.037  0.3552  1.0728  1.2771
  622MOL0     C83840   4.944   7.762   6.998 -0.2372 -0.2638  0.4545
  622MOL0     C83841   4.870   7.814   6.892  0.2141 -0.6368 -0.0873
  622MOL0     C83842   4.901   7.938   6.830 -0.4008 -0.3812 -0.3952
  622MOL0     O83843   4.823   7.992   6.737  0.0592  1.0776 -0.0001
  622MOL0     C83844   4.806   7.916   6.615  0.4302 -0.6867  0.3004
  622MOL0     C83845   4.882   7.974   6.499  0.4225 -0.6655  0.4829
  622MOL0     C83846   4.855   8.126   6.481  0.0379 -0.9319  0.0754
  622MOL0     C83847   4.969   8.213   6.551  0.4622  0.0821 -0.2033
  622MOL0     C83848   4.938   8.358   6.522  0.1646 -0.6284  1.1646
  622MOL0     C83849   5.053   8.448   6.575 -0.5459 -0.3553  0.8879
  622MOL0     C83850   5.178   8.447   6.486  0.4422  0.6178  0.4240
  622MOL0     C83851   5.266   8.571   6.513 -0.1141  0.6921  0.4785
  622MOL0     N83852   5.271   8.620   6.648  0.4087 -0.0518 -0.7431
  622MOL0     C83853   5.298   8.757   6.678  0.4306  1.3390 -0.2267
  622MOL0     C83854   5.327   8.758   6.809 -0.9766  0.1461  1.0634
  622MOL0     C83855   5.350   8.875   6.892  0.3250 -0.5634  0.2055
  622MOL0     C83856   5.487   8.870   6.959 -0.7125  0.7140 -1.0008
  622MOL0     C83857   5.506   9.005   7.042 -0.1862  0.0842 -0.4362
  622MOL0     C83858   5.653   9.004   7.085 -0.4163 -0.1893 -0.2328
  622MOL0     O83859   5.708   8.896   7.173  0.1941  0.4084 -0.8835
  622MOL0     C83860   5.679   8.905   7.307 -0.6396  0.4515  0.4078
  622MOL0     C83861   5.594   8.999   7.374  0.4284  0.2910 -0.3424
  622MOL0     C83862   5.580   8.991   7.515 -0.2154 -0.8789  1.0535
  622MOL0     C83863   5.653   8.895   7.591 -0.5778  0.4353 -0.4805
  622MOL0     C83864   5.652   8.900   7.734 -1.2786 -1.0254 -0.2864
  622MOL0     O83865   5.588   9.003   7.795 -0.8340  0.6469  0.4593
  622MOL0     C83866   5.524   8.988   7.918  0.5319 -0.1209 -0.3144
  622MOL0     C83867   5.513   8.866   7.994  0.0191 -0.1432 -0.6300
  622MOL0     C83868   5.454   8.864   8.119  0.2540 -0.5872 -1.3854
  622MOL0     C83869   5.385   8.975   8.168  0.5627 -0.6618  0.5794
  622MOL0     O83870   5.298   8.962   8.273 -0.4957  0.4576  0.1609
  622MOL0     C83871   5.341   9.024   8.396  0.4748  0.3230  0.3839
  622MOL0     C83872   5.290   8.967   8.534 -0.5826  0.8430 -0.3564
  622MOL0     C83873   5.333   9.048   8.652 -0.1023 -0.0620 -0.0644
  622MOL0     C83874   5.268   9.013   8.777  0.5288  0.2707 -1.2823
  622MOL0     C83875   5.342   9.057   8.899  0.2281  0.0129  0.1243
  622MOL0     C83876   5.322   9.206   8.919  0.0070 -0.3530 -0.7278
  622MOL0     C83877   5.394   9.244   9.052 -0.2684  0.0445  0.4295
  622MOL0     C83878   5.328   9.176   9.170 -0.0778 -0.2144 -0.0932
  622MOL0    Cl83879   5.394   9.226   9.329 -0.8136  0.1537  0.4671
  622MOL0     C83880   5.391   9.092   8.093  0.0506  0.5248  0.5493
  622MOL0     C83881   5.468   9.108   7.976 -0.1629  0.5661  0.6603
  622MOL0     O83882   5.703   8.802   7.785 -0.1236  0.2964  0.1125
  622MOL0     C83883   5.726   8.802   7.522  0.3303 -0.0552  0.3366
  622MOL0     C83884   5.736   8.811   7.381 -0.4608  0.9143 -0.0125
  622MOL0     N83885   5.320   8.619   6.848  0.1806 -0.1961 -0.1035
  622MOL0     N83886   5.275   8.543   6.759 -0.3057 -0.9109  0.0280
  622MOL0     C83887   5.022   8.000   6.870  0.5213  0.3460  0.4520
  622MOL0     C83888   5.098   7.940   6.970  0.5591 -0.0403 -0.0425
  622MOL0     C83889   5.334   7.697   7.238  0.3855 -0.0651 -0.8389
  622MOL0     C83890   5.265   7.682   7.361  0.4355 -1.3203  0.5962
  622MOL0     C83891   5.326   7.653   7.476  0.5330  0.0596  0.7702
  622MOL0     C83892   5.466   7.633   7.484  0.1188  0.4215  0.1934
  622MOL0     O83893   5.527   7.585   7.601  0.3795  0.4981  0.5787
  622MOL0     C83894   5.522   7.686   7.702  0.4814  0.2298  0.4225
  622MOL0     C83895   5.465   7.638   7.832  0.5772 -0.1209 -1.2013
  622MOL0     C83896   5.549   7.528   7.908 -0.0131  0.2630 -0.3177
  622MOL0     C83897   5.581   7.576   8.054 -0.5383  0.3527  0.1186
  622MOL0     C83898   5.694   7.520   8.117 -1.0170  0.4145 -0.2882
  622MOL0     C83899   5.794   7.463   8.153  0.5906 -0.0627 -0.0653
  622MOL0     C83900   5.537   7.642   7.369 -0.8074 -0.2536  0.1677
  622MOL0     C83901   5.474   7.678   7.248 -0.6452 -0.3634  0.1789
  622MOL0     C83902   5.577   7.686   7.128  0.4113 -0.8362  0.2995
  622MOL0     H83903   4.907   7.677   7.055 -2.1301  1.6830  2.3377
  622MOL0     H83904   4.773   7.768   6.878 -1.1362  2.0556 -0.1999
  622MOL0     H83905   4.829   7.810   6.632 -2.4842 -1.3557  0.6592
  622MOL0     H83906   4.702   7.911   6.581  0.0389 -1.0721  1.5089
  622MOL0     H83907   4.853   7.910   6.415 -2.7438 -1.7343  2.2137
  622MOL0     H83908   4.988   7.964   6.523  0.2155 -1.9307  0.9553
  622MOL0     H83909   4.758   8.150   6.526 -1.1844 -1.3855 -2.1796
  622MOL0     H83910   4.846   8.144   6.373  1.9331 -2.7535 -0.4357
  622MOL0     H83911   4.973   8.202   6.660 -2.4189  1.2311  0.0906
  622MOL0     H83912   5.067   8.176   6.517 -0.0629 -0.6223 -0.9829
  622MOL0     H83913   4.946   8.369   6.413  2.1649  0.7088  1.4059
  622MOL0     H83914   4.839   8.383   6.561 -0.0288  3.0582 -1.2024
  622MOL0     H83915   5.018   8.551   6.591 -0.9883 -0.2406 -0.6474
  622MOL0     H83916   5.082   8.412   6.674 -1.5522 -1.2392  0.8666
  622MOL0     H83917   5.155   8.443   6.379 -0.7671  0.4903  0.6673
  622MOL0     H83918   5.232   8.355   6.508  0.9092  0.6389 -0.5834
  622MOL0     H83919   5.368   8.552   6.477  0.2645  1.5801  1.0290
  622MOL0     H83920   5.218   8.653   6.458 -3.3704 -1.7666 -0.6120
  622MOL0     H83921   5.286   8.842   6.611 -0.0038  1.1339 -0.4138
  622MOL0     H83922   5.349   8.968   6.834  1.7744 -0.9480 -0.4848
  622MOL0     H83923   5.270   8.874   6.966  0.3154  3.4636  0.4560
  622MOL0     H83924   5.478   8.780   7.021 -1.0658 -0.7264 -3.0237
  622MOL0     H83925   5.573   8.845   6.897  0.8913  1.6082  0.7498
  622MOL0     H83926   5.439   9.000   7.129 -0.8289 -0.0290 -0.9350
  622MOL0     H83927   5.489   9.098   6.988  3.3391 -0.3181 -2.5796
  622MOL0     H83928   5.668   9.104   7.127  2.2601 -0.3169 -0.6892
  622MOL0     H83929   5.716   9.001   6.996  0.2285 -0.2671  0.2144
  622MOL0     H83930   5.534   9.076   7.328  0.1365  1.9829  2.5709
  622MOL0     H83931   5.522   9.065   7.568  0.9741  0.2619  0.8231
  622MOL0     H83932   5.560   8.771   7.970 -0.4282 -1.6023  3.5466
  622MOL0     H83933   5.450   8.770   8.174 -2.7024 -0.4401 -1.1974
  622MOL0     H83934   5.447   9.001   8.413  0.3485  0.0687  0.8608
  622MOL0     H83935   5.332   9.132   8.401 -0.8247  0.1802  1.9321
  622MOL0     H83936   5.183   8.979   8.511 -0.3620  0.3733 -1.6904
  622MOL0     H83937   5.324   8.865   8.554  1.8015  1.8978  1.4407
  622MOL0     H83938   5.441   9.044   8.662 -0.1842 -4.8038  1.5553
  622MOL0     H83939   5.311   9.152   8.627  1.2095  0.1061 -0.5705
  622MOL0     H83940   5.286   8.905   8.781  2.0886  0.5290 -0.6500
  622MOL0     H83941   5.161   9.037   8.778  0.5758  0.6816 -3.0701
  622MOL0     H83942   5.447   9.028   8.899 -0.1549 -1.4524 -0.1221
  622MOL0     H83943   5.293   9.001   8.980  3.5911  1.4329  3.4375
  622MOL0     H83944   5.341   9.260   8.825  0.0751  1.4199  0.2663
  622MOL0     H83945   5.217   9.231   8.935  0.1412 -0.0302 -0.3574
  622MOL0     H83946   5.369   9.350   9.063  1.1724  1.1990 -4.6830
  622MOL0     H83947   5.503   9.242   9.045 -0.0849  2.6917  1.2646
  622MOL0     H83948   5.221   9.196   9.167 -0.8087 -3.5358 -3.2897
  622MOL0     H83949   5.339   9.068   9.159  3.3366  0.2032 -2.4781
  622MOL0     H83950   5.326   9.172   8.126 -0.1017  2.4412 -3.7179
  622MOL0     H83951   5.487   9.208   7.940 -0.3510  2.7369  5.7174
  622MOL0     H83952   5.777   8.715   7.561  1.4363 -2.5960 -5.6339
  622MOL0     H83953   5.783   8.720   7.345 -1.7896  0.3605 -0.4174
  622MOL0     H83954   5.062   8.097   6.842 -1.8223  1.5929  1.0883
  622MOL0     H83955   5.182   8.001   7.002 -1.6242  1.8804  2.5122
  622MOL0     H83956   5.156   7.684   7.368  0.4118 -4.2468  3.1415
  622MOL0     H83957   5.266   7.644   7.567 -2.2240 -0.0981 -0.9584
  622MOL0     H83958   5.458   7.766   7.664 -1.2415 -1.5326 -0.5202
  622MOL0     H83959   5.622   7.723   7.727 -0.3636  3.4360 -0.4525
  622MOL0     H83960   5.365   7.598   7.819  0.2798  0.2947 -0.2609
  622MOL0     H83961   5.458   7.733   7.886 -0.0341 -1.3517  1.0128
  622MOL0     H83962   5.631   7.506   7.840 -0.3786 -2.2944 -0.0508
  622MOL0     H83963   5.482   7.441   7.910 -0.8528  0.8940 -0.4031
  622MOL0     H83964   5.577   7.686   8.055  0.4683  0.4389 -1.7897
  622MOL0     H83965   5.499   7.535   8.112 -1.4004  0.8284 -0.7452
  622MOL0     H83966   5.877   7.417   8.201  1.8923 -1.4064 -3.3194
  622MOL0     H83967   5.644   7.632   7.378 -0.7399  0.5779  0.3963
  622MOL0     H83968   5.601   7.585   7.095 -1.6947 -2.0662  2.2232
  622MOL0     H83969   5.548   7.751   7.045 -2.8193 -1.6580  0.6743
  622MOL0     H83970   5.672   7.732   7.156  0.7816  0.1611 -2.3058
  623MOL0     O83971   3.078   6.328   0.242 -0.3601 -0.0839 -0.9413
  623MOL0     C83972   3.146   6.225   0.257 -0.6333  0.2161  0.0461
  623MOL0     O83973   3.143   6.146   0.367 -0.0663  0.1357 -0.4990
  623MOL0     C83974   3.064   6.194   0.473  0.0163 -0.1027 -0.0903
  623MOL0     C83975   2.965   6.111   0.525 -0.9867  0.4275 -0.0959
  623MOL0     C83976   2.874   6.154   0.626 -0.0232 -0.0578 -0.1666
  623MOL0     C83977   2.874   6.284   0.672  0.1251 -1.0503  0.1890
  623MOL0     O83978   2.772   6.318   0.759 -0.4985  0.3748  0.0181
  623MOL0     C83979   2.687   6.426   0.704 -0.8593 -0.5245  0.3647
  623MOL0     C83980   2.549   6.381   0.703  0.3782 -0.3797  0.8402
  623MOL0     C83981   2.515   6.263   0.602 -0.2656 -0.4602 -1.1433
  623MOL0     C83982   2.521   6.303   0.457 -0.0426  0.1102  0.3715
  623MOL0     C83983   2.505   6.178   0.370 -0.0157  0.3075 -0.0761
  623MOL0     C83984   2.637   6.125   0.317 -0.0332  0.6250  0.3846
  623MOL0     C83985   2.644   5.982   0.271 -0.1286 -0.1141 -0.1724
  623MOL0     C83986   2.581   5.961   0.129 -0.1266  0.3611  0.4958
  623MOL0     N83987   2.436   5.977   0.126 -0.1620 -0.0073  0.3865
  623MOL0     C83988   2.353   5.885   0.175  0.2072 -0.0926 -0.3434
  623MOL0     C83989   2.229   5.934   0.130  0.6670 -0.5497  0.5365
  623MOL0     C83990   2.094   5.880   0.181 -0.2017  0.5762 -1.2186
  623MOL0     C83991   1.982   5.853   0.082  0.1265  0.0813 -0.5918
  623MOL0     C83992   2.014   5.765  -0.041 -0.5608 -0.2631 -0.7724
  623MOL0     C83993   1.894   5.704  -0.098  0.1411  0.0218  0.7815
  623MOL0     O83994   1.831   5.601  -0.020  0.0248 -0.3270  0.2445
  623MOL0     C83995   1.713   5.546  -0.059  0.4537 -0.6463  0.1072
  623MOL0     C83996   1.645   5.578  -0.180  0.2037  0.4724 -0.5888
  623MOL0     C83997   1.515   5.538  -0.211  0.3331  0.8650  0.2155
  623MOL0     C83998   1.446   5.445  -0.132 -0.1371 -0.9457  0.0352
  623MOL0     C83999   1.318   5.395  -0.174  0.6131 -0.7895 -0.1693
  623MOL0     O84000   1.265   5.447  -0.289 -0.1961 -0.4136 -0.5835
  623MOL0     C84001   1.136   5.427  -0.317  1.0942 -0.0105  1.8718
  623MOL0     C84002   1.029   5.466  -0.230 -0.1403 -0.2788 -0.0333
  623MOL0     C84003   0.896   5.453  -0.274  0.4558  0.6093 -0.9218
  623MOL0     C84004   0.866   5.403  -0.392 -0.9187  0.1311  0.3057
  623MOL0     O84005   0.741   5.395  -0.429  0.1356 -0.5758  0.4625
  623MOL0     C84006   0.638   5.358  -0.332  0.0112 -0.2882 -0.0560
  623MOL0     C84007   0.539   5.267  -0.412 -0.3611 -0.0937  0.0639
  623MOL0     C84008   0.422   5.231  -0.324 -0.0041  0.7489  0.4669
  623MOL0     C84009   0.355   5.098  -0.365  0.1648  0.5051  0.6540
  623MOL0     C84010   0.213   5.086  -0.306 -0.2372 -0.2798  0.5344
  623MOL0     C84011   0.211   5.091  -0.154 -0.3480  0.5163 -0.6226
  623MOL0     C84012   0.075   5.092  -0.082  0.1041 -0.0178 -0.6338
  623MOL0     C84013   0.075   5.044   0.062  0.2390  0.1158  0.2136
  623MOL0    Cl84014   0.141   4.881   0.083 -0.1630  0.0115 -0.0693
  623MOL0     C84015   0.965   5.369  -0.488 -0.0334 -0.7282  0.2398
  623MOL0     C84016   1.099   5.378  -0.448  0.2685 -0.6357  0.3437
  623MOL0     O84017   1.265   5.295  -0.118  0.1466 -0.3381  0.4982
  623MOL0     C84018   1.513   5.411  -0.015 -0.8243  0.1564 -0.3376
  623MOL0     C84019   1.642   5.459   0.022 -0.1029 -0.2771 -0.1997
  623MOL0     N84020   2.255   6.054   0.056 -0.0075  0.2992 -0.2512
  623MOL0     N84021   2.376   6.074   0.057 -0.3897  0.2876  0.3587
  623MOL0     C84022   2.973   6.373   0.614  0.1076  0.8121 -0.6868
  623MOL0     C84023   3.063   6.324   0.523  0.4274 -0.0478  1.0248
  623MOL0     C84024   3.242   6.181   0.147 -0.8569 -0.0394  0.1949
  623MOL0     C84025   3.196   6.191   0.016 -0.3650 -0.1270  0.1120
  623MOL0     C84026   3.272   6.151  -0.091  0.0918 -0.3806 -0.1231
  623MOL0     C84027   3.401   6.101  -0.073  0.3221 -0.2306  0.2117
  623MOL0     O84028   3.468   6.097  -0.191  0.0153 -0.2141  0.3988
  623MOL0     C84029   3.601   6.043  -0.193 -1.3709  0.2425 -0.5494
  623MOL0     C84030   3.595   5.902  -0.259  0.2998 -0.0892  0.2494
  623MOL0     C84031   3.542   5.912  -0.409 -0.0180  0.0662  0.0390
  623MOL0     C84032   3.632   5.997  -0.507  0.8384 -0.2120 -0.8224
  623MOL0     C84033   3.769   5.960  -0.500  0.7682  0.2370 -0.7656
  623MOL0     C84034   3.878   5.901  -0.493 -0.5105 -1.3232  0.2921
  623MOL0     C84035   3.449   6.085   0.058 -0.0624 -0.1011  0.1432
  623MOL0     C84036   3.372   6.119   0.169 -0.0808 -0.1140  0.6537
  623MOL0     C84037   3.432   6.102   0.300 -0.0580  0.9974  0.3276
  623MOL0     H84038   2.956   6.010   0.485  1.5327  0.0261  0.1667
  623MOL0     H84039   2.791   6.094   0.662 -0.1003  0.3265  0.2946
  623MOL0     H84040   2.698   6.510   0.772 -0.8540  0.5542 -0.9220
  623MOL0     H84041   2.711   6.469   0.606 -1.8352  1.9577  1.1498
  623MOL0     H84042   2.487   6.465   0.668 -0.5976 -3.0992 -5.2296
  623MOL0     H84043   2.519   6.340   0.800  0.1142 -2.5324 -0.1108
  623MOL0     H84044   2.411   6.233   0.616 -0.2687 -0.7364 -1.7056
  623MOL0     H84045   2.588   6.182   0.608  1.8504  1.4161 -0.1607
  623MOL0     H84046   2.437   6.369   0.434 -0.8052 -0.4125  1.6477
  623MOL0     H84047   2.611   6.344   0.409 -0.2343 -1.4845 -1.4671
  623MOL0     H84048   2.459   6.092   0.420 -0.7766 -0.3691 -1.8532
  623MOL0     H84049   2.432   6.207   0.295  2.2225  3.6131 -1.1894
  623MOL0     H84050   2.667   6.183   0.230  0.2002  0.5014  0.3816
  623MOL0     H84051   2.715   6.121   0.394  2.0353 -2.3663 -1.6242
  623MOL0     H84052   2.599   5.927   0.354  2.5945 -0.1306  1.4438
  623MOL0     H84053   2.746   5.942   0.263  0.8091  2.0588  0.3837
  623MOL0     H84054   2.623   6.039   0.065 -1.5593 -0.6248 -1.7515
  623MOL0     H84055   2.600   5.856   0.106 -3.1123 -0.3598  0.9014
  623MOL0     H84056   2.378   5.796   0.232  0.6911  1.0528  1.2928
  623MOL0     H84057   2.113   5.793   0.244 -0.1692  2.0340  0.8971
  623MOL0     H84058   2.051   5.954   0.249 -0.4092 -0.2616 -0.4287
  623MOL0     H84059   1.902   5.812   0.143  0.3100  1.6684  0.7750
  623MOL0     H84060   1.946   5.952   0.054  0.2358  0.8774  1.8615
  623MOL0     H84061   2.079   5.684  -0.006  1.0381  0.9572 -0.7929
  623MOL0     H84062   2.064   5.827  -0.116 -0.2904  0.5184  0.0443
  623MOL0     H84063   1.927   5.671  -0.196  2.6514  2.6167  0.6282
  623MOL0     H84064   1.828   5.789  -0.118  0.3375  0.2291  1.0072
  623MOL0     H84065   1.708   5.625  -0.255  4.2604 -1.7113  1.0981
  623MOL0     H84066   1.471   5.579  -0.301 -0.4254  2.3091  1.2026
  623MOL0     H84067   1.062   5.496  -0.131  1.8960 -1.3405 -0.3395
  623MOL0     H84068   0.824   5.495  -0.205  2.2250  2.4470 -0.0882
  623MOL0     H84069   0.680   5.301  -0.249 -1.6367  0.5094  1.4039
  623MOL0     H84070   0.579   5.442  -0.293 -0.7545  0.6023 -2.8664
  623MOL0     H84071   0.507   5.319  -0.502  0.3664 -1.3969 -0.9855
  623MOL0     H84072   0.584   5.175  -0.451  1.6987  0.2431  1.4688
  623MOL0     H84073   0.462   5.208  -0.225  0.3068 -2.7437 -0.3409
  623MOL0     H84074   0.340   5.304  -0.317 -2.1800 -1.5253  0.2640
  623MOL0     H84075   0.404   5.003  -0.343 -3.4466 -0.6352  5.0961
  623MOL0     H84076   0.349   5.101  -0.474 -1.3692 -1.3598  0.6427
  623MOL0     H84077   0.174   4.986  -0.329 -1.0044 -0.0058  0.6032
  623MOL0     H84078   0.142   5.161  -0.343 -0.1471  1.2876  3.3020
  623MOL0     H84079   0.267   5.003  -0.121  0.5886  1.2799 -0.1126
  623MOL0     H84080   0.258   5.184  -0.119 -0.0344  0.0392  0.2452
  623MOL0     H84081   0.009   5.022  -0.134  1.5698  0.3891 -3.1862
  623MOL0     H84082   0.026   5.190  -0.087  2.3823  1.2105 -0.4367
  623MOL0     H84083   0.143   5.109   0.118  1.0508  2.8469 -3.5426
  623MOL0     H84084  -0.027   5.050   0.101 -0.9329 -2.9443 -1.9662
  623MOL0     H84085   0.933   5.342  -0.588 -1.1276 -0.6274  0.5499
  623MOL0     H84086   1.183   5.363  -0.514 -0.0425 -2.5207  0.3157
  623MOL0     H84087   1.471   5.339   0.054 -1.5950  1.0246  0.1178
  623MOL0     H84088   1.696   5.427   0.111 -2.1907 -3.0307  0.2179
  623MOL0     H84089   2.981   6.471   0.661  1.7845  1.3847 -2.0795
  623MOL0     H84090   3.142   6.390   0.486 -0.9843  1.5359  0.7129
  623MOL0     H84091   3.093   6.226   0.011 -0.7844 -0.9184  2.1705
  623MOL0     H84092   3.228   6.156  -0.190 -0.3800  2.5454  0.1385
  623MOL0     H84093   3.651   6.048  -0.096  0.0311  1.9874 -1.3043
  623MOL0     H84094   3.660   6.104  -0.261 -2.7962  1.4900 -0.7241
  623MOL0     H84095   3.520   5.843  -0.204  0.4566  0.3149  0.9098
  623MOL0     H84096   3.698   5.864  -0.260  1.3460  2.4551  2.0462
  623MOL0     H84097   3.438   5.946  -0.414 -1.3052 -3.2040  1.2521
  623MOL0     H84098   3.534   5.807  -0.439  0.9290 -1.3115  3.9904
  623MOL0     H84099   3.593   5.973  -0.607  2.9843 -1.5112 -1.4166
  623MOL0     H84100   3.614   6.101  -0.480 -2.6248 -1.2078  1.4821
  623MOL0     H84101   3.973   5.862  -0.464 -0.1042 -1.6305 -1.3674
  623MOL0     H84102   3.544   6.040   0.085 -0.5629 -1.4288 -0.1987
  623MOL0     H84103   3.541   6.103   0.290  0.0768  0.7342  1.5822
  623MOL0     H84104   3.395   6.183   0.363  5.6663  2.5226  2.3346
  623MOL0     H84105   3.402   6.007   0.345  2.2197 -0.3788 -0.8693
  624MOL0     O84106   5.749   8.025   9.341  0.2911  0.0319  0.9475
  624MOL0     C84107   5.864   8.012   9.319 -0.5098 -0.1630 -0.9518
  624MOL0     O84108   5.940   7.908   9.363 -0.3076  0.6449 -0.6996
  624MOL0     C84109   5.883   7.788   9.395  0.1389 -0.2825 -0.4519
  624MOL0     C84110   5.950   7.709   9.489  0.1828 -0.2525 -0.2372
  624MOL0     C84111   5.899   7.586   9.524 -0.0050 -0.0546 -0.0098
  624MOL0     C84112   5.777   7.537   9.478  0.1780 -0.6384 -0.5263
  624MOL0     O84113   5.732   7.419   9.534 -0.2356 -0.3405 -0.0208
  624MOL0     C84114   5.612   7.375   9.468 -0.0268 -0.6527  0.1228
  624MOL0     C84115   5.576   7.228   9.512  0.1062 -0.4776  0.3665
  624MOL0     C84116   5.573   7.211   9.665  0.1496 -0.0672  1.4483
  624MOL0     C84117   5.437   7.274   9.721 -0.1447 -0.2345 -0.1604
  624MOL0     C84118   5.464   7.299   9.870 -1.1773 -0.5297  0.4021
  624MOL0     C84119   5.469   7.162   9.939  0.6023  0.1436  0.0079
  624MOL0     C84120   5.497   7.192  10.083 -0.2874 -0.3003 -0.1819
  624MOL0     C84121   5.390   7.264  10.153 -0.4388 -0.8781  0.2414
  624MOL0     N84122   5.263   7.200  10.136  0.2029 -0.5674  0.8226
  624MOL0     C84123   5.149   7.273  10.116  0.1145  0.2370 -0.3892
  624MOL0     C84124   5.058   7.177  10.100 -0.6360 -1.1083  0.1055
  624MOL0     C84125   4.916   7.190  10.054 -0.0035 -0.1824 -0.6087
  624MOL0     C84126   4.834   7.221  10.184  0.5402 -0.8620  0.0580
  624MOL0     C84127   4.772   7.357  10.169 -0.1775  0.0354  0.1455
  624MOL0     C84128   4.694   7.416  10.292 -0.0924  0.3430 -0.0123
  624MOL0     O84129   4.573   7.341  10.315  0.3647  0.2346 -0.1742
  624MOL0     C84130   4.502   7.350  10.434  0.2462 -0.4394  0.4896
  624MOL0     C84131   4.416   7.259  10.476  0.9054  0.9741  0.0585
  624MOL0     C84132   4.351   7.258  10.594 -0.2822  0.3793  0.0924
  624MOL0     C84133   4.359   7.368  10.680  0.6617 -0.3394  0.1638
  624MOL0     C84134   4.278   7.379  10.804 -0.4289 -0.0785 -0.4415
  624MOL0     O84135   4.208   7.271  10.840  0.5217 -0.5748 -0.4420
  624MOL0     C84136   4.130   7.252  10.954 -0.0285 -0.3348 -0.5600
  624MOL0     C84137   4.075   7.348  11.048 -0.4394  0.1605  0.5252
  624MOL0     C84138   3.979   7.311  11.144  0.5935  0.2013  0.1642
  624MOL0     C84139   3.946   7.180  11.163  0.1156 -0.1182 -0.3507
  624MOL0     O84140   3.873   7.145  11.275  1.0896 -0.7687  0.0599
  624MOL0     C84141   3.954   7.104  11.384 -0.6785  0.0868  0.4148
  624MOL0     C84142   4.005   7.226  11.457  0.2474 -0.2032 -0.1552
  624MOL0     C84143   3.902   7.331  11.501  1.0889 -0.0597 -0.4292
  624MOL0     C84144   3.937   7.397  11.644 -0.1818  1.3087  0.0981
  624MOL0     C84145   3.801   7.463  11.690  0.7575  0.2872 -0.4190
  624MOL0     C84146   3.808   7.506  11.839  0.0628  0.4064 -1.3223
  624MOL0     C84147   3.667   7.503  11.910  0.6085 -0.4909  0.8163
  624MOL0     C84148   3.667   7.561  12.050 -0.7776  1.0323  0.5142
  624MOL0    Cl84149   3.711   7.734  12.043 -0.2464  0.5183 -0.2112
  624MOL0     C84150   4.000   7.080  11.074 -0.0508  0.2404  0.0559
  624MOL0     C84151   4.080   7.115  10.958 -0.1599 -0.9907 -0.0553
  624MOL0     O84152   4.267   7.491  10.858  0.8915 -0.5407 -0.5324
  624MOL0     C84153   4.447   7.480  10.631 -0.2536  0.0255 -0.0976
  624MOL0     C84154   4.514   7.466  10.516  0.0309 -0.1823  0.6194
  624MOL0     N84155   5.114   7.057  10.123 -0.2753 -0.4260 -0.9378
  624MOL0     N84156   5.236   7.066  10.144 -0.3902  0.1035 -0.6833
  624MOL0     C84157   5.714   7.615   9.374 -0.2255 -0.1735 -0.0612
  624MOL0     C84158   5.759   7.742   9.339 -0.4147 -0.1607  0.1220
  624MOL0     C84159   5.947   8.117   9.260  0.6457 -0.4988 -0.2587
  624MOL0     C84160   6.089   8.110   9.267 -0.2033 -0.4967  0.4233
  624MOL0     C84161   6.174   8.197   9.202  1.1737  0.7971 -0.0138
  624MOL0     C84162   6.118   8.312   9.142 -0.5622 -0.2786 -0.4132
  624MOL0     O84163   6.185   8.417   9.087 -0.5072 -0.5258  0.3459
  624MOL0     C84164   6.301   8.363   9.015  0.5451  0.4679 -0.1986
  624MOL0     C84165   6.366   8.474   8.934 -0.3499 -0.9451  0.3777
  624MOL0     C84166   6.259   8.540   8.828  0.0422  0.4957 -0.8697
  624MOL0     C84167   6.311   8.663   8.761  0.4228 -1.0642 -0.7143
  624MOL0     C84168   6.416   8.640   8.668 -1.0227 -0.1690 -0.7628
  624MOL0     C84169   6.492   8.638   8.580 -0.0707 -0.4832 -0.5425
  624MOL0     C84170   5.984   8.332   9.141  0.3871  0.1078 -0.9632
  624MOL0     C84171   5.900   8.236   9.203  0.0064 -0.4242  0.6797
  624MOL0     C84172   5.752   8.291   9.203 -0.1017  0.7625 -0.0749
  624MOL0     H84173   6.046   7.734   9.533 -0.4671 -0.0024  1.0768
  624MOL0     H84174   5.953   7.527   9.598  0.6012 -1.5666 -1.5868
  624MOL0     H84175   5.531   7.443   9.498  0.4827  1.0127 -2.0414
  624MOL0     H84176   5.615   7.380   9.359 -0.6279  3.4406  0.1252
  624MOL0     H84177   5.660   7.173   9.469 -0.1277 -0.2263 -0.4151
  624MOL0     H84178   5.486   7.196   9.458 -0.2927  0.4234  0.4842
  624MOL0     H84179   5.661   7.252   9.714 -0.8990  2.0421  1.7063
  624MOL0     H84180   5.577   7.102   9.669 -0.2384 -0.2206 -0.9954
  624MOL0     H84181   5.412   7.374   9.684 -0.4114  0.1660  1.0663
  624MOL0     H84182   5.353   7.207   9.698  0.7641 -1.7677  0.8225
  624MOL0     H84183   5.551   7.363   9.883 -0.8340 -1.5731  4.4302
  624MOL0     H84184   5.386   7.369   9.901 -0.8558  0.3328 -0.6617
  624MOL0     H84185   5.374   7.113   9.919  0.2351  1.4103 -1.5688
  624MOL0     H84186   5.551   7.106   9.894 -0.7998 -2.1063  0.1016
  624MOL0     H84187   5.592   7.247  10.087  1.0187 -2.4546 -0.4228
  624MOL0     H84188   5.510   7.103  10.145 -4.7233  0.4535  2.3169
  624MOL0     H84189   5.418   7.269  10.258  2.5431 -0.4285 -0.4740
  624MOL0     H84190   5.380   7.363  10.108 -0.9398 -0.3252  1.5222
  624MOL0     H84191   5.149   7.381  10.103 -2.4024  0.1194 -2.0835
  624MOL0     H84192   4.915   7.270   9.979 -2.0887 -0.6474 -1.1475
  624MOL0     H84193   4.885   7.098  10.005  0.8165 -0.2061 -1.0998
  624MOL0     H84194   4.756   7.145  10.189  2.3537 -2.8171 -0.3167
  624MOL0     H84195   4.881   7.207  10.282  0.8406 -3.6407 -0.4012
  624MOL0     H84196   4.696   7.339  10.092  0.4098 -2.7383  0.1039
  624MOL0     H84197   4.837   7.432  10.123  0.0842 -0.1395  0.2232
  624MOL0     H84198   4.659   7.517  10.265 -2.4336  0.2909  2.4380
  624MOL0     H84199   4.756   7.422  10.381  0.5484 -1.8652 -0.2657
  624MOL0     H84200   4.387   7.176  10.412 -2.2572  0.4467  1.9740
  624MOL0     H84201   4.296   7.169  10.622  2.6546 -0.8421  2.5960
  624MOL0     H84202   4.095   7.453  11.033 -0.8975 -0.0699 -2.3647
  624MOL0     H84203   3.947   7.387  11.214  2.5657  2.3560 -1.0980
  624MOL0     H84204   3.886   7.046  11.446  2.0705 -1.3823  2.3047
  624MOL0     H84205   4.036   7.041  11.348 -0.3422  0.4277  0.5742
  624MOL0     H84206   4.047   7.182  11.548  2.3047 -0.5145 -1.1833
  624MOL0     H84207   4.075   7.276  11.389 -1.4613  1.0079 -1.0883
  624MOL0     H84208   3.886   7.408  11.425  1.0471 -1.2069 -1.6020
  624MOL0     H84209   3.805   7.281  11.504  0.1457  1.6591  2.8395
  624MOL0     H84210   4.019   7.469  11.633  0.1726  0.7243 -1.1949
  624MOL0     H84211   3.955   7.317  11.717 -1.3316 -1.0410 -2.0487
  624MOL0     H84212   3.728   7.382  11.679  2.6283 -1.4132 -0.9900
  624MOL0     H84213   3.789   7.549  11.623 -0.0619 -1.1894 -2.2528
  624MOL0     H84214   3.876   7.452  11.906 -0.9195  3.3819  2.3760
  624MOL0     H84215   3.857   7.604  11.839 -1.4457  1.1912 -1.2613
  624MOL0     H84216   3.627   7.401  11.905 -3.2451  0.9109 -0.1680
  624MOL0     H84217   3.597   7.572  11.862 -0.4632  0.4522  3.5626
  624MOL0     H84218   3.571   7.555  12.101  0.6133  4.1905  3.9735
  624MOL0     H84219   3.737   7.498  12.107 -0.7896  0.4774 -0.0783
  624MOL0     H84220   3.968   6.978  11.091 -0.2261  0.4070  0.7579
  624MOL0     H84221   4.116   7.036  10.893 -0.1014  2.1487 -4.2733
  624MOL0     H84222   4.468   7.567  10.692 -1.1463 -0.8362  1.5122
  624MOL0     H84223   4.590   7.543  10.501 -1.9246  2.0130  1.3986
  624MOL0     H84224   5.629   7.583   9.313 -0.4125 -0.9396  0.5896
  624MOL0     H84225   5.721   7.793   9.251  0.3700 -2.3140 -1.5608
  624MOL0     H84226   6.139   8.026   9.315 -0.9718  0.9877  4.2495
  624MOL0     H84227   6.282   8.186   9.210  1.0140 -0.0752  1.1781
  624MOL0     H84228   6.274   8.289   8.939  1.1089  2.0058 -1.9803
  624MOL0     H84229   6.372   8.311   9.080 -0.6991  0.0409  0.8477
  624MOL0     H84230   6.452   8.442   8.875 -0.5691  0.7779 -0.9929
  624MOL0     H84231   6.404   8.541   9.012  1.1295 -0.3383 -0.8166
  624MOL0     H84232   6.160   8.557   8.870  0.8514  0.0985  1.3167
  624MOL0     H84233   6.247   8.454   8.762  0.0568 -0.1972  0.0104
  624MOL0     H84234   6.226   8.706   8.706  0.5874  2.7139  1.6048
  624MOL0     H84235   6.327   8.735   8.841  1.1816 -2.0878  0.0808
  624MOL0     H84236   6.550   8.644   8.490  1.5868  1.5995  0.5827
  624MOL0     H84237   5.932   8.420   9.106 -1.0419  0.0923  0.9990
  624MOL0     H84238   5.704   8.270   9.299  1.0319 -1.1062  0.1428
  624MOL0     H84239   5.734   8.398   9.187  1.0091  0.8985 -0.5088
  624MOL0     H84240   5.696   8.241   9.123  1.6178  3.9839 -3.5965
  625MOL0     O84241   3.667   6.475   6.556  0.2263  0.4039  0.0435
  625MOL0     C84242   3.597   6.540   6.635 -0.1704 -0.5691 -0.6827
  625MOL0     O84243   3.468   6.583   6.617 -0.9229  0.1230 -0.3205
  625MOL0     C84244   3.418   6.552   6.492 -0.2823  0.1971 -0.7249
  625MOL0     C84245   3.361   6.429   6.475  0.4866  1.0868  0.1599
  625MOL0     C84246   3.277   6.392   6.372  0.5998  0.3936  0.1448
  625MOL0     C84247   3.253   6.487   6.276 -0.2368 -0.0130 -0.0707
  625MOL0     O84248   3.145   6.467   6.191  0.6282  0.2385 -0.2842
  625MOL0     C84249   3.142   6.533   6.060  0.4417  0.3493  0.1160
  625MOL0     C84250   3.018   6.496   5.982 -0.3822  0.6046  0.2949
  625MOL0     C84251   2.886   6.520   6.064  0.1775  0.4876 -0.0775
  625MOL0     C84252   2.769   6.424   6.033 -0.5009  0.0976 -0.5485
  625MOL0     C84253   2.629   6.472   6.067 -0.0362 -0.4022  0.9779
  625MOL0     C84254   2.520   6.378   6.023 -0.6054  0.6470 -0.3619
  625MOL0     C84255   2.522   6.254   6.110  1.1633 -1.9168  0.0915
  625MOL0     C84256   2.392   6.176   6.103  0.9824  0.0199 -0.0198
  625MOL0     N84257   2.341   6.152   6.236 -0.0612 -0.3113 -0.5497
  625MOL0     C84258   2.380   6.042   6.308  0.3373  0.6913 -0.8764
  625MOL0     C84259   2.312   6.063   6.429 -0.2007  0.1040  0.1564
  625MOL0     C84260   2.309   5.985   6.553  0.5418 -0.1504 -0.1301
  625MOL0     C84261   2.267   5.843   6.529  0.0951  0.5228 -0.3745
  625MOL0     C84262   2.211   5.792   6.664 -0.0897  0.1395 -0.4715
  625MOL0     C84263   2.208   5.645   6.689 -0.4699 -0.0942  0.2598
  625MOL0     O84264   2.348   5.596   6.691 -0.2311 -0.3010 -0.6601
  625MOL0     C84265   2.407   5.564   6.811 -0.2591  0.2165 -0.4187
  625MOL0     C84266   2.353   5.582   6.942  0.9984 -1.5116  0.6139
  625MOL0     C84267   2.430   5.538   7.059  0.0538 -0.1999  0.3894
  625MOL0     C84268   2.555   5.483   7.046  0.0135 -0.2405  0.3740
  625MOL0     C84269   2.636   5.444   7.168  0.5293  0.9766 -0.4345
  625MOL0     O84270   2.565   5.398   7.268 -0.5065  0.8076 -0.0449
  625MOL0     C84271   2.613   5.368   7.394 -0.6396  0.9329  0.3009
  625MOL0     C84272   2.580   5.242   7.454  0.1876  0.2954  0.1250
  625MOL0     C84273   2.636   5.204   7.584  0.7606 -0.1854 -0.3616
  625MOL0     C84274   2.715   5.303   7.647 -0.4761  0.5184 -0.2292
  625MOL0     O84275   2.772   5.295   7.777  0.2182  0.2488 -0.7108
  625MOL0     C84276   2.767   5.169   7.845  1.1865  0.8831  0.1583
  625MOL0     C84277   2.849   5.172   7.972 -0.3798  0.9025 -0.0225
  625MOL0     C84278   2.905   5.028   8.019  0.3199 -0.2710 -0.8062
  625MOL0     C84279   3.006   5.047   8.133 -0.0988  0.6554 -1.3014
  625MOL0     C84280   3.041   4.915   8.197 -0.2863 -0.0261  0.1955
  625MOL0     C84281   3.107   4.927   8.331  0.4580 -0.3493 -0.3553
  625MOL0     C84282   3.166   4.798   8.397  0.0601 -0.2553  0.2579
  625MOL0     C84283   3.072   4.671   8.375  0.6756  0.3794 -0.6649
  625MOL0    Cl84284   2.908   4.688   8.448 -0.2256 -0.0323 -0.1415
  625MOL0     C84285   2.730   5.428   7.586 -0.8669  0.3136 -1.2394
  625MOL0     C84286   2.694   5.456   7.458  0.2706 -0.1892  0.1306
  625MOL0     O84287   2.757   5.457   7.177 -0.1497  0.4401 -0.3436
  625MOL0     C84288   2.607   5.475   6.917 -0.3228 -0.1529  1.0422
  625MOL0     C84289   2.543   5.521   6.805  0.2573 -0.7124 -0.1104
  625MOL0     N84290   2.249   6.180   6.421  0.7975 -0.1029 -0.2180
  625MOL0     N84291   2.263   6.233   6.305  0.2817 -0.0709  0.1725
  625MOL0     C84292   3.322   6.613   6.288 -0.1263  1.1153  0.8276
  625MOL0     C84293   3.406   6.642   6.395  0.3669  0.6079  1.3356
  625MOL0     C84294   3.656   6.605   6.754 -0.0164 -0.6554 -0.3064
  625MOL0     C84295   3.646   6.536   6.873  0.3022 -0.1036 -0.9238
  625MOL0     C84296   3.697   6.590   6.992 -0.3717  0.6846  0.2212
  625MOL0     C84297   3.779   6.708   6.982 -0.3815 -0.0532 -0.2349
  625MOL0     O84298   3.847   6.766   7.085  0.6282 -0.1813  0.8058
  625MOL0     C84299   3.821   6.718   7.215  0.4910  0.8892 -0.0903
  625MOL0     C84300   3.874   6.806   7.325 -0.2940  0.6468 -0.0160
  625MOL0     C84301   3.857   6.743   7.469  0.5212 -0.4337 -0.2405
  625MOL0     C84302   3.881   6.853   7.578  0.4762 -0.0283 -0.4556
  625MOL0     C84303   3.760   6.933   7.623 -0.5846 -0.4180 -1.3209
  625MOL0     C84304   3.665   6.995   7.659 -0.2769  0.4365 -1.1595
  625MOL0     C84305   3.804   6.773   6.850  0.3248  0.0419  1.1247
  625MOL0     C84306   3.740   6.721   6.742  0.9155 -0.2167 -0.9506
  625MOL0     C84307   3.764   6.775   6.600 -0.2372  0.2295  0.0580
  625MOL0     H84308   3.368   6.364   6.562  0.3434 -2.0718 -2.0114
  625MOL0     H84309   3.225   6.297   6.362  0.5683  0.3862  0.3798
  625MOL0     H84310   3.139   6.642   6.066  2.9468  0.4934 -0.0070
  625MOL0     H84311   3.235   6.503   6.010 -0.1687 -0.1158 -0.7529
  625MOL0     H84312   3.015   6.387   5.971  1.2394  0.7001 -1.3351
  625MOL0     H84313   3.013   6.543   5.884  2.1354  2.0647  0.7988
  625MOL0     H84314   2.848   6.619   6.038 -0.0980  0.5418  0.5332
  625MOL0     H84315   2.907   6.515   6.171  1.4424 -1.1123 -0.3519
  625MOL0     H84316   2.767   6.399   5.926 -0.1287 -0.0669 -0.5220
  625MOL0     H84317   2.784   6.328   6.083  0.7663  0.7918  0.4463
  625MOL0     H84318   2.606   6.484   6.174  1.3423 -3.0959  1.6585
  625MOL0     H84319   2.625   6.571   6.022  1.0041 -0.5382  0.5633
  625MOL0     H84320   2.421   6.426   6.019 -1.4345 -1.0739 -1.9268
  625MOL0     H84321   2.534   6.348   5.918  0.4565  2.1091 -0.6718
  625MOL0     H84322   2.546   6.277   6.214  3.5988 -2.2224 -0.3610
  625MOL0     H84323   2.595   6.179   6.076  1.9112 -0.9189 -0.5393
  625MOL0     H84324   2.321   6.239   6.048  0.2757  0.1679  1.0364
  625MOL0     H84325   2.407   6.087   6.041  1.8030  0.4250 -0.4129
  625MOL0     H84326   2.446   5.960   6.284  0.0889 -0.3579  1.6568
  625MOL0     H84327   2.412   5.986   6.592 -0.4668 -1.2177  2.8911
  625MOL0     H84328   2.251   6.038   6.629  0.0005 -0.4358 -0.3436
  625MOL0     H84329   2.189   5.820   6.455  2.3122 -2.8096 -1.9318
  625MOL0     H84330   2.355   5.784   6.499 -0.3269 -0.2633 -0.1122
  625MOL0     H84331   2.108   5.827   6.675 -1.0328 -3.0301  2.9789
  625MOL0     H84332   2.268   5.838   6.746 -3.7311  1.0279  1.8071
  625MOL0     H84333   2.147   5.594   6.613  0.3456  0.3258 -0.7084
  625MOL0     H84334   2.148   5.624   6.777 -1.1561  0.3597 -0.0881
  625MOL0     H84335   2.267   5.646   6.961  1.6976  0.3327 -1.9366
  625MOL0     H84336   2.385   5.569   7.153  1.1760  0.5429  0.6960
  625MOL0     H84337   2.531   5.170   7.388 -1.6108  2.0395 -0.5337
  625MOL0     H84338   2.635   5.104   7.626 -0.4946 -0.2978 -0.6384
  625MOL0     H84339   2.665   5.142   7.872  1.6057 -0.9207  0.0512
  625MOL0     H84340   2.791   5.090   7.774  0.8038  0.6364  0.3052
  625MOL0     H84341   2.924   5.252   7.967  0.5693  0.1647  1.5762
  625MOL0     H84342   2.780   5.204   8.050 -0.8559 -3.5202  1.6677
  625MOL0     H84343   2.828   4.960   8.057  1.8951 -0.8291  1.6556
  625MOL0     H84344   2.954   4.985   7.931  1.3648  1.4728 -1.1195
  625MOL0     H84345   2.962   5.112   8.210 -4.4746 -3.2004 -0.0995
  625MOL0     H84346   3.089   5.106   8.092  0.4719 -0.0219 -1.1406
  625MOL0     H84347   3.101   4.856   8.127 -2.3531 -1.0973 -0.7517
  625MOL0     H84348   2.946   4.861   8.201 -0.4985  0.4071  1.0861
  625MOL0     H84349   3.181   5.008   8.329  0.2253 -0.1535 -2.1650
  625MOL0     H84350   3.027   4.961   8.398 -0.8952  2.0918 -2.9994
  625MOL0     H84351   3.171   4.830   8.501  0.8964  0.3347  0.0453
  625MOL0     H84352   3.265   4.773   8.356  0.2580 -4.5343  2.7309
  625MOL0     H84353   3.068   4.647   8.269  3.6865 -1.0755 -0.5417
  625MOL0     H84354   3.121   4.585   8.421  0.3744 -1.7757 -4.0190
  625MOL0     H84355   2.781   5.507   7.638  0.6910 -2.8983  2.6005
  625MOL0     H84356   2.725   5.553   7.421  1.0110 -0.3837  0.2249
  625MOL0     H84357   2.712   5.445   6.918 -0.2410 -0.0770 -1.1209
  625MOL0     H84358   2.597   5.533   6.712 -0.5442 -0.2900 -0.5308
  625MOL0     H84359   3.320   6.672   6.197  3.5799 -0.5998 -0.5610
  625MOL0     H84360   3.466   6.731   6.414  1.7060 -0.1208  0.6768
  625MOL0     H84361   3.595   6.441   6.883  2.1134 -1.0387 -0.0964
  625MOL0     H84362   3.668   6.540   7.084 -2.0590 -1.7068 -1.4893
  625MOL0     H84363   3.865   6.618   7.221 -3.2678 -0.8606  2.3887
  625MOL0     H84364   3.718   6.692   7.240 -0.2458 -0.1405 -3.6920
  625MOL0     H84365   3.817   6.900   7.327 -1.0733  0.2393 -1.2258
  625MOL0     H84366   3.979   6.829   7.310 -0.7051  2.1348 -0.8166
  625MOL0     H84367   3.924   6.659   7.488 -0.8369 -1.2265  1.3878
  625MOL0     H84368   3.752   6.711   7.471 -1.3113  4.6358 -0.6118
  625MOL0     H84369   3.920   6.791   7.659  1.4552 -1.1639 -1.7537
  625MOL0     H84370   3.958   6.923   7.542 -0.6047  1.0034 -0.8178
  625MOL0     H84371   3.580   7.059   7.675 -1.2256 -1.3597  2.1257
  625MOL0     H84372   3.883   6.848   6.850 -0.9916  1.5372  2.9282
  625MOL0     H84373   3.671   6.804   6.549 -0.0187  0.8718  0.0093
  625MOL0     H84374   3.837   6.856   6.602 -0.6443  0.7068 -1.9076
  625MOL0     H84375   3.818   6.704   6.537  2.1746  1.5686  0.4976
  626MOL0     O84376   0.542   7.118   1.733  0.3996  0.6552 -0.8673
  626MOL0     C84377   0.621   7.185   1.791 -1.0138  0.7139 -0.8147
  626MOL0     O84378   0.620   7.314   1.811  0.2770 -0.1038 -0.4750
  626MOL0     C84379   0.560   7.398   1.723  0.2570 -0.0738 -0.2251
  626MOL0     C84380   0.636   7.463   1.627  0.7070  0.2606 -0.1047
  626MOL0     C84381   0.571   7.542   1.532 -0.1217  0.1179  0.3611
  626MOL0     C84382   0.437   7.557   1.539  1.1801  0.5502 -0.2044
  626MOL0     O84383   0.356   7.626   1.453 -0.8242 -0.1050  0.0340
  626MOL0     C84384   0.328   7.540   1.335  0.0822  0.6063  0.0572
  626MOL0     C84385   0.295   7.635   1.226 -0.4002  0.7238  0.4719
  626MOL0     C84386   0.308   7.566   1.092  0.0988 -0.6859  0.8951
  626MOL0     C84387   0.292   7.683   0.982 -0.4305  0.6136 -0.2308
  626MOL0     C84388   0.309   7.628   0.837  0.5575 -0.4626 -0.8398
  626MOL0     C84389   0.303   7.753   0.734 -0.9007  0.5387  0.6263
  626MOL0     C84390   0.313   7.699   0.590 -0.3747  0.0225  0.0387
  626MOL0     C84391   0.199   7.604   0.551  0.3325  1.0317  0.5577
  626MOL0     N84392   0.216   7.557   0.402 -0.0899  0.4346 -0.2386
  626MOL0     C84393   0.132   7.466   0.339 -0.3858 -0.4685  0.1072
  626MOL0     C84394   0.149   7.484   0.202 -0.2705  0.2009 -0.5373
  626MOL0     C84395   0.089   7.399   0.088  0.8582 -0.5968  0.3376
  626MOL0     C84396   0.203   7.381  -0.019  0.1706  0.1792  0.7656
  626MOL0     C84397   0.295   7.256   0.005 -0.0833 -0.0088 -0.9259
  626MOL0     C84398   0.381   7.215  -0.125 -0.6051  0.5641  0.2094
  626MOL0     O84399   0.387   7.070  -0.147  0.1884  0.1220 -0.6885
  626MOL0     C84400   0.425   7.003  -0.031 -0.8379  0.6489 -0.3755
  626MOL0     C84401   0.363   6.883   0.003  0.0107 -0.3490 -0.3895
  626MOL0     C84402   0.399   6.817   0.119 -0.0245 -0.0645 -0.4198
  626MOL0     C84403   0.493   6.868   0.212 -0.8342  0.2486 -0.6770
  626MOL0     C84404   0.521   6.792   0.340 -0.0569  0.1824  0.7718
  626MOL0     O84405   0.444   6.689   0.379  0.3285  0.3205  0.1457
  626MOL0     C84406   0.479   6.603   0.474 -0.2599  0.4646  0.3856
  626MOL0     C84407   0.529   6.485   0.432 -0.2068 -0.6785  0.1878
  626MOL0     C84408   0.563   6.386   0.525 -0.3448 -0.1179  0.2620
  626MOL0     C84409   0.547   6.406   0.659  0.6030  0.1683  0.0162
  626MOL0     O84410   0.562   6.304   0.742  0.6541  0.7479  0.9187
  626MOL0     C84411   0.433   6.265   0.790  0.3065  0.3118  0.1810
  626MOL0     C84412   0.445   6.173   0.907 -0.8803  0.3664  0.4089
  626MOL0     C84413   0.494   6.237   1.036  0.4045 -0.7174 -0.3424
  626MOL0     C84414   0.392   6.312   1.118 -0.6220 -0.0588 -0.2507
  626MOL0     C84415   0.441   6.337   1.268  0.0164  0.0739  1.1699
  626MOL0     C84416   0.319   6.334   1.372 -0.9657 -1.0500 -0.6406
  626MOL0     C84417   0.355   6.392   1.505 -0.6860  0.4381  0.6040
  626MOL0     C84418   0.249   6.375   1.609 -0.5543 -0.5875  1.3090
  626MOL0    Cl84419   0.322   6.357   1.763 -0.0495 -0.2152 -0.3800
  626MOL0     C84420   0.494   6.529   0.706 -0.1708 -0.5116 -0.0851
  626MOL0     C84421   0.465   6.629   0.606 -0.4461 -0.0753  0.0705
  626MOL0     O84422   0.614   6.837   0.407  0.1685 -0.2762  0.2071
  626MOL0     C84423   0.561   6.985   0.171 -0.8058  1.2997 -0.4443
  626MOL0     C84424   0.535   7.048   0.051 -0.1351 -0.4376 -0.9262
  626MOL0     N84425   0.229   7.585   0.196  0.5104 -0.6914  0.0387
  626MOL0     N84426   0.278   7.629   0.311  0.3477 -0.1025  0.3272
  626MOL0     C84427   0.368   7.493   1.644 -0.5228 -2.0165  0.4524
  626MOL0     C84428   0.431   7.415   1.735  0.9029 -0.2695  0.1813
  626MOL0     C84429   0.735   7.110   1.846  0.1278  0.2926 -0.4684
  626MOL0     C84430   0.718   6.975   1.868  0.3834  0.2145  0.3698
  626MOL0     C84431   0.819   6.899   1.935 -0.1669 -0.4891 -0.3064
  626MOL0     C84432   0.943   6.952   1.966 -0.5625  0.7034  0.0914
  626MOL0     O84433   1.042   6.889   2.038 -0.0038  0.1823 -0.0082
  626MOL0     C84434   1.021   6.746   2.061  0.2543 -0.6712 -0.5901
  626MOL0     C84435   1.142   6.675   2.129 -0.8451 -0.4483 -0.4743
  626MOL0     C84436   1.159   6.692   2.283  0.0640 -0.5885 -0.3503
  626MOL0     C84437   1.309   6.680   2.324  0.0835 -0.3152  0.0688
  626MOL0     C84438   1.426   6.764   2.282 -0.1083  0.1759 -0.6066
  626MOL0     C84439   1.528   6.819   2.256  0.1586 -0.3677  0.4476
  626MOL0     C84440   0.963   7.084   1.947  0.7391 -0.5348 -0.1653
  626MOL0     C84441   0.861   7.167   1.887  0.3510 -0.1328 -0.0629
  626MOL0     C84442   0.898   7.306   1.835 -0.7546  0.1534 -0.6985
  626MOL0     H84443   0.742   7.439   1.622  0.2885 -1.3683 -2.6208
  626MOL0     H84444   0.609   7.578   1.437 -0.5125 -2.1326 -0.7320
  626MOL0     H84445   0.422   7.490   1.310  0.3883  0.5164  1.3284
  626MOL0     H84446   0.259   7.457   1.355  3.1783 -2.6375 -1.5781
  626MOL0     H84447   0.369   7.715   1.235  3.2157 -2.0447 -1.5891
  626MOL0     H84448   0.197   7.683   1.229  0.0516  1.6469  0.7872
  626MOL0     H84449   0.217   7.506   1.078 -1.8723  2.6048 -2.1342
  626MOL0     H84450   0.394   7.499   1.086 -0.2593 -1.1223  0.3638
  626MOL0     H84451   0.193   7.726   1.000 -0.0656  1.2990  0.1674
  626MOL0     H84452   0.370   7.756   1.005 -1.0411  1.3538 -0.4847
  626MOL0     H84453   0.404   7.577   0.822 -0.5439 -1.8963 -3.6868
  626MOL0     H84454   0.229   7.553   0.831  1.7248 -2.6195  4.6456
  626MOL0     H84455   0.214   7.813   0.758  0.3248  2.3428  0.9068
  626MOL0     H84456   0.392   7.813   0.756 -1.3229  1.1767  0.6131
  626MOL0     H84457   0.409   7.647   0.587 -1.6487 -2.7252  2.5117
  626MOL0     H84458   0.302   7.779   0.515  0.4728 -0.1899 -0.3173
  626MOL0     H84459   0.197   7.513   0.612 -1.1186 -0.3885 -1.4477
  626MOL0     H84460   0.103   7.654   0.565 -1.2374 -1.6285  0.1240
  626MOL0     H84461   0.064   7.408   0.401  0.4468  2.6074  4.3718
  626MOL0     H84462   0.070   7.300   0.131 -0.2895 -0.3270  0.4871
  626MOL0     H84463   0.006   7.462   0.057  2.3356  0.6825 -1.2301
  626MOL0     H84464   0.154   7.360  -0.115 -2.2251  0.1323  1.9119
  626MOL0     H84465   0.258   7.475  -0.025 -0.0296  0.4352  2.3072
  626MOL0     H84466   0.234   7.171   0.037  1.5118 -0.0452  2.4483
  626MOL0     H84467   0.366   7.272   0.087  1.1290 -2.1406 -1.4810
  626MOL0     H84468   0.482   7.258  -0.122 -1.8563  3.7019  2.2530
  626MOL0     H84469   0.334   7.255  -0.215  0.8495  1.9275  0.0095
  626MOL0     H84470   0.287   6.840  -0.061 -0.1550  1.9153 -1.8002
  626MOL0     H84471   0.350   6.720   0.127  2.7261 -1.5536 -0.3388
  626MOL0     H84472   0.537   6.466   0.325  1.2221 -1.0384  0.3415
  626MOL0     H84473   0.591   6.285   0.497 -3.4074 -1.1446  0.5237
  626MOL0     H84474   0.363   6.341   0.826 -1.1056 -0.2129 -1.3046
  626MOL0     H84475   0.379   6.211   0.711 -2.1004  0.8165  1.3825
  626MOL0     H84476   0.354   6.118   0.932 -0.2015 -0.2287  1.6681
  626MOL0     H84477   0.518   6.098   0.875 -1.5504  1.2580 -3.7388
  626MOL0     H84478   0.544   6.158   1.094  0.1558  0.2029  1.1880
  626MOL0     H84479   0.574   6.308   1.012 -1.9951  1.6250 -1.9103
  626MOL0     H84480   0.305   6.247   1.124 -1.5709  1.2681  1.2012
  626MOL0     H84481   0.352   6.406   1.077  1.0508  0.8498  0.0832
  626MOL0     H84482   0.471   6.441   1.281 -4.1230  1.6331 -0.1112
  626MOL0     H84483   0.510   6.259   1.301 -0.7373 -1.0209  0.2636
  626MOL0     H84484   0.242   6.399   1.329  1.7314  2.7916 -0.1612
  626MOL0     H84485   0.294   6.230   1.392  1.8907 -1.4980  1.2463
  626MOL0     H84486   0.380   6.494   1.474  0.5490 -0.1862 -0.5741
  626MOL0     H84487   0.448   6.348   1.542  0.1403  0.5835 -1.1650
  626MOL0     H84488   0.181   6.461   1.606  0.5304  0.2693 -0.1548
  626MOL0     H84489   0.189   6.290   1.574 -1.6040  1.1271 -1.4667
  626MOL0     H84490   0.481   6.557   0.810  0.3740  0.7918 -0.3472
  626MOL0     H84491   0.445   6.728   0.645  1.4650  1.5063 -2.6345
  626MOL0     H84492   0.637   7.031   0.234  1.2000 -0.9902 -1.0256
  626MOL0     H84493   0.588   7.143   0.048  0.5505 -0.8403 -2.3714
  626MOL0     H84494   0.262   7.512   1.660 -0.9730 -2.1320 -2.0555
  626MOL0     H84495   0.389   7.363   1.820 -1.9350  2.2487  0.5051
  626MOL0     H84496   0.622   6.927   1.850 -0.1315  1.3677 -0.0128
  626MOL0     H84497   0.788   6.803   1.973 -1.1551  0.0535  0.3152
  626MOL0     H84498   1.027   6.699   1.963  1.6084 -2.6220  0.3521
  626MOL0     H84499   0.934   6.745   2.128  2.0031 -1.5387  1.8189
  626MOL0     H84500   1.234   6.717   2.088 -0.7422 -2.1390 -2.1173
  626MOL0     H84501   1.146   6.573   2.090  0.4308  0.5953 -3.3276
  626MOL0     H84502   1.098   6.624   2.342  1.1180  0.8753  2.5989
  626MOL0     H84503   1.124   6.796   2.296  1.9846  0.0170  0.2594
  626MOL0     H84504   1.305   6.700   2.431  0.0068 -0.8857  0.1769
  626MOL0     H84505   1.334   6.574   2.310  0.2025 -0.8024  3.2402
  626MOL0     H84506   1.616   6.871   2.225  0.7813 -0.3945  2.1049
  626MOL0     H84507   1.059   7.130   1.967 -0.2418  2.1054 -1.1648
  626MOL0     H84508   1.006   7.318   1.844 -0.6831  0.2081 -1.5466
  626MOL0     H84509   0.866   7.324   1.732  1.0281 -0.9184 -1.4901
  626MOL0     H84510   0.853   7.386   1.894  0.0096 -0.1266  0.2976
  627MOL0     O84511   5.287   5.287  10.800 -0.4096  0.2808 -0.1514
  627MOL0     C84512   5.194   5.335  10.739  0.3582 -0.3253  0.1307
  627MOL0     O84513   5.108   5.425  10.783  0.0063 -0.2295  0.6908
  627MOL0     C84514   5.068   5.420  10.922  0.5935 -0.1617  1.0863
  627MOL0     C84515   4.987   5.527  10.952  0.1321 -1.1233 -0.4602
  627MOL0     C84516   4.934   5.547  11.083  1.0327 -0.2160 -0.2595
  627MOL0     C84517   4.972   5.452  11.184 -0.4483 -0.3745 -0.1084
  627MOL0     O84518   4.914   5.468  11.307 -0.1669  0.0953  0.0556
  627MOL0     C84519   4.859   5.350  11.377  0.0232  0.5248  0.6569
  627MOL0     C84520   4.789   5.396  11.515 -0.3572 -0.1171 -0.1980
  627MOL0     C84521   4.655   5.469  11.496  0.6339 -0.6984  0.4259
  627MOL0     C84522   4.651   5.596  11.410 -0.1094 -0.6914  0.5642
  627MOL0     C84523   4.520   5.678  11.432  0.1215 -0.2229  0.2049
  627MOL0     C84524   4.397   5.620  11.382 -0.5542 -0.2653 -0.3721
  627MOL0     C84525   4.384   5.627  11.228 -0.2872  0.3457 -0.1257
  627MOL0     C84526   4.443   5.750  11.153  0.2181  0.4775  0.3096
  627MOL0     N84527   4.355   5.867  11.161  0.4264  0.0999  0.4896
  627MOL0     C84528   4.385   5.997  11.161  0.5302 -0.9116 -0.5372
  627MOL0     C84529   4.272   6.065  11.158  0.2765 -0.3972  0.0302
  627MOL0     C84530   4.241   6.206  11.135 -0.7095 -0.4154 -0.5718
  627MOL0     C84531   4.173   6.287  11.247  0.8482 -0.4583 -0.4903
  627MOL0     C84532   4.264   6.308  11.369 -0.4010 -0.1152 -0.8511
  627MOL0     C84533   4.397   6.366  11.325 -0.3134 -0.7190  0.0211
  627MOL0     O84534   4.467   6.409  11.438  0.1360 -0.6577 -0.7078
  627MOL0     C84535   4.435   6.532  11.480  1.0013 -0.1008 -0.3622
  627MOL0     C84536   4.492   6.654  11.435  0.3714  0.4791  0.5881
  627MOL0     C84537   4.475   6.782  11.492  0.0552  0.4904  1.2143
  627MOL0     C84538   4.398   6.798  11.604 -0.1659  0.3187  0.0854
  627MOL0     C84539   4.363   6.930  11.657 -0.4070 -0.1187  1.0673
  627MOL0     O84540   4.431   7.048  11.613 -0.0047  0.2700 -0.2599
  627MOL0     C84541   4.401   7.168  11.686  0.2500  0.7152  0.4531
  627MOL0     C84542   4.387   7.274  11.600 -0.6153  0.0676  0.1074
  627MOL0     C84543   4.359   7.392  11.655  0.1387 -1.1443 -0.2884
  627MOL0     C84544   4.336   7.406  11.797 -0.1010  0.2504 -1.3337
  627MOL0     O84545   4.302   7.529  11.852  0.4748 -0.7186 -0.2131
  627MOL0     C84546   4.379   7.566  11.971  0.0856  0.2108 -0.2847
  627MOL0     C84547   4.359   7.714  12.004  0.7257  0.6771 -0.7848
  627MOL0     C84548   4.218   7.750  12.071 -0.8746  1.4552 -0.2220
  627MOL0     C84549   4.204   7.901  12.087  0.1716 -0.2130  0.9828
  627MOL0     C84550   4.064   7.944  12.118  0.7472  0.0961 -0.1214
  627MOL0     C84551   4.049   8.096  12.096 -0.1768  0.2842  0.4179
  627MOL0     C84552   3.925   8.147  12.172 -0.3179 -0.5637  0.2635
  627MOL0     C84553   3.801   8.108  12.079 -0.3582 -1.0189 -0.5495
  627MOL0    Cl84554   3.650   8.201  12.129 -0.5642 -0.2556 -0.1251
  627MOL0     C84555   4.360   7.295  11.879 -0.3336 -0.0602  0.5299
  627MOL0     C84556   4.387   7.172  11.826 -0.3611  0.2058 -0.0768
  627MOL0     O84557   4.267   6.927  11.733  0.5295 -0.7431 -0.2680
  627MOL0     C84558   4.338   6.678  11.660 -0.2451 -0.1944 -0.0307
  627MOL0     C84559   4.364   6.551  11.603 -1.6510  0.5115  0.3492
  627MOL0     N84560   4.174   5.971  11.161 -0.2923  0.8086  0.7086
  627MOL0     N84561   4.220   5.856  11.171  0.2917  0.2880 -1.1647
  627MOL0     C84562   5.052   5.338  11.149  0.3187 -0.6631  0.7463
  627MOL0     C84563   5.102   5.317  11.017  0.7049  0.3395 -0.3975
  627MOL0     C84564   5.190   5.318  10.589  0.5432  0.4918  0.1667
  627MOL0     C84565   5.308   5.269  10.527 -0.0294  0.2270 -0.5355
  627MOL0     C84566   5.315   5.244  10.393  0.1198  0.4586  1.0988
  627MOL0     C84567   5.200   5.272  10.313  0.3753  0.2238 -0.0543
  627MOL0     O84568   5.226   5.256  10.183 -0.0717 -0.6765  0.2281
  627MOL0     C84569   5.116   5.279  10.093 -0.5158  1.2248 -0.3320
  627MOL0     C84570   5.166   5.263   9.947  0.5134  0.3045 -0.1989
  627MOL0     C84571   5.196   5.112   9.924 -0.6133 -0.3480 -0.3370
  627MOL0     C84572   5.260   5.078   9.789 -0.7565 -0.3302 -0.1867
  627MOL0     C84573   5.151   5.088   9.685  0.8672 -0.3735 -0.3047
  627MOL0     C84574   5.068   5.104   9.598 -0.7303 -0.2693 -0.8056
  627MOL0     C84575   5.086   5.325  10.372  0.4235  0.0260  0.1669
  627MOL0     C84576   5.080   5.354  10.508  0.4378  0.3697  0.1113
  627MOL0     C84577   4.952   5.416  10.563 -0.8185 -0.4485  0.0261
  627MOL0     H84578   4.961   5.604  10.881 -4.1691  1.3858  3.3152
  627MOL0     H84579   4.873   5.631  11.113 -2.2469 -2.1662 -0.9197
  627MOL0     H84580   4.780   5.300  11.320 -1.1325  0.3018  2.3682
  627MOL0     H84581   4.943   5.282  11.390  0.1836  0.0272 -2.2526
  627MOL0     H84582   4.866   5.451  11.571  0.0793  0.2451 -1.1350
  627MOL0     H84583   4.771   5.304  11.571  2.6783  0.5243  2.1419
  627MOL0     H84584   4.609   5.500  11.591  0.4580  4.3002 -0.9929
  627MOL0     H84585   4.582   5.396  11.459 -0.2820  0.9774 -1.2282
  627MOL0     H84586   4.728   5.665  11.445 -0.1602  0.7610 -1.9006
  627MOL0     H84587   4.662   5.569  11.304 -1.9845 -0.9553  0.3939
  627MOL0     H84588   4.512   5.667  11.541  1.3947 -1.3042  0.2129
  627MOL0     H84589   4.532   5.779  11.392 -1.6978 -0.8567 -2.1310
  627MOL0     H84590   4.402   5.519  11.422  0.9238 -0.2782 -0.5240
  627MOL0     H84591   4.308   5.670  11.422  1.2586  2.6557  0.3629
  627MOL0     H84592   4.275   5.626  11.220 -0.5889  2.2560  2.4774
  627MOL0     H84593   4.429   5.539  11.182 -0.5615  0.0381  0.1919
  627MOL0     H84594   4.543   5.781  11.186  0.9172 -1.4590  0.1585
  627MOL0     H84595   4.431   5.722  11.048  1.4727 -3.1137  0.9950
  627MOL0     H84596   4.476   6.044  11.125 -0.7174 -0.0013 -2.7076
  627MOL0     H84597   4.336   6.250  11.105  0.9659 -1.1997  3.0924
  627MOL0     H84598   4.172   6.214  11.050  1.0372  4.1893 -1.8313
  627MOL0     H84599   4.182   6.387  11.203  7.3419 -0.3082  0.1627
  627MOL0     H84600   4.076   6.244  11.273  1.1757 -0.1632  1.2861
  627MOL0     H84601   4.275   6.210  11.415 -2.3811 -2.8462 -5.5028
  627MOL0     H84602   4.212   6.377  11.436 -1.7374 -0.3358 -1.6320
  627MOL0     H84603   4.383   6.450  11.256  0.8460 -1.4913 -1.2067
  627MOL0     H84604   4.456   6.293  11.270  1.1277  0.7348 -0.4671
  627MOL0     H84605   4.560   6.650  11.351  0.3286  0.3925  0.5583
  627MOL0     H84606   4.529   6.859  11.438 -1.3153 -1.5504 -3.6004
  627MOL0     H84607   4.394   7.246  11.496  0.3306 -0.1898  0.2260
  627MOL0     H84608   4.342   7.489  11.608 -5.2792 -1.1808  0.8843
  627MOL0     H84609   4.345   7.505  12.055 -0.2639 -1.6614 -1.7124
  627MOL0     H84610   4.484   7.533  11.966  0.4203 -0.5297  5.3038
  627MOL0     H84611   4.435   7.756  12.070  1.5132 -1.6841 -0.0994
  627MOL0     H84612   4.374   7.766  11.910  1.8610  2.6071  0.4003
  627MOL0     H84613   4.139   7.700  12.015 -0.7576 -3.1367  3.1206
  627MOL0     H84614   4.212   7.707  12.172 -0.9756 -2.0779 -1.6123
  627MOL0     H84615   4.230   7.943  11.989 -3.6068 -0.0710 -0.1265
  627MOL0     H84616   4.268   7.949  12.161  2.1452 -2.3245  0.7389
  627MOL0     H84617   4.053   7.940  12.227  0.2305  2.2776 -0.0318
  627MOL0     H84618   3.982   7.895  12.064 -0.7841  0.2929  1.8750
  627MOL0     H84619   4.133   8.144  12.149 -1.6529  0.7125  2.5054
  627MOL0     H84620   4.045   8.111  11.988 -1.5674  3.3316  0.7851
  627MOL0     H84621   3.933   8.256  12.180  3.5414 -0.8173  2.5726
  627MOL0     H84622   3.907   8.102  12.270 -1.6128 -1.4948 -0.3688
  627MOL0     H84623   3.818   8.143  11.977  3.0718 -0.1565  0.1975
  627MOL0     H84624   3.787   8.000  12.070 -0.9554 -1.1490  1.5603
  627MOL0     H84625   4.361   7.318  11.985 -1.3781 -0.6084  0.6768
  627MOL0     H84626   4.394   7.091  11.898  1.8880  1.4245  1.2024
  627MOL0     H84627   4.266   6.691  11.739 -0.0081  0.5232  0.0735
  627MOL0     H84628   4.313   6.466  11.646  0.5635 -2.3124 -2.1340
  627MOL0     H84629   5.071   5.277  11.236  1.0322  0.9296  1.7653
  627MOL0     H84630   5.170   5.234  11.000  0.0879 -0.6844  1.7342
  627MOL0     H84631   5.402   5.241  10.573  0.4511 -0.0561 -1.6578
  627MOL0     H84632   5.410   5.205  10.357  0.3520  1.5664  0.4498
  627MOL0     H84633   5.065   5.374  10.111 -4.7990 -1.0327  0.6969
  627MOL0     H84634   5.053   5.193  10.120 -0.5002  1.7462  1.4807
  627MOL0     H84635   5.246   5.326   9.908 -0.6060 -0.0554 -3.3497
  627MOL0     H84636   5.080   5.293   9.887  0.0058  0.3696  0.5403
  627MOL0     H84637   5.103   5.055   9.932 -1.9270  1.9325  3.1182
  627MOL0     H84638   5.267   5.072   9.998  0.6589  1.3775 -0.5740
  627MOL0     H84639   5.345   5.140   9.761 -1.7576  1.6844  1.0229
  627MOL0     H84640   5.296   4.976   9.774 -1.0759 -0.5502  0.5141
  627MOL0     H84641   4.988   5.107   9.526 -3.3127 -1.5180  1.8196
  627MOL0     H84642   4.999   5.349  10.313 -0.0409 -1.0129  0.4116
  627MOL0     H84643   4.976   5.510  10.615  0.1409  1.0269 -2.8473
  627MOL0     H84644   4.879   5.435  10.483 -1.1296  0.2317  0.4580
  627MOL0     H84645   4.896   5.358  10.637  0.5543 -1.1828  0.5084
  628MOL0     O84646   3.242  10.672  10.376 -0.2198 -0.6933  0.4479
  628MOL0     C84647   3.227  10.679  10.496 -0.1589  0.2761 -0.1795
  628MOL0     O84648   3.133  10.744  10.559 -0.4470  0.7717 -0.6507
  628MOL0     C84649   3.028  10.795  10.485 -0.7484 -0.0522 -0.2615
  628MOL0     C84650   2.905  10.738  10.468  0.5180  0.3629  0.6082
  628MOL0     C84651   2.808  10.808  10.399 -0.6106  0.0406  0.6999
  628MOL0     C84652   2.841  10.945  10.345  0.2920  0.4812 -0.4793
  628MOL0     O84653   2.748  11.007  10.259 -0.5730 -0.1923  0.3307
  628MOL0     C84654   2.802  11.095  10.155 -0.0752  1.2841  0.3682
  628MOL0     C84655   2.680  11.158  10.096  1.0974  0.1713 -0.2649
  628MOL0     C84656   2.729  11.284  10.024  0.2183 -0.5663 -0.1154
  628MOL0     C84657   2.739  11.419  10.089  0.5656  0.3341  0.2799
  628MOL0     C84658   2.596  11.464  10.116  0.0898 -0.5382 -0.8533
  628MOL0     C84659   2.584  11.612  10.152 -1.1569  0.5113  0.0512
  628MOL0     C84660   2.433  11.651  10.176 -0.1994  0.5695 -0.2396
  628MOL0     C84661   2.412  11.794  10.236  0.1807 -0.1089  0.1921
  628MOL0     N84662   2.508  11.901  10.198 -0.0468  0.2475  0.6091
  628MOL0     C84663   2.491  11.995  10.101 -0.1870  0.5338  0.3318
  628MOL0     C84664   2.610  12.057  10.101 -0.7781  0.5380 -0.2608
  628MOL0     C84665   2.656  12.166  10.014  0.6175 -0.2352 -0.2430
  628MOL0     C84666   2.605  12.300  10.071  0.2682  0.3007 -0.0634
  628MOL0     C84667   2.693  12.412  10.033  0.4553  0.1187  0.4485
  628MOL0     C84668   2.701  12.465   9.883 -0.4850 -0.7139 -0.0204
  628MOL0     O84669   2.829  12.437   9.831  0.2487 -0.1825 -0.3020
  628MOL0     C84670   2.842  12.339   9.742 -0.1893 -0.0646  0.2114
  628MOL0     C84671   2.974  12.308   9.721 -0.7869  0.4653  0.4029
  628MOL0     C84672   3.008  12.217   9.625  0.0935  0.8155  0.1874
  628MOL0     C84673   2.913  12.124   9.568  0.2075 -0.4779  0.3224
  628MOL0     C84674   2.954  12.021   9.463  0.7599  1.6790  0.1897
  628MOL0     O84675   3.094  12.016   9.444  0.4971  0.2750  0.5339
  628MOL0     C84676   3.141  11.924   9.359 -0.4552 -0.9389  0.5605
  628MOL0     C84677   3.140  11.787   9.385  0.3663 -0.3363 -0.7400
  628MOL0     C84678   3.192  11.692   9.291  0.7547 -0.1067  0.3054
  628MOL0     C84679   3.232  11.741   9.162 -0.2309 -0.4806 -0.6522
  628MOL0     O84680   3.280  11.665   9.053 -0.7228  0.1937 -1.0109
  628MOL0     C84681   3.312  11.527   9.082 -0.4993  0.6455 -1.4410
  628MOL0     C84682   3.191  11.439   9.063 -0.9731 -0.2201 -0.1099
  628MOL0     C84683   3.121  11.451   8.935  0.4435 -0.4272  0.2463
  628MOL0     C84684   2.991  11.368   8.943 -0.9517  0.1573  0.0281
  628MOL0     C84685   2.910  11.374   8.816 -0.5675 -0.0048 -0.0937
  628MOL0     C84686   2.833  11.502   8.805 -0.2449 -0.2562  0.6182
  628MOL0     C84687   2.727  11.488   8.698  0.4517  0.4366 -0.3664
  628MOL0     C84688   2.623  11.610   8.703 -0.3700  0.3041  0.8639
  628MOL0    Cl84689   2.690  11.766   8.614  0.1567 -0.1032  0.2516
  628MOL0     C84690   3.229  11.878   9.138  0.4147  0.4664  0.2090
  628MOL0     C84691   3.195  11.969   9.235  1.1185 -0.4535 -0.6503
  628MOL0     O84692   2.869  11.950   9.403  0.1672 -0.0949 -0.0546
  628MOL0     C84693   2.771  12.147   9.596  0.3923  0.8762 -0.9758
  628MOL0     C84694   2.746  12.250   9.691  0.2792  0.5281 -0.2433
  628MOL0     N84695   2.695  12.017  10.194 -0.2558 -0.0178 -0.1737
  628MOL0     N84696   2.637  11.922  10.262  0.6276  0.5446 -0.2135
  628MOL0     C84697   2.959  10.995  10.380  0.2343 -0.6181  0.5588
  628MOL0     C84698   3.051  10.926  10.451 -0.4491  0.3402 -0.1484
  628MOL0     C84699   3.315  10.589  10.587 -0.3215 -0.5077 -1.1556
  628MOL0     C84700   3.276  10.554  10.712  0.5062 -0.8937 -0.0479
  628MOL0     C84701   3.349  10.484  10.804  0.3190 -0.2843  0.1607
  628MOL0     C84702   3.477  10.441  10.763 -0.0241 -0.0642  0.0750
  628MOL0     O84703   3.559  10.366  10.840 -0.2458 -0.6941  0.4363
  628MOL0     C84704   3.506  10.330  10.968  0.7026 -0.4611  0.1339
  628MOL0     C84705   3.604  10.232  11.041  0.2769  0.1409 -0.4757
  628MOL0     C84706   3.600  10.264  11.188  0.4734 -0.5277 -0.1851
  628MOL0     C84707   3.731  10.209  11.232 -0.1480  0.5484  0.7431
  628MOL0     C84708   3.716  10.194  11.374  0.1410 -0.1031 -0.2620
  628MOL0     C84709   3.720  10.187  11.497 -0.0901 -0.6957  0.1713
  628MOL0     C84710   3.518  10.466  10.633 -0.9246 -0.3807  0.2617
  628MOL0     C84711   3.438  10.538  10.545  0.6263  0.6699  0.9363
  628MOL0     C84712   3.496  10.579  10.412 -0.0825 -0.0858 -0.9627
  628MOL0     H84713   2.895  10.633  10.493  1.1823  0.1836  0.1486
  628MOL0     H84714   2.709  10.768  10.375 -0.5528  0.8861 -1.0630
  628MOL0     H84715   2.860  11.176  10.200  0.5314  0.6692  0.7187
  628MOL0     H84716   2.864  11.036  10.087 -1.3371  2.5610 -2.0231
  628MOL0     H84717   2.597  11.176  10.166  0.5800  0.7423 -1.0103
  628MOL0     H84718   2.650  11.082  10.022  1.4191 -0.5549  0.3396
  628MOL0     H84719   2.667  11.300   9.935  1.2652  1.1652 -0.5979
  628MOL0     H84720   2.831  11.269   9.987  0.3945 -0.9642  0.5156
  628MOL0     H84721   2.800  11.409  10.179 -0.1187  1.2793  0.8706
  628MOL0     H84722   2.789  11.496  10.030  1.9899 -0.1722  0.7894
  628MOL0     H84723   2.535  11.456  10.025  0.8793  1.5617 -1.6332
  628MOL0     H84724   2.549  11.386  10.177 -1.6343 -1.6189 -3.3581
  628MOL0     H84725   2.642  11.637  10.241  0.3636 -0.8533 -0.5181
  628MOL0     H84726   2.635  11.667  10.073 -1.6549 -1.4342 -1.7009
  628MOL0     H84727   2.389  11.587  10.253 -0.3572 -3.0154 -3.0436
  628MOL0     H84728   2.372  11.631  10.088  1.3818  1.0856 -1.5091
  628MOL0     H84729   2.309  11.813  10.207  0.5145  0.6240 -0.5598
  628MOL0     H84730   2.412  11.790  10.346 -1.7321  3.9792  0.5243
  628MOL0     H84731   2.403  12.008  10.040  0.1573  0.1822 -0.2578
  628MOL0     H84732   2.764  12.167  10.000  0.4715 -0.7520 -1.4782
  628MOL0     H84733   2.617  12.147   9.914  0.0570  1.0128 -0.2886
  628MOL0     H84734   2.501  12.312  10.039  0.4248  0.6558 -0.4532
  628MOL0     H84735   2.600  12.287  10.179  0.3196  0.7111 -0.0110
  628MOL0     H84736   2.794  12.392  10.068 -0.7107 -3.4938  2.2885
  628MOL0     H84737   2.648  12.492  10.092 -1.3969  0.5416 -1.4208
  628MOL0     H84738   2.703  12.574   9.886 -3.4403 -0.4502 -2.6426
  628MOL0     H84739   2.621  12.433   9.815 -0.5029  0.7243 -0.7019
  628MOL0     H84740   3.056  12.363   9.766  1.5429  0.3553 -3.2473
  628MOL0     H84741   3.111  12.187   9.610 -1.0642 -3.0118 -1.4831
  628MOL0     H84742   3.101  11.753   9.480 -1.7152  1.5970 -0.7908
  628MOL0     H84743   3.195  11.587   9.320  1.8798  0.7605  3.7908
  628MOL0     H84744   3.388  11.495   9.011  1.0027  1.8869 -0.4460
  628MOL0     H84745   3.344  11.512   9.186 -3.0704  0.2440 -0.6365
  628MOL0     H84746   3.214  11.334   9.082 -1.3979 -0.5488 -1.2673
  628MOL0     H84747   3.118  11.464   9.141  0.6871  0.0099  1.4277
  628MOL0     H84748   3.093  11.555   8.917 -0.9514 -0.0090  3.8384
  628MOL0     H84749   3.182  11.414   8.852 -0.6409  1.2328 -1.3656
  628MOL0     H84750   2.935  11.406   9.029 -2.3009  0.6032 -1.0210
  628MOL0     H84751   3.030  11.266   8.954  2.6112  1.3594  0.0549
  628MOL0     H84752   2.839  11.290   8.814  1.2179 -1.5768 -0.4904
  628MOL0     H84753   2.977  11.346   8.734 -1.4780 -0.3458 -0.7345
  628MOL0     H84754   2.780  11.517   8.899 -1.5027  1.6642 -0.3402
  628MOL0     H84755   2.906  11.583   8.791 -2.9797  2.1875 -0.5507
  628MOL0     H84756   2.675  11.392   8.706  0.1121  0.5800 -0.7886
  628MOL0     H84757   2.786  11.484   8.606  4.1110 -0.4751  1.8066
  628MOL0     H84758   2.530  11.584   8.651  2.7491 -1.3065 -4.8217
  628MOL0     H84759   2.595  11.634   8.805  0.0458  4.5246  0.1708
  628MOL0     H84760   3.271  11.898   9.039  3.3652  1.9356  1.6384
  628MOL0     H84761   3.186  12.072   9.202 -2.8848 -0.6974 -0.8540
  628MOL0     H84762   2.696  12.081   9.554 -0.2963  0.5341  0.6898
  628MOL0     H84763   2.643  12.260   9.723  0.6935  0.7413  1.1009
  628MOL0     H84764   2.976  11.098  10.352  2.9983 -1.5253 -1.5970
  628MOL0     H84765   3.138  10.990  10.464 -1.1060  0.9680  1.5141
  628MOL0     H84766   3.178  10.580  10.752  0.7753  0.6822 -0.3571
  628MOL0     H84767   3.305  10.461  10.901  3.0557 -2.7406  0.9864
  628MOL0     H84768   3.409  10.284  10.951  0.0765  0.6190  0.6637
  628MOL0     H84769   3.485  10.421  11.025 -0.6967  0.2098 -1.3856
  628MOL0     H84770   3.703  10.221  10.994  0.1840 -2.2113 -0.2408
  628MOL0     H84771   3.560  10.133  11.029 -3.1812  1.4932  0.0917
  628MOL0     H84772   3.523  10.206  11.241 -0.2838  2.8390  2.7605
  628MOL0     H84773   3.597  10.372  11.203 -1.3411 -0.2816 -1.8625
  628MOL0     H84774   3.756  10.114  11.185  2.1040  2.0536 -1.3360
  628MOL0     H84775   3.814  10.275  11.205  2.6394 -3.3641 -1.1542
  628MOL0     H84776   3.717  10.175  11.604  0.3068 -3.1602 -0.0393
  628MOL0     H84777   3.610  10.411  10.617  0.3391  2.1112 -1.7458
  628MOL0     H84778   3.453  10.527  10.326 -1.9313 -2.7370  1.3575
  628MOL0     H84779   3.487  10.687  10.398 -2.1173 -0.1563 -0.4906
  628MOL0     H84780   3.601  10.550  10.410  0.1714  0.7844 -0.5919
  629MOL0     O84781   5.224   1.109   6.507  0.1529  0.1694  0.0941
  629MOL0     C84782   5.180   1.038   6.415 -0.2503 -0.0654 -0.3656
  629MOL0     O84783   5.240   1.030   6.288  0.6436  0.4474 -0.4580
  629MOL0     C84784   5.326   1.137   6.245 -0.1749  0.5194 -0.8292
  629MOL0     C84785   5.439   1.106   6.174 -0.1129 -1.0001  0.1425
  629MOL0     C84786   5.527   1.203   6.124 -0.2871  0.2018 -0.9594
  629MOL0     C84787   5.491   1.337   6.154  0.2901 -0.2723  0.9769
  629MOL0     O84788   5.569   1.442   6.125  0.5391  1.2838 -0.3091
  629MOL0     C84789   5.714   1.427   6.124  0.3554 -1.0484 -0.6723
  629MOL0     C84790   5.799   1.551   6.153 -0.9017  0.9840 -0.6274
  629MOL0     C84791   5.792   1.665   6.051 -0.2745  0.6910  0.1060
  629MOL0     C84792   5.878   1.776   6.107  0.7838 -0.3674  0.4990
  629MOL0     C84793   5.877   1.896   6.023 -0.2492  0.3570 -0.8863
  629MOL0     C84794   5.966   2.000   6.088  0.2394 -0.8196  0.5513
  629MOL0     C84795   5.986   2.125   5.994 -0.4556 -0.4826 -0.8071
  629MOL0     C84796   5.853   2.202   5.980 -0.4219 -0.0049 -0.1964
  629MOL0     N84797   5.854   2.327   5.907 -0.2363 -0.5529 -1.0793
  629MOL0     C84798   5.962   2.413   5.901  0.5803 -0.5031  0.2483
  629MOL0     C84799   5.958   2.497   5.780  0.6959  0.3418  0.3448
  629MOL0     C84800   6.067   2.604   5.745  1.5316 -0.5393 -0.3149
  629MOL0     C84801   6.100   2.590   5.593 -0.0377 -0.1050  0.7585
  629MOL0     C84802   5.987   2.646   5.494 -0.7758 -0.3498 -0.2044
  629MOL0     C84803   5.987   2.797   5.479  0.0559 -0.5113  0.5396
  629MOL0     O84804   5.957   2.859   5.607  0.0609 -0.5217  0.1243
  629MOL0     C84805   5.908   2.984   5.620  1.1285 -0.6759 -0.1891
  629MOL0     C84806   5.842   3.067   5.527  0.2391 -0.3671 -0.1947
  629MOL0     C84807   5.819   3.202   5.571  0.7116 -0.0530 -0.5411
  629MOL0     C84808   5.850   3.240   5.695  0.5983 -1.3847  1.0266
  629MOL0     C84809   5.827   3.386   5.733  0.8748  0.4031  0.1071
  629MOL0     O84810   5.881   3.437   5.845 -0.7604  0.4145  0.6521
  629MOL0     C84811   5.858   3.563   5.889  1.1176 -0.3961  0.8165
  629MOL0     C84812   5.964   3.649   5.891  0.5367  0.0664 -0.0523
  629MOL0     C84813   5.946   3.782   5.890  1.6008  0.4749 -0.1208
  629MOL0     C84814   5.818   3.835   5.900  0.4971  0.3954  0.8768
  629MOL0     O84815   5.803   3.974   5.925 -0.4852  0.0189  0.1873
  629MOL0     C84816   5.922   4.061   5.883  0.0564 -0.0837  0.2738
  629MOL0     C84817   5.935   4.060   5.733  0.4076  0.7462  0.4973
  629MOL0     C84818   6.007   4.180   5.681 -0.4503 -0.2820 -0.3447
  629MOL0     C84819   6.019   4.190   5.523 -0.2935  0.0920 -0.4798
  629MOL0     C84820   6.125   4.298   5.495 -0.0225 -0.2399 -0.1421
  629MOL0     C84821   6.135   4.337   5.347 -0.3746 -0.6124  0.1031
  629MOL0     C84822   6.259   4.425   5.320 -0.4312  0.4283 -0.5990
  629MOL0     C84823   6.249   4.484   5.182 -0.3143  0.1559  0.5577
  629MOL0    Cl84824   6.263   4.369   5.046  0.1754 -0.6474  0.1345
  629MOL0     C84825   5.711   3.755   5.905  0.5055  0.3710 -0.2255
  629MOL0     C84826   5.725   3.612   5.903  0.0530 -0.6682  0.6004
  629MOL0     O84827   5.776   3.457   5.646  0.1741  0.0442 -0.0568
  629MOL0     C84828   5.926   3.160   5.779 -0.1551 -0.1531  1.1907
  629MOL0     C84829   5.940   3.029   5.747  0.5137 -0.8653 -0.0013
  629MOL0     N84830   5.826   2.460   5.736  0.6504 -0.0542 -0.2582
  629MOL0     N84831   5.781   2.350   5.794  0.8050 -0.2538  0.1880
  629MOL0     C84832   5.378   1.369   6.224  0.1861 -0.0671 -0.1299
  629MOL0     C84833   5.298   1.264   6.272  1.1492 -0.0374 -0.3699
  629MOL0     C84834   5.051   0.960   6.433 -0.2580 -0.3116  0.8464
  629MOL0     C84835   4.990   0.909   6.318  0.3874  0.2114 -0.1119
  629MOL0     C84836   4.876   0.821   6.321 -0.1986  1.4694  0.4852
  629MOL0     C84837   4.825   0.775   6.438  0.0448 -0.2210 -0.9796
  629MOL0     O84838   4.719   0.686   6.432 -0.0185 -0.7095  0.2519
  629MOL0     C84839   4.690   0.621   6.557 -0.0539 -0.0264 -0.2803
  629MOL0     C84840   4.580   0.516   6.534 -0.4591  0.2196 -0.3113
  629MOL0     C84841   4.569   0.454   6.668 -0.0037 -0.2207 -0.1100
  629MOL0     C84842   4.449   0.348   6.652 -0.6674 -0.9782 -0.5861
  629MOL0     C84843   4.326   0.421   6.686 -0.7466  0.2986 -0.0672
  629MOL0     C84844   4.233   0.494   6.702 -0.2323  0.9552 -0.6566
  629MOL0     C84845   4.897   0.825   6.560  0.5030  0.3306  0.7128
  629MOL0     C84846   5.000   0.919   6.558 -0.6434 -0.1885 -0.0516
  629MOL0     C84847   5.054   0.955   6.692  0.8703 -0.7006  0.4577
  629MOL0     H84848   5.465   1.003   6.151 -0.7717 -1.2274  0.3922
  629MOL0     H84849   5.614   1.179   6.063 -0.5318 -2.3057 -0.4246
  629MOL0     H84850   5.735   1.359   6.207  0.0566  0.6007  0.8306
  629MOL0     H84851   5.741   1.371   6.034  0.0068  0.2397 -1.6157
  629MOL0     H84852   5.904   1.527   6.173 -1.2548 -0.7150 -0.6084
  629MOL0     H84853   5.758   1.576   6.251  0.8237 -0.2707  0.4561
  629MOL0     H84854   5.689   1.702   6.049  0.0829  1.6888 -0.1108
  629MOL0     H84855   5.817   1.626   5.951  0.1216 -2.8992  1.4383
  629MOL0     H84856   5.834   1.801   6.204  0.6272  1.3959  0.0016
  629MOL0     H84857   5.982   1.752   6.133  1.1302  0.6143  0.0962
  629MOL0     H84858   5.930   1.885   5.928  0.8120 -0.5639 -0.2037
  629MOL0     H84859   5.774   1.932   6.013 -1.1983 -2.0676 -0.5741
  629MOL0     H84860   5.933   2.018   6.190 -2.5722 -2.8410  0.1198
  629MOL0     H84861   6.064   1.953   6.097 -0.3849 -2.1951  0.4467
  629MOL0     H84862   6.029   2.099   5.896  3.2239  1.3459  0.1723
  629MOL0     H84863   6.061   2.185   6.045  0.6309 -0.5957 -2.2196
  629MOL0     H84864   5.791   2.130   5.925  1.7031 -3.2422  1.2876
  629MOL0     H84865   5.811   2.221   6.079 -1.1960  0.8531 -0.6871
  629MOL0     H84866   6.044   2.416   5.972  1.0477  1.2597 -0.3147
  629MOL0     H84867   6.042   2.705   5.779 -1.6050 -1.4166  0.3651
  629MOL0     H84868   6.153   2.568   5.802  0.7607 -0.2949  1.0485
  629MOL0     H84869   6.188   2.648   5.564 -0.1449 -1.0564 -1.6761
  629MOL0     H84870   6.123   2.486   5.572 -0.7145 -0.0391 -0.3977
  629MOL0     H84871   5.886   2.613   5.522 -0.7130 -2.5080 -2.2530
  629MOL0     H84872   6.020   2.600   5.401 -1.7511 -2.4255  0.4034
  629MOL0     H84873   5.910   2.819   5.405  0.8508  1.4019  0.2213
  629MOL0     H84874   6.080   2.849   5.453  1.0467 -0.2565  4.1300
  629MOL0     H84875   5.820   3.034   5.427  2.3605  0.0365 -0.8517
  629MOL0     H84876   5.773   3.264   5.495 -3.1229  0.7818  2.1737
  629MOL0     H84877   6.065   3.619   5.863 -0.2999 -1.9110 -1.1616
  629MOL0     H84878   6.037   3.839   5.904  2.3358 -0.2771 -1.6183
  629MOL0     H84879   5.903   4.165   5.910  0.7196  0.8128 -2.3767
  629MOL0     H84880   6.012   4.029   5.937  0.2481 -1.3142 -0.7033
  629MOL0     H84881   5.984   3.969   5.698 -0.0683  1.5075 -2.3767
  629MOL0     H84882   5.834   4.061   5.690  0.8588  0.8456 -0.5657
  629MOL0     H84883   5.945   4.260   5.723 -0.7545 -0.8550  0.3248
  629MOL0     H84884   6.104   4.197   5.730 -0.8268  2.1803 -0.2952
  629MOL0     H84885   5.936   4.229   5.463 -0.2689 -0.4234 -0.8518
  629MOL0     H84886   6.050   4.093   5.482  0.2098  1.0692 -2.5416
  629MOL0     H84887   6.223   4.267   5.532 -1.2754 -3.1760  1.0333
  629MOL0     H84888   6.099   4.388   5.552  1.0863 -0.1422  0.2262
  629MOL0     H84889   6.133   4.245   5.287 -3.9300 -1.0940  0.7736
  629MOL0     H84890   6.048   4.393   5.312  0.3448  1.2530  1.1571
  629MOL0     H84891   6.343   4.354   5.325  2.1445  3.2010 -1.5201
  629MOL0     H84892   6.277   4.501   5.396  2.9626 -1.6585  0.9655
  629MOL0     H84893   6.147   4.524   5.176 -0.1466  0.4926 -0.1605
  629MOL0     H84894   6.317   4.569   5.173  0.9897 -0.4728  3.4844
  629MOL0     H84895   5.612   3.796   5.925  0.3185 -1.0394  2.0819
  629MOL0     H84896   5.639   3.547   5.893  1.6359 -2.5311 -2.4646
  629MOL0     H84897   5.967   3.192   5.874 -0.3677 -2.3075  2.0666
  629MOL0     H84898   5.997   2.970   5.819  2.3674  0.0321 -0.6446
  629MOL0     H84899   5.367   1.474   6.248 -1.0549 -0.3690  0.7304
  629MOL0     H84900   5.216   1.287   6.339  2.2106 -0.5197  1.1456
  629MOL0     H84901   5.035   0.939   6.224 -0.4686  0.6495 -0.3953
  629MOL0     H84902   4.822   0.793   6.231  0.0969  0.8748  0.4892
  629MOL0     H84903   4.652   0.702   6.619 -0.2065 -0.5951  0.3865
  629MOL0     H84904   4.772   0.574   6.613 -0.1279 -2.6177 -2.1342
  629MOL0     H84905   4.611   0.440   6.461 -0.4759 -1.7257  1.6159
  629MOL0     H84906   4.482   0.560   6.513 -2.5242 -2.3615  2.9773
  629MOL0     H84907   4.552   0.527   6.748 -2.0939 -0.2396 -0.4896
  629MOL0     H84908   4.660   0.398   6.690 -0.1702 -0.5258 -0.1963
  629MOL0     H84909   4.449   0.311   6.549  0.8364 -1.6031 -0.3981
  629MOL0     H84910   4.460   0.265   6.722  0.0821 -1.0888 -0.8173
  629MOL0     H84911   4.149   0.552   6.735  0.9431  2.2692  0.1133
  629MOL0     H84912   4.870   0.777   6.654 -2.2453  0.1848 -0.0620
  629MOL0     H84913   5.055   1.064   6.689 -3.0472 -0.5464  0.3528
  629MOL0     H84914   4.991   0.934   6.780  1.7309  2.2727  1.9175
  629MOL0     H84915   5.159   0.923   6.691  1.3821  0.8531  1.5872
  630MOL0     O84916  10.030   5.006   2.512  0.1732 -0.9044 -0.3529
  630MOL0     C84917  10.010   5.079   2.610  0.3320 -0.1403  0.4779
  630MOL0     O84918   9.950   5.042   2.731  0.4742  0.4598 -0.4904
  630MOL0     C84919   9.927   4.910   2.751  0.0273  0.0868 -0.1075
  630MOL0     C84920   9.827   4.834   2.680 -0.3884  0.3122 -0.0483
  630MOL0     C84921   9.821   4.700   2.720 -0.6629 -0.1569 -0.4374
  630MOL0     C84922   9.889   4.642   2.821  0.3091 -0.7712 -0.0101
  630MOL0     O84923   9.865   4.523   2.872  0.0057  0.9147  0.7036
  630MOL0     C84924   9.743   4.453   2.830  0.1013 -0.1765  0.0637
  630MOL0     C84925   9.762   4.369   2.700  1.1597  0.9445 -1.2495
  630MOL0     C84926   9.625   4.332   2.636  0.0023  0.2512  0.2169
  630MOL0     C84927   9.636   4.225   2.531  0.4657  0.6204  0.3012
  630MOL0     C84928   9.515   4.231   2.439  0.4031  0.4164 -0.1674
  630MOL0     C84929   9.493   4.353   2.355  0.0421  0.0341  0.2105
  630MOL0     C84930   9.382   4.333   2.250  0.5361 -0.0236 -0.4755
  630MOL0     C84931   9.400   4.454   2.144  0.5238  0.1114  0.2334
  630MOL0     N84932   9.446   4.390   2.013 -0.0193 -0.4694 -0.9075
  630MOL0     C84933   9.577   4.407   1.975  0.4698 -0.4055 -0.4598
  630MOL0     C84934   9.582   4.373   1.845 -0.9881  0.6316 -0.0324
  630MOL0     C84935   9.712   4.365   1.768  0.6493 -0.1478  0.0734
  630MOL0     C84936   9.704   4.414   1.628 -0.6822 -0.4966  0.2742
  630MOL0     C84937   9.844   4.424   1.567 -0.5301  0.4828  0.0957
  630MOL0     C84938   9.928   4.294   1.559  0.2078  0.1402  0.0911
  630MOL0     O84939   9.846   4.181   1.518 -0.4422  0.7078  0.2735
  630MOL0     C84940   9.809   4.179   1.383  0.0203 -0.9613 -0.7816
  630MOL0     C84941   9.704   4.092   1.337 -0.5518 -0.0883 -0.2217
  630MOL0     C84942   9.651   4.104   1.214  0.0927  0.2652 -0.3008
  630MOL0     C84943   9.713   4.187   1.109  0.9022  0.8389  0.8476
  630MOL0     C84944   9.654   4.182   0.974  0.8380 -0.1328  0.1274
  630MOL0     O84945   9.542   4.127   0.963  0.0223 -0.3469  0.4948
  630MOL0     C84946   9.482   4.095   0.842 -0.0685 -0.0864 -0.4587
  630MOL0     C84947   9.552   4.021   0.746  0.0171 -0.0770  0.3524
  630MOL0     C84948   9.487   3.962   0.637 -0.1048 -0.1259 -0.1349
  630MOL0     C84949   9.355   3.980   0.619  0.4526  0.7972 -0.6174
  630MOL0     O84950   9.291   3.912   0.515  0.2620 -0.0049  0.5184
  630MOL0     C84951   9.216   3.998   0.429 -0.3659  0.7357  1.0144
  630MOL0     C84952   9.282   3.987   0.286  0.5404  0.5812  0.4716
  630MOL0     C84953   9.184   4.029   0.176  0.2460 -0.1486 -0.4056
  630MOL0     C84954   9.063   3.939   0.157  0.5147 -0.0871  0.0601
  630MOL0     C84955   8.986   3.982   0.033  0.0911  0.4873 -1.0124
  630MOL0     C84956   8.845   3.915   0.014  0.3571  0.2450 -0.5960
  630MOL0     C84957   8.792   3.958  -0.121  0.5062  1.1501 -0.5557
  630MOL0     C84958   8.686   3.855  -0.191  0.0415 -1.0512  0.5731
  630MOL0    Cl84959   8.538   3.833  -0.080 -0.1891 -0.0949 -0.0253
  630MOL0     C84960   9.276   4.042   0.723 -0.3914  1.0902  0.1777
  630MOL0     C84961   9.344   4.107   0.833 -0.5592 -0.4342 -0.2479
  630MOL0     O84962   9.712   4.237   0.884 -0.0755 -0.2375 -0.2609
  630MOL0     C84963   9.823   4.264   1.148 -0.1536 -0.3738 -0.2177
  630MOL0     C84964   9.866   4.266   1.284 -0.5618  0.4645  0.3372
  630MOL0     N84965   9.456   4.335   1.809 -1.2897 -0.3228 -0.4636
  630MOL0     N84966   9.376   4.359   1.904  0.7113  0.6426 -0.2383
  630MOL0     C84967   9.990   4.720   2.887 -0.8180  0.9117  0.6596
  630MOL0     C84968  10.005   4.848   2.846 -0.2734  0.0738 -1.5772
  630MOL0     C84969  10.047   5.227   2.592 -0.1789  0.1377 -0.2244
  630MOL0     C84970   9.942   5.315   2.628  0.4587 -0.9144  0.6026
  630MOL0     C84971   9.960   5.449   2.609  0.6148 -0.3188  0.5700
  630MOL0     C84972  10.085   5.505   2.550  0.2828  0.8201 -0.3150
  630MOL0     O84973  10.093   5.636   2.510  0.1350  0.5863 -0.0520
  630MOL0     C84974  10.213   5.682   2.459 -0.3708  0.3044  0.1034
  630MOL0     C84975  10.190   5.812   2.384  0.5112  0.0303 -0.2672
  630MOL0     C84976  10.295   5.923   2.404  0.2297  0.0688 -0.0042
  630MOL0     C84977  10.306   5.989   2.536 -0.4359  0.3979  0.3756
  630MOL0     C84978  10.347   6.130   2.523 -0.7841  0.5538  0.7782
  630MOL0     C84979  10.394   6.245   2.520  0.3800 -0.9645  1.0942
  630MOL0     C84980  10.187   5.410   2.523  0.4957 -0.1760 -0.1881
  630MOL0     C84981  10.168   5.276   2.546  0.1170 -0.0323  1.2043
  630MOL0     C84982  10.263   5.172   2.490 -0.4893  0.0268  0.1957
  630MOL0     H84983   9.767   4.887   2.608  0.2227  2.8314  1.1607
  630MOL0     H84984   9.742   4.640   2.675  0.2983 -0.5031 -1.7141
  630MOL0     H84985   9.715   4.387   2.913 -2.4580  1.6701  0.7662
  630MOL0     H84986   9.654   4.516   2.824 -0.2008 -0.6646 -0.8297
  630MOL0     H84987   9.800   4.269   2.723 -1.3543 -0.5102 -3.0336
  630MOL0     H84988   9.821   4.418   2.622  0.5018  0.5606 -1.9945
  630MOL0     H84989   9.583   4.423   2.593  1.9580  0.9498 -0.3360
  630MOL0     H84990   9.560   4.289   2.713 -1.2705 -1.8820 -1.9115
  630MOL0     H84991   9.719   4.225   2.460 -1.6867 -2.4326 -2.5226
  630MOL0     H84992   9.638   4.128   2.581 -1.4228  1.6420  2.5500
  630MOL0     H84993   9.515   4.148   2.368 -1.0816  1.3680 -1.3426
  630MOL0     H84994   9.428   4.215   2.504  0.9781  0.5506  0.6502
  630MOL0     H84995   9.472   4.440   2.417  2.7318 -0.9238  2.6781
  630MOL0     H84996   9.586   4.372   2.300  0.0666  1.9498  0.8629
  630MOL0     H84997   9.283   4.362   2.287  0.4929 -1.5306  0.7053
  630MOL0     H84998   9.373   4.230   2.213 -5.3288 -0.8681  2.0552
  630MOL0     H84999   9.305   4.507   2.129 -1.8664 -3.3647  1.6824
  630MOL0     H85000   9.473   4.531   2.170 -1.1146  1.6857  0.3745
  630MOL0     H85001   9.655   4.437   2.044 -0.0528  0.3418 -0.1789
  630MOL0     H85002   9.780   4.429   1.825  0.0302  0.2817  0.3403
  630MOL0     H85003   9.757   4.267   1.756 -1.4513 -0.9308 -2.5269
  630MOL0     H85004   9.640   4.346   1.570  0.5368 -2.1838  0.8131
  630MOL0     H85005   9.665   4.515   1.620 -1.9967 -1.0269 -0.2185
  630MOL0     H85006   9.913   4.492   1.618  0.3727 -2.4602  3.1434
  630MOL0     H85007   9.834   4.458   1.464 -1.2245  1.9579  0.6149
  630MOL0     H85008   9.951   4.271   1.664  2.6259 -3.0969 -1.0047
  630MOL0     H85009  10.021   4.307   1.504  1.6644 -3.4635  1.3697
  630MOL0     H85010   9.655   4.021   1.403 -0.8013 -2.3565 -2.6506
  630MOL0     H85011   9.564   4.040   1.203  1.1283 -1.5259  1.3407
  630MOL0     H85012   9.658   4.016   0.769  0.6496  2.8445 -1.3368
  630MOL0     H85013   9.530   3.895   0.564 -0.9080 -0.9460  0.1387
  630MOL0     H85014   9.114   3.959   0.436  0.3102 -1.1653  0.6533
  630MOL0     H85015   9.216   4.098   0.475 -4.5769 -0.0393  3.2065
  630MOL0     H85016   9.370   4.052   0.288  0.1199  1.1565  0.5805
  630MOL0     H85017   9.310   3.882   0.273  1.6216  0.5432  2.6880
  630MOL0     H85018   9.148   4.132   0.181  1.2550  0.3699 -2.5680
  630MOL0     H85019   9.239   4.013   0.083 -3.3556 -0.5097 -2.6590
  630MOL0     H85020   8.993   3.935   0.242 -0.7315  0.6579 -0.8870
  630MOL0     H85021   9.094   3.837   0.134  1.1362 -0.0863  0.8485
  630MOL0     H85022   9.039   3.945  -0.056 -1.5865 -3.6497 -0.5236
  630MOL0     H85023   8.973   4.090   0.035 -0.8220  0.4133  2.6040
  630MOL0     H85024   8.846   3.806   0.015  0.6977  0.1718  2.9376
  630MOL0     H85025   8.774   3.945   0.092 -0.6258  0.1264 -1.4216
  630MOL0     H85026   8.872   3.952  -0.196  1.4479 -3.8310  0.4909
  630MOL0     H85027   8.747   4.057  -0.112  0.1825  1.0098 -0.6427
  630MOL0     H85028   8.652   3.891  -0.289 -0.4758 -0.5718  0.9288
  630MOL0     H85029   8.745   3.763  -0.199  2.3056  0.4074 -0.5213
  630MOL0     H85030   9.168   4.056   0.720 -1.0089 -2.7156 -0.4467
  630MOL0     H85031   9.287   4.146   0.916 -0.8064  0.1459 -0.6827
  630MOL0     H85032   9.877   4.335   1.086  3.0957 -1.1300  1.5506
  630MOL0     H85033   9.951   4.329   1.306 -0.8049  1.8608 -2.2680
  630MOL0     H85034  10.034   4.677   2.976  1.8579  1.4266 -0.3481
  630MOL0     H85035  10.081   4.902   2.903 -0.8570 -1.3427  0.6767
  630MOL0     H85036   9.850   5.279   2.672  0.1868  1.1216  1.8167
  630MOL0     H85037   9.876   5.512   2.634 -2.0275 -3.8012  1.2273
  630MOL0     H85038  10.260   5.613   2.387 -2.1838  0.2905 -1.1261
  630MOL0     H85039  10.279   5.695   2.545  0.7218 -0.4381 -0.5904
  630MOL0     H85040  10.092   5.854   2.412  0.4635  0.3716 -0.9124
  630MOL0     H85041  10.165   5.774   2.284  1.0833 -2.7142  0.5537
  630MOL0     H85042  10.274   5.996   2.325  0.1608 -0.3432 -0.3668
  630MOL0     H85043  10.392   5.883   2.376 -0.6817 -1.3906 -1.2418
  630MOL0     H85044  10.210   5.976   2.586  0.2408 -0.6411  1.4512
  630MOL0     H85045  10.375   5.934   2.601 -0.0157 -1.6822 -1.6497
  630MOL0     H85046  10.426   6.347   2.517  0.8643 -1.1178  1.0271
  630MOL0     H85047  10.279   5.441   2.474 -0.2515  3.1914  0.3045
  630MOL0     H85048  10.357   5.226   2.474 -0.1097  0.5591  3.4104
  630MOL0     H85049  10.277   5.096   2.567 -3.9135  0.7945  1.7754
  630MOL0     H85050  10.240   5.121   2.396  0.9119  1.1720 -0.8241
  631MOL0     O85051   8.423   8.643   4.695 -0.1663 -0.4464  0.0262
  631MOL0     C85052   8.393   8.544   4.630 -0.4413 -0.2874  0.4810
  631MOL0     O85053   8.282   8.533   4.553  0.0188 -0.3573 -0.6695
  631MOL0     C85054   8.214   8.648   4.551 -0.8457  0.4271  0.1071
  631MOL0     C85055   8.222   8.726   4.437 -0.1503 -1.2356 -1.3610
  631MOL0     C85056   8.152   8.846   4.422  1.0707 -1.0568 -0.8222
  631MOL0     C85057   8.057   8.888   4.521 -0.3874  0.0509 -0.0192
  631MOL0     O85058   7.990   9.003   4.519  0.8415  0.6778 -0.8691
  631MOL0     C85059   8.031   9.109   4.433  0.8736  0.5447  0.3711
  631MOL0     C85060   7.978   9.242   4.485 -0.3211 -0.1699 -0.3813
  631MOL0     C85061   8.077   9.319   4.566 -0.6531 -1.1613 -0.4329
  631MOL0     C85062   8.012   9.442   4.631 -1.0860 -0.0401  0.5047
  631MOL0     C85063   8.101   9.502   4.746  0.0256 -0.6748  0.2402
  631MOL0     C85064   8.225   9.586   4.679 -0.2025  0.4252  0.5921
  631MOL0     C85065   8.312   9.643   4.784 -0.1738 -0.7975 -0.1718
  631MOL0     C85066   8.395   9.765   4.745 -0.2577  0.4437 -0.2095
  631MOL0     N85067   8.483   9.728   4.632  0.4257 -0.1032  0.2952
  631MOL0     C85068   8.588   9.636   4.648  0.0287 -0.0214 -0.4741
  631MOL0     C85069   8.666   9.645   4.538  0.3277 -0.7001  0.5284
  631MOL0     C85070   8.809   9.590   4.519  0.7434  0.5910  0.6388
  631MOL0     C85071   8.828   9.450   4.590  0.6014  0.1201  0.4130
  631MOL0     C85072   8.954   9.383   4.520  0.5132 -0.5392 -0.3563
  631MOL0     C85073   8.918   9.309   4.395 -0.9081  0.4273 -0.2490
  631MOL0     O85074   9.023   9.233   4.329  0.3085  0.4780 -0.3302
  631MOL0     C85075   8.986   9.161   4.217  0.0283 -0.9156 -1.3008
  631MOL0     C85076   8.852   9.157   4.180 -0.4240  0.5104  0.5132
  631MOL0     C85077   8.811   9.069   4.077  0.6596 -0.3862 -0.6275
  631MOL0     C85078   8.899   8.997   4.002  0.3379 -0.2854  0.1962
  631MOL0     C85079   8.866   8.891   3.894 -0.7490 -0.4916  0.1567
  631MOL0     O85080   8.980   8.850   3.831 -0.5567  0.4045 -0.4781
  631MOL0     C85081   8.987   8.731   3.766 -0.9701  0.8295 -0.3977
  631MOL0     C85082   8.914   8.620   3.797 -0.5979  0.1753  0.2135
  631MOL0     C85083   8.936   8.502   3.711 -0.3198 -0.9620 -0.2644
  631MOL0     C85084   9.038   8.501   3.614 -0.1858 -0.6233  0.5243
  631MOL0     O85085   9.046   8.388   3.532 -0.6325 -0.7167  0.1149
  631MOL0     C85086   9.185   8.357   3.489  0.6133  0.2477 -0.2934
  631MOL0     C85087   9.207   8.204   3.469  0.8437 -0.2692 -0.6038
  631MOL0     C85088   9.202   8.113   3.598 -0.3533  0.1692 -0.4741
  631MOL0     C85089   9.201   7.970   3.568 -0.2597  0.5392  0.1119
  631MOL0     C85090   9.337   7.916   3.528  0.3509 -0.5329 -0.3471
  631MOL0     C85091   9.330   7.803   3.413 -0.1353  0.4950 -0.6116
  631MOL0     C85092   9.468   7.763   3.341  0.4901  0.6841 -0.9669
  631MOL0     C85093   9.534   7.659   3.428 -0.8987  0.5751 -0.8420
  631MOL0    Cl85094   9.466   7.515   3.403 -0.1770 -0.0100  0.1390
  631MOL0     C85095   9.116   8.616   3.594  0.0872 -0.2679 -0.5417
  631MOL0     C85096   9.090   8.728   3.666  0.6546 -0.3664  1.0108
  631MOL0     O85097   8.753   8.865   3.866  0.2996  0.2574 -0.0581
  631MOL0     C85098   9.043   9.019   4.036  0.3989 -0.0491 -0.8976
  631MOL0     C85099   9.077   9.085   4.158 -0.6614 -0.2583  0.5277
  631MOL0     N85100   8.600   9.732   4.451  0.9219 -0.0134  0.2885
  631MOL0     N85101   8.489   9.777   4.500  0.1552 -0.9658  0.4158
  631MOL0     C85102   8.036   8.799   4.627  0.4273 -0.5128 -0.0722
  631MOL0     C85103   8.122   8.687   4.645  0.3450  0.7327 -0.0089
  631MOL0     C85104   8.484   8.421   4.641  0.1600  0.5970 -0.1117
  631MOL0     C85105   8.426   8.287   4.638 -0.0181  0.5650 -0.1297
  631MOL0     C85106   8.509   8.173   4.645 -1.3283 -0.5582  1.3031
  631MOL0     C85107   8.645   8.174   4.652 -0.9443 -0.3866 -0.4036
  631MOL0     O85108   8.731   8.065   4.675 -0.1462 -0.7084  0.0565
  631MOL0     C85109   8.705   7.941   4.612  0.0264  0.1381  0.6311
  631MOL0     C85110   8.680   7.964   4.466 -0.9265  0.8205 -0.0104
  631MOL0     C85111   8.634   7.832   4.393 -0.1337  0.2553  1.7144
  631MOL0     C85112   8.616   7.876   4.238 -0.1164  0.6004  0.2087
  631MOL0     C85113   8.594   7.763   4.154  0.4102 -0.2925 -0.2586
  631MOL0     C85114   8.585   7.654   4.099 -1.3514 -0.4416 -0.4355
  631MOL0     C85115   8.704   8.302   4.649  0.1225  0.0802 -0.5086
  631MOL0     C85116   8.629   8.424   4.644  0.3348  0.1931 -1.1799
  631MOL0     C85117   8.709   8.552   4.638 -0.2500  0.2234  0.9534
  631MOL0     H85118   8.283   8.710   4.349  1.2477 -0.8449 -0.4978
  631MOL0     H85119   8.181   8.888   4.326  1.5766 -1.7214 -0.9682
  631MOL0     H85120   8.139   9.109   4.418  0.7226 -1.1641 -1.1256
  631MOL0     H85121   7.988   9.077   4.338 -1.0507 -0.4927  1.5236
  631MOL0     H85122   7.888   9.221   4.543 -0.6152  0.0453 -0.7531
  631MOL0     H85123   7.963   9.303   4.395  0.5366 -0.7624 -0.9473
  631MOL0     H85124   8.165   9.357   4.513 -0.3162 -0.9302  0.2850
  631MOL0     H85125   8.114   9.265   4.654  0.5012  1.1128  0.5631
  631MOL0     H85126   7.983   9.524   4.565 -1.5668  0.6183  1.5078
  631MOL0     H85127   7.911   9.418   4.665 -1.8423  3.0311  0.6659
  631MOL0     H85128   8.041   9.565   4.813  2.2800  1.1013  0.7324
  631MOL0     H85129   8.166   9.433   4.801  3.2530  1.6410 -0.4017
  631MOL0     H85130   8.282   9.521   4.611 -2.7504 -1.7741  0.3843
  631MOL0     H85131   8.186   9.671   4.623 -2.1750  0.3927  1.8044
  631MOL0     H85132   8.373   9.569   4.837 -1.4989 -1.5286  0.4073
  631MOL0     H85133   8.238   9.685   4.853 -1.6150 -1.4293 -1.2768
  631MOL0     H85134   8.328   9.837   4.696 -3.2409 -1.1311  1.2446
  631MOL0     H85135   8.436   9.819   4.831 -0.8449 -1.1511  1.1348
  631MOL0     H85136   8.615   9.580   4.737  1.1939 -1.3852 -1.6413
  631MOL0     H85137   8.829   9.575   4.413 -2.7751 -2.1396  0.1787
  631MOL0     H85138   8.869   9.669   4.566  2.2353  0.2833 -0.6960
  631MOL0     H85139   8.836   9.467   4.698  1.1006 -0.5289  0.4884
  631MOL0     H85140   8.742   9.384   4.574  2.2347 -2.1375  0.3106
  631MOL0     H85141   9.004   9.308   4.583  0.5242 -0.3992 -0.1981
  631MOL0     H85142   9.021   9.465   4.495  0.3664 -0.7546 -1.5074
  631MOL0     H85143   8.889   9.382   4.319 -0.0729  1.5899  0.5069
  631MOL0     H85144   8.831   9.246   4.418 -0.8015  0.8399  1.4798
  631MOL0     H85145   8.769   9.209   4.225 -0.8095  1.4785 -1.2285
  631MOL0     H85146   8.703   9.056   4.070  0.7814 -1.1976 -1.1863
  631MOL0     H85147   8.825   8.631   3.859 -0.1941  0.6708  0.7138
  631MOL0     H85148   8.883   8.408   3.719 -0.2999 -0.9933 -0.4922
  631MOL0     H85149   9.194   8.410   3.393  3.0298 -3.0711 -2.0834
  631MOL0     H85150   9.258   8.398   3.559 -1.8905  2.7792  1.0733
  631MOL0     H85151   9.143   8.163   3.390 -1.0020  0.3684  0.4861
  631MOL0     H85152   9.306   8.198   3.424  1.7204  3.7161  0.4234
  631MOL0     H85153   9.279   8.132   3.674  0.4239 -3.9578  0.0109
  631MOL0     H85154   9.108   8.147   3.643  0.4658  2.7971 -0.5612
  631MOL0     H85155   9.139   7.959   3.479  3.1191  1.1735 -2.5170
  631MOL0     H85156   9.163   7.917   3.656 -2.5322  3.1534  0.8437
  631MOL0     H85157   9.387   7.862   3.608 -2.3554 -3.5490 -0.5149
  631MOL0     H85158   9.398   7.997   3.486 -1.2189  0.4836 -0.7610
  631MOL0     H85159   9.275   7.724   3.465  1.4236 -0.5882 -0.5492
  631MOL0     H85160   9.265   7.835   3.331 -1.4840 -2.7365 -0.9493
  631MOL0     H85161   9.544   7.842   3.335  0.2183  1.1333  1.0159
  631MOL0     H85162   9.449   7.737   3.236  2.6637 -1.8495 -0.8616
  631MOL0     H85163   9.636   7.648   3.390 -1.2935 -1.2911 -1.4581
  631MOL0     H85164   9.526   7.670   3.537 -2.1902  0.0962 -0.8739
  631MOL0     H85165   9.179   8.637   3.508 -2.4704  1.6986 -2.0742
  631MOL0     H85166   9.147   8.815   3.634  0.3333 -0.1307  1.0698
  631MOL0     H85167   9.120   8.957   3.993  0.4171 -1.4703  1.0303
  631MOL0     H85168   9.183   9.087   4.183  0.8303 -1.9213 -4.4387
  631MOL0     H85169   7.969   8.812   4.711  0.7054 -2.2875  0.4837
  631MOL0     H85170   8.102   8.620   4.729  3.3464 -0.7614 -0.3753
  631MOL0     H85171   8.318   8.283   4.646 -0.2030 -2.0725 -2.4777
  631MOL0     H85172   8.464   8.077   4.666 -1.5918 -0.7362  0.0248
  631MOL0     H85173   8.617   7.905   4.667 -0.5374 -1.1071 -0.9895
  631MOL0     H85174   8.781   7.867   4.639  0.5830  0.2633 -0.5317
  631MOL0     H85175   8.773   8.007   4.428  0.0966 -1.5610 -0.4366
  631MOL0     H85176   8.596   8.029   4.442  0.0685  1.6071 -1.5570
  631MOL0     H85177   8.539   7.794   4.433 -1.7776 -2.4292 -3.7098
  631MOL0     H85178   8.695   7.742   4.405  1.8841  1.1771 -0.7037
  631MOL0     H85179   8.532   7.945   4.225  1.4145  2.6177  0.5552
  631MOL0     H85180   8.707   7.923   4.199  0.3900 -1.2131 -0.9245
  631MOL0     H85181   8.565   7.551   4.076 -2.0887  0.0784 -2.2475
  631MOL0     H85182   8.812   8.313   4.650  0.1226  0.7945 -2.6330
  631MOL0     H85183   8.650   8.617   4.573  2.7097  0.6843 -1.5331
  631MOL0     H85184   8.693   8.591   4.739 -2.2998  0.6835  0.5050
  631MOL0     H85185   8.813   8.550   4.605 -0.9814  0.8779 -1.6504
  632MOL0     O85186  10.813   2.717   4.483  0.0156  0.0653  0.3126
  632MOL0     C85187  10.740   2.808   4.534 -0.4866  0.6391  0.2832
  632MOL0     O85188  10.651   2.874   4.461 -0.0680 -0.9374 -0.3491
  632MOL0     C85189  10.668   2.883   4.323  0.1700  0.8927  0.6052
  632MOL0     C85190  10.553   2.880   4.244  0.2798  0.6172 -0.5567
  632MOL0     C85191  10.554   2.907   4.109  0.1139  0.0578 -0.1751
  632MOL0     C85192  10.678   2.933   4.042 -0.2528  0.4928  1.4953
  632MOL0     O85193  10.674   2.938   3.897  0.4229 -0.0725 -0.5529
  632MOL0     C85194  10.774   3.021   3.837  1.1257  0.3517 -0.2305
  632MOL0     C85195  10.708   3.124   3.749  0.1353  0.5518  1.2816
  632MOL0     C85196  10.560   3.114   3.719 -0.5049 -0.1501 -0.4517
  632MOL0     C85197  10.531   3.224   3.616 -0.0890  0.5006  0.7143
  632MOL0     C85198  10.383   3.265   3.622 -1.6389  0.0187  0.4113
  632MOL0     C85199  10.281   3.159   3.601  0.0572 -0.0623 -0.2976
  632MOL0     C85200  10.144   3.235   3.603  0.4212  0.0370 -0.0435
  632MOL0     C85201  10.037   3.146   3.536  0.1148 -0.0072  0.6917
  632MOL0     N85202   9.902   3.198   3.562 -0.8558 -0.8734  0.0053
  632MOL0     C85203   9.824   3.283   3.480 -0.6241  0.6204  0.0208
  632MOL0     C85204   9.704   3.286   3.545 -0.1615 -0.3348  0.0378
  632MOL0     C85205   9.583   3.366   3.509  0.3130 -0.7811 -0.5855
  632MOL0     C85206   9.603   3.520   3.540  0.8634 -1.0162 -0.1129
  632MOL0     C85207   9.465   3.601   3.501 -0.5525  0.0251  0.0384
  632MOL0     C85208   9.347   3.586   3.594  0.1272  0.1919 -0.0471
  632MOL0     O85209   9.235   3.656   3.546 -0.2025 -0.1758  0.1697
  632MOL0     C85210   9.121   3.666   3.617  0.4913  0.2816  0.2651
  632MOL0     C85211   9.129   3.742   3.735  0.0379 -0.9664  0.6642
  632MOL0     C85212   9.016   3.760   3.808  0.7935 -0.0207  0.0373
  632MOL0     C85213   8.892   3.704   3.774 -0.1367 -1.4264 -0.6933
  632MOL0     C85214   8.777   3.759   3.843  0.7238 -0.1242 -0.4582
  632MOL0     O85215   8.791   3.764   3.976 -0.1776 -0.0250  0.6561
  632MOL0     C85216   8.688   3.812   4.051  0.3375 -0.1101 -0.4948
  632MOL0     C85217   8.605   3.916   4.016 -0.7349 -0.4841 -0.0858
  632MOL0     C85218   8.498   3.953   4.097 -0.3759 -0.3269 -0.7129
  632MOL0     C85219   8.468   3.882   4.212 -0.1239 -0.6122  0.6749
  632MOL0     O85220   8.362   3.913   4.286  0.0248 -1.2056  0.1404
  632MOL0     C85221   8.301   3.814   4.369  0.3585 -0.1419  0.2005
  632MOL0     C85222   8.165   3.868   4.415  0.0300  0.5651 -0.2222
  632MOL0     C85223   8.072   3.769   4.491 -0.3523  0.8915  0.3045
  632MOL0     C85224   8.106   3.769   4.641 -0.3296 -0.6451 -0.3920
  632MOL0     C85225   8.039   3.878   4.719  0.6609 -0.2355  0.3183
  632MOL0     C85226   8.083   3.889   4.869 -0.5875 -0.9772 -0.0843
  632MOL0     C85227   7.973   3.938   4.972 -0.3677  0.7682  0.2902
  632MOL0     C85228   8.040   4.027   5.068 -0.4470 -0.0527  0.2976
  632MOL0    Cl85229   8.054   4.179   4.994 -0.1463  0.4122  0.2750
  632MOL0     C85230   8.556   3.771   4.247  0.2194 -1.0987 -0.1192
  632MOL0     C85231   8.664   3.748   4.169 -0.0038 -0.4542 -1.1359
  632MOL0     O85232   8.680   3.793   3.780  0.4509 -0.6093 -0.5245
  632MOL0     C85233   8.878   3.640   3.653  0.3954 -0.7609 -0.2244
  632MOL0     C85234   8.995   3.617   3.576  0.5043 -0.0473 -0.0047
  632MOL0     N85235   9.719   3.220   3.671  0.2676 -0.9280  0.7009
  632MOL0     N85236   9.843   3.182   3.680  0.7719  0.3345 -0.1430
  632MOL0     C85237  10.790   2.944   4.116 -0.6603  0.2834 -0.0938
  632MOL0     C85238  10.784   2.924   4.257  0.1676  0.3150 -0.2607
  632MOL0     C85239  10.726   2.818   4.683  0.0623 -0.0267 -0.5571
  632MOL0     C85240  10.603   2.869   4.731  0.1425 -0.1964  0.2857
  632MOL0     C85241  10.575   2.869   4.870 -0.4819  1.0407  0.1124
  632MOL0     C85242  10.664   2.826   4.962 -0.7216  0.2120 -0.0348
  632MOL0     O85243  10.651   2.815   5.100  0.8686 -0.7967 -0.1786
  632MOL0     C85244  10.526   2.855   5.155 -0.1417 -0.7328 -0.5245
  632MOL0     C85245  10.515   3.012   5.169 -0.1220  0.4629 -0.7738
  632MOL0     C85246  10.626   3.071   5.257  0.5574 -0.3150 -0.8065
  632MOL0     C85247  10.601   3.217   5.266  0.8247 -0.8532  0.6557
  632MOL0     C85248  10.710   3.293   5.322 -0.0506  0.1895 -0.1901
  632MOL0     C85249  10.797   3.368   5.368  0.2959 -0.8087 -0.3690
  632MOL0     C85250  10.786   2.796   4.917 -0.4723  0.2582 -0.0715
  632MOL0     C85251  10.822   2.782   4.783 -0.7900 -0.3913 -1.5919
  632MOL0     C85252  10.971   2.750   4.748  0.4122 -1.1598  0.2617
  632MOL0     H85253  10.457   2.855   4.288 -0.5033  1.2130 -1.8630
  632MOL0     H85254  10.462   2.900   4.053  0.0633  0.5906 -0.1641
  632MOL0     H85255  10.837   3.066   3.915 -0.6790  1.4572  0.6458
  632MOL0     H85256  10.843   2.965   3.773  0.9988  4.6885 -4.7056
  632MOL0     H85257  10.765   3.133   3.657  0.4860  2.7256  1.6585
  632MOL0     H85258  10.720   3.219   3.802  1.5043  1.5696 -0.7545
  632MOL0     H85259  10.500   3.125   3.810 -1.5911  2.1193 -1.3511
  632MOL0     H85260  10.546   3.013   3.681 -2.5388 -0.5173  1.1059
  632MOL0     H85261  10.600   3.309   3.623  1.8014 -1.0287  1.8964
  632MOL0     H85262  10.557   3.186   3.516 -1.1169  4.5307 -1.2827
  632MOL0     H85263  10.367   3.310   3.720 -1.2837  1.0533  0.0120
  632MOL0     H85264  10.378   3.335   3.538 -0.0621 -3.0495 -2.4673
  632MOL0     H85265  10.310   3.098   3.515  3.7784  3.4638 -1.9064
  632MOL0     H85266  10.293   3.099   3.691  4.0006  1.0411  0.1002
  632MOL0     H85267  10.151   3.332   3.552  2.6529  0.3114  0.6789
  632MOL0     H85268  10.122   3.252   3.709  2.0378 -2.2667  0.7290
  632MOL0     H85269  10.043   3.149   3.427  0.2648  1.8129  0.7204
  632MOL0     H85270  10.034   3.039   3.560 -4.9414 -1.2242 -3.4144
  632MOL0     H85271   9.862   3.334   3.392  0.6642 -2.1600 -1.1520
  632MOL0     H85272   9.566   3.345   3.403 -2.1937  0.5416 -0.5215
  632MOL0     H85273   9.504   3.323   3.572  0.8228  1.0693  1.4359
  632MOL0     H85274   9.617   3.531   3.647  2.3387  0.7802 -0.4414
  632MOL0     H85275   9.688   3.559   3.484  2.0275 -1.7520  1.0977
  632MOL0     H85276   9.436   3.564   3.403  1.0571  1.1263 -0.8921
  632MOL0     H85277   9.484   3.708   3.504 -1.2778  0.1876 -0.8132
  632MOL0     H85278   9.370   3.606   3.699 -0.8980 -2.0419  0.6619
  632MOL0     H85279   9.324   3.480   3.605  0.1636  0.1492 -0.3636
  632MOL0     H85280   9.217   3.793   3.771 -0.5949  0.7734 -0.1500
  632MOL0     H85281   9.023   3.821   3.898 -4.8266 -2.7117  2.8261
  632MOL0     H85282   8.625   3.987   3.936  2.4937  2.3875  2.9303
  632MOL0     H85283   8.431   4.038   4.085 -1.5539 -0.7754  2.0387
  632MOL0     H85284   8.293   3.715   4.323 -0.2665  0.1379 -0.3241
  632MOL0     H85285   8.362   3.792   4.457  1.2925 -2.8007 -1.0035
  632MOL0     H85286   8.178   3.952   4.484  0.8707 -0.0714  0.4031
  632MOL0     H85287   8.111   3.896   4.324  1.4022  0.3682 -1.1443
  632MOL0     H85288   7.971   3.802   4.464 -0.6814  0.4618  1.0000
  632MOL0     H85289   8.099   3.669   4.457  0.1329  0.1151  2.7913
  632MOL0     H85290   8.214   3.780   4.653 -0.4643  1.9075 -0.8974
  632MOL0     H85291   8.082   3.673   4.688  1.9657  0.1773  2.7814
  632MOL0     H85292   7.934   3.847   4.730  0.5117 -0.6640 -1.9739
  632MOL0     H85293   8.048   3.978   4.675  2.4495 -1.2924 -1.8918
  632MOL0     H85294   8.130   3.801   4.912 -1.0521  0.2628  3.2551
  632MOL0     H85295   8.162   3.964   4.870 -0.8445 -0.5605 -2.7355
  632MOL0     H85296   7.931   3.862   5.037  0.7889  0.9485  1.2847
  632MOL0     H85297   7.893   3.987   4.915 -0.3266 -0.0048 -0.4499
  632MOL0     H85298   7.985   4.033   5.163  1.0084 -0.6706  1.2147
  632MOL0     H85299   8.144   4.003   5.091  0.8320  3.7278 -0.7754
  632MOL0     H85300   8.535   3.709   4.333  1.1852 -1.1666  0.0709
  632MOL0     H85301   8.728   3.669   4.208 -2.7669 -1.2088  2.4037
  632MOL0     H85302   8.779   3.608   3.622 -0.8462  3.4347 -1.2538
  632MOL0     H85303   8.984   3.559   3.485 -0.9204 -0.1493  0.2181
  632MOL0     H85304  10.887   2.949   4.069  1.1355  0.5688  3.2972
  632MOL0     H85305  10.874   2.931   4.317  0.5583 -1.9300 -0.4946
  632MOL0     H85306  10.533   2.921   4.666 -0.7904  1.0014  2.1567
  632MOL0     H85307  10.481   2.903   4.912 -0.0699 -2.1776  4.3718
  632MOL0     H85308  10.516   2.811   5.255 -1.5447 -1.8263 -1.0981
  632MOL0     H85309  10.438   2.826   5.096 -1.4826 -0.4476  1.2485
  632MOL0     H85310  10.419   3.044   5.212  1.4727  2.1681  1.7235
  632MOL0     H85311  10.522   3.056   5.069  1.9637  4.4960  0.8821
  632MOL0     H85312  10.725   3.054   5.213  1.2575 -0.4686  0.7405
  632MOL0     H85313  10.616   3.028   5.357 -2.0378  2.1379  0.0916
  632MOL0     H85314  10.578   3.256   5.166 -1.3079 -2.7199  0.3269
  632MOL0     H85315  10.506   3.232   5.320 -1.0247 -4.5192 -1.2026
  632MOL0     H85316  10.874   3.437   5.396  0.6755 -0.1950 -2.7672
  632MOL0     H85317  10.863   2.779   4.991 -0.6905  0.0565  0.1141
  632MOL0     H85318  10.967   2.668   4.675  0.4275  0.2748 -1.4259
  632MOL0     H85319  11.006   2.840   4.698 -4.4098  1.4565  0.9967
  632MOL0     H85320  11.016   2.721   4.843 -0.6634  1.3440  1.6391
  633MOL0     O85321   2.737   3.768   4.660  0.7199  0.1419  0.3545
  633MOL0     C85322   2.787   3.680   4.728  1.0438 -0.7189  0.1706
  633MOL0     O85323   2.707   3.598   4.815  0.3606  0.6831 -0.8515
  633MOL0     C85324   2.574   3.607   4.809  0.5679 -0.6142  0.1550
  633MOL0     C85325   2.501   3.617   4.688  0.2401 -0.6994 -0.0027
  633MOL0     C85326   2.358   3.630   4.682  0.6264  0.1066  0.2554
  633MOL0     C85327   2.286   3.638   4.807  0.5634  1.2500  0.0867
  633MOL0     O85328   2.152   3.653   4.804 -0.1373  0.2219 -0.1428
  633MOL0     C85329   2.087   3.693   4.921  0.9473  0.2649 -0.4577
  633MOL0     C85330   1.934   3.674   4.884 -0.2527  0.1587  0.3407
  633MOL0     C85331   1.850   3.688   5.012 -0.6516 -0.6258  0.9583
  633MOL0     C85332   1.878   3.822   5.084  0.3839 -0.0101 -0.1480
  633MOL0     C85333   1.757   3.868   5.169 -0.1236 -0.2476 -0.0891
  633MOL0     C85334   1.750   3.778   5.297  0.3777 -0.4833 -0.3251
  633MOL0     C85335   1.870   3.789   5.393 -0.3960 -0.2352  0.1693
  633MOL0     C85336   1.830   3.801   5.541 -0.5564  0.3210 -0.2344
  633MOL0     N85337   1.737   3.704   5.588 -1.0166  0.3128  0.0591
  633MOL0     C85338   1.763   3.566   5.610  0.5015 -0.8289 -1.4649
  633MOL0     C85339   1.647   3.526   5.661 -1.2133  1.3521 -0.1465
  633MOL0     C85340   1.648   3.383   5.722 -0.7677 -0.8772 -0.2950
  633MOL0     C85341   1.515   3.355   5.787  0.8661  0.4406 -0.9412
  633MOL0     C85342   1.473   3.213   5.735 -0.1237  0.8978  0.8263
  633MOL0     C85343   1.351   3.156   5.810  0.5502 -0.2918  0.1023
  633MOL0     O85344   1.357   3.014   5.801  0.3786 -0.0120  0.3754
  633MOL0     C85345   1.402   2.944   5.914 -0.8179  0.1610  0.5721
  633MOL0     C85346   1.355   2.810   5.908 -0.5275 -0.3253  0.0598
  633MOL0     C85347   1.391   2.722   6.008 -1.3733  0.0670 -0.0114
  633MOL0     C85348   1.479   2.760   6.110 -0.2318  0.1607 -0.6959
  633MOL0     C85349   1.529   2.661   6.207 -0.0008 -0.1655 -0.7688
  633MOL0     O85350   1.598   2.709   6.317 -0.8276  0.6084  0.5504
  633MOL0     C85351   1.669   2.617   6.397  0.3733  0.4674 -0.4044
  633MOL0     C85352   1.602   2.550   6.501  0.8692 -0.7024 -0.1588
  633MOL0     C85353   1.673   2.477   6.594 -0.2401 -0.7225 -0.0029
  633MOL0     C85354   1.811   2.457   6.576  0.0323 -0.4494  0.1981
  633MOL0     O85355   1.873   2.379   6.665  0.5010  0.6342  0.7475
  633MOL0     C85356   2.018   2.370   6.671 -0.3913  0.3643  0.5381
  633MOL0     C85357   2.056   2.289   6.794  0.6260 -0.7859 -0.9252
  633MOL0     C85358   1.982   2.150   6.812 -0.3553 -0.2159  0.7542
  633MOL0     C85359   2.004   2.085   6.951 -0.6244  0.2822 -0.3843
  633MOL0     C85360   1.910   1.965   6.966 -0.2897 -0.5507 -0.2178
  633MOL0     C85361   1.922   1.919   7.119 -0.1716  0.0891 -0.6714
  633MOL0     C85362   1.822   1.814   7.161 -0.1300 -0.1549 -1.2318
  633MOL0     C85363   1.844   1.772   7.309 -0.6524  0.0416  0.2033
  633MOL0    Cl85364   1.760   1.625   7.353 -0.0258 -0.1930  0.4924
  633MOL0     C85365   1.877   2.509   6.462  0.8656  0.4372 -0.5574
  633MOL0     C85366   1.806   2.597   6.382 -0.1927 -0.5068 -0.1263
  633MOL0     O85367   1.526   2.539   6.177 -0.1684 -0.6065 -0.1022
  633MOL0     C85368   1.523   2.897   6.111 -0.1430  0.1713  0.3783
  633MOL0     C85369   1.480   2.985   6.017  0.5083 -0.1235  0.0022
  633MOL0     N85370   1.562   3.634   5.667 -0.3337  0.3344 -0.1974
  633MOL0     N85371   1.611   3.735   5.620  0.6239 -0.3170 -1.2730
  633MOL0     C85372   2.361   3.610   4.928  0.7306  0.0304 -0.2014
  633MOL0     C85373   2.497   3.595   4.928  0.0472  0.6926 -0.3106
  633MOL0     C85374   2.932   3.678   4.732 -1.0532  1.3167 -0.2805
  633MOL0     C85375   3.001   3.771   4.811 -0.3849 -0.5955 -0.2491
  633MOL0     C85376   3.143   3.777   4.828 -0.0650  0.5612 -0.1778
  633MOL0     C85377   3.214   3.671   4.772 -0.3377 -0.7523  0.0211
  633MOL0     O85378   3.352   3.659   4.779 -0.2533 -0.3120  0.2462
  633MOL0     C85379   3.407   3.630   4.906 -0.2717  0.2982  0.8599
  633MOL0     C85380   3.430   3.479   4.911 -0.1991  0.1773 -0.7139
  633MOL0     C85381   3.510   3.405   4.802  0.6167  0.2100 -0.8637
  633MOL0     C85382   3.650   3.450   4.796  0.5901  0.0776  1.3273
  633MOL0     C85383   3.739   3.422   4.906 -0.1529 -0.4060 -1.6057
  633MOL0     C85384   3.807   3.376   5.003  0.8756  0.6780  0.4221
  633MOL0     C85385   3.150   3.573   4.697 -0.9892 -0.6288 -0.1879
  633MOL0     C85386   3.013   3.571   4.677  0.2579  0.1484 -0.1207
  633MOL0     C85387   2.953   3.472   4.578 -0.6557  0.4940  0.6772
  633MOL0     H85388   2.559   3.622   4.597  0.2281  0.8561  0.0502
  633MOL0     H85389   2.299   3.658   4.596  0.2780 -1.1255  0.0754
  633MOL0     H85390   2.108   3.626   5.006  0.6609  1.6600  0.7518
  633MOL0     H85391   2.120   3.793   4.948  3.2671 -0.6444  0.3532
  633MOL0     H85392   1.926   3.571   4.849  1.2300 -0.3729  1.4802
  633MOL0     H85393   1.905   3.753   4.814 -2.0661  1.7298  2.6930
  633MOL0     H85394   1.875   3.602   5.074  0.2326 -1.8415 -1.0037
  633MOL0     H85395   1.743   3.686   4.986 -0.6022  0.5585  0.6079
  633MOL0     H85396   1.971   3.833   5.141 -0.1299  1.9903  0.3981
  633MOL0     H85397   1.894   3.900   5.009  1.5386  1.5190  1.5894
  633MOL0     H85398   1.776   3.972   5.197  0.9856 -0.7260  1.0417
  633MOL0     H85399   1.671   3.855   5.103  1.7294  0.2607 -2.8013
  633MOL0     H85400   1.664   3.822   5.349 -0.5793 -1.2175 -1.2281
  633MOL0     H85401   1.721   3.677   5.269  0.9142 -0.3301 -1.5045
  633MOL0     H85402   1.929   3.876   5.365  1.7660 -0.1430  4.2274
  633MOL0     H85403   1.941   3.707   5.379  1.4251  1.4061 -0.6897
  633MOL0     H85404   1.922   3.790   5.600 -0.2144  1.6754 -0.4872
  633MOL0     H85405   1.787   3.900   5.560  2.0334  1.5664 -0.4051
  633MOL0     H85406   1.863   3.524   5.611  0.0912 -1.8503 -0.8314
  633MOL0     H85407   1.677   3.314   5.643  0.2805  0.0615 -0.7626
  633MOL0     H85408   1.718   3.383   5.806 -3.6615 -1.1171  2.2992
  633MOL0     H85409   1.536   3.350   5.894  0.2433  3.1903 -0.6188
  633MOL0     H85410   1.432   3.427   5.778  0.9101  0.5640 -0.4125
  633MOL0     H85411   1.544   3.130   5.732 -1.0385  0.0064  2.3184
  633MOL0     H85412   1.442   3.226   5.631 -0.6648 -0.1059  0.8472
  633MOL0     H85413   1.268   3.203   5.758  0.6894  0.9265  0.9332
  633MOL0     H85414   1.335   3.196   5.910 -1.0600  1.5712 -0.8451
  633MOL0     H85415   1.278   2.785   5.836  0.2467 -1.1238 -0.5177
  633MOL0     H85416   1.340   2.626   5.995 -1.4085  0.4047 -2.8539
  633MOL0     H85417   1.495   2.563   6.519  0.9334  0.3769 -0.4646
  633MOL0     H85418   1.612   2.427   6.669 -0.1421 -2.7906 -1.2266
  633MOL0     H85419   2.049   2.315   6.582 -1.4839 -2.4482  1.7620
  633MOL0     H85420   2.078   2.460   6.676 -1.9521  1.4163  1.0860
  633MOL0     H85421   2.163   2.270   6.797  0.4461 -1.8917 -1.0242
  633MOL0     H85422   2.022   2.350   6.879 -0.3194 -0.9082 -1.2003
  633MOL0     H85423   1.874   2.160   6.800 -0.7799  0.8704  4.3488
  633MOL0     H85424   2.030   2.086   6.738  1.9251  2.2789 -0.1343
  633MOL0     H85425   1.979   2.157   7.030  0.5485  1.1476 -0.7725
  633MOL0     H85426   2.109   2.065   6.973 -0.2771  2.3705  0.0896
  633MOL0     H85427   1.925   1.885   6.893  3.0689  0.1893 -0.5204
  633MOL0     H85428   1.810   2.003   6.943  0.1985  0.3038 -1.0039
  633MOL0     H85429   2.020   1.872   7.135 -0.3933 -1.6164 -3.5671
  633MOL0     H85430   1.904   1.991   7.200  0.6236 -1.4406  0.9537
  633MOL0     H85431   1.818   1.726   7.096  1.1876 -0.6723 -0.6489
  633MOL0     H85432   1.728   1.868   7.150  1.8137  4.1572  0.9510
  633MOL0     H85433   1.951   1.771   7.331 -0.8347 -0.3963  1.0978
  633MOL0     H85434   1.803   1.849   7.375 -3.2223 -1.2575  0.2408
  633MOL0     H85435   1.984   2.496   6.462  1.1098  2.1242 -1.8983
  633MOL0     H85436   1.866   2.656   6.314  1.9311 -0.6548  1.5161
  633MOL0     H85437   1.602   2.930   6.178  2.0576  0.9588 -2.4231
  633MOL0     H85438   1.518   3.087   6.015 -0.2064  0.1469 -1.6321
  633MOL0     H85439   2.310   3.608   5.024 -1.4884  2.0364 -1.2471
  633MOL0     H85440   2.541   3.579   5.025  0.8070 -1.2592 -0.9284
  633MOL0     H85441   2.950   3.848   4.869  0.7956  1.0000 -1.2429
  633MOL0     H85442   3.191   3.854   4.886 -0.8143 -0.1344  1.4279
  633MOL0     H85443   3.339   3.641   4.991 -0.2804  2.4139  0.6339
  633MOL0     H85444   3.498   3.686   4.931  0.8282 -2.1987  2.8473
  633MOL0     H85445   3.330   3.439   4.925 -0.0762  0.8234  2.7198
  633MOL0     H85446   3.478   3.462   5.008 -1.3682  1.6166  0.1455
  633MOL0     H85447   3.460   3.425   4.707 -1.5725  1.6485  0.5137
  633MOL0     H85448   3.499   3.297   4.817 -1.9868  0.6789  1.2535
  633MOL0     H85449   3.694   3.407   4.705  0.0505 -0.6106  1.3789
  633MOL0     H85450   3.640   3.556   4.772 -0.5926 -0.5299 -1.1828
  633MOL0     H85451   3.863   3.349   5.091  0.4838  0.1025  0.5038
  633MOL0     H85452   3.213   3.493   4.660 -0.5669 -1.1103  1.5040
  633MOL0     H85453   3.025   3.438   4.504 -0.4582  2.6709 -0.1831
  633MOL0     H85454   2.904   3.389   4.631  0.7503  0.0267  1.2844
  633MOL0     H85455   2.877   3.524   4.519  0.7890  1.8065 -0.0766
  634MOL0     O85456   3.627   7.668   2.834  0.2759  0.4498 -0.1562
  634MOL0     C85457   3.624   7.694   2.954  0.1040  0.0413  0.4523
  634MOL0     O85458   3.741   7.695   3.033  0.2416  0.3348 -0.0595
  634MOL0     C85459   3.857   7.652   2.977 -0.2933 -0.1204  0.1941
  634MOL0     C85460   3.903   7.527   3.020 -0.7157 -0.2205  0.8824
  634MOL0     C85461   4.032   7.485   2.980 -0.6197  0.1287  0.5552
  634MOL0     C85462   4.117   7.573   2.911  0.0590  0.6905  0.4094
  634MOL0     O85463   4.251   7.527   2.891  0.2806  0.2375  0.0527
  634MOL0     C85464   4.350   7.633   2.907 -0.4784  1.0016 -0.6945
  634MOL0     C85465   4.496   7.566   2.911 -0.8309  0.3598  0.9838
  634MOL0     C85466   4.507   7.460   3.017  0.1288 -0.6190 -0.0386
  634MOL0     C85467   4.634   7.366   3.009 -0.5131  0.5041  0.2944
  634MOL0     C85468   4.761   7.442   3.020 -0.4767 -0.3057  0.7277
  634MOL0     C85469   4.880   7.343   3.010  0.1024  0.8150 -0.6284
  634MOL0     C85470   5.014   7.421   2.984  0.2345 -0.8890 -0.0246
  634MOL0     C85471   5.138   7.329   2.966  0.5664 -0.3388  0.4819
  634MOL0     N85472   5.197   7.288   3.094 -0.4551 -0.1349  0.3092
  634MOL0     C85473   5.271   7.356   3.187 -0.4280 -0.8054 -0.9392
  634MOL0     C85474   5.317   7.267   3.282  0.4382 -0.2104 -0.1034
  634MOL0     C85475   5.414   7.304   3.388 -0.6877 -0.5276  0.0599
  634MOL0     C85476   5.552   7.232   3.380  0.1600 -0.4153  0.2873
  634MOL0     C85477   5.547   7.082   3.418  0.1715 -1.2148  1.0690
  634MOL0     C85478   5.682   7.016   3.438  0.0556  0.2677  0.8095
  634MOL0     O85479   5.754   7.024   3.323 -0.1876 -0.1281  0.4069
  634MOL0     C85480   5.788   6.903   3.279  0.0105  0.6732  0.4202
  634MOL0     C85481   5.728   6.859   3.164 -0.5703  0.0021 -0.1273
  634MOL0     C85482   5.783   6.746   3.104  0.1963  0.3933 -0.5072
  634MOL0     C85483   5.885   6.667   3.168  1.5949 -0.6755  1.2155
  634MOL0     C85484   5.951   6.556   3.108  0.6877 -0.5525  0.4741
  634MOL0     O85485   6.069   6.520   3.170 -0.7206 -0.3515  0.3933
  634MOL0     C85486   6.142   6.417   3.136  0.2587 -0.0559  0.7591
  634MOL0     C85487   6.271   6.451   3.098 -0.4892  0.4596  0.2377
  634MOL0     C85488   6.353   6.340   3.060 -0.0783  0.5734 -0.5658
  634MOL0     C85489   6.305   6.204   3.062 -0.0924  0.5807 -0.9624
  634MOL0     O85490   6.380   6.095   3.040  0.3570  0.8510 -0.0890
  634MOL0     C85491   6.491   6.110   2.953  0.1472 -0.5587 -0.7620
  634MOL0     C85492   6.494   5.984   2.866  0.5241 -1.4148 -0.5769
  634MOL0     C85493   6.540   5.858   2.950  0.7870 -0.9692 -0.5265
  634MOL0     C85494   6.539   5.751   2.856  0.8255 -0.4559  0.4259
  634MOL0     C85495   6.571   5.622   2.922  0.2739 -0.2027 -0.4248
  634MOL0     C85496   6.565   5.499   2.835 -1.2316  0.2654 -0.3120
  634MOL0     C85497   6.684   5.465   2.746  0.8479 -0.5608  1.1471
  634MOL0     C85498   6.663   5.366   2.637 -0.7633  0.7869 -0.2345
  634MOL0    Cl85499   6.801   5.321   2.530  0.3674  0.6142 -0.1330
  634MOL0     C85500   6.177   6.184   3.101  0.0568 -0.1591  1.0216
  634MOL0     C85501   6.090   6.287   3.132  0.2758  0.2468 -0.3450
  634MOL0     O85502   5.898   6.494   3.020  0.0725 -0.5609  0.1238
  634MOL0     C85503   5.933   6.710   3.292 -0.8044  0.2041  0.6833
  634MOL0     C85504   5.891   6.833   3.343 -0.2241  1.2162 -0.2268
  634MOL0     N85505   5.270   7.143   3.242 -0.3658 -0.6452  0.0894
  634MOL0     N85506   5.211   7.156   3.130  0.7413 -0.5657  0.8036
  634MOL0     C85507   4.069   7.698   2.881  0.4051  0.0142 -0.0900
  634MOL0     C85508   3.937   7.735   2.902 -0.1464 -0.0827 -0.4176
  634MOL0     C85509   3.490   7.720   3.022 -0.6542 -0.0021 -0.5311
  634MOL0     C85510   3.482   7.707   3.166 -0.1720  0.0248 -0.8221
  634MOL0     C85511   3.359   7.713   3.235 -0.3593  0.0151 -0.0723
  634MOL0     C85512   3.244   7.721   3.162 -0.1273 -1.4399  0.0786
  634MOL0     O85513   3.116   7.707   3.211  0.5831  0.9230 -0.8612
  634MOL0     C85514   3.102   7.656   3.344  0.4824  0.1376  0.4943
  634MOL0     C85515   2.950   7.644   3.381 -0.0479 -0.4475  0.3605
  634MOL0     C85516   2.886   7.777   3.396  1.0672 -0.3852 -0.1587
  634MOL0     C85517   2.916   7.863   3.518 -0.6717  0.8199  0.2981
  634MOL0     C85518   2.870   7.808   3.650  0.0770 -0.9926  0.4085
  634MOL0     C85519   2.853   7.745   3.746 -0.3561 -0.3593 -0.8787
  634MOL0     C85520   3.251   7.743   3.031  0.9168 -0.2277 -0.6969
  634MOL0     C85521   3.373   7.756   2.958 -0.1149  0.3263 -0.5700
  634MOL0     C85522   3.359   7.794   2.813 -0.5454  0.2348 -0.5295
  634MOL0     H85523   3.848   7.465   3.089  0.4212 -1.3371  0.8418
  634MOL0     H85524   4.065   7.387   3.013 -0.1870 -0.6515 -2.0033
  634MOL0     H85525   4.339   7.707   2.827  1.3231  0.4050 -1.5471
  634MOL0     H85526   4.323   7.671   3.006 -3.1221 -3.0529  0.3608
  634MOL0     H85527   4.559   7.654   2.929  0.1144  0.0839 -0.7589
  634MOL0     H85528   4.524   7.521   2.815 -3.1679 -0.7470  0.7472
  634MOL0     H85529   4.416   7.400   3.012 -1.1524  1.2052  0.3417
  634MOL0     H85530   4.500   7.521   3.108  2.4889  0.6457 -0.6268
  634MOL0     H85531   4.614   7.294   3.090 -2.4997 -0.2035 -0.7397
  634MOL0     H85532   4.634   7.302   2.921  0.2102 -0.3114  0.8628
  634MOL0     H85533   4.775   7.514   2.940 -0.8536 -0.9025  0.1151
  634MOL0     H85534   4.771   7.506   3.109  3.0424  0.0699  0.2089
  634MOL0     H85535   4.885   7.274   3.095 -1.6857 -0.4444 -1.4922
  634MOL0     H85536   4.858   7.278   2.925 -0.6481  2.0012 -1.3609
  634MOL0     H85537   5.031   7.489   3.069 -1.6253 -0.6232  0.1752
  634MOL0     H85538   4.997   7.479   2.893  0.9197 -2.0578 -0.9230
  634MOL0     H85539   5.093   7.236   2.930 -1.6004 -0.3920  3.0649
  634MOL0     H85540   5.214   7.365   2.895  2.7264 -3.3842  1.0540
  634MOL0     H85541   5.288   7.463   3.187 -3.7724 -0.1598 -0.0143
  634MOL0     H85542   5.442   7.408   3.369  1.7475 -1.1685 -0.1766
  634MOL0     H85543   5.371   7.282   3.486  0.8267 -0.1203  0.8364
  634MOL0     H85544   5.587   7.249   3.278 -0.3583 -0.1539  0.1526
  634MOL0     H85545   5.626   7.269   3.451 -1.0395  0.8554  0.9252
  634MOL0     H85546   5.485   7.034   3.341  0.1845  0.4532 -0.0427
  634MOL0     H85547   5.503   7.081   3.517  0.6202  3.1861  1.5246
  634MOL0     H85548   5.656   6.910   3.452  1.0633  0.1131  1.5849
  634MOL0     H85549   5.741   7.055   3.521  1.1187 -1.3401  0.8634
  634MOL0     H85550   5.642   6.907   3.118 -1.1892 -1.8100 -0.9727
  634MOL0     H85551   5.746   6.706   3.010 -2.0420 -4.7304  2.1897
  634MOL0     H85552   6.310   6.551   3.114 -1.0813  0.5198  1.4189
  634MOL0     H85553   6.459   6.356   3.047  0.3368 -0.4741  1.2022
  634MOL0     H85554   6.490   6.199   2.889  2.5497 -2.7143 -4.0858
  634MOL0     H85555   6.582   6.121   3.012  0.7074 -0.7142 -1.5873
  634MOL0     H85556   6.389   5.965   2.839  0.1739  2.6740 -2.9904
  634MOL0     H85557   6.543   6.005   2.770 -0.7027 -1.7508 -1.2986
  634MOL0     H85558   6.635   5.878   3.002 -0.9352  3.7708  1.4514
  634MOL0     H85559   6.475   5.850   3.038 -0.9687  2.1099 -1.3645
  634MOL0     H85560   6.618   5.780   2.787 -1.1529  0.8017 -1.4526
  634MOL0     H85561   6.447   5.759   2.798  1.6954  3.2151 -0.6625
  634MOL0     H85562   6.515   5.590   3.010  1.1449  0.1070  0.2612
  634MOL0     H85563   6.673   5.625   2.963  0.3921 -2.0097 -0.4898
  634MOL0     H85564   6.539   5.415   2.900 -1.3972  0.8452  0.3815
  634MOL0     H85565   6.482   5.526   2.769 -0.4945 -2.6180 -2.6338
  634MOL0     H85566   6.763   5.420   2.807  2.5144  1.1202  0.3440
  634MOL0     H85567   6.729   5.562   2.724 -0.4248  0.0740  1.2368
  634MOL0     H85568   6.617   5.276   2.680 -0.7301 -0.4250 -2.5644
  634MOL0     H85569   6.595   5.416   2.567 -1.4463 -1.0122 -0.9347
  634MOL0     H85570   6.160   6.078   3.116  0.1663 -0.0800  1.7596
  634MOL0     H85571   5.991   6.268   3.173 -0.7136  3.6878 -0.8211
  634MOL0     H85572   6.005   6.657   3.355  0.7139  0.3615 -0.8440
  634MOL0     H85573   5.947   6.879   3.424 -2.0858  3.1164  0.0779
  634MOL0     H85574   4.134   7.776   2.844  1.0855  0.3923  1.8181
  634MOL0     H85575   3.891   7.832   2.884 -0.1082 -0.6125 -3.8846
  634MOL0     H85576   3.573   7.676   3.216  0.3122  1.6119 -0.6750
  634MOL0     H85577   3.359   7.698   3.343  0.3940  1.4767  0.1539
  634MOL0     H85578   3.155   7.711   3.423 -0.1528 -0.9599  1.7221
  634MOL0     H85579   3.139   7.555   3.361  1.1274  0.5493  1.7050
  634MOL0     H85580   2.935   7.574   3.463 -2.0725  1.5410  1.7847
  634MOL0     H85581   2.904   7.597   3.294  0.1877 -1.0032  0.5336
  634MOL0     H85582   2.779   7.753   3.391  1.3645 -1.5295 -1.9383
  634MOL0     H85583   2.909   7.845   3.314  1.2423 -0.7147 -0.3794
  634MOL0     H85584   3.023   7.884   3.521 -0.4277  0.2660 -2.2873
  634MOL0     H85585   2.866   7.959   3.505 -0.2015  1.1908  1.1567
  634MOL0     H85586   2.829   7.683   3.830 -1.5134  0.3259 -0.6865
  634MOL0     H85587   3.159   7.773   2.982  1.2988  1.1976 -0.5996
  634MOL0     H85588   3.284   7.872   2.798  1.3058  2.0284 -0.8409
  634MOL0     H85589   3.455   7.827   2.772 -0.3846 -1.7586 -1.9175
  634MOL0     H85590   3.326   7.716   2.744 -0.2890 -0.8547  0.5484
  635MOL0     O85591   9.182   8.508   1.872  0.4637  0.4496 -0.9932
  635MOL0     C85592   9.253   8.598   1.929  0.7811  0.9335 -0.7290
  635MOL0     O85593   9.396   8.607   1.933  0.5538 -0.7602 -0.3680
  635MOL0     C85594   9.491   8.528   1.874 -0.9820 -0.1091  0.3026
  635MOL0     C85595   9.455   8.443   1.770 -0.1146  0.4826 -0.3974
  635MOL0     C85596   9.548   8.354   1.710 -0.6032  0.0413 -0.5043
  635MOL0     C85597   9.681   8.353   1.761 -0.7499  0.5092  0.2493
  635MOL0     O85598   9.769   8.270   1.703 -0.4169 -0.2560  0.3059
  635MOL0     C85599   9.809   8.315   1.575 -0.4670  0.4910 -0.2393
  635MOL0     C85600   9.890   8.447   1.586 -0.3398  0.8799  0.3868
  635MOL0     C85601   9.876   8.531   1.459 -0.5222 -0.1813 -0.1440
  635MOL0     C85602   9.980   8.639   1.448 -0.6546  0.4330  0.2060
  635MOL0     C85603   9.959   8.745   1.337  0.3622  0.2347  0.4014
  635MOL0     C85604   9.835   8.844   1.354 -0.4904  0.2059 -0.2536
  635MOL0     C85605   9.839   8.971   1.280 -0.0293  0.0517  0.0914
  635MOL0     C85606   9.815   8.964   1.126  0.1852 -0.0845 -0.6208
  635MOL0     N85607   9.678   8.947   1.075  0.9888  0.3889 -1.1691
  635MOL0     C85608   9.556   8.980   1.134 -0.2146 -0.1643 -0.6118
  635MOL0     C85609   9.463   8.928   1.064  0.5687 -0.9162 -0.1870
  635MOL0     C85610   9.311   8.926   1.111  0.2080 -0.6591 -0.4553
  635MOL0     C85611   9.232   8.950   0.987  0.2598 -1.1640 -0.1044
  635MOL0     C85612   9.094   9.000   1.031  0.2218  0.0002  0.1856
  635MOL0     C85613   8.999   9.037   0.928  0.8012  0.1791 -0.4638
  635MOL0     O85614   9.068   9.107   0.828  0.5128 -0.9361 -0.2583
  635MOL0     C85615   9.009   9.178   0.724  0.5638 -0.0084 -0.0687
  635MOL0     C85616   8.868   9.197   0.718 -0.0899  0.6884 -0.2813
  635MOL0     C85617   8.822   9.282   0.613  0.1262  0.8045 -0.0340
  635MOL0     C85618   8.909   9.330   0.512  0.3295  0.6626 -0.3795
  635MOL0     C85619   8.857   9.403   0.406 -0.1535 -0.5491  0.9332
  635MOL0     O85620   8.945   9.473   0.330 -0.0350  0.2252  1.3625
  635MOL0     C85621   8.893   9.542   0.221  0.3493  0.3944 -0.1019
  635MOL0     C85622   8.818   9.651   0.233 -0.4160 -0.7842  0.4436
  635MOL0     C85623   8.791   9.731   0.121 -0.2418  0.8612  0.3419
  635MOL0     C85624   8.846   9.711  -0.003 -0.4475  0.6288  0.0166
  635MOL0     O85625   8.831   9.802  -0.100  0.3020  0.3586 -0.4912
  635MOL0     C85626   8.814   9.938  -0.060  0.8021 -0.8498  0.9042
  635MOL0     C85627   8.864  10.031  -0.181  0.5957  0.2978  0.5443
  635MOL0     C85628   9.018  10.017  -0.197 -0.1008 -0.0799 -0.5593
  635MOL0     C85629   9.099  10.139  -0.230 -0.1978  0.4938  0.8796
  635MOL0     C85630   9.232  10.153  -0.152  0.3815 -0.3179  0.3538
  635MOL0     C85631   9.321  10.262  -0.225 -0.3541  0.4381  0.5920
  635MOL0     C85632   9.465  10.286  -0.158  0.5845 -1.1132 -0.5392
  635MOL0     C85633   9.536  10.405  -0.228 -0.3086 -0.9129 -0.0221
  635MOL0    Cl85634   9.489  10.544  -0.143  0.1637 -0.2380 -0.0562
  635MOL0     C85635   8.916   9.588  -0.019  0.7331 -0.3550  0.8784
  635MOL0     C85636   8.934   9.504   0.089  0.0478 -0.5890  1.1695
  635MOL0     O85637   8.742   9.384   0.382  0.9503 -1.4626 -0.0243
  635MOL0     C85638   9.044   9.310   0.522 -0.4907 -0.4271 -0.9382
  635MOL0     C85639   9.090   9.246   0.635 -0.0565 -0.4871 -0.3041
  635MOL0     N85640   9.517   8.846   0.967 -0.0181  1.0779  0.9580
  635MOL0     N85641   9.647   8.856   0.978  0.6581  0.2313  0.4786
  635MOL0     C85642   9.714   8.431   1.872  0.0169  0.1455 -1.1164
  635MOL0     C85643   9.619   8.527   1.918 -1.0749  0.5475 -0.4880
  635MOL0     C85644   9.174   8.693   2.013  0.2180 -0.2541 -0.5735
  635MOL0     C85645   9.244   8.752   2.128  1.7840  0.4783  0.0475
  635MOL0     C85646   9.182   8.845   2.213  0.2886  0.2877  0.5039
  635MOL0     C85647   9.062   8.911   2.170 -0.1368 -0.2301  0.5347
  635MOL0     O85648   9.015   9.026   2.242 -0.1700 -0.5729  0.0151
  635MOL0     C85649   8.887   9.101   2.224 -0.2065 -0.4339 -0.7969
  635MOL0     C85650   8.877   9.222   2.315 -1.1779  0.0690 -0.5572
  635MOL0     C85651   8.988   9.323   2.315  0.4604 -0.8005 -0.2380
  635MOL0     C85652   8.964   9.451   2.387  0.3441  0.1989 -0.1940
  635MOL0     C85653   8.880   9.551   2.323  0.3029  0.1701 -0.8628
  635MOL0     C85654   8.798   9.630   2.280  0.1418  0.1449 -0.7159
  635MOL0     C85655   8.987   8.858   2.063  0.4584 -0.2652 -1.0691
  635MOL0     C85656   9.035   8.744   1.993 -0.0826  0.6342  0.1157
  635MOL0     C85657   8.947   8.701   1.882  0.5107 -0.2743 -0.6897
  635MOL0     H85658   9.353   8.443   1.731 -1.7587  0.6343  3.4250
  635MOL0     H85659   9.515   8.285   1.633  2.2318 -2.4464  0.3342
  635MOL0     H85660   9.878   8.240   1.534  1.6995  2.5649 -0.5961
  635MOL0     H85661   9.728   8.322   1.502 -1.7340 -1.5628  0.8715
  635MOL0     H85662   9.995   8.427   1.610 -0.7913  0.6809  2.3652
  635MOL0     H85663   9.865   8.524   1.659  3.5911  4.0539 -1.2224
  635MOL0     H85664   9.779   8.581   1.463 -0.6033 -0.3813  0.5485
  635MOL0     H85665   9.871   8.467   1.370  1.1762 -0.8018  0.1717
  635MOL0     H85666   9.970   8.699   1.539 -2.4343 -0.0025  0.3436
  635MOL0     H85667  10.077   8.590   1.443 -1.5799 -1.6288  1.1884
  635MOL0     H85668  10.044   8.814   1.336 -0.3709  1.1893  1.4762
  635MOL0     H85669   9.958   8.705   1.235  0.8122 -2.7734  1.4778
  635MOL0     H85670   9.750   8.800   1.302  0.0705  0.1479 -1.1540
  635MOL0     H85671   9.806   8.856   1.459 -0.3074 -2.7884  0.2169
  635MOL0     H85672   9.937   9.020   1.289 -0.3450  1.3896 -2.5769
  635MOL0     H85673   9.767   9.038   1.326 -0.3072  0.9957 -1.6148
  635MOL0     H85674   9.847   9.064   1.096 -3.0322  1.5176  0.7418
  635MOL0     H85675   9.885   8.885   1.095 -0.5453 -0.2487 -1.9237
  635MOL0     H85676   9.541   9.028   1.230  1.7852 -1.8593  0.6550
  635MOL0     H85677   9.299   8.821   1.142  2.7010 -1.3552 -1.5311
  635MOL0     H85678   9.275   8.997   1.185 -2.3157  0.5446 -2.6523
  635MOL0     H85679   9.280   9.027   0.925  0.1644 -2.0994 -1.3733
  635MOL0     H85680   9.232   8.857   0.929 -0.8435 -1.5696  0.5295
  635MOL0     H85681   9.106   9.083   1.101  0.0700  0.9525 -0.8870
  635MOL0     H85682   9.046   8.919   1.087  2.1463 -2.8470 -1.9984
  635MOL0     H85683   8.918   9.095   0.974  1.3362  0.8139 -0.3052
  635MOL0     H85684   8.953   8.945   0.892  1.9792 -0.2793 -0.8294
  635MOL0     H85685   8.805   9.148   0.792  0.7013 -1.5831 -1.0499
  635MOL0     H85686   8.714   9.289   0.612 -0.1955 -1.9204  2.1661
  635MOL0     H85687   8.779   9.674   0.331 -2.6634 -1.7369 -0.1616
  635MOL0     H85688   8.718   9.810   0.133 -0.8799  1.7394 -5.9590
  635MOL0     H85689   8.707   9.949  -0.042 -0.1106 -2.6574 -2.4626
  635MOL0     H85690   8.870   9.960   0.031 -0.0125  4.1184  0.4936
  635MOL0     H85691   8.809   9.995  -0.268 -2.9776  2.1606  1.8639
  635MOL0     H85692   8.837  10.135  -0.164  0.4415  0.4812 -0.7467
  635MOL0     H85693   9.043   9.979  -0.098 -1.4416  1.1238  0.2694
  635MOL0     H85694   9.049   9.941  -0.269  1.7502  0.3986 -0.3191
  635MOL0     H85695   9.032  10.225  -0.219 -2.0410 -0.6481 -0.7884
  635MOL0     H85696   9.113  10.144  -0.339  0.5995 -4.1377  0.5671
  635MOL0     H85697   9.276  10.053  -0.149  0.5093 -0.2578  2.9763
  635MOL0     H85698   9.216  10.190  -0.050  0.8833  0.7224  0.0755
  635MOL0     H85699   9.344  10.214  -0.320 -1.2993  2.7871 -0.9386
  635MOL0     H85700   9.263  10.351  -0.252 -2.2467 -1.3570 -1.7311
  635MOL0     H85701   9.516  10.190  -0.171 -1.5666 -2.1977 -1.4762
  635MOL0     H85702   9.468  10.293  -0.049  6.2623 -3.5355 -0.2218
  635MOL0     H85703   9.645  10.397  -0.230 -0.0360  1.3283  1.8308
  635MOL0     H85704   9.496  10.415  -0.330 -1.0020  3.6011  0.4879
  635MOL0     H85705   8.945   9.548  -0.116 -0.6838  2.3478 -0.8220
  635MOL0     H85706   8.991   9.411   0.080 -1.5288 -2.0201  4.2590
  635MOL0     H85707   9.117   9.348   0.450 -0.8800  0.9285 -0.6503
  635MOL0     H85708   9.197   9.234   0.645  0.3753  1.9861 -1.2620
  635MOL0     H85709   9.815   8.412   1.908 -0.5575 -0.0942  0.4805
  635MOL0     H85710   9.641   8.590   2.004 -3.9483  3.2565 -1.5542
  635MOL0     H85711   9.347   8.734   2.157  1.0070  1.9134  4.5515
  635MOL0     H85712   9.233   8.887   2.299  1.7170  0.1020 -0.2320
  635MOL0     H85713   8.799   9.037   2.230 -0.6858  0.3452  1.0710
  635MOL0     H85714   8.895   9.143   2.123 -2.3478  1.5617 -0.2452
  635MOL0     H85715   8.869   9.183   2.417  0.3507  1.5902  0.1931
  635MOL0     H85716   8.784   9.277   2.293 -0.8701  1.9137  2.1855
  635MOL0     H85717   8.992   9.348   2.209  1.1806  3.3795  0.5751
  635MOL0     H85718   9.082   9.277   2.345 -0.2222 -0.9478  1.8470
  635MOL0     H85719   8.909   9.425   2.478 -5.0468  0.4445 -2.9515
  635MOL0     H85720   9.059   9.498   2.412  1.0454 -1.4176  0.2991
  635MOL0     H85721   8.730   9.700   2.234  1.5124 -0.5836 -4.1797
  635MOL0     H85722   8.890   8.905   2.053 -0.8977 -1.9281  2.4691
  635MOL0     H85723   8.960   8.596   1.855 -2.4828 -0.6044 -1.1965
  635MOL0     H85724   8.847   8.711   1.926  0.1494  3.3314 -1.9737
  635MOL0     H85725   8.944   8.762   1.791 -2.9448 -2.4316 -2.2798
  636MOL0     O85726   9.464   9.795   2.627 -0.3086  0.1580 -0.0997
  636MOL0     C85727   9.487   9.795   2.506  0.0136  0.7976 -0.3331
  636MOL0     O85728   9.613   9.756   2.458 -0.1276  0.2151  0.4031
  636MOL0     C85729   9.718   9.817   2.523 -0.6809 -0.0873  0.4285
  636MOL0     C85730   9.834   9.737   2.537  0.0483  0.7020 -0.9119
  636MOL0     C85731   9.942   9.803   2.605  0.4198 -0.0869  0.1313
  636MOL0     C85732   9.938   9.932   2.665 -1.3747  0.7995  0.2431
  636MOL0     O85733  10.037   9.991   2.745 -0.1491 -0.0549 -0.2921
  636MOL0     C85734  10.108   9.899   2.835  0.5985  0.5706  0.4753
  636MOL0     C85735  10.116   9.961   2.971 -0.0383 -0.2969 -0.4373
  636MOL0     C85736   9.979   9.941   3.045 -0.2202 -0.0082 -0.3779
  636MOL0     C85737   9.964  10.046   3.158 -0.1437 -0.0689  0.3846
  636MOL0     C85738   9.810  10.078   3.155 -0.0472  0.0110 -1.2561
  636MOL0     C85739   9.738   9.965   3.228 -0.0907 -0.3770  0.2442
  636MOL0     C85740   9.583   9.973   3.216  0.6210  0.1263  0.1254
  636MOL0     C85741   9.515   9.839   3.232 -1.3367 -0.4107 -0.1187
  636MOL0     N85742   9.539   9.783   3.366 -0.4486  0.7916  0.4865
  636MOL0     C85743   9.485   9.824   3.483 -0.4553 -0.0669  0.5603
  636MOL0     C85744   9.522   9.727   3.575 -0.4850 -1.0380  0.9449
  636MOL0     C85745   9.512   9.722   3.728 -0.3718  0.1212 -0.6274
  636MOL0     C85746   9.359   9.725   3.767 -0.5050  0.5686 -0.5808
  636MOL0     C85747   9.331   9.692   3.913  0.4526 -0.3052 -0.2349
  636MOL0     C85748   9.393   9.800   4.015 -0.1643  0.0801 -0.0363
  636MOL0     O85749   9.383   9.936   3.964  0.1319 -0.4181 -0.9642
  636MOL0     C85750   9.267   9.981   3.901 -1.2767 -0.9343 -0.2621
  636MOL0     C85751   9.282  10.062   3.782 -0.9613 -0.2131  0.1611
  636MOL0     C85752   9.171  10.075   3.696 -0.4155 -0.9720  0.7905
  636MOL0     C85753   9.042  10.039   3.740 -0.6751 -0.3175 -0.7207
  636MOL0     C85754   8.928  10.063   3.646 -0.7722 -0.0293 -0.7967
  636MOL0     O85755   8.810  10.011   3.675  0.9288 -1.0936 -0.2016
  636MOL0     C85756   8.699  10.042   3.602  0.1062 -0.3214  0.2361
  636MOL0     C85757   8.636  10.167   3.618 -0.2968  0.2296  0.3305
  636MOL0     C85758   8.525  10.197   3.533  1.0045  0.4089 -0.4903
  636MOL0     C85759   8.463  10.099   3.452  0.0814  0.5776  0.2324
  636MOL0     O85760   8.342  10.119   3.385  0.5341 -0.3092  0.0384
  636MOL0     C85761   8.340  10.232   3.305 -0.6718  0.2942  0.5141
  636MOL0     C85762   8.218  10.239   3.214  0.2691  0.5124  0.7069
  636MOL0     C85763   8.201  10.109   3.149  0.9378 -0.1787  1.1506
  636MOL0     C85764   8.094  10.106   3.045 -0.3755  0.1832 -0.8256
  636MOL0     C85765   8.153  10.134   2.903  0.7008  0.6741 -0.5040
  636MOL0     C85766   8.039  10.152   2.800  0.1258  0.3253 -0.5076
  636MOL0     C85767   8.113  10.161   2.665 -0.4983  0.1522  0.7886
  636MOL0     C85768   8.019  10.160   2.546  0.0586 -0.2171  0.5865
  636MOL0    Cl85769   8.116  10.225   2.408 -0.3840  0.3732  0.0865
  636MOL0     C85770   8.522   9.971   3.447 -0.5373 -0.2034  0.3189
  636MOL0     C85771   8.647   9.948   3.520 -0.9076 -0.5054  0.4972
  636MOL0     O85772   8.957  10.132   3.544  0.5778  0.0532  0.5372
  636MOL0     C85773   9.024   9.975   3.865  1.0900  0.5765  1.4967
  636MOL0     C85774   9.144   9.936   3.941 -0.0650  0.8244  0.2310
  636MOL0     N85775   9.590   9.623   3.512 -0.2483  0.0878 -0.3243
  636MOL0     N85776   9.596   9.660   3.388 -0.5478  0.0871 -0.4765
  636MOL0     C85777   9.828  10.004   2.646  0.3657  0.0249  0.0154
  636MOL0     C85778   9.715   9.952   2.575 -0.1892 -0.1572  0.0011
  636MOL0     C85779   9.377   9.810   2.397  0.0985 -0.5260 -0.6138
  636MOL0     C85780   9.430   9.846   2.275  0.3024 -0.0280 -0.2682
  636MOL0     C85781   9.346   9.883   2.169  0.6832  0.9922 -0.9238
  636MOL0     C85782   9.206   9.888   2.188 -0.0478  0.3447 -0.1219
  636MOL0     O85783   9.123   9.932   2.082 -0.7138 -0.0472  0.7648
  636MOL0     C85784   9.028   9.846   2.025 -0.5712 -0.1409 -1.0829
  636MOL0     C85785   9.039   9.842   1.874 -0.3537  0.1843  0.6460
  636MOL0     C85786   9.175   9.781   1.839 -0.1509  0.0187 -0.5950
  636MOL0     C85787   9.214   9.760   1.685 -0.8076 -1.5257  0.0293
  636MOL0     C85788   9.139   9.640   1.644 -0.5020  0.4970  0.1849
  636MOL0     C85789   9.069   9.545   1.619 -0.8916 -0.7313 -0.6551
  636MOL0     C85790   9.153   9.855   2.310  0.0376  0.2407 -0.8067
  636MOL0     C85791   9.236   9.819   2.415  0.4442  0.5880  0.2054
  636MOL0     C85792   9.161   9.780   2.549 -0.6755 -0.9509  0.4196
  636MOL0     H85793   9.828   9.637   2.495 -2.1168 -0.0271  0.8990
  636MOL0     H85794  10.026   9.746   2.644  0.1438  1.3553  3.0981
  636MOL0     H85795  10.049   9.807   2.841 -0.4372  1.1876  0.0431
  636MOL0     H85796  10.206   9.869   2.796 -0.2596  0.2923 -1.5683
  636MOL0     H85797  10.143  10.066   2.957  0.7786 -0.6338 -1.4819
  636MOL0     H85798  10.189   9.916   3.039  0.1862 -2.6853 -2.1154
  636MOL0     H85799   9.978   9.840   3.087 -0.3803  0.2745  0.3144
  636MOL0     H85800   9.896   9.932   2.975  0.3047 -1.6539 -0.8220
  636MOL0     H85801  10.008  10.010   3.251  0.3521 -2.1884 -0.6017
  636MOL0     H85802  10.025  10.132   3.131 -0.1833  0.3260  1.5002
  636MOL0     H85803   9.794  10.168   3.216  1.9528 -1.6784  2.0510
  636MOL0     H85804   9.762  10.073   3.057  3.5658 -2.3138 -3.0966
  636MOL0     H85805   9.762   9.868   3.182  2.6656  0.4257 -0.2076
  636MOL0     H85806   9.772   9.966   3.331 -0.8365 -0.0034  0.4975
  636MOL0     H85807   9.557   9.989   3.111 -2.5778 -1.9168  0.4775
  636MOL0     H85808   9.533  10.059   3.260  0.9791  1.7458 -2.4180
  636MOL0     H85809   9.408   9.862   3.233 -0.9946  1.2925  0.1817
  636MOL0     H85810   9.546   9.770   3.152 -0.9980  1.8752 -2.0744
  636MOL0     H85811   9.433   9.914   3.514  0.8549  0.4719  1.2501
  636MOL0     H85812   9.546   9.620   3.748  1.8335  0.8030 -0.6234
  636MOL0     H85813   9.578   9.783   3.791  1.2378 -2.6254  0.5742
  636MOL0     H85814   9.322   9.820   3.725  0.4473  0.8068 -0.9201
  636MOL0     H85815   9.307   9.651   3.706 -1.1507 -0.7519  1.4831
  636MOL0     H85816   9.378   9.597   3.937  1.8647  1.0628  3.0447
  636MOL0     H85817   9.226   9.667   3.931  0.1135 -0.1812 -1.8626
  636MOL0     H85818   9.498   9.774   4.027 -0.7651 -1.7079  1.7823
  636MOL0     H85819   9.342   9.783   4.110 -1.8874  3.6816 -0.1382
  636MOL0     H85820   9.379  10.089   3.742 -1.2843 -1.1840 -1.3631
  636MOL0     H85821   9.196  10.139   3.611 -0.5873 -1.0055  0.7145
  636MOL0     H85822   8.691  10.238   3.679  2.0538  0.2196 -1.6037
  636MOL0     H85823   8.476  10.294   3.530 -0.3604 -0.2368  0.2420
  636MOL0     H85824   8.341  10.319   3.371 -2.0752 -0.4790  1.6180
  636MOL0     H85825   8.434  10.241   3.251  0.3378  4.2736  2.5063
  636MOL0     H85826   8.132  10.264   3.278  1.1556  0.7046  1.8443
  636MOL0     H85827   8.220  10.324   3.145 -1.7273 -1.9508 -2.7181
  636MOL0     H85828   8.290  10.070   3.099 -1.5952 -2.6543 -1.8851
  636MOL0     H85829   8.162  10.036   3.221 -0.1381 -0.8801 -0.0974
  636MOL0     H85830   8.020  10.180   3.079 -0.4339 -0.6333  0.9222
  636MOL0     H85831   8.051  10.006   3.056 -1.0026  0.6582  1.4966
  636MOL0     H85832   8.220  10.052   2.876  1.7133 -0.4630  4.3742
  636MOL0     H85833   8.219  10.222   2.905  1.4430  0.2171  3.2606
  636MOL0     H85834   7.967  10.070   2.796  1.3238 -0.7112 -2.6478
  636MOL0     H85835   7.982  10.243   2.821 -1.5577 -1.2823  2.7829
  636MOL0     H85836   8.188  10.081   2.661 -0.9568 -0.2676  0.5753
  636MOL0     H85837   8.164  10.258   2.667 -0.8327  0.4942 -2.6390
  636MOL0     H85838   7.981  10.058   2.539  0.4654 -0.3380  0.0834
  636MOL0     H85839   7.939  10.230   2.574  0.0985 -0.4889  1.4145
  636MOL0     H85840   8.478   9.902   3.377 -0.3984 -1.1700  1.1618
  636MOL0     H85841   8.702   9.856   3.507 -0.3505 -0.2823  1.2229
  636MOL0     H85842   8.930   9.934   3.901  0.9593 -0.9739 -0.3899
  636MOL0     H85843   9.120   9.880   4.031 -1.9198  0.1904 -0.6018
  636MOL0     H85844   9.809  10.100   2.692 -1.6283  0.2917 -1.2522
  636MOL0     H85845   9.631  10.020   2.564 -2.4448 -2.6391  1.0060
  636MOL0     H85846   9.537   9.865   2.266  0.3357  0.2212  0.6314
  636MOL0     H85847   9.390   9.923   2.078 -0.4933  2.9883 -0.6653
  636MOL0     H85848   8.928   9.884   2.050 -0.3891 -1.2068  1.5806
  636MOL0     H85849   9.032   9.745   2.066  0.5108  0.5396  0.6231
  636MOL0     H85850   9.021   9.948   1.854 -0.7197 -0.5255 -3.6450
  636MOL0     H85851   8.963   9.780   1.825 -1.1828  2.4794 -1.1346
  636MOL0     H85852   9.186   9.692   1.901 -3.3160  0.8240  1.3341
  636MOL0     H85853   9.247   9.852   1.880 -1.2771  0.0353  1.5044
  636MOL0     H85854   9.180   9.848   1.630  0.5491 -1.8950 -1.4467
  636MOL0     H85855   9.320   9.751   1.660 -1.1192  0.0638 -2.2054
  636MOL0     H85856   9.013   9.464   1.577 -1.8160  0.1792 -1.2586
  636MOL0     H85857   9.048   9.852   2.340  0.9525 -0.6167  2.7664
  636MOL0     H85858   9.225   9.745   2.630  3.1327 -0.6605 -2.1769
  636MOL0     H85859   9.120   9.869   2.598 -1.0424 -1.7492  1.6087
  636MOL0     H85860   9.080   9.707   2.538 -1.8462  0.3064  0.5124
  637MOL0     O85861   6.652   4.716   7.572  0.2288  0.4517 -0.0302
  637MOL0     C85862   6.689   4.653   7.671  0.9469 -0.2302  0.5966
  637MOL0     O85863   6.632   4.662   7.798 -0.2291 -0.3363  0.3302
  637MOL0     C85864   6.517   4.739   7.808  0.0913 -0.8928  0.1264
  637MOL0     C85865   6.406   4.670   7.860 -0.1906  0.2220  0.0653
  637MOL0     C85866   6.291   4.732   7.893 -0.1033 -0.1781 -0.1975
  637MOL0     C85867   6.281   4.873   7.863  0.4708  0.5499  0.1793
  637MOL0     O85868   6.164   4.937   7.894  0.2261  0.6664 -0.0759
  637MOL0     C85869   6.048   4.866   7.850  0.2453  0.3946 -0.0588
  637MOL0     C85870   5.940   4.962   7.825 -0.2131 -0.3005 -0.5682
  637MOL0     C85871   5.981   5.091   7.757 -0.1061 -0.4581 -0.0695
  637MOL0     C85872   5.860   5.177   7.716 -0.9070  0.0178 -0.2558
  637MOL0     C85873   5.907   5.327   7.690  0.5304  0.7226 -0.2005
  637MOL0     C85874   5.809   5.397   7.590  0.4076 -0.0189  0.2416
  637MOL0     C85875   5.835   5.547   7.564 -0.3766  0.2950  0.1009
  637MOL0     C85876   5.933   5.558   7.447 -0.4872 -0.3244  0.2907
  637MOL0     N85877   5.973   5.697   7.427  0.5995 -0.6464 -0.2847
  637MOL0     C85878   5.904   5.815   7.441  0.0656 -0.2909  0.0163
  637MOL0     C85879   6.003   5.911   7.424 -0.1439  0.3114  0.4547
  637MOL0     C85880   5.994   6.057   7.441 -0.2623  0.1292 -1.4097
  637MOL0     C85881   5.983   6.085   7.592 -0.0873  0.4420 -0.0137
  637MOL0     C85882   5.948   6.235   7.610  0.0806 -0.3684  0.7280
  637MOL0     C85883   5.932   6.288   7.746 -0.0566 -0.1821 -0.4672
  637MOL0     O85884   5.800   6.295   7.799  0.2997  0.0612 -0.0514
  637MOL0     C85885   5.790   6.353   7.916 -0.2699  0.3731  0.0041
  637MOL0     C85886   5.790   6.276   8.036  0.2631  0.0103  0.1503
  637MOL0     C85887   5.782   6.335   8.169 -0.2169 -0.6550  0.2903
  637MOL0     C85888   5.766   6.478   8.171 -0.4725 -0.0694 -0.1503
  637MOL0     C85889   5.760   6.548   8.300 -0.3635 -0.2454 -0.6602
  637MOL0     O85890   5.810   6.474   8.399  0.2971  0.3272  0.3898
  637MOL0     C85891   5.806   6.508   8.530 -0.1006 -0.1928  0.4611
  637MOL0     C85892   5.701   6.572   8.604  0.4464  0.2792  1.3522
  637MOL0     C85893   5.707   6.589   8.740 -0.8624  0.6902 -0.4670
  637MOL0     C85894   5.821   6.537   8.807 -0.5541  0.1564  0.5651
  637MOL0     O85895   5.836   6.560   8.944  0.2008  0.7551 -0.5678
  637MOL0     C85896   5.796   6.688   9.001 -0.2725 -0.4565 -0.0140
  637MOL0     C85897   5.810   6.667   9.156 -0.7357 -0.5465 -0.1975
  637MOL0     C85898   5.841   6.808   9.222 -0.1790  0.0877 -0.1272
  637MOL0     C85899   5.903   6.779   9.358  0.6858  1.0813 -0.7586
  637MOL0     C85900   5.905   6.903   9.448  0.4134 -0.1592  0.0870
  637MOL0     C85901   5.976   6.887   9.579 -0.2983 -0.3483 -0.7564
  637MOL0     C85902   5.954   7.003   9.677 -0.5596 -0.2783  0.4248
  637MOL0     C85903   6.082   7.054   9.737 -0.6284 -0.1659 -0.3203
  637MOL0    Cl85904   6.164   6.923   9.847 -0.0839  0.0094  0.2516
  637MOL0     C85905   5.910   6.456   8.737 -0.5374  0.0550 -0.2713
  637MOL0     C85906   5.907   6.453   8.599  0.3784  0.1915 -1.2083
  637MOL0     O85907   5.727   6.667   8.309 -0.5850  0.0598  0.1914
  637MOL0     C85908   5.756   6.550   8.054  0.4401  0.5569 -0.0738
  637MOL0     C85909   5.774   6.485   7.927 -0.3012  0.9507 -0.7820
  637MOL0     N85910   6.131   5.848   7.415 -0.6219  0.0757 -0.4640
  637MOL0     N85911   6.098   5.731   7.411 -0.5636  0.2601  0.5187
  637MOL0     C85912   6.385   4.945   7.805 -0.3664  0.3597 -0.7530
  637MOL0     C85913   6.504   4.873   7.781 -0.1801 -0.5167  0.3300
  637MOL0     C85914   6.797   4.570   7.644 -0.4946  0.3475 -0.0072
  637MOL0     C85915   6.800   4.492   7.521  0.4349  0.0141  1.0753
  637MOL0     C85916   6.913   4.421   7.482  0.5467 -0.8805 -0.6986
  637MOL0     C85917   7.017   4.411   7.567 -0.9441  0.4905  1.1124
  637MOL0     O85918   7.140   4.358   7.529  0.2566 -0.3100  0.0797
  637MOL0     C85919   7.154   4.302   7.394  0.8525  0.0007 -1.6181
  637MOL0     C85920   7.105   4.156   7.388 -0.0938 -0.5702  0.6371
  637MOL0     C85921   7.168   4.049   7.477  0.4185  0.6824 -0.7254
  637MOL0     C85922   7.326   4.037   7.475  0.2598  0.1354 -0.0685
  637MOL0     C85923   7.369   4.014   7.340 -0.1409  0.0180  0.8376
  637MOL0     C85924   7.423   4.012   7.226  0.1281  0.0049 -0.3022
  637MOL0     C85925   7.009   4.458   7.697 -0.5070 -0.3726  1.0397
  637MOL0     C85926   6.910   4.553   7.732  0.2262  0.4994  0.0104
  637MOL0     C85927   6.911   4.617   7.876  0.4459 -0.3826  0.8049
  637MOL0     H85928   6.419   4.562   7.863  0.1491  0.1448 -2.0334
  637MOL0     H85929   6.213   4.672   7.938 -1.2548  1.0809 -0.4560
  637MOL0     H85930   6.068   4.819   7.753  1.7329  1.0495 -0.0901
  637MOL0     H85931   6.017   4.786   7.918  0.8822  1.3396  1.3648
  637MOL0     H85932   5.893   4.998   7.917 -0.2570 -2.3102  0.2402
  637MOL0     H85933   5.855   4.918   7.773 -1.5470  2.6407 -1.1033
  637MOL0     H85934   6.041   5.065   7.670  1.1009  2.3200 -0.1823
  637MOL0     H85935   6.050   5.141   7.824 -1.9868  1.3630  0.6240
  637MOL0     H85936   5.830   5.141   7.618  4.0773 -0.3426 -1.9473
  637MOL0     H85937   5.787   5.163   7.797  0.2961 -3.1327  0.4120
  637MOL0     H85938   5.900   5.395   7.775 -3.5044  0.1076  0.1631
  637MOL0     H85939   6.008   5.335   7.649  0.2878  3.2835 -0.4231
  637MOL0     H85940   5.788   5.349   7.493 -1.7185  1.8293 -0.2827
  637MOL0     H85941   5.710   5.390   7.636  0.3595 -0.4513  0.0829
  637MOL0     H85942   5.885   5.583   7.655 -0.8686  0.1465  0.4384
  637MOL0     H85943   5.748   5.607   7.537  0.2215  1.3962  0.5691
  637MOL0     H85944   6.026   5.501   7.461  1.5457  2.6918  0.1074
  637MOL0     H85945   5.878   5.521   7.361  1.4143 -2.1164 -0.2194
  637MOL0     H85946   5.797   5.836   7.438  0.1761  0.2763 -0.0951
  637MOL0     H85947   6.080   6.104   7.393 -0.4805 -0.4386 -2.3857
  637MOL0     H85948   5.900   6.090   7.396 -1.1467 -0.6897 -0.2215
  637MOL0     H85949   5.913   6.012   7.632 -0.5138  0.5167 -0.6102
  637MOL0     H85950   6.076   6.070   7.648  0.3639 -0.6790 -1.0073
  637MOL0     H85951   5.860   6.256   7.550  1.5511  1.8263 -0.7802
  637MOL0     H85952   6.022   6.300   7.564 -0.6100 -0.0599  0.0460
  637MOL0     H85953   5.975   6.389   7.744  2.0832 -1.0179  0.5131
  637MOL0     H85954   5.996   6.235   7.817 -0.2552  1.1539  0.7471
  637MOL0     H85955   5.790   6.168   8.040 -4.4742 -0.1688  1.0469
  637MOL0     H85956   5.801   6.269   8.253  2.6973 -1.7797 -1.1133
  637MOL0     H85957   5.614   6.599   8.546  1.3443  1.6417  0.6125
  637MOL0     H85958   5.629   6.635   8.800 -1.3559  1.9480 -2.0038
  637MOL0     H85959   5.863   6.769   8.970  2.7672 -1.1963  3.8217
  637MOL0     H85960   5.693   6.709   8.973  0.1829  1.2423 -0.4878
  637MOL0     H85961   5.717   6.634   9.203 -2.2819  2.2715 -1.0306
  637MOL0     H85962   5.891   6.598   9.178  0.6855  1.3553  0.8696
  637MOL0     H85963   5.909   6.860   9.154 -0.7081 -1.1341 -1.6407
  637MOL0     H85964   5.753   6.872   9.216  1.2654  2.4325  1.8648
  637MOL0     H85965   6.003   6.735   9.349 -0.8855 -2.9631 -0.7320
  637MOL0     H85966   5.831   6.714   9.408  1.4178 -0.2245 -1.3518
  637MOL0     H85967   5.800   6.929   9.464  0.0412 -1.3855 -0.2822
  637MOL0     H85968   5.957   6.986   9.399 -1.6129  0.8078 -0.5219
  637MOL0     H85969   5.939   6.802   9.637 -0.6430  0.8195  0.8089
  637MOL0     H85970   6.083   6.872   9.564 -0.1322  0.7375 -0.7404
  637MOL0     H85971   5.886   6.974   9.758 -1.5004  0.1293 -0.2000
  637MOL0     H85972   5.910   7.090   9.628  3.3197  0.8445 -1.4754
  637MOL0     H85973   6.155   7.072   9.658  2.3580 -1.8597  1.8592
  637MOL0     H85974   6.064   7.148   9.790 -0.4001 -1.0067  1.2983
  637MOL0     H85975   5.982   6.400   8.795  2.0751  2.8210 -0.6120
  637MOL0     H85976   5.980   6.389   8.550 -1.9441 -2.4919 -1.4279
  637MOL0     H85977   5.726   6.654   8.059  1.0092  0.8201 -1.6116
  637MOL0     H85978   5.765   6.544   7.836  0.7807 -0.2037 -1.6939
  637MOL0     H85979   6.360   5.049   7.793 -1.1118  0.1245 -1.2529
  637MOL0     H85980   6.594   4.923   7.745  0.1285 -1.6112 -0.4613
  637MOL0     H85981   6.710   4.501   7.461 -0.5756 -0.0960  2.5288
  637MOL0     H85982   6.921   4.379   7.382  3.5441 -0.6193 -0.6535
  637MOL0     H85983   7.263   4.300   7.381  0.7756  1.5560 -2.8077
  637MOL0     H85984   7.103   4.366   7.321 -0.1601 -1.5573 -2.3043
  637MOL0     H85985   7.117   4.133   7.282  1.4938  0.7182  0.4895
  637MOL0     H85986   6.998   4.160   7.408 -0.3021 -1.0614 -0.3246
  637MOL0     H85987   7.137   3.949   7.446 -0.4714  1.1132 -1.2376
  637MOL0     H85988   7.144   4.071   7.582  2.2675  0.0178 -0.1149
  637MOL0     H85989   7.371   4.118   7.533 -0.3296 -0.3703  1.1370
  637MOL0     H85990   7.350   3.946   7.531  1.4445  0.2046 -0.4240
  637MOL0     H85991   7.469   4.031   7.131 -1.7515  1.3568 -1.0054
  637MOL0     H85992   7.094   4.430   7.760 -1.9702 -2.2142  2.3097
  637MOL0     H85993   6.818   4.592   7.927  1.3379 -0.4038  2.5028
  637MOL0     H85994   6.983   4.562   7.937 -0.5377 -0.3605  2.0230
  637MOL0     H85995   6.949   4.719   7.881 -1.2222  0.4100 -1.2565
  638MOL0     O85996   0.923   5.641  10.682 -0.1066  0.5742 -0.6717
  638MOL0     C85997   0.813   5.627  10.727 -0.0328  0.1924  0.8281
  638MOL0     O85998   0.755   5.699  10.827 -0.0291  0.6689 -0.4836
  638MOL0     C85999   0.836   5.785  10.891  0.7088  0.4222 -0.0730
  638MOL0     C86000   0.970   5.753  10.952  0.4568 -0.2318 -0.1756
  638MOL0     C86001   1.032   5.847  11.040 -0.0534 -0.1729  0.4315
  638MOL0     C86002   0.983   5.972  11.059 -0.0904  0.3500  0.4190
  638MOL0     O86003   1.065   6.056  11.134  0.2957 -0.3385 -0.3885
  638MOL0     C86004   1.129   6.144  11.045 -0.6715  0.8816  0.4364
  638MOL0     C86005   1.227   6.231  11.123  0.0311 -0.0101  0.3127
  638MOL0     C86006   1.329   6.299  11.032 -0.5141 -0.7684  0.6892
  638MOL0     C86007   1.439   6.364  11.117  0.2176 -0.2142 -1.0160
  638MOL0     C86008   1.541   6.429  11.020 -0.0997 -0.3231 -0.5478
  638MOL0     C86009   1.657   6.481  11.099 -0.4928 -0.4210  0.7822
  638MOL0     C86010   1.761   6.529  10.996 -0.7877 -0.7241  0.4769
  638MOL0     C86011   1.727   6.650  10.910  0.3780 -0.8648 -0.4600
  638MOL0     N86012   1.723   6.774  10.994  0.5486  0.0393  0.1771
  638MOL0     C86013   1.828   6.823  11.060  0.5996  0.4325  0.3481
  638MOL0     C86014   1.795   6.948  11.113  1.0422 -0.3905  1.3730
  638MOL0     C86015   1.881   7.032  11.206  0.7721  0.4244  0.0222
  638MOL0     C86016   1.914   7.178  11.150  0.1484  0.4123 -0.6185
  638MOL0     C86017   1.792   7.271  11.167 -0.1179 -0.8752 -0.8477
  638MOL0     C86018   1.806   7.400  11.088 -0.3538 -0.2480 -0.6197
  638MOL0     O86019   1.875   7.498  11.157  0.5644  0.2089 -0.1088
  638MOL0     C86020   1.888   7.625  11.095 -0.0380  0.5464 -0.5621
  638MOL0     C86021   1.949   7.719  11.173 -0.6487 -0.7555 -0.1676
  638MOL0     C86022   1.981   7.842  11.125 -0.0605  0.4048 -0.9452
  638MOL0     C86023   1.968   7.872  10.991 -0.9181 -0.4202  0.6342
  638MOL0     C86024   2.025   7.997  10.946 -0.4419  0.4858  0.5764
  638MOL0     O86025   2.009   8.033  10.814  0.6130  0.3499 -0.0296
  638MOL0     C86026   2.006   8.166  10.775  0.2661  0.6296  0.2253
  638MOL0     C86027   2.014   8.180  10.633  0.3306  0.0489 -0.0986
  638MOL0     C86028   2.025   8.308  10.573 -0.8116 -0.1726 -0.3310
  638MOL0     C86029   2.022   8.427  10.641  0.7401  0.0737 -0.4555
  638MOL0     O86030   2.035   8.550  10.583 -0.2850 -0.1042 -1.0540
  638MOL0     C86031   1.935   8.643  10.637  0.0402 -0.6298 -0.5916
  638MOL0     C86032   1.949   8.775  10.569 -0.2528 -0.2159 -0.3743
  638MOL0     C86033   1.825   8.860  10.548  0.1898 -0.6708 -0.7596
  638MOL0     C86034   1.868   8.970  10.453  0.3040  0.5719  0.1496
  638MOL0     C86035   1.747   9.039  10.379 -0.0147 -0.4102 -0.2153
  638MOL0     C86036   1.784   9.127  10.256 -0.1228  0.8592 -0.1488
  638MOL0     C86037   1.656   9.178  10.185 -0.5863  0.2476  0.4267
  638MOL0     C86038   1.562   9.066  10.148 -0.4760  0.0341 -0.4600
  638MOL0    Cl86039   1.646   8.915  10.087 -0.4120  0.2520  0.0436
  638MOL0     C86040   1.986   8.409  10.779  0.4159  0.3521 -0.4877
  638MOL0     C86041   1.979   8.283  10.852  0.1770  0.3060 -0.3932
  638MOL0     O86042   2.093   8.055  11.023 -0.9180 -0.4602  0.5790
  638MOL0     C86043   1.897   7.782  10.909  0.0004  0.4204  0.6125
  638MOL0     C86044   1.860   7.657  10.962 -1.0091 -0.7225  0.3743
  638MOL0     N86045   1.668   6.972  11.075 -0.6805 -0.3328 -0.2118
  638MOL0     N86046   1.625   6.868  11.015  0.2864 -1.0880 -0.4325
  638MOL0     C86047   0.858   6.005  11.004 -0.1761 -0.0680  0.6130
  638MOL0     C86048   0.782   5.910  10.925 -1.0038  0.0182 -0.9525
  638MOL0     C86049   0.711   5.529  10.666 -0.0194  0.0769  0.0818
  638MOL0     C86050   0.627   5.460  10.757 -0.3601  0.6259  0.1600
  638MOL0     C86051   0.534   5.376  10.696  0.3158 -0.3297 -0.4012
  638MOL0     C86052   0.522   5.356  10.559  0.3264 -0.1451  0.1355
  638MOL0     O86053   0.430   5.283  10.492  0.4345  0.1302  0.1547
  638MOL0     C86054   0.341   5.196  10.560 -0.2542 -0.0516 -0.3870
  638MOL0     C86055   0.287   5.080  10.480 -0.7100 -0.4418  0.2613
  638MOL0     C86056   0.182   5.005  10.556  0.7039 -0.0538 -0.2731
  638MOL0     C86057   0.234   4.931  10.677 -0.2993  0.7339  0.9808
  638MOL0     C86058   0.128   4.834  10.718 -0.6049 -0.2829  0.0936
  638MOL0     C86059   0.046   4.771  10.777 -0.0319 -0.3900 -0.3351
  638MOL0     C86060   0.607   5.420  10.475 -0.4975  0.3505  0.5818
  638MOL0     C86061   0.709   5.501  10.526  0.2364  0.0471 -1.3699
  638MOL0     C86062   0.811   5.560  10.426 -0.5241 -0.1235 -0.7137
  638MOL0     H86063   1.001   5.650  10.950 -3.9375 -1.7686  0.2325
  638MOL0     H86064   1.127   5.813  11.081  0.1391  0.4209  0.4871
  638MOL0     H86065   1.195   6.090  10.977  1.0429  0.0654  2.5946
  638MOL0     H86066   1.056   6.209  10.996  0.3459 -0.4662 -3.1225
  638MOL0     H86067   1.277   6.161  11.192  0.9568  0.9791  0.6863
  638MOL0     H86068   1.181   6.307  11.187 -0.2359 -0.8365  1.1335
  638MOL0     H86069   1.288   6.371  10.961 -0.3664 -0.6121  0.7589
  638MOL0     H86070   1.381   6.227  10.970  1.2541  2.7446 -2.3177
  638MOL0     H86071   1.394   6.431  11.191  1.8788 -1.5448  1.3408
  638MOL0     H86072   1.487   6.289  11.181 -0.9412 -0.8375 -0.8453
  638MOL0     H86073   1.578   6.350  10.954  2.0227  0.8615 -0.8619
  638MOL0     H86074   1.500   6.502  10.950  1.6822  1.7715  0.4640
  638MOL0     H86075   1.636   6.565  11.166  1.4269 -1.6474  3.0795
  638MOL0     H86076   1.701   6.400  11.158  1.1034 -0.7540 -0.7471
  638MOL0     H86077   1.778   6.449  10.923  2.2853 -0.7086  1.0470
  638MOL0     H86078   1.858   6.546  11.043  0.4593 -2.0883 -1.4249
  638MOL0     H86079   1.803   6.666  10.833 -0.3448  2.0207 -0.6807
  638MOL0     H86080   1.626   6.638  10.868 -0.1086 -1.5009  0.8184
  638MOL0     H86081   1.926   6.776  11.053  0.4283  0.1620 -0.3095
  638MOL0     H86082   1.817   7.027  11.295 -1.9505 -1.3715 -1.8899
  638MOL0     H86083   1.975   6.980  11.225 -0.3502 -1.2249  1.3946
  638MOL0     H86084   1.996   7.221  11.207  0.2017  0.3497 -0.6480
  638MOL0     H86085   1.937   7.176  11.043  1.2396  2.6674 -0.4731
  638MOL0     H86086   1.779   7.291  11.273 -1.9958  5.9122 -1.8669
  638MOL0     H86087   1.697   7.225  11.138 -1.4812 -0.1955  2.1115
  638MOL0     H86088   1.702   7.434  11.093 -0.5619 -1.0542  2.1037
  638MOL0     H86089   1.847   7.397  10.987 -2.3249  0.4936 -1.4888
  638MOL0     H86090   1.972   7.698  11.277  4.2653  0.5990 -0.7213
  638MOL0     H86091   2.028   7.906  11.199 -3.2023  1.8738 -0.0158
  638MOL0     H86092   2.022   8.097  10.564 -0.8294 -1.4411  1.4804
  638MOL0     H86093   2.049   8.315  10.467  3.5575  0.8070  0.5450
  638MOL0     H86094   1.833   8.610  10.617  0.2351 -0.7503 -1.4382
  638MOL0     H86095   1.959   8.644  10.744 -3.4024 -3.1790  0.3672
  638MOL0     H86096   2.026   8.835  10.619 -1.5019  2.1768 -1.1314
  638MOL0     H86097   1.982   8.750  10.468  0.0436 -0.9222 -0.1056
  638MOL0     H86098   1.739   8.808  10.505 -0.6389 -1.2211  1.4116
  638MOL0     H86099   1.779   8.901  10.639 -0.1612  3.0939 -2.4324
  638MOL0     H86100   1.943   8.942  10.378  3.1864 -1.2064  3.3929
  638MOL0     H86101   1.920   9.046  10.512 -0.0045 -0.2726  1.5489
  638MOL0     H86102   1.709   9.107  10.456 -0.3024  0.6083 -1.2409
  638MOL0     H86103   1.680   8.957  10.354 -0.3748 -0.1795 -0.0154
  638MOL0     H86104   1.843   9.216  10.282 -1.3275  2.0668 -1.3797
  638MOL0     H86105   1.844   9.065  10.189 -1.9400 -2.3732  1.0146
  638MOL0     H86106   1.683   9.233  10.095 -1.7892  0.3480  0.1110
  638MOL0     H86107   1.604   9.249  10.251 -4.3859 -3.4073  1.8484
  638MOL0     H86108   1.507   9.033  10.237  1.0268  1.1924  0.9673
  638MOL0     H86109   1.486   9.109  10.081 -1.4240 -1.6180 -0.4906
  638MOL0     H86110   1.945   8.487  10.843  0.3867 -1.8890  2.4349
  638MOL0     H86111   1.970   8.284  10.960  3.3687 -0.7307 -0.0029
  638MOL0     H86112   1.870   7.799  10.805 -4.4478  0.3856  1.5739
  638MOL0     H86113   1.829   7.580  10.892 -0.9756 -1.4011  1.0924
  638MOL0     H86114   0.812   6.094  11.047 -1.4823 -1.6125  2.5827
  638MOL0     H86115   0.682   5.926  10.885 -0.4418 -0.4376 -2.6046
  638MOL0     H86116   0.636   5.484  10.863  3.1901  1.1853 -0.1513
  638MOL0     H86117   0.461   5.339  10.768 -0.9835  3.1839  0.2509
  638MOL0     H86118   0.258   5.245  10.612 -0.0265 -0.1273  0.0447
  638MOL0     H86119   0.400   5.157  10.643 -1.6454 -0.5460  0.4040
  638MOL0     H86120   0.375   5.028  10.443 -1.0286  0.2981 -1.6369
  638MOL0     H86121   0.251   5.114  10.382  1.9011  1.0980 -0.2667
  638MOL0     H86122   0.155   4.932  10.479  3.7839  0.6382 -2.1837
  638MOL0     H86123   0.099   5.071  10.585  0.0662  0.2643 -2.6017
  638MOL0     H86124   0.322   4.878  10.641 -1.3518 -1.1649  1.0962
  638MOL0     H86125   0.261   5.004  10.755  2.8728  0.1733  0.5318
  638MOL0     H86126  -0.035   4.727  10.831  1.2097 -0.3543  1.6784
  638MOL0     H86127   0.605   5.400  10.369 -0.7362  1.8437  0.2840
  638MOL0     H86128   0.778   5.524  10.329  1.9065 -0.3669 -1.5027
  638MOL0     H86129   0.815   5.669  10.432 -2.7716 -0.0609  1.6998
  638MOL0     H86130   0.910   5.516  10.442 -0.8602 -0.9658 -0.9053
  639MOL0     O86131   5.731   6.063   0.745  0.3129 -0.4917 -0.9129
  639MOL0     C86132   5.842   6.069   0.795 -0.6473  0.9199 -0.1418
  639MOL0     O86133   5.907   5.966   0.860  0.0179  0.9125 -0.4914
  639MOL0     C86134   5.845   5.860   0.910 -1.0148  0.3351 -0.4018
  639MOL0     C86135   5.933   5.764   0.956  0.4215 -0.4146 -0.6491
  639MOL0     C86136   5.893   5.652   1.027 -0.6755  0.0117  0.4303
  639MOL0     C86137   5.751   5.632   1.038  0.1924  0.7450 -0.2584
  639MOL0     O86138   5.710   5.530   1.120 -1.2601  0.2712 -0.3219
  639MOL0     C86139   5.615   5.439   1.066 -0.1057  0.0043 -1.0092
  639MOL0     C86140   5.628   5.312   1.146 -0.2727 -0.0687 -0.3369
  639MOL0     C86141   5.565   5.194   1.077 -0.7294 -0.2615 -0.6777
  639MOL0     C86142   5.432   5.149   1.130  0.5401 -0.8751 -0.3842
  639MOL0     C86143   5.314   5.246   1.110  0.1433  0.0892 -0.2567
  639MOL0     C86144   5.191   5.198   1.181  0.7677  0.1776 -0.6816
  639MOL0     C86145   5.064   5.287   1.161  0.0773  0.7790  0.5838
  639MOL0     C86146   5.052   5.411   1.249  0.3109  0.3392 -0.0650
  639MOL0     N86147   5.134   5.517   1.194 -0.2374  0.4478  0.0291
  639MOL0     C86148   5.220   5.585   1.269  0.9314  0.4020 -0.3085
  639MOL0     C86149   5.262   5.684   1.185 -0.3148 -0.4340 -0.8350
  639MOL0     C86150   5.370   5.784   1.210 -0.4404 -0.1549  0.1372
  639MOL0     C86151   5.331   5.880   1.328 -0.3739  0.1542  0.2812
  639MOL0     C86152   5.408   6.013   1.329  0.5544 -0.1119  0.4536
  639MOL0     C86153   5.353   6.104   1.437 -0.4366  0.4589 -0.3745
  639MOL0     O86154   5.427   6.223   1.442  0.1248 -0.2137  1.3523
  639MOL0     C86155   5.416   6.308   1.541  0.1145  0.6461  0.0213
  639MOL0     C86156   5.517   6.298   1.637 -0.5844  0.9474 -0.7224
  639MOL0     C86157   5.527   6.383   1.753 -0.1355  0.2331  0.2246
  639MOL0     C86158   5.432   6.481   1.768  1.1330  0.0271  0.2986
  639MOL0     C86159   5.431   6.568   1.894 -0.1218 -1.0491  0.4805
  639MOL0     O86160   5.553   6.588   1.966  0.5198 -0.2090  0.4250
  639MOL0     C86161   5.565   6.664   2.080 -0.2279 -0.7735 -0.0034
  639MOL0     C86162   5.698   6.688   2.120 -0.3885  0.1862  0.4804
  639MOL0     C86163   5.725   6.746   2.244  0.3708  0.4362  0.5454
  639MOL0     C86164   5.623   6.773   2.334 -0.1870  0.0141 -0.2466
  639MOL0     O86165   5.658   6.822   2.457 -0.5457 -0.6164 -0.4747
  639MOL0     C86166   5.585   6.763   2.566 -0.1342 -0.4176 -0.1801
  639MOL0     C86167   5.640   6.825   2.696 -0.3237 -0.5346  0.5511
  639MOL0     C86168   5.635   6.972   2.696  0.1627 -0.4235  0.2025
  639MOL0     C86169   5.664   7.035   2.837 -0.6702  0.8096  0.1958
  639MOL0     C86170   5.688   7.191   2.825 -0.1230  0.1857 -0.2279
  639MOL0     C86171   5.695   7.278   2.954 -0.5893 -0.0694 -0.2855
  639MOL0     C86172   5.687   7.433   2.931 -0.3101 -0.2083 -0.9512
  639MOL0     C86173   5.543   7.482   2.956  0.6960  0.0319 -0.7505
  639MOL0    Cl86174   5.534   7.653   2.927 -0.4686 -0.1819  0.1057
  639MOL0     C86175   5.490   6.753   2.296  0.2622  0.4372  0.6800
  639MOL0     C86176   5.462   6.701   2.170 -0.2563  0.0696  0.4329
  639MOL0     O86177   5.322   6.617   1.913  0.5532  0.3868  0.0946
  639MOL0     C86178   5.336   6.500   1.665 -0.1295 -0.2420  0.0365
  639MOL0     C86179   5.317   6.409   1.557 -0.0677  0.3565  0.6764
  639MOL0     N86180   5.203   5.670   1.066  0.0482  0.4924 -0.0300
  639MOL0     N86181   5.130   5.567   1.071  0.0662 -0.0696  0.5058
  639MOL0     C86182   5.662   5.708   0.961  1.1831  0.0404 -0.1338
  639MOL0     C86183   5.710   5.832   0.904  0.0885  0.3597 -0.6248
  639MOL0     C86184   5.930   6.197   0.792 -0.2001  0.0329  0.2432
  639MOL0     C86185   6.052   6.200   0.866  0.4971 -0.3082 -0.1921
  639MOL0     C86186   6.134   6.313   0.871 -0.7458  0.6937  0.6962
  639MOL0     C86187   6.102   6.422   0.791  0.5921 -0.5460  1.8659
  639MOL0     O86188   6.169   6.541   0.788  0.7420 -1.0185  0.2590
  639MOL0     C86189   6.077   6.650   0.820  0.1557  0.5699  0.2048
  639MOL0     C86190   6.002   6.636   0.943  0.2633  0.3235 -0.2031
  639MOL0     C86191   6.098   6.622   1.068 -0.1844  0.0936 -0.7504
  639MOL0     C86192   6.049   6.712   1.179 -0.0017 -0.0974  0.1793
  639MOL0     C86193   6.143   6.725   1.290  0.2057 -0.1397  0.4821
  639MOL0     C86194   6.219   6.729   1.382 -1.0338 -0.3998 -0.0576
  639MOL0     C86195   5.996   6.412   0.703  0.4960  0.0589  0.6389
  639MOL0     C86196   5.893   6.305   0.715  0.7430  0.2229 -0.0300
  639MOL0     C86197   5.755   6.312   0.638  0.5926 -0.1661  0.5642
  639MOL0     H86198   6.034   5.803   0.957 -0.1508  1.1453 -1.2109
  639MOL0     H86199   5.961   5.592   1.086 -1.9199 -0.2833  1.6051
  639MOL0     H86200   5.515   5.483   1.073  0.6363  1.7967 -0.9576
  639MOL0     H86201   5.638   5.415   0.962 -1.8178  1.2757 -1.7227
  639MOL0     H86202   5.591   5.337   1.246  0.2483  0.9456 -0.3929
  639MOL0     H86203   5.735   5.291   1.153  0.0754  1.7997  0.3022
  639MOL0     H86204   5.630   5.107   1.080  2.2041  1.6660 -2.9350
  639MOL0     H86205   5.552   5.213   0.970  1.4906 -0.8099 -1.0785
  639MOL0     H86206   5.402   5.047   1.105  2.1308 -1.9671  1.8107
  639MOL0     H86207   5.452   5.130   1.236  0.5175  1.3732  0.0636
  639MOL0     H86208   5.336   5.341   1.161 -3.2857  1.2005 -0.5605
  639MOL0     H86209   5.294   5.255   1.003 -5.0092 -1.0511  0.3555
  639MOL0     H86210   5.151   5.099   1.156  0.5732  0.3470 -1.0534
  639MOL0     H86211   5.212   5.204   1.288  0.6827  3.6419 -0.7686
  639MOL0     H86212   4.968   5.238   1.179 -0.6758  1.8480 -0.2914
  639MOL0     H86213   5.062   5.315   1.055 -1.1154 -0.4000  0.2599
  639MOL0     H86214   4.947   5.440   1.257 -0.1089 -1.0777 -0.1813
  639MOL0     H86215   5.078   5.395   1.354 -0.6632  2.6046  0.5923
  639MOL0     H86216   5.243   5.569   1.373 -1.3009 -0.3231  0.1366
  639MOL0     H86217   5.464   5.730   1.219 -0.8913 -1.4584 -2.1811
  639MOL0     H86218   5.366   5.846   1.120  0.5078  0.1785  0.3186
  639MOL0     H86219   5.225   5.903   1.340 -0.5581 -1.6031  2.5428
  639MOL0     H86220   5.349   5.836   1.426  0.7949  0.7524  0.3567
  639MOL0     H86221   5.400   6.071   1.236  0.9597 -1.4681 -0.4420
  639MOL0     H86222   5.514   5.988   1.331  0.9678  1.5185  1.3576
  639MOL0     H86223   5.355   6.047   1.530  1.8970  2.3000  0.7760
  639MOL0     H86224   5.249   6.138   1.426 -1.0275 -0.7183  1.1992
  639MOL0     H86225   5.594   6.223   1.617 -1.6894 -0.4181 -0.0262
  639MOL0     H86226   5.609   6.384   1.824  0.1869  1.5065 -0.1315
  639MOL0     H86227   5.791   6.656   2.074 -0.1927 -1.0672  1.6838
  639MOL0     H86228   5.827   6.757   2.282  0.1258 -0.0703  1.3709
  639MOL0     H86229   5.476   6.771   2.559  0.0574  1.2545 -2.1148
  639MOL0     H86230   5.616   6.658   2.562  1.4957  0.0703 -2.3174
  639MOL0     H86231   5.603   6.772   2.785 -3.6187 -3.9991 -2.5130
  639MOL0     H86232   5.745   6.798   2.700 -1.3090 -5.1621  0.5687
  639MOL0     H86233   5.703   7.008   2.618 -2.8590  0.5991 -2.1405
  639MOL0     H86234   5.535   6.997   2.662  0.4561  0.9970  0.3405
  639MOL0     H86235   5.745   6.978   2.883 -1.5045  0.4390  1.2715
  639MOL0     H86236   5.570   7.024   2.893 -0.1572  0.0502  0.9269
  639MOL0     H86237   5.620   7.246   2.760  2.9437  2.9127 -1.4331
  639MOL0     H86238   5.784   7.206   2.775 -0.6040 -0.7442 -1.4984
  639MOL0     H86239   5.609   7.257   3.018 -0.2568 -1.8255 -0.3702
  639MOL0     H86240   5.788   7.256   3.008  0.0394  1.9601 -0.4418
  639MOL0     H86241   5.719   7.462   2.830 -1.1425 -2.5687 -1.9593
  639MOL0     H86242   5.734   7.494   3.009 -4.0007 -0.3860  1.6566
  639MOL0     H86243   5.467   7.430   2.896 -0.6562 -0.1714  1.0584
  639MOL0     H86244   5.512   7.458   3.058 -0.1182  1.1786 -0.7123
  639MOL0     H86245   5.415   6.787   2.367  1.0807  0.9139  1.3380
  639MOL0     H86246   5.360   6.679   2.141 -0.1731 -0.2348  0.3575
  639MOL0     H86247   5.280   6.593   1.672 -0.4765 -0.4895  0.5090
  639MOL0     H86248   5.244   6.443   1.484  1.1585 -1.1295 -1.3352
  639MOL0     H86249   5.554   5.699   0.963  1.0126  1.9222  0.8736
  639MOL0     H86250   5.648   5.920   0.888  1.2889  1.2285 -0.6683
  639MOL0     H86251   6.073   6.120   0.936  2.2739  0.8968  0.7023
  639MOL0     H86252   6.222   6.320   0.935 -0.3997 -1.1373  0.4618
  639MOL0     H86253   6.007   6.678   0.742 -1.1134  1.2680  1.5485
  639MOL0     H86254   6.135   6.742   0.828  2.9640 -1.0537  0.3154
  639MOL0     H86255   5.924   6.559   0.947 -1.2201  1.6586 -1.9344
  639MOL0     H86256   5.931   6.719   0.948  0.2001  0.1990  1.3603
  639MOL0     H86257   6.202   6.652   1.049  0.3896  1.2472  3.3811
  639MOL0     H86258   6.099   6.520   1.107 -1.4506  0.0001 -0.9425
  639MOL0     H86259   6.012   6.810   1.147 -0.9701 -1.0810 -1.8864
  639MOL0     H86260   5.952   6.676   1.216  0.3594  0.2336  1.5311
  639MOL0     H86261   6.301   6.724   1.450 -2.1024 -1.3661  1.2196
  639MOL0     H86262   5.981   6.496   0.636 -0.6212  0.0903  0.9011
  639MOL0     H86263   5.674   6.332   0.709 -0.4867  2.0042 -1.1703
  639MOL0     H86264   5.771   6.398   0.573  0.9418 -0.5112  0.1881
  639MOL0     H86265   5.748   6.222   0.576 -0.6657  0.2611  0.0488
  640MOL0     O86266   4.421  10.748   0.803 -0.7406  0.3181  0.8890
  640MOL0     C86267   4.426  10.862   0.843  0.2341 -0.1322  0.3515
  640MOL0     O86268   4.492  10.908   0.956 -0.4656  0.0730  0.4083
  640MOL0     C86269   4.610  10.839   0.976  0.4186 -1.0804  0.7898
  640MOL0     C86270   4.713  10.856   0.888  0.0513 -1.2566  0.7413
  640MOL0     C86271   4.828  10.777   0.909  0.0830 -0.8452 -0.4829
  640MOL0     C86272   4.838  10.703   1.022  0.1571 -0.1098  0.9643
  640MOL0     O86273   4.955  10.628   1.051 -0.4110  0.0312  0.2133
  640MOL0     C86274   5.079  10.630   0.981  0.3447  0.8260  0.2587
  640MOL0     C86275   5.193  10.703   1.058 -0.9469 -0.4538 -0.4506
  640MOL0     C86276   5.234  10.617   1.182  0.3705 -0.3561 -0.4151
  640MOL0     C86277   5.291  10.717   1.281  0.6703  0.6731  0.6584
  640MOL0     C86278   5.355  10.640   1.401  0.1155  0.5574 -0.0166
  640MOL0     C86279   5.391  10.728   1.521 -0.6443 -0.3808 -0.2187
  640MOL0     C86280   5.433  10.659   1.644  1.0038  0.1323 -0.4666
  640MOL0     C86281   5.545  10.547   1.623  0.1881  0.2154 -0.0947
  640MOL0     N86282   5.586  10.488   1.753  0.9542 -0.0854 -0.3254
  640MOL0     C86283   5.501  10.428   1.851  0.4937  0.2479 -0.6181
  640MOL0     C86284   5.570  10.438   1.968 -0.1512  1.1319  0.3288
  640MOL0     C86285   5.511  10.366   2.084  0.5328  0.3642 -0.1868
  640MOL0     C86286   5.562  10.215   2.104  0.5658  1.2332  0.7632
  640MOL0     C86287   5.682  10.200   2.190 -0.5383  0.8498 -0.1268
  640MOL0     C86288   5.739  10.051   2.207 -0.6370 -0.0038 -0.0030
  640MOL0     O86289   5.852  10.062   2.282 -0.6825  0.9736  0.0445
  640MOL0     C86290   5.851  10.075   2.419 -0.8364  0.8059  0.1466
  640MOL0     C86291   5.975  10.097   2.475  0.4106 -0.0938 -0.4674
  640MOL0     C86292   5.987  10.128   2.611  0.8155 -0.5599 -1.0979
  640MOL0     C86293   5.871  10.122   2.695 -0.6883 -0.1277  0.3375
  640MOL0     C86294   5.882  10.150   2.837  0.3484 -0.8540  0.0105
  640MOL0     O86295   5.770  10.115   2.910  0.5871 -0.0287  0.3362
  640MOL0     C86296   5.781  10.136   3.044 -0.1575 -0.3307 -0.0234
  640MOL0     C86297   5.745  10.263   3.090  0.2727 -0.5100  0.1226
  640MOL0     C86298   5.770  10.305   3.225 -0.4987 -0.1607  1.3871
  640MOL0     C86299   5.805  10.209   3.313 -0.2659 -0.2545  0.0757
  640MOL0     O86300   5.810  10.225   3.450 -1.0428  0.7592  0.8895
  640MOL0     C86301   5.691  10.297   3.506  0.1568 -0.5350  0.5216
  640MOL0     C86302   5.561  10.230   3.488 -0.5445  0.0262  0.6204
  640MOL0     C86303   5.440  10.302   3.543 -0.5171 -0.3153  0.5944
  640MOL0     C86304   5.314  10.211   3.550 -0.0864  0.0254 -0.2663
  640MOL0     C86305   5.186  10.277   3.491  0.1144 -0.1744 -0.7564
  640MOL0     C86306   5.073  10.170   3.475 -0.9379  0.6953  0.2392
  640MOL0     C86307   4.942  10.240   3.440 -0.8917 -0.0014 -0.1463
  640MOL0     C86308   4.833  10.151   3.379 -0.7064 -0.4806  0.3485
  640MOL0    Cl86309   4.863  10.110   3.201  0.2285  0.0772  0.2095
  640MOL0     C86310   5.853  10.080   3.266  0.1921  0.9098  0.3286
  640MOL0     C86311   5.842  10.044   3.133 -0.0649 -0.1398  0.8927
  640MOL0     O86312   5.983  10.210   2.877 -0.6823  0.1254 -0.3297
  640MOL0     C86313   5.745  10.098   2.639  0.4556  0.9236  1.0296
  640MOL0     C86314   5.737  10.081   2.498 -0.6186  0.2825  0.4781
  640MOL0     N86315   5.691  10.490   1.946  0.0760 -0.5039 -0.4137
  640MOL0     N86316   5.706  10.516   1.820 -0.1330 -1.2536 -0.1331
  640MOL0     C86317   4.734  10.689   1.108 -0.3773  0.6432  0.2438
  640MOL0     C86318   4.626  10.763   1.089  0.8533  0.5723  0.3316
  640MOL0     C86319   4.333  10.961   0.773 -0.4627 -0.0656  0.9171
  640MOL0     C86320   4.216  11.004   0.832  0.5193 -0.8621 -0.9410
  640MOL0     C86321   4.118  11.090   0.773  0.1218  0.0457  0.2610
  640MOL0     C86322   4.140  11.136   0.646 -0.0117 -0.3841  0.2801
  640MOL0     O86323   4.060  11.241   0.609  0.1987  1.2357  0.2724
  640MOL0     C86324   4.068  11.275   0.474 -0.4380  0.3198 -0.6407
  640MOL0     C86325   3.931  11.354   0.441 -1.0202  0.6610 -0.9736
  640MOL0     C86326   3.945  11.397   0.300 -0.2253 -0.2698  0.2882
  640MOL0     C86327   3.827  11.488   0.256 -0.4250  0.0506  1.0571
  640MOL0     C86328   3.865  11.583   0.149 -0.2890  0.7091  0.4714
  640MOL0     C86329   3.871  11.654   0.047 -0.3806  0.3501 -0.9095
  640MOL0     C86330   4.252  11.094   0.581  0.1346  0.5742  0.5354
  640MOL0     C86331   4.346  11.006   0.636 -0.4181  0.3419  0.1165
  640MOL0     C86332   4.461  10.958   0.546 -0.0534 -0.7045 -0.0722
  640MOL0     H86333   4.700  10.928   0.807 -1.2056  0.3919  2.3308
  640MOL0     H86334   4.908  10.789   0.836 -1.7732 -0.5529 -2.5877
  640MOL0     H86335   5.110  10.527   0.960 -0.4721  0.5959  0.1398
  640MOL0     H86336   5.069  10.670   0.880 -2.3229 -1.0571 -0.3304
  640MOL0     H86337   5.157  10.805   1.075  1.9790  0.1488  3.6224
  640MOL0     H86338   5.284  10.717   0.998 -1.1430  0.3427 -0.5681
  640MOL0     H86339   5.308  10.538   1.165  1.7339  0.3475  1.8817
  640MOL0     H86340   5.148  10.571   1.231  0.9551 -0.5784  0.4210
  640MOL0     H86341   5.365  10.785   1.238 -1.0680  2.6788  0.6773
  640MOL0     H86342   5.215  10.785   1.321 -1.2032 -0.8596 -0.0964
  640MOL0     H86343   5.284  10.567   1.441 -0.4390  0.4703 -1.1368
  640MOL0     H86344   5.439  10.582   1.363  0.0927  1.4420 -1.4865
  640MOL0     H86345   5.470  10.795   1.487 -0.8071  0.0474  0.2279
  640MOL0     H86346   5.305  10.792   1.542  1.4150  2.0162  1.6164
  640MOL0     H86347   5.336  10.621   1.677 -0.2013  3.0919 -0.2463
  640MOL0     H86348   5.466  10.725   1.725  1.5150  2.4177 -2.4268
  640MOL0     H86349   5.513  10.470   1.553  0.3308  1.0064 -1.0451
  640MOL0     H86350   5.638  10.591   1.586 -0.5081  1.9545  0.0812
  640MOL0     H86351   5.401  10.389   1.833  0.4304 -0.8642  1.8327
  640MOL0     H86352   5.529  10.425   2.175 -0.5633  1.8933 -0.9067
  640MOL0     H86353   5.403  10.355   2.071  0.3302  2.3953 -0.6357
  640MOL0     H86354   5.490  10.150   2.153  1.9191 -0.9210  0.0200
  640MOL0     H86355   5.577  10.165   2.008 -0.2921  2.0677  0.1737
  640MOL0     H86356   5.648  10.242   2.285 -1.6232  1.1968 -0.6525
  640MOL0     H86357   5.762  10.263   2.149  1.6692 -0.3208  2.1206
  640MOL0     H86358   5.767  10.008   2.110  0.0481  1.5814 -0.5477
  640MOL0     H86359   5.680   9.978   2.264  1.5799 -1.2634  0.8213
  640MOL0     H86360   6.064  10.065   2.422 -0.8176 -1.4435 -1.8420
  640MOL0     H86361   6.087  10.143   2.648  0.7437  0.6072 -1.3511
  640MOL0     H86362   5.707  10.340   3.025 -2.4956 -0.8758  1.1612
  640MOL0     H86363   5.756  10.411   3.244  3.5327  1.1604 -1.6225
  640MOL0     H86364   5.705  10.311   3.614 -0.3939  1.1198  0.4156
  640MOL0     H86365   5.691  10.401   3.470  1.2518 -0.4642  0.6792
  640MOL0     H86366   5.535  10.208   3.384 -1.1159  2.0133  0.3025
  640MOL0     H86367   5.578  10.130   3.527  3.8854  0.0389 -0.6474
  640MOL0     H86368   5.475  10.351   3.635  1.1181 -1.0392  0.3845
  640MOL0     H86369   5.418  10.376   3.466  1.5744 -0.6067 -0.3551
  640MOL0     H86370   5.312  10.182   3.655  1.6727 -1.3000 -0.5551
  640MOL0     H86371   5.337  10.125   3.486  1.4418  1.2391 -1.4462
  640MOL0     H86372   5.198  10.327   3.395 -0.0471  0.8868 -0.2374
  640MOL0     H86373   5.146  10.357   3.554  2.8417  1.4162 -0.8934
  640MOL0     H86374   5.093  10.111   3.385 -0.6404  1.9457 -0.5320
  640MOL0     H86375   5.068  10.106   3.563 -0.5177 -1.9239 -1.5039
  640MOL0     H86376   4.960  10.322   3.371 -2.0471 -0.3157 -0.8554
  640MOL0     H86377   4.888  10.277   3.528 -1.6389 -0.0726 -0.5670
  640MOL0     H86378   4.830  10.058   3.437  3.4106 -1.0092  0.0074
  640MOL0     H86379   4.738  10.203   3.395 -1.0362 -2.0214  4.6360
  640MOL0     H86380   5.896  10.017   3.343 -0.3002 -1.5634 -1.3005
  640MOL0     H86381   5.886   9.952   3.097 -0.7399 -0.1426  0.0579
  640MOL0     H86382   5.663  10.088   2.709 -0.6696 -4.0864 -0.5759
  640MOL0     H86383   5.641  10.063   2.451 -0.9812  1.4549  0.7462
  640MOL0     H86384   4.752  10.637   1.202 -1.8333 -1.5882 -0.6250
  640MOL0     H86385   4.546  10.771   1.163 -0.9376  1.9722 -1.6054
  640MOL0     H86386   4.192  10.984   0.935  1.1674  1.7534 -0.2061
  640MOL0     H86387   4.039  11.117   0.842  2.7576  4.0918  2.1345
  640MOL0     H86388   4.086  11.198   0.399 -1.7213  0.8144 -1.4949
  640MOL0     H86389   4.157  11.339   0.467 -2.6947  3.6638 -1.6818
  640MOL0     H86390   3.936  11.444   0.503  2.3138  1.7077 -2.5415
  640MOL0     H86391   3.834  11.309   0.464  0.8729 -2.1499  2.5200
  640MOL0     H86392   3.955  11.311   0.233  2.6095  0.5748 -0.4849
  640MOL0     H86393   4.034  11.460   0.297 -1.0537  0.9294  0.0553
  640MOL0     H86394   3.740  11.430   0.224  0.6157  0.2430 -2.5726
  640MOL0     H86395   3.788  11.551   0.337 -2.5233  0.7068 -0.3602
  640MOL0     H86396   3.874  11.713  -0.043  0.4427 -2.4038 -2.8159
  640MOL0     H86397   4.270  11.115   0.476  0.3864 -4.0264 -0.5172
  640MOL0     H86398   4.442  10.851   0.532  0.4163 -0.5908 -1.8472
  640MOL0     H86399   4.449  11.009   0.450  1.8592  0.2579  0.1558
  640MOL0     H86400   4.557  10.978   0.595 -0.8234 -0.8421  1.5211
  641MOL0     O86401  10.600  11.075   8.368  0.2790  0.7099 -0.2891
  641MOL0     C86402  10.672  10.984   8.335 -0.4760 -0.1408  0.8176
  641MOL0     O86403  10.779  10.937   8.407  0.6359  1.0462  0.4066
  641MOL0     C86404  10.842  10.995   8.515 -0.2861 -0.1218 -0.0577
  641MOL0     C86405  10.872  11.133   8.508 -0.9779  0.1240 -0.4938
  641MOL0     C86406  10.918  11.199   8.625 -0.4667  0.3948 -0.5943
  641MOL0     C86407  10.921  11.124   8.751 -1.0174 -0.2726  0.1290
  641MOL0     O86408  10.970  11.172   8.868 -0.5128  0.0275 -0.0247
  641MOL0     C86409  10.983  11.303   8.903 -0.4485 -0.0871  0.4574
  641MOL0     C86410  11.067  11.306   9.030  0.4195 -0.4570 -0.5444
  641MOL0     C86411  11.041  11.439   9.095 -0.7253 -0.7288  0.6241
  641MOL0     C86412  11.117  11.471   9.223  0.6578 -0.5070  0.3202
  641MOL0     C86413  11.268  11.469   9.198 -0.4127 -0.6051  0.2697
  641MOL0     C86414  11.349  11.500   9.323  0.1586 -0.4076  0.6968
  641MOL0     C86415  11.327  11.408   9.446  0.9708 -0.4490  0.3082
  641MOL0     C86416  11.429  11.450   9.558  0.1262  0.3417 -0.3692
  641MOL0     N86417  11.461  11.348   9.662  0.2540 -0.0923 -0.0763
  641MOL0     C86418  11.518  11.379   9.781 -0.7058  0.3937 -0.1915
  641MOL0     C86419  11.539  11.253   9.832 -0.1394  0.9357  0.6954
  641MOL0     C86420  11.611  11.238   9.962  0.8721 -0.1880 -0.2638
  641MOL0     C86421  11.757  11.193   9.951  0.8131  1.0493  1.3773
  641MOL0     C86422  11.831  11.195  10.079  0.1577 -0.3621  0.6749
  641MOL0     C86423  11.835  11.057  10.142  1.4000 -0.2754 -0.2844
  641MOL0     O86424  11.885  11.076  10.271  0.1013  0.2562  0.2779
  641MOL0     C86425  11.917  10.980  10.361 -0.0521  0.5952  0.1528
  641MOL0     C86426  11.956  11.025  10.486  0.4063  0.3205 -0.2702
  641MOL0     C86427  11.971  10.927  10.580 -0.1471  1.1328 -0.6046
  641MOL0     C86428  11.951  10.794  10.552 -0.4576  0.0354  0.0676
  641MOL0     C86429  11.955  10.687  10.665 -0.8244 -0.8110  0.7839
  641MOL0     O86430  11.917  10.565  10.633 -0.1493 -0.2602  0.5764
  641MOL0     C86431  11.887  10.476  10.734 -0.1821 -0.3930 -0.0360
  641MOL0     C86432  11.996  10.409  10.794  0.7114 -0.4501  0.6413
  641MOL0     C86433  11.976  10.311  10.881 -0.0248  1.2742 -0.2924
  641MOL0     C86434  11.850  10.287  10.939  0.7770  0.1505  0.4404
  641MOL0     O86435  11.840  10.177  11.024 -0.2687  0.0697 -0.4944
  641MOL0     C86436  11.731  10.161  11.116  0.0392  0.4551  0.1462
  641MOL0     C86437  11.733  10.033  11.205 -1.2027  0.3646 -0.7271
  641MOL0     C86438  11.871  10.033  11.281  0.0080  0.1633 -0.3732
  641MOL0     C86439  11.878   9.915  11.378 -0.7075  1.0616 -0.7610
  641MOL0     C86440  12.008   9.888  11.461  0.5638  0.3731  0.2089
  641MOL0     C86441  12.135   9.878  11.364  0.6958  0.1551  0.2118
  641MOL0     C86442  12.243   9.791  11.435  0.3882 -0.7818 -0.4125
  641MOL0     C86443  12.354   9.760  11.327 -0.0375 -0.1050  0.3437
  641MOL0    Cl86444  12.472   9.634  11.360 -0.0922  0.1083 -0.0035
  641MOL0     C86445  11.743  10.361  10.889  0.9089  0.9550  0.3931
  641MOL0     C86446  11.759  10.455  10.785 -0.8161 -0.2155 -0.3660
  641MOL0     O86447  11.999  10.720  10.777  0.2432  0.5358 -0.1336
  641MOL0     C86448  11.913  10.748  10.428 -0.7277 -0.1953 -0.4095
  641MOL0     C86449  11.893  10.842  10.331  0.3693 -0.6610 -0.0372
  641MOL0     N86450  11.508  11.147   9.743  0.0438 -0.6449  0.5432
  641MOL0     N86451  11.456  11.215   9.642  1.2092 -1.3081 -0.6783
  641MOL0     C86452  10.890  10.984   8.751  0.7227  0.0033 -0.0759
  641MOL0     C86453  10.856  10.925   8.635 -0.0167  0.0773  0.2124
  641MOL0     C86454  10.625  10.896   8.221 -0.7240 -0.5389  0.9147
  641MOL0     C86455  10.581  10.953   8.098  0.0771 -0.2777 -0.5597
  641MOL0     C86456  10.544  10.879   7.989  1.0332 -0.1445 -1.2623
  641MOL0     C86457  10.553  10.742   7.990  0.5916 -0.6824  1.0262
  641MOL0     O86458  10.520  10.665   7.879 -0.0625  0.2515  0.4251
  641MOL0     C86459  10.631  10.602   7.811  0.0784 -0.3120 -0.3087
  641MOL0     C86460  10.659  10.450   7.834 -0.1590  0.2116 -0.2406
  641MOL0     C86461  10.539  10.361   7.802 -0.1787 -1.3946  0.9744
  641MOL0     C86462  10.566  10.216   7.837  0.1190 -0.5115 -0.3494
  641MOL0     C86463  10.442  10.139   7.798  0.1359  0.4095 -0.5815
  641MOL0     C86464  10.350  10.071   7.752  0.1753 -0.1660  0.4818
  641MOL0     C86465  10.583  10.682   8.109 -1.0608  0.4352 -0.3544
  641MOL0     C86466  10.615  10.754   8.227  0.4959 -0.7467 -0.0256
  641MOL0     C86467  10.661  10.684   8.358 -0.4510  0.0902  0.5022
  641MOL0     H86468  10.853  11.190   8.418 -0.0221 -0.6283 -1.1836
  641MOL0     H86469  10.951  11.302   8.619 -3.1700  1.4683  1.1675
  641MOL0     H86470  11.044  11.354   8.828 -3.1522  1.5791 -0.7368
  641MOL0     H86471  10.884  11.348   8.914  0.5871  2.3367  0.5501
  641MOL0     H86472  11.171  11.283   9.007  0.7985 -0.8587  1.4534
  641MOL0     H86473  11.043  11.223   9.098  1.9848 -0.2210  0.3410
  641MOL0     H86474  10.933  11.440   9.114 -0.8933 -1.2971 -0.2570
  641MOL0     H86475  11.056  11.511   9.014  1.5621 -1.4806  0.3162
  641MOL0     H86476  11.087  11.572   9.253  2.2085  0.3176 -0.7525
  641MOL0     H86477  11.091  11.394   9.297 -1.7140 -0.8631 -0.7985
  641MOL0     H86478  11.289  11.363   9.179 -0.9376 -0.8268  0.9117
  641MOL0     H86479  11.306  11.526   9.112  1.1756 -3.7160 -1.2554
  641MOL0     H86480  11.452  11.476   9.296  0.5132  0.0268  1.6014
  641MOL0     H86481  11.348  11.607   9.342  2.3615 -0.0961 -0.6706
  641MOL0     H86482  11.338  11.305   9.410 -0.8783 -0.0115 -1.7432
  641MOL0     H86483  11.225  11.427   9.482  0.9009  1.2041 -0.6623
  641MOL0     H86484  11.525  11.478   9.514  0.3408  2.5021  1.3231
  641MOL0     H86485  11.383  11.538   9.604  1.8939  1.0632  0.0862
  641MOL0     H86486  11.548  11.473   9.824 -2.3588  0.3705  1.1009
  641MOL0     H86487  11.600  11.339  10.004 -2.0903  0.6456 -2.6923
  641MOL0     H86488  11.554  11.174  10.029 -1.2826  3.0982  1.2750
  641MOL0     H86489  11.765  11.093   9.908  0.9925  0.4220  2.8445
  641MOL0     H86490  11.796  11.263   9.876 -1.8306  2.9778  1.6608
  641MOL0     H86491  11.790  11.271  10.147 -0.3608  1.1645 -1.2652
  641MOL0     H86492  11.933  11.227  10.055 -0.2112 -0.2177 -0.7611
  641MOL0     H86493  11.872  10.982  10.072 -2.2798 -1.3312 -1.3407
  641MOL0     H86494  11.729  11.035  10.160  2.0921 -3.5782  0.5092
  641MOL0     H86495  11.962  11.129  10.514  4.1516  0.2667 -0.3537
  641MOL0     H86496  11.998  10.959  10.680 -1.3362  0.7419 -0.1422
  641MOL0     H86497  12.098  10.431  10.765 -0.4568  0.8195 -3.0276
  641MOL0     H86498  12.062  10.255  10.919 -0.6283  0.8624  0.5025
  641MOL0     H86499  11.722  10.249  11.181 -0.8020 -0.2295  0.9852
  641MOL0     H86500  11.647  10.154  11.048  1.5414 -0.7582 -1.6770
  641MOL0     H86501  11.657  10.042  11.283  1.4131 -0.2057  2.1025
  641MOL0     H86502  11.714   9.941  11.150  1.1210  0.3900 -1.6857
  641MOL0     H86503  11.957  10.036  11.214 -0.2186 -1.0537 -0.7286
  641MOL0     H86504  11.883  10.119  11.348  0.2527  1.1497 -1.6382
  641MOL0     H86505  11.866   9.812  11.341 -0.5655  0.9891 -0.6062
  641MOL0     H86506  11.803   9.921  11.457 -0.5717  1.0634 -0.6297
  641MOL0     H86507  11.982   9.800  11.520  1.3145 -0.8133 -1.1543
  641MOL0     H86508  12.015   9.979  11.520 -0.3957  0.2671  0.4906
  641MOL0     H86509  12.113   9.836  11.265  1.3254  0.2045  0.0439
  641MOL0     H86510  12.170   9.982  11.364  2.0304 -0.2227  2.5426
  641MOL0     H86511  12.198   9.702  11.480 -0.0709  0.2908  1.3682
  641MOL0     H86512  12.293   9.850  11.513  1.0671  0.9533 -2.0796
  641MOL0     H86513  12.298   9.744  11.235 -0.9996  0.5803  0.7927
  641MOL0     H86514  12.410   9.853  11.313  1.4698 -1.1943 -1.1416
  641MOL0     H86515  11.645  10.343  10.932  1.6946 -0.3535  1.7384
  641MOL0     H86516  11.688  10.526  10.742 -0.6161 -1.7294 -3.5123
  641MOL0     H86517  11.900  10.641  10.409 -0.1792 -0.6496  1.5609
  641MOL0     H86518  11.869  10.813  10.229 -0.6020  3.1727 -1.0650
  641MOL0     H86519  10.909  10.934   8.846  0.4712  2.3746  1.3133
  641MOL0     H86520  10.836  10.818   8.637  0.4575 -0.0180 -0.1776
  641MOL0     H86521  10.563  11.060   8.090  1.8236  0.0452 -0.5314
  641MOL0     H86522  10.519  10.927   7.895  2.3961 -1.3301 -2.2802
  641MOL0     H86523  10.727  10.655   7.809 -0.7719  1.4093  1.4011
  641MOL0     H86524  10.603  10.605   7.706 -0.5975 -0.9368 -0.1565
  641MOL0     H86525  10.679  10.429   7.939  0.5864  1.0055 -0.2130
  641MOL0     H86526  10.743  10.416   7.773  0.4529  3.6008 -1.4983
  641MOL0     H86527  10.512  10.368   7.697  3.4719  0.3806 -0.0060
  641MOL0     H86528  10.462  10.401   7.868  0.6204  4.4415 -1.0383
  641MOL0     H86529  10.654  10.182   7.782  1.2567  0.7230  0.6546
  641MOL0     H86530  10.582  10.201   7.944 -2.7884  3.3405  0.8636
  641MOL0     H86531  10.259  10.032   7.710 -1.0511  3.5394 -0.7032
  641MOL0     H86532  10.590  10.574   8.119 -1.3438  0.1250 -2.8859
  641MOL0     H86533  10.651  10.575   8.350  0.7617  0.0771 -1.9012
  641MOL0     H86534  10.768  10.700   8.374 -0.8825  1.2500  2.5026
  641MOL0     H86535  10.609  10.729   8.443 -0.4476  0.1868  0.4535
  642MOL0     O86536   2.962  11.351   1.054 -0.1555 -0.6984  0.3307
  642MOL0     C86537   3.067  11.338   0.997 -0.4125 -0.7479 -0.2905
  642MOL0     O86538   3.097  11.375   0.864 -0.8705 -0.0850 -0.3934
  642MOL0     C86539   3.036  11.478   0.805 -0.0936 -0.5613 -0.3718
  642MOL0     C86540   3.031  11.466   0.668 -0.4660 -0.3680  0.0320
  642MOL0     C86541   2.984  11.565   0.592  0.4657 -0.4134 -0.1081
  642MOL0     C86542   2.915  11.678   0.641 -0.3527 -0.1366  0.5064
  642MOL0     O86543   2.881  11.770   0.546  0.0156 -0.1455  0.1838
  642MOL0     C86544   2.779  11.870   0.577 -0.2560  0.1206  0.3550
  642MOL0     C86545   2.736  11.948   0.453  0.2001 -0.8752 -0.7959
  642MOL0     C86546   2.798  12.083   0.456 -0.2818 -0.1118  0.1329
  642MOL0     C86547   2.753  12.190   0.357 -0.4428  0.6575 -0.1873
  642MOL0     C86548   2.638  12.270   0.429 -0.2439  0.5818  0.5496
  642MOL0     C86549   2.574  12.378   0.337  0.5148  0.1068 -1.4856
  642MOL0     C86550   2.468  12.461   0.411  0.3643 -0.3985  1.1768
  642MOL0     C86551   2.426  12.573   0.325 -0.1855  0.2008 -0.1957
  642MOL0     N86552   2.377  12.521   0.191  0.4201  0.4669  0.2715
  642MOL0     C86553   2.249  12.557   0.148 -0.8720  0.9784 -0.9129
  642MOL0     C86554   2.250  12.534   0.011 -0.2776  0.0702  0.0240
  642MOL0     C86555   2.126  12.551  -0.072  0.3026 -0.2515 -0.5271
  642MOL0     C86556   2.085  12.408  -0.104 -0.4083 -0.0288 -0.0961
  642MOL0     C86557   1.978  12.416  -0.204  0.6912  0.3478  0.2775
  642MOL0     C86558   1.904  12.289  -0.208  0.6602  0.1298  0.2661
  642MOL0     O86559   1.815  12.290  -0.318 -0.1283 -0.5242  0.5320
  642MOL0     C86560   1.752  12.173  -0.332  1.0141  0.8669  0.8245
  642MOL0     C86561   1.747  12.065  -0.241  0.5647 -0.3632  0.3622
  642MOL0     C86562   1.697  11.940  -0.291  0.1074  0.0763 -1.0408
  642MOL0     C86563   1.656  11.911  -0.421  0.2902 -0.7433 -0.7021
  642MOL0     C86564   1.596  11.783  -0.465  0.1768  0.1223  0.2462
  642MOL0     O86565   1.582  11.687  -0.371  0.2467  0.0678 -0.6144
  642MOL0     C86566   1.508  11.571  -0.397 -0.2973  0.5281  0.2955
  642MOL0     C86567   1.554  11.449  -0.370 -0.4078 -0.7497 -0.5988
  642MOL0     C86568   1.491  11.332  -0.413  1.0588  0.6440 -0.4138
  642MOL0     C86569   1.354  11.340  -0.447 -0.2075 -0.3779  0.2270
  642MOL0     O86570   1.269  11.231  -0.483 -0.7238  0.5712 -0.3134
  642MOL0     C86571   1.273  11.198  -0.625 -0.4529  0.5696 -0.1974
  642MOL0     C86572   1.227  11.059  -0.650  0.7317 -1.1514 -0.6983
  642MOL0     C86573   1.246  11.007  -0.796  0.4668 -0.9115  0.4510
  642MOL0     C86574   1.250  10.851  -0.806  0.1356 -1.0906 -0.4046
  642MOL0     C86575   1.263  10.802  -0.945  0.6099 -0.0584 -0.3925
  642MOL0     C86576   1.387  10.820  -1.018 -0.6880  1.1791 -0.4258
  642MOL0     C86577   1.476  10.700  -0.968 -1.8665 -0.4021 -0.3056
  642MOL0     C86578   1.619  10.698  -1.017  0.5222  0.1170 -0.4253
  642MOL0    Cl86579   1.676  10.526  -0.995  0.2647  0.1162 -0.2402
  642MOL0     C86580   1.293  11.467  -0.455  0.8151 -0.1699  0.4677
  642MOL0     C86581   1.374  11.581  -0.437  0.0663  0.2085  0.6114
  642MOL0     O86582   1.552  11.772  -0.583 -0.4503  0.5858 -0.0136
  642MOL0     C86583   1.675  12.016  -0.509  0.3566  0.8318  0.1786
  642MOL0     C86584   1.721  12.141  -0.468 -0.4877 -0.5612 -0.2720
  642MOL0     N86585   2.381  12.495  -0.031  0.2310 -0.3686  0.6557
  642MOL0     N86586   2.456  12.493   0.077 -0.7485  0.0266  0.0286
  642MOL0     C86587   2.908  11.690   0.783 -0.2937  0.0413  0.1836
  642MOL0     C86588   2.973  11.591   0.867  0.8705 -0.7662 -0.0669
  642MOL0     C86589   3.166  11.252   1.062  0.0636  0.1216  0.5093
  642MOL0     C86590   3.208  11.132   1.015 -0.1682 -1.3569  0.4969
  642MOL0     C86591   3.317  11.070   1.063 -0.9145  0.0908  0.1134
  642MOL0     C86592   3.399  11.117   1.160  0.1079 -1.0770 -0.0331
  642MOL0     O86593   3.509  11.051   1.206  0.2498 -0.1545 -0.6351
  642MOL0     C86594   3.613  11.054   1.118  0.6868  0.3016 -0.0392
  642MOL0     C86595   3.748  11.022   1.186  1.1569  0.9397  0.4536
  642MOL0     C86596   3.773  10.875   1.236  0.8397 -0.1430  0.3315
  642MOL0     C86597   3.921  10.845   1.268 -0.6903 -0.1204 -0.1978
  642MOL0     C86598   3.953  10.844   1.417  0.1004  0.3700  0.1655
  642MOL0     C86599   3.995  10.828   1.531  1.2534 -0.3860 -0.0489
  642MOL0     C86600   3.356  11.246   1.211  0.4021  0.3059 -1.0614
  642MOL0     C86601   3.242  11.313   1.162 -0.3363  0.1766 -0.3656
  642MOL0     C86602   3.218  11.459   1.206  0.4611 -0.0864  0.3543
  642MOL0     H86603   3.058  11.377   0.612 -1.2215 -1.0204  0.6868
  642MOL0     H86604   2.995  11.556   0.484 -3.1278 -2.6325 -0.4334
  642MOL0     H86605   2.686  11.828   0.617  0.7767 -0.7032  1.9922
  642MOL0     H86606   2.816  11.944   0.649  1.0558  1.6131 -1.7280
  642MOL0     H86607   2.628  11.962   0.463 -0.0171 -2.1378 -1.2152
  642MOL0     H86608   2.745  11.905   0.353  1.4591  0.3437 -1.2342
  642MOL0     H86609   2.905  12.066   0.438  0.0896  1.7883  0.3521
  642MOL0     H86610   2.792  12.126   0.556 -1.9585  2.7092 -1.0843
  642MOL0     H86611   2.837  12.256   0.335  0.0774  0.5068  1.3027
  642MOL0     H86612   2.723  12.151   0.259 -0.2999  2.4156 -0.9663
  642MOL0     H86613   2.558  12.202   0.460 -0.2559 -1.3742 -3.2958
  642MOL0     H86614   2.675  12.329   0.514 -3.0573  1.4235  1.3107
  642MOL0     H86615   2.659  12.444   0.315  1.8157 -0.1771  1.9976
  642MOL0     H86616   2.518  12.329   0.257 -0.3045 -1.1991 -0.1747
  642MOL0     H86617   2.510  12.515   0.496 -1.2570  1.7828  0.6967
  642MOL0     H86618   2.383  12.396   0.438 -1.7091  2.3490  1.6756
  642MOL0     H86619   2.355  12.638   0.377  0.5258  0.9440 -0.1396
  642MOL0     H86620   2.514  12.632   0.299 -1.6299  0.9607 -4.0784
  642MOL0     H86621   2.179  12.604   0.217  2.4440  1.8467  2.1555
  642MOL0     H86622   2.044  12.601  -0.020  1.3165  1.2559 -0.3158
  642MOL0     H86623   2.155  12.607  -0.162  3.2237  0.1770  0.5676
  642MOL0     H86624   2.171  12.350  -0.138  1.0848  0.3074  2.8718
  642MOL0     H86625   2.043  12.368  -0.012  1.3351  1.4242  1.4048
  642MOL0     H86626   2.031  12.428  -0.299  1.6770  1.4836  0.9373
  642MOL0     H86627   1.912  12.498  -0.177  1.2824  1.3223 -1.1471
  642MOL0     H86628   1.864  12.288  -0.106  1.8290  2.2157  0.8090
  642MOL0     H86629   1.981  12.213  -0.226 -1.0252 -1.5425 -0.2136
  642MOL0     H86630   1.760  12.081  -0.134  2.4118  2.7671 -0.2214
  642MOL0     H86631   1.667  11.875  -0.209 -1.4416  3.1534  1.0152
  642MOL0     H86632   1.655  11.438  -0.333 -1.1686  1.1082  2.3199
  642MOL0     H86633   1.544  11.238  -0.398 -0.5603 -0.3351 -0.6455
  642MOL0     H86634   1.203  11.264  -0.678  0.6350  0.5727 -1.7146
  642MOL0     H86635   1.372  11.207  -0.670 -0.2955 -1.5350 -0.3794
  642MOL0     H86636   1.288  10.992  -0.589  1.0000 -1.2964 -1.1204
  642MOL0     H86637   1.123  11.052  -0.618  0.6736 -0.3313 -0.6885
  642MOL0     H86638   1.168  11.043  -0.865 -0.2315 -4.5397 -0.8524
  642MOL0     H86639   1.344  11.044  -0.828  0.6738  0.7045  2.7296
  642MOL0     H86640   1.150  10.822  -0.775 -1.2165  2.2603 -1.1768
  642MOL0     H86641   1.334  10.808  -0.751 -0.5659  0.5426  2.1243
  642MOL0     H86642   1.191  10.854  -1.009  0.3023  1.4099  1.0630
  642MOL0     H86643   1.242  10.695  -0.938  0.2597 -0.1066 -1.9158
  642MOL0     H86644   1.360  10.818  -1.123  1.1297 -0.8814 -0.9350
  642MOL0     H86645   1.424  10.918  -0.988 -0.5729  0.8126  0.6994
  642MOL0     H86646   1.429  10.607  -1.002 -2.2424 -0.2002 -0.3402
  642MOL0     H86647   1.490  10.690  -0.860  0.0217 -0.9232 -0.5645
  642MOL0     H86648   1.619  10.722  -1.124 -1.5714 -2.7698 -1.1964
  642MOL0     H86649   1.668  10.782  -0.967  0.5491  2.2762 -3.7254
  642MOL0     H86650   1.192  11.471  -0.493  0.9887  0.1790  0.0346
  642MOL0     H86651   1.320  11.675  -0.448  1.1567  0.9664  1.5118
  642MOL0     H86652   1.651  12.013  -0.615  2.5463  1.4079 -0.3829
  642MOL0     H86653   1.741  12.231  -0.526 -0.4369  1.1059  2.1440
  642MOL0     H86654   2.853  11.770   0.831 -1.8991 -3.1845  4.2839
  642MOL0     H86655   2.947  11.594   0.972 -1.5395  2.0762 -0.6094
  642MOL0     H86656   3.141  11.090   0.940  0.4711  0.6836 -1.3083
  642MOL0     H86657   3.356  10.982   1.011  1.8617  1.1587  0.2349
  642MOL0     H86658   3.614  11.157   1.082  1.1865 -0.4798 -2.4167
  642MOL0     H86659   3.611  10.981   1.037  2.1764 -0.7553  0.8063
  642MOL0     H86660   3.766  11.096   1.265 -0.0477  0.7019  0.9618
  642MOL0     H86661   3.822  11.053   1.111  0.2238 -0.5717 -1.1484
  642MOL0     H86662   3.726  10.812   1.160  0.8889 -0.3727  0.4934
  642MOL0     H86663   3.705  10.853   1.319 -2.8032 -1.6824 -2.7285
  642MOL0     H86664   3.943  10.743   1.233  0.5014 -0.5631  1.7310
  642MOL0     H86665   3.990  10.916   1.222 -1.1627 -0.4778 -1.5285
  642MOL0     H86666   4.030  10.843   1.631  1.0342  3.0288 -0.3451
  642MOL0     H86667   3.419  11.294   1.286 -2.3722  3.7881 -0.6731
  642MOL0     H86668   3.261  11.512   1.121  1.0972  0.5753  1.0751
  642MOL0     H86669   3.113  11.486   1.220 -0.0148  0.3077 -3.1394
  642MOL0     H86670   3.286  11.481   1.289  0.6753 -1.0421  0.4445
  643MOL0     O86671   5.216   0.953   1.120  0.3299  0.0840 -0.5590
  643MOL0     C86672   5.157   1.013   1.034 -0.0027 -0.0766  0.3601
  643MOL0     O86673   5.217   1.058   0.918  0.1184 -0.1033  0.0926
  643MOL0     C86674   5.352   1.053   0.897 -0.6111 -1.1515  0.4006
  643MOL0     C86675   5.431   1.148   0.946 -0.2135 -0.0408 -0.7173
  643MOL0     C86676   5.570   1.167   0.912  1.0633 -0.1312  0.6251
  643MOL0     C86677   5.638   1.082   0.823 -0.3697 -0.2946  0.2610
  643MOL0     O86678   5.766   1.079   0.786  0.4661 -0.3894 -0.2030
  643MOL0     C86679   5.854   1.123   0.890 -0.2873 -0.2801 -0.4319
  643MOL0     C86680   6.002   1.105   0.850  0.4501  0.0330 -0.8032
  643MOL0     C86681   6.094   1.088   0.967  1.3900 -0.2297  0.4498
  643MOL0     C86682   6.136   1.213   1.045 -0.2037 -0.6765  0.4115
  643MOL0     C86683   6.213   1.188   1.170 -0.6088  0.4266 -0.6265
  643MOL0     C86684   6.324   1.080   1.162 -0.7285  0.1953  0.5625
  643MOL0     C86685   6.412   1.065   1.288  0.9652  0.5512  0.2366
  643MOL0     C86686   6.459   0.922   1.297  0.1359  0.0996  0.3347
  643MOL0     N86687   6.608   0.921   1.315  0.3495  0.6251 -0.0298
  643MOL0     C86688   6.703   0.910   1.209  0.4775 -0.5885 -0.6757
  643MOL0     C86689   6.826   0.923   1.271 -0.0231  0.1257 -0.6666
  643MOL0     C86690   6.955   0.932   1.183  0.7871 -0.7036  0.1457
  643MOL0     C86691   7.084   0.972   1.253 -0.3538  0.3321  1.1845
  643MOL0     C86692   7.172   0.858   1.305  0.0297 -0.3687  0.0115
  643MOL0     C86693   7.136   0.823   1.451  0.3749  1.1923 -0.7817
  643MOL0     O86694   7.234   0.742   1.516  0.0407  0.0212  1.0574
  643MOL0     C86695   7.353   0.802   1.545  0.2677 -0.4551  0.1040
  643MOL0     C86696   7.459   0.712   1.567  0.4031  0.4498 -0.6750
  643MOL0     C86697   7.587   0.754   1.591 -0.5302  1.1205  0.7912
  643MOL0     C86698   7.613   0.894   1.597  0.4186  0.2531  0.9323
  643MOL0     C86699   7.751   0.950   1.601  1.0035  0.0846  0.2240
  643MOL0     O86700   7.855   0.852   1.598  0.2919  0.6779  0.2114
  643MOL0     C86701   7.983   0.892   1.625 -0.4627 -1.1085 -0.7622
  643MOL0     C86702   8.042   1.009   1.570  0.1261  1.7512  0.5482
  643MOL0     C86703   8.168   1.044   1.604  0.4472  0.2315 -0.1000
  643MOL0     C86704   8.249   0.965   1.690 -0.3065 -0.5934 -0.0758
  643MOL0     O86705   8.374   0.986   1.737  0.0811  1.0937  0.6535
  643MOL0     C86706   8.430   1.117   1.749 -0.0299 -0.7015  0.0107
  643MOL0     C86707   8.584   1.117   1.744  1.0249  0.1585  0.8255
  643MOL0     C86708   8.641   1.003   1.832  0.2939  0.3129 -0.4089
  643MOL0     C86709   8.790   0.999   1.799 -0.1918 -0.1183 -0.0193
  643MOL0     C86710   8.886   0.897   1.873 -0.1354  0.4777  0.2703
  643MOL0     C86711   9.036   0.918   1.854 -0.6430 -0.4836 -0.2287
  643MOL0     C86712   9.078   0.902   1.701  0.2834  0.5158 -0.3480
  643MOL0     C86713   9.231   0.897   1.710  0.0446 -0.5212  0.5179
  643MOL0    Cl86714   9.287   1.038   1.794  0.2519 -0.3686  0.2791
  643MOL0     C86715   8.183   0.854   1.742 -0.2025  0.9883  0.1679
  643MOL0     C86716   8.055   0.812   1.713  0.1532  0.7377 -0.3550
  643MOL0     O86717   7.766   1.072   1.628  0.3577 -0.6823  0.1491
  643MOL0     C86718   7.508   0.987   1.573 -0.5554 -0.2471  0.9123
  643MOL0     C86719   7.376   0.942   1.552  0.7498  0.0268  0.0047
  643MOL0     N86720   6.808   0.931   1.413 -0.1161 -0.0255 -0.3740
  643MOL0     N86721   6.676   0.928   1.428 -0.8420 -0.1367 -0.1825
  643MOL0     C86722   5.553   0.980   0.771 -0.2009  0.2187  0.7084
  643MOL0     C86723   5.417   0.966   0.806  0.5996  0.1438  0.0259
  643MOL0     C86724   5.007   1.036   1.050  0.2004  0.0301 -0.5440
  643MOL0     C86725   4.948   0.952   1.143  0.4949  0.7231 -0.4648
  643MOL0     C86726   4.813   0.951   1.159 -0.5180 -1.5320 -0.7306
  643MOL0     C86727   4.726   1.044   1.096  0.1100 -0.3050  0.2666
  643MOL0     O86728   4.592   1.064   1.121 -0.3877  0.0011 -0.1223
  643MOL0     C86729   4.564   1.098   1.265  0.4460 -0.5612 -0.2913
  643MOL0     C86730   4.416   1.095   1.274  0.0485 -0.2827 -0.2216
  643MOL0     C86731   4.341   1.222   1.222 -0.2221  0.0216  0.5030
  643MOL0     C86732   4.195   1.225   1.254 -0.0876 -0.6090  1.1558
  643MOL0     C86733   4.168   1.294   1.381  0.1255 -1.3617 -0.6596
  643MOL0     C86734   4.141   1.343   1.488  0.1920 -0.5686 -0.0347
  643MOL0     C86735   4.781   1.130   0.996  1.4622  0.6383 -0.7686
  643MOL0     C86736   4.920   1.117   0.966  0.5043  0.1431  0.5159
  643MOL0     C86737   4.972   1.223   0.873  0.9795  0.8047  0.3263
  643MOL0     H86738   5.396   1.222   1.017  0.7035  0.2756 -0.5784
  643MOL0     H86739   5.612   1.256   0.958 -0.5900  0.0505  1.9129
  643MOL0     H86740   5.838   1.230   0.910 -0.6927 -0.0908 -1.6601
  643MOL0     H86741   5.846   1.070   0.985  3.2655  0.0207  0.1872
  643MOL0     H86742   6.038   1.195   0.800 -1.5855  0.4227 -1.6896
  643MOL0     H86743   6.014   1.022   0.781 -3.5187 -1.8822  0.4690
  643MOL0     H86744   6.185   1.031   0.948  2.2219  0.6244  1.6583
  643MOL0     H86745   6.037   1.028   1.039 -0.9851  0.4437 -0.7718
  643MOL0     H86746   6.196   1.269   0.972 -2.2052 -0.8903 -1.5178
  643MOL0     H86747   6.064   1.296   1.042 -0.9152 -1.3102 -1.6201
  643MOL0     H86748   6.262   1.277   1.210 -0.3552  0.7614 -1.6561
  643MOL0     H86749   6.137   1.153   1.241  0.7295 -1.6512 -0.1208
  643MOL0     H86750   6.281   0.983   1.137  1.1053 -1.0431  1.9500
  643MOL0     H86751   6.394   1.105   1.082  0.0679  1.5415  1.6406
  643MOL0     H86752   6.362   1.077   1.384  0.6672 -1.6771  0.4088
  643MOL0     H86753   6.484   1.148   1.282  2.4923 -0.8065 -2.3726
  643MOL0     H86754   6.421   0.875   1.388  0.8332  0.9971  1.1042
  643MOL0     H86755   6.423   0.862   1.213 -0.3695  0.9383 -0.0623
  643MOL0     H86756   6.690   0.904   1.101 -1.0174  2.3135 -0.7578
  643MOL0     H86757   6.969   0.843   1.122 -2.2288  0.4405 -2.4957
  643MOL0     H86758   6.939   1.016   1.115 -0.0719  0.5580  1.8280
  643MOL0     H86759   7.144   1.021   1.176  1.4828 -3.5162 -0.1113
  643MOL0     H86760   7.066   1.037   1.339  1.0359  0.2301  1.5855
  643MOL0     H86761   7.271   0.903   1.311  0.6694 -1.1614 -2.8529
  643MOL0     H86762   7.175   0.767   1.244  1.0604 -0.5854  0.3694
  643MOL0     H86763   7.047   0.764   1.427  0.6163  1.5771 -2.8006
  643MOL0     H86764   7.102   0.912   1.505 -0.7656  1.4040 -1.7837
  643MOL0     H86765   7.438   0.607   1.581 -0.5813  0.6490 -0.5851
  643MOL0     H86766   7.654   0.669   1.591 -2.5274 -0.6918  4.1595
  643MOL0     H86767   7.987   1.053   1.488  0.3301 -2.7863 -2.3810
  643MOL0     H86768   8.210   1.128   1.550 -0.4379  0.5112 -0.3747
  643MOL0     H86769   8.406   1.190   1.672 -0.2327  1.7318  2.2337
  643MOL0     H86770   8.398   1.170   1.839  2.7350  3.5177 -1.2044
  643MOL0     H86771   8.628   1.113   1.644  0.7050 -2.9313  0.6877
  643MOL0     H86772   8.613   1.209   1.795 -1.9335  0.9565  1.2209
  643MOL0     H86773   8.618   1.024   1.937 -1.1578 -1.9121 -0.2149
  643MOL0     H86774   8.593   0.909   1.802 -2.2645  0.5459  2.4837
  643MOL0     H86775   8.831   1.100   1.803 -2.0421  0.6916 -0.3342
  643MOL0     H86776   8.795   0.967   1.694 -1.6862 -3.1069  0.7062
  643MOL0     H86777   8.851   0.795   1.858  1.5306 -0.3271  1.6130
  643MOL0     H86778   8.879   0.919   1.980 -0.2334 -1.6729  0.7321
  643MOL0     H86779   9.068   1.011   1.901  0.7538  0.9944 -3.7356
  643MOL0     H86780   9.087   0.839   1.910  2.4646  1.0067 -0.7336
  643MOL0     H86781   9.035   0.978   1.636  0.3465 -1.4183 -2.7838
  643MOL0     H86782   9.045   0.800   1.681  1.3897  0.1988 -0.6273
  643MOL0     H86783   9.281   0.821   1.771  2.0037 -0.0539 -0.4044
  643MOL0     H86784   9.265   0.896   1.606 -3.0065 -0.6203 -0.5808
  643MOL0     H86785   8.250   0.795   1.804  2.3275  3.5577  0.0892
  643MOL0     H86786   8.005   0.727   1.757  1.1248 -0.1153 -0.8645
  643MOL0     H86787   7.525   1.093   1.558  0.9748 -0.2295  2.4611
  643MOL0     H86788   7.299   1.012   1.523 -0.3118 -0.1669  2.1788
  643MOL0     H86789   5.591   0.906   0.702 -1.0825 -2.8494  3.2801
  643MOL0     H86790   5.347   0.893   0.765 -0.9815  0.4448  2.0363
  643MOL0     H86791   5.009   0.882   1.199  0.2977  0.5555 -0.4576
  643MOL0     H86792   4.765   0.889   1.234  2.7422  0.1107  3.0637
  643MOL0     H86793   4.594   1.199   1.294 -0.6200 -0.1912 -0.4298
  643MOL0     H86794   4.597   1.025   1.340  0.5200 -0.3858 -0.1516
  643MOL0     H86795   4.400   1.087   1.382  0.4063 -1.0364 -0.2150
  643MOL0     H86796   4.387   1.003   1.222 -0.2160 -0.5297  0.3607
  643MOL0     H86797   4.343   1.217   1.113 -1.7403 -4.8680  0.4686
  643MOL0     H86798   4.394   1.311   1.259  1.8735 -0.6081 -0.8118
  643MOL0     H86799   4.147   1.275   1.169  0.8756 -2.3063 -0.4874
  643MOL0     H86800   4.145   1.129   1.236 -0.4692 -0.3484  0.7917
  643MOL0     H86801   4.125   1.387   1.584 -2.5083  0.8791 -1.0430
  643MOL0     H86802   4.710   1.199   0.951 -1.3329 -2.4311 -1.4806
  643MOL0     H86803   4.905   1.307   0.896  0.7347  0.5729  0.4645
  643MOL0     H86804   5.073   1.246   0.906  0.5467  1.2805  1.3462
  643MOL0     H86805   4.956   1.182   0.772 -0.7411 -1.4597  1.4372
  644MOL0     O86806   7.335   3.219   4.767 -0.1382 -0.6535  0.5089
  644MOL0     C86807   7.311   3.276   4.877  1.0146  0.4366  0.3285
  644MOL0     O86808   7.362   3.235   5.002  0.0183 -0.0374  0.1629
  644MOL0     C86809   7.442   3.127   5.020  0.1235 -0.1576 -0.4869
  644MOL0     C86810   7.499   3.110   5.152 -0.6190  0.6898 -1.0868
  644MOL0     C86811   7.570   2.992   5.183 -0.3294 -0.6889  0.2410
  644MOL0     C86812   7.581   2.886   5.101 -0.2553  0.0437  0.4051
  644MOL0     O86813   7.647   2.775   5.146 -0.3645 -0.3627 -0.1539
  644MOL0     C86814   7.556   2.658   5.140  0.8736  0.5174  0.4537
  644MOL0     C86815   7.601   2.565   5.258 -0.9818 -0.4188 -1.2245
  644MOL0     C86816   7.568   2.645   5.388 -1.1337  1.0447 -0.4070
  644MOL0     C86817   7.557   2.536   5.498 -0.1365 -0.4742 -0.7440
  644MOL0     C86818   7.475   2.590   5.617  0.0011 -0.0219  0.4057
  644MOL0     C86819   7.513   2.714   5.708 -1.0348 -1.3757 -0.1026
  644MOL0     C86820   7.653   2.687   5.775 -0.1059  0.4389  0.3571
  644MOL0     C86821   7.680   2.787   5.891 -0.7281  0.1009 -0.1824
  644MOL0     N86822   7.796   2.741   5.968 -0.6314 -0.1444  0.7014
  644MOL0     C86823   7.795   2.722   6.107 -0.5029  0.6857  0.6876
  644MOL0     C86824   7.927   2.710   6.145 -0.9418  0.4417 -0.7202
  644MOL0     C86825   7.994   2.673   6.280 -1.1595 -0.5503  0.4848
  644MOL0     C86826   7.949   2.755   6.404 -0.6239  0.7330  0.9363
  644MOL0     C86827   7.859   2.663   6.496 -0.0904  0.9699  0.0635
  644MOL0     C86828   7.847   2.725   6.637 -0.2261 -0.2740  0.3663
  644MOL0     O86829   7.750   2.644   6.695  0.7436 -0.4850  0.1179
  644MOL0     C86830   7.683   2.698   6.805  0.2956  0.3151 -0.4219
  644MOL0     C86831   7.541   2.697   6.812  0.3095  0.5137  0.8427
  644MOL0     C86832   7.477   2.751   6.927 -1.0988 -0.2841 -1.2206
  644MOL0     C86833   7.549   2.806   7.031 -1.0958 -1.1314 -0.2761
  644MOL0     C86834   7.492   2.878   7.148  0.9269 -0.0077  0.2839
  644MOL0     O86835   7.374   2.825   7.195 -0.3637 -0.0515  0.2537
  644MOL0     C86836   7.280   2.904   7.262 -0.2450  0.5424 -0.0365
  644MOL0     C86837   7.148   2.917   7.212  0.0948  0.2333 -0.8964
  644MOL0     C86838   7.053   3.001   7.280 -1.0159 -0.6858  0.1543
  644MOL0     C86839   7.097   3.073   7.394  0.0683 -1.0916 -0.3714
  644MOL0     O86840   7.023   3.161   7.468 -0.3252 -0.2290 -0.0741
  644MOL0     C86841   6.940   3.257   7.398  0.6237 -0.3043  0.2533
  644MOL0     C86842   6.974   3.403   7.431  0.5653  0.1797 -0.4074
  644MOL0     C86843   6.887   3.513   7.359 -0.6375 -0.1543  0.0265
  644MOL0     C86844   6.742   3.504   7.370  0.1244 -0.5462  0.3345
  644MOL0     C86845   6.678   3.627   7.306 -0.0898  0.5173 -0.1682
  644MOL0     C86846   6.536   3.591   7.270 -0.2860 -0.3513 -0.4095
  644MOL0     C86847   6.442   3.709   7.268  0.6636 -0.1768  0.5855
  644MOL0     C86848   6.435   3.795   7.395 -0.4132  0.1626 -0.9231
  644MOL0    Cl86849   6.414   3.707   7.553 -0.2926  0.5718 -0.0484
  644MOL0     C86850   7.226   3.059   7.442 -0.8520 -0.5931  0.0964
  644MOL0     C86851   7.315   2.971   7.376  1.0493  0.3154 -0.7846
  644MOL0     O86852   7.538   2.981   7.196 -0.1115  0.2356 -0.3556
  644MOL0     C86853   7.686   2.821   7.010 -0.1395 -0.1763 -0.5416
  644MOL0     C86854   7.760   2.752   6.912  0.2059  0.0509 -0.0959
  644MOL0     N86855   7.995   2.710   6.030 -0.6394 -0.5962  0.2864
  644MOL0     N86856   7.924   2.729   5.926 -0.3781  0.5206 -0.5904
  644MOL0     C86857   7.527   2.901   4.970  0.8086 -0.8316  0.1664
  644MOL0     C86858   7.459   3.017   4.937 -1.0593  0.3381  0.9445
  644MOL0     C86859   7.202   3.381   4.872  0.5640  0.1806 -0.8037
  644MOL0     C86860   7.125   3.413   4.990 -0.4667 -0.9728  0.0100
  644MOL0     C86861   7.003   3.482   4.993 -0.4416 -0.4848  1.0838
  644MOL0     C86862   6.963   3.533   4.868  0.4894  1.0214 -0.4835
  644MOL0     O86863   6.840   3.590   4.845 -0.1043  0.9435  0.8563
  644MOL0     C86864   6.734   3.612   4.938 -0.4499  0.5375  0.0411
  644MOL0     C86865   6.736   3.765   4.966 -0.3593  0.4213 -0.3590
  644MOL0     C86866   6.714   3.841   4.832 -0.2527 -0.6123 -0.2829
  644MOL0     C86867   6.725   3.996   4.852  0.6381 -1.0375 -0.1391
  644MOL0     C86868   6.619   4.045   4.949 -0.1859 -0.9560 -0.0378
  644MOL0     C86869   6.535   4.098   5.016  0.0809 -0.4580  0.2417
  644MOL0     C86870   7.036   3.523   4.755 -0.1404  0.6661  0.3419
  644MOL0     C86871   7.159   3.454   4.751  1.1265 -0.2805 -0.3779
  644MOL0     C86872   7.246   3.454   4.620  0.6318  0.7370  0.4391
  644MOL0     H86873   7.480   3.190   5.222 -1.6155  2.3197 -3.1019
  644MOL0     H86874   7.617   2.988   5.281 -1.5711 -0.2838  0.8718
  644MOL0     H86875   7.452   2.691   5.139  1.2942  2.2417 -2.9970
  644MOL0     H86876   7.566   2.599   5.048  0.9093  1.2992 -0.0534
  644MOL0     H86877   7.708   2.545   5.254 -0.9850 -0.5454 -0.6891
  644MOL0     H86878   7.552   2.467   5.257 -1.7844 -0.0684  0.3031
  644MOL0     H86879   7.473   2.696   5.368 -1.1646  1.6812  1.2266
  644MOL0     H86880   7.640   2.725   5.409 -0.7338  0.1909  1.7166
  644MOL0     H86881   7.511   2.443   5.462 -2.3512  0.6690 -1.0182
  644MOL0     H86882   7.656   2.516   5.541 -1.3861 -1.8681  1.6913
  644MOL0     H86883   7.376   2.620   5.582  0.4507  2.9327  1.3976
  644MOL0     H86884   7.455   2.495   5.667 -1.7787 -1.6033 -2.9765
  644MOL0     H86885   7.526   2.796   5.636 -0.3997 -0.1581  1.3550
  644MOL0     H86886   7.430   2.743   5.773 -0.7358 -0.5293 -0.0865
  644MOL0     H86887   7.727   2.680   5.695  0.2897 -3.9553  0.9075
  644MOL0     H86888   7.638   2.588   5.818 -0.8347 -1.2919 -3.5087
  644MOL0     H86889   7.703   2.884   5.847 -0.1187 -0.4268 -1.0609
  644MOL0     H86890   7.602   2.801   5.967  0.5237  1.9608  0.8165
  644MOL0     H86891   7.696   2.717   6.151 -0.2149 -0.6973  1.2521
  644MOL0     H86892   7.998   2.566   6.301 -0.4536 -1.0397 -1.9017
  644MOL0     H86893   8.103   2.688   6.283 -0.6412 -3.7222  1.5738
  644MOL0     H86894   8.043   2.788   6.449 -0.4219 -1.0703  1.9254
  644MOL0     H86895   7.881   2.835   6.374 -1.9844 -0.1696  1.4955
  644MOL0     H86896   7.898   2.561   6.509  0.3583  1.4917  5.1589
  644MOL0     H86897   7.758   2.650   6.455 -0.0079 -0.7692  0.3114
  644MOL0     H86898   7.801   2.823   6.623 -0.9246 -0.1504  3.0034
  644MOL0     H86899   7.949   2.739   6.674  0.0030 -1.7636  0.3391
  644MOL0     H86900   7.476   2.645   6.742  0.4587  1.5720 -0.1118
  644MOL0     H86901   7.373   2.723   6.930 -0.2609 -3.6802  0.1879
  644MOL0     H86902   7.110   2.856   7.131 -0.0099 -1.5666  0.4564
  644MOL0     H86903   6.957   3.011   7.232 -0.6636 -0.8386 -0.5977
  644MOL0     H86904   6.923   3.229   7.294 -0.2128 -0.2901  0.3763
  644MOL0     H86905   6.838   3.250   7.437  0.7748  1.2555  1.0058
  644MOL0     H86906   6.957   3.416   7.538 -0.1313 -2.2438 -0.1769
  644MOL0     H86907   7.081   3.420   7.418  1.1824 -1.4526  2.0297
  644MOL0     H86908   6.916   3.602   7.416 -1.2397  0.6373 -0.8873
  644MOL0     H86909   6.908   3.520   7.252  2.3886 -1.8625  0.3993
  644MOL0     H86910   6.713   3.501   7.475  1.1159 -1.0242  0.6058
  644MOL0     H86911   6.705   3.412   7.324 -0.9749 -0.0338  0.1496
  644MOL0     H86912   6.723   3.653   7.209 -0.5895 -0.3082 -0.6363
  644MOL0     H86913   6.697   3.717   7.365 -0.2800  0.4003  0.0740
  644MOL0     H86914   6.538   3.555   7.167 -0.4037  3.2265 -1.7919
  644MOL0     H86915   6.484   3.520   7.336  0.1991  1.8417  2.5618
  644MOL0     H86916   6.340   3.672   7.253  0.8254 -0.6311  0.6164
  644MOL0     H86917   6.457   3.768   7.177 -2.6026  2.9733  1.8075
  644MOL0     H86918   6.530   3.849   7.408  0.8957 -2.2653  0.1529
  644MOL0     H86919   6.359   3.874   7.387 -0.6453  0.1307  0.6367
  644MOL0     H86920   7.265   3.112   7.528 -1.3615 -1.2459  0.7384
  644MOL0     H86921   7.414   2.962   7.422 -0.1629  0.2145  2.0375
  644MOL0     H86922   7.738   2.886   7.078 -0.8602  0.9361 -1.0300
  644MOL0     H86923   7.869   2.761   6.908  0.2040  1.4211  1.4778
  644MOL0     H86924   7.511   2.819   4.901 -1.7365 -0.9648  0.8155
  644MOL0     H86925   7.412   3.022   4.839 -0.1293  4.5857  0.5046
  644MOL0     H86926   7.146   3.360   5.082 -1.2364 -0.0963  0.7122
  644MOL0     H86927   6.930   3.480   5.073 -1.5757 -1.6472  0.0553
  644MOL0     H86928   6.756   3.544   5.021 -1.0273 -1.0596 -1.0551
  644MOL0     H86929   6.633   3.596   4.899 -0.8104 -1.4327  1.6450
  644MOL0     H86930   6.824   3.795   5.023 -0.2941  0.4628 -0.4805
  644MOL0     H86931   6.650   3.796   5.026  0.2180  0.2620  0.5617
  644MOL0     H86932   6.609   3.820   4.810 -1.2436  1.8634  1.6534
  644MOL0     H86933   6.782   3.812   4.751 -0.3687  0.0904 -0.6458
  644MOL0     H86934   6.819   4.026   4.899 -1.4750  2.6511  2.1360
  644MOL0     H86935   6.717   4.055   4.760 -1.7687 -1.4089 -0.2317
  644MOL0     H86936   6.473   4.154   5.084 -0.6624  0.4754 -1.1577
  644MOL0     H86937   6.994   3.573   4.667 -3.3244  0.8422  1.8386
  644MOL0     H86938   7.260   3.553   4.578  1.9061  0.8989  1.1951
  644MOL0     H86939   7.349   3.416   4.624  0.9619  1.4481 -0.9484
  644MOL0     H86940   7.192   3.399   4.543  1.3616  1.0987 -0.3488
  645MOL0     O86941   8.195   7.362   5.337  0.3541 -0.3111  0.3012
  645MOL0     C86942   8.141   7.265   5.375  0.9126 -0.1309 -0.4075
  645MOL0     O86943   8.010   7.262   5.428 -1.1209 -0.0758 -0.4010
  645MOL0     C86944   7.951   7.381   5.457  1.1846  0.7344  0.6031
  645MOL0     C86945   7.821   7.406   5.422 -0.6903 -0.1629  0.7808
  645MOL0     C86946   7.757   7.526   5.456 -0.2356 -0.0344 -0.0916
  645MOL0     C86947   7.817   7.617   5.556  0.4841  0.2648 -0.8223
  645MOL0     O86948   7.741   7.724   5.579 -0.3661 -0.1191  0.1082
  645MOL0     C86949   7.790   7.823   5.672  0.7770  0.5280  0.8412
  645MOL0     C86950   7.774   7.776   5.815  0.4738 -0.3574  0.0302
  645MOL0     C86951   7.864   7.865   5.904  0.3035 -0.3855 -0.0961
  645MOL0     C86952   8.003   7.813   5.918 -0.7338  0.0522 -0.3741
  645MOL0     C86953   8.082   7.874   6.039  0.1356  0.3373 -0.4628
  645MOL0     C86954   8.231   7.870   6.032 -0.6935 -1.3158 -1.4351
  645MOL0     C86955   8.287   7.949   6.154 -1.0539 -1.0296  0.5973
  645MOL0     C86956   8.441   7.973   6.131 -0.0999 -0.0379  0.7925
  645MOL0     N86957   8.520   7.846   6.140 -0.4405  1.0952  0.9338
  645MOL0     C86958   8.553   7.781   6.259 -1.2670 -0.8609  0.2721
  645MOL0     C86959   8.604   7.658   6.224 -0.5444 -0.8471 -0.8570
  645MOL0     C86960   8.656   7.556   6.313  0.5652 -0.3179 -0.7167
  645MOL0     C86961   8.741   7.452   6.233 -0.6716  0.1802 -1.1801
  645MOL0     C86962   8.875   7.504   6.187 -0.2061 -0.2382 -0.2387
  645MOL0     C86963   8.969   7.409   6.126  0.4506  0.2957 -0.1680
  645MOL0     O86964   9.009   7.319   6.223 -1.1234  0.8441  0.2432
  645MOL0     C86965   9.134   7.337   6.288 -0.3717  0.6594 -0.1229
  645MOL0     C86966   9.167   7.452   6.362 -0.0284  0.0723 -0.3707
  645MOL0     C86967   9.300   7.484   6.388  0.1133 -0.8293 -0.0637
  645MOL0     C86968   9.407   7.391   6.365  0.3870  0.4306 -0.2795
  645MOL0     C86969   9.541   7.416   6.408 -0.7892  1.5973 -0.0588
  645MOL0     O86970   9.636   7.314   6.396 -0.0543  0.2179  0.4247
  645MOL0     C86971   9.765   7.324   6.455 -0.5613 -0.0174  0.2726
  645MOL0     C86972   9.822   7.196   6.473  0.6422  0.6253 -0.3577
  645MOL0     C86973   9.948   7.186   6.520  0.2941  0.4926  0.8549
  645MOL0     C86974  10.018   7.300   6.563 -1.0801 -0.9000 -0.6154
  645MOL0     O86975  10.147   7.298   6.609 -0.3162 -0.7922  0.2581
  645MOL0     C86976  10.234   7.187   6.597 -0.5632  0.9733  0.1323
  645MOL0     C86977  10.375   7.217   6.660  0.1331  0.5335 -0.1353
  645MOL0     C86978  10.481   7.103   6.625  0.9472 -0.1074 -0.7835
  645MOL0     C86979  10.453   6.991   6.722 -0.4314 -0.2165 -0.9703
  645MOL0     C86980  10.552   6.883   6.709 -0.3933 -0.4887  0.1212
  645MOL0     C86981  10.559   6.810   6.836  0.3342 -0.5729  0.2495
  645MOL0     C86982  10.645   6.678   6.818  0.3779 -1.0029  0.7305
  645MOL0     C86983  10.591   6.542   6.868  0.1851  0.2679  0.2228
  645MOL0    Cl86984  10.575   6.546   7.047  0.0781 -0.3670 -0.1795
  645MOL0     C86985   9.955   7.423   6.544  0.2939  0.5552 -0.4879
  645MOL0     C86986   9.830   7.430   6.506 -0.4996 -0.4670  0.4060
  645MOL0     O86987   9.569   7.523   6.465 -0.0161  0.0905  0.9579
  645MOL0     C86988   9.371   7.269   6.305  0.0898  0.2072  0.2449
  645MOL0     C86989   9.243   7.246   6.260 -0.1137  0.1503 -0.2035
  645MOL0     N86990   8.604   7.651   6.084  0.8544  0.1441 -0.2381
  645MOL0     N86991   8.558   7.764   6.036  0.0650 -0.4171  0.1110
  645MOL0     C86992   7.938   7.577   5.614 -0.4381 -0.4448 -0.7180
  645MOL0     C86993   8.008   7.466   5.555 -0.1634 -0.5539 -0.2866
  645MOL0     C86994   8.221   7.143   5.377  0.1317 -0.1840 -0.1875
  645MOL0     C86995   8.219   7.072   5.497 -0.7712 -0.5710  0.1594
  645MOL0     C86996   8.301   6.953   5.520  0.2758  0.0452  0.3794
  645MOL0     C86997   8.375   6.894   5.407 -0.1845  0.8105  0.3722
  645MOL0     O86998   8.446   6.778   5.418  0.9476 -0.0188  0.4451
  645MOL0     C86999   8.449   6.708   5.544  0.7295  0.2114  0.9773
  645MOL0     C87000   8.325   6.629   5.583 -0.1179 -0.2781 -0.8263
  645MOL0     C87001   8.314   6.506   5.488  0.6648 -0.8633 -0.1871
  645MOL0     C87002   8.167   6.467   5.470 -0.2701  1.0418  0.0583
  645MOL0     C87003   8.121   6.411   5.601  0.3964 -1.5209  0.3097
  645MOL0     C87004   8.092   6.384   5.719  0.3931  0.2404 -0.8312
  645MOL0     C87005   8.366   6.962   5.283  0.7330  0.0435 -0.5799
  645MOL0     C87006   8.289   7.083   5.269  0.0260 -1.1178 -0.2094
  645MOL0     C87007   8.280   7.154   5.135 -0.7088 -0.5920  0.8250
  645MOL0     H87008   7.771   7.345   5.347 -1.5043  1.8697 -0.4044
  645MOL0     H87009   7.658   7.561   5.428  0.6472  1.9571 -0.9467
  645MOL0     H87010   7.895   7.843   5.649  0.8968  1.0970  1.8239
  645MOL0     H87011   7.735   7.914   5.643  0.4271 -0.0648 -0.4502
  645MOL0     H87012   7.811   7.675   5.834  3.7657  0.8469  0.7398
  645MOL0     H87013   7.671   7.784   5.851 -0.0407 -1.7928 -0.9993
  645MOL0     H87014   7.817   7.859   6.002 -0.5330  1.6812 -0.3258
  645MOL0     H87015   7.878   7.971   5.878  2.5082 -0.4264  0.6534
  645MOL0     H87016   8.012   7.704   5.919  1.2508  0.1244 -2.2467
  645MOL0     H87017   8.064   7.850   5.835  0.7454  0.5927  0.9201
  645MOL0     H87018   8.050   7.977   6.059  0.8503  0.5045 -0.1706
  645MOL0     H87019   8.057   7.827   6.134  0.7362  3.0624  1.1566
  645MOL0     H87020   8.254   7.763   6.033 -2.9146 -1.8514 -1.0919
  645MOL0     H87021   8.269   7.925   5.946 -0.6045  1.2711  0.1427
  645MOL0     H87022   8.256   7.909   6.251  2.3887 -3.2116  0.9713
  645MOL0     H87023   8.248   8.052   6.148  2.8025  0.6302  1.0071
  645MOL0     H87024   8.452   7.997   6.024 -0.5708  1.5114  1.0670
  645MOL0     H87025   8.482   8.054   6.193 -1.5251  1.8200 -0.5831
  645MOL0     H87026   8.550   7.817   6.362 -0.5756 -0.4763  0.1616
  645MOL0     H87027   8.725   7.602   6.384 -0.2056 -1.1359  0.6148
  645MOL0     H87028   8.569   7.509   6.361 -1.6595  1.6041 -2.5920
  645MOL0     H87029   8.772   7.383   6.313 -0.4962  2.4852  0.8480
  645MOL0     H87030   8.682   7.397   6.159 -1.6037 -0.8628  0.2907
  645MOL0     H87031   8.914   7.558   6.273  3.1804 -1.1346 -1.0645
  645MOL0     H87032   8.862   7.581   6.110 -0.0473 -0.6103 -0.6473
  645MOL0     H87033   9.053   7.456   6.074  0.3679 -0.3645 -0.9230
  645MOL0     H87034   8.911   7.354   6.051  0.4559 -1.8803  1.3429
  645MOL0     H87035   9.081   7.515   6.379  0.0495  0.7697 -2.3370
  645MOL0     H87036   9.315   7.585   6.423  2.4420 -0.6833 -1.2606
  645MOL0     H87037   9.763   7.107   6.456 -0.9180  1.6755 -0.7344
  645MOL0     H87038   9.991   7.087   6.532 -2.3457 -0.8110  0.3315
  645MOL0     H87039  10.189   7.096   6.637  1.7368  0.1014  0.9161
  645MOL0     H87040  10.246   7.169   6.490  0.8904 -1.0759  0.5848
  645MOL0     H87041  10.401   7.313   6.615  0.0961  0.3403 -0.5783
  645MOL0     H87042  10.368   7.234   6.768  2.5585 -2.2923  0.6247
  645MOL0     H87043  10.468   7.079   6.519 -2.5611  2.3991 -1.1014
  645MOL0     H87044  10.585   7.135   6.632  1.4139 -1.8663  1.8924
  645MOL0     H87045  10.349   6.957   6.712 -0.7159 -0.8881  2.7361
  645MOL0     H87046  10.449   7.030   6.824 -1.1675 -0.0480 -1.0572
  645MOL0     H87047  10.651   6.906   6.669 -0.7459  1.2582  0.1593
  645MOL0     H87048  10.518   6.809   6.636  0.4111 -1.2759  0.5332
  645MOL0     H87049  10.590   6.874   6.919  0.1748 -0.8157  0.4993
  645MOL0     H87050  10.452   6.790   6.847  0.2709 -1.7707 -2.0719
  645MOL0     H87051  10.745   6.692   6.860  0.7555  1.0640 -0.7222
  645MOL0     H87052  10.666   6.665   6.711  2.2652  0.9430  0.8084
  645MOL0     H87053  10.492   6.526   6.823 -0.0393  0.6886  0.5513
  645MOL0     H87054  10.655   6.457   6.845  1.1409  0.8185  0.7747
  645MOL0     H87055  10.017   7.511   6.558  1.3192 -0.0626 -0.9803
  645MOL0     H87056   9.791   7.531   6.508  0.8558  0.0820  0.5508
  645MOL0     H87057   9.445   7.192   6.284 -1.4494 -1.2683  0.0584
  645MOL0     H87058   9.224   7.156   6.202  3.6699 -0.6267 -0.5198
  645MOL0     H87059   8.000   7.636   5.681  1.2113  0.2920 -2.7536
  645MOL0     H87060   8.105   7.450   5.600 -0.8089 -1.6026  0.7684
  645MOL0     H87061   8.166   7.111   5.584 -2.0693  1.6426 -1.5046
  645MOL0     H87062   8.297   6.890   5.608  2.1148 -0.9469 -0.1734
  645MOL0     H87063   8.482   6.777   5.622 -0.8418  3.9909 -1.4120
  645MOL0     H87064   8.530   6.638   5.520 -2.2426 -2.3023 -3.2728
  645MOL0     H87065   8.237   6.693   5.590  0.9202  1.0432  0.8035
  645MOL0     H87066   8.346   6.595   5.685 -2.1377  2.2055  0.5302
  645MOL0     H87067   8.370   6.425   5.535  0.2082 -0.4656  1.0809
  645MOL0     H87068   8.352   6.534   5.389  0.3793  0.9953  0.1851
  645MOL0     H87069   8.108   6.553   5.438 -0.4901  0.6966 -0.4758
  645MOL0     H87070   8.166   6.394   5.388  1.5468 -0.5711  1.3529
  645MOL0     H87071   8.066   6.361   5.820 -1.7639  3.0344 -0.6602
  645MOL0     H87072   8.421   6.919   5.200  0.0041 -0.1601 -0.9705
  645MOL0     H87073   8.192   7.120   5.080  1.3618  1.2471 -4.1922
  645MOL0     H87074   8.283   7.263   5.128 -0.9929 -0.6325 -0.0440
  645MOL0     H87075   8.364   7.114   5.077 -0.7304 -0.5205  0.7440
  646MOL0     O87076  10.246   9.814   1.968  0.5237  0.2529 -0.4571
  646MOL0     C87077  10.275   9.848   1.853  1.3265 -0.5091 -0.3655
  646MOL0     O87078  10.381   9.927   1.826  0.4783 -1.1574  0.0224
  646MOL0     C87079  10.455   9.958   1.929  0.6191 -0.4823 -0.4336
  646MOL0     C87080  10.433  10.075   2.006 -0.0247 -0.4242  0.5387
  646MOL0     C87081  10.515  10.100   2.119  0.0760 -0.0125 -0.0469
  646MOL0     C87082  10.620  10.010   2.158  0.7265 -0.3689 -1.0096
  646MOL0     O87083  10.712  10.022   2.262  0.2578  0.4062 -0.0268
  646MOL0     C87084  10.683  10.117   2.363 -0.5618 -0.0456  0.2062
  646MOL0     C87085  10.782  10.092   2.470  0.0220  0.6066 -0.7769
  646MOL0     C87086  10.787  10.212   2.571  1.2525 -0.1065  0.6387
  646MOL0     C87087  10.932  10.213   2.620 -0.1334  0.6841  0.2624
  646MOL0     C87088  10.943  10.288   2.753  0.3458  0.8764  0.0767
  646MOL0     C87089  11.098  10.291   2.782  0.5890 -0.1776 -0.7678
  646MOL0     C87090  11.128  10.333   2.928 -0.9545 -0.7610 -0.2725
  646MOL0     C87091  11.044  10.446   2.976  0.9790  0.4036 -1.0238
  646MOL0     N87092  11.066  10.507   3.112 -0.1154  0.1366 -0.4268
  646MOL0     C87093  11.198  10.535   3.155  0.4405 -0.7572  0.6314
  646MOL0     C87094  11.184  10.622   3.257 -0.2003 -0.8168  0.7466
  646MOL0     C87095  11.293  10.682   3.339  0.2284  0.5666  0.2210
  646MOL0     C87096  11.259  10.694   3.489  0.0170 -0.0708 -0.3304
  646MOL0     C87097  11.370  10.778   3.550  0.3185 -0.4965 -0.4094
  646MOL0     C87098  11.344  10.793   3.706 -0.4738 -0.0361  0.4819
  646MOL0     O87099  11.469  10.804   3.785  1.0133  1.1367  0.1413
  646MOL0     C87100  11.449  10.761   3.913  0.3501 -0.2465 -0.7118
  646MOL0     C87101  11.334  10.778   3.984 -0.2144  0.4787  0.3835
  646MOL0     C87102  11.323  10.740   4.114 -0.1550 -0.2761 -0.3736
  646MOL0     C87103  11.436  10.686   4.192  0.1850 -0.3710  0.6786
  646MOL0     C87104  11.432  10.632   4.329  0.8960  1.0654 -0.0720
  646MOL0     O87105  11.553  10.589   4.378  0.5815 -0.1643 -0.8120
  646MOL0     C87106  11.571  10.533   4.499 -0.5401 -0.2692 -0.0882
  646MOL0     C87107  11.532  10.607   4.617  0.2830 -0.0510  0.1226
  646MOL0     C87108  11.547  10.539   4.743  0.5153 -1.1394 -0.6849
  646MOL0     C87109  11.608  10.411   4.753 -0.2405 -0.0970 -0.2768
  646MOL0     O87110  11.618  10.349   4.877  0.5976  0.6218 -0.3241
  646MOL0     C87111  11.718  10.413   4.961  0.2080 -0.4621 -0.2339
  646MOL0     C87112  11.646  10.444   5.095  0.1605 -1.2413  1.0330
  646MOL0     C87113  11.626  10.330   5.198  0.0809 -0.8898  0.5175
  646MOL0     C87114  11.584  10.385   5.329 -0.7282  0.7235  0.2417
  646MOL0     C87115  11.453  10.459   5.345  0.7093  0.0016  0.6768
  646MOL0     C87116  11.468  10.542   5.465  0.4771  0.1350 -0.5238
  646MOL0     C87117  11.334  10.611   5.501  1.0642  0.8554  0.5306
  646MOL0     C87118  11.254  10.576   5.624 -0.1386  0.3175 -0.4156
  646MOL0    Cl87119  11.094  10.657   5.608 -0.2945  0.1200 -0.4030
  646MOL0     C87120  11.685  10.366   4.649  0.2600  0.1550 -0.1473
  646MOL0     C87121  11.658  10.417   4.526  0.3580 -0.0465 -0.0659
  646MOL0     O87122  11.321  10.623   4.381 -0.1820  0.0465 -0.8839
  646MOL0     C87123  11.557  10.675   4.111 -0.3498  0.2307 -0.4794
  646MOL0     C87124  11.562  10.702   3.976  0.9944 -0.2494  0.3909
  646MOL0     N87125  11.040  10.636   3.268 -0.3427  0.6033 -0.1068
  646MOL0     N87126  10.970  10.556   3.192  0.8254 -1.0361 -0.6736
  646MOL0     C87127  10.644   9.905   2.084  0.4734  0.8711  0.7465
  646MOL0     C87128  10.562   9.873   1.969  0.5649 -0.4226 -0.0745
  646MOL0     C87129  10.161   9.853   1.767 -0.4636 -0.1876  0.2660
  646MOL0     C87130  10.160   9.942   1.661  0.0347  0.7630 -1.1131
  646MOL0     C87131  10.058   9.939   1.565 -0.6469 -0.7091  0.2234
  646MOL0     C87132   9.960   9.844   1.564 -0.5363  0.3488  0.6245
  646MOL0     O87133   9.866   9.822   1.465 -0.2760 -0.5049  0.1931
  646MOL0     C87134   9.833   9.924   1.368 -0.3972 -0.2856  0.4098
  646MOL0     C87135   9.706  10.005   1.408 -0.3843 -0.4821 -0.0975
  646MOL0     C87136   9.592   9.908   1.409 -0.1401 -0.9149  0.2443
  646MOL0     C87137   9.457   9.967   1.436  0.5505  0.4911 -0.5700
  646MOL0     C87138   9.436  10.016   1.578 -0.7151  0.6414  0.3541
  646MOL0     C87139   9.412  10.050   1.691 -0.4273  0.3829  0.1877
  646MOL0     C87140   9.953   9.761   1.675 -0.2606 -1.5388  0.0990
  646MOL0     C87141  10.052   9.759   1.771 -0.4182  0.0375 -0.6946
  646MOL0     C87142  10.045   9.632   1.865 -0.0735  0.3176 -0.6406
  646MOL0     H87143  10.346  10.139   1.997  1.1356  1.6420  2.9144
  646MOL0     H87144  10.495  10.189   2.177 -1.0648  0.8244 -1.6290
  646MOL0     H87145  10.692  10.221   2.329 -0.4007 -0.9856 -2.9062
  646MOL0     H87146  10.579  10.095   2.390 -0.4269 -2.5162 -0.9788
  646MOL0     H87147  10.877  10.088   2.417  0.6905  1.9981  0.2543
  646MOL0     H87148  10.755  10.001   2.524 -0.8493  0.3297 -1.6604
  646MOL0     H87149  10.709  10.191   2.646 -2.2551  2.3916 -1.9874
  646MOL0     H87150  10.763  10.307   2.522 -3.1046 -0.4727  1.6422
  646MOL0     H87151  10.967  10.111   2.638  0.7710  0.8254 -0.6094
  646MOL0     H87152  10.995  10.240   2.535  0.2917 -1.3534 -0.1148
  646MOL0     H87153  10.910  10.389   2.732  0.4047  0.9286  0.2292
  646MOL0     H87154  10.875  10.244   2.827 -1.8277 -2.0391 -3.2819
  646MOL0     H87155  11.145  10.198   2.750  0.1403 -0.0447 -1.8526
  646MOL0     H87156  11.135  10.372   2.719  0.0420  0.6177 -0.0937
  646MOL0     H87157  11.228  10.378   2.929 -0.7872 -1.1279  0.6736
  646MOL0     H87158  11.143  10.246   2.993  0.9376 -0.0991  0.2472
  646MOL0     H87159  11.057  10.522   2.898  3.1524  1.0984 -0.0535
  646MOL0     H87160  10.939  10.417   2.989  0.9508  0.6616 -0.6874
  646MOL0     H87161  11.289  10.502   3.106 -0.8110 -2.4320 -0.7058
  646MOL0     H87162  11.385  10.624   3.323 -0.1999 -0.7774  2.2824
  646MOL0     H87163  11.324  10.775   3.290 -1.4735 -0.1240 -2.4031
  646MOL0     H87164  11.165  10.750   3.497  1.1801  2.1281 -1.0463
  646MOL0     H87165  11.255  10.599   3.542  4.1579 -0.0610  0.3692
  646MOL0     H87166  11.377  10.874   3.499 -2.5233 -0.1877 -0.3610
  646MOL0     H87167  11.461  10.719   3.535  0.6351  0.2883 -1.6680
  646MOL0     H87168  11.292  10.701   3.734 -1.2751  0.3855  0.4156
  646MOL0     H87169  11.286  10.885   3.717 -0.6549  0.1215 -1.4714
  646MOL0     H87170  11.249  10.825   3.935  0.2908 -0.2767 -1.2934
  646MOL0     H87171  11.234  10.749   4.175  0.0510  1.1747 -0.2449
  646MOL0     H87172  11.467  10.694   4.616 -0.5958 -0.6403  1.8305
  646MOL0     H87173  11.498  10.581   4.829 -1.1418 -0.8115 -1.7445
  646MOL0     H87174  11.798  10.339   4.968 -0.7013 -1.5723 -1.3641
  646MOL0     H87175  11.751  10.507   4.914  0.6321  0.4847  1.8331
  646MOL0     H87176  11.710  10.520   5.140 -0.7051 -0.8681  1.6544
  646MOL0     H87177  11.550  10.490   5.071  1.4278 -0.4635 -3.3715
  646MOL0     H87178  11.562  10.254   5.153 -0.3464  0.3638 -1.1150
  646MOL0     H87179  11.723  10.282   5.210 -0.0298 -0.6418  2.8518
  646MOL0     H87180  11.671  10.444   5.360  0.8339 -1.6404  0.6546
  646MOL0     H87181  11.581  10.305   5.404 -1.7632  0.3643 -0.1608
  646MOL0     H87182  11.368  10.391   5.355  1.2328 -0.5010  2.0488
  646MOL0     H87183  11.434  10.525   5.260  2.2609 -1.0058 -0.5086
  646MOL0     H87184  11.494  10.476   5.547  3.4130  0.7259 -0.8883
  646MOL0     H87185  11.548  10.616   5.457 -2.2038  3.4055  0.4517
  646MOL0     H87186  11.280  10.601   5.407  1.6506  3.0149 -0.0740
  646MOL0     H87187  11.347  10.719   5.503 -1.0393  1.1849 -0.7530
  646MOL0     H87188  11.247  10.467   5.634  1.7452 -0.0770 -2.6494
  646MOL0     H87189  11.302  10.613   5.715  0.7785 -0.4308 -0.5763
  646MOL0     H87190  11.743  10.275   4.662 -0.0182 -0.0976 -0.6121
  646MOL0     H87191  11.689  10.375   4.431 -0.1925  1.3585 -0.9008
  646MOL0     H87192  11.651  10.639   4.153 -1.2768 -1.3282  0.3513
  646MOL0     H87193  11.655  10.689   3.922  0.3671  1.8519 -1.3404
  646MOL0     H87194  10.730   9.842   2.106  1.1545  1.9100  1.1397
  646MOL0     H87195  10.577   9.779   1.919  0.0582 -0.6166  0.1253
  646MOL0     H87196  10.245  10.007   1.641 -1.4646  2.2666 -2.9250
  646MOL0     H87197  10.073  10.020   1.494  0.4109 -0.5459  0.6079
  646MOL0     H87198   9.820   9.872   1.272 -0.4003 -0.9893  0.7802
  646MOL0     H87199   9.920   9.990   1.361  1.0548 -1.8803  2.2150
  646MOL0     H87200   9.686  10.093   1.346  0.1787 -1.7688 -2.2339
  646MOL0     H87201   9.709  10.021   1.516 -0.4748 -0.4411 -0.1009
  646MOL0     H87202   9.619   9.832   1.482  2.2029 -0.8455 -0.4645
  646MOL0     H87203   9.584   9.863   1.309  1.3342 -2.4776  0.7673
  646MOL0     H87204   9.432  10.045   1.363 -2.1863  0.6592  0.4319
  646MOL0     H87205   9.383   9.887   1.426 -1.0438  0.7715  5.1497
  646MOL0     H87206   9.385  10.102   1.781  0.4616  3.2481 -1.0923
  646MOL0     H87207   9.873   9.690   1.692 -2.1929  0.3830 -0.5329
  646MOL0     H87208  10.025   9.666   1.967  1.1110 -0.8497  0.0187
  646MOL0     H87209   9.974   9.558   1.826 -2.5015  2.3845 -0.3670
  646MOL0     H87210  10.139   9.579   1.881 -0.4188  0.4415  2.2300
  647MOL0     O87211   3.493  11.317  10.874 -0.1991  0.6488  0.1079
  647MOL0     C87212   3.426  11.310  10.769  0.2798  0.0728  0.0006
  647MOL0     O87213   3.453  11.232  10.652  0.4873  0.4513  0.7989
  647MOL0     C87214   3.571  11.163  10.634 -0.3497  0.7040  0.5657
  647MOL0     C87215   3.687  11.209  10.686 -0.2404 -1.0252  0.2929
  647MOL0     C87216   3.801  11.126  10.686 -0.4578  0.4523 -0.4103
  647MOL0     C87217   3.798  10.998  10.621  0.2696 -0.1758  0.4766
  647MOL0     O87218   3.897  10.913  10.591 -0.2977  0.3207  0.1550
  647MOL0     C87219   4.033  10.952  10.610  0.4839 -0.3583  0.6227
  647MOL0     C87220   4.129  10.841  10.574 -0.3662 -0.5689  0.6009
  647MOL0     C87221   4.226  10.806  10.685 -0.3513 -0.1015 -0.5110
  647MOL0     C87222   4.275  10.663  10.667 -0.2601  0.3183 -0.5626
  647MOL0     C87223   4.399  10.639  10.765  0.3647 -0.6056  0.5371
  647MOL0     C87224   4.430  10.501  10.792 -1.3775  0.2145  0.3860
  647MOL0     C87225   4.511  10.481  10.926 -0.0192 -0.0416  1.0285
  647MOL0     C87226   4.663  10.513  10.911 -0.1082  0.0898  0.2051
  647MOL0     N87227   4.729  10.486  11.038  0.7163  0.6062 -0.3428
  647MOL0     C87228   4.771  10.369  11.090 -0.4159  0.7973  0.9210
  647MOL0     C87229   4.823  10.411  11.207 -0.4689 -0.8358  0.4935
  647MOL0     C87230   4.891  10.333  11.300 -0.9965 -0.1407 -0.3188
  647MOL0     C87231   5.041  10.374  11.298  0.9529 -0.8128 -0.5221
  647MOL0     C87232   5.135  10.275  11.368 -0.0940 -0.3009 -1.1034
  647MOL0     C87233   5.278  10.338  11.367 -0.8260 -0.6545 -0.5060
  647MOL0     O87234   5.360  10.233  11.431 -0.0568  0.1509  0.1961
  647MOL0     C87235   5.495  10.257  11.415 -0.4797 -0.2118 -0.0616
  647MOL0     C87236   5.572  10.243  11.533  0.3945 -0.5767 -0.3917
  647MOL0     C87237   5.707  10.259  11.541 -0.2391  0.1014  1.3340
  647MOL0     C87238   5.774  10.282  11.418 -0.3616 -0.4496 -0.3303
  647MOL0     C87239   5.915  10.288  11.410  0.3439  0.1735  0.1270
  647MOL0     O87240   5.962  10.304  11.284  0.2793 -0.2258 -0.1686
  647MOL0     C87241   6.099  10.305  11.274 -0.2973 -0.3054 -1.6509
  647MOL0     C87242   6.173  10.426  11.268  0.0700  0.2101  0.3310
  647MOL0     C87243   6.311  10.427  11.246 -0.2517 -0.3364  0.6946
  647MOL0     C87244   6.382  10.309  11.219 -0.7862  0.5462  0.0880
  647MOL0     O87245   6.520  10.300  11.193 -0.7557 -0.2480  0.0032
  647MOL0     C87246   6.593  10.412  11.135 -0.3618 -0.3863  0.6362
  647MOL0     C87247   6.733  10.377  11.094 -0.2721 -0.3787  0.6541
  647MOL0     C87248   6.836  10.319  11.197 -0.6824  0.7247  0.0048
  647MOL0     C87249   6.903  10.428  11.272  0.0511  1.1371 -0.1455
  647MOL0     C87250   7.010  10.367  11.366  0.2669  0.0843 -0.7940
  647MOL0     C87251   7.047  10.450  11.485  0.1790  0.8935  0.3954
  647MOL0     C87252   7.139  10.359  11.565  1.3949  0.2000  0.3224
  647MOL0     C87253   7.168  10.426  11.699 -0.1722 -0.0270  0.6384
  647MOL0    Cl87254   7.261  10.568  11.678  0.5593  0.4427 -0.0812
  647MOL0     C87255   6.311  10.189  11.232  0.3979 -1.1737  0.7729
  647MOL0     C87256   6.171  10.187  11.257  0.9136 -0.0072 -0.4039
  647MOL0     O87257   5.986  10.292  11.507  0.1057  0.3142 -0.2222
  647MOL0     C87258   5.693  10.293  11.301 -0.1743 -0.1315 -0.6045
  647MOL0     C87259   5.557  10.287  11.294  0.4648 -0.0999 -0.4260
  647MOL0     N87260   4.815  10.545  11.224 -0.5272 -0.2938 -0.4281
  647MOL0     N87261   4.746  10.588  11.125 -0.7155  0.4067 -0.0944
  647MOL0     C87262   3.675  10.955  10.569 -0.2728 -0.4906  0.4885
  647MOL0     C87263   3.562  11.037  10.576 -1.1830 -0.3416 -0.0094
  647MOL0     C87264   3.293  11.377  10.771  0.1310  0.3964  1.2453
  647MOL0     C87265   3.217  11.366  10.656 -0.3330  0.2082  0.4252
  647MOL0     C87266   3.093  11.429  10.646  1.0457 -0.1643  0.4054
  647MOL0     C87267   3.034  11.502  10.747  0.9513  0.3170  0.2096
  647MOL0     O87268   2.917  11.571  10.710 -0.5441  0.7016 -0.4660
  647MOL0     C87269   2.835  11.616  10.814  0.8961 -0.0749 -0.4544
  647MOL0     C87270   2.696  11.647  10.773  0.5913 -0.3928 -0.5224
  647MOL0     C87271   2.677  11.756  10.659  0.3022  0.0686  0.2906
  647MOL0     C87272   2.539  11.832  10.689 -0.6982  0.2486 -0.6964
  647MOL0     C87273   2.553  11.931  10.793 -0.7160  0.7346  0.1938
  647MOL0     C87274   2.566  12.003  10.887  0.7336 -0.2005 -0.3233
  647MOL0     C87275   3.108  11.506  10.865 -0.0672  0.1181 -0.3864
  647MOL0     C87276   3.236  11.443  10.879  0.4301  0.2878  0.9181
  647MOL0     C87277   3.297  11.452  11.007  0.4952  0.0064  0.7285
  647MOL0     H87278   3.688  11.307  10.734 -1.4966 -0.5631 -0.5582
  647MOL0     H87279   3.888  11.158  10.743  0.1585 -2.4529  0.4237
  647MOL0     H87280   4.057  11.038  10.546 -3.2195  0.4380  0.0308
  647MOL0     H87281   4.054  10.983  10.713  2.8459  4.5466 -0.9965
  647MOL0     H87282   4.190  10.868  10.488 -0.5821 -0.7436  0.3906
  647MOL0     H87283   4.064  10.756  10.549  0.1726 -0.2079 -2.3189
  647MOL0     H87284   4.181  10.821  10.783  1.6140  0.8710  0.3071
  647MOL0     H87285   4.309  10.876  10.675 -1.8151  1.8745  0.4745
  647MOL0     H87286   4.190  10.604  10.705 -1.4172  2.3228  0.0997
  647MOL0     H87287   4.303  10.635  10.565  3.4039 -0.6307  0.5641
  647MOL0     H87288   4.480  10.696  10.717  0.0062 -0.4823  0.0690
  647MOL0     H87289   4.375  10.685  10.861 -0.9462 -0.8322  0.3433
  647MOL0     H87290   4.337  10.444  10.790 -1.0100 -0.5482  2.4128
  647MOL0     H87291   4.490  10.457  10.712 -2.6685 -1.4767  0.2781
  647MOL0     H87292   4.494  10.377  10.955 -2.0624 -1.0040 -2.9310
  647MOL0     H87293   4.467  10.555  10.995 -2.2174  0.4796 -0.7816
  647MOL0     H87294   4.707  10.444  10.838  1.8880  2.7477 -1.3071
  647MOL0     H87295   4.689  10.616  10.883  0.0404  0.6749  2.3655
  647MOL0     H87296   4.770  10.266  11.058  1.7469  0.7552  0.8418
  647MOL0     H87297   4.838  10.345  11.395 -2.1936 -0.7326 -0.9022
  647MOL0     H87298   4.887  10.229  11.269 -0.3134  0.5004 -2.8099
  647MOL0     H87299   5.065  10.367  11.192  0.8748 -2.9013 -0.4367
  647MOL0     H87300   5.042  10.474  11.344 -2.4143 -1.1453  0.5602
  647MOL0     H87301   5.125  10.178  11.320  1.1961 -0.3807 -1.2558
  647MOL0     H87302   5.097  10.248  11.467  1.2405  0.1688 -0.4381
  647MOL0     H87303   5.278  10.432  11.422  1.0843 -1.0408  0.2158
  647MOL0     H87304   5.305  10.355  11.262 -1.1276 -3.5783 -1.1450
  647MOL0     H87305   5.522  10.209  11.623 -0.8686 -0.4087 -1.0033
  647MOL0     H87306   5.750  10.230  11.636 -1.7049  1.5763  2.5052
  647MOL0     H87307   6.107  10.511  11.280 -1.8455 -1.0451 -0.8655
  647MOL0     H87308   6.360  10.523  11.256 -4.4291  2.3697 -1.7366
  647MOL0     H87309   6.550  10.445  11.040  0.4074  1.7079  0.9638
  647MOL0     H87310   6.603  10.496  11.204  0.0432 -1.4581  1.9300
  647MOL0     H87311   6.726  10.298  11.018 -0.9672  0.4545 -0.1593
  647MOL0     H87312   6.768  10.471  11.051  1.3385  0.8636  4.2358
  647MOL0     H87313   6.786  10.250  11.265  0.6068  1.3658  1.6643
  647MOL0     H87314   6.900  10.258  11.133 -0.9682  2.4359 -2.0458
  647MOL0     H87315   6.841  10.494  11.333  0.2069  2.1284 -1.0363
  647MOL0     H87316   6.949  10.496  11.200 -2.6300  0.6643 -2.4663
  647MOL0     H87317   7.099  10.339  11.308 -0.0094 -2.3599 -0.1577
  647MOL0     H87318   6.960  10.279  11.407 -3.4609  1.1098 -2.6846
  647MOL0     H87319   7.108  10.540  11.473 -1.9797  2.5101  0.8430
  647MOL0     H87320   6.961  10.478  11.548  0.4542 -1.2348  1.8314
  647MOL0     H87321   7.229  10.332  11.508  0.3985 -1.1744 -0.6686
  647MOL0     H87322   7.091  10.261  11.574  3.1515 -0.7289  0.1981
  647MOL0     H87323   7.070  10.447  11.745 -2.1657  1.6546 -3.7648
  647MOL0     H87324   7.223  10.354  11.760 -1.1323 -1.9117 -0.6160
  647MOL0     H87325   6.348  10.088  11.219  1.0551 -0.8055 -0.3358
  647MOL0     H87326   6.123  10.089  11.256  0.9167 -0.1298  2.2716
  647MOL0     H87327   5.731  10.298  11.199 -2.0200  0.9237 -1.2972
  647MOL0     H87328   5.517  10.302  11.194  1.3528 -0.9039 -0.9133
  647MOL0     H87329   3.659  10.866  10.509  5.5101  0.2324 -2.8254
  647MOL0     H87330   3.471  10.988  10.542 -0.0654 -2.1324 -0.5940
  647MOL0     H87331   3.246  11.303  10.572  0.3127  2.0327 -0.7878
  647MOL0     H87332   3.050  11.415  10.547  1.4351  0.3034  0.1658
  647MOL0     H87333   2.895  11.696  10.859  3.7786 -2.2113 -0.2222
  647MOL0     H87334   2.841  11.543  10.895  1.7938 -1.2745 -1.5521
  647MOL0     H87335   2.643  11.683  10.861 -2.4245  2.6267 -3.2848
  647MOL0     H87336   2.650  11.553  10.741  0.9732 -0.1680 -1.7855
  647MOL0     H87337   2.663  11.705  10.563 -1.7774 -4.2110  2.6061
  647MOL0     H87338   2.766  11.817  10.643 -0.3057  0.6781 -0.9640
  647MOL0     H87339   2.506  11.892  10.604 -2.9131  0.5369  0.3005
  647MOL0     H87340   2.457  11.768  10.722 -0.7896  1.7790  2.3078
  647MOL0     H87341   2.581  12.069  10.970  1.7841 -1.6457  0.7151
  647MOL0     H87342   3.070  11.567  10.946 -1.7342 -4.7929  2.9926
  647MOL0     H87343   3.223  11.497  11.074 -0.2519 -1.2327  0.7717
  647MOL0     H87344   3.333  11.358  11.051 -0.6546 -0.5916  0.4220
  647MOL0     H87345   3.384  11.518  10.999 -0.5739  1.6662  2.1146
  648MOL0     O87346   5.141  10.528   3.908 -0.0610  0.5815 -0.1225
  648MOL0     C87347   5.216  10.559   4.002  1.1989 -0.3031  1.3815
  648MOL0     O87348   5.253  10.686   4.031  0.3815 -0.1507  0.5686
  648MOL0     C87349   5.295  10.777   3.929 -0.0538  0.3312  0.7897
  648MOL0     C87350   5.323  10.750   3.802  0.2382  0.6087  1.1697
  648MOL0     C87351   5.375  10.852   3.712 -0.0737  0.3472  0.0497
  648MOL0     C87352   5.390  10.984   3.763 -1.0963 -0.9412  0.6052
  648MOL0     O87353   5.454  11.088   3.685  0.0114  0.6122  0.3304
  648MOL0     C87354   5.418  11.083   3.539  0.5497 -0.2348 -0.5006
  648MOL0     C87355   5.485  11.193   3.468  0.0413 -0.1550 -0.0613
  648MOL0     C87356   5.469  11.185   3.323  0.0786 -0.7913  0.5525
  648MOL0     C87357   5.332  11.266   3.288 -0.4114 -0.4527 -0.2326
  648MOL0     C87358   5.305  11.270   3.141  0.5221  0.0831  0.8900
  648MOL0     C87359   5.323  11.138   3.068  0.7884 -0.0728 -0.4819
  648MOL0     C87360   5.211  11.039   3.114  0.0747  0.4532 -0.1731
  648MOL0     C87361   5.259  10.888   3.083 -0.4604  0.0514 -0.7453
  648MOL0     N87362   5.229  10.857   2.941  1.0039  0.2155 -0.0125
  648MOL0     C87363   5.105  10.825   2.885 -0.0532 -0.0672 -0.1235
  648MOL0     C87364   5.125  10.749   2.777 -0.8458 -0.4435  0.2394
  648MOL0     C87365   5.018  10.679   2.705  1.0247 -0.1873  0.6507
  648MOL0     C87366   5.044  10.538   2.655 -0.0146 -0.7878 -1.5895
  648MOL0     C87367   4.942  10.475   2.561  0.2555 -0.1337 -0.3254
  648MOL0     C87368   4.992  10.344   2.497 -0.1039 -0.2592 -0.6052
  648MOL0     O87369   5.023  10.234   2.596  0.2814 -0.2776 -0.9652
  648MOL0     C87370   4.936  10.133   2.628 -0.3169 -0.6438  0.3530
  648MOL0     C87371   4.802  10.129   2.580 -0.1740 -0.6800 -0.2868
  648MOL0     C87372   4.711  10.044   2.638  0.1612  0.5781 -0.2602
  648MOL0     C87373   4.737   9.959   2.741 -0.2239  0.5027  0.0110
  648MOL0     C87374   4.622   9.892   2.796  0.8375 -0.3631  0.4159
  648MOL0     O87375   4.489   9.936   2.762 -0.4498 -0.0246 -0.1726
  648MOL0     C87376   4.375   9.880   2.824  0.7049 -0.2477  0.2961
  648MOL0     C87377   4.245   9.899   2.766 -0.4217  0.4001 -0.0122
  648MOL0     C87378   4.126   9.838   2.826 -0.1813  0.2100  0.1623
  648MOL0     C87379   4.133   9.775   2.949  1.0413 -0.6631  0.2506
  648MOL0     O87380   4.031   9.707   3.001 -0.8637  0.1806  0.2966
  648MOL0     C87381   3.924   9.670   2.911 -0.7042 -0.2868 -0.4450
  648MOL0     C87382   3.958   9.555   2.810  0.9506  0.2102  0.3779
  648MOL0     C87383   3.830   9.471   2.780 -0.8734 -0.4845 -0.5075
  648MOL0     C87384   3.864   9.360   2.680 -0.4413  0.2802 -0.3642
  648MOL0     C87385   3.749   9.258   2.671 -0.4918  0.5910  0.2970
  648MOL0     C87386   3.622   9.299   2.626 -0.2648 -0.8864  0.6687
  648MOL0     C87387   3.531   9.177   2.602 -0.3007 -0.1073  0.0939
  648MOL0     C87388   3.390   9.226   2.548  1.8090  0.5763 -0.6690
  648MOL0    Cl87389   3.396   9.365   2.440  0.6255 -0.5843  0.6386
  648MOL0     C87390   4.258   9.766   3.014 -0.1280 -1.7426 -0.6816
  648MOL0     C87391   4.375   9.809   2.944 -0.0697 -0.3698  0.0497
  648MOL0     O87392   4.645   9.786   2.855  0.2302 -0.1027  0.7536
  648MOL0     C87393   4.869   9.974   2.805 -0.3004 -1.2570  0.3602
  648MOL0     C87394   4.965  10.051   2.740 -0.7128  0.1455  0.0729
  648MOL0     N87395   5.263  10.725   2.770  0.1273 -0.6196  0.1856
  648MOL0     N87396   5.320  10.784   2.866 -0.6605  0.6452 -0.3629
  648MOL0     C87397   5.372  11.004   3.895 -0.2011 -1.1356 -0.1055
  648MOL0     C87398   5.329  10.909   3.981  0.2040 -0.1404  0.3391
  648MOL0     C87399   5.230  10.449   4.109 -0.4751 -0.4949  0.0158
  648MOL0     C87400   5.164  10.324   4.091 -0.6351  0.6431 -0.7124
  648MOL0     C87401   5.159  10.218   4.184 -0.2468  0.5472 -0.0540
  648MOL0     C87402   5.229  10.238   4.304  0.0974 -0.5483 -0.1976
  648MOL0     O87403   5.208  10.149   4.402  0.0977 -0.8644  0.3255
  648MOL0     C87404   5.286  10.027   4.397 -0.5152  0.3528 -0.8671
  648MOL0     C87405   5.316   9.968   4.537 -0.5285 -0.0392  0.4452
  648MOL0     C87406   5.380  10.085   4.622 -0.0133  0.1192  0.3333
  648MOL0     C87407   5.354  10.060   4.773 -0.4886 -0.3632 -0.9575
  648MOL0     C87408   5.391  10.172   4.861 -0.2575 -1.0629 -1.0572
  648MOL0     C87409   5.434  10.270   4.919 -0.8317 -0.7726 -0.2869
  648MOL0     C87410   5.311  10.352   4.326  0.4079 -0.4521 -1.2614
  648MOL0     C87411   5.308  10.458   4.233  0.4768  0.0680  0.7202
  648MOL0     C87412   5.386  10.585   4.260 -0.2083 -0.5483 -0.2718
  648MOL0     H87413   5.298  10.650   3.768  1.2406 -0.0873  2.4340
  648MOL0     H87414   5.397  10.828   3.609  1.7795  1.3128  0.1787
  648MOL0     H87415   5.447  10.987   3.494  0.4901 -1.9165  2.7465
  648MOL0     H87416   5.310  11.095   3.524  0.0320 -2.0711  1.2415
  648MOL0     H87417   5.593  11.205   3.483  0.1463  1.8107 -1.8799
  648MOL0     H87418   5.424  11.271   3.515  1.0116 -0.1538  1.2479
  648MOL0     H87419   5.471  11.082   3.288  3.2710 -1.2237  1.6346
  648MOL0     H87420   5.554  11.236   3.277  0.4446  0.4387  2.4637
  648MOL0     H87421   5.242  11.224   3.333 -1.6249  2.1267 -0.1015
  648MOL0     H87422   5.329  11.369   3.324 -1.6099 -0.9452  1.1266
  648MOL0     H87423   5.208  11.314   3.119 -0.9309 -2.9165  0.8367
  648MOL0     H87424   5.372  11.338   3.087  2.3196 -3.9621 -2.5851
  648MOL0     H87425   5.314  11.152   2.960 -1.3860 -1.1117 -0.4750
  648MOL0     H87426   5.425  11.099   3.081  1.4662  1.7263 -0.0090
  648MOL0     H87427   5.115  11.060   3.067  1.3359 -1.6088 -4.1261
  648MOL0     H87428   5.192  11.044   3.222  5.4412 -1.6969  1.2147
  648MOL0     H87429   5.368  10.900   3.086 -0.6413  2.3207 -1.3863
  648MOL0     H87430   5.226  10.817   3.159 -1.7319 -1.8327 -2.9268
  648MOL0     H87431   5.004  10.844   2.923 -1.8308  0.2724 -4.4784
  648MOL0     H87432   4.941  10.669   2.783 -2.1197 -0.0935 -2.2328
  648MOL0     H87433   4.978  10.744   2.627  1.4923  0.4134  0.8996
  648MOL0     H87434   5.132  10.547   2.591 -0.0359  1.4095 -1.3931
  648MOL0     H87435   5.061  10.479   2.745 -3.8634  1.7356  1.1101
  648MOL0     H87436   4.920  10.539   2.475  1.5072 -1.6084 -1.8006
  648MOL0     H87437   4.853  10.447   2.619  0.8850 -0.2058  0.6368
  648MOL0     H87438   5.081  10.361   2.435 -1.1180  0.0091 -2.0408
  648MOL0     H87439   4.918  10.314   2.423  0.4132 -0.1019 -1.2028
  648MOL0     H87440   4.774  10.195   2.498 -0.5086  1.7459  1.6458
  648MOL0     H87441   4.611  10.046   2.595  0.1110 -1.0666 -0.3032
  648MOL0     H87442   4.240   9.945   2.668 -1.0964 -0.8594 -0.5881
  648MOL0     H87443   4.032   9.859   2.776 -0.9948  1.1693  2.0076
  648MOL0     H87444   3.853   9.640   2.988 -0.2036  0.1142  0.1873
  648MOL0     H87445   3.885   9.750   2.847  0.6898 -1.2571 -2.6448
  648MOL0     H87446   4.000   9.600   2.719 -1.1510 -1.8853 -1.7693
  648MOL0     H87447   4.038   9.498   2.859  3.1641  4.1741  1.7861
  648MOL0     H87448   3.783   9.420   2.864 -0.7802  2.3552  1.3927
  648MOL0     H87449   3.763   9.538   2.726  1.1641  2.9692  0.9298
  648MOL0     H87450   3.958   9.312   2.710 -0.7285 -0.2911 -0.3673
  648MOL0     H87451   3.890   9.394   2.579  1.1227  1.4623  0.3981
  648MOL0     H87452   3.737   9.210   2.768 -0.7909 -0.2237 -0.1369
  648MOL0     H87453   3.789   9.177   2.609  4.1610  2.5940  0.2212
  648MOL0     H87454   3.580   9.351   2.712  0.5958  0.1920  0.4563
  648MOL0     H87455   3.623   9.368   2.541 -1.0873  2.1682  3.0105
  648MOL0     H87456   3.519   9.126   2.698  2.1196 -2.1707 -0.5692
  648MOL0     H87457   3.572   9.100   2.536  0.7781 -1.6831  2.4841
  648MOL0     H87458   3.347   9.144   2.490  1.6854  0.2852 -0.1729
  648MOL0     H87459   3.331   9.255   2.635  0.5224 -1.6369 -0.7425
  648MOL0     H87460   4.264   9.709   3.106  0.3480 -1.7551 -0.7142
  648MOL0     H87461   4.462   9.783   3.005  0.6749  0.7833 -0.4801
  648MOL0     H87462   4.883   9.903   2.886  0.6452  1.5013  2.8223
  648MOL0     H87463   5.068  10.049   2.775 -0.1735 -0.1381 -1.4342
  648MOL0     H87464   5.393  11.102   3.938 -0.0753 -1.1458 -0.1407
  648MOL0     H87465   5.321  10.933   4.087  1.5778 -3.7046  1.4321
  648MOL0     H87466   5.110  10.314   3.997 -0.9446 -1.3421 -0.3720
  648MOL0     H87467   5.091  10.134   4.175 -1.2837  1.1119  1.7982
  648MOL0     H87468   5.376  10.047   4.339 -1.0763 -0.7337 -2.1791
  648MOL0     H87469   5.235   9.948   4.341 -0.5475 -1.8804  2.0741
  648MOL0     H87470   5.391   9.888   4.533  0.6305  1.0424 -0.4072
  648MOL0     H87471   5.226   9.934   4.588 -1.4734  3.3655  1.2894
  648MOL0     H87472   5.341  10.185   4.600 -1.8466 -0.6760 -0.2318
  648MOL0     H87473   5.488  10.083   4.605  0.0699 -3.9120  0.3612
  648MOL0     H87474   5.251  10.029   4.796 -0.8358  2.1321  1.5390
  648MOL0     H87475   5.425   9.982   4.800  0.8313  0.3383 -2.2796
  648MOL0     H87476   5.476  10.358   4.962 -0.5537 -1.3782  0.7088
  648MOL0     H87477   5.359  10.369   4.421 -1.7365  1.3092 -0.4195
  648MOL0     H87478   5.447  10.601   4.171 -0.9536  0.4681 -0.6164
  648MOL0     H87479   5.319  10.669   4.280  0.3693  0.8473 -3.5800
  648MOL0     H87480   5.463  10.565   4.335  1.7133  1.2773 -1.6607
  649MOL0     O87481   2.053   4.814   4.913 -0.4965  0.3140 -0.4132
  649MOL0     C87482   1.948   4.750   4.916  0.3879  0.9168  0.5360
  649MOL0     O87483   1.850   4.764   4.815  0.5052  0.6079 -0.3511
  649MOL0     C87484   1.877   4.844   4.712 -0.0143  0.1119  1.4110
  649MOL0     C87485   1.884   4.976   4.736  0.0512 -0.0799 -0.0454
  649MOL0     C87486   1.909   5.064   4.626 -0.0315  0.1466  0.4720
  649MOL0     C87487   1.923   5.016   4.494 -0.0081 -0.3859 -0.8248
  649MOL0     O87488   1.937   5.117   4.398 -0.0866 -0.3587  0.0506
  649MOL0     C87489   1.953   5.070   4.261 -1.2918 -0.1537 -0.0624
  649MOL0     C87490   1.991   5.192   4.171  0.0848  0.1071 -0.9830
  649MOL0     C87491   2.017   5.162   4.026 -0.6680 -0.1605 -0.1309
  649MOL0     C87492   2.148   5.088   3.999 -0.2616  2.1980  0.1843
  649MOL0     C87493   2.174   5.056   3.846  0.6952 -1.5664  0.0503
  649MOL0     C87494   2.073   4.970   3.764 -1.1313 -0.3940 -1.8978
  649MOL0     C87495   2.050   4.828   3.816 -0.4530 -0.5707  0.7175
  649MOL0     C87496   2.180   4.751   3.838  0.2129 -0.3348  0.2018
  649MOL0     N87497   2.165   4.608   3.848 -0.5474  0.1412 -0.1218
  649MOL0     C87498   2.126   4.538   3.961 -0.4271  0.0297  0.5169
  649MOL0     C87499   2.146   4.406   3.926  0.2570  1.0778 -0.2034
  649MOL0     C87500   2.129   4.278   3.998 -0.4147  0.9527  0.3606
  649MOL0     C87501   2.261   4.243   4.078  0.6412 -0.2680  0.9289
  649MOL0     C87502   2.223   4.146   4.181  0.6924 -0.3469 -0.5244
  649MOL0     C87503   2.339   4.125   4.285  0.0903  0.9059  0.4772
  649MOL0     O87504   2.289   4.046   4.400 -0.6848 -0.0725 -0.1757
  649MOL0     C87505   2.374   4.043   4.507 -0.2678 -1.0530 -0.0248
  649MOL0     C87506   2.331   4.001   4.630 -0.2535  0.1663  0.3506
  649MOL0     C87507   2.402   3.997   4.748 -0.2345 -0.2130  0.0925
  649MOL0     C87508   2.538   4.041   4.739  0.3256  0.4835 -0.3780
  649MOL0     C87509   2.629   4.052   4.860 -0.3385  0.4529 -0.2952
  649MOL0     O87510   2.562   4.007   4.971  0.6865  0.1450  0.3042
  649MOL0     C87511   2.621   3.998   5.088 -1.1593 -0.8218  0.2810
  649MOL0     C87512   2.598   3.880   5.158 -0.5356  1.6585 -0.7956
  649MOL0     C87513   2.654   3.861   5.290  0.3391 -0.3305 -0.2081
  649MOL0     C87514   2.741   3.956   5.347 -0.2609  0.1203  0.7798
  649MOL0     O87515   2.790   3.938   5.474  0.0729 -0.3454  0.7335
  649MOL0     C87516   2.916   3.861   5.486  0.4893 -0.3375  0.5059
  649MOL0     C87517   2.959   3.851   5.634  0.5632  0.3654 -0.2267
  649MOL0     C87518   3.109   3.817   5.627  0.4286 -0.6588 -1.1732
  649MOL0     C87519   3.160   3.860   5.776 -0.1385  0.6469 -0.5507
  649MOL0     C87520   3.314   3.870   5.787 -0.0106 -0.1300  0.0026
  649MOL0     C87521   3.379   3.745   5.743  0.3421 -0.0161  0.8256
  649MOL0     C87522   3.530   3.740   5.773 -0.2264 -0.1682  0.0925
  649MOL0     C87523   3.603   3.612   5.744 -0.2553 -0.1404  0.2948
  649MOL0    Cl87524   3.754   3.624   5.853  0.4004  0.1812  0.1193
  649MOL0     C87525   2.768   4.063   5.265  0.3335  0.1492 -0.2972
  649MOL0     C87526   2.701   4.097   5.152 -0.6361 -0.1911 -0.3916
  649MOL0     O87527   2.742   4.102   4.855 -0.4275 -0.1520 -0.6987
  649MOL0     C87528   2.589   4.090   4.612 -0.1207  0.6824  0.3469
  649MOL0     C87529   2.509   4.090   4.499  0.6122 -0.6330 -0.4312
  649MOL0     N87530   2.191   4.397   3.796  0.6009 -0.5688  0.0328
  649MOL0     N87531   2.201   4.514   3.752  0.7245 -0.3668  0.2619
  649MOL0     C87532   1.904   4.873   4.473 -1.0972 -0.7399 -0.4004
  649MOL0     C87533   1.878   4.789   4.579 -0.1630  0.3757  0.0189
  649MOL0     C87534   1.922   4.653   5.024 -1.2115 -0.2132 -0.2306
  649MOL0     C87535   1.807   4.581   5.020  0.3787 -1.0675  1.1830
  649MOL0     C87536   1.768   4.488   5.114  0.0071  0.0499 -0.6298
  649MOL0     C87537   1.853   4.465   5.225  0.4507 -0.2876  0.2636
  649MOL0     O87538   1.838   4.383   5.331 -0.2525  0.8439 -0.1251
  649MOL0     C87539   1.731   4.291   5.322  0.4030  1.1351 -0.4052
  649MOL0     C87540   1.706   4.219   5.454 -0.2132  0.0925 -0.0669
  649MOL0     C87541   1.587   4.120   5.469  0.2332 -0.3480  0.0147
  649MOL0     C87542   1.447   4.185   5.442  0.1229 -0.9524 -0.0548
  649MOL0     C87543   1.401   4.305   5.520 -1.0434  0.3315  0.5674
  649MOL0     C87544   1.370   4.403   5.592  0.2159  0.6547  0.7346
  649MOL0     C87545   1.971   4.539   5.232 -0.3289  0.2613  0.5860
  649MOL0     C87546   2.014   4.624   5.134 -0.7085  0.0625 -0.5816
  649MOL0     C87547   2.158   4.675   5.120  0.6378  0.8419 -0.3635
  649MOL0     H87548   1.864   5.009   4.837  2.4137 -0.0496  0.4839
  649MOL0     H87549   1.902   5.172   4.620 -4.5670 -0.0491 -1.6657
  649MOL0     H87550   2.029   4.992   4.250 -1.5086 -0.6228  1.4816
  649MOL0     H87551   1.858   5.032   4.223 -1.9458 -0.9880  2.2391
  649MOL0     H87552   2.079   5.240   4.216 -1.9588  0.6732  2.8536
  649MOL0     H87553   1.912   5.267   4.173  1.1377  1.2532 -0.0450
  649MOL0     H87554   2.001   5.251   3.966 -0.5354 -2.1294 -3.3246
  649MOL0     H87555   1.941   5.091   3.991 -1.4913  1.1061 -0.9681
  649MOL0     H87556   2.229   5.154   4.033  0.6817  0.1921  2.0207
  649MOL0     H87557   2.150   4.994   4.054 -0.5836  1.0772 -1.6331
  649MOL0     H87558   2.183   5.154   3.797 -0.9201 -0.9215  0.9727
  649MOL0     H87559   2.274   5.012   3.841  2.1424  0.6493  4.2621
  649MOL0     H87560   1.978   5.021   3.746 -0.4973  1.7452  0.2673
  649MOL0     H87561   2.115   4.960   3.663  2.2328  0.7612 -0.7677
  649MOL0     H87562   1.990   4.770   3.746  0.6085 -0.6493 -0.1642
  649MOL0     H87563   1.994   4.835   3.910 -2.8626  2.0284 -0.7714
  649MOL0     H87564   2.245   4.778   3.753 -2.0765 -0.1953 -1.5965
  649MOL0     H87565   2.224   4.794   3.929 -2.1315  0.5598  0.9752
  649MOL0     H87566   2.097   4.574   4.060 -0.2649 -1.2766  1.0575
  649MOL0     H87567   2.036   4.278   4.055 -1.7860 -0.4952 -1.7187
  649MOL0     H87568   2.122   4.199   3.922  1.3418 -1.1706  2.2425
  649MOL0     H87569   2.326   4.207   3.998  0.0190  1.6681 -0.5105
  649MOL0     H87570   2.300   4.337   4.116 -1.8511  0.9232  0.7038
  649MOL0     H87571   2.181   4.056   4.134 -2.8176  1.3064 -0.9247
  649MOL0     H87572   2.142   4.180   4.248  0.6541 -0.5856 -0.4496
  649MOL0     H87573   2.355   4.229   4.316 -1.8865  1.0918  1.0442
  649MOL0     H87574   2.416   4.082   4.220  2.1842  3.2168  1.2807
  649MOL0     H87575   2.223   3.988   4.636 -0.0338 -1.2616  2.0699
  649MOL0     H87576   2.347   3.963   4.835  0.8667 -3.1599 -0.2370
  649MOL0     H87577   2.516   3.817   5.125  1.7171 -1.9902 -0.0123
  649MOL0     H87578   2.621   3.780   5.354 -3.3514  1.5116  0.4995
  649MOL0     H87579   2.900   3.761   5.445  0.3168  0.4962 -1.6022
  649MOL0     H87580   2.992   3.909   5.423 -0.5406  3.9694  2.2400
  649MOL0     H87581   2.926   3.946   5.677 -0.2155  1.5350 -3.1350
  649MOL0     H87582   2.906   3.769   5.682  0.2129 -0.4630 -1.9289
  649MOL0     H87583   3.125   3.709   5.614 -0.8114 -0.9260 -0.6086
  649MOL0     H87584   3.154   3.883   5.552  1.1637 -0.6405 -0.7221
  649MOL0     H87585   3.119   3.782   5.841 -2.1406  3.0796  1.3379
  649MOL0     H87586   3.123   3.961   5.796  0.1089  0.8316 -1.0188
  649MOL0     H87587   3.354   3.875   5.889  3.1029 -0.3134 -1.0822
  649MOL0     H87588   3.348   3.956   5.728 -1.0905  1.1621  1.1885
  649MOL0     H87589   3.325   3.663   5.791 -0.3450 -0.5482 -0.7924
  649MOL0     H87590   3.381   3.720   5.636 -1.4870  1.9664  0.2635
  649MOL0     H87591   3.547   3.744   5.881  0.1824 -3.8324  0.3124
  649MOL0     H87592   3.568   3.832   5.729 -1.0808  1.0621  1.8190
  649MOL0     H87593   3.542   3.525   5.767 -1.2237  0.0483 -1.3855
  649MOL0     H87594   3.639   3.602   5.641  1.8420  1.0411  0.8534
  649MOL0     H87595   2.830   4.130   5.324  1.4589 -0.7794 -0.3859
  649MOL0     H87596   2.717   4.197   5.111  1.3369  0.3065  1.4240
  649MOL0     H87597   2.683   4.143   4.601  0.0677  0.9416  2.6068
  649MOL0     H87598   2.560   4.116   4.407 -0.7530  2.4884 -0.4239
  649MOL0     H87599   1.924   4.831   4.375 -3.9439 -2.6956 -0.2687
  649MOL0     H87600   1.867   4.683   4.559 -0.2361 -0.1565  2.5376
  649MOL0     H87601   1.723   4.603   4.955  1.6653  1.0489  0.1627
  649MOL0     H87602   1.675   4.439   5.088  0.6220 -1.0176 -0.8555
  649MOL0     H87603   1.745   4.221   5.239 -0.2002  2.0695 -1.3083
  649MOL0     H87604   1.643   4.347   5.289 -2.1412 -1.7131  1.0233
  649MOL0     H87605   1.693   4.286   5.539  0.7696 -1.7040  1.5982
  649MOL0     H87606   1.791   4.152   5.476 -0.9035 -0.8729 -0.2782
  649MOL0     H87607   1.598   4.067   5.565  3.2237 -3.4678 -1.8246
  649MOL0     H87608   1.593   4.054   5.382  0.2353  3.2888 -2.9953
  649MOL0     H87609   1.447   4.225   5.340 -1.3907  0.2020  0.3542
  649MOL0     H87610   1.361   4.118   5.444 -0.8930  0.2375  3.1392
  649MOL0     H87611   1.346   4.491   5.649  0.7766  1.7928 -0.7304
  649MOL0     H87612   2.039   4.524   5.315 -1.3480 -2.6064  1.0127
  649MOL0     H87613   2.206   4.677   5.021 -2.0195 -0.2187 -1.7989
  649MOL0     H87614   2.175   4.770   5.170 -2.6418  1.9398 -1.0773
  649MOL0     H87615   2.214   4.607   5.186 -0.9995 -0.6195 -0.3986
  650MOL0     O87616   7.964   0.940   1.973  0.7531 -0.5305 -0.6823
  650MOL0     C87617   7.951   0.928   2.098 -0.5429  0.0693 -0.5039
  650MOL0     O87618   7.966   1.025   2.195 -0.2872  0.8910 -0.0527
  650MOL0     C87619   8.049   1.133   2.174  0.1576 -0.6081  0.2248
  650MOL0     C87620   8.007   1.240   2.253  0.4679  0.7862  0.5023
  650MOL0     C87621   8.074   1.361   2.262  0.0486  0.8722 -1.0474
  650MOL0     C87622   8.178   1.384   2.175  0.1397 -0.0407 -0.1088
  650MOL0     O87623   8.255   1.505   2.179  0.3749  0.1299  0.4459
  650MOL0     C87624   8.223   1.607   2.281 -0.0586 -0.0642 -0.6000
  650MOL0     C87625   8.334   1.718   2.293 -0.1591  0.0100 -0.0765
  650MOL0     C87626   8.319   1.797   2.170 -0.5450  0.7271 -1.1818
  650MOL0     C87627   8.437   1.900   2.149  0.5481  0.5597 -0.3166
  650MOL0     C87628   8.422   1.982   2.026  0.0269 -0.0474 -0.6152
  650MOL0     C87629   8.307   2.079   2.051  0.6315  0.2776 -0.2114
  650MOL0     C87630   8.324   2.216   1.995 -0.8677 -0.7438 -0.0855
  650MOL0     C87631   8.220   2.320   2.027  0.7676  0.4458 -0.0949
  650MOL0     N87632   8.286   2.452   2.037 -0.0007 -0.0417  0.2098
  650MOL0     C87633   8.282   2.554   1.937 -0.0968 -0.0309  0.8364
  650MOL0     C87634   8.325   2.670   1.996 -0.7518  0.4869 -0.9359
  650MOL0     C87635   8.329   2.804   1.941 -1.5365 -0.5213 -0.1130
  650MOL0     C87636   8.404   2.798   1.801  0.6580 -0.7215 -1.1149
  650MOL0     C87637   8.481   2.922   1.757 -0.3141 -0.1923  0.3018
  650MOL0     C87638   8.539   2.898   1.621  0.1843 -0.0657 -0.6688
  650MOL0     O87639   8.641   2.996   1.602  1.0227 -0.5957 -0.4043
  650MOL0     C87640   8.764   2.951   1.631  0.4653  0.3868 -0.0813
  650MOL0     C87641   8.828   2.877   1.526  0.5747 -0.5614 -0.7838
  650MOL0     C87642   8.948   2.802   1.552  0.7980 -0.2223 -0.2086
  650MOL0     C87643   9.008   2.815   1.675 -0.0975 -0.4884  0.4670
  650MOL0     C87644   9.123   2.723   1.710  0.0614  0.5050 -0.2200
  650MOL0     O87645   9.199   2.671   1.608  0.5114  0.1523  0.2971
  650MOL0     C87646   9.325   2.626   1.648  0.0613 -0.1988 -0.1149
  650MOL0     C87647   9.335   2.494   1.702 -0.6135  0.1195  0.5118
  650MOL0     C87648   9.461   2.448   1.719 -0.5018 -0.9982 -1.2352
  650MOL0     C87649   9.586   2.516   1.709  0.2489 -0.2997  0.1424
  650MOL0     O87650   9.709   2.472   1.734 -0.7131 -0.4639  0.0666
  650MOL0     C87651   9.726   2.340   1.795 -0.1402  0.6554  1.0310
  650MOL0     C87652   9.875   2.300   1.802  0.2455  0.4526  0.1324
  650MOL0     C87653   9.958   2.307   1.670 -0.8385 -0.0244  0.1180
  650MOL0     C87654  10.093   2.236   1.658  0.1050 -0.1096 -0.1851
  650MOL0     C87655  10.077   2.084   1.656  0.7298 -0.2711  0.7823
  650MOL0     C87656  10.198   2.004   1.702 -0.3398 -0.2688 -0.6737
  650MOL0     C87657  10.155   1.851   1.717 -0.4512 -0.1635  0.7098
  650MOL0     C87658  10.122   1.775   1.588 -0.4139  0.0784 -1.1882
  650MOL0    Cl87659  10.263   1.787   1.473  0.3050  0.1328  0.3410
  650MOL0     C87660   9.569   2.651   1.666 -0.2556  0.7764  0.7463
  650MOL0     C87661   9.438   2.704   1.620 -1.2634 -0.0214 -0.2999
  650MOL0     O87662   9.142   2.699   1.831 -0.4174 -0.1466 -0.5695
  650MOL0     C87663   8.950   2.886   1.777  0.7650  0.5850  0.4282
  650MOL0     C87664   8.824   2.953   1.758 -0.5047  0.1988  0.5636
  650MOL0     N87665   8.353   2.639   2.128  0.3284  0.5492  0.0299
  650MOL0     N87666   8.328   2.517   2.154 -0.4515  0.7662 -0.5384
  650MOL0     C87667   8.209   1.279   2.082 -0.6479  0.2830  0.4874
  650MOL0     C87668   8.148   1.155   2.083 -0.5579  0.3274  0.7907
  650MOL0     C87669   7.879   0.802   2.137 -0.2450 -0.1827 -0.3537
  650MOL0     C87670   7.914   0.690   2.065  0.6452 -0.0114  0.8223
  650MOL0     C87671   7.862   0.562   2.092  0.1718  0.2890 -0.7525
  650MOL0     C87672   7.767   0.546   2.196  0.2050  0.3425 -0.7240
  650MOL0     O87673   7.722   0.421   2.229  0.7094 -0.4433 -0.5679
  650MOL0     C87674   7.773   0.353   2.336 -0.5656 -0.2517 -0.0735
  650MOL0     C87675   7.748   0.208   2.319 -0.4255 -0.8460  0.3198
  650MOL0     C87676   7.808   0.156   2.187 -0.0959 -0.6093  0.5056
  650MOL0     C87677   7.810  -0.004   2.180 -0.1614 -0.5044  0.4613
  650MOL0     C87678   7.882  -0.031   2.054 -0.0146  0.5760 -0.5483
  650MOL0     C87679   7.939  -0.056   1.956 -0.9528 -0.0351  0.2506
  650MOL0     C87680   7.722   0.663   2.259  1.2760 -0.1353 -0.2038
  650MOL0     C87681   7.782   0.795   2.244  0.8199 -0.5210 -0.3287
  650MOL0     C87682   7.721   0.916   2.330 -0.0100  0.2953  0.1876
  650MOL0     H87683   7.919   1.226   2.314 -1.5160 -0.4297 -2.3899
  650MOL0     H87684   8.025   1.427   2.333  0.3149 -3.4035  3.6753
  650MOL0     H87685   8.125   1.654   2.273  0.7180  2.9587  3.8508
  650MOL0     H87686   8.221   1.549   2.374 -1.2013  0.5624 -0.2091
  650MOL0     H87687   8.434   1.674   2.302  0.5547  1.8714  2.0808
  650MOL0     H87688   8.318   1.777   2.384 -2.4724 -0.7323  0.0630
  650MOL0     H87689   8.226   1.852   2.184  0.2195  1.5278  1.3563
  650MOL0     H87690   8.313   1.730   2.084 -0.1536 -0.6705 -0.1560
  650MOL0     H87691   8.457   1.960   2.238 -0.4194 -0.2005  0.4312
  650MOL0     H87692   8.524   1.834   2.145  0.7783  0.8321  0.1484
  650MOL0     H87693   8.518   2.032   2.012  1.0905 -1.6969  0.4341
  650MOL0     H87694   8.415   1.925   1.934  1.3638 -0.9268 -0.2032
  650MOL0     H87695   8.205   2.055   2.021 -1.2964  3.5060  2.9901
  650MOL0     H87696   8.283   2.085   2.157 -1.8653  3.3981 -0.8339
  650MOL0     H87697   8.351   2.210   1.890  0.1639 -1.3344  0.1968
  650MOL0     H87698   8.415   2.256   2.043 -2.1252  0.2186  1.6266
  650MOL0     H87699   8.151   2.314   1.942 -0.2803 -1.5854  0.8520
  650MOL0     H87700   8.167   2.303   2.121 -0.2787  0.2511 -0.7046
  650MOL0     H87701   8.242   2.545   1.837  0.5389  0.7359  0.5039
  650MOL0     H87702   8.223   2.826   1.925 -1.0095  3.0455  0.4628
  650MOL0     H87703   8.381   2.872   2.009  3.2286 -0.1589 -3.6187
  650MOL0     H87704   8.465   2.709   1.784  2.3096 -0.1426  1.3210
  650MOL0     H87705   8.312   2.796   1.742 -2.0112  1.2740  2.6004
  650MOL0     H87706   8.569   2.930   1.822 -1.2074 -3.2139  2.1168
  650MOL0     H87707   8.424   3.015   1.753  0.7664  0.5443  1.4677
  650MOL0     H87708   8.464   2.920   1.545  0.1855  0.1668 -0.6025
  650MOL0     H87709   8.576   2.795   1.617  0.7021 -0.0963  2.4189
  650MOL0     H87710   8.771   2.866   1.434 -2.6307  0.6017  0.9090
  650MOL0     H87711   8.999   2.742   1.477  0.7730  0.6060 -0.9112
  650MOL0     H87712   9.256   2.422   1.724 -0.7454  0.2507  0.4726
  650MOL0     H87713   9.455   2.345   1.752  2.8546 -1.1987 -0.9043
  650MOL0     H87714   9.685   2.329   1.896 -0.0432  2.9376  1.3757
  650MOL0     H87715   9.676   2.271   1.726  1.2732  0.1282  0.5082
  650MOL0     H87716   9.935   2.354   1.876  0.4027 -1.2629  1.2929
  650MOL0     H87717   9.875   2.196   1.836 -0.8563  0.5508  0.4706
  650MOL0     H87718   9.887   2.277   1.592 -2.3530 -1.1773  1.8488
  650MOL0     H87719   9.976   2.414   1.662 -0.1973 -0.0757  0.8336
  650MOL0     H87720  10.156   2.263   1.743  0.4030  2.1123 -1.0349
  650MOL0     H87721  10.153   2.268   1.572 -0.2130  0.9031 -0.0365
  650MOL0     H87722  10.057   2.059   1.551 -0.2719  0.6929  0.7296
  650MOL0     H87723   9.984   2.069   1.710  0.1256  2.3195  0.5736
  650MOL0     H87724  10.269   2.034   1.625  1.8336  2.0660  1.9993
  650MOL0     H87725  10.230   2.039   1.801  3.1628 -1.7506 -1.1316
  650MOL0     H87726  10.069   1.846   1.784 -0.3134 -0.7262  0.8506
  650MOL0     H87727  10.236   1.804   1.774 -0.2004  0.0466  0.5250
  650MOL0     H87728  10.089   1.673   1.608 -2.8095  1.1044  0.7749
  650MOL0     H87729  10.037   1.815   1.532 -0.2060  0.6611 -1.0996
  650MOL0     H87730   9.667   2.697   1.662  0.5262 -0.8343  0.7555
  650MOL0     H87731   9.426   2.808   1.592 -0.1671 -0.8175 -4.4636
  650MOL0     H87732   8.985   2.888   1.879 -1.3579 -1.7164  1.3048
  650MOL0     H87733   8.776   3.007   1.840 -1.0884 -1.1032  1.1050
  650MOL0     H87734   8.286   1.294   2.007 -0.3222 -2.9790  0.0479
  650MOL0     H87735   8.180   1.079   2.011 -0.0829 -0.2301  1.5752
  650MOL0     H87736   7.983   0.684   1.981 -0.2768  1.8026 -0.1231
  650MOL0     H87737   7.888   0.474   2.035  0.8497  0.1571 -0.2480
  650MOL0     H87738   7.711   0.390   2.418 -1.7620  0.8321 -1.4205
  650MOL0     H87739   7.877   0.381   2.349  0.5957 -0.9915 -5.4536
  650MOL0     H87740   7.640   0.206   2.304 -0.5135 -0.4592  0.9106
  650MOL0     H87741   7.783   0.159   2.411  1.3147  1.4997  1.0010
  650MOL0     H87742   7.910   0.194   2.173  0.4037 -2.4774 -1.2666
  650MOL0     H87743   7.748   0.197   2.105  1.4814 -0.6602 -0.7320
  650MOL0     H87744   7.867  -0.041   2.266  0.0616  1.6623  1.3133
  650MOL0     H87745   7.711  -0.049   2.178 -0.4196  0.0988 -0.7712
  650MOL0     H87746   7.983  -0.090   1.865  0.2687 -1.8947  1.4442
  650MOL0     H87747   7.650   0.642   2.337  0.7704  4.4941  0.8536
  650MOL0     H87748   7.717   1.011   2.276 -2.6972 -0.4826 -1.1773
  650MOL0     H87749   7.614   0.898   2.342 -0.7851  3.3414 -1.0320
  650MOL0     H87750   7.763   0.924   2.431 -3.6795  2.1755  1.7550
  651MOL0     O87751   3.288   5.629   2.981  0.3239  0.2744  0.9372
  651MOL0     C87752   3.406   5.609   3.015  0.4423  0.6902  0.5630
  651MOL0     O87753   3.444   5.494   3.078 -0.2390 -0.2421 -0.0481
  651MOL0     C87754   3.357   5.415   3.125 -0.1682  0.2033  0.4448
  651MOL0     C87755   3.317   5.301   3.055 -0.1121  0.3344  0.1864
  651MOL0     C87756   3.221   5.206   3.105 -0.3119  0.6601  0.2698
  651MOL0     C87757   3.168   5.228   3.227  0.2553 -0.5930 -0.5025
  651MOL0     O87758   3.091   5.130   3.276 -0.0373  0.5806 -0.0059
  651MOL0     C87759   3.012   5.147   3.396 -0.2646 -0.2429  0.5381
  651MOL0     C87760   2.933   5.015   3.414  0.4826  0.0881 -0.1034
  651MOL0     C87761   2.854   5.010   3.541  0.0245  0.3668  0.1793
  651MOL0     C87762   2.927   4.939   3.653 -0.6141 -0.1103 -0.3115
  651MOL0     C87763   3.062   5.008   3.680 -0.4395  1.1820 -0.2122
  651MOL0     C87764   3.126   4.947   3.800  0.1809  0.3598  0.0400
  651MOL0     C87765   3.275   4.908   3.781 -0.5964 -0.8342  0.5980
  651MOL0     C87766   3.341   4.879   3.912  0.5548  0.3075  0.3547
  651MOL0     N87767   3.482   4.845   3.914  0.0517 -0.3356  0.2275
  651MOL0     C87768   3.541   4.777   4.011 -0.1298 -0.6797  0.8098
  651MOL0     C87769   3.677   4.786   3.992 -0.5530 -0.4497 -0.3911
  651MOL0     C87770   3.792   4.713   4.060 -0.1995 -0.2330 -0.7949
  651MOL0     C87771   3.913   4.698   3.973 -0.0736 -0.6000  0.6739
  651MOL0     C87772   4.010   4.819   3.977  0.2154  0.0346  0.2410
  651MOL0     C87773   4.143   4.783   3.913  0.2525  0.3322 -0.5182
  651MOL0     O87774   4.168   4.917   3.861 -0.3023  0.3242 -0.1910
  651MOL0     C87775   4.245   4.923   3.749  0.2103 -0.4523 -0.1328
  651MOL0     C87776   4.296   4.820   3.669 -0.4925  0.1787 -0.8551
  651MOL0     C87777   4.357   4.845   3.544  0.2491  0.7970 -0.2534
  651MOL0     C87778   4.371   4.980   3.491  0.7516  0.2851 -0.1428
  651MOL0     C87779   4.431   5.010   3.364 -0.1563  0.3467  0.2423
  651MOL0     O87780   4.475   4.909   3.268  0.4790 -0.9305 -0.4439
  651MOL0     C87781   4.555   4.940   3.158 -0.3773 -0.0895 -0.8105
  651MOL0     C87782   4.556   5.053   3.074 -0.0671  0.7516 -0.4197
  651MOL0     C87783   4.634   5.048   2.960 -0.6780 -0.5756  0.0375
  651MOL0     C87784   4.718   4.942   2.929 -1.0159 -0.1192 -0.1465
  651MOL0     O87785   4.782   4.944   2.811 -0.6712  0.4989 -0.5281
  651MOL0     C87786   4.822   5.066   2.751  0.0971  0.2635 -0.4788
  651MOL0     C87787   4.950   5.051   2.671  0.8163  0.4450 -0.0682
  651MOL0     C87788   5.024   5.181   2.667  0.1480  0.3164  0.3288
  651MOL0     C87789   5.159   5.160   2.590  0.4921  1.0686  0.0944
  651MOL0     C87790   5.255   5.277   2.581 -0.3312 -0.0858 -0.2833
  651MOL0     C87791   5.200   5.392   2.504 -0.3395  0.5571  0.0157
  651MOL0     C87792   5.303   5.506   2.507 -0.3259  0.6829 -0.2200
  651MOL0     C87793   5.265   5.606   2.406  0.6376  1.1128  0.0450
  651MOL0    Cl87794   5.292   5.521   2.248  0.4677 -0.1871 -0.4619
  651MOL0     C87795   4.725   4.833   3.014 -0.2957 -0.4782 -0.1865
  651MOL0     C87796   4.649   4.834   3.130 -0.5460  0.3792 -0.8644
  651MOL0     O87797   4.457   5.127   3.358  0.4555  0.2271 -0.2971
  651MOL0     C87798   4.323   5.078   3.580 -0.3780  0.7947 -0.3140
  651MOL0     C87799   4.257   5.050   3.694 -0.0962 -0.4907  0.1276
  651MOL0     N87800   3.696   4.856   3.872 -0.3831 -0.8374  0.2170
  651MOL0     N87801   3.579   4.879   3.825  0.3835 -0.2010  0.3720
  651MOL0     C87802   3.180   5.352   3.298  0.2071 -1.0290 -0.9094
  651MOL0     C87803   3.280   5.442   3.239 -0.3240 -0.0439 -0.4859
  651MOL0     C87804   3.499   5.729   3.010 -0.0114 -0.1536  0.2826
  651MOL0     C87805   3.617   5.726   3.077  0.4174 -0.6787  0.0577
  651MOL0     C87806   3.717   5.825   3.077  0.0612 -0.6530 -0.4526
  651MOL0     C87807   3.694   5.939   2.995 -0.6437  0.4205 -1.1963
  651MOL0     O87808   3.767   6.056   2.992  0.4856 -0.4651  0.5562
  651MOL0     C87809   3.906   6.064   3.041  0.1810  0.1701 -0.2948
  651MOL0     C87810   3.975   6.185   2.981 -0.2933 -0.1903  0.0870
  651MOL0     C87811   3.958   6.186   2.827 -0.2728  0.5707  0.5842
  651MOL0     C87812   4.075   6.265   2.762 -0.6614 -0.8889 -0.2316
  651MOL0     C87813   4.120   6.386   2.843 -0.0171  0.7139  0.1171
  651MOL0     C87814   4.145   6.491   2.896  0.5311  0.0266 -0.6922
  651MOL0     C87815   3.579   5.948   2.922 -0.1390  0.0294  0.8343
  651MOL0     C87816   3.482   5.843   2.922 -0.9529  0.3770 -0.2366
  651MOL0     C87817   3.371   5.846   2.811 -0.1935  1.0559 -0.3331
  651MOL0     H87818   3.359   5.274   2.958  1.6524  2.7823  0.1503
  651MOL0     H87819   3.199   5.114   3.052  1.6778  1.0710 -1.3742
  651MOL0     H87820   3.083   5.168   3.477  0.8324 -1.0045 -0.1917
  651MOL0     H87821   2.952   5.237   3.384  0.2232 -0.0690 -0.7216
  651MOL0     H87822   3.001   4.930   3.406 -2.2264 -2.0633 -1.8316
  651MOL0     H87823   2.858   4.997   3.337 -2.4662 -0.8708  2.7424
  651MOL0     H87824   2.764   4.949   3.528  1.6096 -2.9886  3.3884
  651MOL0     H87825   2.832   5.112   3.574 -0.4042  0.3955 -0.1879
  651MOL0     H87826   2.865   4.934   3.743 -2.7299  0.3655 -1.6700
  651MOL0     H87827   2.942   4.836   3.619  4.1754  1.4864 -4.3956
  651MOL0     H87828   3.136   4.985   3.603  1.0879 -0.5957  1.6487
  651MOL0     H87829   3.050   5.116   3.689 -0.7837  1.0785  0.7221
  651MOL0     H87830   3.121   5.023   3.878 -2.7248 -0.4665  0.7945
  651MOL0     H87831   3.073   4.857   3.834 -0.5752  0.5182 -0.7091
  651MOL0     H87832   3.320   5.001   3.743  1.6541 -1.8354  0.6555
  651MOL0     H87833   3.278   4.832   3.702 -1.3844  2.5877 -3.0796
  651MOL0     H87834   3.306   4.956   3.981 -0.7822  0.8543 -0.8754
  651MOL0     H87835   3.298   4.784   3.945  3.9257 -1.0021  1.4060
  651MOL0     H87836   3.494   4.724   4.093 -2.0079  1.3822  1.1599
  651MOL0     H87837   3.815   4.764   4.154 -1.0439 -1.1410 -0.0765
  651MOL0     H87838   3.762   4.612   4.090 -0.8114  0.3705  0.7069
  651MOL0     H87839   3.973   4.611   4.001  2.8037  0.5755 -1.3066
  651MOL0     H87840   3.879   4.684   3.870 -1.4155  2.8230  0.5236
  651MOL0     H87841   4.025   4.857   4.079  2.4611  1.2876 -0.4777
  651MOL0     H87842   3.958   4.899   3.926  1.8257 -0.6714 -2.7315
  651MOL0     H87843   4.111   4.711   3.837 -2.5585  0.0346  0.8277
  651MOL0     H87844   4.211   4.745   3.989  2.8647 -0.8759 -3.2611
  651MOL0     H87845   4.263   4.720   3.696 -1.7616  0.8990  0.4708
  651MOL0     H87846   4.387   4.760   3.483 -1.8869 -0.2023  0.0084
  651MOL0     H87847   4.463   5.108   3.084 -0.4519  0.0652 -0.1955
  651MOL0     H87848   4.621   5.125   2.885 -1.6210  1.6468  2.3397
  651MOL0     H87849   4.740   5.106   2.691 -0.2409 -1.0870 -0.9448
  651MOL0     H87850   4.838   5.141   2.830  0.5685  1.5957 -1.7962
  651MOL0     H87851   5.018   4.982   2.721  0.2733  1.3723  2.0436
  651MOL0     H87852   4.930   5.001   2.575 -3.3374  0.9458  0.3402
  651MOL0     H87853   4.959   5.243   2.604 -0.8214 -0.8763  0.1122
  651MOL0     H87854   5.028   5.216   2.770  0.1035 -2.6031  1.4198
  651MOL0     H87855   5.143   5.141   2.483 -0.3766 -0.0828  0.4033
  651MOL0     H87856   5.212   5.074   2.632 -4.0129 -1.0482  2.1966
  651MOL0     H87857   5.348   5.244   2.535 -0.1782 -1.5248  0.9720
  651MOL0     H87858   5.281   5.323   2.677 -0.6716  2.3803 -1.3049
  651MOL0     H87859   5.172   5.363   2.402 -0.5098 -1.7143  0.6404
  651MOL0     H87860   5.110   5.425   2.556 -2.4985 -0.8352 -2.6138
  651MOL0     H87861   5.404   5.470   2.485  0.7284  2.3057  1.6244
  651MOL0     H87862   5.313   5.549   2.607 -1.0694 -1.2137  0.7174
  651MOL0     H87863   5.160   5.633   2.423  0.5058  0.2443  0.6320
  651MOL0     H87864   5.331   5.693   2.405  3.0255 -0.6049 -0.7713
  651MOL0     H87865   4.793   4.750   2.995  2.1737  0.9573  1.7952
  651MOL0     H87866   4.656   4.737   3.177  1.4983 -0.6808 -3.1454
  651MOL0     H87867   4.328   5.181   3.546 -1.8217  0.8263 -0.5124
  651MOL0     H87868   4.213   5.129   3.754  2.7898  1.0573  0.4052
  651MOL0     H87869   3.142   5.390   3.392 -0.0801 -0.1725 -1.3565
  651MOL0     H87870   3.304   5.533   3.292  1.2301 -1.4608  1.3623
  651MOL0     H87871   3.632   5.632   3.129 -2.7878 -1.3944 -0.1500
  651MOL0     H87872   3.808   5.819   3.136  1.3854  0.5884 -2.2574
  651MOL0     H87873   3.957   5.978   2.996 -1.8044 -0.3859 -1.6107
  651MOL0     H87874   3.903   6.066   3.150 -1.3912  1.4998 -0.3145
  651MOL0     H87875   4.078   6.178   3.018 -0.1630 -1.0530 -0.3917
  651MOL0     H87876   3.922   6.269   3.025  2.2874  0.9870  1.1241
  651MOL0     H87877   3.864   6.234   2.797  0.5077  2.6014  1.2479
  651MOL0     H87878   3.965   6.081   2.797 -1.2696  0.4436  0.7535
  651MOL0     H87879   4.164   6.203   2.747 -0.6361 -0.8359 -0.2991
  651MOL0     H87880   4.042   6.297   2.663  3.3948  0.9319 -1.2392
  651MOL0     H87881   4.170   6.588   2.936  1.7058 -1.5443  2.7523
  651MOL0     H87882   3.571   6.023   2.844 -1.6946 -0.3264  0.6379
  651MOL0     H87883   3.270   5.880   2.836  0.3596  0.5671  3.1479
  651MOL0     H87884   3.401   5.916   2.732  4.4611  3.1223  2.7743
  651MOL0     H87885   3.365   5.743   2.777 -3.0547  0.2099  2.3413
  652MOL0     O87886   1.533   7.026   8.097 -0.9293  0.2884  0.2576
  652MOL0     C87887   1.658   7.025   8.115  0.1786 -0.1928 -0.2873
  652MOL0     O87888   1.717   6.954   8.219  0.4527  0.2217  0.1885
  652MOL0     C87889   1.636   6.856   8.283  0.2823  0.2181 -0.0471
  652MOL0     C87890   1.614   6.864   8.422 -0.0551 -0.0009 -0.3088
  652MOL0     C87891   1.525   6.774   8.487 -0.3165 -0.0656  0.3989
  652MOL0     C87892   1.489   6.658   8.417 -0.5204 -0.8080 -0.0436
  652MOL0     O87893   1.434   6.549   8.476 -0.4296 -0.3667  0.3502
  652MOL0     C87894   1.307   6.496   8.418 -0.3586 -0.5684 -0.0780
  652MOL0     C87895   1.288   6.365   8.499  0.3334 -0.9144 -0.3348
  652MOL0     C87896   1.143   6.328   8.484 -0.0149  0.2488 -0.6860
  652MOL0     C87897   1.082   6.268   8.624 -0.4262 -0.0600  0.6611
  652MOL0     C87898   0.940   6.218   8.588  0.3947  0.7511 -0.2259
  652MOL0     C87899   0.947   6.066   8.549  0.5858 -0.2054 -0.4642
  652MOL0     C87900   0.817   6.010   8.475  0.6380  0.6919 -0.1374
  652MOL0     C87901   0.839   5.870   8.412  0.4604  0.1925  1.0877
  652MOL0     N87902   0.915   5.882   8.288  0.1518 -0.4965  0.6028
  652MOL0     C87903   1.047   5.858   8.277 -0.3355 -0.4263 -0.0268
  652MOL0     C87904   1.069   5.850   8.141  0.4180  0.2275  0.7327
  652MOL0     C87905   1.199   5.823   8.070 -0.3205 -0.8039 -0.4187
  652MOL0     C87906   1.282   5.941   8.052 -1.0477 -0.4456  0.2402
  652MOL0     C87907   1.202   6.054   7.979 -0.0874 -0.1655 -0.7556
  652MOL0     C87908   1.294   6.169   7.926  0.6686 -0.4523  0.7391
  652MOL0     O87909   1.363   6.122   7.808  0.0524 -0.1957 -0.5546
  652MOL0     C87910   1.424   6.217   7.727 -0.4032 -0.7357 -0.1355
  652MOL0     C87911   1.434   6.353   7.743 -0.1806 -0.2588  0.2103
  652MOL0     C87912   1.504   6.427   7.646 -0.3121  0.2677  0.8344
  652MOL0     C87913   1.563   6.368   7.530 -0.3985  0.2879 -0.5142
  652MOL0     C87914   1.639   6.452   7.439 -0.1186  0.1813 -0.7131
  652MOL0     O87915   1.650   6.397   7.308  0.7346 -0.5640 -0.1557
  652MOL0     C87916   1.697   6.486   7.220 -0.2492  0.5952 -1.4863
  652MOL0     C87917   1.822   6.554   7.234  0.8046  0.0609 -0.1392
  652MOL0     C87918   1.869   6.643   7.137  0.2342  0.1228 -0.4958
  652MOL0     C87919   1.802   6.658   7.014  0.4848  0.0479 -0.0419
  652MOL0     O87920   1.842   6.721   6.900 -0.3026  0.1988 -0.6235
  652MOL0     C87921   1.967   6.797   6.902  0.0700  0.5605 -0.0620
  652MOL0     C87922   1.978   6.874   6.769  0.1948 -0.8053  0.0309
  652MOL0     C87923   2.089   6.972   6.768 -0.4943  0.0207  1.3437
  652MOL0     C87924   2.239   6.915   6.734 -0.6863  0.4035 -0.7740
  652MOL0     C87925   2.330   7.034   6.769 -0.4898  0.0552  0.2588
  652MOL0     C87926   2.473   7.009   6.751  0.0931  1.0085  0.8182
  652MOL0     C87927   2.566   7.129   6.766 -0.5148  0.0361 -0.5178
  652MOL0     C87928   2.695   7.131   6.698 -0.0480  0.0249  0.1952
  652MOL0    Cl87929   2.808   6.993   6.728  0.7391 -0.0580 -0.0648
  652MOL0     C87930   1.680   6.588   7.001 -0.0993  0.2900  0.3551
  652MOL0     C87931   1.631   6.510   7.099 -0.1687 -0.1208 -0.1203
  652MOL0     O87932   1.688   6.559   7.484 -0.0613  1.0250 -0.4529
  652MOL0     C87933   1.555   6.236   7.518  0.0024  0.5521 -0.8577
  652MOL0     C87934   1.483   6.160   7.617 -0.5652 -0.4385  0.5330
  652MOL0     N87935   0.952   5.880   8.073  0.3642  0.7584  0.4386
  652MOL0     N87936   0.855   5.888   8.160 -0.2655 -0.0745 -0.2161
  652MOL0     C87937   1.514   6.645   8.280 -0.5151 -0.3657 -0.0617
  652MOL0     C87938   1.579   6.747   8.212  0.2033  0.7294 -0.0527
  652MOL0     C87939   1.730   7.129   8.040  0.1287 -0.3024  0.4602
  652MOL0     C87940   1.832   7.202   8.106  0.1053  0.0901  0.0397
  652MOL0     C87941   1.895   7.309   8.039  0.0984  0.2241  0.2932
  652MOL0     C87942   1.877   7.322   7.903 -0.4347 -0.2976  1.1124
  652MOL0     O87943   1.955   7.394   7.823  0.2687 -0.2310 -0.7293
  652MOL0     C87944   2.078   7.450   7.871  0.1035 -0.5891 -0.2093
  652MOL0     C87945   2.164   7.457   7.744  0.4816  0.8279  0.2718
  652MOL0     C87946   2.222   7.325   7.691  0.0938  0.4080 -0.1198
  652MOL0     C87947   2.268   7.315   7.543  0.5719  0.6039 -0.8893
  652MOL0     C87948   2.363   7.414   7.527  0.0722 -0.5879  0.1408
  652MOL0     C87949   2.445   7.493   7.515  0.0174 -0.4998  0.6535
  652MOL0     C87950   1.778   7.250   7.838 -0.3164  0.0266  0.4005
  652MOL0     C87951   1.696   7.157   7.900 -0.2101  0.1557 -0.5135
  652MOL0     C87952   1.599   7.074   7.810  0.0203 -0.0344 -0.0301
  652MOL0     H87953   1.661   6.951   8.465  1.5372 -0.9603 -0.0243
  652MOL0     H87954   1.503   6.798   8.590 -2.5983 -1.6311  0.3540
  652MOL0     H87955   1.221   6.559   8.445 -0.3423 -1.3135  1.8446
  652MOL0     H87956   1.306   6.477   8.310  2.5174 -4.2936  0.3657
  652MOL0     H87957   1.311   6.382   8.605 -1.0393 -0.6925 -0.0441
  652MOL0     H87958   1.362   6.300   8.454 -0.8924 -0.7819 -2.6750
  652MOL0     H87959   1.135   6.245   8.414  0.0653 -0.8178  0.5228
  652MOL0     H87960   1.083   6.412   8.447 -0.5442  1.2975  2.2707
  652MOL0     H87961   1.139   6.182   8.662  0.0112 -0.0208  0.1157
  652MOL0     H87962   1.079   6.348   8.697 -1.3353  2.1719 -1.6640
  652MOL0     H87963   0.875   6.236   8.674 -1.4978  0.1169 -1.4588
  652MOL0     H87964   0.905   6.274   8.501  1.9340  0.5237 -1.0426
  652MOL0     H87965   1.046   6.050   8.503  1.5249  1.0800  1.0163
  652MOL0     H87966   0.957   6.009   8.642  1.2512 -0.0799 -0.4498
  652MOL0     H87967   0.782   6.086   8.405 -0.9045  0.1848  0.0577
  652MOL0     H87968   0.727   6.001   8.537  1.1372 -1.9472  0.3119
  652MOL0     H87969   0.890   5.805   8.484  2.0714 -0.8010 -0.8744
  652MOL0     H87970   0.740   5.828   8.392  0.9363 -0.3093 -0.2725
  652MOL0     H87971   1.113   5.830   8.359 -1.5737 -2.8587  0.2217
  652MOL0     H87972   1.255   5.753   8.134 -0.4278 -0.6359 -0.1382
  652MOL0     H87973   1.174   5.772   7.977  2.1077 -0.5541 -1.2896
  652MOL0     H87974   1.322   5.974   8.148 -1.0038 -0.5649  0.2630
  652MOL0     H87975   1.361   5.920   7.978 -1.4419 -1.1963  0.0188
  652MOL0     H87976   1.137   6.102   8.053  0.5348  1.2026 -1.0722
  652MOL0     H87977   1.138   6.014   7.900 -0.3392  1.5320 -1.4445
  652MOL0     H87978   1.374   6.188   7.998  2.7024 -0.1132 -1.4638
  652MOL0     H87979   1.230   6.253   7.897  0.4171 -0.5318  1.0559
  652MOL0     H87980   1.392   6.401   7.830  0.1031 -3.7372  2.4983
  652MOL0     H87981   1.490   6.534   7.659 -1.3552  0.3107 -0.4144
  652MOL0     H87982   1.881   6.529   7.322 -0.3459 -0.8527  0.3934
  652MOL0     H87983   1.965   6.683   7.169  1.7186 -2.4775 -1.4295
  652MOL0     H87984   1.977   6.846   7.000 -1.6723 -0.3050  0.5863
  652MOL0     H87985   2.050   6.725   6.901 -1.8725 -1.8322 -2.0434
  652MOL0     H87986   1.981   6.805   6.684  0.5194 -0.6799 -0.0627
  652MOL0     H87987   1.882   6.927   6.767  1.0426  0.8151 -0.0153
  652MOL0     H87988   2.064   7.036   6.682  1.6929  0.3183  0.8792
  652MOL0     H87989   2.101   7.033   6.858  0.3808  0.8234  0.7004
  652MOL0     H87990   2.250   6.884   6.630 -1.8473 -2.0322 -0.2477
  652MOL0     H87991   2.257   6.827   6.797 -0.2536  0.4343 -0.8492
  652MOL0     H87992   2.309   7.059   6.873  0.8347 -1.1041  0.8425
  652MOL0     H87993   2.302   7.117   6.703  3.1583  0.9345 -0.4142
  652MOL0     H87994   2.511   6.920   6.802  0.9247 -0.3773 -2.0127
  652MOL0     H87995   2.490   6.964   6.652  0.9185  0.4595  1.1964
  652MOL0     H87996   2.586   7.155   6.870  1.1345 -0.8008 -0.5861
  652MOL0     H87997   2.502   7.211   6.731 -0.1335 -0.7433 -3.3079
  652MOL0     H87998   2.689   7.130   6.589  0.7172 -1.9765  0.1474
  652MOL0     H87999   2.746   7.225   6.724  1.5141 -0.6079 -0.4722
  652MOL0     H88000   1.625   6.594   6.908  0.1872  1.1819  0.2380
  652MOL0     H88001   1.528   6.478   7.085 -1.6751  4.2558 -0.5235
  652MOL0     H88002   1.610   6.195   7.434 -1.4046 -0.1032 -1.5097
  652MOL0     H88003   1.461   6.055   7.602  3.7094 -1.7380  1.7042
  652MOL0     H88004   1.494   6.563   8.211 -2.7107 -1.1125  1.3863
  652MOL0     H88005   1.592   6.735   8.105  0.0345 -1.8733  0.1570
  652MOL0     H88006   1.860   7.187   8.210  3.3220  2.0025 -0.3987
  652MOL0     H88007   1.973   7.368   8.086  0.0271  0.5372  0.0292
  652MOL0     H88008   2.126   7.387   7.946  1.3874 -1.3295 -1.6008
  652MOL0     H88009   2.065   7.552   7.909 -0.0011  0.5433 -3.0639
  652MOL0     H88010   2.248   7.525   7.765  2.4078 -1.7831  1.5421
  652MOL0     H88011   2.103   7.501   7.665 -0.0742  1.5551  1.0772
  652MOL0     H88012   2.145   7.250   7.708  0.0969  0.5955  0.7549
  652MOL0     H88013   2.310   7.302   7.751  0.1469  1.2692  0.1415
  652MOL0     H88014   2.322   7.223   7.520 -0.9440 -0.5907  0.1413
  652MOL0     H88015   2.185   7.321   7.472  0.0297  0.4090 -0.2811
  652MOL0     H88016   2.533   7.554   7.514 -0.4743  0.2205  0.8153
  652MOL0     H88017   1.766   7.258   7.731 -1.9290 -2.0528  0.3829
  652MOL0     H88018   1.501   7.056   7.855 -0.2282  0.3210 -0.4152
  652MOL0     H88019   1.577   7.122   7.714 -1.2979 -1.4072 -0.4556
  652MOL0     H88020   1.658   6.986   7.783  0.7147  0.8409 -1.4950
  653MOL0     O88021   5.433   4.326   6.393  0.5288 -0.7202  0.3467
  653MOL0     C88022   5.382   4.284   6.288 -0.9421  0.2874  0.8297
  653MOL0     O88023   5.276   4.198   6.282  0.1746 -0.5582  0.4077
  653MOL0     C88024   5.181   4.204   6.376 -0.1023  0.1163 -0.0406
  653MOL0     C88025   5.186   4.231   6.507  0.0421 -0.0721  0.6204
  653MOL0     C88026   5.071   4.218   6.585  0.8501  0.7283 -0.1091
  653MOL0     C88027   4.949   4.195   6.524  0.4457 -0.3144 -0.7053
  653MOL0     O88028   4.835   4.190   6.599  0.2077 -0.2393 -0.2289
  653MOL0     C88029   4.722   4.270   6.542 -0.4765 -0.1298 -1.5234
  653MOL0     C88030   4.610   4.267   6.650 -0.3166  0.0922 -0.1758
  653MOL0     C88031   4.549   4.126   6.687 -0.2502  0.3823  0.0399
  653MOL0     C88032   4.471   4.069   6.573  0.6173  0.1392  0.5069
  653MOL0     C88033   4.413   3.925   6.581 -0.6845  0.6045 -0.2581
  653MOL0     C88034   4.315   3.879   6.478 -0.8879  0.3378  0.6930
  653MOL0     C88035   4.263   3.738   6.492  0.8637 -1.2963  1.0082
  653MOL0     C88036   4.154   3.728   6.595  0.7179 -0.0988  0.3426
  653MOL0     N88037   4.186   3.621   6.688  0.5164 -0.0121 -0.0352
  653MOL0     C88038   4.123   3.500   6.677  0.1952 -0.2842  1.0280
  653MOL0     C88039   4.190   3.431   6.784  0.3976  0.6187  0.5844
  653MOL0     C88040   4.166   3.297   6.835 -0.3473 -0.0108  0.3882
  653MOL0     C88041   4.244   3.191   6.755  0.0597 -0.6080  0.2581
  653MOL0     C88042   4.183   3.057   6.804  0.3916  0.9262 -0.9214
  653MOL0     C88043   4.183   3.043   6.961  0.5024 -0.2985  0.3362
  653MOL0     O88044   4.308   2.980   6.991 -0.4139 -0.1536 -0.3325
  653MOL0     C88045   4.307   2.847   7.019 -0.2292  0.7925 -0.2324
  653MOL0     C88046   4.420   2.799   7.089  1.6945  1.6344 -0.4498
  653MOL0     C88047   4.436   2.665   7.131 -1.0957 -0.2957  0.3962
  653MOL0     C88048   4.343   2.572   7.092  0.2003 -0.2507  0.3365
  653MOL0     C88049   4.351   2.434   7.130  0.1428 -0.3833  0.7739
  653MOL0     O88050   4.286   2.338   7.059 -0.5903 -0.7929 -0.7340
  653MOL0     C88051   4.290   2.215   7.128 -0.4097  1.2342 -0.1090
  653MOL0     C88052   4.392   2.116   7.113  0.7653  0.4368  0.1391
  653MOL0     C88053   4.394   2.007   7.202 -0.0629  0.4062 -0.3533
  653MOL0     C88054   4.283   1.986   7.290  0.1553 -0.4404 -0.1767
  653MOL0     O88055   4.264   1.887   7.381 -0.1921 -0.2801  1.0086
  653MOL0     C88056   4.347   1.770   7.373  0.2494 -0.6240  0.3893
  653MOL0     C88057   4.328   1.679   7.251  0.3229  0.8159  0.2044
  653MOL0     C88058   4.424   1.564   7.260 -0.0082 -0.7384 -0.7180
  653MOL0     C88059   4.452   1.500   7.124  0.3615  1.3101 -0.4666
  653MOL0     C88060   4.356   1.385   7.067 -0.1475 -0.9518 -0.1899
  653MOL0     C88061   4.404   1.305   6.947  0.7493  0.0787  0.3108
  653MOL0     C88062   4.426   1.377   6.813  0.5882  0.0918 -0.5793
  653MOL0     C88063   4.479   1.287   6.699 -0.5033 -0.7012 -0.6720
  653MOL0    Cl88064   4.384   1.155   6.636  0.3809  0.1363  0.2628
  653MOL0     C88065   4.184   2.078   7.302  0.0423 -0.2485  0.3369
  653MOL0     C88066   4.180   2.199   7.220 -0.8604 -0.3367  0.6655
  653MOL0     O88067   4.422   2.408   7.229  0.0031  0.8811  0.0480
  653MOL0     C88068   4.240   2.618   7.006 -0.5582  0.8702  0.0082
  653MOL0     C88069   4.218   2.758   6.970 -1.1740  0.3323  0.1120
  653MOL0     N88070   4.278   3.516   6.852  0.3140  0.3099  1.6214
  653MOL0     N88071   4.269   3.631   6.802  0.0543  0.7969  0.4718
  653MOL0     C88072   4.942   4.166   6.391 -0.1543 -0.1527 -0.9671
  653MOL0     C88073   5.063   4.179   6.315  0.0413 -0.1058  0.2458
  653MOL0     C88074   5.456   4.332   6.165 -0.0167  0.2031  0.4637
  653MOL0     C88075   5.490   4.460   6.153 -1.0832 -0.6902  0.6286
  653MOL0     C88076   5.568   4.508   6.042  0.9031 -0.1031  0.0940
  653MOL0     C88077   5.600   4.419   5.942  0.0405 -0.0754  0.3493
  653MOL0     O88078   5.659   4.479   5.828  0.3261  0.3559 -0.2450
  653MOL0     C88079   5.683   4.396   5.710  0.4754  0.3681 -0.3067
  653MOL0     C88080   5.767   4.481   5.617  0.7967  0.5957  0.2091
  653MOL0     C88081   5.695   4.622   5.579 -1.1944  0.5885 -0.0963
  653MOL0     C88082   5.806   4.699   5.500  1.0321  0.6239  1.3674
  653MOL0     C88083   5.920   4.739   5.578  0.5458  1.0834  0.5165
  653MOL0     C88084   6.008   4.787   5.638  1.0993 -0.3538 -0.4911
  653MOL0     C88085   5.555   4.288   5.949 -0.9556  0.1372  0.0908
  653MOL0     C88086   5.474   4.246   6.059  0.0570  0.7990  0.4441
  653MOL0     C88087   5.430   4.099   6.076  0.8058 -1.3769  0.0987
  653MOL0     H88088   5.281   4.255   6.554  0.2459  0.2166  0.0639
  653MOL0     H88089   5.059   4.223   6.693 -1.8008 -0.8205 -0.2340
  653MOL0     H88090   4.754   4.373   6.528  0.9977  0.3805  3.5011
  653MOL0     H88091   4.678   4.219   6.456 -1.3097 -1.4049 -0.4019
  653MOL0     H88092   4.525   4.327   6.615  0.0397 -1.2893 -3.8836
  653MOL0     H88093   4.652   4.314   6.739 -0.3397 -3.2293  1.7605
  653MOL0     H88094   4.490   4.133   6.779 -0.2069 -1.2247  0.2139
  653MOL0     H88095   4.630   4.057   6.709 -1.2206 -1.3404 -1.5464
  653MOL0     H88096   4.390   4.141   6.558  0.5371  0.0738  0.6206
  653MOL0     H88097   4.516   4.078   6.474 -0.4309 -3.3576 -0.4135
  653MOL0     H88098   4.507   3.869   6.584 -0.8407  0.1354 -2.4331
  653MOL0     H88099   4.369   3.908   6.680  1.9105  0.6539  1.0095
  653MOL0     H88100   4.231   3.949   6.471 -1.6927 -0.6262  0.4349
  653MOL0     H88101   4.375   3.896   6.389 -0.0139 -2.2843  0.6933
  653MOL0     H88102   4.353   3.679   6.513  2.3275 -0.8341 -3.0252
  653MOL0     H88103   4.227   3.710   6.393 -0.2431  3.0654 -0.0669
  653MOL0     H88104   4.148   3.810   6.667  0.7275 -1.7357  2.3124
  653MOL0     H88105   4.057   3.708   6.547 -0.6857 -1.7570  3.5412
  653MOL0     H88106   4.055   3.459   6.603  0.7130 -0.7489  0.8024
  653MOL0     H88107   4.215   3.299   6.933  0.8879 -2.5373 -0.1052
  653MOL0     H88108   4.058   3.279   6.832  0.0474 -2.5721 -0.8729
  653MOL0     H88109   4.209   3.191   6.651 -3.0502 -1.2958  1.2298
  653MOL0     H88110   4.353   3.202   6.752 -0.0707  0.8760 -1.6644
  653MOL0     H88111   4.238   2.980   6.749 -2.5815 -0.0999 -2.6697
  653MOL0     H88112   4.080   3.061   6.769  0.7382  0.1050 -2.0802
  653MOL0     H88113   4.098   2.981   6.991 -1.6812  3.2771  2.1780
  653MOL0     H88114   4.175   3.135   7.020  1.0070  0.9153 -1.4138
  653MOL0     H88115   4.492   2.863   7.138  3.4180 -1.0613  0.7235
  653MOL0     H88116   4.515   2.656   7.206  1.8495  1.5566 -2.2369
  653MOL0     H88117   4.466   2.125   7.034  1.2447  4.8439  0.8428
  653MOL0     H88118   4.476   1.939   7.187  0.2288  0.9286 -1.2264
  653MOL0     H88119   4.448   1.810   7.388 -1.3795  5.0398 -1.3729
  653MOL0     H88120   4.320   1.703   7.455  0.1697  1.1452  1.8619
  653MOL0     H88121   4.228   1.635   7.255  0.9488 -0.6023  2.4365
  653MOL0     H88122   4.329   1.736   7.158 -0.1731 -1.4158 -1.2537
  653MOL0     H88123   4.522   1.610   7.275 -1.9560  4.1207 -1.2707
  653MOL0     H88124   4.403   1.499   7.345 -0.1050  0.5328  0.2508
  653MOL0     H88125   4.549   1.451   7.131  0.3235  1.2778 -0.1643
  653MOL0     H88126   4.473   1.588   7.062  3.1362  1.6707  0.8180
  653MOL0     H88127   4.254   1.423   7.059 -0.5180 -1.7665  0.4312
  653MOL0     H88128   4.344   1.315   7.151 -3.1821 -3.3211 -2.3651
  653MOL0     H88129   4.498   1.264   6.984  0.9272  0.0319 -0.1818
  653MOL0     H88130   4.328   1.228   6.931  1.8998 -0.9594 -0.3430
  653MOL0     H88131   4.507   1.446   6.841 -0.4613  1.1554 -0.0615
  653MOL0     H88132   4.334   1.425   6.777 -0.8507 -1.9819  0.1680
  653MOL0     H88133   4.494   1.357   6.617  0.3705  3.2756  2.5319
  653MOL0     H88134   4.578   1.251   6.727 -0.4341 -0.7310 -0.9518
  653MOL0     H88135   4.105   2.056   7.374 -1.0780 -1.2280 -1.1457
  653MOL0     H88136   4.093   2.264   7.223 -0.0494  0.9118 -0.9755
  653MOL0     H88137   4.167   2.547   6.969  0.0469 -0.2214  0.8437
  653MOL0     H88138   4.139   2.777   6.898  0.2229  1.5760 -1.1432
  653MOL0     H88139   4.848   4.138   6.343  0.3878 -2.3864 -0.8343
  653MOL0     H88140   5.051   4.147   6.212 -0.7985  3.3140 -0.8548
  653MOL0     H88141   5.465   4.534   6.228  0.1693 -0.3423  0.7288
  653MOL0     H88142   5.603   4.610   6.033 -0.7711  0.4323 -0.7093
  653MOL0     H88143   5.585   4.382   5.664 -0.1416  1.3428  0.6582
  653MOL0     H88144   5.735   4.305   5.743  3.2863  2.4509  1.5158
  653MOL0     H88145   5.778   4.426   5.523 -1.7761  0.1172  0.1085
  653MOL0     H88146   5.862   4.493   5.670  0.1951 -3.0906  2.4225
  653MOL0     H88147   5.668   4.673   5.671  0.9021 -0.2698  1.0509
  653MOL0     H88148   5.607   4.598   5.518 -3.3304  1.6397  2.4060
  653MOL0     H88149   5.834   4.635   5.415 -0.5151 -1.1300  2.0981
  653MOL0     H88150   5.754   4.788   5.463  0.7719 -0.0634  0.0282
  653MOL0     H88151   6.091   4.826   5.693  1.7886  0.6187 -2.1479
  653MOL0     H88152   5.574   4.215   5.871 -0.8079 -0.3734  0.5979
  653MOL0     H88153   5.457   4.059   6.173 -1.9100  1.5919  2.3203
  653MOL0     H88154   5.324   4.103   6.049  0.3468  0.7481  1.9085
  653MOL0     H88155   5.474   4.023   6.011  3.0591 -2.2266  2.4889
  654MOL0     O88156  10.429   8.697   5.778 -0.5589  0.2150 -0.1175
  654MOL0     C88157  10.322   8.722   5.726 -0.2429  0.1011  0.2373
  654MOL0     O88158  10.253   8.832   5.735 -0.1331 -0.8253  0.1872
  654MOL0     C88159  10.286   8.934   5.817 -0.3744 -0.2172 -1.1987
  654MOL0     C88160  10.312   8.909   5.953 -1.4779  0.3091 -0.0307
  654MOL0     C88161  10.352   9.008   6.041 -0.0595 -0.2901 -0.6389
  654MOL0     C88162  10.368   9.136   5.984  0.3465  0.2956  0.6301
  654MOL0     O88163  10.411   9.245   6.050  0.3893 -0.0190 -0.5379
  654MOL0     C88164  10.400   9.251   6.197 -0.1115 -0.7665 -0.0929
  654MOL0     C88165  10.436   9.393   6.253  0.3847 -0.0860 -0.6947
  654MOL0     C88166  10.388   9.510   6.169  0.3229  1.2051 -0.3873
  654MOL0     C88167  10.232   9.521   6.150 -0.5372  1.5304 -0.6851
  654MOL0     C88168  10.165   9.584   6.273  0.6071  0.0806 -1.1095
  654MOL0     C88169  10.019   9.622   6.233  0.2565  0.5825 -0.6440
  654MOL0     C88170   9.937   9.498   6.230  0.1129  0.1581 -0.6761
  654MOL0     C88171   9.789   9.546   6.247 -0.4301  0.5136 -0.1751
  654MOL0     N88172   9.740   9.649   6.157 -0.8698  0.2896  0.5154
  654MOL0     C88173   9.766   9.782   6.165 -0.3258 -0.3092 -0.1084
  654MOL0     C88174   9.724   9.843   6.053 -0.5167  0.5791  0.0961
  654MOL0     C88175   9.724   9.994   6.019 -0.4432 -0.9497 -0.4085
  654MOL0     C88176   9.584  10.047   5.976 -0.3964  0.1061 -1.0930
  654MOL0     C88177   9.600  10.191   5.924 -0.5853  0.2340  0.1939
  654MOL0     C88178   9.679  10.286   6.011 -0.7557  0.0456 -0.9408
  654MOL0     O88179   9.641  10.413   5.959  0.7437  0.9142 -0.4779
  654MOL0     C88180   9.536  10.479   6.014 -0.6498  0.1216  0.2270
  654MOL0     C88181   9.514  10.605   5.960  0.3534  0.5847 -0.0678
  654MOL0     C88182   9.410  10.682   6.011 -0.8207  0.2094 -0.5303
  654MOL0     C88183   9.324  10.645   6.115  0.1730 -0.9737  0.3129
  654MOL0     C88184   9.203  10.723   6.152  0.5718  0.1027  0.0786
  654MOL0     O88185   9.150  10.715   6.278 -0.1705  0.1814 -0.4014
  654MOL0     C88186   9.037  10.782   6.313  0.2996 -0.2954  0.3147
  654MOL0     C88187   9.001  10.907   6.248  0.4027 -0.2069 -0.7929
  654MOL0     C88188   8.890  10.974   6.299 -0.2194 -0.0037  0.0993
  654MOL0     C88189   8.805  10.923   6.401 -0.2810 -0.3733  0.7904
  654MOL0     O88190   8.680  10.968   6.429 -0.0410 -0.2055 -0.1310
  654MOL0     C88191   8.680  11.054   6.539  0.3497 -0.0121 -0.9822
  654MOL0     C88192   8.565  11.024   6.638  0.4414 -0.3103 -0.0987
  654MOL0     C88193   8.541  11.141   6.738 -0.7596  0.1898 -0.4541
  654MOL0     C88194   8.457  11.267   6.689 -1.2197  0.0961 -0.2076
  654MOL0     C88195   8.395  11.333   6.819  0.2032 -0.6622 -0.2011
  654MOL0     C88196   8.314  11.457   6.777  0.3104 -0.9093  0.4200
  654MOL0     C88197   8.292  11.562   6.890 -0.0343  0.5893  0.1568
  654MOL0     C88198   8.162  11.646   6.878 -0.4045 -0.0533 -0.3024
  654MOL0    Cl88199   8.129  11.708   6.713 -0.0919  0.2518 -0.2358
  654MOL0     C88200   8.835  10.799   6.439 -0.1708 -0.0619 -0.7775
  654MOL0     C88201   8.949  10.726   6.398 -0.1094  0.4582 -0.5187
  654MOL0     O88202   9.152  10.779   6.055 -0.4727  0.0258  0.1478
  654MOL0     C88203   9.345  10.521   6.168  0.2613 -0.0768  0.5726
  654MOL0     C88204   9.447  10.434   6.115 -0.2973 -0.0977  0.1591
  654MOL0     N88205   9.675   9.738   5.969  0.8000 -0.2473  0.1501
  654MOL0     N88206   9.686   9.624   6.035  0.0047 -0.3836  0.1692
  654MOL0     C88207  10.347   9.152   5.851 -0.2464 -0.2815  0.2081
  654MOL0     C88208  10.298   9.059   5.769  0.0620 -0.5094  0.4871
  654MOL0     C88209  10.285   8.629   5.615 -0.3889 -0.6107 -0.7475
  654MOL0     C88210  10.206   8.686   5.514  1.0140  0.5043 -0.1978
  654MOL0     C88211  10.172   8.604   5.404  0.1136  0.1762  1.4861
  654MOL0     C88212  10.211   8.471   5.386 -0.2554  0.1426 -0.5057
  654MOL0     O88213  10.171   8.408   5.271 -0.4823 -0.2215 -0.0286
  654MOL0     C88214  10.184   8.266   5.263  0.3499 -0.7893  0.5126
  654MOL0     C88215  10.137   8.219   5.128  0.1984  0.0442  0.0454
  654MOL0     C88216   9.991   8.182   5.130 -0.3832  0.1235  0.3666
  654MOL0     C88217   9.954   8.125   4.990  0.3030 -0.0391  0.6021
  654MOL0     C88218  10.018   8.000   4.948  0.0155  0.3654  1.1020
  654MOL0     C88219  10.062   7.900   4.892  0.2939  0.4995 -0.6348
  654MOL0     C88220  10.279   8.416   5.488  0.5719  1.0949  0.0281
  654MOL0     C88221  10.315   8.492   5.599 -0.6771  0.2573  0.0667
  654MOL0     C88222  10.394   8.412   5.703 -0.7189 -0.1478  0.2840
  654MOL0     H88223  10.286   8.810   5.989 -1.3425  0.2637 -0.0609
  654MOL0     H88224  10.363   8.990   6.147 -1.4417  0.5060 -0.3327
  654MOL0     H88225  10.300   9.229   6.233  0.3834 -0.8570  1.3066
  654MOL0     H88226  10.470   9.176   6.235 -0.6556 -1.6200 -0.7561
  654MOL0     H88227  10.545   9.387   6.249  0.3565 -3.1545  0.6157
  654MOL0     H88228  10.402   9.407   6.356  0.5336  1.5893 -0.8457
  654MOL0     H88229  10.433   9.498   6.070  2.9926  1.3006  0.7439
  654MOL0     H88230  10.421   9.609   6.201 -1.7837  1.6006  0.7552
  654MOL0     H88231  10.219   9.562   6.049  1.5594 -1.4480 -2.2892
  654MOL0     H88232  10.186   9.424   6.127  0.6370  1.3655 -2.5319
  654MOL0     H88233  10.161   9.517   6.359  0.1208  1.1693 -0.2633
  654MOL0     H88234  10.218   9.674   6.304 -0.2397 -0.2568  1.5016
  654MOL0     H88235   9.980   9.696   6.304 -1.0740 -0.9406  0.2851
  654MOL0     H88236  10.018   9.661   6.131  0.2807  0.4087 -0.7111
  654MOL0     H88237   9.958   9.436   6.318 -2.1281  1.4747  0.8821
  654MOL0     H88238   9.951   9.430   6.146  0.1685  1.1605 -1.4992
  654MOL0     H88239   9.719   9.462   6.237  0.8650 -0.3945 -2.3801
  654MOL0     H88240   9.787   9.594   6.345 -0.5454  1.0139 -0.4223
  654MOL0     H88241   9.824   9.829   6.244  2.7580 -1.8315 -1.2941
  654MOL0     H88242   9.766  10.057   6.098 -1.2153  0.1217 -0.8309
  654MOL0     H88243   9.797  10.004   5.939  0.7373 -3.3047  0.2895
  654MOL0     H88244   9.541   9.983   5.899 -2.6170 -0.9991  0.9294
  654MOL0     H88245   9.529  10.020   6.066  1.7265  0.1087  0.2867
  654MOL0     H88246   9.497  10.225   5.917 -0.3965  0.9031  0.5742
  654MOL0     H88247   9.641  10.195   5.823 -3.9798  2.2539 -1.2453
  654MOL0     H88248   9.788  10.277   6.006 -0.6990 -0.4085  0.6491
  654MOL0     H88249   9.647  10.272   6.115 -0.5082 -1.1739 -1.0124
  654MOL0     H88250   9.574  10.634   5.874  1.1975 -0.3518  0.1812
  654MOL0     H88251   9.401  10.775   5.954  2.7578 -0.1126 -1.8606
  654MOL0     H88252   9.054  10.960   6.170  1.2212 -1.9533 -1.4699
  654MOL0     H88253   8.891  11.072   6.252  0.9570 -1.7020 -3.7827
  654MOL0     H88254   8.772  11.049   6.599 -0.5235  1.5354  0.5736
  654MOL0     H88255   8.657  11.154   6.502 -1.7788  0.8372  2.1923
  654MOL0     H88256   8.471  10.996   6.590 -0.2194  1.5705  0.0118
  654MOL0     H88257   8.587  10.934   6.696 -0.7027  0.6310  1.9055
  654MOL0     H88258   8.469  11.105   6.812  0.9172 -1.6407  0.3626
  654MOL0     H88259   8.636  11.160   6.789 -0.8646 -1.5307  0.4539
  654MOL0     H88260   8.387  11.224   6.617 -3.0070  2.5812 -0.0832
  654MOL0     H88261   8.523  11.330   6.628  2.5509 -2.6270  0.6916
  654MOL0     H88262   8.477  11.369   6.882 -0.0543  1.1886 -0.8386
  654MOL0     H88263   8.330  11.262   6.871 -1.9194 -0.8860 -2.9325
  654MOL0     H88264   8.367  11.507   6.695  0.4183  2.7112  2.4776
  654MOL0     H88265   8.214  11.418   6.756  1.5113 -3.4345 -0.9867
  654MOL0     H88266   8.375  11.633   6.897 -1.0822  1.7434  1.4127
  654MOL0     H88267   8.279  11.501   6.980 -0.4766 -1.0288 -0.9488
  654MOL0     H88268   8.067  11.594   6.890 -0.6812  0.5699  0.3610
  654MOL0     H88269   8.163  11.727   6.952 -1.6881  0.3015 -0.6434
  654MOL0     H88270   8.763  10.737   6.492 -0.6893  1.2394  0.0768
  654MOL0     H88271   8.952  10.633   6.453  0.5603  1.5597  1.4057
  654MOL0     H88272   9.276  10.473   6.237  2.0632 -1.2977  1.6074
  654MOL0     H88273   9.453  10.334   6.156 -1.9321 -0.4676 -0.4016
  654MOL0     H88274  10.377   9.246   5.805 -0.0090 -0.2955  0.3274
  654MOL0     H88275  10.273   9.095   5.670 -0.4431  1.4369  1.2751
  654MOL0     H88276  10.185   8.792   5.521  1.2263  0.5820 -0.6738
  654MOL0     H88277  10.123   8.665   5.329 -0.0173 -2.8471 -1.0759
  654MOL0     H88278  10.123   8.207   5.332  0.6934 -2.6175 -0.6744
  654MOL0     H88279  10.289   8.242   5.279  0.1774 -2.5418 -0.6012
  654MOL0     H88280  10.196   8.128   5.115 -2.6984 -1.8411 -0.7759
  654MOL0     H88281  10.145   8.282   5.038 -2.3931 -3.1835 -2.6968
  654MOL0     H88282   9.931   8.271   5.146 -2.7087 -1.4199  0.6603
  654MOL0     H88283   9.956   8.108   5.203  1.1583  0.1946  1.2269
  654MOL0     H88284   9.847   8.115   4.973 -0.1802 -0.7736  3.6067
  654MOL0     H88285   9.994   8.200   4.921 -1.6637  0.1708 -0.3711
  654MOL0     H88286  10.120   7.822   4.846  1.0641  2.0647 -2.4360
  654MOL0     H88287  10.285   8.308   5.483  0.7767  1.1656 -2.1364
  654MOL0     H88288  10.360   8.309   5.721 -1.2616  0.2255  1.5204
  654MOL0     H88289  10.494   8.413   5.660 -1.0230 -0.8525 -0.4860
  654MOL0     H88290  10.401   8.460   5.801 -2.1965  0.5922  0.0569
  655MOL0     O88291   9.069   4.893   0.918 -0.2190  0.4300  0.5609
  655MOL0     C88292   9.042   4.965   0.823 -0.2361  0.4597  0.7181
  655MOL0     O88293   8.948   4.932   0.721 -0.0153  0.5855  0.6667
  655MOL0     C88294   8.842   4.852   0.747  0.1190 -0.1254 -0.7736
  655MOL0     C88295   8.800   4.748   0.665  0.4249  0.2717 -0.3695
  655MOL0     C88296   8.676   4.674   0.677  0.3022 -0.4840 -0.2325
  655MOL0     C88297   8.595   4.727   0.770  0.2134  0.6695  0.4680
  655MOL0     O88298   8.466   4.672   0.764  0.0701  0.0441 -1.2118
  655MOL0     C88299   8.382   4.666   0.883 -0.5149 -0.5670  0.3875
  655MOL0     C88300   8.435   4.586   1.004 -0.3393  0.0009  0.8021
  655MOL0     C88301   8.375   4.643   1.135 -0.3411 -0.0199  0.5005
  655MOL0     C88302   8.410   4.552   1.252 -0.3092 -0.4728 -0.7737
  655MOL0     C88303   8.312   4.574   1.371 -0.2427  0.2435 -0.2003
  655MOL0     C88304   8.336   4.707   1.443  0.7908 -0.7908 -0.1552
  655MOL0     C88305   8.219   4.728   1.537 -0.4810  0.2529 -0.0048
  655MOL0     C88306   8.204   4.874   1.579  0.0206 -0.4205  0.1250
  655MOL0     N88307   8.327   4.951   1.611 -0.8423 -0.8142 -0.5305
  655MOL0     C88308   8.363   4.985   1.741 -0.6191 -0.7112  0.2506
  655MOL0     C88309   8.459   5.078   1.729  0.1589  0.9815 -0.2947
  655MOL0     C88310   8.540   5.125   1.846 -0.3967 -1.8799  1.1714
  655MOL0     C88311   8.545   5.277   1.836 -0.6182  0.7679 -0.4718
  655MOL0     C88312   8.633   5.338   1.949  0.4531 -0.7373  0.4898
  655MOL0     C88313   8.783   5.360   1.908 -0.2710  1.0718  0.4233
  655MOL0     O88314   8.842   5.233   1.862 -0.1568 -0.4163 -0.1870
  655MOL0     C88315   8.907   5.148   1.950  0.8026 -0.3763  0.1075
  655MOL0     C88316   8.884   5.148   2.094  0.3619  0.3149  0.1535
  655MOL0     C88317   8.948   5.044   2.161  0.0635  0.4815 -0.9938
  655MOL0     C88318   9.036   4.947   2.100 -0.4990 -0.3185  0.4892
  655MOL0     C88319   9.096   4.839   2.177  0.2357 -0.1947 -0.5661
  655MOL0     O88320   9.040   4.818   2.308  0.7311  0.2884  0.0965
  655MOL0     C88321   9.089   4.719   2.396 -0.0447 -0.8109  0.4733
  655MOL0     C88322   9.221   4.675   2.417 -0.1877  0.3077  0.0803
  655MOL0     C88323   9.250   4.582   2.519 -0.8744  0.1952  0.4165
  655MOL0     C88324   9.155   4.547   2.611 -0.9579  0.1467  0.7426
  655MOL0     O88325   9.187   4.478   2.728 -0.2896 -0.0882 -1.1720
  655MOL0     C88326   9.282   4.369   2.725  0.0841 -0.5169 -0.1588
  655MOL0     C88327   9.298   4.315   2.859  0.1175  0.8894 -0.3197
  655MOL0     C88328   9.164   4.280   2.924 -0.3745 -0.6897  0.6258
  655MOL0     C88329   9.167   4.174   3.034 -0.3724 -0.0421 -1.1008
  655MOL0     C88330   9.033   4.163   3.124 -0.1740  0.6466  0.5550
  655MOL0     C88331   8.912   4.231   3.058  0.0386 -0.2052  0.2815
  655MOL0     C88332   8.768   4.195   3.107  0.2406 -0.5970  0.7819
  655MOL0     C88333   8.662   4.262   3.008 -0.2252  0.1797 -0.1623
  655MOL0    Cl88334   8.507   4.250   3.092 -0.1842 -0.2374 -0.3470
  655MOL0     C88335   9.025   4.599   2.597 -0.2596  0.1477 -0.1042
  655MOL0     C88336   8.993   4.684   2.488  0.2221 -0.9470 -0.6115
  655MOL0     O88337   9.185   4.774   2.126 -0.4743 -0.3402  0.3840
  655MOL0     C88338   9.052   4.957   1.957  0.8628 -0.2094 -0.5331
  655MOL0     C88339   8.986   5.052   1.881  0.8594 -0.1390 -0.0076
  655MOL0     N88340   8.475   5.099   1.596 -0.3321  0.5377 -0.0257
  655MOL0     N88341   8.392   5.029   1.521 -1.5506  0.6817 -0.7324
  655MOL0     C88342   8.634   4.821   0.865 -0.4627 -0.2529 -0.4931
  655MOL0     C88343   8.761   4.874   0.860 -0.4216  0.6728  0.2938
  655MOL0     C88344   9.126   5.083   0.814 -0.1403  0.7201  0.7547
  655MOL0     C88345   9.123   5.146   0.685  0.6616  0.0022 -1.0548
  655MOL0     C88346   9.210   5.247   0.650 -0.4654 -0.1165 -0.0574
  655MOL0     C88347   9.302   5.303   0.750  0.1431  1.1795  0.8950
  655MOL0     O88348   9.393   5.394   0.705  0.1819 -0.1795 -0.5186
  655MOL0     C88349   9.438   5.490   0.803  0.1681 -0.0861  0.5859
  655MOL0     C88350   9.325   5.574   0.858  0.7773  0.7049 -0.4865
  655MOL0     C88351   9.381   5.693   0.944 -0.5377  0.1471 -0.5325
  655MOL0     C88352   9.498   5.780   0.905 -0.4905  0.2302  0.3013
  655MOL0     C88353   9.477   5.863   0.786  0.7407  0.2191  1.1991
  655MOL0     C88354   9.444   5.913   0.684 -0.4675  0.0931  0.1721
  655MOL0     C88355   9.297   5.249   0.882 -0.0618 -0.1160 -0.4311
  655MOL0     C88356   9.208   5.143   0.908 -0.1020 -0.7201 -0.4942
  655MOL0     C88357   9.198   5.112   1.054 -1.1339  0.0737  0.1886
  655MOL0     H88358   8.860   4.718   0.580 -0.2479  2.7689 -1.8184
  655MOL0     H88359   8.656   4.584   0.619 -0.2471  0.5585 -1.7333
  655MOL0     H88360   8.376   4.768   0.924  4.0001  0.7635 -1.6521
  655MOL0     H88361   8.289   4.619   0.851 -0.5188  0.4703 -1.2532
  655MOL0     H88362   8.543   4.598   1.016  0.0183 -0.2482 -1.7921
  655MOL0     H88363   8.412   4.481   0.988 -3.9571  0.9813 -1.8555
  655MOL0     H88364   8.266   4.640   1.124 -0.1570  0.2767 -1.9457
  655MOL0     H88365   8.403   4.748   1.146 -1.1137  0.5345 -2.0946
  655MOL0     H88366   8.395   4.449   1.220 -0.5342 -0.6070 -0.2401
  655MOL0     H88367   8.510   4.562   1.293 -0.8631  1.2048  0.2709
  655MOL0     H88368   8.208   4.567   1.337 -0.5312 -0.7152  0.8004
  655MOL0     H88369   8.318   4.493   1.444  0.0563  0.1910 -0.2824
  655MOL0     H88370   8.427   4.717   1.503 -1.9954  2.5022  4.1092
  655MOL0     H88371   8.337   4.791   1.372  0.2118 -0.4407  0.2485
  655MOL0     H88372   8.229   4.658   1.621  0.0069  0.9546  0.5357
  655MOL0     H88373   8.123   4.708   1.489  0.5540  1.2615 -2.7209
  655MOL0     H88374   8.184   4.917   1.481  4.1995 -2.3424 -1.8303
  655MOL0     H88375   8.129   4.885   1.658  1.0089 -1.2039  1.2125
  655MOL0     H88376   8.328   4.942   1.834 -3.6905  0.1153 -0.4293
  655MOL0     H88377   8.496   5.085   1.937  1.3231  0.2169  3.0283
  655MOL0     H88378   8.635   5.077   1.820  0.7300  0.3437  0.8762
  655MOL0     H88379   8.586   5.304   1.737  4.2392 -1.2915  0.6621
  655MOL0     H88380   8.447   5.322   1.847  0.1019  2.6849 -1.3961
  655MOL0     H88381   8.629   5.278   2.040  1.5145 -0.6735  0.5871
  655MOL0     H88382   8.596   5.439   1.972  3.4709  0.3834  0.8355
  655MOL0     H88383   8.842   5.402   1.991 -0.6049  3.5209 -0.4959
  655MOL0     H88384   8.791   5.434   1.828 -2.1820 -1.0698 -1.8942
  655MOL0     H88385   8.838   5.229   2.150  0.1494  1.6134 -1.8058
  655MOL0     H88386   8.936   5.031   2.268 -0.8114  0.4828 -1.0809
  655MOL0     H88387   9.302   4.706   2.352  2.0105 -2.2691  1.3822
  655MOL0     H88388   9.347   4.534   2.525 -0.6680  0.0927 -2.4996
  655MOL0     H88389   9.253   4.301   2.645  1.9289  0.2768 -1.5796
  655MOL0     H88390   9.378   4.405   2.688 -1.8928  1.4885 -3.8453
  655MOL0     H88391   9.358   4.225   2.843  4.1546  3.4772 -1.3072
  655MOL0     H88392   9.344   4.381   2.933 -4.0665  2.7968  0.8361
  655MOL0     H88393   9.135   4.370   2.979 -1.3154  1.4609 -3.0209
  655MOL0     H88394   9.095   4.262   2.841  0.0029  1.6095 -0.2664
  655MOL0     H88395   9.249   4.190   3.104 -1.4545 -2.4919  0.8736
  655MOL0     H88396   9.169   4.079   2.980 -3.5789 -1.2029  0.5937
  655MOL0     H88397   9.053   4.194   3.227  2.1548 -0.7373  0.5885
  655MOL0     H88398   9.008   4.057   3.137  0.6810  0.4791  0.8511
  655MOL0     H88399   8.936   4.336   3.076  0.4973 -0.4275  1.0205
  655MOL0     H88400   8.909   4.202   2.952 -0.0001 -0.5203  0.3688
  655MOL0     H88401   8.751   4.236   3.207 -0.6862 -0.6113  0.6386
  655MOL0     H88402   8.750   4.087   3.114 -0.6879 -0.4644  0.5464
  655MOL0     H88403   8.685   4.366   2.985 -0.4576 -0.3062 -2.8439
  655MOL0     H88404   8.659   4.200   2.918  0.6004 -2.4059  1.4736
  655MOL0     H88405   8.954   4.568   2.673  1.6039 -3.0577  0.5611
  655MOL0     H88406   8.892   4.724   2.494  0.4429 -0.3886 -0.5679
  655MOL0     H88407   9.113   4.886   1.901  2.3945  2.1108 -1.9977
  655MOL0     H88408   8.993   5.059   1.773 -2.8893 -0.1804 -0.3844
  655MOL0     H88409   8.570   4.855   0.946  2.5352  2.2268  1.0628
  655MOL0     H88410   8.783   4.946   0.938  1.4171 -1.4244  1.8224
  655MOL0     H88411   9.061   5.122   0.599 -1.8504 -2.7596  1.2868
  655MOL0     H88412   9.214   5.302   0.556 -0.0009  1.8322  1.0535
  655MOL0     H88413   9.494   5.559   0.739  0.0051 -1.2825 -0.9001
  655MOL0     H88414   9.500   5.450   0.883 -0.7341 -1.1125  0.7954
  655MOL0     H88415   9.250   5.518   0.914 -1.2926  2.3816 -1.3866
  655MOL0     H88416   9.280   5.623   0.770 -2.4881 -1.6046 -0.3062
  655MOL0     H88417   9.420   5.641   1.031  1.2285 -2.4752 -2.7082
  655MOL0     H88418   9.293   5.754   0.969  0.4679  1.1806  0.6091
  655MOL0     H88419   9.525   5.853   0.982  3.6915  0.0985 -0.8314
  655MOL0     H88420   9.586   5.715   0.910  0.6650  1.6593 -0.8117
  655MOL0     H88421   9.412   5.948   0.588  2.8759 -0.3057 -1.2198
  655MOL0     H88422   9.355   5.295   0.961  1.0049  0.5788 -1.5943
  655MOL0     H88423   9.192   5.194   1.126  0.0501 -1.6239  2.3652
  655MOL0     H88424   9.106   5.058   1.075 -1.0431  0.0469  0.5206
  655MOL0     H88425   9.280   5.046   1.085 -0.2797 -0.1192 -2.2574
  656MOL0     O88426   6.616   2.307   0.503  0.1496  0.4834 -0.4924
  656MOL0     C88427   6.666   2.304   0.615  0.0046  0.2286  0.0550
  656MOL0     O88428   6.761   2.397   0.651  0.6314 -0.3624 -0.1807
  656MOL0     C88429   6.824   2.481   0.562 -0.0247  0.6069  0.7159
  656MOL0     C88430   6.950   2.449   0.518 -0.0902 -0.7638  0.5129
  656MOL0     C88431   7.009   2.524   0.420  0.0543 -0.7503  0.2274
  656MOL0     C88432   6.942   2.636   0.367 -0.8834 -0.4203 -0.9832
  656MOL0     O88433   7.003   2.717   0.276 -0.3885 -0.6805  0.3249
  656MOL0     C88434   6.968   2.673   0.138  0.7409  0.6056  0.0613
  656MOL0     C88435   7.072   2.709   0.034 -0.1354 -1.1918  0.5782
  656MOL0     C88436   7.211   2.667   0.068 -0.1899  1.5937  0.7843
  656MOL0     C88437   7.303   2.694  -0.052 -0.6947 -0.8700 -0.0588
  656MOL0     C88438   7.318   2.847  -0.072 -0.0956 -0.3970 -0.4525
  656MOL0     C88439   7.438   2.880  -0.162  0.4863  0.1116 -1.1916
  656MOL0     C88440   7.425   3.034  -0.191 -0.3109 -0.5641 -0.5554
  656MOL0     C88441   7.554   3.117  -0.219  0.4252  0.5948 -0.5132
  656MOL0     N88442   7.540   3.262  -0.212 -0.2605  0.3993 -0.2767
  656MOL0     C88443   7.541   3.339  -0.102 -0.3841 -0.1883  0.5737
  656MOL0     C88444   7.525   3.472  -0.153 -0.2199  0.2008  0.5970
  656MOL0     C88445   7.527   3.603  -0.077  0.3452  0.5346 -0.9481
  656MOL0     C88446   7.384   3.643  -0.048  0.2191 -0.0941 -0.1448
  656MOL0     C88447   7.388   3.776   0.035 -0.1092  0.3698 -0.4497
  656MOL0     C88448   7.237   3.836   0.039  0.7427  0.3467 -0.3432
  656MOL0     O88449   7.210   3.949   0.117  0.5811 -0.5269  0.0603
  656MOL0     C88450   7.197   3.932   0.254  0.6603 -0.4471  1.0579
  656MOL0     C88451   7.184   4.051   0.316  0.2045  0.1833 -0.4695
  656MOL0     C88452   7.149   4.048   0.459  0.0747 -1.1935  0.1234
  656MOL0     C88453   7.163   3.929   0.538  0.6446 -0.7437 -0.5019
  656MOL0     C88454   7.162   3.923   0.685  0.1509  0.7081  0.3595
  656MOL0     O88455   7.091   4.022   0.752 -1.0151  0.2426  0.7539
  656MOL0     C88456   7.093   4.056   0.888 -0.0234  0.3095 -0.6542
  656MOL0     C88457   7.005   4.164   0.934 -0.4419  0.7144 -0.1985
  656MOL0     C88458   7.011   4.224   1.060 -0.1421 -0.1309  0.4734
  656MOL0     C88459   7.095   4.162   1.153 -0.1652  0.2066 -0.3624
  656MOL0     O88460   7.099   4.225   1.272 -0.0695  0.5719  0.2379
  656MOL0     C88461   7.165   4.167   1.390  0.7914  0.1917 -0.0276
  656MOL0     C88462   7.113   4.249   1.506  0.3318  0.0365 -0.4017
  656MOL0     C88463   7.167   4.208   1.642  0.1050  0.8729  0.0741
  656MOL0     C88464   7.102   4.280   1.760 -0.9125  0.1571 -0.9323
  656MOL0     C88465   7.129   4.206   1.893 -0.1934  0.3430  1.2990
  656MOL0     C88466   7.078   4.285   2.002 -1.0637 -0.4452 -0.0963
  656MOL0     C88467   7.144   4.240   2.127 -0.6737  0.7100  0.3036
  656MOL0     C88468   7.109   4.321   2.246  0.2073  0.7515 -0.4144
  656MOL0    Cl88469   7.208   4.239   2.372  0.2955 -0.0705  0.1149
  656MOL0     C88470   7.165   4.048   1.120 -0.1041 -0.2721 -1.4307
  656MOL0     C88471   7.163   4.001   0.988 -0.7693  0.3215 -0.8985
  656MOL0     O88472   7.234   3.841   0.739  0.2296 -0.0136 -0.5999
  656MOL0     C88473   7.185   3.814   0.463 -1.4613 -0.2104 -0.1676
  656MOL0     C88474   7.214   3.813   0.323  1.0958 -0.1517  0.8684
  656MOL0     N88475   7.509   3.461  -0.297 -0.4095 -0.0903 -0.5290
  656MOL0     N88476   7.513   3.332  -0.329  0.6639 -0.1143  0.2041
  656MOL0     C88477   6.807   2.662   0.403  0.1712 -0.5746  0.4918
  656MOL0     C88478   6.748   2.578   0.505  1.1599  0.1198 -0.0695
  656MOL0     C88479   6.612   2.219   0.720  0.8180  0.3439  0.1608
  656MOL0     C88480   6.514   2.130   0.676  0.7617  0.2514 -0.0227
  656MOL0     C88481   6.446   2.053   0.762 -0.4456 -0.0288  0.4543
  656MOL0     C88482   6.448   2.063   0.901  0.6098 -0.1021 -0.1461
  656MOL0     O88483   6.350   1.992   0.973 -0.8335  0.7534 -0.0393
  656MOL0     C88484   6.329   2.026   1.108 -0.6158 -0.1441  0.3631
  656MOL0     C88485   6.208   1.950   1.157  0.3060  0.3137  0.3357
  656MOL0     C88486   6.077   2.016   1.102  0.4055 -0.2583  0.5303
  656MOL0     C88487   5.938   1.940   1.132 -0.0702 -0.4754  0.6201
  656MOL0     C88488   5.942   1.845   1.241 -0.6917 -0.7927 -0.1818
  656MOL0     C88489   5.952   1.748   1.311  0.0371  0.3180 -0.1551
  656MOL0     C88490   6.548   2.151   0.951 -0.6169  0.5103  0.3191
  656MOL0     C88491   6.619   2.234   0.863 -0.2584  0.9813 -0.4829
  656MOL0     C88492   6.695   2.351   0.916  0.1560  0.4832 -0.2313
  656MOL0     H88493   7.021   2.378   0.559  1.4834 -0.0654 -0.8774
  656MOL0     H88494   7.112   2.508   0.389 -0.3419 -3.0285 -0.0370
  656MOL0     H88495   6.958   2.565   0.141 -0.8568  0.7339  0.0929
  656MOL0     H88496   6.873   2.713   0.103 -0.8008 -3.0342 -0.2631
  656MOL0     H88497   7.069   2.819   0.030  0.6963 -1.1568  0.7084
  656MOL0     H88498   7.052   2.664  -0.063  0.9988  0.3650 -0.4338
  656MOL0     H88499   7.224   2.558   0.077 -0.4674  1.0976 -3.0649
  656MOL0     H88500   7.242   2.721   0.158  1.9619  1.0578  0.4153
  656MOL0     H88501   7.407   2.671  -0.027  1.1292  4.2820 -1.7625
  656MOL0     H88502   7.273   2.650  -0.148  1.9366 -3.9823  0.3691
  656MOL0     H88503   7.224   2.884  -0.113 -0.5296 -0.0073  0.8563
  656MOL0     H88504   7.324   2.890   0.028  1.7248 -1.6584  0.0316
  656MOL0     H88505   7.532   2.858  -0.109  0.9694  2.3403 -1.0303
  656MOL0     H88506   7.440   2.818  -0.252 -1.8248  0.6692 -1.6796
  656MOL0     H88507   7.391   3.072  -0.095  0.4009 -2.9888  0.7502
  656MOL0     H88508   7.346   3.053  -0.264 -3.7227  1.1765  3.2173
  656MOL0     H88509   7.635   3.082  -0.155 -0.9877 -1.4791  0.2624
  656MOL0     H88510   7.577   3.077  -0.319 -0.6751 -3.0681  0.5379
  656MOL0     H88511   7.533   3.304   0.000  0.2206  2.3255  1.5411
  656MOL0     H88512   7.581   3.589   0.017 -0.7718 -0.2681 -0.4063
  656MOL0     H88513   7.579   3.673  -0.144  0.1463  2.0212  0.4117
  656MOL0     H88514   7.329   3.648  -0.143 -0.0925 -2.7267 -0.1623
  656MOL0     H88515   7.323   3.577   0.014 -1.5998 -0.2066 -1.9461
  656MOL0     H88516   7.457   3.843  -0.016 -0.3648  1.0366  0.0628
  656MOL0     H88517   7.423   3.765   0.138 -0.8936 -1.6245 -0.3380
  656MOL0     H88518   7.174   3.752   0.070  2.9914 -1.2375  0.2025
  656MOL0     H88519   7.218   3.868  -0.064 -1.4309 -0.5991 -0.2977
  656MOL0     H88520   7.198   4.150   0.272  0.4338  0.8791  1.1033
  656MOL0     H88521   7.128   4.137   0.518  0.0766 -1.6601  0.8397
  656MOL0     H88522   6.935   4.210   0.864  0.4478  2.4799  0.0115
  656MOL0     H88523   6.949   4.310   1.084  0.0742  0.2958 -0.4505
  656MOL0     H88524   7.130   4.064   1.405  0.4314  0.7843  4.8159
  656MOL0     H88525   7.273   4.169   1.380  1.0721 -2.1753  1.4742
  656MOL0     H88526   7.144   4.351   1.481 -0.7442  1.0542  2.1009
  656MOL0     H88527   7.004   4.250   1.513  0.3221  0.3865 -0.5682
  656MOL0     H88528   7.144   4.102   1.651 -0.2027  1.1337  3.2196
  656MOL0     H88529   7.277   4.212   1.643  0.1557 -0.0394 -0.4296
  656MOL0     H88530   6.995   4.288   1.740 -1.7823 -3.8695  1.0072
  656MOL0     H88531   7.148   4.379   1.760 -0.7478  0.2634  3.2797
  656MOL0     H88532   7.236   4.187   1.908  0.5690 -1.1618 -4.0784
  656MOL0     H88533   7.072   4.113   1.883 -1.6154  1.3814 -1.2319
  656MOL0     H88534   7.108   4.387   1.975  4.4908 -1.9296 -0.6601
  656MOL0     H88535   6.971   4.275   2.024 -0.7654 -2.7600  0.6340
  656MOL0     H88536   7.252   4.239   2.112 -1.0056  0.0466 -2.9130
  656MOL0     H88537   7.111   4.140   2.156 -1.0810  0.8798  0.4321
  656MOL0     H88538   7.127   4.429   2.250  3.6216  0.3386  4.0450
  656MOL0     H88539   7.003   4.309   2.271  0.4749  0.9296  0.9153
  656MOL0     H88540   7.219   4.001   1.201 -0.8637  0.2779 -0.5960
  656MOL0     H88541   7.218   3.908   0.978 -0.9538 -0.3657  2.8611
  656MOL0     H88542   7.186   3.722   0.519 -2.3148  1.2192  2.3720
  656MOL0     H88543   7.222   3.719   0.270  1.3276  0.2221  0.2288
  656MOL0     H88544   6.747   2.735   0.350 -2.0221 -0.5419  2.8050
  656MOL0     H88545   6.640   2.578   0.519  1.1659  1.0082  0.0222
  656MOL0     H88546   6.498   2.126   0.569  2.9105 -0.0209 -0.3761
  656MOL0     H88547   6.397   1.967   0.719  2.8753 -1.0454 -1.6617
  656MOL0     H88548   6.316   2.134   1.120 -1.2940 -0.1783  0.0085
  656MOL0     H88549   6.415   1.989   1.164 -1.5615  0.0613  1.9974
  656MOL0     H88550   6.212   1.967   1.265 -1.7755 -1.0666  0.6845
  656MOL0     H88551   6.210   1.844   1.133  0.6319  0.2278  0.7197
  656MOL0     H88552   6.093   2.023   0.994  1.6874  0.2051  0.7344
  656MOL0     H88553   6.082   2.112   1.153  2.7344 -0.7994  1.4754
  656MOL0     H88554   5.855   2.011   1.137 -1.1219 -1.5459 -0.9132
  656MOL0     H88555   5.903   1.888   1.042  2.0367 -2.5498  0.9021
  656MOL0     H88556   5.974   1.658   1.365  0.2999  0.6663  0.3343
  656MOL0     H88557   6.565   2.153   1.058  0.7311 -0.9147  0.1607
  656MOL0     H88558   6.802   2.344   0.891  0.0266  1.2587 -1.0824
  656MOL0     H88559   6.674   2.448   0.869 -1.4181 -0.9855 -2.7885
  656MOL0     H88560   6.686   2.368   1.023  2.9284 -0.7217  0.2922
  657MOL0     O88561   0.238   9.482   3.862  0.1826 -1.0881  0.5446
  657MOL0     C88562   0.204   9.535   3.964  0.0662  1.0435 -0.9631
  657MOL0     O88563   0.287   9.548   4.072  0.3059  0.4466 -0.3654
  657MOL0     C88564   0.400   9.481   4.101 -0.5818  1.0887 -0.0579
  657MOL0     C88565   0.473   9.515   4.213  0.3842  0.0320 -0.1227
  657MOL0     C88566   0.588   9.438   4.261  0.7551  0.0031  0.1340
  657MOL0     C88567   0.634   9.330   4.179  0.5582 -1.3923  0.8891
  657MOL0     O88568   0.744   9.253   4.191 -0.5067  0.1870 -0.1928
  657MOL0     C88569   0.834   9.274   4.302  0.7408  0.1093 -0.6335
  657MOL0     C88570   0.804   9.190   4.427 -0.3673  0.3613  0.5255
  657MOL0     C88571   0.824   9.033   4.409  0.1981  0.2073 -0.0790
  657MOL0     C88572   0.797   8.951   4.539  0.1742 -0.2799 -0.1116
  657MOL0     C88573   0.869   8.825   4.530  0.1347  0.0593  0.0224
  657MOL0     C88574   0.819   8.715   4.631 -0.9929 -0.2825  0.5188
  657MOL0     C88575   0.684   8.657   4.590 -0.1592 -0.6233  1.1296
  657MOL0     C88576   0.670   8.506   4.639 -0.3571 -0.7403  0.2827
  657MOL0     N88577   0.544   8.455   4.591 -0.0787  0.5626 -1.4434
  657MOL0     C88578   0.521   8.369   4.489 -0.7026 -0.6638  0.2734
  657MOL0     C88579   0.390   8.326   4.489 -0.2507  0.5797 -0.9917
  657MOL0     C88580   0.333   8.237   4.375  0.3419  0.0179  0.4453
  657MOL0     C88581   0.373   8.085   4.375  0.7464  0.3782  0.1565
  657MOL0     C88582   0.454   8.053   4.245 -0.1302  0.3357 -0.1910
  657MOL0     C88583   0.492   7.902   4.243 -0.6752 -0.5754  0.7978
  657MOL0     O88584   0.570   7.868   4.123 -0.1678  0.0247  0.2771
  657MOL0     C88585   0.701   7.904   4.114  0.7086  0.3857 -0.6649
  657MOL0     C88586   0.750   7.907   3.980 -0.2525 -0.1961  0.2578
  657MOL0     C88587   0.884   7.954   3.964  0.9947 -0.3619  0.0237
  657MOL0     C88588   0.966   7.984   4.074 -0.0806 -0.2680 -0.7710
  657MOL0     C88589   1.107   8.022   4.051 -0.7082 -0.7661 -0.6442
  657MOL0     O88590   1.142   8.147   4.089 -0.5786 -0.3361 -0.8924
  657MOL0     C88591   1.265   8.197   4.046  0.0647  0.5328  0.1307
  657MOL0     C88592   1.394   8.130   4.075  0.1556 -0.3888  0.7831
  657MOL0     C88593   1.516   8.190   4.036  0.4952  0.6201 -0.7855
  657MOL0     C88594   1.520   8.303   3.952  0.6728 -0.1957 -0.2412
  657MOL0     O88595   1.651   8.340   3.914  0.0289 -0.6269  0.0582
  657MOL0     C88596   1.642   8.428   3.804  0.6098 -0.3204  0.0616
  657MOL0     C88597   1.785   8.446   3.757 -0.5541 -0.7466  0.1684
  657MOL0     C88598   1.793   8.555   3.653  0.5235  0.4859 -0.0996
  657MOL0     C88599   1.687   8.552   3.540  0.0278  1.0196  0.2091
  657MOL0     C88600   1.730   8.636   3.419 -0.6270  0.2843  1.5967
  657MOL0     C88601   1.621   8.609   3.304 -0.0354 -0.2184 -0.1063
  657MOL0     C88602   1.639   8.459   3.246  0.2122  0.0519 -0.5052
  657MOL0     C88603   1.621   8.451   3.097 -0.6150 -0.4642 -1.3200
  657MOL0    Cl88604   1.747   8.550   3.010 -0.1567  0.2724  0.2861
  657MOL0     C88605   1.396   8.367   3.934  0.2530  0.3358 -0.0674
  657MOL0     C88606   1.272   8.319   3.977  0.2079  0.4490  0.8242
  657MOL0     O88607   1.175   7.942   3.989 -0.1234 -0.9686  0.2661
  657MOL0     C88608   0.913   7.981   4.205  0.5160 -0.1556 -0.2037
  657MOL0     C88609   0.776   7.944   4.223  0.2126  0.7492 -0.8355
  657MOL0     N88610   0.334   8.393   4.596  0.9927 -0.1647  0.3659
  657MOL0     N88611   0.425   8.471   4.647  0.5389  0.0196  0.1197
  657MOL0     C88612   0.557   9.292   4.070 -0.2251  0.6471 -0.7277
  657MOL0     C88613   0.447   9.371   4.029  0.6780 -0.5776  0.7562
  657MOL0     C88614   0.075   9.609   3.970 -0.7625 -0.9903 -0.5606
  657MOL0     C88615   0.063   9.717   4.065  0.2034 -0.0802  0.0024
  657MOL0     C88616  -0.058   9.782   4.088  0.7102 -0.8381 -0.4476
  657MOL0     C88617  -0.175   9.745   4.019 -0.3298 -0.4880  0.3779
  657MOL0     O88618  -0.303   9.780   4.042  0.8076 -1.3774 -0.5876
  657MOL0     C88619  -0.329   9.843   4.174  0.5100 -1.2895 -0.9725
  657MOL0     C88620  -0.482   9.882   4.208  0.1388  0.0051 -0.1227
  657MOL0     C88621  -0.538   9.741   4.224  0.2185 -0.9828 -0.5698
  657MOL0     C88622  -0.697   9.738   4.233  0.1395 -0.5402  0.2424
  657MOL0     C88623  -0.738   9.804   4.354  0.9107  0.3268 -0.8313
  657MOL0     C88624  -0.790   9.870   4.444 -0.2531 -0.0123  0.0900
  657MOL0     C88625  -0.159   9.653   3.920  0.3590 -0.7198 -0.0775
  657MOL0     C88626  -0.043   9.589   3.889 -0.6820  0.2352  0.3007
  657MOL0     C88627  -0.040   9.498   3.770 -0.5923  0.1403  0.3703
  657MOL0     H88628   0.431   9.595   4.273  1.9973 -0.9101  2.4698
  657MOL0     H88629   0.654   9.481   4.336  0.3030 -1.1246  1.2182
  657MOL0     H88630   0.934   9.247   4.268  1.0198  1.6964 -1.1389
  657MOL0     H88631   0.846   9.380   4.323 -0.2843 -0.3026  2.6595
  657MOL0     H88632   0.699   9.206   4.450  0.0377  2.1959  1.2932
  657MOL0     H88633   0.854   9.234   4.514 -3.7182  0.7769  2.4118
  657MOL0     H88634   0.931   9.021   4.387 -0.4552 -0.9243 -3.2448
  657MOL0     H88635   0.750   9.003   4.335 -1.8697  1.4669  1.3926
  657MOL0     H88636   0.829   9.007   4.628 -2.2382 -0.8428  1.2106
  657MOL0     H88637   0.694   8.916   4.548  0.5045 -0.9990  1.0911
  657MOL0     H88638   0.867   8.801   4.423  1.0016  4.6940 -1.2622
  657MOL0     H88639   0.974   8.848   4.553 -0.4197  0.4854  2.3783
  657MOL0     H88640   0.893   8.635   4.637 -1.1056 -0.4275  0.0632
  657MOL0     H88641   0.814   8.752   4.733 -3.5751 -3.3804  1.6786
  657MOL0     H88642   0.674   8.661   4.481 -0.1497 -0.8266  1.1199
  657MOL0     H88643   0.609   8.727   4.625  1.3589  1.5850  0.1939
  657MOL0     H88644   0.752   8.444   4.599  0.3877  0.9683 -0.9414
  657MOL0     H88645   0.682   8.518   4.747  3.4074  2.5259 -0.2714
  657MOL0     H88646   0.595   8.350   4.412 -0.3130  3.2842 -0.5529
  657MOL0     H88647   0.226   8.250   4.355  0.0859 -1.5790  0.6121
  657MOL0     H88648   0.378   8.273   4.282  0.0618 -1.8920 -0.4713
  657MOL0     H88649   0.424   8.058   4.468 -3.0426 -0.2166  2.2507
  657MOL0     H88650   0.284   8.023   4.362  1.3510 -0.3345 -0.6967
  657MOL0     H88651   0.543   8.115   4.253 -0.2100  0.8625 -2.5712
  657MOL0     H88652   0.399   8.075   4.153  0.3968 -1.6896 -1.0453
  657MOL0     H88653   0.404   7.837   4.240  0.9309 -2.8083 -0.4432
  657MOL0     H88654   0.541   7.879   4.338 -0.0655 -2.0519  0.1576
  657MOL0     H88655   0.700   7.865   3.893  1.5814 -1.8558 -0.0730
  657MOL0     H88656   0.920   7.961   3.861  1.1091 -1.2164  0.0020
  657MOL0     H88657   1.408   8.034   4.125  1.3547 -2.8680 -3.7405
  657MOL0     H88658   1.606   8.135   4.064 -1.2077 -0.6763  2.7911
  657MOL0     H88659   1.594   8.372   3.723 -3.1740  1.5570  0.8096
  657MOL0     H88660   1.586   8.522   3.813  0.9625 -0.0364 -0.6404
  657MOL0     H88661   1.844   8.485   3.839  1.5049 -1.2657 -1.0017
  657MOL0     H88662   1.827   8.350   3.726 -1.0600 -1.5734  1.9255
  657MOL0     H88663   1.783   8.647   3.712  1.7268  0.6883 -0.1715
  657MOL0     H88664   1.896   8.545   3.616  1.0435  0.8623  1.1853
  657MOL0     H88665   1.598   8.603   3.580 -0.2318 -0.5456  1.7259
  657MOL0     H88666   1.663   8.448   3.517 -4.9811  1.7497  0.9141
  657MOL0     H88667   1.831   8.618   3.381 -2.1019  0.5126 -3.0610
  657MOL0     H88668   1.730   8.743   3.445  0.2100  0.6920  0.0251
  657MOL0     H88669   1.521   8.637   3.339  1.1927  0.9488  2.8282
  657MOL0     H88670   1.655   8.678   3.226  0.0572  1.1176  1.0598
  657MOL0     H88671   1.573   8.392   3.304  1.1677 -0.0185  0.5449
  657MOL0     H88672   1.741   8.426   3.266 -1.0056 -2.4017  2.6764
  657MOL0     H88673   1.622   8.353   3.050 -4.8985 -1.6307  0.5624
  657MOL0     H88674   1.526   8.485   3.056 -0.5958 -0.0368 -1.0219
  657MOL0     H88675   1.380   8.462   3.883 -1.1647  0.5759  0.7469
  657MOL0     H88676   1.183   8.362   3.933 -0.7254 -1.0389  1.1657
  657MOL0     H88677   0.970   8.023   4.287 -1.1914 -0.8297  1.4067
  657MOL0     H88678   0.729   7.947   4.321 -1.4783 -0.7351 -1.5441
  657MOL0     H88679   0.582   9.207   4.008 -0.1509 -0.5862  0.9389
  657MOL0     H88680   0.390   9.344   3.940  0.8301 -2.5522  1.2051
  657MOL0     H88681   0.155   9.754   4.109  0.6771  1.8753 -2.3981
  657MOL0     H88682  -0.057   9.852   4.171 -1.1506 -1.4096  0.1107
  657MOL0     H88683  -0.276   9.939   4.184  2.8620 -2.5772 -0.3413
  657MOL0     H88684  -0.285   9.786   4.256  1.0585  2.4716  1.5892
  657MOL0     H88685  -0.529   9.934   4.124 -2.3969  1.1181  1.8429
  657MOL0     H88686  -0.496   9.937   4.301  0.1482 -0.2843  0.0525
  657MOL0     H88687  -0.486   9.705   4.313  2.4229  0.3786 -1.2388
  657MOL0     H88688  -0.510   9.684   4.135 -0.3115  0.3859 -1.6615
  657MOL0     H88689  -0.748   9.796   4.155 -1.0749 -0.0729  1.3402
  657MOL0     H88690  -0.729   9.634   4.235 -0.9697 -0.2230  2.8019
  657MOL0     H88691  -0.829   9.941   4.514  2.6911  1.2894  0.5767
  657MOL0     H88692  -0.237   9.635   3.847  2.3108  0.5056 -2.5958
  657MOL0     H88693  -0.124   9.514   3.703 -0.9308  1.7103  1.1176
  657MOL0     H88694   0.045   9.518   3.704 -1.0718  0.9611 -0.0151
  657MOL0     H88695  -0.032   9.394   3.800  2.4145  0.1118 -0.2212
  658MOL0     O88696  10.258   4.992  11.092  0.3647  0.1630  0.3563
  658MOL0     C88697  10.340   5.019  11.174  0.2363 -0.1198 -0.5236
  658MOL0     O88698  10.425   5.121  11.168  0.0915  0.5089 -0.0792
  658MOL0     C88699  10.419   5.219  11.080  0.3563 -0.5261  1.0568
  658MOL0     C88700  10.389   5.351  11.119 -0.5242 -0.2961 -0.0796
  658MOL0     C88701  10.363   5.448  11.022 -0.5249 -0.4669  1.0202
  658MOL0     C88702  10.387   5.420  10.882 -0.4814  0.8691 -0.0932
  658MOL0     O88703  10.372   5.526  10.797 -0.2146 -0.1381  0.1530
  658MOL0     C88704  10.476   5.545  10.703 -0.4948  0.0098  0.7867
  658MOL0     C88705  10.457   5.675  10.607  0.0946 -0.0979 -0.6187
  658MOL0     C88706  10.319   5.655  10.551  0.7316  0.7382 -0.3024
  658MOL0     C88707  10.281   5.722  10.416  0.0322  0.6874  0.7501
  658MOL0     C88708  10.369   5.685  10.296  0.3172  0.3622  0.0297
  658MOL0     C88709  10.304   5.710  10.160 -0.3021 -0.8148  0.1049
  658MOL0     C88710  10.406   5.712  10.037 -1.1902  0.5528 -0.2168
  658MOL0     C88711  10.468   5.567  10.020 -0.0651  0.0906 -0.0006
  658MOL0     N88712  10.563   5.586   9.910 -0.9643  0.8540 -0.4473
  658MOL0     C88713  10.686   5.646   9.916 -0.3713 -0.5643  0.1798
  658MOL0     C88714  10.736   5.634   9.784  0.2397  0.1185 -0.2599
  658MOL0     C88715  10.874   5.673   9.717  1.2091  0.5289  0.5699
  658MOL0     C88716  10.996   5.638   9.807 -0.1708  0.3195  0.5443
  658MOL0     C88717  11.114   5.713   9.759 -0.0190 -1.0686 -0.7202
  658MOL0     C88718  11.113   5.862   9.788  0.1442 -0.6405 -0.2181
  658MOL0     O88719  11.085   5.896   9.931 -0.2668  0.0401  0.4963
  658MOL0     C88720  11.179   5.958  10.004 -0.1412 -0.4599  0.7541
  658MOL0     C88721  11.284   5.892  10.058  0.4906  1.4528  0.3857
  658MOL0     C88722  11.376   5.944  10.156 -0.0931  0.0534 -0.2050
  658MOL0     C88723  11.372   6.090  10.182 -0.9925 -0.1084 -0.2873
  658MOL0     C88724  11.467   6.157  10.270  0.5373 -0.4919 -0.8209
  658MOL0     O88725  11.567   6.068  10.331  0.5972 -0.7108 -0.0489
  658MOL0     C88726  11.613   6.130  10.444  0.2740  0.6274  0.6325
  658MOL0     C88727  11.721   6.219  10.432  0.0771  0.1140 -0.2552
  658MOL0     C88728  11.778   6.280  10.546  0.2661  0.4317 -0.1949
  658MOL0     C88729  11.716   6.251  10.671  0.5937  0.6112  0.3640
  658MOL0     O88730  11.742   6.314  10.786  0.3811 -0.3598 -0.8991
  658MOL0     C88731  11.839   6.417  10.778  0.8912  0.5178  0.2330
  658MOL0     C88732  11.871   6.475  10.914 -0.0201  0.8567  0.2741
  658MOL0     C88733  11.747   6.539  10.987  0.1552  0.2450 -0.5623
  658MOL0     C88734  11.805   6.583  11.123  0.6924 -0.3059  0.0545
  658MOL0     C88735  11.712   6.650  11.211  0.6018 -0.3412 -0.7525
  658MOL0     C88736  11.591   6.574  11.241  0.3882  0.2978 -0.0983
  658MOL0     C88737  11.512   6.633  11.357  0.1393  0.3549 -0.8036
  658MOL0     C88738  11.397   6.556  11.404  0.0695  0.4041  0.3961
  658MOL0    Cl88739  11.267   6.551  11.293  0.1233  0.3347 -0.1072
  658MOL0     C88740  11.609   6.155  10.679 -0.4959  0.3488  0.5276
  658MOL0     C88741  11.558   6.097  10.567 -1.1386  0.2463 -0.1764
  658MOL0     O88742  11.445   6.280  10.304 -1.1692  0.7667 -0.7289
  658MOL0     C88743  11.259   6.155  10.116 -0.3371 -0.3983 -1.2120
  658MOL0     C88744  11.170   6.090  10.038  0.7187 -1.3270 -0.2897
  658MOL0     N88745  10.652   5.546   9.721  0.1584  0.1920 -0.0865
  658MOL0     N88746  10.554   5.509   9.793 -0.5477 -0.0655 -0.3026
  658MOL0     C88747  10.431   5.293  10.847 -0.2939 -0.0153  0.3556
  658MOL0     C88748  10.441   5.197  10.945  0.3530 -0.4202  0.2198
  658MOL0     C88749  10.354   4.913  11.271  0.2773 -0.4853  0.4560
  658MOL0     C88750  10.365   4.781  11.233  0.3934 -0.1118  0.4062
  658MOL0     C88751  10.395   4.693  11.329 -0.5817  0.3639  1.2551
  658MOL0     C88752  10.419   4.722  11.470  1.2710 -0.9685  0.5909
  658MOL0     O88753  10.432   4.616  11.556 -0.6183  0.0496 -0.1421
  658MOL0     C88754  10.391   4.623  11.691 -0.1523 -0.3526 -0.6564
  658MOL0     C88755  10.352   4.493  11.750 -1.1476 -0.1191 -0.0663
  658MOL0     C88756  10.477   4.401  11.736  0.5712  0.4283 -0.1112
  658MOL0     C88757  10.463   4.257  11.799  0.1719  0.0990 -0.5809
  658MOL0     C88758  10.591   4.180  11.770  0.8825 -0.2449 -0.0115
  658MOL0     C88759  10.711   4.134  11.760  0.4939 -0.6591 -0.0970
  658MOL0     C88760  10.416   4.857  11.498 -0.9532 -0.4418 -0.7813
  658MOL0     C88761  10.376   4.948  11.404 -0.5619 -0.4337 -0.1745
  658MOL0     C88762  10.354   5.084  11.460  0.3139 -0.1054 -0.1888
  658MOL0     H88763  10.395   5.369  11.226  2.2138  3.0668 -0.6107
  658MOL0     H88764  10.340   5.550  11.048  0.0298 -1.2297  5.1237
  658MOL0     H88765  10.572   5.565  10.751 -0.0956  2.3601 -0.7893
  658MOL0     H88766  10.497   5.452  10.650  0.9263 -0.2302  1.7314
  658MOL0     H88767  10.537   5.669  10.532  1.3012 -3.0936  0.7317
  658MOL0     H88768  10.455   5.772  10.659 -0.8354  0.1867 -1.1688
  658MOL0     H88769  10.239   5.675  10.623 -1.4263 -2.8429 -1.4509
  658MOL0     H88770  10.317   5.547  10.534  2.1337 -0.2475  4.2820
  658MOL0     H88771  10.184   5.682  10.387  1.1258 -1.7630  0.2430
  658MOL0     H88772  10.275   5.831  10.417 -0.3760  0.6666  1.6440
  658MOL0     H88773  10.467   5.733  10.306  0.9953 -0.5896 -1.5762
  658MOL0     H88774  10.386   5.578  10.307 -0.4300 -0.3381 -3.9409
  658MOL0     H88775  10.217   5.648  10.142 -0.4947 -0.4251 -0.3475
  658MOL0     H88776  10.261   5.811  10.159  3.1932  0.8723  0.5901
  658MOL0     H88777  10.488   5.780  10.064 -1.8792  1.3944 -0.1833
  658MOL0     H88778  10.357   5.748   9.946 -0.7345 -0.3882 -0.8468
  658MOL0     H88779  10.513   5.534  10.115 -0.0418  3.2375  1.2144
  658MOL0     H88780  10.389   5.506   9.976  3.4972 -2.7343 -3.1664
  658MOL0     H88781  10.730   5.699  10.000 -0.3813  1.3160 -0.9334
  658MOL0     H88782  10.889   5.624   9.620 -2.3210  0.8387 -0.2641
  658MOL0     H88783  10.868   5.782   9.715  2.3199  0.5992  0.2940
  658MOL0     H88784  10.972   5.650   9.913  0.0347 -3.7216  1.2323
  658MOL0     H88785  11.013   5.530   9.802  0.1739  0.2515  2.6527
  658MOL0     H88786  11.125   5.686   9.654 -0.6605 -2.2778 -0.5066
  658MOL0     H88787  11.206   5.671   9.799 -1.4680 -2.0771  1.8520
  658MOL0     H88788  11.045   5.925   9.730  2.0421  2.2983  0.5020
  658MOL0     H88789  11.217   5.887   9.763 -0.1716  4.4438  2.2316
  658MOL0     H88790  11.265   5.789  10.030 -0.5995  1.1076  2.2486
  658MOL0     H88791  11.457   5.879  10.188 -1.1744 -2.8626 -2.8290
  658MOL0     H88792  11.764   6.233  10.333  1.5685 -2.1586  0.0245
  658MOL0     H88793  11.856   6.354  10.532 -1.6805  2.9908  1.5294
  658MOL0     H88794  11.932   6.366  10.751  0.4482 -0.9604  1.3322
  658MOL0     H88795  11.819   6.489  10.699  1.8633  1.8154  1.1259
  658MOL0     H88796  11.887   6.385  10.975  1.2118  0.4757 -0.5750
  658MOL0     H88797  11.951   6.550  10.913 -2.4578  3.6507  0.5673
  658MOL0     H88798  11.703   6.620  10.927  0.2720  1.8608  1.4287
  658MOL0     H88799  11.674   6.461  11.008  1.3761 -0.7442  0.1412
  658MOL0     H88800  11.887   6.654  11.109  0.2446  0.3048  0.4610
  658MOL0     H88801  11.842   6.499  11.182 -0.4424 -1.0242 -0.2296
  658MOL0     H88802  11.689   6.749  11.170  2.3719  2.1641  3.5210
  658MOL0     H88803  11.764   6.679  11.303 -2.2448 -0.6754  1.0818
  658MOL0     H88804  11.526   6.555  11.155 -0.0844 -0.0719  0.3333
  658MOL0     H88805  11.625   6.473  11.265 -3.0382 -1.7870 -2.9144
  658MOL0     H88806  11.469   6.725  11.316  0.6948  3.3144  4.4147
  658MOL0     H88807  11.573   6.648  11.446  0.9692  1.9551 -1.5927
  658MOL0     H88808  11.418   6.452  11.429  0.6170  0.4701  0.2046
  658MOL0     H88809  11.358   6.597  11.498  0.8054  3.0182 -0.3329
  658MOL0     H88810  11.570   6.141  10.779  2.2643  2.3750  2.0091
  658MOL0     H88811  11.472   6.032  10.575  0.4448 -2.1817 -1.3608
  658MOL0     H88812  11.241   6.262  10.113  1.2885 -0.1034 -1.4520
  658MOL0     H88813  11.099   6.147   9.979  2.3884  0.2725 -0.8701
  658MOL0     H88814  10.430   5.264  10.742 -1.5862 -2.4030  0.9668
  658MOL0     H88815  10.452   5.100  10.898 -0.1622 -1.6635  2.5053
  658MOL0     H88816  10.351   4.767  11.126 -2.8760  2.0341  0.3947
  658MOL0     H88817  10.397   4.594  11.285  1.7182  1.0821 -0.4483
  658MOL0     H88818  10.294   4.675  11.694 -0.4037 -0.8183 -0.6054
  658MOL0     H88819  10.460   4.683  11.751 -0.3736 -1.3762  0.6468
  658MOL0     H88820  10.276   4.435  11.696 -4.5560  4.0490 -0.3532
  658MOL0     H88821  10.317   4.501  11.853  1.7545  2.1113  0.8706
  658MOL0     H88822  10.559   4.450  11.791  0.4989 -0.8095  1.1754
  658MOL0     H88823  10.500   4.392  11.630 -2.1616 -0.2626 -0.7278
  658MOL0     H88824  10.459   4.275  11.907 -1.0437 -0.7568 -0.4589
  658MOL0     H88825  10.379   4.198  11.760 -1.6118  0.9042  1.7930
  658MOL0     H88826  10.814   4.112  11.781  0.4818 -0.4967  0.1340
  658MOL0     H88827  10.424   4.874  11.605 -0.5377 -0.4987 -0.8017
  658MOL0     H88828  10.446   5.142  11.460  0.7893 -0.8457  0.3074
  658MOL0     H88829  10.290   5.147  11.397 -2.3389 -2.8265 -0.4147
  658MOL0     H88830  10.304   5.086  11.557 -2.0181  1.1787 -1.3176
  659MOL0     O88831   6.802   9.893   8.974 -0.0231 -0.6570  0.2958
  659MOL0     C88832   6.692   9.938   9.017  0.3580 -0.0322  0.7722
  659MOL0     O88833   6.635   9.914   9.141 -1.1689  0.5750 -0.0118
  659MOL0     C88834   6.721   9.842   9.221 -0.9587 -0.1504 -0.4274
  659MOL0     C88835   6.762   9.911   9.333 -0.5211 -0.3700 -1.6840
  659MOL0     C88836   6.855   9.854   9.426  1.3734  0.6815 -0.5598
  659MOL0     C88837   6.912   9.726   9.396 -0.7942 -0.4521 -0.3114
  659MOL0     O88838   7.023   9.699   9.475  0.6618 -0.0556 -0.5159
  659MOL0     C88839   7.105   9.592   9.428  0.6580 -0.1551 -0.3243
  659MOL0     C88840   7.218   9.564   9.526  1.0835  0.1318  0.1954
  659MOL0     C88841   7.295   9.446   9.465  0.1715  0.2695 -0.3225
  659MOL0     C88842   7.384   9.402   9.570 -0.2952 -0.5367  0.6348
  659MOL0     C88843   7.463   9.275   9.524  0.1506 -0.6971 -0.1022
  659MOL0     C88844   7.570   9.227   9.629  0.6826 -1.1671  0.3740
  659MOL0     C88845   7.623   9.091   9.559  0.5573 -0.4458  0.2074
  659MOL0     C88846   7.740   9.039   9.646 -0.2737  0.2954  0.4014
  659MOL0     N88847   7.863   9.122   9.655 -0.0180 -0.0616 -0.5044
  659MOL0     C88848   7.981   9.076   9.593 -0.0093 -0.1585 -0.6362
  659MOL0     C88849   8.076   9.142   9.650 -0.2040 -0.2337 -0.4954
  659MOL0     C88850   8.226   9.150   9.624 -0.6098  0.1471 -0.5884
  659MOL0     C88851   8.244   9.258   9.511 -0.3140 -0.2639  0.4877
  659MOL0     C88852   8.386   9.306   9.526 -0.0524 -1.2788  0.1990
  659MOL0     C88853   8.407   9.411   9.416 -1.3813  0.4617  0.0260
  659MOL0     O88854   8.527   9.376   9.340  0.1286 -1.1848 -0.8643
  659MOL0     C88855   8.651   9.439   9.368  0.0994 -0.3598 -0.0897
  659MOL0     C88856   8.755   9.411   9.291  0.6801  0.5145  0.2944
  659MOL0     C88857   8.874   9.479   9.291 -0.4986 -0.1278  0.1590
  659MOL0     C88858   8.893   9.580   9.397 -0.8570  0.0022  1.0124
  659MOL0     C88859   9.024   9.651   9.419 -0.3268 -0.1112 -0.2875
  659MOL0     O88860   9.040   9.722   9.539 -0.1024 -0.4196 -0.1775
  659MOL0     C88861   9.149   9.790   9.566 -0.3519 -0.5683  0.2080
  659MOL0     C88862   9.233   9.753   9.679 -0.0009 -0.9528  0.1559
  659MOL0     C88863   9.350   9.825   9.708  0.4960  0.2288  0.5221
  659MOL0     C88864   9.378   9.950   9.643  0.3282  0.7580 -0.4752
  659MOL0     O88865   9.481  10.034   9.689 -0.1075 -0.1569 -0.2994
  659MOL0     C88866   9.562  10.099   9.588 -0.5424 -0.1909 -0.1419
  659MOL0     C88867   9.683  10.140   9.654  0.7287 -0.3737 -0.2745
  659MOL0     C88868   9.657  10.268   9.752  0.1219 -0.1611  0.4005
  659MOL0     C88869   9.564  10.244   9.877  0.3453 -0.6845 -0.1696
  659MOL0     C88870   9.589  10.342   9.986 -0.8001 -0.7142  0.4258
  659MOL0     C88871   9.709  10.323  10.072  0.0725  0.1872  0.3945
  659MOL0     C88872   9.720  10.408  10.203 -0.2641 -0.2452  1.2169
  659MOL0     C88873   9.874  10.410  10.252  0.0105 -0.1432  1.1669
  659MOL0    Cl88874   9.916  10.256  10.317  0.2062  0.5394 -0.1008
  659MOL0     C88875   9.291   9.996   9.548  0.8747 -0.8205 -0.1607
  659MOL0     C88876   9.169   9.925   9.516 -0.8070  0.2814 -0.4588
  659MOL0     O88877   9.117   9.638   9.333  1.3242 -0.3069 -0.1860
  659MOL0     C88878   8.786   9.602   9.482 -0.3822 -0.8224 -0.2123
  659MOL0     C88879   8.670   9.536   9.477 -0.3834 -0.0904 -0.2218
  659MOL0     N88880   8.016   9.213   9.759 -0.7746  0.3083  0.3198
  659MOL0     N88881   7.887   9.204   9.751 -0.0116 -0.1635  0.1294
  659MOL0     C88882   6.867   9.659   9.279 -0.0950  0.9799  0.5722
  659MOL0     C88883   6.765   9.713   9.195 -0.5873 -0.9211 -0.7181
  659MOL0     C88884   6.603  10.018   8.921 -0.8557  0.4072 -0.1204
  659MOL0     C88885   6.472  10.014   8.947  0.3491  0.1451 -0.0580
  659MOL0     C88886   6.378  10.101   8.896  0.2770 -0.7155 -0.8342
  659MOL0     C88887   6.422  10.192   8.798  0.1792  0.1555  0.0766
  659MOL0     O88888   6.352  10.272   8.713  0.0310 -0.5892 -0.0962
  659MOL0     C88889   6.204  10.285   8.720 -0.6112 -0.6325 -0.1706
  659MOL0     C88890   6.149  10.372   8.847 -0.0037 -1.0346  0.6350
  659MOL0     C88891   6.235  10.494   8.886 -0.2630 -1.0658 -0.4286
  659MOL0     C88892   6.290  10.587   8.775 -0.7164  0.8760 -0.0198
  659MOL0     C88893   6.367  10.704   8.831 -0.1567 -0.3839 -0.2021
  659MOL0     C88894   6.433  10.802   8.862  0.7077 -0.6063 -0.5186
  659MOL0     C88895   6.557  10.185   8.763 -1.0195  0.5392  0.3669
  659MOL0     C88896   6.652  10.106   8.821  0.4463 -0.0847  0.5884
  659MOL0     C88897   6.795  10.115   8.775 -0.0159 -0.2619 -0.3239
  659MOL0     H88898   6.720  10.010   9.351  5.1009  1.9675  1.0858
  659MOL0     H88899   6.900   9.896   9.515 -0.9161  0.5383  0.7619
  659MOL0     H88900   7.044   9.501   9.421 -1.6757  1.4101 -1.3536
  659MOL0     H88901   7.146   9.623   9.332  1.3126  0.8985  0.2882
  659MOL0     H88902   7.173   9.533   9.621  1.3682 -0.5474  0.1126
  659MOL0     H88903   7.274   9.658   9.530  0.0371  0.7470  1.2824
  659MOL0     H88904   7.341   9.484   9.373  3.7364  0.3346  1.2839
  659MOL0     H88905   7.232   9.361   9.437 -1.0323  1.2593 -0.6557
  659MOL0     H88906   7.450   9.488   9.584  0.2805 -0.9504  0.4986
  659MOL0     H88907   7.343   9.390   9.670 -3.1869 -1.5589 -0.5815
  659MOL0     H88908   7.389   9.196   9.511  1.4099 -2.2525  1.6721
  659MOL0     H88909   7.517   9.292   9.430  2.9897  0.5441  1.6409
  659MOL0     H88910   7.654   9.297   9.639  0.3637 -1.1023  3.6652
  659MOL0     H88911   7.522   9.216   9.726  2.4140 -0.7085  1.3358
  659MOL0     H88912   7.647   9.104   9.453 -0.1366  1.0162  0.1976
  659MOL0     H88913   7.530   9.035   9.565  2.7156 -4.2631  1.0754
  659MOL0     H88914   7.709   9.034   9.751 -0.5262  1.1387  0.3756
  659MOL0     H88915   7.751   8.935   9.615 -2.5252  0.3095 -0.5741
  659MOL0     H88916   7.984   8.999   9.517 -2.5506  0.5423 -1.5652
  659MOL0     H88917   8.267   9.181   9.721  2.5000  1.0960 -2.0672
  659MOL0     H88918   8.276   9.057   9.598  0.7165  1.3929 -2.8131
  659MOL0     H88919   8.219   9.218   9.412  1.2161 -0.9517  0.3571
  659MOL0     H88920   8.182   9.345   9.534 -1.1650 -0.7728  0.1812
  659MOL0     H88921   8.456   9.223   9.521 -0.2274 -1.4973  1.0958
  659MOL0     H88922   8.396   9.358   9.622 -0.0115 -1.0093  0.0507
  659MOL0     H88923   8.420   9.516   9.445  0.1241  1.2327 -2.9882
  659MOL0     H88924   8.328   9.414   9.340  0.5126  0.5178 -2.0524
  659MOL0     H88925   8.744   9.332   9.217  1.9205 -1.3267  1.9561
  659MOL0     H88926   8.951   9.444   9.221 -1.4276 -1.0767 -0.4132
  659MOL0     H88927   9.223   9.659   9.733  0.5247 -1.2758 -0.2976
  659MOL0     H88928   9.425   9.788   9.778  0.9665  1.4344  0.6913
  659MOL0     H88929   9.574  10.035   9.500 -0.9087  2.1381 -1.9827
  659MOL0     H88930   9.510  10.186   9.545 -1.8342 -1.4282 -1.1759
  659MOL0     H88931   9.728  10.055   9.705  0.4361 -1.2256 -1.3789
  659MOL0     H88932   9.761  10.167   9.582  1.2871 -1.2348 -0.0063
  659MOL0     H88933   9.752  10.314   9.781  0.2899  3.6355 -4.7082
  659MOL0     H88934   9.625  10.352   9.689  2.7290  1.0071  0.4719
  659MOL0     H88935   9.578  10.142   9.913 -0.2800 -0.7205 -0.0066
  659MOL0     H88936   9.461  10.253   9.839  0.3098 -1.7897 -0.3781
  659MOL0     H88937   9.497  10.333  10.045 -1.9405  2.7986 -0.5363
  659MOL0     H88938   9.591  10.446   9.953 -1.7704 -0.3059  1.5638
  659MOL0     H88939   9.716  10.218  10.103 -1.7854  0.0156  0.3504
  659MOL0     H88940   9.802  10.339  10.017  2.2130 -2.6815  2.8405
  659MOL0     H88941   9.655  10.366  10.281 -1.2448  3.0343  2.3445
  659MOL0     H88942   9.692  10.513  10.190  1.5587  0.2721  1.1868
  659MOL0     H88943   9.947  10.441  10.177 -1.3907  0.9253  0.2056
  659MOL0     H88944   9.881  10.472  10.342 -1.0140 -0.8309  1.7523
  659MOL0     H88945   9.302  10.097   9.507 -0.4832  0.0401  1.4862
  659MOL0     H88946   9.079   9.959   9.466 -2.5453  0.7852  2.7326
  659MOL0     H88947   8.786   9.678   9.561  1.4920 -1.5150  0.5191
  659MOL0     H88948   8.599   9.544   9.559 -1.8063 -3.6627 -0.8894
  659MOL0     H88949   6.913   9.562   9.262  0.1749  0.6484  2.8592
  659MOL0     H88950   6.735   9.653   9.110 -0.2438 -2.2032  0.0365
  659MOL0     H88951   6.432   9.938   9.012 -0.3116 -0.4308 -1.1053
  659MOL0     H88952   6.274  10.078   8.915  0.6564 -0.9303  1.1422
  659MOL0     H88953   6.160  10.186   8.729 -3.7456  0.6454 -0.1462
  659MOL0     H88954   6.169  10.321   8.623  0.4149  1.2137  0.0963
  659MOL0     H88955   6.155  10.302   8.930 -0.7643 -0.9873  0.7355
  659MOL0     H88956   6.049  10.414   8.832  1.3591  2.1112 -0.3363
  659MOL0     H88957   6.321  10.465   8.946 -0.6842 -1.1045  0.1658
  659MOL0     H88958   6.182  10.563   8.953  0.3088  1.6081 -2.5429
  659MOL0     H88959   6.349  10.535   8.699 -3.9291  0.1891 -2.2408
  659MOL0     H88960   6.202  10.620   8.719 -0.4912  0.2831 -0.7442
  659MOL0     H88961   6.486  10.889   8.894 -0.5088  0.2685 -0.7922
  659MOL0     H88962   6.591  10.265   8.698 -1.3069 -2.7345 -4.3240
  659MOL0     H88963   6.863  10.131   8.859  1.1763 -0.8906 -1.1476
  659MOL0     H88964   6.824  10.030   8.713 -2.3343 -3.4608  2.5937
  659MOL0     H88965   6.794  10.199   8.705 -3.3964  1.0188  1.0115
  660MOL0     O88966   6.521   1.384   6.420  0.6781  0.6443 -0.1944
  660MOL0     C88967   6.595   1.290   6.391  0.5955  0.0441  0.0418
  660MOL0     O88968   6.702   1.301   6.312 -0.8008 -0.9523  0.0723
  660MOL0     C88969   6.757   1.421   6.271 -0.1272  1.2907 -0.5872
  660MOL0     C88970   6.891   1.440   6.282  0.4633 -0.1398  0.0891
  660MOL0     C88971   6.950   1.556   6.235 -0.6372  0.2849  0.0633
  660MOL0     C88972   6.875   1.658   6.173 -0.2283 -0.2541 -0.0422
  660MOL0     O88973   6.946   1.758   6.108 -0.8329 -0.1500  0.0916
  660MOL0     C88974   6.865   1.872   6.091 -0.5932  0.1507 -0.0776
  660MOL0     C88975   6.961   1.989   6.063 -0.2962  0.2985 -0.4983
  660MOL0     C88976   7.036   2.042   6.190 -0.3417 -0.4177 -0.3440
  660MOL0     C88977   7.155   2.148   6.169 -0.0246  1.0968  0.1810
  660MOL0     C88978   7.192   2.207   6.306 -0.1932  1.1170  0.1720
  660MOL0     C88979   7.086   2.323   6.333  0.8992 -0.3329 -0.3924
  660MOL0     C88980   7.106   2.407   6.462 -0.0403  0.9615  0.7566
  660MOL0     C88981   7.072   2.328   6.585 -1.8171 -0.1476  0.7080
  660MOL0     N88982   7.079   2.417   6.702 -0.1386  0.6454  0.4619
  660MOL0     C88983   7.003   2.406   6.814  0.2989 -0.5212  0.1182
  660MOL0     C88984   7.025   2.512   6.889 -0.4868 -0.8820 -0.1436
  660MOL0     C88985   6.956   2.562   7.015 -0.6856 -0.1649 -0.1791
  660MOL0     C88986   6.841   2.483   7.081 -0.5903  0.1122  0.6701
  660MOL0     C88987   6.809   2.515   7.229 -0.1513  0.3934 -0.0901
  660MOL0     C88988   6.867   2.411   7.320 -0.6909  0.8880  0.4651
  660MOL0     O88989   6.819   2.281   7.287  0.3139 -0.4926  0.2377
  660MOL0     C88990   6.764   2.213   7.390 -0.0706 -0.2575 -0.2555
  660MOL0     C88991   6.630   2.178   7.381  0.9179  0.5855 -0.7896
  660MOL0     C88992   6.569   2.098   7.480 -0.5972 -0.0218 -0.1095
  660MOL0     C88993   6.646   2.062   7.596 -0.4543  0.1553 -0.5756
  660MOL0     C88994   6.582   1.976   7.702  0.2066 -0.0944  0.2340
  660MOL0     O88995   6.510   1.864   7.657 -0.7101  0.4098 -0.1976
  660MOL0     C88996   6.435   1.785   7.738 -0.4468 -0.2507  0.2904
  660MOL0     C88997   6.506   1.704   7.832 -0.6589  0.3745  0.0106
  660MOL0     C88998   6.431   1.602   7.905  0.8804  0.2888  0.6467
  660MOL0     C88999   6.290   1.584   7.872  0.1364  0.2237  0.0881
  660MOL0     O89000   6.227   1.491   7.952 -0.2401 -0.0251  0.1557
  660MOL0     C89001   6.085   1.488   7.956 -0.6044 -0.3502 -0.1092
  660MOL0     C89002   6.040   1.362   7.889  0.3230  0.6922  0.0468
  660MOL0     C89003   6.007   1.374   7.735 -0.1253 -0.0080  0.7813
  660MOL0     C89004   5.969   1.231   7.701 -0.9709 -0.3189  1.6729
  660MOL0     C89005   5.930   1.225   7.547  0.5875 -0.6659  1.1293
  660MOL0     C89006   5.788   1.283   7.519 -0.3539  0.4278 -0.8344
  660MOL0     C89007   5.758   1.270   7.366 -0.1571 -0.5937 -0.8527
  660MOL0     C89008   5.668   1.390   7.317 -0.1204 -0.1481  0.6959
  660MOL0    Cl89009   5.511   1.398   7.416 -0.5239 -0.1204  0.0080
  660MOL0     C89010   6.230   1.659   7.765 -0.2842 -0.3942  0.0509
  660MOL0     C89011   6.304   1.761   7.700 -1.6203 -0.3412  1.0974
  660MOL0     O89012   6.610   1.999   7.818  0.0789 -1.6796 -0.3168
  660MOL0     C89013   6.774   2.097   7.609  0.6574  0.4494  0.5654
  660MOL0     C89014   6.834   2.173   7.507  0.3598 -0.1657 -0.4736
  660MOL0     N89015   7.130   2.574   6.825 -0.0628 -0.4547  1.1819
  660MOL0     N89016   7.172   2.520   6.716 -0.2379  1.3313 -0.0928
  660MOL0     C89017   6.738   1.647   6.153 -0.0808  0.6244  0.8378
  660MOL0     C89018   6.675   1.528   6.209  0.5645 -0.0503 -0.2488
  660MOL0     C89019   6.549   1.152   6.419 -0.0544  0.3396  0.0407
  660MOL0     C89020   6.544   1.066   6.318  0.4401  0.3946 -0.5731
  660MOL0     C89021   6.500   0.936   6.335  0.8931  1.2374  0.7361
  660MOL0     C89022   6.462   0.894   6.465 -0.1061  0.5081  0.6271
  660MOL0     O89023   6.431   0.757   6.481 -0.4633 -0.8123  0.8614
  660MOL0     C89024   6.447   0.670   6.373 -0.4402 -0.3482 -1.5328
  660MOL0     C89025   6.321   0.654   6.282  0.4026  0.1725 -0.0704
  660MOL0     C89026   6.224   0.559   6.348  0.6481  0.1929 -0.0697
  660MOL0     C89027   6.119   0.511   6.246 -0.5119 -0.6913  0.3270
  660MOL0     C89028   6.056   0.622   6.174 -0.4688  0.1004 -0.1064
  660MOL0     C89029   5.982   0.708   6.129  0.3558 -0.9553 -0.4539
  660MOL0     C89030   6.453   0.981   6.574 -0.6845 -0.9129  0.6314
  660MOL0     C89031   6.496   1.111   6.539  0.1450 -0.8122  0.4462
  660MOL0     C89032   6.500   1.207   6.650  0.4876 -0.1663 -0.2832
  660MOL0     H89033   6.942   1.371   6.350 -0.3236 -1.5104 -0.6745
  660MOL0     H89034   7.057   1.574   6.249 -0.3751 -1.1194 -0.0116
  660MOL0     H89035   6.805   1.860   6.001  3.3472  0.8665 -3.0901
  660MOL0     H89036   6.802   1.894   6.178 -1.2856 -2.4971  0.1847
  660MOL0     H89037   6.907   2.080   6.036  0.2604  0.5680 -0.6987
  660MOL0     H89038   7.026   1.951   5.984  0.6620 -1.2141  0.9451
  660MOL0     H89039   7.085   1.957   6.239 -0.3844 -0.0176  0.4158
  660MOL0     H89040   6.958   2.077   6.258 -0.8055  1.3788 -1.7105
  660MOL0     H89041   7.239   2.089   6.128 -0.5575  1.1288 -0.9981
  660MOL0     H89042   7.134   2.223   6.093 -0.0575  0.3810 -0.5380
  660MOL0     H89043   7.199   2.124   6.378  1.5261 -0.0275 -1.2442
  660MOL0     H89044   7.292   2.249   6.299  1.0772 -1.4459  1.5910
  660MOL0     H89045   7.093   2.394   6.251 -1.5070  2.7576  1.8339
  660MOL0     H89046   6.980   2.295   6.334  0.4842  1.1751  0.2708
  660MOL0     H89047   7.045   2.498   6.453  0.0290  0.9252 -0.1365
  660MOL0     H89048   7.212   2.428   6.475  0.2578  0.4957 -0.8067
  660MOL0     H89049   6.969   2.293   6.571 -1.8214 -0.7367  2.0960
  660MOL0     H89050   7.135   2.241   6.607  1.8788  2.5661  1.7981
  660MOL0     H89051   6.934   2.325   6.835 -1.5067  1.0460  0.4273
  660MOL0     H89052   7.029   2.581   7.095 -2.0281 -1.4530  1.4215
  660MOL0     H89053   6.919   2.660   6.985  2.0812  1.0698  0.0743
  660MOL0     H89054   6.754   2.513   7.022 -0.1964  0.3359  0.1912
  660MOL0     H89055   6.862   2.377   7.065  1.6050  0.2228  2.3561
  660MOL0     H89056   6.705   2.522   7.264 -0.1416 -0.2152  0.0854
  660MOL0     H89057   6.858   2.609   7.258  1.4358 -0.4865  0.2063
  660MOL0     H89058   6.848   2.441   7.424  0.7643  3.4665  0.0772
  660MOL0     H89059   6.976   2.414   7.309 -0.6605 -2.6245 -1.9646
  660MOL0     H89060   6.574   2.204   7.292 -0.9265 -2.4947 -0.6551
  660MOL0     H89061   6.463   2.080   7.465 -0.0997 -1.4606 -2.4005
  660MOL0     H89062   6.612   1.716   7.850 -0.0630 -3.3754 -0.1782
  660MOL0     H89063   6.470   1.536   7.982  0.8661 -3.5234 -2.2953
  660MOL0     H89064   6.050   1.493   8.060  0.3365  0.2278  0.1906
  660MOL0     H89065   6.041   1.572   7.902  2.6120  0.4058 -1.7766
  660MOL0     H89066   6.119   1.286   7.895  1.2494  1.2987 -2.8233
  660MOL0     H89067   5.961   1.318   7.950  1.9027  0.4586  2.0279
  660MOL0     H89068   5.919   1.439   7.737  0.4970  0.8503  1.5403
  660MOL0     H89069   6.092   1.407   7.673 -3.1980  1.9375 -2.8212
  660MOL0     H89070   5.894   1.192   7.770 -0.8896  2.4883  3.5209
  660MOL0     H89071   6.057   1.167   7.712 -0.6177 -0.7216 -2.0357
  660MOL0     H89072   5.925   1.123   7.509  0.8300 -0.3946  0.3503
  660MOL0     H89073   6.005   1.280   7.489  0.3727  0.2248  1.6595
  660MOL0     H89074   5.715   1.220   7.570 -0.3198  0.1761 -1.0966
  660MOL0     H89075   5.784   1.388   7.550  0.8428  0.4534 -0.7403
  660MOL0     H89076   5.719   1.169   7.352  1.0936 -1.7305  2.7208
  660MOL0     H89077   5.847   1.270   7.302 -0.2598 -0.9460 -0.9991
  660MOL0     H89078   5.715   1.489   7.322  0.1146 -0.2372  0.3138
  660MOL0     H89079   5.634   1.371   7.215  0.0551 -0.6313  0.7238
  660MOL0     H89080   6.128   1.647   7.729 -0.3125 -0.2068  0.0641
  660MOL0     H89081   6.271   1.824   7.619  0.1526  1.5016  1.7497
  660MOL0     H89082   6.829   2.056   7.693 -0.9324  1.2742  2.0807
  660MOL0     H89083   6.940   2.194   7.521  1.2760 -4.0686 -0.4291
  660MOL0     H89084   6.678   1.722   6.104  2.4019  2.0929 -0.1357
  660MOL0     H89085   6.567   1.527   6.199  0.4516  1.7181  0.5052
  660MOL0     H89086   6.573   1.105   6.221  1.5596  1.0579  0.0147
  660MOL0     H89087   6.484   0.870   6.250  1.0109  1.8463  0.2336
  660MOL0     H89088   6.466   0.572   6.418  4.2286  0.4135 -1.3267
  660MOL0     H89089   6.532   0.677   6.304 -0.0874 -3.3076 -1.5193
  660MOL0     H89090   6.340   0.630   6.177  1.1191 -0.8547  0.2849
  660MOL0     H89091   6.280   0.756   6.288  0.2948  0.0553  1.6631
  660MOL0     H89092   6.173   0.606   6.433 -1.2921 -2.4648  0.3874
  660MOL0     H89093   6.270   0.465   6.382  1.6413 -0.0581 -1.9618
  660MOL0     H89094   6.175   0.450   6.176 -0.0698  0.4069 -0.2841
  660MOL0     H89095   6.046   0.452   6.304  2.6504 -4.6685  0.6767
  660MOL0     H89096   5.927   0.776   6.068 -1.7281 -1.4216  0.8313
  660MOL0     H89097   6.431   0.947   6.675 -0.0699  0.8031  1.3653
  660MOL0     H89098   6.450   1.304   6.640  1.5533  0.4345  0.1070
  660MOL0     H89099   6.467   1.150   6.737  2.7149 -0.6556  0.2852
  660MOL0     H89100   6.603   1.219   6.682 -0.5621  0.8333  3.1065
  661MOL0     O89101   9.666   3.013   9.049 -0.8324 -0.4177 -0.0760
  661MOL0     C89102   9.627   3.122   9.011  0.1434  0.1511 -0.2467
  661MOL0     O89103   9.496   3.155   9.012 -0.3520 -0.2419 -0.8695
  661MOL0     C89104   9.407   3.118   9.108  0.5170 -0.3036  0.3458
  661MOL0     C89105   9.424   3.018   9.210 -0.4567  0.1626  1.3874
  661MOL0     C89106   9.310   2.997   9.289  0.6410  0.3125 -0.5639
  661MOL0     C89107   9.201   3.083   9.298  0.2381  0.0747  0.0730
  661MOL0     O89108   9.107   3.063   9.398  0.3719  0.2298 -0.2338
  661MOL0     C89109   9.017   3.175   9.420  0.2110  0.0679 -0.4103
  661MOL0     C89110   8.929   3.138   9.544 -0.6458  0.2644  0.3312
  661MOL0     C89111   8.819   3.245   9.581  0.1404 -0.2396  0.6660
  661MOL0     C89112   8.864   3.395   9.593 -0.2118 -0.6619  0.5058
  661MOL0     C89113   8.750   3.495   9.625  1.3573 -0.5976  0.1941
  661MOL0     C89114   8.724   3.492   9.776  0.7740 -0.1773 -0.0719
  661MOL0     C89115   8.602   3.574   9.812  0.3737  0.0686 -0.4874
  661MOL0     C89116   8.551   3.537   9.951  0.4019  0.6443  0.2185
  661MOL0     N89117   8.655   3.538  10.054 -0.4286 -0.3064  0.1646
  661MOL0     C89118   8.703   3.655  10.097 -0.1850  0.2982  0.4195
  661MOL0     C89119   8.778   3.614  10.206 -0.4848 -0.1077  0.7213
  661MOL0     C89120   8.851   3.711  10.301 -0.3439  0.4833  0.3701
  661MOL0     C89121   8.780   3.716  10.430  0.1971 -0.0343 -0.3113
  661MOL0     C89122   8.641   3.772  10.411  1.0290  0.1546 -0.3345
  661MOL0     C89123   8.571   3.812  10.536 -0.0277  0.9350 -0.3656
  661MOL0     O89124   8.439   3.864  10.501 -0.0100  0.2006 -0.4322
  661MOL0     C89125   8.339   3.786  10.455  0.4680  0.6257  0.1654
  661MOL0     C89126   8.240   3.833  10.363 -0.2966 -0.4991 -0.0686
  661MOL0     C89127   8.139   3.753  10.313 -1.0141  0.2040  0.0138
  661MOL0     C89128   8.142   3.618  10.336 -0.4027  0.5393  0.4356
  661MOL0     C89129   8.037   3.522  10.284 -0.0545 -0.3915 -0.0821
  661MOL0     O89130   8.066   3.394  10.269 -0.2059 -0.3911  0.0059
  661MOL0     C89131   7.965   3.310  10.233  0.2995  0.0533 -0.9666
  661MOL0     C89132   7.899   3.234  10.329 -0.6967 -0.4188 -0.2655
  661MOL0     C89133   7.783   3.155  10.289 -0.6195 -0.4015 -0.4521
  661MOL0     C89134   7.742   3.149  10.155 -0.0475  0.0418 -0.5589
  661MOL0     O89135   7.638   3.078  10.107  0.2972 -0.7319 -0.4657
  661MOL0     C89136   7.545   3.030  10.218  0.8048 -0.3184 -0.3321
  661MOL0     C89137   7.435   2.939  10.171  0.5163 -0.1824 -0.9616
  661MOL0     C89138   7.467   2.790  10.146 -0.0738 -0.2367  0.2939
  661MOL0     C89139   7.575   2.779  10.035  0.0923 -0.2175 -0.3777
  661MOL0     C89140   7.584   2.631   9.984 -0.3415 -0.4384  0.9228
  661MOL0     C89141   7.619   2.527  10.099 -1.0337  0.0914  0.8232
  661MOL0     C89142   7.656   2.387  10.044  0.2444 -0.7278  0.6424
  661MOL0     C89143   7.783   2.383   9.966 -0.3690  1.1372  0.2924
  661MOL0    Cl89144   7.911   2.448  10.077  0.4656  0.1355  0.0176
  661MOL0     C89145   7.810   3.221  10.064 -0.0969 -0.3571  0.9741
  661MOL0     C89146   7.925   3.290  10.100 -0.6391  0.3740 -0.1125
  661MOL0     O89147   7.928   3.577  10.263 -0.3990  0.4027  0.2960
  661MOL0     C89148   8.251   3.565  10.412  0.7116 -0.5317 -0.0322
  661MOL0     C89149   8.346   3.649  10.478  0.8099  1.2146  0.1642
  661MOL0     N89150   8.760   3.477  10.227 -0.1379 -0.2617  0.4109
  661MOL0     N89151   8.679   3.432  10.137  0.0894  0.1239 -0.1067
  661MOL0     C89152   9.197   3.187   9.204 -0.3925 -0.1684  0.1852
  661MOL0     C89153   9.294   3.203   9.111  0.0249 -0.3840 -0.6668
  661MOL0     C89154   9.730   3.224   8.969 -0.2635 -0.6330 -0.1075
  661MOL0     C89155   9.867   3.196   9.000 -0.2686  0.4413 -0.4523
  661MOL0     C89156   9.978   3.278   8.960 -0.1387 -0.8598 -0.3639
  661MOL0     C89157   9.943   3.383   8.873  0.0246 -0.1668 -0.6208
  661MOL0     O89158  10.043   3.472   8.820 -0.0338  0.6797  0.3005
  661MOL0     C89159  10.169   3.412   8.786 -0.1502  0.0401 -0.3586
  661MOL0     C89160  10.176   3.324   8.667  0.1902  0.0181  0.8475
  661MOL0     C89161  10.320   3.277   8.627  0.0961 -0.0404  0.1008
  661MOL0     C89162  10.407   3.401   8.593 -0.1549 -0.7351 -0.0989
  661MOL0     C89163  10.530   3.363   8.515  0.2152  0.4960  0.2907
  661MOL0     C89164  10.632   3.337   8.456  0.0555  0.0872 -0.0289
  661MOL0     C89165   9.813   3.412   8.844  0.3036 -0.3423 -0.5716
  661MOL0     C89166   9.694   3.337   8.879 -0.6777  0.9405  0.7072
  661MOL0     C89167   9.553   3.382   8.847  0.0783  0.3367 -0.1755
  661MOL0     H89168   9.506   2.948   9.225 -1.1804 -1.7674 -2.5093
  661MOL0     H89169   9.321   2.907   9.349  0.9161 -0.4375 -1.7120
  661MOL0     H89170   9.082   3.260   9.443  0.8946 -0.4495 -0.3932
  661MOL0     H89171   8.955   3.205   9.334 -3.2108  0.8015  2.0842
  661MOL0     H89172   8.994   3.117   9.629  0.1038 -1.1173 -0.5354
  661MOL0     H89173   8.879   3.041   9.530  0.6770 -0.3113 -0.5856
  661MOL0     H89174   8.776   3.222   9.679  1.1920  0.9976  1.4423
  661MOL0     H89175   8.737   3.236   9.510 -1.5283  0.1199  2.4468
  661MOL0     H89176   8.947   3.393   9.665 -0.0993  2.0158  0.5562
  661MOL0     H89177   8.902   3.429   9.497 -2.2370  2.0818  0.5595
  661MOL0     H89178   8.772   3.596   9.590  2.7073 -1.6104 -2.0591
  661MOL0     H89179   8.662   3.466   9.566  1.5522  2.2442 -1.6837
  661MOL0     H89180   8.718   3.389   9.812  1.4061  0.0557  0.7437
  661MOL0     H89181   8.801   3.539   9.839  0.9555 -0.9341  0.2744
  661MOL0     H89182   8.518   3.545   9.748  1.2244 -2.1313 -0.6721
  661MOL0     H89183   8.608   3.684   9.818 -0.8815  0.0530  2.2458
  661MOL0     H89184   8.462   3.592   9.982 -0.9194 -0.4644 -1.4814
  661MOL0     H89185   8.513   3.435   9.952  0.4755  0.5992  1.9638
  661MOL0     H89186   8.704   3.751  10.048 -0.8549 -0.4402 -1.0995
  661MOL0     H89187   8.954   3.677  10.320 -0.8318 -0.2345  1.8483
  661MOL0     H89188   8.865   3.809  10.256  1.4763  1.6059  3.1183
  661MOL0     H89189   8.761   3.619  10.478  3.0592  0.6792  2.5894
  661MOL0     H89190   8.821   3.774  10.513  1.9013  0.0400 -1.1749
  661MOL0     H89191   8.574   3.696  10.369 -4.8641  3.8181  1.3151
  661MOL0     H89192   8.662   3.861  10.351  1.9681  1.7131  2.1266
  661MOL0     H89193   8.637   3.890  10.575  2.6104 -0.4738 -1.7548
  661MOL0     H89194   8.563   3.737  10.615 -1.6724 -0.0868 -1.4383
  661MOL0     H89195   8.245   3.941  10.354 -2.3889 -0.3314  0.4899
  661MOL0     H89196   8.054   3.799  10.263  1.1396  0.7394 -3.4518
  661MOL0     H89197   7.929   3.244  10.433  1.9921  0.2772 -1.0351
  661MOL0     H89198   7.719   3.108  10.364 -2.1439  0.6173 -1.0609
  661MOL0     H89199   7.607   2.974  10.288  2.6907  2.0278  0.0087
  661MOL0     H89200   7.501   3.115  10.270 -2.4085 -1.4441 -1.0348
  661MOL0     H89201   7.367   2.931  10.256  0.6387 -0.5292 -0.8982
  661MOL0     H89202   7.392   2.994  10.086  2.2336  1.1389 -1.0397
  661MOL0     H89203   7.487   2.741  10.242 -1.5779 -0.7460  0.3632
  661MOL0     H89204   7.373   2.749  10.108 -1.8145 -0.3590  4.2398
  661MOL0     H89205   7.672   2.812  10.072 -0.2608  0.7777 -0.3163
  661MOL0     H89206   7.532   2.835   9.952  2.2875 -1.7661 -2.7182
  661MOL0     H89207   7.663   2.631   9.909 -1.6785 -1.1687 -0.5293
  661MOL0     H89208   7.503   2.601   9.918  1.3389 -0.9706 -0.9889
  661MOL0     H89209   7.703   2.553  10.164  0.5301  0.8852 -1.3834
  661MOL0     H89210   7.525   2.509  10.152 -0.8890  3.1182  2.3219
  661MOL0     H89211   7.579   2.351   9.975 -0.0397  0.7378  0.1694
  661MOL0     H89212   7.650   2.321  10.131 -5.0274  1.6733  2.5230
  661MOL0     H89213   7.796   2.276   9.946 -1.5844  0.8274  1.0129
  661MOL0     H89214   7.790   2.440   9.873  4.4981 -1.1556 -1.0948
  661MOL0     H89215   7.765   3.221   9.965  1.5776 -1.8839  0.1618
  661MOL0     H89216   7.974   3.339  10.017 -1.1141  0.2848 -0.4471
  661MOL0     H89217   8.253   3.458  10.431  0.4677 -0.1650  2.4621
  661MOL0     H89218   8.412   3.595  10.546  0.4577  1.3510  0.6206
  661MOL0     H89219   9.126   3.269   9.209 -0.8306 -0.5535  0.3968
  661MOL0     H89220   9.302   3.294   9.053  0.8851  0.3533  0.5401
  661MOL0     H89221   9.893   3.105   9.054 -0.3596  0.6782  0.0024
  661MOL0     H89222  10.079   3.266   8.997  0.1354  1.3507 -0.2767
  661MOL0     H89223  10.202   3.350   8.870 -0.1717 -2.4815 -2.1381
  661MOL0     H89224  10.243   3.493   8.789 -0.1073  0.0136  2.8403
  661MOL0     H89225  10.123   3.369   8.583 -0.9148  0.4335  1.7455
  661MOL0     H89226  10.114   3.235   8.684  2.4792 -2.0062 -0.5807
  661MOL0     H89227  10.298   3.222   8.535  4.3490 -1.0472 -0.5041
  661MOL0     H89228  10.357   3.209   8.704 -4.9977 -1.2556  1.9048
  661MOL0     H89229  10.350   3.479   8.542  1.7228 -0.2043 -1.5065
  661MOL0     H89230  10.451   3.444   8.683 -0.6018  0.7039 -0.5504
  661MOL0     H89231  10.720   3.326   8.396 -1.3565  4.1893 -3.3970
  661MOL0     H89232   9.787   3.491   8.774  0.5983  1.2920  1.0951
  661MOL0     H89233   9.497   3.392   8.940  1.7771  1.4593  0.7777
  661MOL0     H89234   9.550   3.477   8.793 -1.1983 -1.5776 -3.8569
  661MOL0     H89235   9.505   3.309   8.780  0.9548  1.2883 -1.9045
  662MOL0     O89236   6.565   9.188   6.788 -0.8714  0.1760 -0.7378
  662MOL0     C89237   6.670   9.222   6.727 -0.1935 -0.2494 -1.1315
  662MOL0     O89238   6.787   9.151   6.716  0.9842 -0.2673 -0.4011
  662MOL0     C89239   6.794   9.032   6.784  0.2553  0.2036  0.1021
  662MOL0     C89240   6.823   8.918   6.721  0.6581  0.7431  0.2850
  662MOL0     C89241   6.839   8.797   6.792 -0.9984  0.6609 -0.9366
  662MOL0     C89242   6.841   8.793   6.929  1.3135 -0.2484 -0.6500
  662MOL0     O89243   6.889   8.678   6.990  0.1023 -0.5991  0.3724
  662MOL0     C89244   6.803   8.585   7.053 -0.1248  0.1176  0.4196
  662MOL0     C89245   6.756   8.625   7.196  0.7076 -0.3390 -0.8454
  662MOL0     C89246   6.715   8.520   7.298  0.2486 -0.3134 -0.8759
  662MOL0     C89247   6.820   8.407   7.299 -0.0827  0.5866 -0.0460
  662MOL0     C89248   6.790   8.312   7.420  0.3057 -0.2565  0.7504
  662MOL0     C89249   6.918   8.223   7.459 -0.9828 -1.0064  0.3699
  662MOL0     C89250   6.872   8.126   7.577 -0.3580  0.1864  0.5855
  662MOL0     C89251   6.982   8.064   7.657 -0.3400  0.8908  0.0540
  662MOL0     N89252   7.063   8.165   7.733 -1.0737  1.1054  0.2097
  662MOL0     C89253   7.023   8.226   7.845 -0.2584 -0.8719 -0.4379
  662MOL0     C89254   7.143   8.267   7.890 -0.8050 -0.3472 -0.5855
  662MOL0     C89255   7.187   8.350   8.014 -1.3751  0.8499 -0.7591
  662MOL0     C89256   7.190   8.276   8.137 -0.1563  0.3449 -0.5718
  662MOL0     C89257   7.241   8.377   8.242  0.3683 -0.5383  0.1866
  662MOL0     C89258   7.267   8.333   8.385  0.6089  0.2908  0.2659
  662MOL0     O89259   7.375   8.405   8.452 -0.1813 -0.0353  0.0320
  662MOL0     C89260   7.423   8.356   8.569 -1.6552  0.3194  0.0454
  662MOL0     C89261   7.374   8.239   8.644 -0.3664  0.5805 -0.2850
  662MOL0     C89262   7.426   8.218   8.780  0.0589  0.3964  1.1295
  662MOL0     C89263   7.526   8.300   8.832 -0.6102  1.2238  0.4105
  662MOL0     C89264   7.583   8.268   8.966 -1.5298 -1.2901 -0.5884
  662MOL0     O89265   7.642   8.367   9.038 -0.2652 -0.0348  0.6848
  662MOL0     C89266   7.721   8.354   9.150 -0.2390 -0.7157 -0.7577
  662MOL0     C89267   7.789   8.232   9.188  0.4073  0.4601  0.4317
  662MOL0     C89268   7.859   8.217   9.311  1.0678 -0.1594 -0.7388
  662MOL0     C89269   7.854   8.328   9.399  0.5304  0.9103  0.4844
  662MOL0     O89270   7.902   8.302   9.529  0.2783  0.1803  0.2901
  662MOL0     C89271   7.828   8.372   9.630 -0.0576 -0.8592 -0.3385
  662MOL0     C89272   7.897   8.369   9.766  0.7483  0.5418 -0.4319
  662MOL0     C89273   7.833   8.447   9.887 -1.1188  0.1486  0.8005
  662MOL0     C89274   7.826   8.598   9.855 -0.2842 -0.6781  0.0091
  662MOL0     C89275   7.748   8.671   9.968  0.4326 -0.7500 -0.4444
  662MOL0     C89276   7.778   8.828   9.961 -0.2843  0.5727  0.6423
  662MOL0     C89277   7.895   8.862  10.043  0.0461 -0.6166 -0.0530
  662MOL0     C89278   7.905   8.826  10.189 -0.0467 -0.4320  0.9779
  662MOL0    Cl89279   7.945   8.975  10.286 -0.0059  0.7904 -0.2330
  662MOL0     C89280   7.810   8.455   9.345 -0.3855  0.2314  0.0532
  662MOL0     C89281   7.746   8.463   9.225 -0.5391 -0.0572 -0.3783
  662MOL0     O89282   7.561   8.153   9.004  0.2386 -0.6895 -0.4698
  662MOL0     C89283   7.570   8.405   8.753  0.9608 -0.2374 -0.1620
  662MOL0     C89284   7.526   8.431   8.617 -0.2903  0.6865  0.1318
  662MOL0     N89285   7.246   8.237   7.803  0.3945  0.0875  0.2226
  662MOL0     N89286   7.202   8.177   7.707 -0.7494 -0.4655  1.4739
  662MOL0     C89287   6.810   8.911   7.000  0.6241 -0.2894  0.1521
  662MOL0     C89288   6.780   9.031   6.931 -0.4837  0.9212  0.1843
  662MOL0     C89289   6.668   9.350   6.652 -0.2968 -0.1020  0.1028
  662MOL0     C89290   6.567   9.366   6.557 -0.4020 -0.0088  0.1069
  662MOL0     C89291   6.564   9.476   6.473  0.8994 -0.8878  0.4871
  662MOL0     C89292   6.659   9.573   6.473 -0.4009 -0.4338 -0.4872
  662MOL0     O89293   6.664   9.669   6.368  0.2841 -0.1407 -1.4538
  662MOL0     C89294   6.722   9.802   6.385 -0.6446 -0.2292  0.0727
  662MOL0     C89295   6.651   9.911   6.474 -0.6194 -0.7877 -0.1806
  662MOL0     C89296   6.518   9.959   6.418 -0.4746 -0.1281  0.3566
  662MOL0     C89297   6.432  10.035   6.512  0.6271  0.2121  0.4942
  662MOL0     C89298   6.489  10.130   6.603  0.0798 -0.1044  0.4657
  662MOL0     C89299   6.542  10.211   6.667  0.7602 -0.3496 -0.6941
  662MOL0     C89300   6.769   9.551   6.565 -0.2175 -0.2370  0.0744
  662MOL0     C89301   6.773   9.444   6.654  1.3266 -0.1867  0.1071
  662MOL0     C89302   6.878   9.443   6.767 -0.3521 -0.1782  0.1363
  662MOL0     H89303   6.826   8.899   6.615 -0.3267  4.7360 -0.6275
  662MOL0     H89304   6.878   8.708   6.743 -1.0340 -0.0664  0.3227
  662MOL0     H89305   6.720   8.552   6.989  0.6485 -3.5533  1.0621
  662MOL0     H89306   6.859   8.491   7.065 -1.2886 -0.6198  0.2559
  662MOL0     H89307   6.669   8.690   7.188 -0.3380 -1.3141  1.8612
  662MOL0     H89308   6.833   8.679   7.252  0.9452 -1.7325  0.1986
  662MOL0     H89309   6.614   8.492   7.268  0.4894 -2.2736 -0.0090
  662MOL0     H89310   6.705   8.564   7.398  0.6259  0.2659 -1.0854
  662MOL0     H89311   6.819   8.343   7.210 -0.5406  0.6596 -0.0942
  662MOL0     H89312   6.921   8.448   7.307 -0.2424  0.7736  1.2823
  662MOL0     H89313   6.760   8.369   7.509 -1.8644 -0.2718  0.0818
  662MOL0     H89314   6.705   8.246   7.401 -0.3849  0.5822  0.8755
  662MOL0     H89315   6.942   8.169   7.367  0.7672 -0.1853  0.2947
  662MOL0     H89316   7.002   8.286   7.491 -3.4600  2.1043  1.3128
  662MOL0     H89317   6.813   8.042   7.537  1.4773 -1.2644  0.7930
  662MOL0     H89318   6.819   8.185   7.653  0.9749  1.8558  0.2735
  662MOL0     H89319   6.941   7.989   7.724 -3.2292 -2.1936 -4.5607
  662MOL0     H89320   7.042   8.006   7.586 -1.1541 -0.6062  0.5614
  662MOL0     H89321   6.922   8.227   7.885  0.1981 -3.0421  0.9127
  662MOL0     H89322   7.288   8.390   8.000  0.8225 -3.8061  0.0205
  662MOL0     H89323   7.114   8.426   8.045  1.4974  2.5434  2.5461
  662MOL0     H89324   7.088   8.246   8.165 -1.4294  3.0242 -1.9249
  662MOL0     H89325   7.254   8.189   8.122 -1.2017 -0.8175  1.2417
  662MOL0     H89326   7.173   8.463   8.251  1.8894  0.8025 -0.5840
  662MOL0     H89327   7.329   8.429   8.202  0.6812 -1.4070 -0.2862
  662MOL0     H89328   7.291   8.227   8.370 -2.0538 -0.4732  0.8119
  662MOL0     H89329   7.176   8.326   8.445 -0.6792  0.9406 -1.5138
  662MOL0     H89330   7.285   8.184   8.616 -0.8514 -0.2244  2.5553
  662MOL0     H89331   7.386   8.135   8.838  0.4113 -1.7060 -1.4441
  662MOL0     H89332   7.779   8.143   9.127 -0.1882  0.1030  1.0429
  662MOL0     H89333   7.894   8.118   9.337 -1.8041 -2.1711 -3.6524
  662MOL0     H89334   7.801   8.476   9.613 -3.8764 -1.3383  1.6834
  662MOL0     H89335   7.737   8.314   9.652 -1.8703  2.2355  0.9411
  662MOL0     H89336   7.901   8.263   9.790 -0.9155  0.3636 -0.8804
  662MOL0     H89337   8.002   8.399   9.754  0.6172  1.1352 -0.1476
  662MOL0     H89338   7.735   8.400   9.898  0.0564 -2.4824  0.6788
  662MOL0     H89339   7.900   8.425   9.971 -1.1366  0.2831  0.8509
  662MOL0     H89340   7.775   8.626   9.762  1.1973 -2.9997 -1.6203
  662MOL0     H89341   7.929   8.635   9.847 -0.3455 -0.5319 -0.1040
  662MOL0     H89342   7.774   8.636  10.069 -1.1932  0.5588  0.4837
  662MOL0     H89343   7.645   8.637   9.950  0.1871  0.3922 -1.2834
  662MOL0     H89344   7.789   8.879   9.866  1.3621  3.3730  2.2139
  662MOL0     H89345   7.695   8.880  10.009 -0.4518 -0.0455  1.0432
  662MOL0     H89346   7.907   8.969  10.027  1.4899 -0.6977  0.3573
  662MOL0     H89347   7.993   8.825  10.010  1.6605  0.6725  2.8348
  662MOL0     H89348   7.804   8.788  10.209 -0.0612 -0.1184  1.5296
  662MOL0     H89349   7.981   8.751  10.210  1.5842  1.2831  1.4885
  662MOL0     H89350   7.812   8.553   9.391 -2.5170  0.2651  0.1776
  662MOL0     H89351   7.708   8.555   9.182  0.7948  1.2339  1.0566
  662MOL0     H89352   7.646   8.460   8.807  1.3102 -2.1675  1.4391
  662MOL0     H89353   7.564   8.520   8.569 -0.9508  0.4427 -0.8884
  662MOL0     H89354   6.796   8.905   7.107 -1.7148 -1.8230 -0.1629
  662MOL0     H89355   6.755   9.113   6.998  0.8275  0.6325  1.0815
  662MOL0     H89356   6.488   9.291   6.550 -1.3808  0.8818  1.1540
  662MOL0     H89357   6.492   9.478   6.392  1.7893 -2.2349 -0.3777
  662MOL0     H89358   6.730   9.852   6.288  1.6136 -0.2207  0.2125
  662MOL0     H89359   6.821   9.795   6.432  0.0501  1.9557 -0.9311
  662MOL0     H89360   6.711  10.003   6.469 -1.2552 -0.2712  1.2442
  662MOL0     H89361   6.646   9.879   6.578  0.0751 -0.6390 -0.0958
  662MOL0     H89362   6.454   9.876   6.386 -0.7688  0.6586 -1.1419
  662MOL0     H89363   6.540  10.029   6.337  0.5419 -1.5218 -0.6214
  662MOL0     H89364   6.368  10.094   6.446 -0.3275 -1.2428  0.0618
  662MOL0     H89365   6.363   9.970   6.566 -0.8789  1.1711 -0.2049
  662MOL0     H89366   6.562  10.286   6.741 -1.1791 -0.1178 -0.3410
  662MOL0     H89367   6.855   9.617   6.557 -1.1210  0.7434 -4.0303
  662MOL0     H89368   6.966   9.496   6.728 -2.0127  1.1076 -2.0663
  662MOL0     H89369   6.830   9.490   6.854  0.8306  1.0861  0.1451
  662MOL0     H89370   6.909   9.344   6.802 -1.2510  0.3338  2.5683
  663MOL0     O89371   8.084  10.997   9.133  0.4254 -0.4586 -0.5958
  663MOL0     C89372   8.060  10.984   9.015  0.7214 -0.3599  0.2947
  663MOL0     O89373   7.958  11.054   8.945  0.0255  0.0384 -0.2650
  663MOL0     C89374   7.875  11.142   8.987  0.2744 -0.7307  0.9640
  663MOL0     C89375   7.808  11.229   8.889 -0.1139  0.2237 -0.3850
  663MOL0     C89376   7.724  11.333   8.928  0.5286  0.1810 -0.0956
  663MOL0     C89377   7.706  11.356   9.064 -0.1911  0.2673  0.5775
  663MOL0     O89378   7.636  11.461   9.119  0.4388 -0.4365 -0.1837
  663MOL0     C89379   7.533  11.525   9.046 -0.0092 -0.0524  1.1753
  663MOL0     C89380   7.420  11.567   9.142  0.3453 -0.3560 -0.5003
  663MOL0     C89381   7.335  11.669   9.075 -0.1856  0.4990 -0.1449
  663MOL0     C89382   7.219  11.604   9.003 -0.1000  0.5277 -0.0767
  663MOL0     C89383   7.096  11.576   9.087  1.4150 -0.6539 -0.9467
  663MOL0     C89384   6.990  11.482   9.020  0.1351  0.7493 -0.3016
  663MOL0     C89385   6.888  11.432   9.134 -0.6315 -0.0737  0.4789
  663MOL0     C89386   6.821  11.299   9.117  0.7783 -0.5671  0.4992
  663MOL0     N89387   6.739  11.261   9.232 -0.2836  1.1911  0.6742
  663MOL0     C89388   6.626  11.174   9.224 -0.3447  0.4527  0.1539
  663MOL0     C89389   6.604  11.150   9.362 -0.9370 -0.7233  0.6793
  663MOL0     C89390   6.504  11.045   9.406 -0.5121 -0.5572 -0.5340
  663MOL0     C89391   6.561  10.915   9.462  0.2312 -0.1623  0.2424
  663MOL0     C89392   6.661  10.917   9.574  0.1883  0.1962 -0.3639
  663MOL0     C89393   6.597  10.976   9.696  0.9093  0.1216  0.4109
  663MOL0     O89394   6.666  10.939   9.813  0.8847 -0.3383  0.0754
  663MOL0     C89395   6.645  10.812   9.861 -0.0902 -0.2633  0.4815
  663MOL0     C89396   6.560  10.709   9.811  0.5183 -0.0920  0.1052
  663MOL0     C89397   6.546  10.588   9.879  0.0023 -0.6662 -0.0355
  663MOL0     C89398   6.610  10.562  10.005 -1.1052 -0.8646  0.1913
  663MOL0     C89399   6.590  10.435  10.078 -0.0462  0.1751 -0.5359
  663MOL0     O89400   6.504  10.337  10.025  0.3260 -0.2955 -0.0040
  663MOL0     C89401   6.459  10.233  10.101  0.4425 -0.0282  0.4515
  663MOL0     C89402   6.429  10.110  10.036 -0.4276  0.4244  0.1751
  663MOL0     C89403   6.407   9.992  10.110  0.7116 -0.3485  0.5308
  663MOL0     C89404   6.393   9.989  10.252 -0.2469  0.0490 -1.0913
  663MOL0     O89405   6.366   9.874  10.325 -0.2250  0.1516  0.0789
  663MOL0     C89406   6.426   9.860  10.453  0.8342 -0.7022  1.0921
  663MOL0     C89407   6.405   9.717  10.510  0.2812 -0.3750 -0.7386
  663MOL0     C89408   6.516   9.609  10.447  0.0898  0.8774  0.7815
  663MOL0     C89409   6.460   9.555  10.317  0.3998 -0.1885 -0.8609
  663MOL0     C89410   6.542   9.453  10.241  0.2171 -0.4166 -0.3289
  663MOL0     C89411   6.576   9.318  10.320 -0.0306 -0.6107 -0.6201
  663MOL0     C89412   6.693   9.249  10.252 -0.4752 -0.5744 -0.4473
  663MOL0     C89413   6.648   9.168  10.130  0.8677 -0.9886 -0.1719
  663MOL0    Cl89414   6.782   9.148  10.020  0.1620  0.2986  0.2778
  663MOL0     C89415   6.401  10.120  10.316 -0.1658 -0.5942 -0.0573
  663MOL0     C89416   6.430  10.238  10.244 -0.4258  0.6071 -0.0161
  663MOL0     O89417   6.643  10.436  10.185 -0.4307  0.5032 -0.1245
  663MOL0     C89418   6.710  10.656  10.042  0.2464  0.8395 -0.1097
  663MOL0     C89419   6.723  10.779   9.971 -0.5642 -0.2003  0.2651
  663MOL0     N89420   6.688  11.229   9.441  0.6707 -0.3275 -0.3276
  663MOL0     N89421   6.754  11.302   9.365  0.0420  0.2858 -1.1523
  663MOL0     C89422   7.766  11.273   9.162 -0.6361  0.3604  0.7420
  663MOL0     C89423   7.846  11.164   9.122 -0.3660  0.5561  0.6833
  663MOL0     C89424   8.121  10.867   8.949 -0.0821 -0.2612  0.4314
  663MOL0     C89425   8.158  10.759   9.024  0.4065 -0.1195 -1.0172
  663MOL0     C89426   8.205  10.638   8.965  0.4835 -0.9642 -1.2670
  663MOL0     C89427   8.239  10.631   8.832 -0.1743 -0.8063  0.0861
  663MOL0     O89428   8.285  10.504   8.778 -0.4593 -0.3902 -0.7929
  663MOL0     C89429   8.346  10.511   8.651 -0.3849  0.0728 -0.2564
  663MOL0     C89430   8.486  10.554   8.672  0.1689 -0.0598  0.2068
  663MOL0     C89431   8.561  10.446   8.750  0.4130  0.2903 -1.0183
  663MOL0     C89432   8.709  10.464   8.765 -0.4602 -0.5155  0.7877
  663MOL0     C89433   8.766  10.462   8.629 -0.1849  1.1722 -0.0871
  663MOL0     C89434   8.827  10.447   8.526  0.6949  0.8635 -0.4144
  663MOL0     C89435   8.196  10.749   8.753 -0.7547 -0.1298 -0.1294
  663MOL0     C89436   8.157  10.864   8.806  0.3650  0.5407 -0.2812
  663MOL0     C89437   8.121  10.976   8.716  0.0685  0.2929  0.0858
  663MOL0     H89438   7.829  11.199   8.786 -0.9550  0.6468 -0.6904
  663MOL0     H89439   7.678  11.394   8.851  1.4420  1.0582  0.0282
  663MOL0     H89440   7.582  11.605   8.991  1.9108 -2.6884 -1.2862
  663MOL0     H89441   7.497  11.470   8.958  1.9932  2.4001 -1.3664
  663MOL0     H89442   7.461  11.617   9.230 -0.3455 -0.0620 -0.3465
  663MOL0     H89443   7.367  11.482   9.186 -0.4032  1.1794  1.6934
  663MOL0     H89444   7.388  11.729   9.000  1.8850 -0.0368  0.8213
  663MOL0     H89445   7.300  11.740   9.150  2.5951  0.1111  1.6970
  663MOL0     H89446   7.184  11.669   8.922  1.3661 -1.0452 -2.1017
  663MOL0     H89447   7.262  11.516   8.954  0.2081 -0.3809  1.7719
  663MOL0     H89448   7.137  11.541   9.182  1.8740  4.2014  0.9472
  663MOL0     H89449   7.039  11.668   9.105 -1.6554 -2.5153 -0.4477
  663MOL0     H89450   6.940  11.540   8.942 -2.2282 -1.8087 -0.8416
  663MOL0     H89451   7.041  11.397   8.973  2.2630  1.3992  0.7017
  663MOL0     H89452   6.816  11.514   9.126 -0.6049  0.2851  3.1731
  663MOL0     H89453   6.945  11.430   9.227  3.5063 -0.6269 -1.7925
  663MOL0     H89454   6.764  11.298   9.023  1.4345 -0.9897  0.0987
  663MOL0     H89455   6.898  11.222   9.111  1.5727  0.2633 -4.3371
  663MOL0     H89456   6.578  11.119   9.144 -1.2551 -0.6472  1.4177
  663MOL0     H89457   6.429  11.083   9.475  0.4505 -1.3938  1.0563
  663MOL0     H89458   6.441  11.024   9.320 -1.8815  0.3481  0.2258
  663MOL0     H89459   6.479  10.848   9.491 -1.0708  0.9552 -0.7045
  663MOL0     H89460   6.614  10.872   9.376  0.5400  1.2640 -0.3186
  663MOL0     H89461   6.759  10.966   9.564  2.3325 -2.3811  4.4039
  663MOL0     H89462   6.675  10.810   9.591 -0.1450  0.1290 -0.5163
  663MOL0     H89463   6.492  10.948   9.693 -0.3220  4.1542 -2.7587
  663MOL0     H89464   6.598  11.085   9.692 -1.9516  0.2106  0.0726
  663MOL0     H89465   6.507  10.721   9.717 -2.0027 -4.2593  0.7388
  663MOL0     H89466   6.476  10.508   9.859  0.6441 -1.1814 -0.2444
  663MOL0     H89467   6.430  10.108   9.928 -3.3877 -0.9602  0.0674
  663MOL0     H89468   6.403   9.896  10.059  0.8432  0.2739 -0.6774
  663MOL0     H89469   6.532   9.885  10.448  0.5023  0.8411  1.4261
  663MOL0     H89470   6.368   9.928  10.517  0.5116  1.5706 -1.4553
  663MOL0     H89471   6.406   9.721  10.619  0.3607  1.9658 -0.7822
  663MOL0     H89472   6.303   9.696  10.478 -0.7405  0.4603  1.7208
  663MOL0     H89473   6.616   9.644  10.420  0.2212  1.1262  1.5623
  663MOL0     H89474   6.517   9.529  10.521 -1.2456 -1.1546 -1.2824
  663MOL0     H89475   6.472   9.628  10.236  3.6715 -0.3673 -0.6483
  663MOL0     H89476   6.357   9.521  10.332  0.4166  0.2942  0.4326
  663MOL0     H89477   6.630   9.513  10.216 -0.8859  0.2791 -2.7472
  663MOL0     H89478   6.497   9.422  10.146 -1.9073 -2.6597  1.2832
  663MOL0     H89479   6.600   9.336  10.425 -2.4701  2.4227 -0.4637
  663MOL0     H89480   6.494   9.246  10.313 -0.7837 -0.1840  2.4066
  663MOL0     H89481   6.733   9.183  10.329 -1.3786 -0.2751  0.3062
  663MOL0     H89482   6.770   9.324  10.236 -2.5788  1.6154 -0.8153
  663MOL0     H89483   6.604   9.075  10.168 -1.8336 -0.7333 -2.3511
  663MOL0     H89484   6.572   9.222  10.073  2.1767  1.3399  0.1796
  663MOL0     H89485   6.377  10.127  10.422 -0.3250 -1.7663  0.0059
  663MOL0     H89486   6.440  10.331  10.300  0.6738  1.3712 -1.4170
  663MOL0     H89487   6.782  10.647  10.123  3.2604  1.0628 -2.5822
  663MOL0     H89488   6.798  10.849  10.006 -0.5208 -1.3430  2.6089
  663MOL0     H89489   7.731  11.278   9.265 -1.1529 -2.5266  0.7951
  663MOL0     H89490   7.874  11.092   9.198  0.6611 -0.7395 -0.8609
  663MOL0     H89491   8.142  10.769   9.131  2.3259 -2.1907 -0.4587
  663MOL0     H89492   8.233  10.561   9.036  0.1812 -0.3001 -0.4116
  663MOL0     H89493   8.302  10.582   8.580  1.3903  1.3210 -0.1636
  663MOL0     H89494   8.344  10.403   8.633  0.1251 -0.3851  2.1540
  663MOL0     H89495   8.489  10.649   8.727 -1.0876  0.0040  0.1960
  663MOL0     H89496   8.533  10.566   8.574 -1.9313 -0.2665 -0.8922
  663MOL0     H89497   8.552  10.351   8.697 -1.3938  0.0760 -0.3882
  663MOL0     H89498   8.521  10.428   8.850  0.0490  0.0013 -1.2098
  663MOL0     H89499   8.730  10.563   8.806 -3.4203  0.7155 -0.3916
  663MOL0     H89500   8.752  10.387   8.830  1.3698 -0.2098 -0.0004
  663MOL0     H89501   8.879  10.455   8.432  0.1602  0.0687 -0.7967
  663MOL0     H89502   8.194  10.740   8.645  0.7229 -2.3842 -0.0441
  663MOL0     H89503   8.137  11.081   8.744 -2.1744  0.3471  1.4464
  663MOL0     H89504   8.185  10.978   8.628  0.5094 -0.2869  0.3840
  663MOL0     H89505   8.016  10.966   8.688  0.4653  4.7748 -4.3557
  664MOL0     O89506   7.533  10.101   1.012  0.5818 -0.5288  0.4166
  664MOL0     C89507   7.561  10.007   0.935 -0.0396 -0.4202 -0.7503
  664MOL0     O89508   7.634  10.026   0.822  0.2805 -1.1092 -0.2029
  664MOL0     C89509   7.719  10.128   0.829  0.2479 -1.0289 -0.2239
  664MOL0     C89510   7.812  10.159   0.937  0.5914 -0.3323  0.6764
  664MOL0     C89511   7.917  10.261   0.928  0.0269 -0.1582 -0.3937
  664MOL0     C89512   7.924  10.339   0.813  0.3605  0.1835 -0.1947
  664MOL0     O89513   8.018  10.432   0.797 -1.1085 -0.1558 -0.3407
  664MOL0     C89514   7.969  10.570   0.800  0.5624  0.2257  0.0599
  664MOL0     C89515   8.055  10.650   0.907 -0.3431  0.2171  0.8536
  664MOL0     C89516   8.015  10.794   0.927  0.9450 -0.0405  0.9550
  664MOL0     C89517   8.102  10.862   1.029 -0.1920  1.0623 -0.7955
  664MOL0     C89518   8.036  11.000   1.063  0.0144  0.0877  0.7298
  664MOL0     C89519   8.119  11.050   1.186 -0.5014  0.0089  0.3542
  664MOL0     C89520   8.027  11.137   1.273  0.4623  0.7873 -0.4757
  664MOL0     C89521   8.085  11.131   1.420  0.2578  0.7421 -0.0367
  664MOL0     N89522   7.998  11.202   1.512 -0.1555 -0.3403 -0.5459
  664MOL0     C89523   7.942  11.320   1.485  0.0107  0.1229 -0.8298
  664MOL0     C89524   7.842  11.332   1.579 -1.2693  0.0732  0.9652
  664MOL0     C89525   7.730  11.433   1.598  0.1875  0.2201  1.4307
  664MOL0     C89526   7.583  11.378   1.598 -0.4711 -0.1468  0.3870
  664MOL0     C89527   7.550  11.314   1.726 -0.6699 -0.4824  0.0656
  664MOL0     C89528   7.453  11.194   1.720 -0.7855  0.3415 -0.4600
  664MOL0     O89529   7.330  11.233   1.657  0.2451 -1.0613 -0.3950
  664MOL0     C89530   7.226  11.280   1.731  0.8378  0.1928 -0.1902
  664MOL0     C89531   7.168  11.404   1.699 -0.0810  0.2530  0.0752
  664MOL0     C89532   7.055  11.449   1.769 -0.2919 -0.1186 -0.5580
  664MOL0     C89533   6.991  11.360   1.861 -0.3291 -0.7709  0.0957
  664MOL0     C89534   6.865  11.392   1.927 -0.7512 -1.0627 -0.3413
  664MOL0     O89535   6.824  11.518   1.920 -0.0961 -0.0932  0.0041
  664MOL0     C89536   6.694  11.564   1.944  0.1987  1.4502 -0.5730
  664MOL0     C89537   6.593  11.484   1.997  0.8062  0.2600  0.4029
  664MOL0     C89538   6.456  11.518   1.983  0.2346 -0.2779  0.1842
  664MOL0     C89539   6.421  11.627   1.899  0.6217  0.3473 -0.3143
  664MOL0     O89540   6.280  11.649   1.881 -0.4320 -0.9760 -1.0843
  664MOL0     C89541   6.236  11.721   1.770  0.3955  0.8177  0.4441
  664MOL0     C89542   6.088  11.678   1.749  0.3453  0.1597  0.3300
  664MOL0     C89543   6.015  11.763   1.636 -0.4295 -0.0589 -0.1628
  664MOL0     C89544   5.981  11.673   1.520  1.5366 -1.0512  0.8236
  664MOL0     C89545   5.923  11.745   1.388  0.7989  0.0612  0.9659
  664MOL0     C89546   5.785  11.814   1.396 -0.0415  0.0165 -0.4396
  664MOL0     C89547   5.788  11.953   1.454  1.1859  0.2785  1.0300
  664MOL0     C89548   5.664  11.996   1.540 -0.7383 -0.6669 -0.7083
  664MOL0    Cl89549   5.525  12.006   1.438 -0.0431  0.4815  0.1493
  664MOL0     C89550   6.519  11.701   1.842 -0.1652  0.4044  0.1181
  664MOL0     C89551   6.655  11.682   1.873 -0.0390  0.4794  0.0548
  664MOL0     O89552   6.807  11.301   1.992  0.6502 -0.5185  0.6639
  664MOL0     C89553   7.040  11.227   1.872  1.2685  0.1583  0.8687
  664MOL0     C89554   7.165  11.188   1.818  0.8642  0.1363 -0.5087
  664MOL0     N89555   7.861  11.230   1.667  0.2962 -1.1117 -1.7740
  664MOL0     N89556   7.954  11.154   1.629  0.1025  1.1370 -0.2639
  664MOL0     C89557   7.838  10.303   0.709 -0.4381  1.1909  0.0268
  664MOL0     C89558   7.738  10.205   0.721 -0.7213  0.0640  0.0992
  664MOL0     C89559   7.488   9.878   0.950 -0.1791 -0.4308 -0.3584
  664MOL0     C89560   7.438   9.851   1.075 -0.1870 -0.4269  0.1520
  664MOL0     C89561   7.378   9.725   1.107  0.0906 -0.0463  0.1275
  664MOL0     C89562   7.341   9.623   1.005 -0.6295 -0.3110 -0.1240
  664MOL0     O89563   7.273   9.511   1.037  0.3099  0.7624 -0.1445
  664MOL0     C89564   7.174   9.445   0.948  0.2238  0.0545 -0.1712
  664MOL0     C89565   7.052   9.527   0.950  1.2468 -0.3417  0.9304
  664MOL0     C89566   6.956   9.447   0.860  0.4839 -0.1301 -0.2955
  664MOL0     C89567   6.841   9.533   0.817  1.4947 -0.1018  0.4635
  664MOL0     C89568   6.772   9.482   0.697  1.0182  0.1575 -0.7162
  664MOL0     C89569   6.725   9.451   0.596 -0.3663  0.1549 -0.7751
  664MOL0     C89570   7.383   9.665   0.883  0.6540  0.5631  0.9172
  664MOL0     C89571   7.447   9.786   0.849 -0.8218  0.1733 -0.6268
  664MOL0     C89572   7.472   9.815   0.707 -0.2660  0.2085  1.0588
  664MOL0     H89573   7.806  10.097   1.026 -2.2382  0.8826  1.4660
  664MOL0     H89574   7.992  10.274   1.005 -1.5393 -2.9328  1.7837
  664MOL0     H89575   7.975  10.620   0.702 -0.8191  0.3565  0.0232
  664MOL0     H89576   7.863  10.566   0.828  0.8731 -1.9832  1.1297
  664MOL0     H89577   8.161  10.649   0.878 -0.0781  3.3747  1.3586
  664MOL0     H89578   8.048  10.601   1.004 -0.0615 -0.7481  0.4061
  664MOL0     H89579   7.910  10.796   0.957  1.8298  1.4570  4.4136
  664MOL0     H89580   8.028  10.843   0.830  0.8750 -0.7549  0.5809
  664MOL0     H89581   8.094  10.801   1.120 -4.2725  1.9109 -0.4151
  664MOL0     H89582   8.207  10.866   1.000  0.9569 -0.8586  2.5017
  664MOL0     H89583   8.035  11.072   0.981 -1.2468  0.0690  0.7103
  664MOL0     H89584   7.932  10.992   1.096 -1.6254  0.4363 -3.5961
  664MOL0     H89585   8.169  10.973   1.246  0.6661  0.6129  0.1767
  664MOL0     H89586   8.204  11.101   1.141 -0.2293  1.4097  2.3417
  664MOL0     H89587   7.923  11.104   1.272  1.2684 -2.0093  0.5866
  664MOL0     H89588   8.040  11.232   1.221 -0.5204 -0.3590 -2.9644
  664MOL0     H89589   8.087  11.027   1.453 -0.9452  0.6847 -0.1167
  664MOL0     H89590   8.185  11.176   1.411 -0.9287  3.3310 -1.2212
  664MOL0     H89591   7.960  11.380   1.396 -1.7044 -0.5879 -1.6961
  664MOL0     H89592   7.730  11.482   1.695 -0.3240  4.0371 -0.3096
  664MOL0     H89593   7.752  11.510   1.524 -1.7138  1.9043  2.5207
  664MOL0     H89594   7.507  11.456   1.589  0.9416  1.3356  0.9180
  664MOL0     H89595   7.562  11.308   1.516 -1.5876  2.8462 -2.1132
  664MOL0     H89596   7.510  11.390   1.793  3.8025  0.0930  2.4650
  664MOL0     H89597   7.641  11.276   1.774 -0.0065  0.9602 -0.0047
  664MOL0     H89598   7.427  11.169   1.823  0.7079  3.6402  0.8432
  664MOL0     H89599   7.499  11.109   1.667 -0.2433  1.1730 -1.3614
  664MOL0     H89600   7.209  11.477   1.630  2.9294  0.4406  1.8517
  664MOL0     H89601   7.015  11.547   1.744  1.3969  0.6818 -0.2735
  664MOL0     H89602   6.615  11.394   2.054  2.2672 -0.2527 -0.8910
  664MOL0     H89603   6.383  11.461   2.040  1.0083 -2.4470 -0.8508
  664MOL0     H89604   6.240  11.825   1.805 -2.9456  1.4285 -0.6160
  664MOL0     H89605   6.289  11.717   1.675  0.2532  0.4480  0.3767
  664MOL0     H89606   6.079  11.577   1.709  0.2048  0.9540 -1.7359
  664MOL0     H89607   6.027  11.685   1.840 -1.6444 -0.7334 -0.8773
  664MOL0     H89608   5.920  11.802   1.676 -1.1041 -3.5857  2.1839
  664MOL0     H89609   6.079  11.846   1.606 -0.2337 -0.3559 -0.5823
  664MOL0     H89610   5.917  11.594   1.561 -1.6108  1.1281  0.5183
  664MOL0     H89611   6.074  11.629   1.484  0.8673  1.4070 -5.1176
  664MOL0     H89612   5.904  11.667   1.314  0.7501  0.6613  0.3405
  664MOL0     H89613   5.986  11.823   1.344 -0.2741  0.8892  0.8347
  664MOL0     H89614   5.732  11.814   1.300 -2.2059 -0.8701  0.6918
  664MOL0     H89615   5.722  11.754   1.462  1.2469  0.2032  1.0243
  664MOL0     H89616   5.801  12.027   1.374 -0.8891 -0.4114 -0.0316
  664MOL0     H89617   5.876  11.954   1.518  2.6783  1.2492 -0.9129
  664MOL0     H89618   5.639  11.923   1.617 -0.8968 -1.7972 -1.7927
  664MOL0     H89619   5.681  12.097   1.579  0.6079  0.0867 -3.0180
  664MOL0     H89620   6.493  11.794   1.793  1.2138 -0.3138 -2.1460
  664MOL0     H89621   6.738  11.735   1.827  0.5766 -1.2869 -0.9643
  664MOL0     H89622   6.985  11.157   1.934 -0.3519  2.4011  2.1570
  664MOL0     H89623   7.187  11.082   1.829 -0.8237 -0.3003 -1.0660
  664MOL0     H89624   7.860  10.351   0.614  0.3356 -0.4128 -0.6257
  664MOL0     H89625   7.694  10.176   0.626 -0.9074 -0.2964  0.2911
  664MOL0     H89626   7.451   9.928   1.150  1.1063 -0.8371  0.3612
  664MOL0     H89627   7.352   9.701   1.209  0.2232  1.6604  0.5840
  664MOL0     H89628   7.150   9.345   0.985  3.0105 -0.2649  1.0852
  664MOL0     H89629   7.219   9.424   0.851 -0.4724  2.8074 -1.1730
  664MOL0     H89630   7.071   9.626   0.907 -3.2118 -0.3946 -1.8887
  664MOL0     H89631   7.000   9.538   1.046  1.5352  2.9653  0.8505
  664MOL0     H89632   6.912   9.376   0.931  2.2131 -0.3770  0.5959
  664MOL0     H89633   7.005   9.386   0.784 -0.2566 -0.2194 -0.7040
  664MOL0     H89634   6.766   9.526   0.896  2.7036 -2.6225  1.4902
  664MOL0     H89635   6.861   9.640   0.809 -0.9005  0.2815 -2.6234
  664MOL0     H89636   6.681   9.422   0.502 -1.8894 -1.3229  0.3423
  664MOL0     H89637   7.359   9.600   0.799  1.4354  1.6857 -0.2227
  664MOL0     H89638   7.451   9.918   0.678  0.5950  0.4848  1.3995
  664MOL0     H89639   7.575   9.792   0.678 -0.3320  0.6472  0.4467
  664MOL0     H89640   7.410   9.759   0.636 -0.0527 -0.7619  1.6093
  665MOL0     O89641   7.739   2.507   8.817 -1.6018 -0.1252 -0.0921
  665MOL0     C89642   7.643   2.560   8.767 -0.2048 -0.6708 -0.2135
  665MOL0     O89643   7.541   2.490   8.708 -0.2755  0.4158 -0.1954
  665MOL0     C89644   7.530   2.350   8.705  0.0380 -1.4426 -0.4878
  665MOL0     C89645   7.603   2.267   8.624  0.2850  0.6716 -0.2834
  665MOL0     C89646   7.572   2.128   8.624  0.2334 -0.6958 -0.3758
  665MOL0     C89647   7.474   2.073   8.706 -0.1776 -0.2428 -0.7316
  665MOL0     O89648   7.471   1.933   8.706 -0.6141 -0.2796  0.8811
  665MOL0     C89649   7.470   1.860   8.823  0.5812 -0.7310  0.3003
  665MOL0     C89650   7.409   1.724   8.781 -0.3807 -0.2977 -0.6957
  665MOL0     C89651   7.519   1.639   8.712  0.2063  0.3053 -0.0587
  665MOL0     C89652   7.482   1.490   8.691  0.4085  0.6945  0.9443
  665MOL0     C89653   7.468   1.409   8.813 -0.7935 -0.5165  0.8432
  665MOL0     C89654   7.498   1.261   8.779  1.2368 -0.7620  0.2310
  665MOL0     C89655   7.463   1.177   8.905 -0.2934  1.2370 -0.5022
  665MOL0     C89656   7.574   1.181   9.017 -0.3376  0.0806 -0.5593
  665MOL0     N89657   7.527   1.107   9.138 -0.3464  0.8233  1.1443
  665MOL0     C89658   7.593   1.021   9.225 -0.0722  0.5018  0.0960
  665MOL0     C89659   7.495   0.983   9.316 -1.5054 -0.5336  0.5578
  665MOL0     C89660   7.504   0.877   9.420  0.5473  0.2356 -0.5469
  665MOL0     C89661   7.535   0.948   9.551 -0.1663  0.2518  0.5285
  665MOL0     C89662   7.469   0.882   9.677 -0.1656  0.0798 -0.1617
  665MOL0     C89663   7.535   0.754   9.698 -0.5739  0.6519  0.5116
  665MOL0     O89664   7.466   0.677   9.808  0.3517  0.5587  0.1269
  665MOL0     C89665   7.506   0.546   9.819 -0.5064  0.0022  0.0474
  665MOL0     C89666   7.441   0.480   9.921 -0.8428 -0.4192 -0.2603
  665MOL0     C89667   7.483   0.351   9.956 -0.3035 -1.4937 -0.1911
  665MOL0     C89668   7.586   0.282   9.891 -0.6365 -0.6561  0.4870
  665MOL0     C89669   7.609   0.139   9.917 -0.1756 -0.0634 -0.0330
  665MOL0     O89670   7.702   0.082   9.845  0.7259  0.2868  0.2241
  665MOL0     C89671   7.725  -0.046   9.877  0.0398 -0.1350 -0.0326
  665MOL0     C89672   7.818  -0.078   9.973  0.0306 -0.1429  0.0297
  665MOL0     C89673   7.811  -0.210  10.023 -0.0372  0.7205 -0.1620
  665MOL0     C89674   7.728  -0.310   9.960 -0.8085 -0.8771 -0.1533
  665MOL0     O89675   7.737  -0.447   9.996 -0.1591 -0.5105  0.1410
  665MOL0     C89676   7.872  -0.496   9.993  0.1272 -0.6766 -0.2679
  665MOL0     C89677   7.889  -0.597   9.876  0.0898  0.9096  0.2369
  665MOL0     C89678   7.813  -0.729   9.879  0.0389  0.6634  0.5983
  665MOL0     C89679   7.875  -0.818   9.768  0.0449  0.7616  0.0154
  665MOL0     C89680   7.800  -0.950   9.736  0.6766 -0.6979  0.5184
  665MOL0     C89681   7.855  -1.018   9.608  0.2738 -0.0105  0.2531
  665MOL0     C89682   7.746  -1.035   9.498  0.2820  0.4181 -0.0800
  665MOL0     C89683   7.701  -0.896   9.443  0.0783  0.1813 -0.4838
  665MOL0    Cl89684   7.833  -0.806   9.368 -0.0309 -0.7905 -0.0098
  665MOL0     C89685   7.658  -0.272   9.846  0.0806  0.2257  0.0813
  665MOL0     C89686   7.643  -0.144   9.807 -1.2519  0.5099  0.0454
  665MOL0     O89687   7.521   0.080   9.985  0.0774  0.0410  0.0050
  665MOL0     C89688   7.657   0.349   9.783  0.5189  0.0662  0.7805
  665MOL0     C89689   7.615   0.478   9.749  0.0728  0.7201  0.0330
  665MOL0     N89690   7.380   1.039   9.278 -0.7555 -0.1260 -0.6258
  665MOL0     N89691   7.403   1.119   9.182  0.4507  0.7811 -0.4180
  665MOL0     C89692   7.401   2.157   8.790 -0.0337 -0.3357  0.1373
  665MOL0     C89693   7.444   2.294   8.796 -1.1169 -0.2212  0.8609
  665MOL0     C89694   7.638   2.705   8.742 -0.0470  1.0248 -0.7187
  665MOL0     C89695   7.560   2.739   8.624 -0.3262 -1.6152 -0.0062
  665MOL0     C89696   7.539   2.872   8.587  0.4798 -0.1345 -0.5704
  665MOL0     C89697   7.600   2.977   8.656 -0.6133  0.7813  0.0995
  665MOL0     O89698   7.571   3.111   8.630 -0.1346  0.2289  0.5991
  665MOL0     C89699   7.485   3.140   8.523 -0.2773 -0.2333 -0.6965
  665MOL0     C89700   7.480   3.292   8.521 -0.8953  0.3363 -0.5033
  665MOL0     C89701   7.408   3.341   8.399  0.0025  0.1155 -0.6290
  665MOL0     C89702   7.459   3.485   8.376 -0.4378 -0.6831 -0.6526
  665MOL0     C89703   7.378   3.541   8.266  0.6095 -0.2238 -0.1664
  665MOL0     C89704   7.308   3.579   8.178 -0.0047 -0.0484  0.9945
  665MOL0     C89705   7.686   2.942   8.756  0.5248 -0.2121  0.0038
  665MOL0     C89706   7.692   2.809   8.808 -0.7490  1.8365 -0.8302
  665MOL0     C89707   7.754   2.795   8.948 -0.7658 -1.4495  0.3660
  665MOL0     H89708   7.685   2.315   8.572  0.2451  0.1399 -0.8444
  665MOL0     H89709   7.630   2.064   8.557 -2.0573 -1.6128 -1.5811
  665MOL0     H89710   7.574   1.852   8.857  1.2441  2.7651 -0.5116
  665MOL0     H89711   7.407   1.903   8.901  1.3302  2.3133 -0.6222
  665MOL0     H89712   7.322   1.738   8.717 -0.1544 -3.5461 -1.9154
  665MOL0     H89713   7.380   1.669   8.871 -1.2024 -2.6593 -2.3124
  665MOL0     H89714   7.604   1.649   8.780  1.2192  0.8820 -1.3535
  665MOL0     H89715   7.548   1.695   8.623 -2.4488  5.6579  2.0270
  665MOL0     H89716   7.390   1.477   8.634  0.8302  2.5157 -0.2196
  665MOL0     H89717   7.546   1.437   8.620 -2.1005 -0.5525 -0.5304
  665MOL0     H89718   7.536   1.450   8.889 -1.2321  2.6558 -0.3641
  665MOL0     H89719   7.371   1.435   8.855 -1.0886  0.6282 -0.5168
  665MOL0     H89720   7.427   1.230   8.702 -1.5373 -0.5586  2.5248
  665MOL0     H89721   7.596   1.230   8.741  0.6406  0.3293 -2.4502
  665MOL0     H89722   7.436   1.073   8.885 -1.0939  1.3204  0.0883
  665MOL0     H89723   7.367   1.210   8.947 -0.7669 -1.2619  0.5349
  665MOL0     H89724   7.672   1.147   8.982  0.9575  1.3760  1.5331
  665MOL0     H89725   7.587   1.287   9.044 -1.4327  0.3763 -1.1384
  665MOL0     H89726   7.698   0.993   9.235 -0.1721  0.8370  3.1251
  665MOL0     H89727   7.409   0.822   9.421  0.6397  0.0745 -0.5204
  665MOL0     H89728   7.587   0.809   9.399 -0.5634 -1.8150  1.2224
  665MOL0     H89729   7.644   0.952   9.566 -0.2876 -2.8644  3.2005
  665MOL0     H89730   7.484   1.044   9.538 -1.9720 -0.9694 -2.5946
  665MOL0     H89731   7.361   0.869   9.664 -0.1822  0.9686 -1.0581
  665MOL0     H89732   7.479   0.937   9.771  0.1801 -0.1196 -0.0793
  665MOL0     H89733   7.635   0.762   9.741 -0.0380  0.2202 -0.6183
  665MOL0     H89734   7.533   0.708   9.598 -1.9706  4.6743 -1.5303
  665MOL0     H89735   7.364   0.532   9.977 -1.1164  0.9297 -1.7848
  665MOL0     H89736   7.422   0.304  10.032 -1.0983 -0.3564 -0.1034
  665MOL0     H89737   7.879  -0.006  10.026  0.3887 -1.1372  1.0126
  665MOL0     H89738   7.865  -0.234  10.114  3.3691  1.1497 -1.8908
  665MOL0     H89739   7.946  -0.418   9.969  1.5721 -1.2662  2.0058
  665MOL0     H89740   7.903  -0.536  10.090 -3.9624 -2.3140  0.5775
  665MOL0     H89741   7.856  -0.540   9.788 -0.5419  1.0256  0.5465
  665MOL0     H89742   7.996  -0.619   9.865  0.3211  0.5578  2.7385
  665MOL0     H89743   7.843  -0.780   9.971 -1.9601  2.4665  2.3533
  665MOL0     H89744   7.705  -0.723   9.870  0.0073  0.5652  0.8843
  665MOL0     H89745   7.977  -0.848   9.794 -0.5885 -1.0274  0.6212
  665MOL0     H89746   7.885  -0.777   9.667 -3.0844 -1.8336 -1.5649
  665MOL0     H89747   7.694  -0.924   9.726  1.4217  2.5484  0.0677
  665MOL0     H89748   7.816  -1.022   9.817  1.1714  1.9889  2.9546
  665MOL0     H89749   7.946  -0.975   9.565  1.2156 -1.9522  0.1986
  665MOL0     H89750   7.878  -1.123   9.628  0.8186 -0.0414 -0.4761
  665MOL0     H89751   7.658  -1.082   9.544 -0.7082  2.9208  0.7149
  665MOL0     H89752   7.787  -1.095   9.416  0.6494  1.0956 -0.4030
  665MOL0     H89753   7.627  -0.928   9.369 -1.0563  0.7711  0.3678
  665MOL0     H89754   7.647  -0.843   9.523  1.6454 -1.9329  2.1478
  665MOL0     H89755   7.605  -0.347   9.788 -0.0407 -0.9408  1.6217
  665MOL0     H89756   7.574  -0.121   9.726 -0.4837 -2.3813 -1.5459
  665MOL0     H89757   7.738   0.298   9.732  1.0510 -0.9446  2.5452
  665MOL0     H89758   7.665   0.525   9.665  1.6980  1.1204  1.1744
  665MOL0     H89759   7.333   2.123   8.868  3.3665 -0.4958  3.3438
  665MOL0     H89760   7.380   2.359   8.855  0.4311  1.8987  0.3093
  665MOL0     H89761   7.498   2.670   8.567  0.4374 -1.0606 -1.5785
  665MOL0     H89762   7.466   2.897   8.511 -1.1133  2.7877  1.6827
  665MOL0     H89763   7.387   3.094   8.533 -0.4562  0.5680  2.2156
  665MOL0     H89764   7.534   3.098   8.434 -1.7880  2.1020 -2.7727
  665MOL0     H89765   7.584   3.326   8.526 -0.4126 -0.9356 -1.2826
  665MOL0     H89766   7.440   3.321   8.618 -0.1256 -0.2995  0.0142
  665MOL0     H89767   7.300   3.342   8.417  0.0276  3.1090 -0.1326
  665MOL0     H89768   7.427   3.282   8.309 -3.6484  1.2423 -2.3220
  665MOL0     H89769   7.446   3.541   8.469  2.7154  2.0087 -1.6500
  665MOL0     H89770   7.565   3.487   8.349 -0.3370 -0.0423 -0.2136
  665MOL0     H89771   7.246   3.623   8.103  0.8119  1.0816  0.9466
  665MOL0     H89772   7.734   3.020   8.814  1.0240 -1.7291  1.7253
  665MOL0     H89773   7.708   2.878   9.004 -2.3062 -0.9098 -1.5704
  665MOL0     H89774   7.750   2.690   8.977  2.0502 -1.8636 -0.5139
  665MOL0     H89775   7.862   2.801   8.934 -0.1096 -3.4413  3.5948
  666MOL0     O89776   8.767  10.738   3.309  0.3405  0.6051 -0.3083
  666MOL0     C89777   8.727  10.691   3.202  0.6770  0.9409  0.2029
  666MOL0     O89778   8.663  10.760   3.104 -0.3316  0.6123  0.2649
  666MOL0     C89779   8.683  10.891   3.102  0.4681  0.1638 -0.4710
  666MOL0     C89780   8.748  10.947   2.994  0.0296 -0.1657  0.3048
  666MOL0     C89781   8.762  11.086   2.985  0.6042 -0.1322 -0.0007
  666MOL0     C89782   8.730  11.166   3.095 -0.8910 -0.4492 -0.1578
  666MOL0     O89783   8.732  11.299   3.096  0.7880 -0.5336  0.1894
  666MOL0     C89784   8.718  11.368   2.972 -0.6540  0.0142 -0.2982
  666MOL0     C89785   8.726  11.516   3.009 -0.3856  0.4010  0.3417
  666MOL0     C89786   8.613  11.566   3.103  0.0041 -0.4405  0.5009
  666MOL0     C89787   8.477  11.583   3.028 -0.6611  0.3609  0.5946
  666MOL0     C89788   8.375  11.639   3.128 -0.0229 -0.6437 -0.2921
  666MOL0     C89789   8.381  11.795   3.164 -0.1972  0.0209  0.0222
  666MOL0     C89790   8.400  11.885   3.036 -0.2478 -0.5118  0.2255
  666MOL0     C89791   8.275  11.895   2.944 -1.7471 -0.5184 -0.1493
  666MOL0     N89792   8.174  11.961   3.024 -0.0448 -0.0378 -0.4437
  666MOL0     C89793   8.057  11.905   3.075 -0.3772  0.7787 -0.1680
  666MOL0     C89794   7.975  12.004   3.109 -0.1455 -0.2683  0.5988
  666MOL0     C89795   7.833  11.987   3.165 -0.8524 -0.5330 -0.4714
  666MOL0     C89796   7.729  12.054   3.082  1.4344  0.7495  0.3199
  666MOL0     C89797   7.592  12.009   3.134  0.0704  0.0055  0.5773
  666MOL0     C89798   7.479  12.093   3.073  0.6842  0.5718 -0.5897
  666MOL0     O89799   7.354  12.024   3.089  0.0505 -0.3833  0.1102
  666MOL0     C89800   7.242  12.079   3.041 -0.2215 -0.5773 -0.6397
  666MOL0     C89801   7.127  12.001   3.064  0.0107 -1.2457  0.5762
  666MOL0     C89802   6.998  12.048   3.026 -0.4872 -1.3337  0.3206
  666MOL0     C89803   6.991  12.186   2.976 -0.5315  0.5781 -0.5634
  666MOL0     C89804   6.861  12.245   2.957  0.9268 -0.4994  0.8469
  666MOL0     O89805   6.774  12.240   3.059  0.7983  0.1739 -0.2557
  666MOL0     C89806   6.654  12.316   3.046 -0.9316 -1.3679 -0.1877
  666MOL0     C89807   6.551  12.269   2.961 -0.1325 -1.1900  0.5517
  666MOL0     C89808   6.432  12.349   2.940  0.7928  0.8413  0.3615
  666MOL0     C89809   6.413  12.469   3.005  0.4615  0.0580  0.9306
  666MOL0     O89810   6.312  12.557   2.985 -0.5071 -0.0322  0.2487
  666MOL0     C89811   6.186  12.501   2.988 -0.2505  0.5171  0.6452
  666MOL0     C89812   6.088  12.619   2.988 -0.2682  1.2498 -0.8658
  666MOL0     C89813   5.960  12.572   3.047  1.0960 -0.8510 -0.3704
  666MOL0     C89814   5.851  12.679   3.047 -0.0917 -0.6751 -0.1954
  666MOL0     C89815   5.725  12.635   3.126  0.7354 -0.7607 -0.0001
  666MOL0     C89816   5.614  12.749   3.127 -0.6310 -0.2806  0.0822
  666MOL0     C89817   5.654  12.895   3.152 -0.3181 -0.4717  0.8315
  666MOL0     C89818   5.538  12.974   3.202  1.1149 -0.2890  0.4260
  666MOL0    Cl89819   5.462  12.920   3.362  0.3586 -0.3709 -0.4553
  666MOL0     C89820   6.511  12.507   3.097 -0.6630 -0.1947  0.7829
  666MOL0     C89821   6.632  12.434   3.110 -0.2165 -0.4149 -0.3681
  666MOL0     O89822   6.848  12.321   2.856 -0.8699 -0.1049 -0.1979
  666MOL0     C89823   7.111  12.256   2.959  0.5256  0.4195  0.2689
  666MOL0     C89824   7.242  12.205   2.990  0.4167 -0.0675  0.2900
  666MOL0     N89825   8.035  12.119   3.068  0.2104  0.4648 -0.3194
  666MOL0     N89826   8.148  12.092   3.019  0.5074 -0.1905  0.1343
  666MOL0     C89827   8.660  11.114   3.203 -0.5134 -0.5884 -0.3005
  666MOL0     C89828   8.634  10.976   3.204  0.2883 -0.3443 -0.0038
  666MOL0     C89829   8.733  10.541   3.189 -0.3872 -0.0700  0.4412
  666MOL0     C89830   8.663  10.488   3.085  0.0110 -0.3640 -1.1322
  666MOL0     C89831   8.658  10.345   3.067  1.0767 -0.3295 -0.5561
  666MOL0     C89832   8.715  10.254   3.154 -0.4440  0.3393  0.3257
  666MOL0     O89833   8.693  10.117   3.137  0.2606  0.1890  0.0743
  666MOL0     C89834   8.792  10.020   3.176  0.0859  0.6845 -0.7142
  666MOL0     C89835   8.733   9.872   3.178  0.0624  0.4556 -0.5496
  666MOL0     C89836   8.697   9.807   3.041  0.5790  0.5861  0.2292
  666MOL0     C89837   8.826   9.776   2.968  0.2469  0.1904 -0.7186
  666MOL0     C89838   8.805   9.712   2.840  0.5027  0.0850 -0.3465
  666MOL0     C89839   8.785   9.649   2.739 -0.0138 -0.0331  0.4669
  666MOL0     C89840   8.790  10.314   3.256 -0.2850 -0.6079  0.0165
  666MOL0     C89841   8.807  10.456   3.272  0.2067  0.5549  0.4764
  666MOL0     C89842   8.915  10.500   3.373  0.1406 -0.9028  1.0776
  666MOL0     H89843   8.783  10.888   2.910  0.0757  2.8662 -1.9810
  666MOL0     H89844   8.808  11.139   2.902 -0.8035  1.2955  0.0975
  666MOL0     H89845   8.813  11.352   2.919 -0.6841 -1.8528  0.1534
  666MOL0     H89846   8.628  11.334   2.920 -1.6217 -3.4310  3.1423
  666MOL0     H89847   8.711  11.582   2.923 -2.9555  0.7438  0.9703
  666MOL0     H89848   8.823  11.541   3.053  1.2464 -0.7292 -2.3322
  666MOL0     H89849   8.646  11.657   3.155  0.0561 -0.1292 -0.0670
  666MOL0     H89850   8.594  11.487   3.176 -3.9484  0.3506  0.5485
  666MOL0     H89851   8.483  11.634   2.932  0.1339  0.0617  0.4729
  666MOL0     H89852   8.460  11.481   2.992  1.6917  0.0257  0.2335
  666MOL0     H89853   8.280  11.610   3.083 -0.0103 -2.7635  0.9314
  666MOL0     H89854   8.387  11.598   3.228  3.4894  1.8050  0.4809
  666MOL0     H89855   8.298  11.832   3.224 -0.8873 -0.5804 -0.5469
  666MOL0     H89856   8.472  11.802   3.224  0.1765 -1.2838 -0.3498
  666MOL0     H89857   8.481  11.833   2.984  1.1234 -0.2437  2.0081
  666MOL0     H89858   8.432  11.985   3.067 -1.8659 -0.4163  1.7275
  666MOL0     H89859   8.305  11.963   2.864  1.2923 -2.2098 -0.6024
  666MOL0     H89860   8.248  11.801   2.895 -0.4823  0.0199 -2.0048
  666MOL0     H89861   8.032  11.802   3.098 -0.5032  0.7184 -0.5679
  666MOL0     H89862   7.803  11.882   3.173 -1.4126 -0.2296  3.6536
  666MOL0     H89863   7.849  12.026   3.266  0.9574  1.0127 -1.2982
  666MOL0     H89864   7.732  12.163   3.080 -2.1426  0.9992  1.8031
  666MOL0     H89865   7.736  12.027   2.976  2.0374  0.4506  0.4295
  666MOL0     H89866   7.594  12.014   3.243 -2.6116 -1.8848  0.8299
  666MOL0     H89867   7.569  11.909   3.095 -0.1476 -0.0407  0.8179
  666MOL0     H89868   7.499  12.112   2.967 -0.4068  1.6242 -0.6286
  666MOL0     H89869   7.486  12.191   3.122 -1.7492 -0.1154  1.3471
  666MOL0     H89870   7.127  11.902   3.109 -0.5111 -1.3866  0.2745
  666MOL0     H89871   6.913  11.985   3.049 -1.0573 -0.4578  0.6446
  666MOL0     H89872   6.566  12.179   2.903 -3.1004 -1.8620  0.6955
  666MOL0     H89873   6.355  12.309   2.876 -2.0902  1.3759  3.2227
  666MOL0     H89874   6.158  12.441   2.902 -0.8173  2.7785 -0.8427
  666MOL0     H89875   6.167  12.447   3.081  0.0224 -0.9901 -0.1379
  666MOL0     H89876   6.141  12.697   3.044  3.0178  1.0744 -3.4172
  666MOL0     H89877   6.073  12.655   2.886  1.3569  1.1794 -1.1611
  666MOL0     H89878   5.937  12.476   3.002 -1.7832 -0.8099  0.8283
  666MOL0     H89879   5.979  12.553   3.153 -1.8554  0.5788  0.5389
  666MOL0     H89880   5.822  12.709   2.946 -0.7327  1.6017  0.5952
  666MOL0     H89881   5.901  12.772   3.078  0.8536 -0.6073 -1.8203
  666MOL0     H89882   5.761  12.614   3.227  2.4195 -2.5148 -0.8788
  666MOL0     H89883   5.686  12.545   3.078  4.0818 -1.0031 -2.6746
  666MOL0     H89884   5.562  12.741   3.030 -2.0699 -2.4028  0.9500
  666MOL0     H89885   5.556  12.729   3.218  0.9294 -4.2903  0.3951
  666MOL0     H89886   5.705  12.928   3.061  0.2864 -5.6946 -1.0796
  666MOL0     H89887   5.728  12.876   3.231 -0.9300 -1.7924  1.1260
  666MOL0     H89888   5.579  13.074   3.214  1.9496 -0.8055  2.3216
  666MOL0     H89889   5.452  12.972   3.134 -0.3182 -0.0290  2.1533
  666MOL0     H89890   6.518  12.606   3.140  2.6021  1.1333 -2.3554
  666MOL0     H89891   6.712  12.471   3.174  0.3431 -3.7751  1.1230
  666MOL0     H89892   7.110  12.357   2.918 -2.4986  1.1808  1.8982
  666MOL0     H89893   7.335  12.249   2.952  1.1455 -0.4874  1.5434
  666MOL0     H89894   8.631  11.173   3.289 -2.1108 -1.0424 -0.4974
  666MOL0     H89895   8.590  10.940   3.296  0.8528  1.2229  0.9155
  666MOL0     H89896   8.604  10.552   3.020  0.1850  0.6969 -0.2738
  666MOL0     H89897   8.596  10.298   2.991 -1.2490 -1.0269  1.6479
  666MOL0     H89898   8.832  10.030   3.277 -1.7247  1.9090 -0.0711
  666MOL0     H89899   8.875  10.012   3.105  0.7038  2.5770 -0.2684
  666MOL0     H89900   8.636   9.880   3.229 -0.2333  0.6343 -1.1331
  666MOL0     H89901   8.791   9.806   3.243 -1.6773  1.8848  2.7060
  666MOL0     H89902   8.633   9.870   2.979 -2.5145 -1.7881  0.7599
  666MOL0     H89903   8.644   9.714   3.062 -0.2505  0.7595 -1.0052
  666MOL0     H89904   8.887   9.866   2.956  0.8440  0.2225  1.8766
  666MOL0     H89905   8.894   9.709   3.022 -1.2178 -0.0809  0.9065
  666MOL0     H89906   8.793   9.582   2.656 -0.4036 -0.1860  0.5508
  666MOL0     H89907   8.853  10.255   3.322 -1.3247 -0.8546  0.8152
  666MOL0     H89908   8.972  10.420   3.423  1.4295 -0.3413  0.5572
  666MOL0     H89909   8.979  10.572   3.322 -0.1604 -0.1952  1.6927
  666MOL0     H89910   8.872  10.559   3.454 -0.3141  0.0175  0.1845
  667MOL0     O89911  10.172   6.163   1.220  0.3787 -0.0360 -0.3353
  667MOL0     C89912  10.250   6.151   1.313 -0.8044  0.4719 -1.2282
  667MOL0     O89913  10.229   6.198   1.444  0.0226 -0.6255 -0.1439
  667MOL0     C89914  10.125   6.292   1.473  1.1688  0.6405 -0.1957
  667MOL0     C89915  10.071   6.385   1.392 -1.1999 -0.2737  0.6909
  667MOL0     C89916   9.969   6.479   1.436 -0.5504 -0.0290  0.4623
  667MOL0     C89917   9.920   6.476   1.567 -0.6207  0.6614 -0.4170
  667MOL0     O89918   9.823   6.570   1.603 -0.6112 -0.2671  0.2633
  667MOL0     C89919   9.773   6.582   1.738  0.9681  0.5696 -0.2589
  667MOL0     C89920   9.688   6.719   1.741  0.1467  0.2215 -0.2634
  667MOL0     C89921   9.593   6.700   1.859  0.6339  0.4035  0.4409
  667MOL0     C89922   9.532   6.837   1.886 -0.2214 -0.3186  0.5257
  667MOL0     C89923   9.440   6.839   2.011  0.5592  0.4179  0.4736
  667MOL0     C89924   9.519   6.823   2.143  0.4384  0.0125  0.2369
  667MOL0     C89925   9.449   6.748   2.256  0.1686 -0.0752  0.2897
  667MOL0     C89926   9.463   6.797   2.403  0.4758 -0.7919  0.4088
  667MOL0     N89927   9.429   6.693   2.502  0.0423  0.7624  0.3534
  667MOL0     C89928   9.300   6.653   2.544  0.0007 -1.0445  0.4257
  667MOL0     C89929   9.316   6.535   2.609 -0.2703  0.1163  0.4560
  667MOL0     C89930   9.204   6.462   2.678 -0.0532 -0.8763 -0.1719
  667MOL0     C89931   9.194   6.315   2.650 -0.0646 -0.4385  0.3574
  667MOL0     C89932   9.270   6.241   2.765 -0.0735  0.2251 -0.9803
  667MOL0     C89933   9.193   6.215   2.893 -0.6968 -0.6077 -1.1856
  667MOL0     O89934   9.290   6.180   3.000 -0.3727  0.1375  0.8214
  667MOL0     C89935   9.223   6.112   3.105  0.1492  0.3269 -0.2728
  667MOL0     C89936   9.297   6.015   3.172 -0.7617  0.5507 -0.2088
  667MOL0     C89937   9.237   5.932   3.280 -0.9561 -0.6807 -0.4416
  667MOL0     C89938   9.101   5.953   3.315 -0.5671  0.4573 -0.0950
  667MOL0     C89939   9.049   5.881   3.433 -0.8454 -0.1308 -0.6831
  667MOL0     O89940   8.928   5.913   3.492 -0.1690 -0.4986 -0.0756
  667MOL0     C89941   8.861   5.834   3.586 -0.0681 -1.1910  0.4920
  667MOL0     C89942   8.920   5.761   3.701  0.2347 -0.0399  1.1152
  667MOL0     C89943   8.831   5.685   3.784  0.4193  0.1135  0.4764
  667MOL0     C89944   8.694   5.693   3.766  0.3046 -0.7578 -1.6890
  667MOL0     O89945   8.623   5.650   3.867 -0.3780  0.5955  0.3375
  667MOL0     C89946   8.495   5.600   3.839  0.1042  0.1830 -0.8910
  667MOL0     C89947   8.435   5.517   3.950 -0.8694  0.3736 -0.6190
  667MOL0     C89948   8.432   5.580   4.090 -0.4064 -0.6112  0.1680
  667MOL0     C89949   8.409   5.471   4.203 -0.1173 -1.1009 -0.0043
  667MOL0     C89950   8.411   5.530   4.337 -0.5068 -0.1795 -0.5703
  667MOL0     C89951   8.370   5.434   4.446 -0.2402  0.3744  0.5384
  667MOL0     C89952   8.413   5.492   4.577 -0.3921  0.5727  0.1349
  667MOL0     C89953   8.529   5.420   4.640  0.4297  0.4045  0.4167
  667MOL0    Cl89954   8.690   5.450   4.552 -0.2402  0.5581 -0.1733
  667MOL0     C89955   8.648   5.735   3.648  0.5447 -0.5233  1.4210
  667MOL0     C89956   8.725   5.810   3.559 -0.1226  0.4782 -0.0364
  667MOL0     O89957   9.112   5.778   3.460 -0.1870 -0.3651  0.0831
  667MOL0     C89958   9.036   6.059   3.259 -0.0955  0.0322 -0.4484
  667MOL0     C89959   9.088   6.139   3.153 -0.4750  0.2660 -0.2437
  667MOL0     N89960   9.451   6.506   2.614  0.1403 -0.7100 -0.4634
  667MOL0     N89961   9.516   6.596   2.555 -0.1689 -1.1628 -0.1243
  667MOL0     C89962   9.977   6.372   1.649  0.3805  0.0036  0.1995
  667MOL0     C89963  10.082   6.281   1.605  0.4651 -0.3942  0.4716
  667MOL0     C89964  10.364   6.055   1.314 -0.1409  0.7040  0.4590
  667MOL0     C89965  10.400   5.988   1.438  0.3772  0.0842  0.0848
  667MOL0     C89966  10.486   5.884   1.429 -0.9686  0.2147 -1.0899
  667MOL0     C89967  10.552   5.851   1.310 -1.3913 -0.4702 -0.0412
  667MOL0     O89968  10.638   5.743   1.325  1.0647 -0.0879  0.0977
  667MOL0     C89969  10.766   5.767   1.262 -0.4347 -0.6570 -0.6782
  667MOL0     C89970  10.797   5.663   1.157 -0.2929  0.6365 -0.2145
  667MOL0     C89971  10.829   5.521   1.204 -0.6318  0.5053  0.9206
  667MOL0     C89972  10.712   5.451   1.285 -0.0975  0.1478 -0.2667
  667MOL0     C89973  10.735   5.305   1.310 -0.1923 -0.3717 -0.1270
  667MOL0     C89974  10.764   5.190   1.323 -0.7882  0.6901  0.1479
  667MOL0     C89975  10.524   5.911   1.193  0.3531  0.2133 -0.1528
  667MOL0     C89976  10.427   6.012   1.191  0.1986 -0.0338 -0.2862
  667MOL0     C89977  10.405   6.079   1.059  0.7443  0.1848  0.5577
  667MOL0     H89978  10.109   6.384   1.291  1.0713  2.4025  1.4120
  667MOL0     H89979   9.923   6.553   1.371  1.8104 -1.1169 -2.6862
  667MOL0     H89980   9.712   6.491   1.739 -1.2195  1.8590 -2.7625
  667MOL0     H89981   9.848   6.583   1.817  0.1118  1.9106  0.5708
  667MOL0     H89982   9.631   6.734   1.649  3.8977 -0.8453 -2.9868
  667MOL0     H89983   9.759   6.795   1.775 -0.8867 -0.1693  3.2048
  667MOL0     H89984   9.656   6.680   1.946  2.6909 -1.6909 -1.3868
  667MOL0     H89985   9.519   6.620   1.843  0.8300 -0.2543  2.5179
  667MOL0     H89986   9.608   6.914   1.899  0.3578 -0.7565 -0.1281
  667MOL0     H89987   9.466   6.874   1.806 -0.7997 -0.2633  1.0213
  667MOL0     H89988   9.387   6.934   2.004 -2.0385 -1.0393 -1.4027
  667MOL0     H89989   9.358   6.769   1.995 -0.1212  1.7559 -2.5696
  667MOL0     H89990   9.616   6.776   2.123  0.0134 -2.5065  3.3037
  667MOL0     H89991   9.534   6.923   2.183  0.1706 -0.8900  2.7853
  667MOL0     H89992   9.506   6.654   2.253  3.2486  1.5862  1.7719
  667MOL0     H89993   9.344   6.727   2.233  0.0765 -0.1043  0.7261
  667MOL0     H89994   9.567   6.821   2.428  0.3777 -0.2812  0.3357
  667MOL0     H89995   9.409   6.892   2.410  1.0478 -0.3097 -1.1895
  667MOL0     H89996   9.206   6.709   2.539  0.7534  0.3660  1.3183
  667MOL0     H89997   9.198   6.491   2.783 -1.9766  2.7285 -1.1180
  667MOL0     H89998   9.116   6.515   2.642  0.5565  0.9970  1.0073
  667MOL0     H89999   9.085   6.310   2.657  0.0557 -3.1518  1.6049
  667MOL0     H90000   9.234   6.291   2.551  1.8631  5.0133 -0.5466
  667MOL0     H90001   9.355   6.300   2.801 -1.5486  2.8638 -1.5303
  667MOL0     H90002   9.315   6.146   2.735 -0.7008 -2.2359  4.6104
  667MOL0     H90003   9.132   6.125   2.881  3.2454 -4.1716  2.2958
  667MOL0     H90004   9.133   6.305   2.911  2.5798  2.0608 -2.3941
  667MOL0     H90005   9.401   5.999   3.145 -1.0694 -0.7121 -0.7096
  667MOL0     H90006   9.303   5.861   3.329  1.5508  0.5440 -1.8203
  667MOL0     H90007   9.028   5.759   3.706  0.6393  0.8571 -3.2066
  667MOL0     H90008   8.858   5.628   3.873 -3.2246  1.3476  2.5918
  667MOL0     H90009   8.423   5.682   3.827 -0.5300 -0.0527  0.9513
  667MOL0     H90010   8.494   5.533   3.753 -1.3558 -4.0966  2.1143
  667MOL0     H90011   8.333   5.480   3.935 -1.2791 -0.0736  2.5678
  667MOL0     H90012   8.505   5.433   3.958 -1.0421  0.3842  1.9900
  667MOL0     H90013   8.524   5.638   4.102 -0.6097 -0.2094 -0.1885
  667MOL0     H90014   8.354   5.656   4.083  1.9072  1.8327 -0.8850
  667MOL0     H90015   8.492   5.402   4.191  0.0437 -1.0244  0.6562
  667MOL0     H90016   8.315   5.418   4.185  0.3957 -1.9212 -0.2950
  667MOL0     H90017   8.345   5.617   4.348 -0.3338 -0.0335 -0.6868
  667MOL0     H90018   8.508   5.579   4.350 -0.6863  0.1918 -0.6128
  667MOL0     H90019   8.263   5.415   4.460 -0.0247 -0.2625  1.3464
  667MOL0     H90020   8.422   5.342   4.420 -0.6987 -0.3697  2.1589
  667MOL0     H90021   8.324   5.489   4.640 -0.7114  1.2239 -0.2718
  667MOL0     H90022   8.432   5.600   4.581  1.6269  0.3520 -1.7353
  667MOL0     H90023   8.534   5.438   4.748  1.0767 -2.5274  0.9467
  667MOL0     H90024   8.501   5.314   4.645 -2.4467  1.0907  0.4239
  667MOL0     H90025   8.543   5.722   3.626 -0.7193  3.5966  3.9224
  667MOL0     H90026   8.669   5.856   3.478 -0.9245  1.0569  0.8198
  667MOL0     H90027   8.936   6.072   3.300  1.8852  2.3919  4.3896
  667MOL0     H90028   9.022   6.220   3.123 -1.4488  1.0802  3.5609
  667MOL0     H90029   9.935   6.368   1.749  0.1130 -0.7583  0.0604
  667MOL0     H90030  10.124   6.220   1.685  1.5512  0.2902  0.4482
  667MOL0     H90031  10.367   6.011   1.539  2.4174 -2.0679  1.3462
  667MOL0     H90032  10.511   5.812   1.507  1.3677 -2.0758 -3.7108
  667MOL0     H90033  10.840   5.768   1.343  0.5787 -0.2198 -1.5823
  667MOL0     H90034  10.767   5.863   1.209  0.1692  1.2317  2.4745
  667MOL0     H90035  10.885   5.701   1.104  0.9917 -0.8802  0.7465
  667MOL0     H90036  10.711   5.659   1.089 -3.0551 -1.1379  3.0407
  667MOL0     H90037  10.914   5.521   1.273 -1.0838  0.4001  1.4907
  667MOL0     H90038  10.857   5.469   1.112  0.8581  0.2007  1.5205
  667MOL0     H90039  10.690   5.492   1.384 -1.9734  0.8265 -0.9247
  667MOL0     H90040  10.626   5.473   1.221  0.9152 -0.5044 -1.9116
  667MOL0     H90041  10.819   5.102   1.346  0.6494  1.6680  0.5609
  667MOL0     H90042  10.557   5.875   1.096 -4.5665 -4.8693 -0.4640
  667MOL0     H90043  10.497   6.065   1.001  1.7169  2.0443  1.5711
  667MOL0     H90044  10.326   6.024   1.008 -0.6244 -0.4044  3.1480
  667MOL0     H90045  10.393   6.188   1.061 -0.8099  0.0422  0.4153
  668MOL0     O90046   4.189   9.306   6.821 -0.4774 -0.2541 -0.2050
  668MOL0     C90047   4.067   9.279   6.807 -1.6536  0.4115  0.7218
  668MOL0     O90048   4.017   9.183   6.736  0.4566 -0.1402  0.0721
  668MOL0     C90049   4.098   9.129   6.643  0.9369 -0.1430  0.2597
  668MOL0     C90050   4.137   9.196   6.518 -0.8612  1.3384 -0.1851
  668MOL0     C90051   4.198   9.116   6.415 -0.5673 -0.8149 -0.6684
  668MOL0     C90052   4.228   8.985   6.436  0.5960 -0.4961 -0.3716
  668MOL0     O90053   4.274   8.906   6.331  0.1629 -0.3806  0.0854
  668MOL0     C90054   4.166   8.861   6.252  0.7294 -0.9135 -0.3084
  668MOL0     C90055   4.200   8.714   6.217  0.9104  1.5084  0.1616
  668MOL0     C90056   4.086   8.660   6.127  0.2713 -0.1348 -0.1538
  668MOL0     C90057   4.127   8.528   6.073  1.1261 -0.8276 -0.0603
  668MOL0     C90058   4.049   8.496   5.946 -0.6563  0.1869  0.4641
  668MOL0     C90059   4.094   8.569   5.816  0.2050  0.7259  0.2943
  668MOL0     C90060   3.994   8.554   5.701  0.6867 -0.4060 -0.2179
  668MOL0     C90061   4.002   8.408   5.653 -0.4601 -0.1552 -1.2030
  668MOL0     N90062   3.899   8.396   5.552  0.3489 -0.8507 -0.6117
  668MOL0     C90063   3.890   8.458   5.434 -0.1946  0.6100  0.0617
  668MOL0     C90064   3.772   8.409   5.381 -0.7934 -0.8833 -0.3890
  668MOL0     C90065   3.715   8.462   5.256 -0.2752  0.6439 -0.9906
  668MOL0     C90066   3.679   8.361   5.143 -0.1282 -0.4326 -0.7729
  668MOL0     C90067   3.557   8.291   5.179  0.5164  0.1897 -0.5353
  668MOL0     C90068   3.562   8.139   5.151  0.1968 -0.0183 -0.6848
  668MOL0     O90069   3.546   8.108   5.010 -0.1740  0.1540 -0.0494
  668MOL0     C90070   3.557   7.978   4.972 -1.0887  0.1671 -0.3903
  668MOL0     C90071   3.443   7.906   4.923 -0.4567 -0.0096 -0.2658
  668MOL0     C90072   3.451   7.776   4.874 -0.7440 -0.6451 -0.2570
  668MOL0     C90073   3.584   7.710   4.894 -0.3430  1.0673  1.6742
  668MOL0     C90074   3.615   7.565   4.849  0.2591  0.0372  0.0142
  668MOL0     O90075   3.739   7.506   4.882  0.6673  0.0748  0.2961
  668MOL0     C90076   3.770   7.376   4.845  0.4240 -0.5968 -0.0402
  668MOL0     C90077   3.682   7.263   4.848 -0.2492  0.2883 -1.1551
  668MOL0     C90078   3.713   7.139   4.792 -0.4468 -0.2604 -0.3205
  668MOL0     C90079   3.840   7.117   4.733  0.9409  0.3237  0.1310
  668MOL0     O90080   3.875   6.993   4.685 -0.2968  0.4497  0.4256
  668MOL0     C90081   3.819   6.955   4.556  0.0254  0.3283 -0.6572
  668MOL0     C90082   3.883   6.816   4.534 -0.1219  0.3093 -0.8961
  668MOL0     C90083   4.024   6.835   4.477 -0.2658 -0.2777  0.3092
  668MOL0     C90084   4.112   6.710   4.475 -0.5319 -1.4325  0.2651
  668MOL0     C90085   4.242   6.746   4.533 -0.7910  0.4875 -0.0832
  668MOL0     C90086   4.322   6.847   4.455  0.6996 -0.3284 -0.5791
  668MOL0     C90087   4.449   6.907   4.522  0.1075  0.4372  0.2144
  668MOL0     C90088   4.418   6.954   4.670  0.5764  0.9983 -0.0204
  668MOL0    Cl90089   4.524   7.081   4.727  0.5976 -0.0363  0.3696
  668MOL0     C90090   3.934   7.211   4.739 -0.0274 -0.6343  0.8347
  668MOL0     C90091   3.900   7.341   4.789  0.5919  0.1772  0.2641
  668MOL0     O90092   3.525   7.506   4.789 -0.4116  0.5249  0.4494
  668MOL0     C90093   3.691   7.786   4.942  0.6499 -0.1882  0.6273
  668MOL0     C90094   3.686   7.918   4.977  1.0961  0.1288 -0.3499
  668MOL0     N90095   3.713   8.326   5.469 -0.0170 -0.4976 -0.4693
  668MOL0     N90096   3.793   8.316   5.575 -0.0418 -0.4391 -0.5904
  668MOL0     C90097   4.200   8.927   6.555  0.1362  0.1929  0.9197
  668MOL0     C90098   4.132   8.996   6.659 -0.1633  0.6946  0.0261
  668MOL0     C90099   3.984   9.358   6.896 -0.3831 -0.2761 -0.3161
  668MOL0     C90100   3.851   9.319   6.906 -0.0752 -0.3281 -0.1868
  668MOL0     C90101   3.749   9.396   6.971 -0.3461  0.4834  0.1643
  668MOL0     C90102   3.776   9.520   7.026 -0.1244 -0.8749  0.4826
  668MOL0     O90103   3.670   9.565   7.094 -0.3935 -1.1156 -0.1201
  668MOL0     C90104   3.697   9.672   7.176  0.5237  0.7021 -0.3430
  668MOL0     C90105   3.702   9.621   7.314 -0.6877  0.3952 -0.3046
  668MOL0     C90106   3.728   9.730   7.424 -0.1442 -0.1307  0.0758
  668MOL0     C90107   3.865   9.797   7.396 -0.5686  0.0988  0.2069
  668MOL0     C90108   3.899   9.896   7.500  0.2754  0.9304  0.5851
  668MOL0     C90109   3.913   9.985   7.575 -0.7512  0.0651 -0.3675
  668MOL0     C90110   3.911   9.551   7.040 -0.5352 -0.3242  0.5424
  668MOL0     C90111   4.013   9.481   6.972 -1.0963  0.4979 -0.0720
  668MOL0     C90112   4.157   9.539   6.993  0.6909 -0.0237  0.9784
  668MOL0     H90113   4.102   9.295   6.490 -3.3929  0.1273 -1.6482
  668MOL0     H90114   4.241   9.164   6.328  1.7866 -2.8491 -0.7391
  668MOL0     H90115   4.067   8.878   6.295 -0.2463  1.8353 -3.1650
  668MOL0     H90116   4.170   8.927   6.164  1.4936  1.6061  1.4967
  668MOL0     H90117   4.216   8.661   6.311 -1.6794  4.4227  2.4006
  668MOL0     H90118   4.290   8.710   6.154 -0.2916 -0.7006 -1.5771
  668MOL0     H90119   4.071   8.733   6.047 -2.1527  0.7321  0.9982
  668MOL0     H90120   3.996   8.650   6.189 -2.7998  0.9724 -4.0372
  668MOL0     H90121   4.233   8.541   6.050  0.9727  3.6537  0.8877
  668MOL0     H90122   4.100   8.456   6.150  0.0701  0.7050  1.0761
  668MOL0     H90123   4.058   8.387   5.936 -2.3965 -0.0005  0.6715
  668MOL0     H90124   3.945   8.517   5.971  0.0037  3.0151  1.1987
  668MOL0     H90125   4.100   8.673   5.851 -0.6637  0.6261  0.7844
  668MOL0     H90126   4.191   8.531   5.786  0.4923  0.0011  2.0091
  668MOL0     H90127   4.014   8.632   5.626 -0.1398 -0.5683 -0.6300
  668MOL0     H90128   3.895   8.582   5.738  1.6439  0.2762  1.9801
  668MOL0     H90129   4.091   8.381   5.597 -0.3764 -3.0738  0.1541
  668MOL0     H90130   3.991   8.329   5.729  0.6323 -0.4913 -1.3845
  668MOL0     H90131   3.951   8.535   5.388 -0.8505  0.6126 -0.8372
  668MOL0     H90132   3.620   8.507   5.286 -0.8592 -2.7837  3.2329
  668MOL0     H90133   3.778   8.545   5.224 -0.6287  1.2443 -0.1588
  668MOL0     H90134   3.657   8.425   5.057 -0.2332  0.5787 -0.0113
  668MOL0     H90135   3.762   8.293   5.121 -0.6541 -0.3910 -3.0714
  668MOL0     H90136   3.474   8.332   5.121  0.6516  0.7826 -0.3150
  668MOL0     H90137   3.535   8.284   5.286  0.8902 -1.2098 -0.5271
  668MOL0     H90138   3.483   8.086   5.205  0.6155  3.6077  4.2219
  668MOL0     H90139   3.657   8.103   5.190 -1.7257 -2.4095  2.3229
  668MOL0     H90140   3.348   7.958   4.917 -0.5641 -0.1217  0.4367
  668MOL0     H90141   3.374   7.710   4.836 -1.1119 -3.1911  4.1845
  668MOL0     H90142   3.591   7.262   4.906 -0.5852 -2.9156 -1.5604
  668MOL0     H90143   3.645   7.054   4.796  1.5900 -2.1206 -2.2846
  668MOL0     H90144   3.711   6.940   4.571  0.1997 -0.1433  0.1895
  668MOL0     H90145   3.851   7.030   4.483  1.3396  0.8271  0.3914
  668MOL0     H90146   3.885   6.761   4.628 -2.4034 -0.5924 -1.3036
  668MOL0     H90147   3.810   6.756   4.478  0.9875 -0.9178 -1.0718
  668MOL0     H90148   4.017   6.872   4.374 -0.8598  2.4194  1.2367
  668MOL0     H90149   4.073   6.913   4.536  1.1764 -1.6664  1.0087
  668MOL0     H90150   4.108   6.683   4.368  0.4384  1.4990 -0.5990
  668MOL0     H90151   4.066   6.631   4.534 -2.4046 -0.0558  0.7558
  668MOL0     H90152   4.297   6.651   4.524 -2.9305 -0.6615 -2.0166
  668MOL0     H90153   4.231   6.769   4.639  2.7512 -0.9482  0.7570
  668MOL0     H90154   4.358   6.802   4.362 -1.6386 -2.8821 -0.3695
  668MOL0     H90155   4.259   6.932   4.431  2.9626  0.9773 -2.2663
  668MOL0     H90156   4.489   6.987   4.461 -2.9284  0.3740 -2.0983
  668MOL0     H90157   4.523   6.827   4.516  0.0562  0.4791 -1.1086
  668MOL0     H90158   4.319   7.000   4.681 -0.2309 -0.8334  0.7177
  668MOL0     H90159   4.437   6.873   4.740 -0.7974  1.4822  0.9566
  668MOL0     H90160   4.028   7.192   4.689 -0.4500  0.6470 -0.5186
  668MOL0     H90161   3.974   7.420   4.791  3.3288 -2.2266  1.4408
  668MOL0     H90162   3.787   7.736   4.947  1.2406  0.5874 -1.7896
  668MOL0     H90163   3.784   7.959   4.998  1.0097  0.6588 -0.9596
  668MOL0     H90164   4.242   8.828   6.563  1.6630  0.8123  0.7955
  668MOL0     H90165   4.092   8.948   6.748 -1.2806 -1.8481 -1.7360
  668MOL0     H90166   3.827   9.223   6.861  1.3560 -1.3132  1.0718
  668MOL0     H90167   3.646   9.362   6.967 -0.3624  0.4844  0.5404
  668MOL0     H90168   3.602   9.726   7.176 -0.5753 -1.1440  0.6186
  668MOL0     H90169   3.766   9.752   7.147  1.7156 -0.4845 -0.8703
  668MOL0     H90170   3.780   9.547   7.333 -0.6577  0.6859  0.7554
  668MOL0     H90171   3.612   9.563   7.339 -0.3503 -0.8036 -1.7903
  668MOL0     H90172   3.739   9.690   7.526  0.8172  4.0078  1.7844
  668MOL0     H90173   3.641   9.796   7.426  0.1164  0.2068  0.8362
  668MOL0     H90174   3.942   9.720   7.404 -0.9170 -0.7172 -2.9013
  668MOL0     H90175   3.856   9.840   7.296  1.6276 -1.3476 -0.6901
  668MOL0     H90176   3.944  10.062   7.642 -2.3992  0.6516 -0.2374
  668MOL0     H90177   3.939   9.644   7.089 -0.6058  2.0909 -3.5580
  668MOL0     H90178   4.217   9.466   7.048  0.7797 -0.0277  0.8767
  668MOL0     H90179   4.200   9.566   6.897 -2.7550  0.0861 -0.6812
  668MOL0     H90180   4.149   9.628   7.056 -2.1436 -1.1393  2.3959
  669MOL0     O90181   1.661   1.251   1.605  0.7282  1.2414 -0.2502
  669MOL0     C90182   1.705   1.170   1.686  1.1330  0.4438  0.6896
  669MOL0     O90183   1.627   1.123   1.786 -0.3923 -0.7561 -0.5493
  669MOL0     C90184   1.542   1.212   1.853 -0.9542  0.1669  0.4904
  669MOL0     C90185   1.429   1.155   1.913 -0.3506 -0.1377 -0.1924
  669MOL0     C90186   1.344   1.236   1.988  0.5559 -1.8412  0.6261
  669MOL0     C90187   1.366   1.374   1.993 -0.7706 -0.0925  0.0957
  669MOL0     O90188   1.288   1.470   2.051 -0.0869  0.5912 -0.0428
  669MOL0     C90189   1.225   1.448   2.181 -0.5353 -0.4632 -0.2178
  669MOL0     C90190   1.328   1.437   2.296  0.2730  0.1964  0.1847
  669MOL0     C90191   1.382   1.576   2.327  0.6782  0.3524 -0.3523
  669MOL0     C90192   1.522   1.565   2.392  0.3116  0.6728 -0.3790
  669MOL0     C90193   1.555   1.687   2.485 -0.4591 -0.1049  0.6509
  669MOL0     C90194   1.697   1.677   2.539  0.6660 -0.5942 -0.1166
  669MOL0     C90195   1.720   1.784   2.651 -0.4341  0.0938 -0.1209
  669MOL0     C90196   1.684   1.926   2.626  0.0897  0.1122  0.2383
  669MOL0     N90197   1.731   2.014   2.738  0.9004  0.0873 -0.2293
  669MOL0     C90198   1.854   2.061   2.752 -0.5574 -0.4979 -0.7430
  669MOL0     C90199   1.837   2.136   2.861  0.0962 -0.1135  0.2364
  669MOL0     C90200   1.956   2.210   2.911  0.1158 -0.3285 -0.4794
  669MOL0     C90201   1.936   2.352   2.866 -1.0406 -0.4617  0.1344
  669MOL0     C90202   1.963   2.379   2.720 -0.6411 -0.4388  0.4624
  669MOL0     C90203   2.104   2.357   2.649 -0.8365  0.3334  0.3116
  669MOL0     O90204   2.062   2.396   2.521  0.6833 -0.4794  0.2112
  669MOL0     C90205   2.161   2.381   2.427  0.4010  0.2508  0.0028
  669MOL0     C90206   2.113   2.379   2.298 -0.5688  0.2581 -0.6280
  669MOL0     C90207   2.199   2.320   2.200 -0.6855  0.2462 -0.3722
  669MOL0     C90208   2.331   2.287   2.226 -0.6697  0.1353  0.1915
  669MOL0     C90209   2.422   2.223   2.125  0.0467 -0.2189 -1.1564
  669MOL0     O90210   2.374   2.217   2.000 -0.1270 -0.8154 -0.4193
  669MOL0     C90211   2.425   2.141   1.903 -0.1647  0.9890  0.5987
  669MOL0     C90212   2.561   2.104   1.871 -0.3087  0.2794  0.3253
  669MOL0     C90213   2.591   2.024   1.756  0.2987  1.2899 -0.1597
  669MOL0     C90214   2.493   1.974   1.679 -0.0930  0.3607  0.4466
  669MOL0     O90215   2.535   1.890   1.581  0.6182  0.0846 -0.2390
  669MOL0     C90216   2.457   1.770   1.553 -0.1724 -0.4318  0.4952
  669MOL0     C90217   2.471   1.674   1.671  1.1567 -0.3237  0.1819
  669MOL0     C90218   2.412   1.538   1.629  0.3485 -0.0900 -0.3927
  669MOL0     C90219   2.427   1.431   1.749  0.5534 -0.7722  0.5934
  669MOL0     C90220   2.389   1.292   1.691 -0.2719 -0.3388 -0.4230
  669MOL0     C90221   2.415   1.171   1.781  0.3164  0.6592 -0.0380
  669MOL0     C90222   2.570   1.149   1.797  0.1063 -0.2529 -0.2170
  669MOL0     C90223   2.610   1.027   1.869  0.3223 -0.1688 -0.3005
  669MOL0    Cl90224   2.519   0.876   1.816  0.0310 -0.2542 -0.4060
  669MOL0     C90225   2.354   2.001   1.704 -0.1060 -0.5179  0.2224
  669MOL0     C90226   2.326   2.095   1.809 -0.1433  0.8520  0.1786
  669MOL0     O90227   2.523   2.173   2.162 -0.2093  0.1018 -0.5095
  669MOL0     C90228   2.381   2.325   2.349  0.5074 -0.3769 -0.0085
  669MOL0     C90229   2.294   2.352   2.448  0.4404  0.1262 -0.7921
  669MOL0     N90230   1.710   2.130   2.919  0.0629 -0.1971 -0.6373
  669MOL0     N90231   1.650   2.049   2.836  0.9538  1.1597 -0.4989
  669MOL0     C90232   1.470   1.435   1.916  0.2910  0.9001 -0.6585
  669MOL0     C90233   1.561   1.350   1.851  0.3929 -0.3165 -0.8452
  669MOL0     C90234   1.829   1.110   1.666  0.6515 -0.1313 -0.0277
  669MOL0     C90235   1.936   1.164   1.741 -1.1905  0.0428  0.2067
  669MOL0     C90236   2.059   1.090   1.748  0.6789 -0.0911  0.2333
  669MOL0     C90237   2.065   0.971   1.685  0.2123 -0.1800 -0.3631
  669MOL0     O90238   2.184   0.902   1.702 -1.2604 -0.4517 -0.0114
  669MOL0     C90239   2.226   0.800   1.599  0.6911 -0.5490  0.6714
  669MOL0     C90240   2.235   0.866   1.463  0.0346  0.8520  0.0226
  669MOL0     C90241   2.331   0.995   1.467  0.2699 -0.4409 -0.2498
  669MOL0     C90242   2.385   1.052   1.335  0.2670  0.1826  0.4521
  669MOL0     C90243   2.470   0.951   1.267  0.5911 -0.1184  1.2321
  669MOL0     C90244   2.532   0.863   1.223 -0.0779  0.2144  0.6367
  669MOL0     C90245   1.955   0.919   1.607  0.1801  0.4442 -0.2945
  669MOL0     C90246   1.833   0.991   1.593  0.1011  0.0699 -0.6104
  669MOL0     C90247   1.701   0.924   1.524  0.2918  0.8289  0.8362
  669MOL0     H90248   1.414   1.049   1.894  2.6301 -0.2965 -2.2198
  669MOL0     H90249   1.262   1.195   2.047 -1.8531  1.0988 -0.4179
  669MOL0     H90250   1.163   1.537   2.197 -1.4006 -1.0416 -0.3041
  669MOL0     H90251   1.168   1.355   2.185 -0.7149 -0.3217  2.8227
  669MOL0     H90252   1.412   1.380   2.254  0.8801  1.6922 -0.7027
  669MOL0     H90253   1.286   1.385   2.383 -2.7338  1.5537 -0.3109
  669MOL0     H90254   1.307   1.635   2.380 -0.0928  0.0545 -1.0809
  669MOL0     H90255   1.394   1.628   2.231  4.7793  1.3135  0.4938
  669MOL0     H90256   1.524   1.479   2.459 -0.6658  0.8773 -0.0748
  669MOL0     H90257   1.591   1.544   2.310  0.5501  2.6398 -0.7469
  669MOL0     H90258   1.558   1.786   2.439  2.9803  0.5666  2.0601
  669MOL0     H90259   1.485   1.690   2.569 -0.1847  4.1328  0.9434
  669MOL0     H90260   1.718   1.578   2.580  1.5538  0.8010  3.0707
  669MOL0     H90261   1.765   1.701   2.456  0.7030 -0.5754 -0.0806
  669MOL0     H90262   1.828   1.783   2.668 -0.4297 -3.6477  0.3860
  669MOL0     H90263   1.666   1.747   2.739  1.1765 -0.3262  0.7382
  669MOL0     H90264   1.738   1.973   2.543  0.3865 -0.9769 -0.2042
  669MOL0     H90265   1.577   1.938   2.602  0.7617  1.7971 -2.4034
  669MOL0     H90266   1.939   2.040   2.688 -1.2675 -2.0854 -1.2189
  669MOL0     H90267   1.954   2.203   3.020 -0.2101  1.9046 -0.2942
  669MOL0     H90268   2.051   2.174   2.870 -0.4710 -1.9427 -0.4867
  669MOL0     H90269   1.831   2.374   2.887 -0.3272  1.8501  1.6842
  669MOL0     H90270   2.011   2.419   2.910 -1.2382  1.1407 -1.7994
  669MOL0     H90271   1.926   2.482   2.722 -3.3327 -1.1863  5.4112
  669MOL0     H90272   1.884   2.323   2.670  0.5926 -1.3823 -0.4965
  669MOL0     H90273   2.127   2.250   2.659 -1.0268  0.0460 -1.8415
  669MOL0     H90274   2.174   2.428   2.693  1.0430 -1.8833  1.1255
  669MOL0     H90275   2.012   2.417   2.293  0.1808  3.2404  2.6586
  669MOL0     H90276   2.159   2.321   2.099  1.0003  0.0889 -1.0732
  669MOL0     H90277   2.642   2.133   1.937 -0.0852  0.5879 -0.0790
  669MOL0     H90278   2.692   1.988   1.739 -0.2251 -1.4341  1.8065
  669MOL0     H90279   2.351   1.787   1.534 -0.1124 -1.8879 -1.4123
  669MOL0     H90280   2.504   1.726   1.465 -0.6951 -0.3927  0.1943
  669MOL0     H90281   2.567   1.676   1.723 -0.3653 -1.7311  3.3600
  669MOL0     H90282   2.404   1.710   1.750  2.7154 -1.0221  1.8956
  669MOL0     H90283   2.314   1.541   1.580 -0.8685  0.0234  1.9174
  669MOL0     H90284   2.485   1.500   1.558 -0.6237 -4.0768  0.4819
  669MOL0     H90285   2.354   1.447   1.828  0.9399  1.1580  0.6038
  669MOL0     H90286   2.524   1.429   1.799  2.8951 -0.8899 -3.4448
  669MOL0     H90287   2.449   1.264   1.604  0.8353  1.7113 -0.3810
  669MOL0     H90288   2.283   1.298   1.664  0.0342  0.4420 -1.4934
  669MOL0     H90289   2.377   1.187   1.882  0.4261  3.8770 -0.4037
  669MOL0     H90290   2.369   1.082   1.739  0.4830 -0.6903  2.4392
  669MOL0     H90291   2.625   1.232   1.842  1.5375 -1.6824  0.8047
  669MOL0     H90292   2.607   1.132   1.696  1.0896  1.0121 -0.1005
  669MOL0     H90293   2.716   1.017   1.843  0.7749  4.0399 -0.6111
  669MOL0     H90294   2.602   1.048   1.976  1.6142 -0.7594 -0.0619
  669MOL0     H90295   2.276   1.973   1.635  0.4241 -0.6499 -0.3287
  669MOL0     H90296   2.221   2.122   1.808 -0.0007  1.7218 -3.5014
  669MOL0     H90297   2.483   2.309   2.385  1.8421  3.8867 -1.2765
  669MOL0     H90298   2.351   2.349   2.540 -0.6118 -1.5879 -0.1347
  669MOL0     H90299   1.476   1.543   1.931 -4.6214  1.2807  0.0944
  669MOL0     H90300   1.645   1.392   1.797  0.4173 -0.2497 -0.7549
  669MOL0     H90301   1.935   1.258   1.795 -0.0936 -0.7211  1.6269
  669MOL0     H90302   2.146   1.138   1.793 -0.6231  2.0942  0.5900
  669MOL0     H90303   2.142   0.729   1.609  2.0315 -2.3621 -0.4381
  669MOL0     H90304   2.322   0.753   1.619  1.0271 -0.1047  0.1152
  669MOL0     H90305   2.132   0.895   1.439 -1.1637 -0.1728  3.3928
  669MOL0     H90306   2.273   0.787   1.398 -0.7700 -0.0311  0.6087
  669MOL0     H90307   2.422   0.990   1.527  1.3420  5.0541 -0.8783
  669MOL0     H90308   2.268   1.070   1.515 -0.0566 -0.1257 -1.1553
  669MOL0     H90309   2.306   1.084   1.267  1.5878  1.4036 -0.5777
  669MOL0     H90310   2.444   1.142   1.356  0.1105  0.1646  0.9672
  669MOL0     H90311   2.586   0.783   1.176  0.8981  0.2526  1.6612
  669MOL0     H90312   1.957   0.819   1.563 -0.3136 -0.5155  1.7347
  669MOL0     H90313   1.734   0.828   1.484 -0.2170  0.3184  1.6235
  669MOL0     H90314   1.630   0.896   1.603  0.1840 -1.0356  0.1051
  669MOL0     H90315   1.660   0.978   1.438  0.7799 -2.8554 -1.9256
  670MOL0     O90316   0.642   9.630   6.624 -0.1949 -0.2300 -0.6913
  670MOL0     C90317   0.539   9.646   6.560 -0.3136  0.2937 -1.2876
  670MOL0     O90318   0.411   9.666   6.618 -0.3000 -0.4918  0.1306
  670MOL0     C90319   0.398   9.650   6.756  1.0881  0.1866  0.7974
  670MOL0     C90320   0.318   9.553   6.811 -0.4786 -0.6416  0.0605
  670MOL0     C90321   0.337   9.521   6.951 -0.0832  1.1790  0.0425
  670MOL0     C90322   0.426   9.597   7.030  0.3999 -0.9067  0.3370
  670MOL0     O90323   0.439   9.585   7.164  0.4884  0.7117 -0.0193
  670MOL0     C90324   0.317   9.533   7.233 -0.3549 -0.7109 -0.2909
  670MOL0     C90325   0.344   9.549   7.384 -0.9936 -0.8271 -0.0679
  670MOL0     C90326   0.219   9.504   7.464 -0.9379 -0.8587  1.1632
  670MOL0     C90327   0.145   9.622   7.523 -0.1509 -0.2199  0.4530
  670MOL0     C90328   0.042   9.580   7.626 -0.2675  0.0538 -0.3346
  670MOL0     C90329  -0.038   9.453   7.589 -0.9120 -0.5076 -1.4631
  670MOL0     C90330  -0.138   9.484   7.477 -0.1948 -0.3984 -0.9278
  670MOL0     C90331  -0.275   9.540   7.531  0.1906 -0.7549  0.0328
  670MOL0     N90332  -0.378   9.568   7.421  0.1243  0.6374  0.2909
  670MOL0     C90333  -0.513   9.588   7.444  0.6687 -0.4504  0.0171
  670MOL0     C90334  -0.578   9.566   7.327 -0.1730  0.1907 -0.0685
  670MOL0     C90335  -0.729   9.553   7.298 -0.8359 -0.7540 -0.2251
  670MOL0     C90336  -0.809   9.514   7.426  0.6451 -0.2313 -0.2367
  670MOL0     C90337  -0.780   9.369   7.461  0.0128 -0.5628  0.3098
  670MOL0     C90338  -0.889   9.305   7.547 -0.4056  0.3481  0.1468
  670MOL0     O90339  -0.900   9.170   7.508  0.9309  0.1706  0.2999
  670MOL0     C90340  -0.998   9.094   7.565  0.2992 -0.4907 -0.5171
  670MOL0     C90341  -1.002   9.083   7.705 -0.9700  0.8543 -0.7458
  670MOL0     C90342  -1.098   9.008   7.772  0.7044 -0.7023 -0.2871
  670MOL0     C90343  -1.185   8.936   7.690 -0.5513  0.1772  0.3419
  670MOL0     C90344  -1.294   8.866   7.762  0.1109  0.4181  1.1083
  670MOL0     O90345  -1.298   8.867   7.897 -0.3100  0.5143 -0.4334
  670MOL0     C90346  -1.374   8.779   7.972 -0.2827 -0.5377  0.1239
  670MOL0     C90347  -1.506   8.757   7.962 -0.3387 -0.5225  1.1904
  670MOL0     C90348  -1.576   8.666   8.040  0.1647  0.2802  0.1460
  670MOL0     C90349  -1.514   8.595   8.145 -0.1423  0.1997 -0.4165
  670MOL0     O90350  -1.569   8.514   8.241 -0.2368  1.1281 -0.1446
  670MOL0     C90351  -1.704   8.483   8.242  0.3788  0.4052  0.3198
  670MOL0     C90352  -1.721   8.374   8.341 -0.4401 -0.3874 -0.2816
  670MOL0     C90353  -1.857   8.310   8.353 -0.2637  0.1576  0.0180
  670MOL0     C90354  -1.874   8.251   8.496  0.8030 -0.5582  0.1828
  670MOL0     C90355  -1.997   8.156   8.517 -0.1299 -0.6131  0.0605
  670MOL0     C90356  -2.023   8.126   8.667  0.8164  0.6861  0.3911
  670MOL0     C90357  -2.042   8.261   8.738  0.7044 -0.5682  0.2103
  670MOL0     C90358  -2.096   8.238   8.880  0.3242  0.3862  0.6362
  670MOL0    Cl90359  -1.993   8.135   8.975  0.0407  0.2796  0.1292
  670MOL0     C90360  -1.374   8.630   8.166  0.3068 -0.0158  0.0048
  670MOL0     C90361  -1.309   8.713   8.076 -0.5247 -0.2400 -1.4957
  670MOL0     O90362  -1.384   8.812   7.694  0.6138 -0.4705 -0.3028
  670MOL0     C90363  -1.180   8.945   7.550  0.1564 -0.1999  0.6768
  670MOL0     C90364  -1.088   9.023   7.483 -0.2614  0.6827 -0.0927
  670MOL0     N90365  -0.480   9.526   7.240  0.3775  0.1656 -0.2549
  670MOL0     N90366  -0.362   9.525   7.291  0.3242 -0.5558 -0.5697
  670MOL0     C90367   0.486   9.713   6.976 -0.1292  0.1867 -0.4709
  670MOL0     C90368   0.475   9.737   6.843  0.6479 -0.1942  0.5763
  670MOL0     C90369   0.554   9.635   6.406 -0.6279 -0.1518  0.4095
  670MOL0     C90370   0.666   9.690   6.337 -0.1207 -0.4948  1.0087
  670MOL0     C90371   0.681   9.697   6.198  0.2180 -0.5772  0.5279
  670MOL0     C90372   0.576   9.656   6.122 -0.3464 -0.3182  0.4874
  670MOL0     O90373   0.624   9.634   5.993 -0.0376  1.6150 -0.3363
  670MOL0     C90374   0.593   9.511   5.926 -0.6128  0.1363  1.0283
  670MOL0     C90375   0.675   9.520   5.790  0.3121  0.5295 -0.6534
  670MOL0     C90376   0.671   9.645   5.712 -1.4759 -0.0212  0.3242
  670MOL0     C90377   0.771   9.669   5.598 -1.0164  0.3220 -0.6004
  670MOL0     C90378   0.749   9.565   5.494 -0.4018 -0.4433  0.5932
  670MOL0     C90379   0.730   9.483   5.411 -0.3377 -0.3564  0.8514
  670MOL0     C90380   0.457   9.604   6.178 -0.0138 -0.0250 -0.1762
  670MOL0     C90381   0.443   9.599   6.318 -0.4431  0.1247 -0.6506
  670MOL0     C90382   0.319   9.535   6.365  0.3767  0.4819 -0.1606
  670MOL0     H90383   0.256   9.507   6.734 -0.3498 -0.7912  0.0454
  670MOL0     H90384   0.282   9.439   6.996 -0.0283  1.3680  0.4588
  670MOL0     H90385   0.230   9.593   7.205  0.5421  0.1955 -1.2332
  670MOL0     H90386   0.297   9.429   7.206 -1.2504 -0.1843 -1.7557
  670MOL0     H90387   0.363   9.654   7.408 -1.5421 -0.9648  1.0312
  670MOL0     H90388   0.432   9.492   7.412 -0.4724 -0.2395 -0.4713
  670MOL0     H90389   0.259   9.445   7.546 -3.6261 -1.1078  2.4023
  670MOL0     H90390   0.147   9.441   7.411  0.9897 -1.1481 -1.3203
  670MOL0     H90391   0.214   9.693   7.570 -0.8363  0.3319  0.6355
  670MOL0     H90392   0.100   9.679   7.442  1.5329  3.1664  1.6996
  670MOL0     H90393   0.098   9.564   7.718  1.5850 -1.3102 -1.6403
  670MOL0     H90394  -0.022   9.668   7.636 -0.3853  0.1054 -1.4401
  670MOL0     H90395   0.017   9.366   7.552  0.6405  0.4497 -1.4847
  670MOL0     H90396  -0.097   9.411   7.671  0.1460  0.0806 -0.3818
  670MOL0     H90397  -0.159   9.391   7.425  0.4668  0.7633 -3.4091
  670MOL0     H90398  -0.099   9.549   7.399 -1.3398 -1.1560 -2.1646
  670MOL0     H90399  -0.320   9.475   7.606  1.0370  0.9981  2.1545
  670MOL0     H90400  -0.255   9.637   7.577  1.5155  0.2271 -2.4347
  670MOL0     H90401  -0.556   9.602   7.542 -0.8418 -1.7635 -0.3998
  670MOL0     H90402  -0.766   9.648   7.259  0.1906 -0.2965 -0.1193
  670MOL0     H90403  -0.739   9.475   7.221  0.7163 -1.7511  0.5183
  670MOL0     H90404  -0.781   9.587   7.502  0.7114  0.2400 -0.7011
  670MOL0     H90405  -0.915   9.525   7.401  0.4884  2.6215  1.3006
  670MOL0     H90406  -0.689   9.361   7.521  0.4772  2.4132  0.1673
  670MOL0     H90407  -0.755   9.312   7.371 -1.4217 -1.6371  0.5694
  670MOL0     H90408  -0.991   9.344   7.545 -1.1302 -1.3536  1.4448
  670MOL0     H90409  -0.847   9.311   7.648  1.8518  0.7933 -0.7494
  670MOL0     H90410  -0.922   9.125   7.765  0.9482 -1.0817 -1.8156
  670MOL0     H90411  -1.083   8.989   7.878 -1.2565 -3.6348 -0.4161
  670MOL0     H90412  -1.563   8.818   7.892 -0.1761 -1.1142  0.5291
  670MOL0     H90413  -1.681   8.640   8.031  0.8884 -3.3864  0.8008
  670MOL0     H90414  -1.756   8.575   8.271 -0.1142  0.0324  0.6554
  670MOL0     H90415  -1.733   8.445   8.144 -1.4794 -0.4743  1.1425
  670MOL0     H90416  -1.651   8.292   8.321  2.3671  1.6464  0.4789
  670MOL0     H90417  -1.702   8.429   8.433  1.1923  0.6680 -1.2019
  670MOL0     H90418  -1.932   8.385   8.328 -1.2143 -0.7124  0.1971
  670MOL0     H90419  -1.863   8.234   8.274 -1.4914  2.7200 -2.5368
  670MOL0     H90420  -1.870   8.329   8.573  3.1549 -1.0610  0.6259
  670MOL0     H90421  -1.790   8.183   8.512  1.1198 -0.3130 -0.4165
  670MOL0     H90422  -1.971   8.064   8.465  0.6325 -0.4824  0.1946
  670MOL0     H90423  -2.075   8.215   8.469  0.2208  0.3234  0.6011
  670MOL0     H90424  -2.115   8.068   8.678 -0.3612  2.5192  0.5963
  670MOL0     H90425  -1.936   8.073   8.706 -0.2767 -1.0212  0.6169
  670MOL0     H90426  -2.113   8.329   8.691 -0.0350 -1.1404  0.4779
  670MOL0     H90427  -1.952   8.323   8.742 -2.5282  5.0144 -2.2764
  670MOL0     H90428  -2.112   8.339   8.919 -1.9506 -0.6556  2.7449
  670MOL0     H90429  -2.203   8.214   8.871 -0.2863  3.2068 -0.6479
  670MOL0     H90430  -1.319   8.572   8.239  1.2998 -0.9654 -1.4325
  670MOL0     H90431  -1.202   8.723   8.091 -0.7367 -1.1404  1.0493
  670MOL0     H90432  -1.260   8.897   7.494  0.3465 -0.0945  0.3128
  670MOL0     H90433  -1.088   9.041   7.376 -1.7603  1.0621 -0.0547
  670MOL0     H90434   0.558   9.780   7.021  1.1398 -0.1662 -1.9133
  670MOL0     H90435   0.546   9.804   6.795  0.5697 -0.2772  0.3430
  670MOL0     H90436   0.744   9.711   6.409  1.5811 -0.7835 -0.6736
  670MOL0     H90437   0.783   9.718   6.165  0.4498  0.8095  2.0037
  670MOL0     H90438   0.489   9.487   5.902 -0.5406 -1.0631  1.8045
  670MOL0     H90439   0.610   9.416   5.977 -2.4365 -0.6775  0.2227
  670MOL0     H90440   0.644   9.436   5.727 -1.7495 -0.4668  1.5525
  670MOL0     H90441   0.779   9.493   5.812  1.0139  0.8338 -3.2431
  670MOL0     H90442   0.692   9.732   5.774  2.0700 -1.2694  1.1336
  670MOL0     H90443   0.567   9.637   5.679 -1.9287  1.4964  1.2802
  670MOL0     H90444   0.756   9.769   5.554 -2.7690  0.0705 -0.6581
  670MOL0     H90445   0.866   9.649   5.646 -1.9136  1.4213  1.7747
  670MOL0     H90446   0.717   9.411   5.332  0.9766 -3.4369  3.2035
  670MOL0     H90447   0.374   9.558   6.125 -1.2033  0.6400  1.0331
  670MOL0     H90448   0.250   9.610   6.405  0.4451 -1.2231  3.5801
  670MOL0     H90449   0.267   9.480   6.287 -2.1415  1.5047  0.7080
  670MOL0     H90450   0.343   9.459   6.441 -3.4274  0.1426  0.8913
  671MOL0     O90451   0.465   8.919  11.465 -0.0789  0.6120  0.4072
  671MOL0     C90452   0.538   8.834  11.507 -0.8784 -0.2492  0.1953
  671MOL0     O90453   0.577   8.808  11.630 -0.5594 -0.0985  0.4319
  671MOL0     C90454   0.519   8.856  11.746  0.3633 -0.1449 -0.3668
  671MOL0     C90455   0.383   8.895  11.761 -0.2047  0.0314 -0.4774
  671MOL0     C90456   0.336   8.936  11.890  0.6301  0.5404  0.0771
  671MOL0     C90457   0.420   8.931  12.004  0.4364  0.5962  0.1353
  671MOL0     O90458   0.392   8.969  12.130  0.1774  0.2625 -1.0010
  671MOL0     C90459   0.311   9.079  12.152 -0.5963  0.4956  0.5293
  671MOL0     C90460   0.345   9.143  12.292 -0.5333 -0.3884  0.1669
  671MOL0     C90461   0.260   9.277  12.303 -0.5502 -0.3098 -0.0113
  671MOL0     C90462   0.138   9.242  12.380  0.5730  0.1446 -0.5796
  671MOL0     C90463   0.038   9.353  12.394  0.2215 -0.8069  0.1650
  671MOL0     C90464  -0.085   9.294  12.477  0.6750  0.2676 -0.5879
  671MOL0     C90465  -0.185   9.408  12.513  0.2363 -0.7189 -0.1323
  671MOL0     C90466  -0.295   9.350  12.610 -0.2402 -0.7796  0.2814
  671MOL0     N90467  -0.381   9.251  12.547  0.6192  0.0138  0.6629
  671MOL0     C90468  -0.356   9.115  12.569  0.0414 -0.4406 -0.5182
  671MOL0     C90469  -0.475   9.050  12.549  0.4140  0.0562  1.0912
  671MOL0     C90470  -0.476   8.896  12.549  0.4602 -0.2285  0.2950
  671MOL0     C90471  -0.479   8.834  12.413 -0.5835 -0.6186  0.6339
  671MOL0     C90472  -0.539   8.693  12.408 -0.0224  0.7616 -0.3189
  671MOL0     C90473  -0.632   8.680  12.288 -0.7865  0.4319  0.4501
  671MOL0     O90474  -0.762   8.725  12.322  0.0582 -0.2414  0.7430
  671MOL0     C90475  -0.849   8.626  12.351 -0.2757 -0.1023  1.0047
  671MOL0     C90476  -0.893   8.535  12.263 -0.6196  0.1907  0.5280
  671MOL0     C90477  -1.001   8.449  12.290 -0.6002 -0.1412  0.4274
  671MOL0     C90478  -1.059   8.445  12.421 -0.0727  0.1569 -0.3678
  671MOL0     C90479  -1.175   8.361  12.462 -0.1659  0.1444 -0.5022
  671MOL0     O90480  -1.218   8.375  12.594  0.2596 -0.1582  0.3491
  671MOL0     C90481  -1.294   8.267  12.640 -0.3815 -0.6906 -0.6069
  671MOL0     C90482  -1.405   8.297  12.715  0.0542 -0.0276  0.5413
  671MOL0     C90483  -1.481   8.211  12.783 -0.9269 -0.0754  1.1203
  671MOL0     C90484  -1.443   8.073  12.780  1.5145 -1.1075 -0.7595
  671MOL0     O90485  -1.533   8.006  12.855 -0.8784 -0.4979  0.2601
  671MOL0     C90486  -1.501   7.877  12.907  0.1174  0.5707  0.2018
  671MOL0     C90487  -1.626   7.814  12.954 -0.5556 -0.3352 -0.1567
  671MOL0     C90488  -1.692   7.888  13.070  0.0630 -0.4635  0.5588
  671MOL0     C90489  -1.831   7.838  13.100  0.9425  0.5663  0.6340
  671MOL0     C90490  -1.866   7.897  13.233 -0.8798 -0.5682 -0.6618
  671MOL0     C90491  -2.017   7.897  13.252  0.2573  0.3310 -0.2541
  671MOL0     C90492  -2.082   7.966  13.385  0.3575  0.2859  0.6329
  671MOL0     C90493  -2.238   7.972  13.387  0.6441  1.2127  0.2966
  671MOL0    Cl90494  -2.321   7.815  13.367 -0.4190 -0.1880  0.4671
  671MOL0     C90495  -1.330   8.028  12.702  0.6870 -0.0300  0.0080
  671MOL0     C90496  -1.257   8.125  12.642  1.1538  0.0536  0.5696
  671MOL0     O90497  -1.201   8.280  12.378  0.5300 -1.1369  0.0439
  671MOL0     C90498  -0.991   8.532  12.519  0.0716 -0.3150 -0.0964
  671MOL0     C90499  -0.881   8.613  12.479 -0.2407  0.9366 -0.9683
  671MOL0     N90500  -0.564   9.140  12.500  0.0260 -0.8092  0.3356
  671MOL0     N90501  -0.504   9.263  12.499 -0.1884 -0.1078  0.2725
  671MOL0     C90502   0.543   8.877  11.989  0.4153 -0.1608  0.1448
  671MOL0     C90503   0.592   8.834  11.860 -0.1666 -0.3571  0.1210
  671MOL0     C90504   0.590   8.759  11.394 -0.0134 -0.3724  0.1641
  671MOL0     C90505   0.682   8.826  11.307 -0.9119 -0.1220 -1.6013
  671MOL0     C90506   0.741   8.758  11.204  0.1209  0.3589  0.1108
  671MOL0     C90507   0.714   8.624  11.171  0.6310  0.3306 -0.0973
  671MOL0     O90508   0.762   8.563  11.062 -0.4003 -0.1387  0.0180
  671MOL0     C90509   0.893   8.573  11.023 -0.2690  0.6803  0.3836
  671MOL0     C90510   0.930   8.524  10.875 -0.5674  0.3882 -0.5847
  671MOL0     C90511   0.870   8.604  10.773 -0.4893 -0.6789  0.5955
  671MOL0     C90512   0.886   8.550  10.634 -0.3596  0.0480 -0.3314
  671MOL0     C90513   0.840   8.634  10.527  0.4059 -0.2631 -0.0786
  671MOL0     C90514   0.781   8.699  10.441 -0.5956  0.0945  0.0145
  671MOL0     C90515   0.624   8.558  11.252  0.5854  0.3020 -0.1979
  671MOL0     C90516   0.568   8.626  11.363  0.0799  0.5051 -1.3294
  671MOL0     C90517   0.462   8.558  11.442 -0.2134 -0.5104 -0.0572
  671MOL0     H90518   0.319   8.901  11.674  0.1547  2.1649 -0.6537
  671MOL0     H90519   0.234   8.976  11.890  0.5290  0.2941 -0.6030
  671MOL0     H90520   0.325   9.150  12.070  0.1426 -3.0681 -2.7197
  671MOL0     H90521   0.207   9.048  12.142 -0.2033 -0.2961 -1.6220
  671MOL0     H90522   0.454   9.155  12.294 -0.6482  0.9936 -0.4335
  671MOL0     H90523   0.312   9.071  12.367 -1.7386  0.6728  0.7034
  671MOL0     H90524   0.251   9.334  12.211 -0.0894  0.6890  0.5452
  671MOL0     H90525   0.310   9.345  12.373 -1.2536  0.3314 -0.1208
  671MOL0     H90526   0.089   9.158  12.329 -3.1422  2.1399 -0.6435
  671MOL0     H90527   0.178   9.204  12.475  3.0220 -0.5818 -1.8316
  671MOL0     H90528   0.077   9.432  12.458  0.7904 -0.7430 -0.2526
  671MOL0     H90529  -0.002   9.389  12.298 -0.0283 -3.5819 -0.8703
  671MOL0     H90530  -0.130   9.203  12.436 -1.2116 -0.4693  2.7752
  671MOL0     H90531  -0.050   9.258  12.574  0.6251 -0.0024 -0.6707
  671MOL0     H90532  -0.227   9.459  12.425  1.3247  2.9228  1.2776
  671MOL0     H90533  -0.131   9.485  12.569  1.8800 -2.1657  0.3255
  671MOL0     H90534  -0.240   9.306  12.693  1.0587 -1.6827 -1.0154
  671MOL0     H90535  -0.358   9.434  12.642  0.5554 -0.4491  1.0290
  671MOL0     H90536  -0.273   9.058  12.610  0.0988  0.1024  0.1388
  671MOL0     H90537  -0.390   8.848  12.597 -1.2094 -4.9021 -0.8202
  671MOL0     H90538  -0.566   8.854  12.595  1.1981  0.3293  2.3786
  671MOL0     H90539  -0.538   8.901  12.349  0.9104  1.4387  1.2832
  671MOL0     H90540  -0.376   8.834  12.375 -0.2739  0.1839  1.4276
  671MOL0     H90541  -0.586   8.666  12.503  1.9299 -0.8547  0.2805
  671MOL0     H90542  -0.463   8.613  12.404 -1.0773 -0.3732  1.1258
  671MOL0     H90543  -0.633   8.577  12.250 -3.0709  0.5148  0.1368
  671MOL0     H90544  -0.588   8.733  12.203  2.7927 -0.8565  1.2881
  671MOL0     H90545  -0.850   8.535  12.164  0.7217 -0.2034  1.0832
  671MOL0     H90546  -1.034   8.384  12.210  1.4316  1.7442 -2.1362
  671MOL0     H90547  -1.440   8.399  12.701  1.7214  0.1570 -3.6054
  671MOL0     H90548  -1.561   8.253  12.844 -1.8137  2.2901 -1.4535
  671MOL0     H90549  -1.465   7.814  12.825 -1.9809 -1.7504  0.9346
  671MOL0     H90550  -1.435   7.894  12.992 -0.9705  1.1400  0.9620
  671MOL0     H90551  -1.691   7.808  12.867 -1.5605  2.2148  0.3380
  671MOL0     H90552  -1.600   7.718  13.000 -0.9058  0.7768  2.5722
  671MOL0     H90553  -1.623   7.858  13.149  0.5513 -5.0883 -1.3453
  671MOL0     H90554  -1.697   7.997  13.055  0.5575 -0.2154  1.9996
  671MOL0     H90555  -1.841   7.730  13.113  2.0160  0.6226  2.3046
  671MOL0     H90556  -1.894   7.879  13.021  2.3191  0.8651 -0.3464
  671MOL0     H90557  -1.826   7.998  13.248  0.2200 -1.2451  1.4096
  671MOL0     H90558  -1.820   7.842  13.316 -0.5214  1.0836  0.2871
  671MOL0     H90559  -2.063   7.939  13.162 -0.7377  1.0148  0.5516
  671MOL0     H90560  -2.040   7.790  13.246 -0.8401  0.5987 -1.5728
  671MOL0     H90561  -2.052   8.071  13.379  1.2700  0.0195  0.3204
  671MOL0     H90562  -2.044   7.926  13.480  0.5020  2.3209  1.4743
  671MOL0     H90563  -2.284   8.028  13.469 -1.5521 -0.7931  0.5406
  671MOL0     H90564  -2.273   8.027  13.299  1.0081  2.1083  0.7041
  671MOL0     H90565  -1.310   7.923  12.685 -0.4570 -0.0613 -1.2827
  671MOL0     H90566  -1.172   8.102  12.578 -0.1231 -0.6075 -0.9558
  671MOL0     H90567  -1.025   8.550  12.620 -4.2055 -0.2637 -1.3639
  671MOL0     H90568  -0.837   8.669  12.560 -0.7475 -1.4990  1.1140
  671MOL0     H90569   0.606   8.877  12.078  1.0174  1.5774 -0.2490
  671MOL0     H90570   0.692   8.795  11.845  0.3052  0.6988  0.3988
  671MOL0     H90571   0.697   8.933  11.319  0.0047 -0.5287  2.1251
  671MOL0     H90572   0.815   8.821  11.156 -0.3648  0.9383  0.1142
  671MOL0     H90573   0.958   8.533  11.100  2.4348  2.1371 -1.0127
  671MOL0     H90574   0.912   8.680  11.023 -4.8015  1.7406  3.0217
  671MOL0     H90575   0.910   8.417  10.862 -1.7796  0.5696 -0.3841
  671MOL0     H90576   1.037   8.536  10.862 -0.0962 -2.3308  0.0567
  671MOL0     H90577   0.901   8.709  10.783 -3.0016  0.1016  0.7462
  671MOL0     H90578   0.762   8.603  10.791 -0.7574 -1.7707 -0.9070
  671MOL0     H90579   0.993   8.541  10.617 -0.0825 -0.1712  1.3269
  671MOL0     H90580   0.840   8.452  10.626 -2.8379  1.2802 -2.9370
  671MOL0     H90581   0.728   8.774  10.386 -0.7412  0.6485  0.8915
  671MOL0     H90582   0.589   8.458  11.227  0.1738  1.2041 -3.7315
  671MOL0     H90583   0.478   8.567  11.550 -1.3695 -0.3230  0.1198
  671MOL0     H90584   0.359   8.594  11.431  0.8174  3.1422  0.8162
  671MOL0     H90585   0.463   8.450  11.426  1.8678 -0.5873  0.3426
  672MOL0     O90586  11.379   7.381  10.796  0.0442 -0.7986 -0.2134
  672MOL0     C90587  11.257   7.387  10.805  0.3499  0.3279 -0.5429
  672MOL0     O90588  11.185   7.501  10.787  0.5086  0.1733  0.2919
  672MOL0     C90589  11.232   7.608  10.721  0.1515 -0.3207 -0.3090
  672MOL0     C90590  11.269   7.581  10.590  0.0929  0.0244  0.0278
  672MOL0     C90591  11.327   7.686  10.508 -0.3950  0.5499  0.1764
  672MOL0     C90592  11.355   7.810  10.564 -0.0312  0.2693 -0.0699
  672MOL0     O90593  11.420   7.916  10.508 -0.6796 -0.3629  0.6545
  672MOL0     C90594  11.459   7.912  10.371  0.3203 -0.8229  0.2598
  672MOL0     C90595  11.561   8.017  10.331  0.1890 -0.2935 -0.3200
  672MOL0     C90596  11.492   8.156  10.304  0.3898  0.6669 -0.7693
  672MOL0     C90597  11.592   8.257  10.250  0.5871  0.8033  0.8321
  672MOL0     C90598  11.519   8.371  10.204 -0.4226  0.2722 -0.0048
  672MOL0     C90599  11.623   8.485  10.168 -0.2804  0.1650  1.3429
  672MOL0     C90600  11.548   8.614  10.134  0.0853 -0.1653  1.3246
  672MOL0     C90601  11.553   8.729  10.242  0.3795 -0.8122 -0.5213
  672MOL0     N90602  11.494   8.677  10.368  0.3046  0.2522 -0.2026
  672MOL0     C90603  11.573   8.612  10.465  0.7084 -0.0953 -0.4402
  672MOL0     C90604  11.487   8.558  10.547 -0.1620  0.3425 -0.2990
  672MOL0     C90605  11.517   8.502  10.683 -0.0467  0.0808  0.3073
  672MOL0     C90606  11.500   8.348  10.677  0.0621 -0.0432 -0.5934
  672MOL0     C90607  11.534   8.296  10.815  0.7296  0.2898 -0.0317
  672MOL0     C90608  11.481   8.154  10.803  0.7085 -0.1506  0.1231
  672MOL0     O90609  11.489   8.084  10.927  0.0103 -0.1191  0.8955
  672MOL0     C90610  11.372   8.064  10.992 -0.9401 -0.5777  0.0047
  672MOL0     C90611  11.351   7.933  11.037  0.5241 -0.1405  0.3268
  672MOL0     C90612  11.235   7.892  11.106 -0.6881 -0.4569  0.0573
  672MOL0     C90613  11.136   7.987  11.129 -0.8453  0.6358  0.3450
  672MOL0     C90614  11.023   7.951  11.224  0.6529  0.3931  0.9368
  672MOL0     O90615  10.957   8.058  11.269 -0.3848 -0.5599  0.1740
  672MOL0     C90616  10.869   8.039  11.368 -0.3157  0.5166 -0.6188
  672MOL0     C90617  10.896   8.054  11.503 -1.0184  0.3614 -0.1940
  672MOL0     C90618  10.807   8.059  11.606  1.1728  0.4077  0.1300
  672MOL0     C90619  10.670   8.059  11.572 -0.1868  0.5032  0.2240
  672MOL0     O90620  10.581   8.057  11.672  0.8502 -0.5469 -0.5841
  672MOL0     C90621  10.449   8.110  11.646 -0.0556 -0.3811 -0.2000
  672MOL0     C90622  10.371   8.116  11.775  0.2805 -1.1533  0.2716
  672MOL0     C90623  10.400   8.006  11.871 -0.3996 -0.0241  0.6423
  672MOL0     C90624  10.351   8.023  12.015  0.3165 -0.3249 -0.9344
  672MOL0     C90625  10.207   7.985  12.032 -0.5196  0.2743 -0.6867
  672MOL0     C90626  10.175   8.010  12.177 -0.3769  0.0876 -0.1394
  672MOL0     C90627  10.023   7.996  12.225 -0.3106  0.2315 -1.4217
  672MOL0     C90628   9.964   8.115  12.305 -0.9783  1.0760 -0.5375
  672MOL0    Cl90629   9.786   8.114  12.270  0.0983 -0.2176 -0.0029
  672MOL0     C90630  10.635   8.036  11.433  0.3899 -0.5706 -0.9634
  672MOL0     C90631  10.735   8.022  11.334  0.1472  0.6830  0.5855
  672MOL0     O90632  11.010   7.841  11.268  0.4655 -0.6156 -0.4047
  672MOL0     C90633  11.149   8.116  11.074  0.4616  0.2243 -0.0072
  672MOL0     C90634  11.269   8.151  11.005  0.5619  0.9962 -0.1358
  672MOL0     N90635  11.361   8.578  10.497 -0.2661 -0.1629 -0.2809
  672MOL0     N90636  11.364   8.654  10.394  0.6467 -0.4230  0.3493
  672MOL0     C90637  11.317   7.829  10.695  0.5320  0.3226 -0.1905
  672MOL0     C90638  11.248   7.736  10.778 -0.4759 -0.9623  0.0378
  672MOL0     C90639  11.194   7.261  10.833  0.3404 -0.7892  0.1395
  672MOL0     C90640  11.097   7.256  10.943 -0.5624  0.0169  0.3781
  672MOL0     C90641  11.033   7.138  10.968  0.0335  0.2152 -1.1520
  672MOL0     C90642  11.062   7.017  10.903  0.1484 -0.0574  0.1292
  672MOL0     O90643  10.995   6.905  10.957 -0.2661 -1.0174  0.5171
  672MOL0     C90644  10.994   6.776  10.898 -0.4516 -0.2501 -1.1925
  672MOL0     C90645  11.129   6.717  10.929 -1.0123  0.2380  0.2958
  672MOL0     C90646  11.140   6.568  10.897 -0.0389 -0.1846  0.5854
  672MOL0     C90647  11.265   6.482  10.939  0.1384  0.9988  0.2785
  672MOL0     C90648  11.364   6.473  10.828 -0.1483 -0.7861 -0.0688
  672MOL0     C90649  11.439   6.462  10.734  0.7993 -0.8352 -0.4346
  672MOL0     C90650  11.147   7.032  10.793  0.3833  0.1769 -1.0583
  672MOL0     C90651  11.223   7.144  10.757 -0.2525  0.5302  0.1841
  672MOL0     C90652  11.306   7.131  10.629  0.4960 -0.1080  0.5547
  672MOL0     H90653  11.255   7.483  10.546  1.8579 -0.7800  1.1384
  672MOL0     H90654  11.350   7.663  10.405  0.3534 -0.5229  0.5664
  672MOL0     H90655  11.505   7.818  10.337  1.9034  0.0064 -0.0210
  672MOL0     H90656  11.371   7.931  10.308 -1.8539  2.7596  3.9343
  672MOL0     H90657  11.608   7.978  10.240 -0.2812 -0.7433 -0.3750
  672MOL0     H90658  11.633   8.033  10.412 -1.8827 -0.9911  1.7648
  672MOL0     H90659  11.452   8.195  10.397 -3.2904 -1.4584 -1.2503
  672MOL0     H90660  11.409   8.134  10.236  1.0041 -0.1587 -1.2684
  672MOL0     H90661  11.661   8.292  10.328  1.2231 -0.0579  0.6793
  672MOL0     H90662  11.658   8.212  10.175  2.2662  2.5141  1.1972
  672MOL0     H90663  11.472   8.350  10.108  0.6734 -0.2745 -0.4408
  672MOL0     H90664  11.447   8.404  10.279 -0.8304  1.2343 -0.7991
  672MOL0     H90665  11.689   8.499  10.253 -1.2252  1.1354  1.9481
  672MOL0     H90666  11.676   8.450  10.079 -1.7278  2.3440 -0.5009
  672MOL0     H90667  11.441   8.598  10.120  0.0529  0.1242  1.2207
  672MOL0     H90668  11.587   8.658  10.042 -2.8722  2.4588  1.1314
  672MOL0     H90669  11.654   8.761  10.270 -0.1148  0.3779 -0.0415
  672MOL0     H90670  11.502   8.819  10.207 -0.9533 -1.0275  0.8016
  672MOL0     H90671  11.674   8.633  10.499 -0.1361  1.1376  1.5255
  672MOL0     H90672  11.617   8.532  10.717  0.2415  1.4816 -1.5740
  672MOL0     H90673  11.441   8.545  10.748  2.7353  2.6737  2.1514
  672MOL0     H90674  11.396   8.333  10.648 -0.1938 -4.7497  1.7815
  672MOL0     H90675  11.565   8.296  10.606  0.9540  1.6896 -1.1172
  672MOL0     H90676  11.496   8.353  10.899  0.4348 -1.5069  1.1046
  672MOL0     H90677  11.643   8.297  10.825  0.8749 -1.4686 -1.0424
  672MOL0     H90678  11.533   8.105  10.721  2.0242 -0.3717  1.0569
  672MOL0     H90679  11.373   8.160  10.785  0.6170 -1.9541 -0.0565
  672MOL0     H90680  11.435   7.867  11.021  1.5772  0.9224  1.2732
  672MOL0     H90681  11.220   7.788  11.133 -0.8631 -0.2745  0.6743
  672MOL0     H90682  10.998   8.059  11.541 -1.1714 -2.3247  0.8016
  672MOL0     H90683  10.841   8.062  11.709 -0.7536 -2.9158  1.0222
  672MOL0     H90684  10.446   8.208  11.598 -2.9056 -0.7411 -0.9833
  672MOL0     H90685  10.388   8.042  11.585 -1.4972  0.4112  0.3157
  672MOL0     H90686  10.419   8.208  11.811 -0.5017  0.2779 -2.0746
  672MOL0     H90687  10.263   8.129  11.762  0.5571 -0.6829 -1.9419
  672MOL0     H90688  10.361   7.915  11.824 -1.9790  0.6858  0.5131
  672MOL0     H90689  10.506   7.988  11.889 -0.2351  2.1408  2.2526
  672MOL0     H90690  10.383   8.115  12.066 -0.2834 -1.4293  1.6075
  672MOL0     H90691  10.404   7.951  12.079 -0.7383 -0.7693 -0.5343
  672MOL0     H90692  10.182   7.883  12.002  0.3754  0.4633 -2.2062
  672MOL0     H90693  10.140   8.061  11.991 -3.4675 -2.2260 -0.8146
  672MOL0     H90694  10.246   7.947  12.232  1.2270 -0.2328 -2.4203
  672MOL0     H90695  10.213   8.108  12.207  0.4450 -0.6630  1.3726
  672MOL0     H90696  10.011   7.907  12.286 -0.2383  2.3998  2.0310
  672MOL0     H90697   9.969   7.985  12.131 -1.1002  1.2686 -1.1131
  672MOL0     H90698   9.991   8.099  12.410 -1.2899  0.4572 -0.5503
  672MOL0     H90699  10.005   8.212  12.275 -0.3248  1.7649  2.3262
  672MOL0     H90700  10.534   8.017  11.397  1.5386 -2.4750 -3.4685
  672MOL0     H90701  10.702   7.998  11.234  2.0423  2.1880 -0.4527
  672MOL0     H90702  11.063   8.178  11.093  0.0102 -0.6094  0.7202
  672MOL0     H90703  11.279   8.255  10.975 -2.8274  0.3064 -4.4840
  672MOL0     H90704  11.350   7.916  10.751 -1.4156 -0.1340  1.7915
  672MOL0     H90705  11.215   7.750  10.880 -0.5271 -3.2503  0.4007
  672MOL0     H90706  11.064   7.341  11.002  0.5843  0.5724  0.2656
  672MOL0     H90707  10.956   7.136  11.044  1.5038 -0.4116  0.3843
  672MOL0     H90708  10.980   6.791  10.791  1.3225  3.4037 -1.0792
  672MOL0     H90709  10.911   6.720  10.942 -0.7683  1.9799  1.2916
  672MOL0     H90710  11.157   6.737  11.033  1.0694  1.9667 -0.5339
  672MOL0     H90711  11.203   6.762  10.862 -1.1963 -2.6283 -2.0548
  672MOL0     H90712  11.121   6.555  10.790 -2.9295  3.6038  0.4107
  672MOL0     H90713  11.062   6.512  10.951 -1.1520  1.2181  0.4945
  672MOL0     H90714  11.313   6.523  11.028  0.0872 -1.1790  1.3705
  672MOL0     H90715  11.246   6.377  10.964  4.6466  0.6608  3.4925
  672MOL0     H90716  11.511   6.446  10.656  1.3219  2.1189 -0.6749
  672MOL0     H90717  11.160   6.938  10.742 -0.2958 -1.9584  2.3754
  672MOL0     H90718  11.336   7.026  10.623 -1.3652 -0.7153  0.9920
  672MOL0     H90719  11.246   7.136  10.537 -0.4643 -3.5373  0.8728
  672MOL0     H90720  11.392   7.199  10.631 -1.7985  3.0485 -0.2251
  673MOL0     O90721   1.101   5.442   7.846 -0.1243  0.3605 -0.0934
  673MOL0     C90722   1.110   5.519   7.755  0.2495  0.1252 -0.1794
  673MOL0     O90723   0.995   5.554   7.673  0.2603 -0.4750  0.2509
  673MOL0     C90724   0.878   5.547   7.742  0.4689  0.6565 -0.5444
  673MOL0     C90725   0.771   5.465   7.689 -0.4142  0.5070  0.4982
  673MOL0     C90726   0.650   5.452   7.759 -0.0825 -0.8645  0.3877
  673MOL0     C90727   0.639   5.506   7.893 -0.5420  0.3747 -0.3245
  673MOL0     O90728   0.520   5.477   7.953  0.3806 -0.1322 -0.2337
  673MOL0     C90729   0.443   5.582   8.016  0.8086  0.3137 -0.3210
  673MOL0     C90730   0.494   5.581   8.165 -0.7228 -0.2452  0.9252
  673MOL0     C90731   0.386   5.624   8.261 -0.2119 -0.2968 -0.1385
  673MOL0     C90732   0.445   5.640   8.396  0.5080  0.5192 -0.3326
  673MOL0     C90733   0.341   5.698   8.496  0.3754 -0.6518  0.9192
  673MOL0     C90734   0.390   5.682   8.641 -0.1923 -0.4039  0.0222
  673MOL0     C90735   0.514   5.756   8.681 -0.4556  0.0723  0.2370
  673MOL0     C90736   0.528   5.758   8.830  0.0994  0.1776  0.3473
  673MOL0     N90737   0.640   5.850   8.856 -0.1367 -0.4619 -0.3947
  673MOL0     C90738   0.635   5.947   8.957  0.2356  0.7309 -0.0675
  673MOL0     C90739   0.759   5.999   8.962 -0.2167  0.3467 -0.7191
  673MOL0     C90740   0.806   6.100   9.060 -0.3141  0.2441  1.0501
  673MOL0     C90741   0.881   6.219   8.988 -0.3336  0.1520 -0.0324
  673MOL0     C90742   0.910   6.323   9.099 -0.6954 -1.0242  0.1088
  673MOL0     C90743   1.002   6.437   9.042  0.0798  0.1691  0.9262
  673MOL0     O90744   0.949   6.568   9.078  0.1806  0.1699 -0.1687
  673MOL0     C90745   0.965   6.620   9.208  0.5286 -0.1336 -0.6627
  673MOL0     C90746   0.997   6.546   9.314 -0.0743  0.1835 -0.5360
  673MOL0     C90747   0.982   6.591   9.444 -0.9985  0.3999  0.0988
  673MOL0     C90748   0.959   6.731   9.465  1.5553 -0.0197 -0.3119
  673MOL0     C90749   0.949   6.785   9.606 -0.0562 -0.1369  0.6187
  673MOL0     O90750   0.894   6.904   9.610  0.0294 -0.1185  0.0873
  673MOL0     C90751   0.850   6.972   9.718  0.3660 -0.1948 -0.7230
  673MOL0     C90752   0.847   7.108   9.722 -0.2162 -0.9721 -0.2845
  673MOL0     C90753   0.839   7.180   9.840  0.1698 -0.2216  1.1140
  673MOL0     C90754   0.809   7.112   9.960  0.6353 -0.0877  0.6827
  673MOL0     O90755   0.795   7.165  10.094  0.3018  0.2141 -0.0232
  673MOL0     C90756   0.810   7.310  10.112 -0.8387  0.1021 -0.0335
  673MOL0     C90757   0.806   7.335  10.266  0.4232 -0.4173 -0.5601
  673MOL0     C90758   0.675   7.287  10.333  0.1480  0.0769  0.3026
  673MOL0     C90759   0.666   7.315  10.485  1.0592 -0.2133  0.1291
  673MOL0     C90760   0.515   7.335  10.534  0.5742 -1.3354 -0.5950
  673MOL0     C90761   0.491   7.416  10.666 -0.0199 -0.0262  0.2976
  673MOL0     C90762   0.556   7.355  10.787 -0.2214  0.7651 -0.0512
  673MOL0     C90763   0.478   7.408  10.904  0.1260 -0.1900 -0.6493
  673MOL0    Cl90764   0.495   7.591  10.894  0.0477  0.2136 -0.1703
  673MOL0     C90765   0.794   6.972   9.952 -0.5219 -0.4111 -0.8580
  673MOL0     C90766   0.821   6.907   9.836  0.8582 -0.2193 -1.1481
  673MOL0     O90767   1.003   6.724   9.691  0.3878  0.0960 -0.8982
  673MOL0     C90768   0.937   6.807   9.352 -0.0150 -0.1363  0.6588
  673MOL0     C90769   0.934   6.751   9.218  0.5274 -0.7985 -0.9362
  673MOL0     N90770   0.836   5.938   8.872  0.4371 -0.2171  0.4108
  673MOL0     N90771   0.765   5.842   8.807 -0.3026  0.5310 -0.2095
  673MOL0     C90772   0.739   5.582   7.946 -0.4836  0.1487 -0.4905
  673MOL0     C90773   0.856   5.609   7.869  0.2109 -0.1580  0.8539
  673MOL0     C90774   1.245   5.581   7.724  0.3967  0.0115  1.0233
  673MOL0     C90775   1.246   5.695   7.643  0.5737 -0.4697 -0.1320
  673MOL0     C90776   1.366   5.768   7.622 -0.7060 -0.2836  0.1171
  673MOL0     C90777   1.496   5.715   7.668  0.3684 -0.0247 -0.6061
  673MOL0     O90778   1.611   5.794   7.664 -0.2133  0.1145 -0.2185
  673MOL0     C90779   1.710   5.759   7.761  0.6107 -1.0327 -0.3189
  673MOL0     C90780   1.808   5.870   7.776 -0.1159  0.6079  0.6583
  673MOL0     C90781   1.756   6.011   7.770 -0.1607 -0.2689 -0.8585
  673MOL0     C90782   1.833   6.113   7.851 -0.5796 -0.6838 -0.0348
  673MOL0     C90783   1.907   6.200   7.766 -0.0808 -0.3055  0.1439
  673MOL0     C90784   1.991   6.269   7.710  0.1765 -0.4392 -0.5560
  673MOL0     C90785   1.488   5.592   7.733  0.6971  0.1115  0.0598
  673MOL0     C90786   1.368   5.527   7.764  0.3281 -0.5453 -0.9360
  673MOL0     C90787   1.386   5.415   7.866  0.2011  0.0873 -0.5456
  673MOL0     H90788   0.793   5.418   7.593 -0.5228 -0.7996  1.0956
  673MOL0     H90789   0.574   5.388   7.715 -3.8949  1.4850  2.8810
  673MOL0     H90790   0.450   5.683   7.975  0.8208  1.8806  3.2021
  673MOL0     H90791   0.337   5.557   8.009  0.4713  1.6195 -0.2027
  673MOL0     H90792   0.573   5.656   8.178 -0.9185  0.3003 -0.8542
  673MOL0     H90793   0.527   5.488   8.212 -1.7336 -0.5908  0.9710
  673MOL0     H90794   0.305   5.554   8.282 -1.0525  1.2173  2.0977
  673MOL0     H90795   0.335   5.711   8.219  0.3146  0.5938  0.9939
  673MOL0     H90796   0.483   5.541   8.422 -3.7478 -1.4026 -0.5828
  673MOL0     H90797   0.528   5.712   8.398 -0.7103  1.9930  2.2371
  673MOL0     H90798   0.318   5.802   8.473 -0.8319 -0.7909  1.3971
  673MOL0     H90799   0.252   5.635   8.483 -0.2548  0.1019  1.5156
  673MOL0     H90800   0.307   5.726   8.697  0.9496  1.0235  0.6454
  673MOL0     H90801   0.408   5.576   8.660 -1.0925 -0.8103 -1.2001
  673MOL0     H90802   0.514   5.860   8.645  4.1836 -0.0402 -0.7601
  673MOL0     H90803   0.600   5.697   8.647 -0.8205 -1.2683  1.5278
  673MOL0     H90804   0.434   5.794   8.872  0.2212 -2.6710  3.4817
  673MOL0     H90805   0.539   5.663   8.883  1.5650  0.6738  1.0076
  673MOL0     H90806   0.546   5.983   9.009  1.6301  1.4868  1.9213
  673MOL0     H90807   0.721   6.126   9.125  0.8792 -0.8359  3.1439
  673MOL0     H90808   0.881   6.052   9.123  1.1076  0.9744 -0.0198
  673MOL0     H90809   0.974   6.185   8.942  1.0123  4.1600 -0.6180
  673MOL0     H90810   0.819   6.269   8.913 -1.1436 -1.5841 -0.5885
  673MOL0     H90811   0.967   6.276   9.180  0.6018  0.6129  0.2113
  673MOL0     H90812   0.819   6.375   9.131  0.4790  0.8372  0.5715
  673MOL0     H90813   1.009   6.435   8.933 -1.3256 -5.1667  0.6581
  673MOL0     H90814   1.105   6.421   9.075 -0.1230  1.5482  2.3502
  673MOL0     H90815   1.036   6.446   9.295 -0.4076  0.3667 -2.4319
  673MOL0     H90816   1.024   6.524   9.519  0.2007  1.4506  0.4008
  673MOL0     H90817   0.893   7.150   9.633 -2.2993  1.6612 -0.2805
  673MOL0     H90818   0.861   7.286   9.850  0.1308 -0.0230 -0.5678
  673MOL0     H90819   0.901   7.352  10.069  0.7716 -1.7471  1.4015
  673MOL0     H90820   0.731   7.359  10.054 -1.5019 -1.1995 -0.2720
  673MOL0     H90821   0.877   7.270  10.317 -0.4853 -1.5665 -0.7281
  673MOL0     H90822   0.833   7.438  10.292  1.6288 -1.2375  1.6640
  673MOL0     H90823   0.599   7.347  10.284  1.9934  1.0432 -1.5501
  673MOL0     H90824   0.660   7.180  10.313 -3.5347  0.8955 -2.1924
  673MOL0     H90825   0.732   7.400  10.505  4.6381 -2.6908 -0.2156
  673MOL0     H90826   0.724   7.239  10.538  2.5749  0.3273 -0.6828
  673MOL0     H90827   0.459   7.243  10.554 -1.5867  0.4004  2.0488
  673MOL0     H90828   0.471   7.401  10.458  1.9764  2.5941  1.6976
  673MOL0     H90829   0.533   7.516  10.660 -2.2338  1.0058  0.8517
  673MOL0     H90830   0.386   7.440  10.684  0.5799  1.4444  2.1150
  673MOL0     H90831   0.660   7.383  10.806 -0.2379  0.9856 -0.2796
  673MOL0     H90832   0.549   7.246  10.791 -0.2818  0.6901  5.0994
  673MOL0     H90833   0.373   7.382  10.921  0.5939 -0.3893  2.6254
  673MOL0     H90834   0.529   7.370  10.993  2.7397  2.5641 -0.8142
  673MOL0     H90835   0.773   6.909  10.037  0.1207 -1.9325 -1.7755
  673MOL0     H90836   0.803   6.800   9.832  3.5745 -0.6856 -3.7245
  673MOL0     H90837   0.913   6.913   9.362  5.8346  1.5821  0.7201
  673MOL0     H90838   0.916   6.812   9.130 -0.4482 -0.9469 -0.8408
  673MOL0     H90839   0.723   5.616   8.048 -1.2100 -0.5830 -0.3554
  673MOL0     H90840   0.941   5.670   7.899 -0.8810  3.5661 -2.7188
  673MOL0     H90841   1.151   5.745   7.626  1.8332  2.3848  0.4706
  673MOL0     H90842   1.369   5.868   7.580 -1.6148  0.4113  1.5973
  673MOL0     H90843   1.767   5.668   7.740  1.3338 -0.8615  0.7785
  673MOL0     H90844   1.656   5.749   7.856  0.2882  1.1793 -0.2239
  673MOL0     H90845   1.899   5.875   7.715  1.8113  1.3123  3.4036
  673MOL0     H90846   1.857   5.854   7.872  2.8802 -1.1165 -1.0075
  673MOL0     H90847   1.650   6.009   7.797 -0.5621  2.3046 -1.9436
  673MOL0     H90848   1.747   6.045   7.666  2.0468  0.6714 -0.7959
  673MOL0     H90849   1.764   6.169   7.915  0.6207  0.1393  0.5712
  673MOL0     H90850   1.891   6.062   7.928  0.3777  2.5177  1.5317
  673MOL0     H90851   2.058   6.333   7.657 -1.3973 -0.3672 -2.5527
  673MOL0     H90852   1.580   5.539   7.756  1.1471  1.1553  0.6902
  673MOL0     H90853   1.489   5.378   7.865 -0.7778 -3.0060  0.1301
  673MOL0     H90854   1.354   5.446   7.967 -0.7017 -2.5116  0.0469
  673MOL0     H90855   1.324   5.333   7.828 -3.1467  2.8219 -1.5464
  674MOL0     O90856   9.241   6.045   0.285 -0.7157 -0.9382  0.0665
  674MOL0     C90857   9.255   6.154   0.343 -0.4937  0.2388  0.4321
  674MOL0     O90858   9.372   6.205   0.386  0.2566 -0.4064  0.0387
  674MOL0     C90859   9.497   6.162   0.342 -0.0216 -0.1620  0.7849
  674MOL0     C90860   9.595   6.191   0.431 -0.2726 -0.0510  0.6868
  674MOL0     C90861   9.730   6.163   0.407 -0.0656 -0.1080 -0.3417
  674MOL0     C90862   9.770   6.121   0.279 -0.8892  0.8868  0.7139
  674MOL0     O90863   9.902   6.107   0.237  0.2290 -0.1523  0.6238
  674MOL0     C90864  10.005   6.126   0.335  0.0927  0.3504 -0.8695
  674MOL0     C90865  10.138   6.073   0.280 -0.0420  0.4852 -0.2505
  674MOL0     C90866  10.144   5.914   0.297  0.5307 -0.7624  0.0856
  674MOL0     C90867  10.269   5.846   0.245  0.1255  0.6283 -0.0692
  674MOL0     C90868  10.268   5.691   0.262 -0.5047  0.0242  0.1885
  674MOL0     C90869  10.298   5.656   0.408 -0.0931  0.0468  0.1081
  674MOL0     C90870  10.452   5.621   0.413 -0.0906  0.3887  0.0939
  674MOL0     C90871  10.479   5.552   0.546 -0.7301  1.0957 -1.5947
  674MOL0     N90872  10.511   5.653   0.663  0.4213  0.0299  0.8148
  674MOL0     C90873  10.629   5.711   0.670  0.0015  0.0229  0.9440
  674MOL0     C90874  10.624   5.795   0.779  0.1271 -0.4033  0.2545
  674MOL0     C90875  10.728   5.896   0.830 -0.2571  0.2385  0.1124
  674MOL0     C90876  10.711   6.038   0.767  0.6149  0.8344  1.3880
  674MOL0     C90877  10.828   6.122   0.807 -0.3183  0.3117 -1.1222
  674MOL0     C90878  10.807   6.275   0.815  0.6315  0.0825  0.4026
  674MOL0     O90879  10.918   6.344   0.858  0.3613 -0.4205  0.7240
  674MOL0     C90880  10.894   6.462   0.917 -0.7872 -0.5249  0.6194
  674MOL0     C90881  10.813   6.562   0.868 -0.7629 -0.9905 -0.0761
  674MOL0     C90882  10.818   6.694   0.917 -0.3283 -0.6367 -0.1418
  674MOL0     C90883  10.914   6.725   1.021  0.2722 -0.0836 -0.1604
  674MOL0     C90884  10.923   6.855   1.088  0.0942 -1.4194  0.1717
  674MOL0     O90885  10.826   6.932   1.035 -0.0777  0.5301 -0.2298
  674MOL0     C90886  10.830   7.063   1.068 -0.5614 -0.4962 -0.6960
  674MOL0     C90887  10.925   7.156   1.024 -0.6470 -0.0181  0.0152
  674MOL0     C90888  10.910   7.288   1.056 -0.5633 -0.7548 -0.3268
  674MOL0     C90889  10.806   7.341   1.131 -0.1536  0.3437 -0.8783
  674MOL0     O90890  10.800   7.473   1.155 -0.2560  0.0811 -0.1632
  674MOL0     C90891  10.904   7.556   1.114  0.1614  0.4782 -0.3769
  674MOL0     C90892  10.901   7.695   1.186 -0.2512 -0.7926 -0.1627
  674MOL0     C90893  10.997   7.784   1.114 -0.2928  0.5507 -0.0886
  674MOL0     C90894  11.004   7.928   1.172  0.1937 -0.2804  0.5373
  674MOL0     C90895  11.102   8.021   1.089  0.6046 -0.3856 -0.8987
  674MOL0     C90896  11.101   8.164   1.128  0.5107  0.0600 -0.8874
  674MOL0     C90897  11.219   8.238   1.083 -1.1812 -0.9240  0.5426
  674MOL0     C90898  11.237   8.248   0.928 -0.1141  0.1842  0.4852
  674MOL0    Cl90899  11.117   8.367   0.859  0.1760 -0.2592  0.0940
  674MOL0     C90900  10.714   7.249   1.172  0.0956  0.9003 -0.9621
  674MOL0     C90901  10.721   7.111   1.143  0.1799 -0.8820 -1.0100
  674MOL0     O90902  11.016   6.894   1.163 -0.3967  0.3039  0.1922
  674MOL0     C90903  10.985   6.618   1.077 -0.2227 -0.3347 -0.9322
  674MOL0     C90904  10.982   6.496   1.023  0.3905 -0.0169  0.0571
  674MOL0     N90905  10.499   5.789   0.831  0.8329  0.8853 -0.1613
  674MOL0     N90906  10.427   5.690   0.761  0.5537 -0.5075 -0.3010
  674MOL0     C90907   9.664   6.094   0.191 -0.2562  0.6973 -0.6159
  674MOL0     C90908   9.537   6.122   0.212 -0.1324 -0.1268 -0.2675
  674MOL0     C90909   9.124   6.236   0.353 -0.1398  0.7386  0.1795
  674MOL0     C90910   9.143   6.361   0.417  0.2872 -0.7925 -0.4591
  674MOL0     C90911   9.034   6.449   0.409  0.0259  0.3320 -0.4959
  674MOL0     C90912   8.910   6.413   0.357  0.2151 -0.3339 -0.3074
  674MOL0     O90913   8.803   6.505   0.359  0.6145  0.1396 -1.0201
  674MOL0     C90914   8.832   6.619   0.267 -0.4926 -0.2475 -0.4602
  674MOL0     C90915   8.791   6.603   0.126  0.0710 -0.8341 -0.1520
  674MOL0     C90916   8.890   6.553   0.029 -0.2471  0.5771  0.7804
  674MOL0     C90917   8.843   6.524  -0.110  0.2484  0.2784 -0.3873
  674MOL0     C90918   8.784   6.390  -0.093  0.3784  0.3210  1.1643
  674MOL0     C90919   8.725   6.289  -0.076  0.8135 -0.4609  0.4752
  674MOL0     C90920   8.894   6.288   0.308  0.1685 -0.2478  0.1394
  674MOL0     C90921   8.995   6.201   0.303 -0.0634  0.9465 -0.2556
  674MOL0     C90922   8.975   6.074   0.228 -0.4210 -0.2130 -0.0855
  674MOL0     H90923   9.567   6.224   0.531  3.7456 -2.1678  2.7727
  674MOL0     H90924   9.806   6.183   0.483  1.5129  0.0837 -1.8991
  674MOL0     H90925  10.029   6.232   0.350  4.3965 -0.7859  2.0949
  674MOL0     H90926   9.986   6.075   0.430  2.8079  0.8186  0.0107
  674MOL0     H90927  10.218   6.130   0.330  1.5937 -0.1069 -2.0659
  674MOL0     H90928  10.138   6.100   0.174 -1.0917  0.4702 -0.2640
  674MOL0     H90929  10.051   5.879   0.250  0.2807  1.7295 -1.4519
  674MOL0     H90930  10.126   5.882   0.400 -4.6104 -0.7278 -0.5724
  674MOL0     H90931  10.278   5.870   0.139 -1.6759 -0.1482 -0.4337
  674MOL0     H90932  10.359   5.894   0.285  0.1540  1.1638 -0.7613
  674MOL0     H90933  10.163   5.669   0.243 -2.0121  3.7743  2.8192
  674MOL0     H90934  10.329   5.635   0.191 -0.3911 -2.1316  1.8880
  674MOL0     H90935  10.276   5.737   0.478 -3.3740 -1.2503  0.7743
  674MOL0     H90936  10.247   5.565   0.442  2.2811 -1.8602 -1.0362
  674MOL0     H90937  10.519   5.708   0.414  1.6871 -0.5883 -4.8853
  674MOL0     H90938  10.474   5.553   0.330 -0.7701  0.3651 -0.0726
  674MOL0     H90939  10.411   5.471   0.574 -3.0219  3.5864  0.5376
  674MOL0     H90940  10.571   5.496   0.533 -1.8320 -1.8546  1.8234
  674MOL0     H90941  10.711   5.717   0.598 -1.6870  1.5138 -0.9653
  674MOL0     H90942  10.726   5.902   0.939  1.5767 -1.1295  0.2690
  674MOL0     H90943  10.829   5.858   0.812 -0.8596 -0.3674 -2.3824
  674MOL0     H90944  10.713   6.030   0.658 -1.0547 -2.1061  1.4597
  674MOL0     H90945  10.612   6.071   0.800 -0.8004 -1.9880  0.3053
  674MOL0     H90946  10.911   6.102   0.739  1.3619  0.6126  0.7312
  674MOL0     H90947  10.865   6.099   0.908 -1.4075  0.1628 -0.7422
  674MOL0     H90948  10.720   6.300   0.876 -0.8113  1.9974 -2.2178
  674MOL0     H90949  10.787   6.300   0.710 -2.9465  0.8475  1.1302
  674MOL0     H90950  10.755   6.534   0.780 -0.5686  1.1558 -0.9473
  674MOL0     H90951  10.763   6.768   0.859  1.5946  2.9496  2.1751
  674MOL0     H90952  11.003   7.121   0.957  2.1638 -1.7756  3.8334
  674MOL0     H90953  10.984   7.354   1.010 -2.1652 -0.1644 -2.2002
  674MOL0     H90954  10.999   7.512   1.143 -0.4097 -1.3612 -1.1705
  674MOL0     H90955  10.913   7.569   1.005  2.4923 -0.9815 -0.4120
  674MOL0     H90956  10.804   7.744   1.172  0.7581  2.2313  2.1418
  674MOL0     H90957  10.929   7.694   1.292 -2.6996 -0.6483  0.5586
  674MOL0     H90958  11.096   7.739   1.122 -0.7709 -0.1811  3.6790
  674MOL0     H90959  10.984   7.789   1.005  0.7195 -2.6293 -0.4499
  674MOL0     H90960  11.033   7.925   1.278  1.4871 -3.7180  0.2023
  674MOL0     H90961  10.907   7.979   1.169  1.7283  2.8649 -0.3290
  674MOL0     H90962  11.067   8.014   0.986  1.3491  0.2803 -1.2068
  674MOL0     H90963  11.204   7.982   1.091  1.1465  1.0019 -0.2399
  674MOL0     H90964  11.012   8.218   1.095  0.6076  0.1668 -0.9765
  674MOL0     H90965  11.107   8.156   1.237  1.4166 -2.7364 -1.0443
  674MOL0     H90966  11.303   8.176   1.114 -1.5887 -1.3012  0.9003
  674MOL0     H90967  11.229   8.334   1.136 -2.2891 -1.0094  0.9251
  674MOL0     H90968  11.338   8.282   0.903  0.0503 -2.3500 -3.0371
  674MOL0     H90969  11.227   8.151   0.879 -0.3964  1.1740 -1.5158
  674MOL0     H90970  10.635   7.294   1.231  0.0577 -0.4194  0.0347
  674MOL0     H90971  10.641   7.042   1.168 -1.3940  0.3885 -2.2895
  674MOL0     H90972  11.053   6.634   1.160 -0.7885 -0.6930 -0.3875
  674MOL0     H90973  11.047   6.421   1.068  0.3455  0.7070  1.3577
  674MOL0     H90974   9.678   6.054   0.090 -2.8071 -0.8260 -0.4534
  674MOL0     H90975   9.472   6.088   0.133  1.3753 -1.6374 -0.9148
  674MOL0     H90976   9.234   6.387   0.468 -1.7052  0.9315  2.5285
  674MOL0     H90977   9.058   6.545   0.453  1.9967  1.0575 -2.9325
  674MOL0     H90978   8.941   6.634   0.266 -0.5010 -0.0379  0.5427
  674MOL0     H90979   8.797   6.718   0.297  0.9909  0.8048 -1.9852
  674MOL0     H90980   8.744   6.694   0.086  3.0480 -0.0846 -2.3174
  674MOL0     H90981   8.703   6.539   0.131 -0.2029 -0.4629 -0.1480
  674MOL0     H90982   8.950   6.469   0.067  2.4645  1.6569 -0.8314
  674MOL0     H90983   8.964   6.634   0.025  0.8657 -0.4636 -1.2813
  674MOL0     H90984   8.780   6.599  -0.160  1.5085 -0.2033 -2.8528
  674MOL0     H90985   8.929   6.514  -0.177 -1.0641 -0.1009 -2.1084
  674MOL0     H90986   8.659   6.204  -0.073  0.2990 -0.0286  2.3655
  674MOL0     H90987   8.808   6.285   0.243 -0.7892  3.2945  1.0143
  674MOL0     H90988   9.004   5.992   0.293  0.4068  0.5737  0.5643
  674MOL0     H90989   8.871   6.052   0.202 -0.6046  0.3531  0.1563
  674MOL0     H90990   9.028   6.073   0.132  1.0182  1.7959  0.6110
  675MOL0     O90991  11.091   6.058   3.904 -0.1411 -1.3580 -0.1083
  675MOL0     C90992  11.166   6.066   3.810  0.6841  0.3384 -0.3776
  675MOL0     O90993  11.281   5.994   3.798  0.5249  0.4872  0.8317
  675MOL0     C90994  11.324   5.890   3.889  0.0753 -0.2113  1.4439
  675MOL0     C90995  11.459   5.852   3.874  1.1690 -0.9781 -0.0601
  675MOL0     C90996  11.504   5.741   3.950  0.2464  1.2479  0.9505
  675MOL0     C90997  11.421   5.667   4.029  0.4944  0.9862  0.2461
  675MOL0     O90998  11.463   5.550   4.087 -0.1183 -0.2595  0.2300
  675MOL0     C90999  11.397   5.430   4.057 -0.3021 -0.6142  0.3218
  675MOL0     C91000  11.508   5.327   4.028 -0.2096 -0.8010 -0.3306
  675MOL0     C91001  11.473   5.180   4.073  0.3842  0.2203  0.6858
  675MOL0     C91002  11.360   5.109   3.999  0.0167  0.2465  0.2138
  675MOL0     C91003  11.383   5.108   3.846 -0.6981 -0.3439  0.4677
  675MOL0     C91004  11.507   5.010   3.790  0.5508 -0.0916  0.4033
  675MOL0     C91005  11.507   4.865   3.833 -0.5190 -0.9084  1.4097
  675MOL0     C91006  11.375   4.801   3.815  0.5698  0.4166  0.5808
  675MOL0     N91007  11.335   4.777   3.675 -0.0043 -0.5199 -0.1938
  675MOL0     C91008  11.396   4.681   3.599  1.1681  0.0755 -0.6744
  675MOL0     C91009  11.355   4.704   3.472  0.1011  0.6318 -0.5881
  675MOL0     C91010  11.399   4.625   3.357 -0.7088 -0.3293  0.0830
  675MOL0     C91011  11.364   4.703   3.222 -1.4197  0.4694 -0.0226
  675MOL0     C91012  11.423   4.625   3.106 -0.2675 -0.2610  0.3732
  675MOL0     C91013  11.405   4.714   2.977  0.5226  0.1386 -0.5402
  675MOL0     O91014  11.272   4.708   2.925  0.1471  0.3030 -0.7843
  675MOL0     C91015  11.252   4.724   2.790 -0.2398 -0.5312 -0.2636
  675MOL0     C91016  11.337   4.798   2.709  0.0789  0.2080  0.3157
  675MOL0     C91017  11.309   4.828   2.572  0.2392 -0.3831  0.0886
  675MOL0     C91018  11.185   4.776   2.512  0.4287  0.3959 -1.0994
  675MOL0     C91019  11.141   4.808   2.374  0.1734 -0.3238  0.0070
  675MOL0     O91020  11.234   4.869   2.297  0.2830  0.0867  1.0284
  675MOL0     C91021  11.194   4.910   2.174  0.6615 -0.6721 -0.1857
  675MOL0     C91022  11.210   5.047   2.156  0.4482  0.4433 -1.0105
  675MOL0     C91023  11.165   5.104   2.030  0.2074 -0.5699  0.2203
  675MOL0     C91024  11.122   5.023   1.929 -0.4890  0.4729  0.2526
  675MOL0     O91025  11.097   5.061   1.801 -0.1235 -0.2380  0.4522
  675MOL0     C91026  11.060   5.197   1.775  0.0682  0.0911  0.4276
  675MOL0     C91027  11.051   5.211   1.619  0.2012  0.1039  0.6978
  675MOL0     C91028  11.185   5.232   1.552 -0.2912 -0.3565  0.4356
  675MOL0     C91029  11.165   5.271   1.395  0.4463  0.0244 -0.0701
  675MOL0     C91030  11.113   5.162   1.313  0.2146  0.4652  0.8287
  675MOL0     C91031  11.081   5.183   1.157  1.3572 -0.2182  0.2265
  675MOL0     C91032  11.217   5.178   1.075  0.5828  0.3339  0.2335
  675MOL0     C91033  11.185   5.150   0.925  0.4346  0.0682  1.2400
  675MOL0    Cl91034  11.099   5.290   0.845 -0.0768  0.2061 -0.4798
  675MOL0     C91035  11.126   4.882   1.949  0.5266 -1.0802  0.0716
  675MOL0     C91036  11.157   4.825   2.068  0.5669 -0.8960  0.3969
  675MOL0     O91037  11.028   4.776   2.337 -0.0379  0.1372 -0.4592
  675MOL0     C91038  11.109   4.692   2.592 -0.4550  0.3073  0.2412
  675MOL0     C91039  11.141   4.666   2.726  0.3213  0.1914 -0.6890
  675MOL0     N91040  11.271   4.818   3.477 -1.0193 -0.3345  0.2112
  675MOL0     N91041  11.250   4.851   3.605  0.8269  0.2017 -0.1005
  675MOL0     C91042  11.289   5.710   4.040 -0.6215  0.6457 -0.1161
  675MOL0     C91043  11.242   5.821   3.969 -0.4890  0.0001  0.2472
  675MOL0     C91044  11.124   6.157   3.704  0.4598  0.1463 -0.4485
  675MOL0     C91045  11.146   6.116   3.570 -0.1471  1.0893  0.0937
  675MOL0     C91046  11.085   6.186   3.461  1.0917  0.1631  0.2410
  675MOL0     C91047  10.990   6.288   3.485  0.1827 -0.9305  0.1300
  675MOL0     O91048  10.925   6.334   3.373  0.2242 -0.2771  0.4365
  675MOL0     C91049  10.836   6.449   3.376  0.0544  0.1567  0.2197
  675MOL0     C91050  10.814   6.478   3.222 -0.7419 -0.1293  0.6257
  675MOL0     C91051  10.710   6.587   3.194 -1.0667 -0.6784 -0.1327
  675MOL0     C91052  10.765   6.726   3.247 -0.0926  0.1209  0.3050
  675MOL0     C91053  10.667   6.837   3.227  1.3289 -0.5118  0.3573
  675MOL0     C91054  10.570   6.915   3.216 -0.0547  0.6041 -0.9296
  675MOL0     C91055  10.983   6.338   3.615  0.3618  0.5262  0.4586
  675MOL0     C91056  11.048   6.270   3.723  0.7321  0.7356  0.0287
  675MOL0     C91057  11.038   6.340   3.860 -0.1347  0.9765 -0.0510
  675MOL0     H91058  11.516   5.917   3.808  2.3762 -1.9052  0.0446
  675MOL0     H91059  11.611   5.724   3.939 -0.1333  0.2122 -1.8689
  675MOL0     H91060  11.346   5.398   4.148 -0.1573  0.8295  0.9391
  675MOL0     H91061  11.324   5.431   3.976  1.3979 -1.3195 -1.3093
  675MOL0     H91062  11.601   5.356   4.077 -0.8922 -0.6916  0.9589
  675MOL0     H91063  11.523   5.325   3.920  1.1679  2.4448 -0.3165
  675MOL0     H91064  11.436   5.182   4.176  0.6187 -1.4319  0.8266
  675MOL0     H91065  11.567   5.125   4.075  0.6494  0.5997 -0.5343
  675MOL0     H91066  11.333   5.010   4.036 -3.1140  0.0412 -2.2066
  675MOL0     H91067  11.273   5.176   4.006  0.0290  0.5833 -2.0647
  675MOL0     H91068  11.287   5.071   3.808 -0.9146  0.0384  0.6443
  675MOL0     H91069  11.394   5.205   3.796 -2.5455  0.0454  0.7462
  675MOL0     H91070  11.494   5.016   3.682 -0.1739  0.4226  0.5196
  675MOL0     H91071  11.609   5.047   3.807  0.9833 -0.3939 -1.3108
  675MOL0     H91072  11.525   4.854   3.940  2.2250 -0.4569  1.0680
  675MOL0     H91073  11.584   4.807   3.781  0.4558 -0.6929  2.5735
  675MOL0     H91074  11.384   4.697   3.847 -0.8670 -0.9611 -2.9146
  675MOL0     H91075  11.297   4.844   3.878  0.6146  1.9576 -0.3624
  675MOL0     H91076  11.473   4.612   3.630  2.8041  0.9210 -2.6094
  675MOL0     H91077  11.506   4.613   3.373 -0.7332 -0.3071  0.2582
  675MOL0     H91078  11.349   4.528   3.358  0.9625 -1.2140  0.0050
  675MOL0     H91079  11.255   4.708   3.216 -1.5088  0.2281  1.1321
  675MOL0     H91080  11.411   4.801   3.235 -0.3562  0.0399 -0.5020
  675MOL0     H91081  11.378   4.526   3.096  1.3153 -0.9508 -0.2961
  675MOL0     H91082  11.528   4.611   3.132 -0.4115  2.7983  3.1428
  675MOL0     H91083  11.469   4.667   2.902 -1.5931 -0.6243 -1.9549
  675MOL0     H91084  11.437   4.818   2.985 -1.6392  1.0055 -2.1410
  675MOL0     H91085  11.431   4.837   2.745  0.0168 -0.7666  1.6143
  675MOL0     H91086  11.375   4.891   2.515  1.8444 -2.4886 -0.4977
  675MOL0     H91087  11.252   5.120   2.224  0.8341  0.9191 -1.7415
  675MOL0     H91088  11.155   5.209   2.003  0.3662 -0.8844 -1.1606
  675MOL0     H91089  10.965   5.215   1.828 -1.6561 -1.5474 -1.9178
  675MOL0     H91090  11.136   5.267   1.811  0.8351  0.4975 -1.8235
  675MOL0     H91091  11.017   5.116   1.578 -0.4654  1.2019 -1.4324
  675MOL0     H91092  10.997   5.299   1.584 -0.8409 -1.2311 -1.2605
  675MOL0     H91093  11.241   5.315   1.595 -0.3611  0.1828 -0.4753
  675MOL0     H91094  11.251   5.146   1.567  0.6665 -0.0253 -1.4521
  675MOL0     H91095  11.257   5.313   1.355 -0.3184  0.7818 -1.1015
  675MOL0     H91096  11.092   5.353   1.394 -0.6038 -0.8820 -0.5860
  675MOL0     H91097  11.021   5.126   1.361 -0.4572 -0.6355 -1.1531
  675MOL0     H91098  11.188   5.082   1.313  1.1440  1.3116  0.7906
  675MOL0     H91099  11.019   5.098   1.127  0.7472 -0.0332  0.9269
  675MOL0     H91100  11.029   5.276   1.134  0.3575 -0.9384 -0.4919
  675MOL0     H91101  11.271   5.089   1.108 -1.2190 -0.9385 -0.1329
  675MOL0     H91102  11.275   5.270   1.088  0.3356  0.5188  0.0355
  675MOL0     H91103  11.277   5.121   0.874 -1.0170 -1.8555 -0.4288
  675MOL0     H91104  11.114   5.068   0.913  1.0959 -0.5238  1.3706
  675MOL0     H91105  11.097   4.822   1.863 -2.1350  2.8328 -2.0735
  675MOL0     H91106  11.160   4.717   2.077 -0.6034 -1.0291 -0.5513
  675MOL0     H91107  11.022   4.646   2.546  0.0119  1.8058 -2.3704
  675MOL0     H91108  11.085   4.588   2.777  0.3227 -1.6120 -3.2572
  675MOL0     H91109  11.213   5.664   4.103 -1.2248  0.3090 -1.0634
  675MOL0     H91110  11.135   5.839   3.967 -0.8800 -1.7200  1.9362
  675MOL0     H91111  11.209   6.031   3.545  0.4045  1.4125  0.3620
  675MOL0     H91112  11.103   6.139   3.365  2.0847  1.3769 -0.1859
  675MOL0     H91113  10.901   6.530   3.410  2.4961 -1.2810 -0.6754
  675MOL0     H91114  10.745   6.422   3.430  0.6626 -2.6175  0.0154
  675MOL0     H91115  10.796   6.390   3.159  5.5829 -2.3943  1.2331
  675MOL0     H91116  10.902   6.521   3.173 -0.9205 -0.9198 -0.4277
  675MOL0     H91117  10.624   6.563   3.257 -1.8046  1.3876 -0.2973
  675MOL0     H91118  10.687   6.590   3.087  2.4784  0.0458 -1.0101
  675MOL0     H91119  10.781   6.717   3.355 -0.5316 -1.0798  0.2929
  675MOL0     H91120  10.856   6.749   3.191  1.2947 -1.2225  1.8856
  675MOL0     H91121  10.504   6.986   3.172  0.9466  1.5868 -0.8754
  675MOL0     H91122  10.939   6.436   3.622  2.4015  1.5743 -0.5230
  675MOL0     H91123  10.992   6.279   3.938 -1.7695 -0.9269 -2.3300
  675MOL0     H91124  11.140   6.359   3.895  0.8624 -2.1829 -0.8570
  675MOL0     H91125  10.983   6.433   3.846  0.4615  1.0219 -2.7619
  676MOL0     O91126   2.179   5.472   5.101 -0.3437 -0.3727 -0.2294
  676MOL0     C91127   2.174   5.351   5.088 -0.7856  0.1672 -0.2718
  676MOL0     O91128   2.283   5.277   5.058 -0.0220 -0.0575 -0.0640
  676MOL0     C91129   2.400   5.348   5.026 -0.9672  1.1933 -0.5864
  676MOL0     C91130   2.484   5.391   5.128 -0.0669  0.4053  0.0574
  676MOL0     C91131   2.614   5.442   5.103  0.5456  0.2636  1.0581
  676MOL0     C91132   2.648   5.461   4.963  0.8273 -0.4185 -0.5700
  676MOL0     O91133   2.771   5.520   4.940  0.4010 -0.5476 -0.2652
  676MOL0     C91134   2.807   5.526   4.803 -0.5307 -0.7301 -0.0161
  676MOL0     C91135   2.956   5.578   4.802 -0.8946 -0.6310 -0.5674
  676MOL0     C91136   3.025   5.549   4.666  0.7679  0.3568 -0.5684
  676MOL0     C91137   3.172   5.580   4.671  0.1068 -1.3712  0.2976
  676MOL0     C91138   3.247   5.523   4.548 -0.3984 -1.2895 -0.9275
  676MOL0     C91139   3.390   5.492   4.588  0.0866 -0.5562  0.0319
  676MOL0     C91140   3.475   5.458   4.457 -0.4503 -0.1229 -0.6976
  676MOL0     C91141   3.571   5.564   4.402  0.2903  0.6349  0.3683
  676MOL0     N91142   3.695   5.553   4.471 -0.4852 -0.5953 -0.7757
  676MOL0     C91143   3.811   5.597   4.404  0.9967  0.1821 -0.2570
  676MOL0     C91144   3.906   5.597   4.498  0.1451  0.5056 -0.6280
  676MOL0     C91145   4.049   5.637   4.493  0.4013  0.6225  1.2102
  676MOL0     C91146   4.050   5.788   4.435  1.3246 -0.1641 -0.5132
  676MOL0     C91147   4.190   5.856   4.425  0.3245  0.0874 -0.1018
  676MOL0     C91148   4.241   5.923   4.551 -0.3857 -0.9436  0.2096
  676MOL0     O91149   4.241   5.845   4.669  0.1885  0.1968  0.7034
  676MOL0     C91150   4.322   5.873   4.777  0.1666  0.5222  0.2121
  676MOL0     C91151   4.338   5.777   4.875 -0.5479  0.2301 -0.5586
  676MOL0     C91152   4.413   5.795   4.993  0.1997 -0.5052  0.3746
  676MOL0     C91153   4.469   5.923   5.024  0.1067  0.7269  0.1513
  676MOL0     C91154   4.534   5.954   5.152  0.0865 -0.1938 -0.6213
  676MOL0     O91155   4.554   5.842   5.245 -0.1433 -0.5785  0.5285
  676MOL0     C91156   4.601   5.844   5.372 -0.5430 -0.6322 -0.3438
  676MOL0     C91157   4.609   5.954   5.457 -0.9180 -0.6108  0.1883
  676MOL0     C91158   4.651   5.950   5.590  0.4564  0.0892  0.5453
  676MOL0     C91159   4.681   5.824   5.646 -0.8027  0.9998  0.3456
  676MOL0     O91160   4.733   5.815   5.771 -0.1907  0.1477 -0.3785
  676MOL0     C91161   4.807   5.700   5.817  0.0611  0.5668  0.6728
  676MOL0     C91162   4.901   5.733   5.931  1.1437 -0.1992  1.0703
  676MOL0     C91163   4.985   5.856   5.890  0.0416 -0.6091 -0.3873
  676MOL0     C91164   5.062   5.844   5.756  0.6737  0.1783  0.3055
  676MOL0     C91165   5.131   5.981   5.737  0.3115 -0.0079  0.6150
  676MOL0     C91166   5.255   5.979   5.650  0.3518 -0.5777  0.0576
  676MOL0     C91167   5.346   6.098   5.665 -0.5269  0.2220  0.3532
  676MOL0     C91168   5.302   6.229   5.598 -0.4983 -0.1588 -0.3937
  676MOL0    Cl91169   5.285   6.221   5.422  0.6087  0.1145  0.3899
  676MOL0     C91170   4.668   5.708   5.566 -0.1321  0.4714  0.0037
  676MOL0     C91171   4.630   5.717   5.425  0.2881  0.4963  0.6507
  676MOL0     O91172   4.564   6.072   5.172 -0.0567  0.2118  0.0313
  676MOL0     C91173   4.448   6.016   4.921 -0.6506  0.2411 -0.0886
  676MOL0     C91174   4.368   5.996   4.812 -0.4566 -0.8456 -0.0124
  676MOL0     N91175   3.852   5.542   4.616 -0.2683  0.1731 -0.1365
  676MOL0     N91176   3.721   5.523   4.602 -0.1986  0.2292 -0.1316
  676MOL0     C91177   2.560   5.411   4.865 -0.6452 -0.2199 -0.2165
  676MOL0     C91178   2.435   5.360   4.898  0.1498 -0.8179 -0.0977
  676MOL0     C91179   2.040   5.283   5.087  0.3402 -0.1231 -0.2539
  676MOL0     C91180   2.047   5.143   5.099 -0.3008 -1.2429 -0.3130
  676MOL0     C91181   1.935   5.060   5.093 -0.4034 -0.0057  0.6503
  676MOL0     C91182   1.804   5.120   5.086 -0.0732 -0.2948 -0.0010
  676MOL0     O91183   1.698   5.034   5.094 -0.1870  0.2534  0.8561
  676MOL0     C91184   1.601   5.063   4.996 -0.3869 -0.1232 -0.3230
  676MOL0     C91185   1.546   4.920   4.959 -0.2435 -0.0778 -0.3730
  676MOL0     C91186   1.465   4.847   5.079 -0.3381 -0.4675  0.1073
  676MOL0     C91187   1.323   4.906   5.098  1.2557 -0.4395 -0.6193
  676MOL0     C91188   1.250   4.888   4.971 -0.0684  0.6107  0.5530
  676MOL0     C91189   1.183   4.867   4.876 -0.2630 -0.3761  0.3594
  676MOL0     C91190   1.790   5.260   5.086 -0.4769 -1.3678 -1.2810
  676MOL0     C91191   1.904   5.341   5.082 -0.4199 -0.1941  1.1402
  676MOL0     C91192   1.870   5.497   5.067  0.8747 -0.4348  0.2656
  676MOL0     H91193   2.434   5.371   5.222 -3.3919  1.5576 -1.3172
  676MOL0     H91194   2.663   5.470   5.195 -2.0893  2.0074  2.0584
  676MOL0     H91195   2.821   5.424   4.767  1.5990 -1.3475  2.2955
  676MOL0     H91196   2.742   5.591   4.743 -0.6071  0.9252  1.7543
  676MOL0     H91197   3.020   5.542   4.883 -0.5734  1.9234  0.4101
  676MOL0     H91198   2.956   5.687   4.816  1.6115 -0.6176 -0.3409
  676MOL0     H91199   2.981   5.604   4.582 -0.3879 -1.7996 -1.4579
  676MOL0     H91200   3.018   5.441   4.649 -0.8033  0.9063 -4.8527
  676MOL0     H91201   3.192   5.688   4.681  0.8061 -1.4335 -0.3253
  676MOL0     H91202   3.211   5.544   4.766  3.3155  1.0901  0.1328
  676MOL0     H91203   3.204   5.428   4.514 -1.3854 -0.8834 -0.8526
  676MOL0     H91204   3.236   5.593   4.465 -0.9177  2.4783  2.0337
  676MOL0     H91205   3.426   5.577   4.647 -0.3656 -1.2266  1.3120
  676MOL0     H91206   3.382   5.407   4.656 -1.0387 -0.2503  0.2943
  676MOL0     H91207   3.401   5.430   4.380  1.1719 -3.9285 -1.0861
  676MOL0     H91208   3.533   5.369   4.483  0.0393  0.9180  2.1241
  676MOL0     H91209   3.584   5.548   4.294  0.6915  1.8787  0.2133
  676MOL0     H91210   3.524   5.661   4.418 -0.3728  0.2813  0.6299
  676MOL0     H91211   3.832   5.623   4.301 -1.4084 -0.4857 -0.9949
  676MOL0     H91212   4.101   5.621   4.587  0.6463  0.6118  1.0732
  676MOL0     H91213   4.104   5.565   4.432 -1.9997 -1.9426  1.8378
  676MOL0     H91214   3.998   5.783   4.339 -1.8161  0.8491  1.0171
  676MOL0     H91215   3.981   5.852   4.491  1.1521  1.1719 -2.1662
  676MOL0     H91216   4.186   5.927   4.342 -2.0795  0.8037  0.5407
  676MOL0     H91217   4.262   5.779   4.398 -1.4544 -1.1361 -1.6494
  676MOL0     H91218   4.160   5.995   4.563  1.6716  1.7381 -0.9489
  676MOL0     H91219   4.340   5.969   4.539  0.4329 -2.3511  1.2979
  676MOL0     H91220   4.278   5.688   4.862 -1.8444  0.9320  0.4024
  676MOL0     H91221   4.450   5.712   5.053  0.8034 -1.2924 -1.0301
  676MOL0     H91222   4.576   6.044   5.405 -1.3063 -0.2177  1.0966
  676MOL0     H91223   4.664   6.042   5.646  0.5656 -1.7820  3.8437
  676MOL0     H91224   4.750   5.616   5.859  0.1307 -0.1312 -0.5752
  676MOL0     H91225   4.850   5.654   5.727 -3.1310 -0.8155 -0.2871
  676MOL0     H91226   4.840   5.753   6.020  1.0388 -1.4163  1.2910
  676MOL0     H91227   4.968   5.653   5.964 -0.4745 -0.7496  3.3383
  676MOL0     H91228   4.919   5.944   5.887  0.2671 -0.3117  1.8370
  676MOL0     H91229   5.056   5.864   5.972  2.0381 -1.0847 -1.9955
  676MOL0     H91230   4.995   5.837   5.669  1.0510  1.6044 -0.1315
  676MOL0     H91231   5.131   5.760   5.765 -2.0246 -2.1418  0.9040
  676MOL0     H91232   5.166   5.998   5.839  0.2385 -0.3536  0.6980
  676MOL0     H91233   5.053   6.054   5.714  2.4826  1.8730 -1.3713
  676MOL0     H91234   5.302   5.886   5.683 -1.1000 -1.2625  0.2803
  676MOL0     H91235   5.226   5.982   5.545  0.9446  2.3387 -0.0969
  676MOL0     H91236   5.446   6.077   5.625 -0.2026 -0.8791  1.6328
  676MOL0     H91237   5.369   6.109   5.772  0.6042 -2.0353  0.3976
  676MOL0     H91238   5.204   6.244   5.644 -0.2044 -3.7732  1.7823
  676MOL0     H91239   5.372   6.310   5.617 -0.2880 -0.4709  0.1800
  676MOL0     H91240   4.676   5.609   5.611 -0.0889  0.6489  0.3868
  676MOL0     H91241   4.629   5.618   5.381  1.5689 -0.4547  2.6145
  676MOL0     H91242   4.479   6.119   4.938  2.2295 -0.6544  0.6444
  676MOL0     H91243   4.362   6.086   4.751  3.3509 -0.5082 -0.1729
  676MOL0     H91244   2.586   5.418   4.759  1.6950 -2.9228  0.0462
  676MOL0     H91245   2.371   5.324   4.817  0.4584 -2.3983  0.3261
  676MOL0     H91246   2.143   5.098   5.123  0.1319 -0.2442 -0.0949
  676MOL0     H91247   1.941   4.953   5.105  1.3219 -0.0769 -0.4571
  676MOL0     H91248   1.641   5.111   4.906 -1.2314 -1.6191 -1.5591
  676MOL0     H91249   1.524   5.131   5.034  0.9080 -0.5546  3.4523
  676MOL0     H91250   1.631   4.860   4.926 -0.9297 -0.9053 -0.7022
  676MOL0     H91251   1.486   4.932   4.868 -0.6232 -2.1270 -0.4403
  676MOL0     H91252   1.509   4.854   5.179 -0.8773 -1.1242  0.3983
  676MOL0     H91253   1.467   4.740   5.058  0.2623 -0.1453 -1.6449
  676MOL0     H91254   1.264   4.867   5.182  0.9653  0.2015 -0.5241
  676MOL0     H91255   1.327   5.015   5.109  2.3303 -0.3521 -1.6435
  676MOL0     H91256   1.136   4.853   4.781 -0.5644 -0.7414  0.5618
  676MOL0     H91257   1.689   5.299   5.092 -0.6563 -1.8042 -1.4373
  676MOL0     H91258   1.763   5.508   5.090  0.2431  0.3456 -2.6139
  676MOL0     H91259   1.928   5.567   5.127 -0.1610  0.5304  0.1728
  676MOL0     H91260   1.868   5.547   4.969  0.3136  0.7789  0.8759
  677MOL0     O91261   4.871   1.604   1.898  0.9024  0.4107 -0.4822
  677MOL0     C91262   4.904   1.488   1.896 -0.0310 -0.6679  0.6184
  677MOL0     O91263   4.858   1.399   1.815  0.4219 -0.7660  0.4838
  677MOL0     C91264   4.725   1.414   1.791  0.5008  0.7268 -1.0338
  677MOL0     C91265   4.678   1.476   1.678 -0.1130 -0.4147 -0.1219
  677MOL0     C91266   4.541   1.503   1.651 -0.8245  0.3057  0.1178
  677MOL0     C91267   4.446   1.475   1.750 -0.4506 -1.0227  0.4598
  677MOL0     O91268   4.312   1.508   1.725  0.0844 -0.0742  0.2138
  677MOL0     C91269   4.287   1.633   1.665 -0.4485 -0.6758  0.2356
  677MOL0     C91270   4.145   1.668   1.683 -0.6861 -0.2298  0.4117
  677MOL0     C91271   4.103   1.661   1.830  0.6897  0.5423 -0.4457
  677MOL0     C91272   4.084   1.792   1.894  0.9768 -0.6942 -0.2504
  677MOL0     C91273   4.071   1.779   2.052  0.7113 -0.9379 -0.0222
  677MOL0     C91274   3.947   1.706   2.092  0.2546  0.3086  0.1656
  677MOL0     C91275   3.810   1.739   2.022 -0.2222 -0.5404  0.4601
  677MOL0     C91276   3.747   1.880   2.062  0.2290  0.0547 -1.2387
  677MOL0     N91277   3.633   1.917   1.976  0.5229  1.0813 -0.0100
  677MOL0     C91278   3.648   1.980   1.852  0.3682  0.5051 -0.7402
  677MOL0     C91279   3.530   1.956   1.785 -0.9692  0.0360 -1.0061
  677MOL0     C91280   3.492   2.018   1.649 -0.8099 -0.0353 -0.2870
  677MOL0     C91281   3.512   1.930   1.526  0.2220 -1.1652 -0.4878
  677MOL0     C91282   3.443   2.007   1.423 -1.2965 -0.0291 -1.0823
  677MOL0     C91283   3.424   1.916   1.300 -0.3505  0.5693  0.2825
  677MOL0     O91284   3.344   1.985   1.202  0.7225 -0.5008  0.7287
  677MOL0     C91285   3.324   1.950   1.071  0.6851 -0.9713 -0.4683
  677MOL0     C91286   3.236   2.015   0.985 -0.0878 -0.2177  0.5963
  677MOL0     C91287   3.218   1.976   0.852  0.3138  0.7414 -0.2415
  677MOL0     C91288   3.283   1.865   0.805 -0.0934 -1.0147  1.0333
  677MOL0     C91289   3.258   1.818   0.666  0.1219  0.2242 -0.5246
  677MOL0     O91290   3.132   1.834   0.615  0.1190 -0.3335 -0.0461
  677MOL0     C91291   3.079   1.767   0.502  0.3016 -0.8017 -0.5320
  677MOL0     C91292   3.017   1.639   0.520 -0.1148  0.0295 -0.5750
  677MOL0     C91293   2.979   1.565   0.399  0.6122  0.8286  0.3736
  677MOL0     C91294   2.983   1.635   0.275 -1.3615 -0.6313  0.0016
  677MOL0     O91295   2.918   1.580   0.164 -0.1563 -0.6112 -0.3435
  677MOL0     C91296   2.965   1.450   0.115  0.0387  0.2546  0.3413
  677MOL0     C91297   2.856   1.366   0.055  0.7757  0.2029  0.0013
  677MOL0     C91298   2.886   1.220   0.031 -0.1778  0.7572 -0.2373
  677MOL0     C91299   3.001   1.213  -0.069 -0.1866  0.3810  0.1299
  677MOL0     C91300   3.030   1.058  -0.099  0.5113 -0.3037 -0.5793
  677MOL0     C91301   3.143   1.046  -0.199 -0.7663 -0.8907 -0.1420
  677MOL0     C91302   3.275   0.984  -0.156  0.1521  0.2452 -0.9159
  677MOL0     C91303   3.379   0.999  -0.263 -0.2498  1.1734 -0.8488
  677MOL0    Cl91304   3.340   0.921  -0.412 -0.3596  0.2739 -0.5148
  677MOL0     C91305   3.051   1.753   0.265 -0.7518  0.3417  0.8000
  677MOL0     C91306   3.100   1.816   0.374 -0.0919 -0.6503  0.0893
  677MOL0     O91307   3.353   1.771   0.606 -0.4479  0.0543 -0.1927
  677MOL0     C91308   3.369   1.803   0.888  0.0432  0.4653  0.3236
  677MOL0     C91309   3.390   1.834   1.021 -0.0027 -0.6299 -0.2156
  677MOL0     N91310   3.463   1.859   1.855 -1.0409 -0.0727  0.0945
  677MOL0     N91311   3.521   1.843   1.966  1.2482  0.8779 -0.6033
  677MOL0     C91312   4.489   1.411   1.866 -0.2355 -0.5596  0.0400
  677MOL0     C91313   4.624   1.390   1.894 -0.1254  0.1321 -0.3577
  677MOL0     C91314   5.009   1.442   1.988  0.1978 -0.0445  0.2204
  677MOL0     C91315   5.095   1.341   1.936 -0.2454  0.0672  0.0230
  677MOL0     C91316   5.207   1.300   2.014  0.9109  0.0106 -0.7308
  677MOL0     C91317   5.219   1.341   2.143  0.1555  0.1245 -0.6545
  677MOL0     O91318   5.310   1.288   2.227 -0.1813  0.3679 -0.3092
  677MOL0     C91319   5.395   1.181   2.202  0.4544  0.0604 -0.8195
  677MOL0     C91320   5.489   1.169   2.331  0.9645 -0.6539 -0.3376
  677MOL0     C91321   5.604   1.068   2.308  1.0197  0.1077  0.3942
  677MOL0     C91322   5.535   0.927   2.312 -0.0402 -0.5448  0.5322
  677MOL0     C91323   5.528   0.865   2.180  0.7485  0.1061  0.7646
  677MOL0     C91324   5.520   0.851   2.061 -0.2439  0.1177 -0.1524
  677MOL0     C91325   5.148   1.455   2.187  0.1052  0.6529 -0.1945
  677MOL0     C91326   5.035   1.497   2.119 -0.5041 -0.4334  0.1783
  677MOL0     C91327   4.984   1.634   2.169  1.2060 -0.3172 -0.3707
  677MOL0     H91328   4.744   1.518   1.604  2.1343  2.2106  3.0736
  677MOL0     H91329   4.504   1.550   1.561 -0.7126  1.1564  0.5026
  677MOL0     H91330   4.344   1.711   1.715 -1.5739 -0.2418  0.8682
  677MOL0     H91331   4.314   1.629   1.559 -0.8360  2.2327 -0.0413
  677MOL0     H91332   4.079   1.603   1.624  0.7724 -0.1355 -1.4255
  677MOL0     H91333   4.144   1.763   1.630 -1.0474 -1.0791 -1.1786
  677MOL0     H91334   4.171   1.603   1.894 -3.1821 -0.9329  2.7444
  677MOL0     H91335   4.017   1.593   1.832  0.3743  0.8169 -2.6327
  677MOL0     H91336   4.182   1.836   1.873  2.4189 -3.9647 -1.1003
  677MOL0     H91337   3.998   1.845   1.853 -0.1193 -4.1731 -3.0083
  677MOL0     H91338   4.160   1.741   2.102  0.1227 -0.4742  1.4280
  677MOL0     H91339   4.065   1.883   2.083 -3.5669 -1.1739  0.5708
  677MOL0     H91340   3.954   1.601   2.063 -1.3142 -0.1633  1.3338
  677MOL0     H91341   3.916   1.731   2.194 -1.7044 -0.5702 -0.1626
  677MOL0     H91342   3.737   1.667   2.059  0.9878 -0.7566  2.5461
  677MOL0     H91343   3.806   1.729   1.913 -4.8434  2.1427  0.1306
  677MOL0     H91344   3.696   1.860   2.157  1.9460 -1.0226 -0.4787
  677MOL0     H91345   3.808   1.969   2.079  0.8792 -0.6101  0.1270
  677MOL0     H91346   3.727   2.042   1.812  0.6197  0.9851  0.4625
  677MOL0     H91347   3.384   2.029   1.659 -1.1743 -1.7165 -1.8721
  677MOL0     H91348   3.533   2.119   1.643 -0.0325 -0.3577 -0.6987
  677MOL0     H91349   3.615   1.904   1.501  0.2161 -1.5330 -0.1461
  677MOL0     H91350   3.460   1.834   1.533 -1.3692 -0.3328 -0.3299
  677MOL0     H91351   3.504   2.094   1.397 -0.3722 -0.6430 -0.9908
  677MOL0     H91352   3.346   2.036   1.464 -0.3604  0.0861  1.1832
  677MOL0     H91353   3.374   1.820   1.316 -1.4277  1.1943  0.7948
  677MOL0     H91354   3.521   1.915   1.248 -0.9691  0.8161 -0.8941
  677MOL0     H91355   3.192   2.111   1.007  2.3489  0.6078  2.2423
  677MOL0     H91356   3.149   2.030   0.788 -1.2524 -2.8795 -1.8891
  677MOL0     H91357   3.014   1.583   0.613 -0.9299 -2.8311 -2.1817
  677MOL0     H91358   2.937   1.465   0.399  1.7628  0.2949  2.2554
  677MOL0     H91359   3.039   1.470   0.037 -2.0194  4.3303 -0.8713
  677MOL0     H91360   3.007   1.395   0.200  1.3318  2.0416  0.9225
  677MOL0     H91361   2.775   1.364   0.129  0.2711  1.0223 -0.5125
  677MOL0     H91362   2.823   1.411  -0.039 -0.8802 -1.1927 -0.1389
  677MOL0     H91363   2.904   1.172   0.127  0.9081  2.4756  0.4611
  677MOL0     H91364   2.795   1.170  -0.004 -0.8481  3.1724 -2.2466
  677MOL0     H91365   3.087   1.255  -0.016 -2.2159 -0.8493  4.9183
  677MOL0     H91366   2.969   1.264  -0.161 -0.1858 -0.2503 -0.2291
  677MOL0     H91367   2.940   1.005  -0.133  1.4525 -1.3530 -1.4944
  677MOL0     H91368   3.052   1.012  -0.002  0.2237 -0.5098 -0.6101
  677MOL0     H91369   3.107   0.990  -0.286  2.5283 -0.1038 -2.2076
  677MOL0     H91370   3.170   1.141  -0.246 -1.5256 -1.5570 -2.0757
  677MOL0     H91371   3.255   0.882  -0.122 -2.1486  0.6370 -0.9426
  677MOL0     H91372   3.307   1.036  -0.066 -1.7375 -1.1032  0.5992
  677MOL0     H91373   3.404   1.104  -0.282  2.3604  0.5545 -1.1890
  677MOL0     H91374   3.473   0.962  -0.220  0.1206  2.1446 -0.7706
  677MOL0     H91375   3.067   1.800   0.168  3.4490 -1.8786  0.1698
  677MOL0     H91376   3.137   1.918   0.363  2.2980 -1.5295 -0.5202
  677MOL0     H91377   3.433   1.719   0.860  0.0803  0.7570 -0.5149
  677MOL0     H91378   3.469   1.769   1.056  3.4644  0.2488 -5.2973
  677MOL0     H91379   4.420   1.399   1.949  0.3580 -3.3264  0.2278
  677MOL0     H91380   4.639   1.361   1.998 -0.2440  2.4659  0.3911
  677MOL0     H91381   5.090   1.288   1.841 -1.4059 -1.6772  0.9837
  677MOL0     H91382   5.281   1.236   1.968 -2.5762 -2.1525 -3.8887
  677MOL0     H91383   5.447   1.208   2.110 -0.7421  0.6191 -1.3583
  677MOL0     H91384   5.339   1.092   2.173 -2.3301  1.8453 -1.2614
  677MOL0     H91385   5.429   1.144   2.419  2.1630 -1.4947  0.2571
  677MOL0     H91386   5.530   1.267   2.355 -0.2233 -0.7713  2.6095
  677MOL0     H91387   5.659   1.055   2.402 -1.5859 -2.8702  1.6997
  677MOL0     H91388   5.663   1.085   2.218  0.1451 -1.7189 -0.5804
  677MOL0     H91389   5.604   0.862   2.366 -0.1394 -0.8749  0.2619
  677MOL0     H91390   5.440   0.938   2.366 -0.5411  0.6440 -0.5362
  677MOL0     H91391   5.517   0.848   1.954 -1.2921  0.2658 -0.1351
  677MOL0     H91392   5.183   1.507   2.276 -1.7844  0.1899  0.8772
  677MOL0     H91393   4.966   1.713   2.094 -1.5309 -0.2676  0.2602
  677MOL0     H91394   4.894   1.621   2.229 -0.9684  0.5006 -3.2066
  677MOL0     H91395   5.055   1.685   2.235  0.9702  3.0027 -2.4433
  678MOL0     O91396   8.903   7.102   2.285  0.2825 -0.5967 -0.0925
  678MOL0     C91397   8.852   7.153   2.189  0.1352  0.2723  1.2466
  678MOL0     O91398   8.724   7.206   2.177  0.4876  0.6013  1.1621
  678MOL0     C91399   8.640   7.186   2.282  0.6120  0.7575 -0.3029
  678MOL0     C91400   8.542   7.084   2.298 -0.1582 -0.2079 -0.2484
  678MOL0     C91401   8.461   7.068   2.410 -0.6169 -0.1672  0.1532
  678MOL0     C91402   8.474   7.170   2.516  0.6807  1.1660  0.6476
  678MOL0     O91403   8.403   7.145   2.630  0.8231 -0.0449 -0.3788
  678MOL0     C91404   8.391   7.260   2.728 -0.6514 -0.6746  0.1428
  678MOL0     C91405   8.331   7.198   2.851 -0.3586 -0.0334 -0.2267
  678MOL0     C91406   8.172   7.178   2.821  0.1682  0.2680 -0.4872
  678MOL0     C91407   8.099   7.142   2.952 -0.0973  0.2122 -0.4132
  678MOL0     C91408   7.970   7.074   2.928  0.5591  0.1830 -1.3124
  678MOL0     C91409   7.898   7.035   3.056 -0.1278 -0.0198  0.2473
  678MOL0     C91410   7.766   6.977   3.016  0.6245 -0.5868 -0.1674
  678MOL0     C91411   7.652   7.088   3.002 -0.3249  0.2108 -0.6656
  678MOL0     N91412   7.627   7.173   3.111 -0.5911 -0.4746  0.1357
  678MOL0     C91413   7.705   7.283   3.148  0.8391 -0.4545  0.1424
  678MOL0     C91414   7.644   7.336   3.251  0.7487 -0.4697 -0.4072
  678MOL0     C91415   7.688   7.464   3.320  0.4264  0.5412  0.3064
  678MOL0     C91416   7.831   7.456   3.375  0.3752  0.4594 -1.3272
  678MOL0     C91417   7.846   7.362   3.495  0.6375  0.1606  0.0362
  678MOL0     C91418   7.983   7.387   3.562 -0.5901 -0.0201  1.0415
  678MOL0     O91419   8.092   7.365   3.474 -1.2253 -0.3419 -0.6205
  678MOL0     C91420   8.144   7.457   3.387  0.3443  0.9635 -0.7013
  678MOL0     C91421   8.201   7.407   3.274  0.0825  0.4966 -0.0743
  678MOL0     C91422   8.269   7.492   3.185 -0.4791  0.7445  0.1911
  678MOL0     C91423   8.266   7.629   3.203 -0.5822 -0.3852  0.1230
  678MOL0     C91424   8.344   7.708   3.111 -0.1825 -0.4523 -0.5574
  678MOL0     O91425   8.359   7.843   3.158 -0.2860 -0.6771  0.6295
  678MOL0     C91426   8.382   7.938   3.074 -0.7222 -0.0610  0.8891
  678MOL0     C91427   8.273   8.008   3.010  0.0896 -0.4154 -0.8985
  678MOL0     C91428   8.301   8.107   2.910  0.8150 -0.2077  0.3833
  678MOL0     C91429   8.434   8.139   2.861  0.5613  0.2456 -0.3307
  678MOL0     O91430   8.467   8.249   2.781 -0.1499  0.5499  0.3469
  678MOL0     C91431   8.450   8.374   2.850  1.1842 -0.4836  0.1629
  678MOL0     C91432   8.513   8.487   2.773  0.2441  0.4939  0.2827
  678MOL0     C91433   8.499   8.632   2.831  0.0698 -0.9665  0.4137
  678MOL0     C91434   8.559   8.739   2.747 -0.1733  0.2399 -0.5581
  678MOL0     C91435   8.491   8.777   2.609  0.9375 -0.4901  0.2188
  678MOL0     C91436   8.591   8.837   2.502 -0.3794  0.5137 -0.4237
  678MOL0     C91437   8.534   8.827   2.359  0.0138 -0.6956 -0.2694
  678MOL0     C91438   8.578   8.701   2.277  0.5583 -0.0930  0.8223
  678MOL0    Cl91439   8.466   8.681   2.141  0.2794 -0.2756  0.4865
  678MOL0     C91440   8.535   8.071   2.933 -0.1174  0.7670  0.8177
  678MOL0     C91441   8.517   7.980   3.033  0.2009  0.2282  0.6604
  678MOL0     O91442   8.389   7.664   3.003  0.4589 -0.2964 -0.2167
  678MOL0     C91443   8.196   7.689   3.311  0.0360 -0.6996 -0.3687
  678MOL0     C91444   8.131   7.601   3.400  0.0790 -0.0247  0.0339
  678MOL0     N91445   7.527   7.260   3.280 -0.5680  0.2801 -0.5228
  678MOL0     N91446   7.521   7.163   3.199 -0.2468 -0.7050 -0.2473
  678MOL0     C91447   8.564   7.276   2.493 -0.2296 -0.8956  0.2956
  678MOL0     C91448   8.644   7.280   2.383 -0.1143 -0.5954 -0.0617
  678MOL0     C91449   8.932   7.158   2.067  0.1871 -0.1407  0.2958
  678MOL0     C91450   8.892   7.249   1.969 -0.3145  0.3613  0.2607
  678MOL0     C91451   8.961   7.249   1.848  0.7846 -0.7665 -0.9526
  678MOL0     C91452   9.082   7.186   1.831  0.6673 -1.0781  0.2186
  678MOL0     O91453   9.155   7.207   1.718 -0.6662 -0.0695 -0.3401
  678MOL0     C91454   9.226   7.092   1.663  0.4682 -0.7558  1.0726
  678MOL0     C91455   9.289   7.137   1.529 -0.0063 -0.7611  1.0533
  678MOL0     C91456   9.192   7.151   1.409  0.2668  0.5754 -0.5193
  678MOL0     C91457   9.269   7.129   1.268 -0.3722  0.0196  0.1242
  678MOL0     C91458   9.377   7.227   1.251  0.2730 -0.0059  0.6893
  678MOL0     C91459   9.477   7.294   1.255 -0.0737 -0.7378 -0.1320
  678MOL0     C91460   9.113   7.088   1.922 -0.2713 -0.6806  0.0358
  678MOL0     C91461   9.040   7.071   2.040  0.1182  0.0087  0.3465
  678MOL0     C91462   9.074   6.955   2.130 -0.0982  1.0061  1.0840
  678MOL0     H91463   8.532   7.016   2.214 -3.0156 -1.7915  1.2077
  678MOL0     H91464   8.388   6.987   2.402 -0.3217 -0.3081 -1.6671
  678MOL0     H91465   8.495   7.291   2.739 -0.7679  1.3021 -3.2104
  678MOL0     H91466   8.334   7.344   2.688 -0.8547 -0.2293  1.3241
  678MOL0     H91467   8.353   7.255   2.942 -5.1018 -1.2596  2.0765
  678MOL0     H91468   8.375   7.101   2.876  0.5937  0.9853  2.4871
  678MOL0     H91469   8.153   7.093   2.755  0.6924 -1.2058  1.1790
  678MOL0     H91470   8.135   7.271   2.776 -2.7517 -0.0683  0.9482
  678MOL0     H91471   8.160   7.074   3.012 -1.7400  0.8565  2.1433
  678MOL0     H91472   8.088   7.232   3.013 -2.0708 -1.3522  1.7193
  678MOL0     H91473   7.906   7.146   2.875  0.3438  0.3764 -0.7967
  678MOL0     H91474   7.973   6.993   2.854 -0.6302 -0.5816 -0.5654
  678MOL0     H91475   7.960   6.956   3.099  0.9747 -1.3811 -3.3945
  678MOL0     H91476   7.892   7.122   3.121 -0.1181 -1.5199  2.3405
  678MOL0     H91477   7.735   6.911   3.097  1.6346 -3.9581 -2.3039
  678MOL0     H91478   7.778   6.907   2.933 -0.9722 -0.2926 -0.6769
  678MOL0     H91479   7.659   7.145   2.909  1.4149 -0.7584 -1.1708
  678MOL0     H91480   7.559   7.029   2.997 -0.9374  0.9327  1.3959
  678MOL0     H91481   7.795   7.312   3.094  0.2748  0.1853 -0.4623
  678MOL0     H91482   7.687   7.536   3.237  0.4521  0.1630 -0.0222
  678MOL0     H91483   7.617   7.501   3.395 -1.1321 -1.1020 -0.2803
  678MOL0     H91484   7.905   7.445   3.295 -1.2509  1.9304 -3.1507
  678MOL0     H91485   7.849   7.561   3.402 -1.7159  0.6162 -0.3747
  678MOL0     H91486   7.834   7.258   3.464 -0.8240 -0.3749  2.1638
  678MOL0     H91487   7.761   7.375   3.562  0.0177 -2.4629 -0.1216
  678MOL0     H91488   7.997   7.327   3.652  3.6467  3.4314  3.0657
  678MOL0     H91489   7.983   7.493   3.591  2.3430  0.0228  1.1671
  678MOL0     H91490   8.233   7.303   3.265  3.6527  1.6081 -2.6575
  678MOL0     H91491   8.330   7.444   3.110 -0.2636  2.5752 -0.8744
  678MOL0     H91492   8.169   7.987   3.033 -0.4538  0.9772 -1.9090
  678MOL0     H91493   8.211   8.154   2.872 -0.9961 -1.9176  2.3695
  678MOL0     H91494   8.343   8.396   2.856  0.6418 -0.1065 -5.2932
  678MOL0     H91495   8.478   8.380   2.955 -3.0025  2.9044  1.4018
  678MOL0     H91496   8.619   8.462   2.761  0.4608  1.5915 -0.1603
  678MOL0     H91497   8.473   8.485   2.671 -4.6154 -2.4299  1.9179
  678MOL0     H91498   8.393   8.650   2.853  0.1456 -0.1568  0.1225
  678MOL0     H91499   8.553   8.633   2.926  2.6325 -1.2424 -0.9630
  678MOL0     H91500   8.652   8.688   2.719 -1.9620 -3.6828 -0.0625
  678MOL0     H91501   8.573   8.835   2.798 -0.6862 -0.3490  0.7314
  678MOL0     H91502   8.400   8.837   2.624 -0.1940 -2.3443  1.0683
  678MOL0     H91503   8.469   8.680   2.564  1.9827 -1.1935  1.1878
  678MOL0     H91504   8.603   8.940   2.537 -2.3899 -0.2420  2.9761
  678MOL0     H91505   8.687   8.784   2.504 -0.8730 -0.5809 -2.7023
  678MOL0     H91506   8.565   8.916   2.305  1.0817 -0.0171  1.3793
  678MOL0     H91507   8.426   8.845   2.368  0.1633  1.0758 -1.6832
  678MOL0     H91508   8.680   8.719   2.242 -0.0672  0.1130 -0.9658
  678MOL0     H91509   8.599   8.608   2.332  2.4176 -1.1558 -1.4626
  678MOL0     H91510   8.641   8.087   2.915 -0.3186  2.9699  1.2843
  678MOL0     H91511   8.599   7.923   3.075  2.8655  1.8232 -2.0108
  678MOL0     H91512   8.196   7.795   3.333  0.1048 -0.6227 -0.7498
  678MOL0     H91513   8.094   7.638   3.495  1.5248 -1.3332  1.1659
  678MOL0     H91514   8.586   7.363   2.555  1.6924 -1.4079  0.4014
  678MOL0     H91515   8.704   7.371   2.379  0.2808 -0.7728  1.4429
  678MOL0     H91516   8.814   7.320   1.993 -0.5585  0.4697 -0.8235
  678MOL0     H91517   8.919   7.296   1.759 -1.4162  1.7168  1.2048
  678MOL0     H91518   9.165   7.003   1.650 -0.4194  0.0207 -0.2720
  678MOL0     H91519   9.314   7.060   1.721 -0.7215 -2.8779  1.8275
  678MOL0     H91520   9.366   7.060   1.514  0.1246 -0.2547 -1.1710
  678MOL0     H91521   9.336   7.234   1.546 -2.3935  0.2563  2.3466
  678MOL0     H91522   9.144   7.247   1.430 -0.8620  0.0574 -0.6824
  678MOL0     H91523   9.124   7.066   1.415  1.2616 -0.5958 -3.7175
  678MOL0     H91524   9.307   7.026   1.263  1.7935  0.7062  1.3075
  678MOL0     H91525   9.196   7.129   1.187 -0.0346 -0.8009 -0.1874
  678MOL0     H91526   9.555   7.367   1.259 -1.0299  0.3052 -0.3666
  678MOL0     H91527   9.201   7.027   1.903  0.6783  1.2989 -2.5705
  678MOL0     H91528   9.158   6.903   2.083  1.7254  3.6029  1.3119
  678MOL0     H91529   9.109   6.982   2.230 -4.2632  2.9242  2.2718
  678MOL0     H91530   8.987   6.889   2.136  0.3795  0.4365  1.9902
  679MOL0     O91531   1.004   2.031   9.188  0.0382  0.5668 -0.1898
  679MOL0     C91532   0.910   1.987   9.249  0.3218  0.0104 -0.1789
  679MOL0     O91533   0.816   2.062   9.316 -0.0457 -0.2946  0.4771
  679MOL0     C91534   0.772   2.184   9.277 -0.6692  0.4356  0.3570
  679MOL0     C91535   0.767   2.241   9.152  0.4544  0.7271 -0.4717
  679MOL0     C91536   0.697   2.365   9.122 -0.5110  0.5477 -0.6117
  679MOL0     C91537   0.661   2.445   9.227 -0.3399  0.3293 -0.6502
  679MOL0     O91538   0.596   2.567   9.221 -0.0360 -0.0457  0.0104
  679MOL0     C91539   0.560   2.626   9.098  0.3245 -0.2962  0.4280
  679MOL0     C91540   0.399   2.611   9.099 -0.0079 -0.4922 -0.1641
  679MOL0     C91541   0.345   2.602   8.949  0.4831 -0.3213  0.2262
  679MOL0     C91542   0.198   2.645   8.921 -0.2505 -0.2780  0.1496
  679MOL0     C91543   0.096   2.546   8.994  0.7654 -0.2175  1.0780
  679MOL0     C91544  -0.020   2.636   9.032  0.4998  0.1249 -0.1724
  679MOL0     C91545  -0.126   2.553   9.118  0.0632  1.0932 -0.3937
  679MOL0     C91546  -0.096   2.547   9.268  0.2285  0.2352 -0.7060
  679MOL0     N91547  -0.222   2.550   9.348 -0.2427 -0.6144  0.8779
  679MOL0     C91548  -0.271   2.644   9.435  0.2987  0.0202 -0.0974
  679MOL0     C91549  -0.397   2.612   9.473  0.3003 -0.1321 -0.3249
  679MOL0     C91550  -0.484   2.693   9.571 -0.2103  0.6606 -0.3725
  679MOL0     C91551  -0.537   2.822   9.521  0.8972  0.4862 -0.2732
  679MOL0     C91552  -0.676   2.852   9.581  0.3864  0.4082 -0.0449
  679MOL0     C91553  -0.698   2.870   9.729  0.1260 -0.5427  0.6917
  679MOL0     O91554  -0.739   3.003   9.762  0.3074  1.5393  0.3674
  679MOL0     C91555  -0.869   3.034   9.752  0.1836 -0.4167  1.0378
  679MOL0     C91556  -0.910   3.159   9.802 -0.1417  0.0956  0.5878
  679MOL0     C91557  -1.044   3.196   9.809 -0.2408  0.1451  0.4966
  679MOL0     C91558  -1.140   3.124   9.722 -0.1014  0.0318 -1.3915
  679MOL0     C91559  -1.273   3.182   9.703 -0.1376 -0.0490  0.1582
  679MOL0     O91560  -1.283   3.323   9.716  0.3129  0.5952 -0.4589
  679MOL0     C91561  -1.407   3.378   9.727  0.6139  0.1997  0.2002
  679MOL0     C91562  -1.448   3.464   9.634  0.0703  0.7367  0.0439
  679MOL0     C91563  -1.569   3.535   9.656 -0.0674 -0.2025  0.1375
  679MOL0     C91564  -1.640   3.520   9.774 -1.4974 -0.5982  0.2127
  679MOL0     O91565  -1.759   3.590   9.793 -0.5178 -0.2020 -0.0920
  679MOL0     C91566  -1.801   3.646   9.675  0.8568 -0.1442  0.6517
  679MOL0     C91567  -1.946   3.702   9.690 -0.0845  0.5990  0.7482
  679MOL0     C91568  -1.979   3.788   9.556 -0.1437 -0.6766 -0.2277
  679MOL0     C91569  -1.943   3.937   9.579 -0.2029 -0.9191 -0.6337
  679MOL0     C91570  -2.026   4.017   9.485  0.7516 -1.3021 -0.9585
  679MOL0     C91571  -2.009   3.977   9.338 -0.8601 -0.3003  0.2279
  679MOL0     C91572  -2.056   4.097   9.246 -0.9024  0.3091 -0.2304
  679MOL0     C91573  -2.026   4.052   9.117 -0.6154  0.4034  0.9722
  679MOL0    Cl91574  -2.055   4.160   8.982 -0.2725  0.2259  0.0728
  679MOL0     C91575  -1.590   3.433   9.870  0.2770  0.3262 -0.0683
  679MOL0     C91576  -1.477   3.352   9.846 -0.3313  0.3194  0.3955
  679MOL0     O91577  -1.365   3.112   9.658  0.9408  0.4321  0.0084
  679MOL0     C91578  -1.103   3.003   9.664 -0.7940  0.7721 -0.0235
  679MOL0     C91579  -0.973   2.959   9.690 -0.2130  0.2714 -0.1263
  679MOL0     N91580  -0.417   2.492   9.398 -1.0514  0.1437 -0.6773
  679MOL0     N91581  -0.313   2.450   9.335 -0.7918  0.5019 -0.1668
  679MOL0     C91582   0.668   2.390   9.356  0.9126 -0.3588  0.1806
  679MOL0     C91583   0.718   2.265   9.376  0.6741  1.2670 -0.0051
  679MOL0     C91584   0.901   1.840   9.266  0.0032 -0.0225  0.1291
  679MOL0     C91585   1.020   1.768   9.260 -0.0048 -0.1175  0.9593
  679MOL0     C91586   1.037   1.630   9.287 -0.3852  0.0592 -0.6477
  679MOL0     C91587   0.918   1.558   9.330  0.1770  0.2892  0.0682
  679MOL0     O91588   0.928   1.434   9.372  0.7021  0.7243  0.6602
  679MOL0     C91589   1.027   1.345   9.327 -0.6672  0.3733 -0.4809
  679MOL0     C91590   0.980   1.196   9.352  0.2126 -0.4575 -0.0231
  679MOL0     C91591   1.031   1.113   9.232  0.3317 -0.5386 -1.5626
  679MOL0     C91592   0.977   0.973   9.252  0.4464 -1.0553 -0.0715
  679MOL0     C91593   0.998   0.901   9.381 -0.6146  0.2654 -0.2939
  679MOL0     C91594   1.033   0.838   9.470  0.1923  0.3315  0.5263
  679MOL0     C91595   0.804   1.628   9.338 -0.1738  0.0502 -0.7764
  679MOL0     C91596   0.790   1.767   9.304 -0.8694 -0.7963  0.8616
  679MOL0     C91597   0.647   1.823   9.318 -0.2996 -0.7337 -0.1470
  679MOL0     H91598   0.787   2.167   9.076 -0.7665  0.0405 -0.1534
  679MOL0     H91599   0.670   2.385   9.018 -1.7968 -0.5354 -0.5079
  679MOL0     H91600   0.587   2.731   9.081  0.0364 -0.7332 -3.6242
  679MOL0     H91601   0.598   2.573   9.011 -0.1936  0.6599 -0.4035
  679MOL0     H91602   0.359   2.704   9.141  3.6398  2.0092 -1.7295
  679MOL0     H91603   0.369   2.528   9.163  1.7900 -1.1574 -0.1298
  679MOL0     H91604   0.340   2.494   8.930  0.5974 -0.4328  0.7988
  679MOL0     H91605   0.416   2.647   8.880  0.9037 -1.0598  0.1685
  679MOL0     H91606   0.183   2.750   8.949 -3.3105 -0.6212  0.1698
  679MOL0     H91607   0.180   2.639   8.813  0.4231 -0.9601  0.0692
  679MOL0     H91608   0.060   2.467   8.927  0.4565 -0.7049  1.8035
  679MOL0     H91609   0.132   2.502   9.087 -0.2622  1.8617  2.5427
  679MOL0     H91610   0.008   2.727   9.085  1.1260 -0.7807  1.0839
  679MOL0     H91611  -0.071   2.660   8.938  0.6425  1.9271  0.1601
  679MOL0     H91612  -0.134   2.452   9.077 -1.9376  0.2542  1.8390
  679MOL0     H91613  -0.223   2.600   9.099 -0.3841 -0.8808 -3.7835
  679MOL0     H91614  -0.043   2.454   9.291 -0.3124  0.1814  0.3666
  679MOL0     H91615  -0.036   2.637   9.286 -0.3723  1.0369 -2.4546
  679MOL0     H91616  -0.218   2.733   9.467 -0.0512 -0.0910  0.8239
  679MOL0     H91617  -0.566   2.626   9.599 -0.3412  0.8603 -0.2756
  679MOL0     H91618  -0.419   2.710   9.658 -0.7249 -4.2797  1.3289
  679MOL0     H91619  -0.457   2.895   9.541  0.7331 -0.1753  3.5414
  679MOL0     H91620  -0.562   2.817   9.414 -2.9207  2.3076  0.3557
  679MOL0     H91621  -0.728   2.756   9.570  3.3808 -1.2140 -1.2304
  679MOL0     H91622  -0.727   2.923   9.516 -0.7288 -0.1614  0.1876
  679MOL0     H91623  -0.615   2.839   9.793  0.5574 -0.5252  0.1547
  679MOL0     H91624  -0.780   2.805   9.759 -1.1478  1.6841  2.3257
  679MOL0     H91625  -0.835   3.224   9.847  0.0702  0.5965 -0.4497
  679MOL0     H91626  -1.075   3.288   9.855  1.4149 -0.0474  2.0862
  679MOL0     H91627  -1.385   3.469   9.545  0.2288 -1.4484 -0.0252
  679MOL0     H91628  -1.618   3.583   9.573  0.3711 -0.7548 -0.4580
  679MOL0     H91629  -1.735   3.726   9.640 -0.6546 -0.1076 -2.4741
  679MOL0     H91630  -1.804   3.564   9.603 -1.7018  2.4576 -2.5566
  679MOL0     H91631  -2.006   3.610   9.684  3.1661 -1.6021 -1.7296
  679MOL0     H91632  -1.954   3.771   9.775 -0.7436  0.5830  0.7026
  679MOL0     H91633  -1.952   3.739   9.462 -1.9820 -1.3967 -0.4013
  679MOL0     H91634  -2.086   3.776   9.542 -0.1947  0.1224 -0.5838
  679MOL0     H91635  -1.834   3.942   9.579  0.0450 -4.1085  0.2418
  679MOL0     H91636  -1.967   3.965   9.682  1.9969 -0.9672 -0.0648
  679MOL0     H91637  -2.004   4.123   9.499 -2.9075 -0.5825  0.2825
  679MOL0     H91638  -2.129   3.998   9.514  1.4728 -1.0622  2.1523
  679MOL0     H91639  -1.899   3.976   9.337 -0.8146  1.2187  0.8976
  679MOL0     H91640  -2.052   3.881   9.310 -0.7787 -0.6785  1.3578
  679MOL0     H91641  -1.997   4.186   9.269  0.8279 -0.2952 -2.0858
  679MOL0     H91642  -2.164   4.113   9.253 -1.6278 -3.3290 -0.8576
  679MOL0     H91643  -1.918   4.033   9.110 -0.5377  1.0904  0.1621
  679MOL0     H91644  -2.069   3.956   9.087  0.4562  0.6806 -1.7288
  679MOL0     H91645  -1.638   3.430   9.967  0.0784  4.2585  0.0795
  679MOL0     H91646  -1.445   3.271   9.910  0.3817 -1.0454 -1.5779
  679MOL0     H91647  -1.158   2.936   9.598  0.0429  0.9108 -0.8922
  679MOL0     H91648  -0.944   2.860   9.656 -2.2280  0.4425 -2.6844
  679MOL0     H91649   0.616   2.453   9.428 -0.9154 -0.1210 -1.2783
  679MOL0     H91650   0.715   2.226   9.477 -2.5861  1.6750  0.1548
  679MOL0     H91651   1.117   1.810   9.235  1.1388 -2.1708  1.7436
  679MOL0     H91652   1.136   1.587   9.272 -0.9752 -0.2921 -4.3037
  679MOL0     H91653   1.127   1.361   9.369 -0.7076  3.8144 -1.3888
  679MOL0     H91654   1.043   1.358   9.220 -1.3085  2.3544 -0.3748
  679MOL0     H91655   0.871   1.184   9.342  0.5701 -1.6488 -5.3500
  679MOL0     H91656   1.001   1.155   9.451 -2.9808  0.6208  1.2733
  679MOL0     H91657   1.140   1.108   9.224  0.3612 -0.9932 -0.9362
  679MOL0     H91658   0.996   1.156   9.137 -0.8994  1.3640 -0.3294
  679MOL0     H91659   0.874   0.987   9.221  0.8351  0.6013 -0.7242
  679MOL0     H91660   1.025   0.908   9.178  1.8561 -5.4711  4.1552
  679MOL0     H91661   1.054   0.757   9.537  3.0965  1.0653  0.6054
  679MOL0     H91662   0.721   1.564   9.368  1.7358 -1.2888  2.0327
  679MOL0     H91663   0.632   1.856   9.421  0.0953 -3.2531  0.7781
  679MOL0     H91664   0.611   1.899   9.249  0.0439 -1.4268 -1.1125
  679MOL0     H91665   0.571   1.744   9.306  0.3100 -1.1685 -1.3293
  680MOL0     O91666   1.415   0.686   7.811 -0.2431 -0.9313  0.0271
  680MOL0     C91667   1.340   0.664   7.903  0.7791  0.3551  0.5363
  680MOL0     O91668   1.320   0.741   8.022 -0.1464 -0.6641 -0.6800
  680MOL0     C91669   1.395   0.853   8.025 -0.8046 -0.1578  0.1583
  680MOL0     C91670   1.441   0.877   8.160 -0.6468  0.8148 -0.7408
  680MOL0     C91671   1.509   0.992   8.195 -0.5307  0.2918  0.1646
  680MOL0     C91672   1.541   1.076   8.095 -0.7701 -0.2542  0.6099
  680MOL0     O91673   1.622   1.185   8.119  0.0862  0.1745 -0.5849
  680MOL0     C91674   1.545   1.300   8.140 -0.0214 -0.4239  1.0138
  680MOL0     C91675   1.593   1.396   8.251 -0.0829  0.7683  0.7771
  680MOL0     C91676   1.564   1.338   8.383 -0.6913  0.0917 -0.0267
  680MOL0     C91677   1.423   1.343   8.438  1.0518  0.0557  0.0449
  680MOL0     C91678   1.410   1.277   8.572  0.4908 -0.5365 -0.9090
  680MOL0     C91679   1.503   1.331   8.676 -0.7143  0.4330  0.2353
  680MOL0     C91680   1.454   1.467   8.730  0.4022  0.1322  0.7538
  680MOL0     C91681   1.328   1.456   8.816  0.5465  0.4674 -0.3851
  680MOL0     N91682   1.327   1.566   8.912 -0.2847 -0.7598 -0.4270
  680MOL0     C91683   1.396   1.685   8.898  0.6984  0.0921 -0.4755
  680MOL0     C91684   1.392   1.737   9.024  0.1464 -0.3620 -0.2136
  680MOL0     C91685   1.463   1.865   9.065  0.3936  0.0034  0.3655
  680MOL0     C91686   1.391   1.990   9.012 -0.7490  0.3905  0.0698
  680MOL0     C91687   1.423   2.113   9.093  0.6123  0.4411  0.2922
  680MOL0     C91688   1.574   2.149   9.123  0.2014  0.3657 -0.2545
  680MOL0     O91689   1.610   2.249   9.221 -0.3542  1.0199 -0.0783
  680MOL0     C91690   1.667   2.364   9.170  0.7571 -0.1658 -0.2669
  680MOL0     C91691   1.625   2.420   9.056 -0.2684 -0.6422  0.1708
  680MOL0     C91692   1.685   2.541   9.023 -0.3171  0.5230  0.4606
  680MOL0     C91693   1.795   2.598   9.088  0.4363  0.6087 -0.9019
  680MOL0     C91694   1.856   2.723   9.050 -0.9437  0.5719  0.0676
  680MOL0     O91695   1.813   2.768   8.936 -0.3969  0.4274 -0.0454
  680MOL0     C91696   1.831   2.901   8.915  0.6459  0.4549  0.0490
  680MOL0     C91697   1.939   2.955   8.844  1.3491 -0.3711 -0.4189
  680MOL0     C91698   1.947   3.093   8.830  0.1814 -0.4661 -0.2506
  680MOL0     C91699   1.852   3.181   8.881  0.6191 -1.0086  0.4645
  680MOL0     O91700   1.852   3.317   8.871  0.7616  0.1050 -0.5874
  680MOL0     C91701   1.975   3.387   8.873 -1.3474 -0.1102  0.8652
  680MOL0     C91702   1.959   3.536   8.918  0.4835  0.0646  0.3067
  680MOL0     C91703   1.889   3.636   8.818  0.3183  0.1480 -0.6581
  680MOL0     C91704   1.993   3.694   8.717 -0.1165  0.4961 -0.7566
  680MOL0     C91705   1.988   3.838   8.683 -0.0007 -1.0395 -0.4885
  680MOL0     C91706   2.103   3.876   8.595 -0.3594 -1.5796 -0.2436
  680MOL0     C91707   2.158   4.022   8.588 -0.2206  0.2252 -0.0014
  680MOL0     C91708   2.311   4.027   8.555  0.3372 -0.2403  0.4873
  680MOL0    Cl91709   2.341   3.950   8.401 -0.8224 -0.6061 -0.4140
  680MOL0     C91710   1.744   3.128   8.947  0.1559 -0.3377  0.3256
  680MOL0     C91711   1.731   2.986   8.961 -0.6241 -0.6541 -0.5479
  680MOL0     O91712   1.949   2.769   9.116  0.0178 -0.4993 -0.4500
  680MOL0     C91713   1.832   2.530   9.203 -0.5373 -0.1283 -0.3017
  680MOL0     C91714   1.770   2.413   9.253 -0.7444 -0.1556  0.7618
  680MOL0     N91715   1.325   1.648   9.104 -0.1083 -0.6527 -0.1312
  680MOL0     N91716   1.280   1.551   9.037 -0.1325  0.2186  0.7150
  680MOL0     C91717   1.514   1.048   7.957 -0.7079 -0.6292 -0.1953
  680MOL0     C91718   1.438   0.937   7.923  0.9887 -0.4507 -0.4029
  680MOL0     C91719   1.261   0.541   7.916  0.2097  0.2696  1.0540
  680MOL0     C91720   1.247   0.476   8.040  1.0879  0.3764  0.2595
  680MOL0     C91721   1.179   0.349   8.047 -0.7175  0.0215 -0.2353
  680MOL0     C91722   1.116   0.297   7.935 -0.6467 -0.6420 -0.3408
  680MOL0     O91723   1.058   0.172   7.928 -0.6605 -0.4262 -0.3205
  680MOL0     C91724   1.070   0.071   8.029  0.8842 -0.3229 -0.6310
  680MOL0     C91725   1.201  -0.007   8.022  0.0996  1.1414  0.2816
  680MOL0     C91726   1.227  -0.052   7.881 -0.0622  0.0078  0.7970
  680MOL0     C91727   1.359  -0.127   7.880 -0.5759  0.5583 -0.2130
  680MOL0     C91728   1.319  -0.270   7.912 -0.5160 -0.1067  0.3529
  680MOL0     C91729   1.271  -0.378   7.936 -0.0980 -0.5052  0.3733
  680MOL0     C91730   1.096   0.385   7.826 -0.4239  0.2722 -0.0555
  680MOL0     C91731   1.173   0.501   7.809 -1.3669  0.5023 -0.7467
  680MOL0     C91732   1.146   0.580   7.686  0.7312  0.5935 -0.0264
  680MOL0     H91733   1.404   0.803   8.230 -0.9680  0.4211 -1.3199
  680MOL0     H91734   1.542   1.018   8.295  0.3409  0.8524 -0.2536
  680MOL0     H91735   1.566   1.353   8.047  0.9972 -0.1879  1.3670
  680MOL0     H91736   1.438   1.277   8.146 -0.4898  1.7819  1.8593
  680MOL0     H91737   1.534   1.487   8.234 -2.5227 -0.9796 -0.6579
  680MOL0     H91738   1.699   1.415   8.235  0.0358  0.0179  0.6631
  680MOL0     H91739   1.620   1.400   8.454 -2.5644  0.6402  1.0506
  680MOL0     H91740   1.608   1.239   8.395 -2.4408 -1.0757 -2.5855
  680MOL0     H91741   1.383   1.444   8.433  0.2069 -0.2061  1.2354
  680MOL0     H91742   1.362   1.280   8.372 -0.3416 -0.5167  1.7845
  680MOL0     H91743   1.304   1.285   8.598  0.8370  0.5026  0.2790
  680MOL0     H91744   1.411   1.170   8.553 -3.6300 -0.8589 -0.1511
  680MOL0     H91745   1.504   1.267   8.764  0.2198 -0.3562 -0.3381
  680MOL0     H91746   1.607   1.344   8.645 -0.5646  0.8777  0.9057
  680MOL0     H91747   1.431   1.539   8.651  3.7507 -0.1610 -0.6636
  680MOL0     H91748   1.535   1.510   8.790 -2.3986  0.3615  4.8021
  680MOL0     H91749   1.247   1.452   8.743  1.5644 -3.9964 -1.6439
  680MOL0     H91750   1.321   1.356   8.860 -1.4770  0.3204 -0.9560
  680MOL0     H91751   1.442   1.717   8.805  3.1994  0.0993  0.6785
  680MOL0     H91752   1.479   1.858   9.173  1.3570 -0.0637  0.2265
  680MOL0     H91753   1.558   1.863   9.010 -0.9024 -1.6697 -1.9870
  680MOL0     H91754   1.433   2.002   8.912  2.4567 -1.8486  0.9968
  680MOL0     H91755   1.283   1.980   8.996 -1.0272  2.2793  0.5972
  680MOL0     H91756   1.387   2.093   9.194  1.6840 -3.3285  0.0853
  680MOL0     H91757   1.369   2.202   9.059 -1.6880 -0.4706  1.3311
  680MOL0     H91758   1.627   2.157   9.027  1.1920 -1.8289  0.0531
  680MOL0     H91759   1.614   2.054   9.161 -1.4573  0.9975  3.5041
  680MOL0     H91760   1.556   2.366   8.992 -1.2048  0.4680  0.1984
  680MOL0     H91761   1.657   2.585   8.928 -2.5092 -1.2540  0.1830
  680MOL0     H91762   2.010   2.893   8.789  1.9914 -0.9037  0.9588
  680MOL0     H91763   2.034   3.135   8.779  2.3092 -1.6317  2.1908
  680MOL0     H91764   2.051   3.348   8.941 -0.7618 -0.4050  0.0615
  680MOL0     H91765   2.023   3.385   8.775 -1.4328  1.4116  0.7760
  680MOL0     H91766   1.894   3.522   9.004 -3.1021 -0.6848 -2.3252
  680MOL0     H91767   2.059   3.578   8.932  1.6791 -1.1584 -3.2489
  680MOL0     H91768   1.808   3.580   8.773  1.3397 -2.5704  0.6713
  680MOL0     H91769   1.856   3.726   8.872  1.1595  1.7444 -2.6685
  680MOL0     H91770   1.980   3.644   8.621 -1.0128  2.2216 -1.5814
  680MOL0     H91771   2.089   3.674   8.766 -1.9499 -0.5597  2.6955
  680MOL0     H91772   1.981   3.892   8.777  0.7300  0.8101 -1.4575
  680MOL0     H91773   1.905   3.853   8.614 -0.8329 -1.1190  0.4672
  680MOL0     H91774   2.187   3.824   8.643  0.5394  0.9341  1.0808
  680MOL0     H91775   2.102   3.837   8.492 -0.9970 -0.2077 -0.7785
  680MOL0     H91776   2.153   4.066   8.688 -0.2791 -0.6803  0.4027
  680MOL0     H91777   2.091   4.070   8.516 -0.8131 -2.1097 -1.1115
  680MOL0     H91778   2.335   4.134   8.558  2.1721 -0.6494  1.9248
  680MOL0     H91779   2.359   3.973   8.636 -2.6165 -1.1091  1.7713
  680MOL0     H91780   1.666   3.196   8.980  0.5249  0.4527 -0.3813
  680MOL0     H91781   1.648   2.945   9.018  1.7251 -1.8038  2.3482
  680MOL0     H91782   1.904   2.579   9.268  1.7662 -0.2364 -2.6211
  680MOL0     H91783   1.775   2.351   9.342 -0.3824 -1.2324  0.0115
  680MOL0     H91784   1.556   1.121   7.888  1.8096 -3.1506 -1.5426
  680MOL0     H91785   1.391   0.928   7.826  0.5213  1.9621 -0.4560
  680MOL0     H91786   1.319   0.496   8.119  0.4089 -0.9042  1.2483
  680MOL0     H91787   1.171   0.295   8.141 -0.7815 -1.1852 -0.9130
  680MOL0     H91788   0.988   0.000   8.009  2.2623 -2.0491 -0.4410
  680MOL0     H91789   1.038   0.110   8.126  2.9043 -0.5396  0.1708
  680MOL0     H91790   1.187  -0.088   8.094  1.3223  1.8710  1.3907
  680MOL0     H91791   1.285   0.057   8.054  2.8869 -2.9898  2.1454
  680MOL0     H91792   1.238   0.031   7.812  2.5191  0.2121  1.3653
  680MOL0     H91793   1.142  -0.117   7.858  0.0643 -0.6985  2.1567
  680MOL0     H91794   1.407  -0.125   7.782  1.7482  2.2689  0.8485
  680MOL0     H91795   1.435  -0.097   7.953  0.5489  0.5448 -1.3393
  680MOL0     H91796   1.207  -0.460   7.960 -3.4225  1.8790  0.4371
  680MOL0     H91797   1.018   0.344   7.764  0.6297 -1.4609 -0.3086
  680MOL0     H91798   1.192   0.679   7.678 -2.3451  2.2286  1.0473
  680MOL0     H91799   1.167   0.526   7.593 -0.1064  0.8954 -0.3976
  680MOL0     H91800   1.037   0.586   7.681  0.6723 -0.8970 -1.2385
  681MOL0     O91801   3.508   6.058   2.545  0.0274 -0.7026 -0.0429
  681MOL0     C91802   3.549   6.019   2.439 -0.4226 -0.1820  0.0313
  681MOL0     O91803   3.654   5.929   2.419 -0.0790  0.2064  0.4576
  681MOL0     C91804   3.707   5.860   2.519 -0.0711 -0.3494  0.2794
  681MOL0     C91805   3.782   5.920   2.615  0.5859  0.1135  0.6681
  681MOL0     C91806   3.828   5.838   2.723  1.2164  0.6562  0.1163
  681MOL0     C91807   3.795   5.705   2.734  0.7797 -0.6767  0.6699
  681MOL0     O91808   3.839   5.634   2.842  0.2755 -0.1413  0.1069
  681MOL0     C91809   3.817   5.491   2.835 -0.7552  0.4333  0.4647
  681MOL0     C91810   3.890   5.421   2.957  0.0652  0.1298 -0.4462
  681MOL0     C91811   3.844   5.278   2.973  0.5719  0.6200  0.0573
  681MOL0     C91812   3.721   5.268   3.071 -0.4339 -0.0672  0.2927
  681MOL0     C91813   3.690   5.136   3.113  0.3389 -0.0732  0.4638
  681MOL0     C91814   3.589   5.126   3.230  0.0844  0.6935  0.4361
  681MOL0     C91815   3.573   4.988   3.282  0.4395  0.6748  0.0999
  681MOL0     C91816   3.437   4.936   3.222 -0.0592 -0.1439  0.1083
  681MOL0     N91817   3.404   4.802   3.271  0.2213 -0.3482 -0.3677
  681MOL0     C91818   3.384   4.762   3.395 -1.6762  0.8149 -0.1531
  681MOL0     C91819   3.351   4.632   3.385 -0.9388  0.1641  0.7761
  681MOL0     C91820   3.329   4.521   3.479 -0.0295 -0.6800  0.0892
  681MOL0     C91821   3.460   4.462   3.530  0.1129  0.1495  0.0967
  681MOL0     C91822   3.435   4.408   3.674 -0.8894  0.0573 -0.2230
  681MOL0     C91823   3.447   4.523   3.773  0.4026 -0.2057  1.0856
  681MOL0     O91824   3.446   4.487   3.910 -0.3305  0.0002 -0.2429
  681MOL0     C91825   3.331   4.462   3.985  0.6985  0.0837  0.3519
  681MOL0     C91826   3.189   4.483   3.946  0.2877 -0.5432 -0.2160
  681MOL0     C91827   3.091   4.469   4.043  0.1182  0.0631  0.9182
  681MOL0     C91828   3.114   4.445   4.184 -0.5117 -1.4366 -0.2803
  681MOL0     C91829   3.011   4.447   4.296 -0.7432 -0.3303  1.1727
  681MOL0     O91830   3.054   4.450   4.427  0.4332  0.4708 -0.1371
  681MOL0     C91831   2.973   4.462   4.537  0.3429  0.1161  1.1238
  681MOL0     C91832   2.853   4.393   4.546 -0.0032 -0.5966 -0.2476
  681MOL0     C91833   2.770   4.423   4.656 -0.8705  0.1825 -0.6919
  681MOL0     C91834   2.800   4.523   4.752  0.5841  0.3475 -0.1596
  681MOL0     O91835   2.729   4.567   4.863 -1.2213 -0.6172  0.0052
  681MOL0     C91836   2.598   4.515   4.877 -0.4647 -0.1496 -0.0375
  681MOL0     C91837   2.562   4.579   5.010  1.1863 -0.5498 -1.2578
  681MOL0     C91838   2.561   4.729   5.017  0.9626  0.4852  0.8244
  681MOL0     C91839   2.480   4.783   4.884  0.5516  0.7350 -0.3254
  681MOL0     C91840   2.431   4.922   4.891  0.3395 -0.8045 -0.3166
  681MOL0     C91841   2.392   4.940   4.741 -0.8842 -0.4714 -0.3705
  681MOL0     C91842   2.279   5.043   4.735  0.2656  0.2462  0.8928
  681MOL0     C91843   2.243   5.063   4.583  0.5751  0.9139 -0.9012
  681MOL0    Cl91844   2.385   5.149   4.509 -0.2909 -0.3012 -0.4134
  681MOL0     C91845   2.922   4.582   4.729 -1.0016  0.0625  0.1857
  681MOL0     C91846   3.011   4.543   4.631 -0.0750 -0.1387 -0.3547
  681MOL0     O91847   2.892   4.447   4.267 -0.8640 -0.8915  0.5189
  681MOL0     C91848   3.253   4.421   4.220  0.1623  1.2290  0.4887
  681MOL0     C91849   3.356   4.426   4.121  0.8424 -0.6509 -0.0225
  681MOL0     N91850   3.329   4.607   3.244 -1.0739 -0.2403 -0.0098
  681MOL0     N91851   3.372   4.708   3.180 -0.1992  0.8274 -0.1997
  681MOL0     C91852   3.712   5.651   2.640 -0.2219 -0.1875  0.1672
  681MOL0     C91853   3.672   5.728   2.528 -0.4422  0.4561  0.0232
  681MOL0     C91854   3.491   6.069   2.311  0.6693 -1.0461 -0.6579
  681MOL0     C91855   3.512   6.000   2.193 -1.0760  0.8744  0.0575
  681MOL0     C91856   3.486   6.064   2.070  0.0186  0.8027 -0.6147
  681MOL0     C91857   3.423   6.184   2.065 -0.7666  0.6012  0.4888
  681MOL0     O91858   3.397   6.245   1.949  1.0566 -0.0996 -0.3808
  681MOL0     C91859   3.311   6.170   1.863 -0.4491 -0.4281  0.7086
  681MOL0     C91860   3.166   6.197   1.865  0.3407 -0.0393  0.2344
  681MOL0     C91861   3.131   6.335   1.806 -0.3485 -0.0236  0.0060
  681MOL0     C91862   3.000   6.314   1.724 -0.2463  0.2915  0.2324
  681MOL0     C91863   3.018   6.235   1.599  0.4578 -0.3537  1.2255
  681MOL0     C91864   3.026   6.167   1.501  0.3721  0.6884  0.3906
  681MOL0     C91865   3.398   6.254   2.184  0.0229  0.2521  1.0017
  681MOL0     C91866   3.430   6.200   2.305 -0.1275  0.2550 -0.3264
  681MOL0     C91867   3.369   6.270   2.427 -0.2291 -0.8778  0.5911
  681MOL0     H91868   3.797   6.025   2.594 -3.5517  0.2352 -3.2153
  681MOL0     H91869   3.853   5.878   2.820 -1.1305  2.2905  0.1269
  681MOL0     H91870   3.710   5.471   2.849 -2.0086  4.6166 -1.6268
  681MOL0     H91871   3.857   5.444   2.745 -1.8475 -3.7103  1.8664
  681MOL0     H91872   3.883   5.477   3.050  4.3813  1.7763 -0.8976
  681MOL0     H91873   3.994   5.421   2.923  0.0553  0.2221 -0.4766
  681MOL0     H91874   3.922   5.213   3.013  1.8640 -0.6454 -3.9714
  681MOL0     H91875   3.806   5.240   2.877  0.4648  2.2749 -0.5857
  681MOL0     H91876   3.744   5.327   3.161  0.2960 -1.1733  0.8614
  681MOL0     H91877   3.628   5.308   3.030  0.7902  0.3157 -2.3125
  681MOL0     H91878   3.649   5.076   3.031 -0.0731 -0.3830  0.8924
  681MOL0     H91879   3.780   5.090   3.155  0.2928 -0.5410  0.0586
  681MOL0     H91880   3.629   5.192   3.307 -1.2809  2.2575 -0.1299
  681MOL0     H91881   3.486   5.157   3.210 -0.6292  0.0007  2.7018
  681MOL0     H91882   3.562   4.991   3.391 -1.0361 -3.1539  0.2191
  681MOL0     H91883   3.660   4.924   3.262 -0.5326 -0.6110 -0.1825
  681MOL0     H91884   3.356   5.005   3.247 -0.7076 -0.1320 -1.8864
  681MOL0     H91885   3.453   4.935   3.114  0.3086  0.4348  0.1518
  681MOL0     H91886   3.414   4.810   3.488 -2.4356 -0.3283  0.7047
  681MOL0     H91887   3.255   4.557   3.551 -1.9741 -1.4860 -1.4034
  681MOL0     H91888   3.277   4.437   3.431 -0.7838  0.3725 -0.9981
  681MOL0     H91889   3.500   4.383   3.465  3.3908  1.5562  0.2153
  681MOL0     H91890   3.536   4.540   3.530 -0.6445  0.9076 -1.4813
  681MOL0     H91891   3.504   4.325   3.690 -1.5210 -0.2662  0.9251
  681MOL0     H91892   3.339   4.358   3.689 -0.3883 -0.6322  0.7927
  681MOL0     H91893   3.358   4.584   3.752  0.7480 -0.3518 -1.0356
  681MOL0     H91894   3.532   4.585   3.743  0.1201 -0.6969 -0.8529
  681MOL0     H91895   3.155   4.523   3.851  0.2742 -1.3076 -0.5385
  681MOL0     H91896   2.993   4.497   4.004 -0.6084 -0.2632  2.4405
  681MOL0     H91897   2.826   4.330   4.462 -2.0783  1.7203 -1.4687
  681MOL0     H91898   2.677   4.367   4.660  1.0454 -3.3171  3.1074
  681MOL0     H91899   2.535   4.537   4.790  1.5853  0.3014 -1.5068
  681MOL0     H91900   2.607   4.407   4.892  1.3909 -0.2562 -1.4380
  681MOL0     H91901   2.463   4.547   5.044  1.0942 -0.1449 -1.1393
  681MOL0     H91902   2.635   4.539   5.080  0.5886 -1.4175 -1.1090
  681MOL0     H91903   2.513   4.748   5.113  1.1226 -1.7420  1.3988
  681MOL0     H91904   2.660   4.775   5.025  2.2550 -1.7050 -1.1643
  681MOL0     H91905   2.394   4.717   4.866 -0.2890  2.3070 -2.4850
  681MOL0     H91906   2.548   4.771   4.799  0.9795 -0.0776  0.1205
  681MOL0     H91907   2.511   4.986   4.929 -0.5491 -0.5842  1.2611
  681MOL0     H91908   2.346   4.932   4.959 -0.3552 -3.1210 -0.7466
  681MOL0     H91909   2.483   4.968   4.687  1.1027 -2.9437  1.4574
  681MOL0     H91910   2.357   4.844   4.701  0.4573 -2.9797  3.8544
  681MOL0     H91911   2.307   5.139   4.780  2.3206  0.2851 -0.3212
  681MOL0     H91912   2.188   5.010   4.786  1.1407 -3.3387  0.3895
  681MOL0     H91913   2.223   4.967   4.534  0.9051  1.1308 -1.4772
  681MOL0     H91914   2.161   5.134   4.570  0.5207  0.7388 -1.5675
  681MOL0     H91915   2.946   4.654   4.807 -1.3410 -0.8246  1.1281
  681MOL0     H91916   3.104   4.598   4.622  0.1121 -0.1473  1.2040
  681MOL0     H91917   3.273   4.402   4.325 -1.2250  1.6999  0.8615
  681MOL0     H91918   3.456   4.401   4.155  1.2468 -1.1205 -1.4905
  681MOL0     H91919   3.691   5.544   2.638 -3.6971  0.4121 -0.9042
  681MOL0     H91920   3.623   5.678   2.445 -0.7548  2.5422 -1.1053
  681MOL0     H91921   3.560   5.902   2.196 -0.7170  1.0667  3.0398
  681MOL0     H91922   3.512   6.020   1.975 -3.2390 -0.1772 -1.1649
  681MOL0     H91923   3.317   6.064   1.888  0.2614  0.1963  3.5292
  681MOL0     H91924   3.348   6.188   1.761 -1.1736  3.0567  0.9198
  681MOL0     H91925   3.134   6.193   1.969 -2.8476  0.1555 -0.6523
  681MOL0     H91926   3.114   6.114   1.816 -0.1158  0.8311 -0.7856
  681MOL0     H91927   3.205   6.380   1.739 -1.8085  0.9338 -1.0174
  681MOL0     H91928   3.123   6.415   1.880 -0.0925  0.7414 -0.7720
  681MOL0     H91929   2.925   6.270   1.789  1.0978 -3.2278 -0.3876
  681MOL0     H91930   2.964   6.411   1.686  0.0342  0.0587 -0.6537
  681MOL0     H91931   3.049   6.100   1.421 -0.2234  2.0930 -1.0177
  681MOL0     H91932   3.346   6.349   2.180  1.3238  0.9509 -0.7315
  681MOL0     H91933   3.315   6.213   2.503 -0.5996 -1.8646 -0.3967
  681MOL0     H91934   3.442   6.329   2.484  0.9330  0.7157 -2.3219
  681MOL0     H91935   3.286   6.336   2.401  0.7046  1.1179  2.3232
  682MOL0     O91936   9.654   4.196   3.514  0.6009  0.8650 -0.0352
  682MOL0     C91937   9.531   4.214   3.499  0.5514  0.5920  0.4428
  682MOL0     O91938   9.433   4.148   3.575 -0.0837 -0.9507  0.0264
  682MOL0     C91939   9.471   4.053   3.661 -0.2896 -0.1386 -0.0952
  682MOL0     C91940   9.407   4.070   3.795 -0.1649  0.6792  0.9757
  682MOL0     C91941   9.435   3.969   3.891  0.0830  0.3014 -0.9971
  682MOL0     C91942   9.526   3.868   3.858  0.5756 -0.1574  0.1915
  682MOL0     O91943   9.570   3.783   3.959  0.7746  0.2916  0.2422
  682MOL0     C91944   9.485   3.674   3.989  0.4154 -0.5921  0.0338
  682MOL0     C91945   9.526   3.605   4.118  0.7911  0.0066 -0.3581
  682MOL0     C91946   9.479   3.678   4.232  0.4742  0.2591 -0.4088
  682MOL0     C91947   9.552   3.653   4.364 -0.9151  0.0039 -0.1334
  682MOL0     C91948   9.500   3.731   4.487 -1.2636  0.5454  0.2357
  682MOL0     C91949   9.555   3.686   4.626 -0.0317 -0.6673 -0.3592
  682MOL0     C91950   9.537   3.813   4.715  0.4625  0.5145  0.1248
  682MOL0     C91951   9.595   3.779   4.847  0.0278  0.3595 -0.2930
  682MOL0     N91952   9.576   3.892   4.942 -0.3411  0.1023 -0.2300
  682MOL0     C91953   9.587   4.026   4.921  0.1884 -0.4794 -0.2275
  682MOL0     C91954   9.535   4.084   5.026 -0.1812 -0.6762  0.1758
  682MOL0     C91955   9.526   4.240   5.028 -0.9693 -0.9397 -0.9839
  682MOL0     C91956   9.658   4.299   5.094  0.1458  0.1407  0.4011
  682MOL0     C91957   9.795   4.296   5.020  0.2541  0.6111 -1.0543
  682MOL0     C91958   9.804   4.394   4.903  0.3902  0.7481 -0.9867
  682MOL0     O91959   9.717   4.355   4.788 -0.2686  0.8283  0.2180
  682MOL0     C91960   9.752   4.259   4.698 -0.3427  0.3281  0.4079
  682MOL0     C91961   9.874   4.194   4.707 -0.2231  0.5534  0.7145
  682MOL0     C91962   9.906   4.086   4.618  0.4522 -0.3520 -0.0943
  682MOL0     C91963   9.805   4.042   4.525  0.1730 -0.0976  0.4435
  682MOL0     C91964   9.843   3.928   4.448 -0.4089 -0.0599 -0.1795
  682MOL0     O91965   9.817   3.915   4.318  0.0523 -0.4289 -0.3185
  682MOL0     C91966   9.815   4.029   4.235 -0.5284 -0.6098  0.2782
  682MOL0     C91967   9.885   4.147   4.250 -0.4245  0.6568 -0.3824
  682MOL0     C91968   9.897   4.231   4.144 -0.3362  0.4769 -0.2850
  682MOL0     C91969   9.837   4.202   4.022 -0.0788  0.1698 -0.4105
  682MOL0     O91970   9.844   4.307   3.937  0.6708  0.5198 -0.0506
  682MOL0     C91971   9.802   4.276   3.802  0.6452  0.4086  0.9601
  682MOL0     C91972   9.790   4.396   3.705  0.0516  0.2141 -0.9433
  682MOL0     C91973   9.666   4.482   3.714  0.3778 -0.3060 -0.7155
  682MOL0     C91974   9.681   4.581   3.604 -0.5693 -0.1513  0.1015
  682MOL0     C91975   9.549   4.645   3.567  0.3916  0.0623  0.6154
  682MOL0     C91976   9.564   4.753   3.457  0.3203  0.0654  0.6129
  682MOL0     C91977   9.440   4.847   3.457 -0.6529 -0.2570  0.4236
  682MOL0     C91978   9.472   4.962   3.365  0.3041  0.4484 -0.1843
  682MOL0    Cl91979   9.307   5.021   3.327  0.6256  0.1512  0.3541
  682MOL0     C91980   9.768   4.087   4.005  0.0310  0.8100  0.1186
  682MOL0     C91981   9.761   4.002   4.110  0.5066 -0.1966 -0.7006
  682MOL0     O91982   9.880   3.831   4.521 -0.0009 -1.3766  0.7115
  682MOL0     C91983   9.682   4.108   4.515  0.1844  0.6452 -0.8051
  682MOL0     C91984   9.652   4.212   4.607 -1.9471  0.1654 -0.3724
  682MOL0     N91985   9.478   3.993   5.110  0.2554 -0.1104  0.3014
  682MOL0     N91986   9.501   3.876   5.056 -0.5538  0.4795  0.0238
  682MOL0     C91987   9.585   3.853   3.731  0.3596  0.3439  0.7267
  682MOL0     C91988   9.555   3.946   3.630 -0.9572 -0.3478 -0.4076
  682MOL0     C91989   9.488   4.305   3.389  0.1936 -0.2734  0.0819
  682MOL0     C91990   9.357   4.358   3.391  0.0639 -0.2970 -0.4974
  682MOL0     C91991   9.311   4.467   3.318 -1.4935  0.5303 -0.1899
  682MOL0     C91992   9.386   4.509   3.211 -0.5674 -0.5983  0.3026
  682MOL0     O91993   9.356   4.613   3.120 -0.4193  0.4280  0.2275
  682MOL0     C91994   9.218   4.655   3.107 -0.0944  0.7609 -0.6431
  682MOL0     C91995   9.177   4.731   2.986  0.6230  0.0209 -0.6852
  682MOL0     C91996   9.210   4.881   2.987 -0.1953  0.5071  0.3826
  682MOL0     C91997   9.369   4.899   2.972  0.7243 -0.6144 -0.8571
  682MOL0     C91998   9.425   4.831   2.853  0.1897  0.8008 -0.1167
  682MOL0     C91999   9.472   4.790   2.748 -0.5879 -0.3259 -0.1282
  682MOL0     C92000   9.508   4.442   3.188 -0.3769 -0.9005 -0.0294
  682MOL0     C92001   9.566   4.349   3.274 -0.0451  0.1740 -0.5046
  682MOL0     C92002   9.698   4.297   3.241 -0.6906 -0.1774  0.8418
  682MOL0     H92003   9.329   4.142   3.815 -2.6072 -1.3271 -0.7884
  682MOL0     H92004   9.385   3.958   3.987 -0.9929 -0.9556 -1.6718
  682MOL0     H92005   9.381   3.706   3.988  1.1994  2.1298 -0.5992
  682MOL0     H92006   9.491   3.594   3.914 -0.9837 -0.0519 -0.6887
  682MOL0     H92007   9.634   3.592   4.132  1.2333  4.0037  1.3442
  682MOL0     H92008   9.483   3.505   4.133  3.2193 -0.9660  0.7060
  682MOL0     H92009   9.385   3.634   4.268  0.9059  0.8534  1.5280
  682MOL0     H92010   9.463   3.785   4.222  0.6865  0.3722  0.3958
  682MOL0     H92011   9.551   3.545   4.382  2.9495  0.0561  1.5659
  682MOL0     H92012   9.655   3.676   4.337 -1.7232 -0.5413 -4.2843
  682MOL0     H92013   9.527   3.834   4.463  4.9959 -1.0128 -1.0942
  682MOL0     H92014   9.391   3.728   4.497 -1.0674 -1.6268  3.1199
  682MOL0     H92015   9.509   3.597   4.669 -1.3948  0.1922  0.0373
  682MOL0     H92016   9.663   3.675   4.620  0.2063  1.2714 -0.3063
  682MOL0     H92017   9.432   3.831   4.739  0.8810  2.1473  0.8720
  682MOL0     H92018   9.582   3.899   4.665 -2.4731  1.4752 -1.1194
  682MOL0     H92019   9.553   3.685   4.883  0.8929  0.4010  0.8692
  682MOL0     H92020   9.701   3.764   4.826  0.1227 -1.1282  1.0898
  682MOL0     H92021   9.634   4.065   4.831  1.7812  2.0074  1.5700
  682MOL0     H92022   9.521   4.279   4.926  0.0756  2.0445  0.0035
  682MOL0     H92023   9.438   4.268   5.087  1.2416 -0.0255  2.1373
  682MOL0     H92024   9.640   4.407   5.105  2.2422  0.4695  1.0851
  682MOL0     H92025   9.668   4.247   5.189  0.6638  2.6024  1.7989
  682MOL0     H92026   9.839   4.199   4.995  0.9701  0.2341  1.4215
  682MOL0     H92027   9.855   4.335   5.102 -1.4759 -0.9724  1.0840
  682MOL0     H92028   9.907   4.409   4.868  0.5559  2.8843  0.2394
  682MOL0     H92029   9.782   4.488   4.953 -0.2455  0.8345 -1.4153
  682MOL0     H92030   9.944   4.220   4.786  2.9194  1.1925 -2.0403
  682MOL0     H92031  10.002   4.039   4.639  1.7639  2.6049  1.2648
  682MOL0     H92032   9.930   4.172   4.346 -0.4593 -0.8435  0.0431
  682MOL0     H92033   9.950   4.324   4.164  0.3132  0.2897 -1.0926
  682MOL0     H92034   9.868   4.204   3.753 -0.2071  1.7091 -2.3350
  682MOL0     H92035   9.700   4.238   3.804  1.1500 -1.0133  2.8158
  682MOL0     H92036   9.879   4.458   3.715 -0.0657  0.6151 -2.2385
  682MOL0     H92037   9.804   4.347   3.609 -0.1058 -0.6099 -0.5497
  682MOL0     H92038   9.569   4.433   3.701 -0.0635 -0.2776  1.8271
  682MOL0     H92039   9.675   4.529   3.812  0.9387 -0.4234 -0.7098
  682MOL0     H92040   9.726   4.529   3.519  1.7476  0.1912  1.0198
  682MOL0     H92041   9.753   4.660   3.627  2.1077 -1.8784 -1.7110
  682MOL0     H92042   9.493   4.681   3.653 -0.1523 -1.9805  1.1796
  682MOL0     H92043   9.476   4.576   3.523  4.5133 -3.4371 -1.5294
  682MOL0     H92044   9.653   4.814   3.472 -1.2133  3.7235 -3.2082
  682MOL0     H92045   9.567   4.703   3.360 -0.3846  2.5856 -0.8079
  682MOL0     H92046   9.418   4.885   3.558 -1.2463  1.0601 -0.1819
  682MOL0     H92047   9.356   4.791   3.416  0.4023 -2.5884  1.3009
  682MOL0     H92048   9.536   5.038   3.410  0.4136 -1.2507  2.7901
  682MOL0     H92049   9.522   4.916   3.279 -3.4807 -3.5553 -0.6059
  682MOL0     H92050   9.721   4.049   3.915  1.2057  0.1958 -0.2568
  682MOL0     H92051   9.730   3.898   4.102  2.8225 -1.2666  2.2577
  682MOL0     H92052   9.615   4.066   4.440 -0.6859  1.2778 -0.4098
  682MOL0     H92053   9.556   4.256   4.581 -1.7501  1.1573  0.5050
  682MOL0     H92054   9.660   3.775   3.723  1.0096  1.0009  0.3462
  682MOL0     H92055   9.601   3.941   3.531 -0.2838  3.9834 -0.5062
  682MOL0     H92056   9.291   4.323   3.469  2.4334  1.2564  2.3714
  682MOL0     H92057   9.216   4.517   3.336 -1.1427  1.4844 -0.9623
  682MOL0     H92058   9.183   4.705   3.198  0.6782 -0.5018  0.3804
  682MOL0     H92059   9.151   4.569   3.102 -2.8974  2.7047  0.9580
  682MOL0     H92060   9.068   4.725   2.984  0.4562  1.3453  1.2852
  682MOL0     H92061   9.211   4.686   2.893 -2.7413 -0.3423 -1.8705
  682MOL0     H92062   9.167   4.936   3.072 -1.0999 -2.4768  2.0081
  682MOL0     H92063   9.184   4.917   2.888  0.4358 -2.6427 -1.0675
  682MOL0     H92064   9.400   5.004   2.968  0.5252 -0.3527  2.0535
  682MOL0     H92065   9.409   4.855   3.064  0.1930 -0.4490 -0.5438
  682MOL0     H92066   9.517   4.754   2.658  1.6222  1.6280  0.0999
  682MOL0     H92067   9.567   4.473   3.103  2.3550 -2.4021  1.2065
  682MOL0     H92068   9.707   4.191   3.216 -2.2754  0.0398 -0.8634
  682MOL0     H92069   9.748   4.354   3.162  2.7056 -0.3779  2.6766
  682MOL0     H92070   9.764   4.312   3.327 -0.8007 -1.0535  1.0908
  683MOL0     O92071   3.593   9.281   1.625 -0.1496 -0.3470 -0.1725
  683MOL0     C92072   3.635   9.371   1.551 -0.6429 -0.4184 -0.2427
  683MOL0     O92073   3.698   9.485   1.592 -0.0544  0.2240 -0.3909
  683MOL0     C92074   3.742   9.493   1.725  1.1563  0.2660  0.2889
  683MOL0     C92075   3.852   9.417   1.775 -0.2253  0.3273  0.5692
  683MOL0     C92076   3.891   9.423   1.908  0.4330  1.2139 -0.4559
  683MOL0     C92077   3.821   9.494   2.006  0.8348 -0.3192  0.2916
  683MOL0     O92078   3.873   9.496   2.135 -0.0699  0.3606  0.0550
  683MOL0     C92079   3.793   9.485   2.260  0.0594 -0.4813  0.2926
  683MOL0     C92080   3.857   9.569   2.373 -0.2654 -0.6575  0.5134
  683MOL0     C92081   3.879   9.716   2.324  1.1896  0.0763  0.3345
  683MOL0     C92082   3.970   9.789   2.423 -0.2149  0.2687 -0.9912
  683MOL0     C92083   4.001   9.936   2.401  0.1571 -0.4827  0.6502
  683MOL0     C92084   3.888  10.020   2.350  0.0761  1.2372  0.2461
  683MOL0     C92085   3.900  10.174   2.361  0.5629  0.4690  0.6091
  683MOL0     C92086   4.015  10.226   2.265  0.8177 -0.7038  0.5495
  683MOL0     N92087   4.142  10.269   2.324  0.3636  0.6108 -0.4583
  683MOL0     C92088   4.158  10.383   2.403  0.1622  0.1835  1.5431
  683MOL0     C92089   4.284  10.388   2.429 -0.3593  1.0081 -0.1822
  683MOL0     C92090   4.371  10.483   2.508  0.0458 -0.5488 -1.0289
  683MOL0     C92091   4.307  10.524   2.643 -0.4044 -0.0200  0.0221
  683MOL0     C92092   4.323  10.406   2.746 -0.8793  0.0826 -0.0573
  683MOL0     C92093   4.473  10.361   2.794  0.0449 -0.1506 -0.6332
  683MOL0     O92094   4.522  10.479   2.868 -0.4158  0.2169  0.0890
  683MOL0     C92095   4.646  10.455   2.928 -0.1041  0.5827  0.2409
  683MOL0     C92096   4.668  10.551   3.027  0.4137 -0.3140 -0.5282
  683MOL0     C92097   4.787  10.552   3.103  0.3123 -0.4883 -0.0607
  683MOL0     C92098   4.887  10.454   3.076 -0.4305  0.1549  0.3638
  683MOL0     C92099   5.016  10.452   3.138  1.0594  0.5463  0.1653
  683MOL0     O92100   5.058  10.570   3.200  0.3139 -0.0706 -0.5840
  683MOL0     C92101   5.197  10.577   3.223 -0.4627 -0.1501 -0.4155
  683MOL0     C92102   5.229  10.582   3.359 -0.3809  0.3739  0.0579
  683MOL0     C92103   5.353  10.619   3.388  0.1907 -0.7827 -0.2080
  683MOL0     C92104   5.459  10.643   3.294 -0.1537  0.0394 -0.7565
  683MOL0     O92105   5.570  10.690   3.344  0.1033  0.0024 -0.5616
  683MOL0     C92106   5.652  10.768   3.255 -0.8971  0.0313  0.1599
  683MOL0     C92107   5.782  10.819   3.319  0.4210 -0.6042  0.5761
  683MOL0     C92108   5.881  10.705   3.359 -0.1386 -0.2925  0.1201
  683MOL0     C92109   5.987  10.676   3.261  0.5887 -0.5591  0.1500
  683MOL0     C92110   6.070  10.563   3.298  0.2480 -0.8247  0.0365
  683MOL0     C92111   6.167  10.529   3.191  0.0454  0.5576  0.0019
  683MOL0     C92112   6.234  10.393   3.220  0.0820  0.3702 -0.0067
  683MOL0     C92113   6.357  10.370   3.123 -0.1069 -0.0446 -0.4520
  683MOL0    Cl92114   6.497  10.468   3.172  0.0406  0.4574  0.3603
  683MOL0     C92115   5.423  10.613   3.158  0.2075  0.0466  0.2051
  683MOL0     C92116   5.301  10.574   3.126  1.2401 -0.1180  0.2733
  683MOL0     O92117   5.089  10.350   3.132  0.3156  0.1188  1.3002
  683MOL0     C92118   4.851  10.354   2.991 -0.6088  0.8222  0.0379
  683MOL0     C92119   4.741  10.350   2.914  0.4754  0.0482 -0.5069
  683MOL0     N92120   4.350  10.290   2.366 -0.4012  0.6849 -0.2260
  683MOL0     N92121   4.266  10.216   2.299  0.3873  0.1118  0.0404
  683MOL0     C92122   3.699   9.562   1.960  0.8578 -0.7971  0.5292
  683MOL0     C92123   3.665   9.566   1.827 -0.7449  0.0060  0.3490
  683MOL0     C92124   3.642   9.335   1.410 -0.2170 -0.4430  0.6933
  683MOL0     C92125   3.551   9.393   1.316  0.8896  0.2407  0.0683
  683MOL0     C92126   3.561   9.377   1.173 -0.4542  0.1191 -0.7034
  683MOL0     C92127   3.669   9.306   1.123  0.7823  0.0533  0.4155
  683MOL0     O92128   3.708   9.284   0.991  0.1542 -0.0905 -0.6969
  683MOL0     C92129   3.639   9.303   0.872  0.3111 -0.0403 -0.3967
  683MOL0     C92130   3.746   9.281   0.768 -0.3158  0.1959  0.9053
  683MOL0     C92131   3.710   9.315   0.623 -0.2184  0.0831  0.2834
  683MOL0     C92132   3.663   9.459   0.609 -0.4393  0.1811  1.0924
  683MOL0     C92133   3.778   9.547   0.612 -0.7437 -0.6524  0.3393
  683MOL0     C92134   3.870   9.614   0.593 -0.4987 -0.1188  0.6533
  683MOL0     C92135   3.767   9.261   1.208 -0.3260  0.3106  0.2621
  683MOL0     C92136   3.748   9.262   1.352  0.1060 -0.9054  0.6171
  683MOL0     C92137   3.852   9.189   1.437 -0.2733 -0.1029 -0.6699
  683MOL0     H92138   3.909   9.365   1.699  0.4057 -3.8578  3.5689
  683MOL0     H92139   3.984   9.378   1.941 -0.2349  0.4728  0.4505
  683MOL0     H92140   3.695   9.520   2.225 -0.0561 -4.5022 -4.5301
  683MOL0     H92141   3.780   9.384   2.299 -1.5031 -0.5009 -0.1923
  683MOL0     H92142   3.947   9.519   2.412  1.4529 -0.0814 -2.3759
  683MOL0     H92143   3.802   9.569   2.467  2.5425 -0.5736  2.2840
  683MOL0     H92144   3.782   9.767   2.318  1.3072  1.5785  5.9147
  683MOL0     H92145   3.922   9.713   2.223 -4.1493  0.7136 -2.3245
  683MOL0     H92146   3.931   9.766   2.522 -1.1266 -0.1112 -1.4216
  683MOL0     H92147   4.061   9.729   2.417 -1.3933 -1.4876 -2.3605
  683MOL0     H92148   4.045   9.969   2.496  2.2462  0.7602 -0.6634
  683MOL0     H92149   4.080   9.947   2.327 -1.0712 -2.2286 -1.0183
  683MOL0     H92150   3.879   9.992   2.245  3.1706 -0.9921  0.4427
  683MOL0     H92151   3.797  10.003   2.408  0.1920 -1.2793 -0.2002
  683MOL0     H92152   3.928  10.200   2.463  1.4970 -0.6946  0.6768
  683MOL0     H92153   3.803  10.217   2.336  0.3694 -0.8513 -1.1250
  683MOL0     H92154   4.048  10.150   2.194  2.0678  0.8992 -0.6726
  683MOL0     H92155   3.972  10.311   2.210  1.6093 -1.6157 -1.6138
  683MOL0     H92156   4.091  10.465   2.427  1.6468  1.7385  0.6043
  683MOL0     H92157   4.467  10.434   2.527  0.1020  0.1223  0.5035
  683MOL0     H92158   4.375  10.577   2.452 -0.6958  0.8474  1.1512
  683MOL0     H92159   4.352  10.616   2.680 -0.5977  1.2117 -2.5381
  683MOL0     H92160   4.204  10.553   2.620  0.4198  4.0415  0.7110
  683MOL0     H92161   4.271  10.316   2.714  2.5098 -1.7943 -0.7524
  683MOL0     H92162   4.275  10.440   2.839 -0.2337  2.4418 -0.5275
  683MOL0     H92163   4.547  10.343   2.715 -0.6706  1.1965 -1.6704
  683MOL0     H92164   4.476  10.269   2.853  0.3541  0.8138  0.8981
  683MOL0     H92165   4.590  10.621   3.057 -0.6349 -1.3487 -0.7695
  683MOL0     H92166   4.805  10.634   3.171  0.7341  0.3502 -1.1414
  683MOL0     H92167   5.139  10.573   3.419 -1.5709  0.8190 -1.5786
  683MOL0     H92168   5.375  10.632   3.493  2.2506  1.7048 -0.8654
  683MOL0     H92169   5.681  10.696   3.178  1.1758 -0.0859  0.9743
  683MOL0     H92170   5.595  10.854   3.217 -0.2060  1.3820  2.0414
  683MOL0     H92171   5.833  10.897   3.261  2.5237 -1.7563  0.7768
  683MOL0     H92172   5.754  10.871   3.411 -2.2963 -6.8269  3.8332
  683MOL0     H92173   5.928  10.741   3.451 -1.9682 -1.5497  1.6341
  683MOL0     H92174   5.818  10.618   3.382 -0.8319 -0.7431 -3.1003
  683MOL0     H92175   6.049  10.767   3.262 -0.9089  0.4977  1.0428
  683MOL0     H92176   5.951  10.667   3.158 -0.3744 -0.9361  0.5100
  683MOL0     H92177   6.011  10.471   3.306  0.0768 -0.6169  1.4160
  683MOL0     H92178   6.123  10.567   3.393  2.2937 -2.6353 -0.9494
  683MOL0     H92179   6.109  10.515   3.099  2.2766 -2.8357 -1.0614
  683MOL0     H92180   6.237  10.610   3.168 -0.9210  0.5447 -3.7343
  683MOL0     H92181   6.161  10.312   3.212 -3.4334  3.3185 -0.7227
  683MOL0     H92182   6.285  10.389   3.317 -1.4161 -0.4630  0.7814
  683MOL0     H92183   6.389  10.265   3.126 -0.6870 -0.2209 -0.1626
  683MOL0     H92184   6.325  10.398   3.022 -3.7238  0.4450  0.6627
  683MOL0     H92185   5.489  10.640   3.076 -0.0300 -0.9426 -0.3305
  683MOL0     H92186   5.263  10.555   3.027  0.6959 -4.3619  1.0620
  683MOL0     H92187   4.928  10.277   2.986 -0.6897  0.1979  4.3516
  683MOL0     H92188   4.720  10.262   2.854  0.9841 -0.4683  0.0624
  683MOL0     H92189   3.643   9.612   2.037  1.1180  0.5375 -0.1186
  683MOL0     H92190   3.575   9.621   1.801 -0.7833  0.9619  2.2906
  683MOL0     H92191   3.476   9.460   1.358  0.6795 -0.4273  0.7879
  683MOL0     H92192   3.501   9.435   1.103 -1.7599 -1.2403 -0.7689
  683MOL0     H92193   3.589   9.400   0.878 -1.4469 -1.0231  2.3644
  683MOL0     H92194   3.560   9.227   0.877 -0.2809  0.6645  2.0958
  683MOL0     H92195   3.767   9.174   0.773 -2.4820 -0.3573 -0.6905
  683MOL0     H92196   3.832   9.347   0.788  0.0263  0.1306 -0.2477
  683MOL0     H92197   3.635   9.245   0.585 -1.5244  1.2248  0.6641
  683MOL0     H92198   3.800   9.304   0.561 -1.0028  2.4162 -1.3778
  683MOL0     H92199   3.624   9.460   0.507  0.4972 -3.2729  0.5523
  683MOL0     H92200   3.585   9.490   0.680 -1.3786  0.5349 -0.0732
  683MOL0     H92201   3.953   9.670   0.556 -2.6974  1.0191 -3.0715
  683MOL0     H92202   3.860   9.215   1.176 -0.4734 -0.9545  1.5407
  683MOL0     H92203   3.812   9.151   1.532  2.5575  0.5556  0.9098
  683MOL0     H92204   3.900   9.101   1.394  2.8030  0.7086  0.8224
  683MOL0     H92205   3.934   9.257   1.461 -0.1863 -1.1131  2.3900
  684MOL0     O92206   7.737   4.011   5.293 -0.3111  0.4159  0.1205
  684MOL0     C92207   7.736   4.028   5.419 -0.0406  1.0118  0.2119
  684MOL0     O92208   7.840   4.074   5.501  0.6662 -0.4903  0.8800
  684MOL0     C92209   7.962   4.088   5.443  0.1318 -0.4044  0.6640
  684MOL0     C92210   8.010   4.201   5.383 -0.0155  0.2755  1.2454
  684MOL0     C92211   8.139   4.213   5.340 -1.2543  0.4440  0.1206
  684MOL0     C92212   8.237   4.105   5.349 -0.3084  0.6399 -0.6050
  684MOL0     O92213   8.360   4.114   5.290  0.2221  0.9006 -0.3357
  684MOL0     C92214   8.440   3.995   5.282 -0.1330  0.4172 -0.4788
  684MOL0     C92215   8.419   3.902   5.164 -0.0854  0.5008 -0.2020
  684MOL0     C92216   8.524   3.790   5.153  0.3622 -0.1381  0.1543
  684MOL0     C92217   8.667   3.837   5.134 -0.7434 -0.2466 -0.1188
  684MOL0     C92218   8.756   3.707   5.127 -1.0012 -0.1800 -0.6798
  684MOL0     C92219   8.904   3.746   5.125  0.4327  0.1926 -1.1106
  684MOL0     C92220   8.954   3.811   5.001 -0.3237  0.4970  0.5051
  684MOL0     C92221   9.105   3.835   5.005  0.6042  0.5433  0.2726
  684MOL0     N92222   9.187   3.713   4.977 -0.0276 -0.4575 -0.5704
  684MOL0     C92223   9.199   3.605   5.059 -0.0637  0.3249 -0.9609
  684MOL0     C92224   9.235   3.501   4.978 -0.6250  0.2504  0.1567
  684MOL0     C92225   9.260   3.359   5.016 -0.8196 -0.3088  0.2238
  684MOL0     C92226   9.407   3.342   5.044  0.3821 -0.5236  0.1934
  684MOL0     C92227   9.428   3.194   5.094 -0.2656  0.8168 -0.9172
  684MOL0     C92228   9.573   3.180   5.137  0.3709 -0.0066  0.5953
  684MOL0     O92229   9.580   3.267   5.257 -0.2892 -0.2348  0.2196
  684MOL0     C92230   9.611   3.194   5.370  0.8695 -0.3824 -0.0651
  684MOL0     C92231   9.738   3.131   5.374 -1.0491  0.1409 -0.6410
  684MOL0     C92232   9.782   3.042   5.474  1.0371  0.3480 -0.4911
  684MOL0     C92233   9.694   3.020   5.580  0.0602 -0.9999 -0.2387
  684MOL0     C92234   9.742   2.926   5.686 -1.0244  0.4875  0.4001
  684MOL0     O92235   9.670   2.924   5.807 -0.2077 -0.3391  0.3347
  684MOL0     C92236   9.720   2.855   5.905  0.1735  0.0366  0.1828
  684MOL0     C92237   9.624   2.795   5.981  0.4518  0.7422  0.6346
  684MOL0     C92238   9.655   2.714   6.090 -0.1352  0.0391 -0.4554
  684MOL0     C92239   9.791   2.686   6.128  0.1170 -0.5293 -0.1629
  684MOL0     O92240   9.825   2.623   6.245  0.4951 -0.2544 -0.2712
  684MOL0     C92241   9.779   2.485   6.241 -0.0563  0.2632 -0.4187
  684MOL0     C92242   9.689   2.456   6.363  0.0681 -0.8396 -0.6717
  684MOL0     C92243   9.575   2.360   6.332 -0.8782  0.4298  0.2288
  684MOL0     C92244   9.500   2.321   6.447  0.0697 -0.2395 -0.0729
  684MOL0     C92245   9.401   2.213   6.423 -0.3461  0.1510 -0.4499
  684MOL0     C92246   9.473   2.083   6.372 -0.7855 -1.2505 -0.0613
  684MOL0     C92247   9.394   1.949   6.396  0.8094 -0.3508  0.8109
  684MOL0     C92248   9.244   1.964   6.353 -0.3976 -1.1653  0.2117
  684MOL0    Cl92249   9.187   1.809   6.359  0.0223 -0.5335  0.2415
  684MOL0     C92250   9.892   2.740   6.048  0.0858 -0.2632 -0.4793
  684MOL0     C92251   9.855   2.833   5.941 -0.4974 -0.0128 -0.2292
  684MOL0     O92252   9.839   2.853   5.671 -0.0812 -0.0809  1.0163
  684MOL0     C92253   9.573   3.090   5.585 -0.8066  0.8174 -0.0194
  684MOL0     C92254   9.531   3.174   5.478 -0.2826  0.1400 -1.2740
  684MOL0     N92255   9.244   3.553   4.849  1.0095  0.3155  0.6222
  684MOL0     N92256   9.226   3.678   4.854  0.4093  0.4349 -0.2792
  684MOL0     C92257   8.179   3.983   5.397 -0.1095  0.3621  0.9629
  684MOL0     C92258   8.045   3.981   5.448 -1.9160  0.4422  0.7166
  684MOL0     C92259   7.606   3.980   5.491  0.1235 -0.4519  0.2336
  684MOL0     C92260   7.599   4.013   5.631 -0.5026  0.4937  0.1072
  684MOL0     C92261   7.500   3.958   5.717  0.2869 -0.1075 -0.1885
  684MOL0     C92262   7.403   3.874   5.654 -0.2601  0.3301 -1.3199
  684MOL0     O92263   7.316   3.821   5.757  0.2206  0.1848 -0.1338
  684MOL0     C92264   7.198   3.746   5.718 -0.8751  1.1486 -0.4394
  684MOL0     C92265   7.229   3.599   5.718 -0.0296 -0.2410  0.2555
  684MOL0     C92266   7.213   3.548   5.867 -0.0113  1.5130 -0.4821
  684MOL0     C92267   7.241   3.399   5.855  0.2458 -0.0675 -0.8964
  684MOL0     C92268   7.215   3.335   5.982 -0.1509  0.2119 -1.1999
  684MOL0     C92269   7.199   3.269   6.088 -0.3233 -0.9840 -0.3934
  684MOL0     C92270   7.401   3.844   5.510 -0.5493  0.0685  0.2819
  684MOL0     C92271   7.502   3.894   5.435 -1.2918 -0.1879 -0.7410
  684MOL0     C92272   7.503   3.848   5.289  0.2486  0.6294 -0.0533
  684MOL0     H92273   7.942   4.285   5.382 -3.2997 -2.0209 -3.0948
  684MOL0     H92274   8.191   4.297   5.295  0.9082  0.8695  3.1356
  684MOL0     H92275   8.545   4.024   5.274 -0.0257 -0.2635 -1.8311
  684MOL0     H92276   8.449   3.936   5.373  2.6643 -2.7066 -2.5511
  684MOL0     H92277   8.426   3.957   5.070 -0.3265 -1.3102 -1.3230
  684MOL0     H92278   8.325   3.850   5.186  0.2770  0.5184  1.5631
  684MOL0     H92279   8.488   3.734   5.066 -0.8120  2.0506 -0.8434
  684MOL0     H92280   8.514   3.727   5.242 -0.7246 -4.2299 -2.5792
  684MOL0     H92281   8.664   3.901   5.045 -1.4104 -0.0153  0.0657
  684MOL0     H92282   8.706   3.892   5.220  1.9523 -3.2460  0.7747
  684MOL0     H92283   8.741   3.637   5.210 -0.5758 -0.3670 -0.7566
  684MOL0     H92284   8.732   3.662   5.030 -0.3473  0.6630 -1.2481
  684MOL0     H92285   8.915   3.821   5.204 -1.3870  2.4845 -2.8613
  684MOL0     H92286   8.960   3.658   5.158 -0.2214  0.3565  0.5303
  684MOL0     H92287   8.903   3.906   4.980 -4.1089 -1.1971  1.2011
  684MOL0     H92288   8.946   3.747   4.913  1.5639  0.9488 -0.0526
  684MOL0     H92289   9.126   3.907   4.926 -0.0608 -2.4837 -2.9344
  684MOL0     H92290   9.142   3.881   5.097  0.7771  4.2132 -1.4737
  684MOL0     H92291   9.164   3.602   5.162  0.3358  0.6934 -0.8140
  684MOL0     H92292   9.201   3.331   5.104 -2.4032 -4.7832 -1.9807
  684MOL0     H92293   9.228   3.294   4.934 -1.7256  0.5215 -0.1141
  684MOL0     H92294   9.469   3.363   4.956 -2.1393 -2.8798 -2.3274
  684MOL0     H92295   9.441   3.409   5.124 -1.0944  1.6032 -0.8878
  684MOL0     H92296   9.420   3.122   5.012  1.0419 -0.1088 -0.2702
  684MOL0     H92297   9.349   3.166   5.165  0.9767  0.6805  0.4509
  684MOL0     H92298   9.639   3.209   5.055 -0.8758  2.4958  0.3777
  684MOL0     H92299   9.593   3.074   5.154  0.1983  0.1103  1.6232
  684MOL0     H92300   9.807   3.138   5.291  0.7079  0.2990  0.7698
  684MOL0     H92301   9.881   2.998   5.477  0.7448 -1.0466 -4.4012
  684MOL0     H92302   9.520   2.807   5.957  0.7901 -2.1553 -3.1116
  684MOL0     H92303   9.560   2.687   6.136  0.2521  0.3793  0.5448
  684MOL0     H92304   9.724   2.472   6.148  0.0558  0.3611 -0.4989
  684MOL0     H92305   9.862   2.414   6.253 -1.9811 -2.4730 -2.2038
  684MOL0     H92306   9.752   2.419   6.445 -0.5886  0.6201  0.5442
  684MOL0     H92307   9.646   2.551   6.394  2.3309 -0.3769  1.2922
  684MOL0     H92308   9.502   2.397   6.259 -1.6089 -0.6862  0.3654
  684MOL0     H92309   9.622   2.269   6.296  1.1395  0.0117  3.5006
  684MOL0     H92310   9.444   2.409   6.478  0.5356 -0.0721  0.3120
  684MOL0     H92311   9.571   2.289   6.524 -3.3230 -1.4370  2.7732
  684MOL0     H92312   9.322   2.250   6.358  0.2923  0.5551 -1.0139
  684MOL0     H92313   9.358   2.182   6.519  2.2906 -1.9886  0.1965
  684MOL0     H92314   9.483   2.093   6.264 -1.2983 -1.0984 -0.0961
  684MOL0     H92315   9.561   2.067   6.434 -0.6006 -5.6149 -1.1215
  684MOL0     H92316   9.405   1.904   6.495  3.2880 -0.6986  0.4480
  684MOL0     H92317   9.436   1.877   6.326  1.8552  0.9247  0.0802
  684MOL0     H92318   9.179   2.025   6.416  1.4053  1.3064 -0.1679
  684MOL0     H92319   9.237   2.001   6.250  1.4219  1.3210  0.8825
  684MOL0     H92320   9.995   2.736   6.082 -0.8221  0.3346  2.5985
  684MOL0     H92321   9.934   2.873   5.879 -0.8059 -1.1322 -1.3958
  684MOL0     H92322   9.513   3.064   5.672 -0.1147  1.2787  0.6130
  684MOL0     H92323   9.431   3.218   5.472  0.3613  1.5750 -1.9291
  684MOL0     H92324   8.245   3.897   5.398  2.1557  2.0030  0.4349
  684MOL0     H92325   8.010   3.888   5.492  1.0041 -1.4084 -0.5958
  684MOL0     H92326   7.668   4.074   5.688  1.4691 -2.0199  0.6464
  684MOL0     H92327   7.490   3.989   5.820 -0.5160 -1.0777  0.0422
  684MOL0     H92328   7.164   3.773   5.617  0.5418 -3.9990 -2.6304
  684MOL0     H92329   7.111   3.760   5.782 -0.8738 -0.4231 -0.0582
  684MOL0     H92330   7.325   3.572   5.675  1.1650  2.6123  0.9472
  684MOL0     H92331   7.153   3.559   5.649  1.1414 -2.3612  0.1064
  684MOL0     H92332   7.115   3.567   5.911 -1.0930 -0.1424 -2.0038
  684MOL0     H92333   7.293   3.589   5.929  1.7613  0.0705 -1.6633
  684MOL0     H92334   7.185   3.353   5.773  0.6263 -1.6203 -0.3154
  684MOL0     H92335   7.346   3.390   5.825  0.9706 -1.0887  1.6674
  684MOL0     H92336   7.193   3.226   6.186 -2.1639 -1.5549 -0.7040
  684MOL0     H92337   7.323   3.785   5.464 -0.7026  0.2684  0.2807
  684MOL0     H92338   7.419   3.778   5.284 -0.4988  1.5087  0.0255
  684MOL0     H92339   7.502   3.922   5.208  0.9716  0.9540  0.2263
  684MOL0     H92340   7.575   3.769   5.267  2.0196  2.0518  0.4298
  685MOL0     O92341   0.924   2.825   3.268  0.6850 -0.3886 -0.0323
  685MOL0     C92342   1.010   2.752   3.310  0.0252 -0.2780  0.1070
  685MOL0     O92343   1.021   2.615   3.291  0.1805 -0.2388 -0.5615
  685MOL0     C92344   0.903   2.546   3.275 -0.0179 -0.1082  0.5276
  685MOL0     C92345   0.781   2.576   3.334  0.7359 -0.8965  0.5802
  685MOL0     C92346   0.679   2.481   3.315  0.4610 -0.2706  0.6182
  685MOL0     C92347   0.696   2.358   3.250  0.3038  0.3343  0.4094
  685MOL0     O92348   0.590   2.275   3.231 -0.6574 -0.2587  1.1069
  685MOL0     C92349   0.567   2.200   3.350 -0.0717  0.2104  0.4085
  685MOL0     C92350   0.420   2.178   3.369  0.9170 -0.4836  0.1518
  685MOL0     C92351   0.327   2.304   3.381 -0.3683 -0.3060  0.2033
  685MOL0     C92352   0.279   2.340   3.235  0.1792  0.6080 -0.2126
  685MOL0     C92353   0.166   2.439   3.224 -0.2877  0.5903  0.1227
  685MOL0     C92354   0.226   2.572   3.268  0.3833  0.6716  1.0119
  685MOL0     C92355   0.132   2.691   3.244 -0.4205  0.9613  1.3299
  685MOL0     C92356   0.015   2.694   3.348  0.5709 -1.0037  0.1584
  685MOL0     N92357  -0.105   2.763   3.291 -0.0737 -1.0237  0.1043
  685MOL0     C92358  -0.177   2.723   3.180 -0.0506  0.1514  0.0543
  685MOL0     C92359  -0.245   2.835   3.146  0.5570  0.2561 -0.5419
  685MOL0     C92360  -0.335   2.852   3.034  0.6443  0.0583  0.1917
  685MOL0     C92361  -0.277   2.920   2.915 -0.3961 -0.2425 -0.0381
  685MOL0     C92362  -0.228   2.818   2.814  0.1255 -0.1496  0.6424
  685MOL0     C92363  -0.213   2.891   2.682 -0.1453 -0.1337 -0.1567
  685MOL0     O92364  -0.106   2.841   2.598 -0.4603  0.3067  0.4350
  685MOL0     C92365   0.031   2.861   2.619  0.3640 -0.4315  0.4827
  685MOL0     C92366   0.083   2.939   2.718 -0.3434 -0.3264  0.4635
  685MOL0     C92367   0.219   2.975   2.717 -0.6735  0.7826  0.4633
  685MOL0     C92368   0.307   2.929   2.613  0.7402  0.3477 -0.7538
  685MOL0     C92369   0.455   2.964   2.618 -0.2261  0.3895  0.2926
  685MOL0     O92370   0.502   3.014   2.730 -1.4047  0.2205 -0.2690
  685MOL0     C92371   0.622   3.078   2.730  0.1276 -0.3591  0.8332
  685MOL0     C92372   0.680   3.161   2.629  0.0483  0.5995  0.4078
  685MOL0     C92373   0.802   3.240   2.648  0.7044  0.2740 -0.4467
  685MOL0     C92374   0.877   3.213   2.755 -0.1107 -0.1866  0.3208
  685MOL0     O92375   1.003   3.260   2.777  0.5758 -0.3126 -0.1020
  685MOL0     C92376   1.086   3.282   2.661  0.5101 -0.1421 -0.4174
  685MOL0     C92377   1.203   3.379   2.694 -0.6204 -0.8966 -0.0590
  685MOL0     C92378   1.297   3.368   2.584 -0.0508  1.1644  0.7925
  685MOL0     C92379   1.411   3.468   2.596 -0.5620  0.5027 -0.2888
  685MOL0     C92380   1.535   3.394   2.653  0.8546 -0.8249 -0.2805
  685MOL0     C92381   1.653   3.500   2.691  0.3217  0.6209 -0.1667
  685MOL0     C92382   1.600   3.607   2.788  0.3495  0.2679  0.8223
  685MOL0     C92383   1.718   3.689   2.841 -0.1008  0.0123  0.3172
  685MOL0    Cl92384   1.822   3.587   2.944  0.3411 -0.2964 -0.5650
  685MOL0     C92385   0.825   3.132   2.862 -0.2444 -0.3595 -0.0010
  685MOL0     C92386   0.703   3.062   2.843  0.2495 -0.4133 -0.2793
  685MOL0     O92387   0.520   2.952   2.515 -1.1596 -0.2039 -0.2894
  685MOL0     C92388   0.255   2.851   2.505  0.0392  0.4420 -0.5689
  685MOL0     C92389   0.113   2.809   2.514  0.3726 -0.3133  0.0659
  685MOL0     N92390  -0.213   2.932   3.243 -0.0985 -0.8254 -0.3126
  685MOL0     N92391  -0.132   2.890   3.325  0.5975 -0.7489  0.6156
  685MOL0     C92392   0.820   2.332   3.194 -0.1685  0.2748  0.0881
  685MOL0     C92393   0.929   2.420   3.212  0.4457 -0.4738 -0.6290
  685MOL0     C92394   1.133   2.820   3.334 -0.5586 -0.4967  0.2574
  685MOL0     C92395   1.260   2.767   3.296  1.4469 -0.4821 -0.1593
  685MOL0     C92396   1.378   2.827   3.335 -0.0580 -0.1627 -0.6673
  685MOL0     C92397   1.372   2.934   3.435 -0.8960  0.8333  0.9620
  685MOL0     O92398   1.489   3.007   3.473  0.7455  0.2074 -0.3764
  685MOL0     C92399   1.613   2.968   3.416  0.0415  0.0134 -0.3010
  685MOL0     C92400   1.725   3.065   3.465 -0.3019 -0.1536 -0.1420
  685MOL0     C92401   1.691   3.215   3.456 -0.1505 -0.4339  0.8326
  685MOL0     C92402   1.800   3.315   3.493  0.4817 -0.5176  0.5320
  685MOL0     C92403   1.916   3.280   3.409 -0.0342  1.0203 -0.1559
  685MOL0     C92404   2.014   3.261   3.334 -0.4853  0.5894 -0.9064
  685MOL0     C92405   1.253   2.992   3.459 -0.2389  0.4799 -0.6262
  685MOL0     C92406   1.137   2.948   3.410 -0.1713  0.9288  0.8227
  685MOL0     C92407   1.013   3.025   3.472  0.0115  0.4932  1.0188
  685MOL0     H92408   0.768   2.673   3.382 -0.9988  0.9232 -3.1189
  685MOL0     H92409   0.574   2.494   3.340 -0.3700 -1.5862 -1.7951
  685MOL0     H92410   0.603   2.098   3.337  0.8126  0.3062  1.9504
  685MOL0     H92411   0.612   2.238   3.442 -0.3709 -1.4811  1.2815
  685MOL0     H92412   0.405   2.122   3.462 -0.3313 -0.7011 -0.1691
  685MOL0     H92413   0.382   2.115   3.288 -2.0257  3.6343 -2.0408
  685MOL0     H92414   0.384   2.393   3.408  1.9542 -1.8758  0.7873
  685MOL0     H92415   0.241   2.288   3.447 -1.7065 -2.7617 -1.9429
  685MOL0     H92416   0.368   2.377   3.184  0.7465 -0.9715 -0.4204
  685MOL0     H92417   0.234   2.249   3.195 -1.6613  0.6009  1.7034
  685MOL0     H92418   0.126   2.439   3.122  0.1073  0.3409 -0.0348
  685MOL0     H92419   0.080   2.418   3.288 -1.0914  0.3424 -1.0150
  685MOL0     H92420   0.253   2.569   3.373  0.7302 -2.7673  0.9141
  685MOL0     H92421   0.318   2.586   3.210 -0.2836 -0.6910 -0.4720
  685MOL0     H92422   0.095   2.691   3.141  2.1866  0.8247  0.3213
  685MOL0     H92423   0.186   2.785   3.258 -3.0395  2.6958  0.5887
  685MOL0     H92424  -0.019   2.592   3.370 -4.0268 -0.9239 -4.7500
  685MOL0     H92425   0.057   2.748   3.434 -1.9350  2.7338 -0.7479
  685MOL0     H92426  -0.166   2.629   3.126 -5.1257 -1.2801  1.0201
  685MOL0     H92427  -0.372   2.758   2.992  0.3360  1.9287 -4.2318
  685MOL0     H92428  -0.426   2.901   3.070  0.9178  0.6207  0.1212
  685MOL0     H92429  -0.352   2.990   2.876  0.0505 -0.4054 -1.2461
  685MOL0     H92430  -0.194   2.985   2.946 -0.5704  0.7587 -1.5561
  685MOL0     H92431  -0.297   2.735   2.798 -1.8936  1.4193  0.6971
  685MOL0     H92432  -0.125   2.790   2.839  1.4452  3.1172 -0.5526
  685MOL0     H92433  -0.174   2.991   2.702  0.8303  0.5480 -4.4073
  685MOL0     H92434  -0.308   2.887   2.627 -1.1962  0.9764  1.5060
  685MOL0     H92435   0.018   2.985   2.791 -1.4415  0.3135 -0.8762
  685MOL0     H92436   0.252   3.043   2.795 -1.3628 -0.5612  1.9857
  685MOL0     H92437   0.615   3.179   2.544  1.6281  1.8803 -0.6182
  685MOL0     H92438   0.838   3.293   2.560 -0.9997  0.3470 -1.1421
  685MOL0     H92439   1.107   3.186   2.613 -3.0044 -0.4960 -1.5512
  685MOL0     H92440   1.033   3.345   2.588  0.5323  0.3536 -0.0077
  685MOL0     H92441   1.168   3.483   2.694  2.6154  0.3517 -2.2080
  685MOL0     H92442   1.259   3.361   2.786 -2.4563  0.2484  1.3641
  685MOL0     H92443   1.331   3.265   2.573 -1.9964 -0.0362  4.3765
  685MOL0     H92444   1.239   3.395   2.495 -0.2307 -0.6864  0.3102
  685MOL0     H92445   1.385   3.553   2.660 -1.8375  1.7232 -2.3066
  685MOL0     H92446   1.443   3.516   2.502  2.2429 -0.8168 -0.1240
  685MOL0     H92447   1.564   3.333   2.567  1.4621 -2.8129  1.2545
  685MOL0     H92448   1.498   3.331   2.735 -2.3867 -0.0735 -1.0421
  685MOL0     H92449   1.736   3.453   2.744 -0.8041 -0.1907  0.9344
  685MOL0     H92450   1.694   3.548   2.602  0.4821 -1.1911 -1.1168
  685MOL0     H92451   1.542   3.565   2.870 -1.8745  0.2386 -0.6899
  685MOL0     H92452   1.529   3.678   2.743 -0.7932 -0.4786  1.4115
  685MOL0     H92453   1.790   3.717   2.763 -0.5957  0.5869  0.0548
  685MOL0     H92454   1.678   3.779   2.888  0.0854 -0.1446  0.7751
  685MOL0     H92455   0.887   3.107   2.948  1.4622 -1.9460 -1.5938
  685MOL0     H92456   0.677   2.981   2.910  0.7584  0.7101  1.3309
  685MOL0     H92457   0.319   2.804   2.431 -0.7671  0.2238 -1.1547
  685MOL0     H92458   0.070   2.747   2.436 -0.7569 -1.0777  1.2648
  685MOL0     H92459   0.846   2.232   3.159  1.5668  0.3396  1.0660
  685MOL0     H92460   1.024   2.372   3.191 -0.4837 -3.2616  0.9950
  685MOL0     H92461   1.261   2.671   3.245 -3.8189 -1.4409  0.9130
  685MOL0     H92462   1.473   2.791   3.298 -0.3727 -0.8158 -0.8618
  685MOL0     H92463   1.600   2.976   3.307  0.7900  1.3884 -0.3107
  685MOL0     H92464   1.628   2.861   3.437 -0.5365 -0.0380 -0.1576
  685MOL0     H92465   1.819   3.047   3.412  0.6008 -0.4087  1.4725
  685MOL0     H92466   1.734   3.029   3.568 -1.1762 -1.7711 -0.5941
  685MOL0     H92467   1.608   3.222   3.526 -0.6875 -2.6584  0.4943
  685MOL0     H92468   1.648   3.235   3.358  1.6691  0.0144  0.0833
  685MOL0     H92469   1.768   3.419   3.498  1.5837 -0.2315  3.2581
  685MOL0     H92470   1.848   3.291   3.589  1.7612 -0.7974 -0.1559
  685MOL0     H92471   2.095   3.261   3.264  1.1285 -0.3127  0.8814
  685MOL0     H92472   1.248   3.077   3.527 -0.8581 -0.5162  0.6297
  685MOL0     H92473   0.919   2.974   3.451  0.4863 -0.5911  1.4464
  685MOL0     H92474   1.008   3.033   3.581 -2.3594  0.2460  0.9818
  685MOL0     H92475   1.030   3.128   3.437  0.1764  1.1532  2.9201
  686MOL0     O92476  10.073   1.928   8.142  0.1090  0.2097 -0.4672
  686MOL0     C92477  10.098   1.855   8.048 -0.5370  0.7618 -0.7281
  686MOL0     O92478  10.090   1.898   7.919 -0.2500  0.1154 -0.0438
  686MOL0     C92479   9.975   1.964   7.888 -0.2237  0.2414  0.1139
  686MOL0     C92480   9.977   2.101   7.858 -0.7688  1.2142 -0.4021
  686MOL0     C92481   9.856   2.168   7.830 -0.2598 -0.2086 -0.8961
  686MOL0     C92482   9.736   2.101   7.819 -0.6088  0.0640  0.2953
  686MOL0     O92483   9.614   2.164   7.796  0.3628  0.2667 -0.9923
  686MOL0     C92484   9.602   2.303   7.845 -0.3304 -0.1858 -0.0004
  686MOL0     C92485   9.474   2.332   7.911  0.8431 -1.3986 -0.3514
  686MOL0     C92486   9.359   2.334   7.812 -0.3381 -1.0776  0.3908
  686MOL0     C92487   9.279   2.472   7.812 -0.9188 -0.2920  0.6024
  686MOL0     C92488   9.184   2.471   7.926  0.5753 -0.1317 -0.1811
  686MOL0     C92489   9.123   2.608   7.950  0.4336  0.1079  0.4384
  686MOL0     C92490   9.014   2.607   8.059  0.7383  0.4648  1.4651
  686MOL0     C92491   8.930   2.738   8.064 -0.2852 -0.2242 -0.8915
  686MOL0     N92492   8.840   2.756   8.175 -0.7716  0.3798 -0.1413
  686MOL0     C92493   8.867   2.732   8.310  0.3577  0.4996 -0.3015
  686MOL0     C92494   8.745   2.749   8.370  0.9614 -0.4527  0.1518
  686MOL0     C92495   8.735   2.768   8.516  0.4420  0.1054  0.3544
  686MOL0     C92496   8.754   2.908   8.560 -0.6604  0.0989 -0.1461
  686MOL0     C92497   8.791   2.906   8.708  0.0867  0.5152  0.1200
  686MOL0     C92498   8.844   3.042   8.758  0.7388 -0.1403  1.1353
  686MOL0     O92499   8.962   3.075   8.671  0.6694 -0.4333 -0.9913
  686MOL0     C92500   9.091   3.039   8.711 -0.1110 -0.0802 -0.0118
  686MOL0     C92501   9.145   2.990   8.829  0.5151  0.3055  0.1171
  686MOL0     C92502   9.281   2.963   8.846  0.2847 -1.0960 -0.5197
  686MOL0     C92503   9.363   2.986   8.738 -0.2876  0.2349  0.3245
  686MOL0     C92504   9.502   2.948   8.740  0.1940 -0.8170 -0.6252
  686MOL0     O92505   9.591   3.020   8.665  0.6981 -0.7987 -0.1730
  686MOL0     C92506   9.716   2.971   8.624  0.9350  0.3568  0.8291
  686MOL0     C92507   9.812   2.940   8.724 -0.4652  0.6326 -0.7249
  686MOL0     C92508   9.938   2.883   8.692  0.2887  0.8959  0.3660
  686MOL0     C92509   9.976   2.884   8.560 -0.1173  0.5878  0.6270
  686MOL0     O92510  10.102   2.837   8.528  1.0377 -0.4141  0.2989
  686MOL0     C92511  10.179   2.893   8.422 -0.2705 -0.8987  0.9935
  686MOL0     C92512  10.308   2.829   8.452 -0.4102  0.9592  0.5440
  686MOL0     C92513  10.410   2.892   8.362  0.4468  0.4663 -1.1059
  686MOL0     C92514  10.552   2.839   8.378  0.4126 -0.5765 -0.6691
  686MOL0     C92515  10.646   2.887   8.276  0.3187 -0.2893  0.1498
  686MOL0     C92516  10.801   2.869   8.290  0.2503 -0.6071 -0.1433
  686MOL0     C92517  10.884   2.902   8.162 -0.1913 -0.1496  0.7726
  686MOL0     C92518  11.035   2.917   8.194  0.5877 -0.6304 -0.8289
  686MOL0    Cl92519  11.088   2.758   8.249 -0.3173 -0.2859  0.1283
  686MOL0     C92520   9.885   2.927   8.463 -0.0651  0.2923  0.4584
  686MOL0     C92521   9.758   2.985   8.498  0.5285  0.4377  0.3488
  686MOL0     O92522   9.528   2.843   8.798 -0.3483  0.1244 -0.3387
  686MOL0     C92523   9.310   3.044   8.616  0.5856  0.2982  0.6727
  686MOL0     C92524   9.174   3.070   8.605  1.1757  0.0373  0.0663
  686MOL0     N92525   8.645   2.774   8.281  0.1049  0.4101  0.0992
  686MOL0     N92526   8.711   2.781   8.158 -0.6114 -1.3425 -0.3543
  686MOL0     C92527   9.735   1.962   7.826 -0.5551  0.4701  1.0382
  686MOL0     C92528   9.852   1.891   7.869 -0.1118 -0.2854 -0.5410
  686MOL0     C92529  10.144   1.711   8.078  1.2383  0.8137  0.2074
  686MOL0     C92530  10.196   1.634   7.970 -0.5765  0.0943 -0.2679
  686MOL0     C92531  10.243   1.502   7.997 -0.7160  0.3872  0.0117
  686MOL0     C92532  10.237   1.434   8.118 -0.1652 -0.7120 -0.2384
  686MOL0     O92533  10.313   1.322   8.117 -0.2836  0.1697 -1.1289
  686MOL0     C92534  10.309   1.236   8.241 -0.1327 -0.0096 -0.5820
  686MOL0     C92535  10.439   1.274   8.317 -0.1842  0.0969  0.4385
  686MOL0     C92536  10.571   1.200   8.280 -0.3091 -0.4767 -0.2480
  686MOL0     C92537  10.692   1.250   8.357 -1.3251  0.7319 -1.0280
  686MOL0     C92538  10.669   1.239   8.506 -0.3402 -0.0520  0.2193
  686MOL0     C92539  10.651   1.239   8.625 -0.1237 -0.4766  0.4259
  686MOL0     C92540  10.172   1.504   8.218 -0.0203  0.3538 -0.8077
  686MOL0     C92541  10.121   1.636   8.211 -0.5396 -0.0414 -0.2419
  686MOL0     C92542  10.046   1.694   8.333  0.0374 -0.0641 -0.6760
  686MOL0     H92543  10.073   2.151   7.853 -1.8823  3.3713 -1.8599
  686MOL0     H92544   9.867   2.270   7.793 -2.3162  0.4926  0.2736
  686MOL0     H92545   9.678   2.317   7.922 -0.8957  3.3229  0.0980
  686MOL0     H92546   9.623   2.379   7.769  0.4186 -0.2371  0.1504
  686MOL0     H92547   9.472   2.418   7.978 -3.4888 -1.7670  0.2837
  686MOL0     H92548   9.467   2.248   7.981 -2.2120  0.0863  1.3060
  686MOL0     H92549   9.286   2.255   7.831 -1.7112  0.5534  2.3534
  686MOL0     H92550   9.401   2.320   7.712 -0.3761  1.3940 -0.0358
  686MOL0     H92551   9.346   2.558   7.807 -0.9563 -0.3343 -1.2830
  686MOL0     H92552   9.222   2.481   7.719  1.0000  1.8054 -0.4660
  686MOL0     H92553   9.115   2.388   7.908 -0.8726  0.9175  0.2954
  686MOL0     H92554   9.236   2.435   8.015  2.1426 -0.6185 -1.2455
  686MOL0     H92555   9.205   2.668   7.990  1.7742 -1.4325  0.1075
  686MOL0     H92556   9.084   2.646   7.855  2.4396 -0.7008 -0.7603
  686MOL0     H92557   9.077   2.595   8.148 -0.8090 -2.2892  2.2941
  686MOL0     H92558   8.937   2.531   8.042 -0.6696  2.4137 -1.8255
  686MOL0     H92559   9.005   2.817   8.057  1.5004 -1.4158  2.5577
  686MOL0     H92560   8.864   2.744   7.976 -1.4014 -3.6157 -0.4250
  686MOL0     H92561   8.963   2.711   8.356 -0.1174  1.6445  1.3046
  686MOL0     H92562   8.635   2.734   8.547  0.1575 -0.0867 -0.7537
  686MOL0     H92563   8.815   2.711   8.564 -0.1957 -1.2628 -0.1312
  686MOL0     H92564   8.832   2.954   8.498  1.1606 -0.7233  1.4266
  686MOL0     H92565   8.659   2.958   8.536 -1.6851 -1.3956  0.6240
  686MOL0     H92566   8.872   2.835   8.728  0.1216  0.4750 -0.1554
  686MOL0     H92567   8.709   2.883   8.777  2.5840  1.7765  3.7719
  686MOL0     H92568   8.870   3.043   8.864  3.3829  0.6217  0.5454
  686MOL0     H92569   8.767   3.120   8.757 -0.1357 -0.8987 -1.6380
  686MOL0     H92570   9.089   2.952   8.914  2.1974  0.7836  1.4970
  686MOL0     H92571   9.317   2.914   8.936 -1.2964 -1.2480  0.0603
  686MOL0     H92572   9.773   2.931   8.825 -2.8906 -1.4415 -1.7112
  686MOL0     H92573   9.979   2.831   8.778 -2.3334  1.6032  2.1786
  686MOL0     H92574  10.144   2.863   8.323  2.6444  0.5737 -0.6151
  686MOL0     H92575  10.180   3.001   8.437 -0.0113 -0.6745 -0.5175
  686MOL0     H92576  10.336   2.852   8.556  2.9160 -0.2294  0.0411
  686MOL0     H92577  10.304   2.721   8.440  0.8113  0.4022  4.0114
  686MOL0     H92578  10.379   2.879   8.258 -0.2636 -3.1275 -0.5554
  686MOL0     H92579  10.409   3.000   8.383  0.0977  0.0803  1.0876
  686MOL0     H92580  10.558   2.733   8.406  1.3762 -0.9028 -2.0102
  686MOL0     H92581  10.574   2.895   8.469 -1.1990 -3.6831  1.8653
  686MOL0     H92582  10.645   2.997   8.279 -1.6632 -0.2749  0.4110
  686MOL0     H92583  10.601   2.832   8.193  0.8214  0.0275 -0.3435
  686MOL0     H92584  10.845   2.924   8.373 -2.2984 -0.3456  1.1528
  686MOL0     H92585  10.820   2.762   8.302 -0.5258 -1.3821 -4.2466
  686MOL0     H92586  10.842   2.999   8.133  1.0943  1.2118  3.1414
  686MOL0     H92587  10.874   2.828   8.082  1.4689  2.7451 -2.3957
  686MOL0     H92588  11.091   2.960   8.110  2.0185  1.4477  1.0582
  686MOL0     H92589  11.044   2.984   8.281 -1.9050 -0.6654 -0.4543
  686MOL0     H92590   9.930   2.933   8.364  1.3124 -1.1076  0.9508
  686MOL0     H92591   9.689   3.036   8.431 -0.5659  1.1504  1.9365
  686MOL0     H92592   9.384   3.069   8.540  0.7726 -2.2851 -0.0960
  686MOL0     H92593   9.138   3.106   8.509 -1.7104 -0.2187  0.9578
  686MOL0     H92594   9.642   1.909   7.807  0.3962 -1.8467  2.5147
  686MOL0     H92595   9.843   1.784   7.886  1.3279 -0.0072  2.7177
  686MOL0     H92596  10.217   1.673   7.871 -0.7763 -1.2011 -0.8447
  686MOL0     H92597  10.280   1.438   7.918 -0.6354 -2.1176  1.9577
  686MOL0     H92598  10.308   1.131   8.212 -1.4321  0.0153 -0.6565
  686MOL0     H92599  10.221   1.255   8.303  3.2012  2.9468  3.9090
  686MOL0     H92600  10.419   1.257   8.424  3.6780 -0.6729  1.1709
  686MOL0     H92601  10.459   1.381   8.309  0.1570  0.0797  0.9668
  686MOL0     H92602  10.603   1.195   8.176 -0.7566 -2.2258 -0.3315
  686MOL0     H92603  10.554   1.098   8.317  1.7340 -0.7646  0.0189
  686MOL0     H92604  10.769   1.177   8.332  0.5941  2.3359 -0.0597
  686MOL0     H92605  10.722   1.352   8.331  1.3286  0.2775 -0.0138
  686MOL0     H92606  10.661   1.245   8.732  1.3608  0.3769  0.2741
  686MOL0     H92607  10.164   1.455   8.315 -0.4337 -1.2735 -1.6175
  686MOL0     H92608   9.964   1.628   8.359  0.9786 -0.8585  0.3411
  686MOL0     H92609  10.104   1.700   8.425 -1.8254 -0.2326  0.5542
  686MOL0     H92610   9.990   1.788   8.322  0.1804 -0.0861 -1.6905
  687MOL0     O92611  11.249   4.604   4.069 -0.1914  0.2379  0.0148
  687MOL0     C92612  11.257   4.549   4.180  0.0135  0.5442 -0.3319
  687MOL0     O92613  11.226   4.624   4.295 -0.4601 -0.3025 -0.4466
  687MOL0     C92614  11.166   4.746   4.269  0.3408  1.2371 -0.1713
  687MOL0     C92615  11.238   4.862   4.292  1.0009  0.2375  1.6802
  687MOL0     C92616  11.164   4.985   4.289 -0.4319 -0.8203  0.2657
  687MOL0     C92617  11.020   4.989   4.278  0.0719  0.4926  0.0617
  687MOL0     O92618  10.944   5.099   4.286  0.2425 -0.6842  0.6355
  687MOL0     C92619  10.990   5.214   4.215  0.1247  0.3084 -0.0788
  687MOL0     C92620  10.883   5.301   4.149 -0.4358  0.1163 -0.3703
  687MOL0     C92621  10.796   5.218   4.053 -0.2629 -0.0787  1.3998
  687MOL0     C92622  10.885   5.158   3.940 -0.5144 -0.4228 -0.0191
  687MOL0     C92623  10.783   5.130   3.823 -0.6551  0.3354  0.6023
  687MOL0     C92624  10.844   5.022   3.726  0.0952  0.9153  0.3050
  687MOL0     C92625  10.780   5.006   3.586  0.2502 -0.2836  1.9116
  687MOL0     C92626  10.850   5.104   3.477  0.7538  0.2213  0.3697
  687MOL0     N92627  10.817   5.053   3.342  0.0624  0.2224 -0.4644
  687MOL0     C92628  10.903   4.978   3.264 -0.0024 -0.0009  0.3227
  687MOL0     C92629  10.822   4.936   3.159 -0.8600  0.0527  0.0889
  687MOL0     C92630  10.870   4.860   3.038  0.0272  0.3113  0.1319
  687MOL0     C92631  10.932   4.950   2.928 -0.1254  0.0976 -0.2383
  687MOL0     C92632  11.077   4.998   2.954  0.9609  0.0657  0.1243
  687MOL0     C92633  11.128   5.051   2.823  0.4785 -0.2444  0.3072
  687MOL0     O92634  11.259   5.114   2.827 -0.0152  0.5503  0.6589
  687MOL0     C92635  11.260   5.250   2.795  1.1060 -0.1820 -0.2907
  687MOL0     C92636  11.328   5.304   2.679 -0.0705  0.0162 -0.4809
  687MOL0     C92637  11.316   5.438   2.650  0.2339 -0.2612  0.5680
  687MOL0     C92638  11.245   5.536   2.724  0.8199  0.9403 -0.3587
  687MOL0     C92639  11.245   5.674   2.679  0.1800  0.2430  0.0369
  687MOL0     O92640  11.342   5.711   2.589 -0.2782 -0.6405 -0.0068
  687MOL0     C92641  11.320   5.824   2.516 -0.2018 -0.4240 -0.3889
  687MOL0     C92642  11.203   5.882   2.469 -0.2766 -0.4745  0.2991
  687MOL0     C92643  11.212   5.995   2.373 -0.4144 -0.3395 -0.2246
  687MOL0     C92644  11.341   6.039   2.337 -0.4855 -0.0126 -0.2195
  687MOL0     O92645  11.373   6.145   2.254 -0.3282  0.4705  0.3437
  687MOL0     C92646  11.282   6.252   2.236  0.3352 -0.1923 -1.4278
  687MOL0     C92647  11.297   6.348   2.348 -0.5510  0.5016  0.7086
  687MOL0     C92648  11.175   6.450   2.346 -0.3093 -0.1127 -0.2379
  687MOL0     C92649  11.186   6.547   2.475  0.9033 -1.1204  0.6513
  687MOL0     C92650  11.065   6.646   2.471  0.1960  0.2781 -0.2498
  687MOL0     C92651  11.051   6.734   2.344  0.3624  0.0087  0.1680
  687MOL0     C92652  10.986   6.863   2.382  0.7508 -1.2367 -0.1818
  687MOL0     C92653  10.843   6.843   2.441  0.6705  0.2117 -0.7652
  687MOL0    Cl92654  10.772   7.007   2.456 -0.3525 -0.0641  0.0175
  687MOL0     C92655  11.453   5.980   2.387  0.4047  0.3250  0.7682
  687MOL0     C92656  11.444   5.873   2.471  0.1460  0.5319 -0.3146
  687MOL0     O92657  11.172   5.749   2.744  0.0817 -0.7723 -0.1486
  687MOL0     C92658  11.189   5.481   2.846 -1.7549  0.4115 -1.3786
  687MOL0     C92659  11.193   5.342   2.881 -0.0606  0.8068 -0.6281
  687MOL0     N92660  10.686   4.978   3.182  0.8325 -0.5630  0.0832
  687MOL0     N92661  10.693   5.060   3.285  0.0424 -0.5144 -0.0020
  687MOL0     C92662  10.952   4.871   4.256 -1.3778  0.7151  0.0262
  687MOL0     C92663  11.023   4.749   4.256 -0.7214  0.4161 -1.0738
  687MOL0     C92664  11.336   4.424   4.197  0.2683 -1.8802 -0.4558
  687MOL0     C92665  11.420   4.440   4.313 -0.2438  0.7002  0.5645
  687MOL0     C92666  11.483   4.326   4.365  0.1070 -0.2615  1.0598
  687MOL0     C92667  11.460   4.203   4.313 -0.7577 -0.7615  0.7279
  687MOL0     O92668  11.517   4.092   4.368  0.5328  0.8886 -0.4008
  687MOL0     C92669  11.491   3.962   4.318  0.7112  0.7298  0.6291
  687MOL0     C92670  11.526   3.859   4.415  0.2665  0.2444  0.3371
  687MOL0     C92671  11.507   3.718   4.368 -0.9757 -0.0774  0.0582
  687MOL0     C92672  11.510   3.613   4.480 -0.2568 -0.4943 -0.0953
  687MOL0     C92673  11.511   3.482   4.415 -0.8709  0.7671 -0.7492
  687MOL0     C92674  11.498   3.373   4.360 -0.6329 -0.2867  0.2215
  687MOL0     C92675  11.387   4.191   4.191 -0.4615 -0.9881 -0.5562
  687MOL0     C92676  11.321   4.300   4.136 -0.2637  0.4865 -0.2651
  687MOL0     C92677  11.234   4.276   4.008 -0.0468 -0.2578  0.6380
  687MOL0     H92678  11.344   4.857   4.311  1.7015 -0.6793 -1.7245
  687MOL0     H92679  11.219   5.077   4.308 -2.2825  0.1670  1.1462
  687MOL0     H92680  11.038   5.286   4.281  2.3870  0.8737 -2.1699
  687MOL0     H92681  11.067   5.187   4.141 -0.5330  0.4935 -0.8422
  687MOL0     H92682  10.927   5.390   4.102  0.4250  1.1084  2.1480
  687MOL0     H92683  10.814   5.340   4.224  0.3078 -2.6093  1.9002
  687MOL0     H92684  10.720   5.284   4.010 -1.5590 -0.8216  2.4668
  687MOL0     H92685  10.730   5.147   4.103 -0.5845 -0.2040  0.8056
  687MOL0     H92686  10.964   5.223   3.901  0.0234 -2.1348 -1.9786
  687MOL0     H92687  10.929   5.064   3.975 -0.4249 -0.1166  0.7038
  687MOL0     H92688  10.686   5.086   3.848 -0.2307 -0.9196  0.1240
  687MOL0     H92689  10.768   5.223   3.768 -2.8665 -0.5793 -0.4637
  687MOL0     H92690  10.950   5.044   3.711  0.4785 -1.4361 -0.9603
  687MOL0     H92691  10.837   4.929   3.783  0.3560  1.3829  1.1133
  687MOL0     H92692  10.673   5.027   3.597  0.4910  0.1107  3.9162
  687MOL0     H92693  10.780   4.904   3.546 -0.1037  0.3828  0.1206
  687MOL0     H92694  10.814   5.207   3.490  0.9095  0.0786  2.2436
  687MOL0     H92695  10.958   5.113   3.491  0.9150  0.6503 -1.0256
  687MOL0     H92696  11.007   4.953   3.280 -0.1271 -1.8310 -1.3862
  687MOL0     H92697  10.943   4.788   3.075 -3.2097 -2.7176  1.0923
  687MOL0     H92698  10.784   4.804   2.999  0.2191 -0.2343  0.4906
  687MOL0     H92699  10.932   4.894   2.835 -1.5335  1.2337 -0.9651
  687MOL0     H92700  10.877   5.044   2.919  0.9209  0.5913 -1.8570
  687MOL0     H92701  11.135   4.909   2.979 -2.7322 -1.7671  3.2071
  687MOL0     H92702  11.070   5.079   3.028  2.8263  2.0988 -1.7828
  687MOL0     H92703  11.057   5.118   2.775  2.0424  1.3183  0.0813
  687MOL0     H92704  11.138   4.970   2.751 -1.3360  0.5520 -0.8989
  687MOL0     H92705  11.375   5.236   2.609  0.0765 -0.6815  0.2716
  687MOL0     H92706  11.369   5.463   2.558 -0.5178 -0.1235  0.1681
  687MOL0     H92707  11.103   5.855   2.503 -0.5590 -0.7597 -0.7298
  687MOL0     H92708  11.124   6.038   2.327 -2.2295 -0.6758  2.6842
  687MOL0     H92709  11.296   6.298   2.138  0.4889 -1.2643 -1.9248
  687MOL0     H92710  11.178   6.220   2.242  0.5344 -0.5863  1.1339
  687MOL0     H92711  11.303   6.292   2.442 -3.9487  3.2654  2.8023
  687MOL0     H92712  11.391   6.396   2.320 -0.9762  1.1545  0.3968
  687MOL0     H92713  11.172   6.510   2.255  1.2745  1.8029  0.8793
  687MOL0     H92714  11.086   6.386   2.344  0.8462 -1.7731 -1.4842
  687MOL0     H92715  11.278   6.606   2.472  1.1961 -1.4243 -3.9124
  687MOL0     H92716  11.206   6.496   2.569  5.1505  1.1065  1.2096
  687MOL0     H92717  11.062   6.703   2.564 -1.3707  0.4899 -0.3884
  687MOL0     H92718  10.977   6.580   2.480  0.0073  0.7186  1.4103
  687MOL0     H92719  11.151   6.755   2.304 -0.8821 -0.0029 -3.2561
  687MOL0     H92720  11.003   6.677   2.265  3.3287 -0.8561 -1.1671
  687MOL0     H92721  10.965   6.925   2.295 -0.3029 -1.8995 -0.4127
  687MOL0     H92722  11.044   6.921   2.455  2.6579 -3.0883 -0.1506
  687MOL0     H92723  10.771   6.786   2.382 -0.5221  0.4153  0.4475
  687MOL0     H92724  10.853   6.787   2.534  5.6234  1.0989 -0.4690
  687MOL0     H92725  11.547   6.021   2.353 -1.2322  0.9980 -3.6269
  687MOL0     H92726  11.542   5.840   2.503  0.8713  1.4070 -1.5438
  687MOL0     H92727  11.124   5.543   2.906  0.4046 -0.4776  2.1185
  687MOL0     H92728  11.142   5.292   2.963  0.1862  0.9372 -0.3918
  687MOL0     H92729  10.844   4.860   4.248 -1.5190  2.0611 -0.2482
  687MOL0     H92730  10.978   4.650   4.255 -0.0377  0.0550  0.6846
  687MOL0     H92731  11.429   4.537   4.361  0.7602  1.4725 -1.0727
  687MOL0     H92732  11.532   4.332   4.462 -0.2311 -1.1308  1.2931
  687MOL0     H92733  11.548   3.936   4.228 -4.0855 -2.7998 -1.8759
  687MOL0     H92734  11.389   3.945   4.281  2.2323 -0.8376 -3.5473
  687MOL0     H92735  11.469   3.864   4.508 -0.2970 -1.2990  0.1058
  687MOL0     H92736  11.630   3.865   4.446 -0.1450  1.9535  1.5678
  687MOL0     H92737  11.588   3.703   4.295  0.7509  0.3607  1.8028
  687MOL0     H92738  11.416   3.699   4.310 -0.5413 -3.2067  0.2195
  687MOL0     H92739  11.598   3.619   4.544 -1.8861  0.1865  2.1932
  687MOL0     H92740  11.413   3.621   4.531 -1.3171  1.4177 -2.2140
  687MOL0     H92741  11.487   3.277   4.314 -5.1182 -0.8124  1.9233
  687MOL0     H92742  11.368   4.096   4.142  0.9197 -1.1865 -0.7565
  687MOL0     H92743  11.178   4.183   3.999 -0.6967  0.1513  0.4418
  687MOL0     H92744  11.165   4.359   3.991 -0.8923 -1.1074 -0.2682
  687MOL0     H92745  11.307   4.269   3.926 -2.1707 -0.2547 -1.3482
  688MOL0     O92746  10.281   3.229   0.846  0.0882  0.5318  0.6787
  688MOL0     C92747  10.315   3.222   0.962  0.2380 -0.1424  0.3491
  688MOL0     O92748  10.381   3.314   1.041 -0.5965 -0.3151 -0.2775
  688MOL0     C92749  10.408   3.444   1.004  0.6246  0.4595 -0.0210
  688MOL0     C92750  10.323   3.516   0.906  0.1952  0.5091  0.8149
  688MOL0     C92751  10.359   3.648   0.878  0.4930 -0.7210 -0.1195
  688MOL0     C92752  10.474   3.705   0.949 -0.0314  0.0253 -0.2469
  688MOL0     O92753  10.524   3.833   0.924 -0.1135  0.1878 -0.6162
  688MOL0     C92754  10.596   3.834   0.796 -0.7180  0.6591  0.4271
  688MOL0     C92755  10.666   3.971   0.765  0.4847  0.0429  0.0667
  688MOL0     C92756  10.654   4.078   0.885  0.1302  0.1485  0.1599
  688MOL0     C92757  10.717   4.215   0.850 -0.5987  0.3158 -0.9138
  688MOL0     C92758  10.684   4.319   0.950  0.0794  0.3028 -0.8591
  688MOL0     C92759  10.771   4.278   1.081  0.8433  0.3116  0.7281
  688MOL0     C92760  10.739   4.369   1.199 -0.0934  0.3142  1.2807
  688MOL0     C92761  10.844   4.361   1.303  0.1831  1.1245  0.1906
  688MOL0     N92762  10.823   4.480   1.378  0.3470 -0.5210 -0.2444
  688MOL0     C92763  10.719   4.514   1.452 -0.2046  1.0478  0.6558
  688MOL0     C92764  10.750   4.644   1.494  0.5100  0.6543 -0.9772
  688MOL0     C92765  10.658   4.712   1.584  0.0521  0.1363  0.2998
  688MOL0     C92766  10.699   4.860   1.602  0.0234 -0.9430  0.2323
  688MOL0     C92767  10.622   4.928   1.716  0.5507  0.1962  0.5435
  688MOL0     C92768  10.692   5.057   1.766  0.8270 -0.0128 -0.0185
  688MOL0     O92769  10.667   5.166   1.680 -0.2415 -0.1704 -0.2725
  688MOL0     C92770  10.677   5.296   1.730 -0.4769  0.3716  0.9624
  688MOL0     C92771  10.627   5.400   1.656  0.2566  0.1681  0.9823
  688MOL0     C92772  10.661   5.528   1.696 -0.1176  1.1661 -1.4557
  688MOL0     C92773  10.706   5.560   1.822  0.0085 -0.1195  0.2435
  688MOL0     C92774  10.734   5.701   1.862  0.2900  0.0427  0.8153
  688MOL0     O92775  10.671   5.802   1.783 -0.3883  0.0424 -0.3662
  688MOL0     C92776  10.721   5.925   1.790  1.0145  0.9510 -0.0476
  688MOL0     C92777  10.853   5.977   1.791  0.3611 -0.6608 -0.3043
  688MOL0     C92778  10.875   6.115   1.794  0.0918 -1.4661  0.2195
  688MOL0     C92779  10.761   6.203   1.788 -0.4739 -0.5911 -0.4498
  688MOL0     O92780  10.765   6.343   1.787 -0.5431 -0.0217  0.6409
  688MOL0     C92781  10.883   6.412   1.740  0.6390  0.4211 -0.5764
  688MOL0     C92782  10.861   6.567   1.720 -1.1801  0.4424  0.4087
  688MOL0     C92783  10.792   6.629   1.842 -0.8644 -0.3771 -0.5189
  688MOL0     C92784  10.816   6.779   1.867  1.0998 -0.1940 -0.5317
  688MOL0     C92785  10.774   6.835   2.005 -0.0643  0.2469  0.4688
  688MOL0     C92786  10.786   6.989   2.017  0.4871  0.4535 -0.3754
  688MOL0     C92787  10.930   7.041   1.994 -0.2871  0.4504 -0.5564
  688MOL0     C92788  10.959   7.178   2.064  0.2787  1.0210 -0.0615
  688MOL0    Cl92789  11.127   7.246   2.023  0.0836 -0.0954  0.1078
  688MOL0     C92790  10.638   6.145   1.797 -0.1193 -0.0331  0.5951
  688MOL0     C92791  10.611   6.007   1.783  0.3278 -0.0742 -0.4606
  688MOL0     O92792  10.804   5.726   1.962 -0.6199 -0.0609 -0.4101
  688MOL0     C92793  10.753   5.457   1.905  0.4737  0.3704 -0.7848
  688MOL0     C92794  10.744   5.328   1.852  0.4123 -0.7725  0.2352
  688MOL0     N92795  10.865   4.684   1.442 -0.3164  0.0894  0.2562
  688MOL0     N92796  10.906   4.586   1.366 -0.7013 -0.1409  0.2077
  688MOL0     C92797  10.543   3.634   1.047  0.0715 -0.3543  1.4013
  688MOL0     C92798  10.512   3.509   1.071 -0.9406  0.6322 -0.4124
  688MOL0     C92799  10.300   3.085   1.026  0.5462 -1.0864 -0.2586
  688MOL0     C92800  10.402   3.044   1.112 -0.1688 -0.0696 -0.1038
  688MOL0     C92801  10.405   2.919   1.171 -0.3462 -0.1200  0.4762
  688MOL0     C92802  10.306   2.834   1.153 -0.2809  0.4395  0.0605
  688MOL0     O92803  10.305   2.713   1.225 -0.2952 -0.4234 -0.6818
  688MOL0     C92804  10.318   2.713   1.367 -1.3478  1.2391  0.3831
  688MOL0     C92805  10.195   2.755   1.447  0.2230 -0.8094  0.6155
  688MOL0     C92806  10.056   2.680   1.400 -1.1095 -0.6427 -0.4712
  688MOL0     C92807   9.944   2.716   1.487 -0.1877 -0.4272  0.9368
  688MOL0     C92808   9.960   2.684   1.628  0.8646 -0.5758 -0.4202
  688MOL0     C92809   9.993   2.657   1.734 -0.5448 -0.0464  0.0242
  688MOL0     C92810  10.205   2.871   1.069  0.4921 -1.3070  0.2261
  688MOL0     C92811  10.194   2.995   1.011  0.5939  0.0713  1.1853
  688MOL0     C92812  10.079   3.012   0.909 -0.0429 -0.1824  0.0734
  688MOL0     H92813  10.238   3.472   0.855 -0.2620  1.4218  0.7866
  688MOL0     H92814  10.306   3.713   0.809 -1.4901 -2.4133 -0.3109
  688MOL0     H92815  10.671   3.755   0.794 -0.7399  0.6439 -0.5609
  688MOL0     H92816  10.530   3.827   0.708  3.1961  1.5235 -2.8652
  688MOL0     H92817  10.628   4.020   0.675  2.2971  0.8554 -0.3024
  688MOL0     H92818  10.772   3.947   0.755  0.1498 -1.7549  0.3888
  688MOL0     H92819  10.697   4.039   0.978  0.1417  3.9057  1.8762
  688MOL0     H92820  10.548   4.098   0.905  0.7272  0.7663  3.0566
  688MOL0     H92821  10.824   4.194   0.844 -0.8612 -2.2532  1.1902
  688MOL0     H92822  10.678   4.252   0.755 -4.0875 -0.7362 -0.0417
  688MOL0     H92823  10.719   4.417   0.915 -0.1707  0.6799 -0.0765
  688MOL0     H92824  10.577   4.329   0.969  0.2699  2.3493 -0.6669
  688MOL0     H92825  10.746   4.177   1.116 -2.7292  0.6756 -0.3284
  688MOL0     H92826  10.874   4.307   1.061  0.5222  2.5062  1.9691
  688MOL0     H92827  10.641   4.342   1.240 -0.0393 -4.4869 -1.0694
  688MOL0     H92828  10.739   4.468   1.152  1.3734  0.9797  2.5739
  688MOL0     H92829  10.845   4.267   1.358  1.2308  0.7228 -0.4903
  688MOL0     H92830  10.944   4.361   1.259  0.8788 -2.4775  1.4760
  688MOL0     H92831  10.645   4.450   1.499 -0.1504  0.4918 -0.0165
  688MOL0     H92832  10.553   4.708   1.553 -0.0584  1.4150  0.4602
  688MOL0     H92833  10.674   4.655   1.676  1.3283  0.9572  0.6080
  688MOL0     H92834  10.804   4.866   1.630  0.0006  4.0960  0.1319
  688MOL0     H92835  10.696   4.917   1.509 -1.5039  2.3201  2.0864
  688MOL0     H92836  10.622   4.854   1.796 -1.4899 -1.2086 -0.6661
  688MOL0     H92837  10.519   4.956   1.696  1.1067  2.0604  0.0563
  688MOL0     H92838  10.795   5.048   1.802  1.0029 -1.9231 -0.8716
  688MOL0     H92839  10.623   5.083   1.847 -0.2036 -0.6318 -0.6778
  688MOL0     H92840  10.568   5.392   1.566 -1.3979 -1.4331  2.1435
  688MOL0     H92841  10.639   5.607   1.625  3.7139  1.4143 -2.6044
  688MOL0     H92842  10.933   5.904   1.799 -0.1078 -1.0723  0.7899
  688MOL0     H92843  10.975   6.157   1.800  1.6738 -5.0667  1.8614
  688MOL0     H92844  10.964   6.391   1.810 -1.4859 -0.1104  1.9115
  688MOL0     H92845  10.914   6.376   1.642  4.0443  0.1734  0.4814
  688MOL0     H92846  10.963   6.601   1.698 -1.2640  1.1046  0.9851
  688MOL0     H92847  10.804   6.599   1.633 -0.6710  1.9161  0.5784
  688MOL0     H92848  10.685   6.608   1.838 -1.5473  2.4715  0.3481
  688MOL0     H92849  10.831   6.571   1.926  0.1440 -3.6094 -2.9990
  688MOL0     H92850  10.776   6.841   1.787  0.4332  1.6099  1.1220
  688MOL0     H92851  10.921   6.801   1.845  0.2721  2.3901 -2.4023
  688MOL0     H92852  10.832   6.784   2.083  2.9656  1.0968 -1.0726
  688MOL0     H92853  10.669   6.816   2.027  0.0556  0.2873  1.0990
  688MOL0     H92854  10.704   7.035   1.960  0.5382  0.3175 -0.5614
  688MOL0     H92855  10.767   7.009   2.123  1.4259  1.4398 -0.3809
  688MOL0     H92856  10.958   7.060   1.890  0.1759 -0.6265 -0.6421
  688MOL0     H92857  11.004   6.964   2.018 -1.3912 -0.7523 -0.8715
  688MOL0     H92858  10.878   7.246   2.035  0.1212  1.8174  2.0767
  688MOL0     H92859  10.952   7.170   2.172  0.7200 -2.9814 -0.1836
  688MOL0     H92860  10.557   6.217   1.805  0.9567  1.2125  0.5538
  688MOL0     H92861  10.513   5.960   1.788  1.8800 -3.9175 -2.4146
  688MOL0     H92862  10.793   5.478   2.004  1.4120 -1.4063 -0.7518
  688MOL0     H92863  10.781   5.253   1.922  2.3921 -0.3693 -0.3294
  688MOL0     H92864  10.618   3.695   1.096  1.3545 -1.1299  0.4968
  688MOL0     H92865  10.559   3.450   1.149  0.9140  1.8684 -0.5107
  688MOL0     H92866  10.483   3.111   1.140 -1.0130  0.9638 -0.0474
  688MOL0     H92867  10.493   2.902   1.232 -0.2791  1.9491  1.0323
  688MOL0     H92868  10.397   2.784   1.395 -1.3202  2.1726 -1.8865
  688MOL0     H92869  10.328   2.611   1.406 -1.8267  1.3083  0.7001
  688MOL0     H92870  10.185   2.863   1.436 -0.4021 -0.8953  0.2781
  688MOL0     H92871  10.203   2.747   1.556 -3.2431  1.1805  1.1702
  688MOL0     H92872  10.083   2.575   1.407  1.3323 -0.1398 -1.2106
  688MOL0     H92873  10.037   2.710   1.297  1.8306  2.8299 -0.2190
  688MOL0     H92874   9.933   2.825   1.491 -0.5671 -0.4452  0.4960
  688MOL0     H92875   9.855   2.670   1.444  0.2271 -1.7830  1.4941
  688MOL0     H92876  10.019   2.620   1.831  2.7181  2.0493  0.1217
  688MOL0     H92877  10.142   2.789   1.035  4.5261 -4.2444 -0.9617
  688MOL0     H92878  10.015   3.098   0.933 -2.7931 -2.6763  2.5912
  688MOL0     H92879  10.122   3.025   0.809  1.4002  1.8258  0.8771
  688MOL0     H92880  10.013   2.924   0.911 -1.6895  1.0122  1.2351
  689MOL0     O92881   7.528   7.988   5.870 -0.3113  0.3741 -0.1063
  689MOL0     C92882   7.428   7.918   5.896 -0.3568 -0.1627  0.2709
  689MOL0     O92883   7.377   7.822   5.812  0.1263 -0.4797 -0.8312
  689MOL0     C92884   7.405   7.808   5.682 -0.8037  0.0833 -0.5538
  689MOL0     C92885   7.416   7.898   5.572  0.0991 -0.3573  0.0780
  689MOL0     C92886   7.444   7.860   5.442  0.6149  0.3760  0.0953
  689MOL0     C92887   7.446   7.727   5.415 -0.0692 -0.3706  0.9668
  689MOL0     O92888   7.464   7.675   5.294  0.9794 -0.2990 -0.0595
  689MOL0     C92889   7.500   7.762   5.182 -0.2836 -0.2683  0.0557
  689MOL0     C92890   7.521   7.673   5.061  0.1696 -0.5119  0.0732
  689MOL0     C92891   7.386   7.609   5.000  0.4756 -0.2546  1.2311
  689MOL0     C92892   7.426   7.527   4.875  0.4554  0.2492  0.0541
  689MOL0     C92893   7.307   7.461   4.811  0.2351 -1.1715  0.1703
  689MOL0     C92894   7.328   7.436   4.659 -0.5483 -0.5812 -0.2835
  689MOL0     C92895   7.434   7.327   4.629 -0.1044  0.5759  0.9067
  689MOL0     C92896   7.461   7.330   4.475 -0.2207  0.3387 -0.5417
  689MOL0     N92897   7.356   7.327   4.376  0.0573 -0.7543  0.2842
  689MOL0     C92898   7.278   7.220   4.341 -0.8205 -0.5301 -0.1770
  689MOL0     C92899   7.200   7.261   4.233 -0.5240 -0.1015  0.1290
  689MOL0     C92900   7.087   7.184   4.152  0.0291 -0.4833  0.4184
  689MOL0     C92901   6.935   7.222   4.182 -0.0085  0.3398  0.6757
  689MOL0     C92902   6.858   7.277   4.056  0.1920  0.0486  0.4403
  689MOL0     C92903   6.710   7.305   4.079  0.1045 -0.3148  0.1850
  689MOL0     O92904   6.679   7.394   4.191  0.5466  0.2910 -0.3074
  689MOL0     C92905   6.580   7.494   4.176  0.3329 -1.5442  0.4625
  689MOL0     C92906   6.490   7.504   4.072  0.0696 -0.1126  0.1089
  689MOL0     C92907   6.400   7.609   4.050  0.8715 -0.2676 -0.0625
  689MOL0     C92908   6.400   7.711   4.143  0.2760  0.8188 -0.6330
  689MOL0     C92909   6.287   7.811   4.151  0.2754  0.9491 -0.9979
  689MOL0     O92910   6.256   7.857   4.273  0.3449 -0.5739 -0.4800
  689MOL0     C92911   6.170   7.961   4.290 -0.5395 -0.3815 -0.0839
  689MOL0     C92912   6.215   8.098   4.294  0.1833 -0.0736 -0.2797
  689MOL0     C92913   6.128   8.208   4.317  0.0164  0.1323 -0.1109
  689MOL0     C92914   5.990   8.176   4.356 -0.4351 -0.6428  0.1949
  689MOL0     O92915   5.922   8.276   4.417  0.3307  0.8755 -0.7011
  689MOL0     C92916   5.778   8.275   4.390  0.2676  0.0820 -0.1314
  689MOL0     C92917   5.727   8.408   4.407 -0.0445 -0.0855 -0.3125
  689MOL0     C92918   5.780   8.484   4.527  0.2077 -0.0031 -0.6519
  689MOL0     C92919   5.762   8.418   4.667  0.2897  0.1548  0.0611
  689MOL0     C92920   5.777   8.517   4.793  0.1058 -0.1763  0.0906
  689MOL0     C92921   5.698   8.468   4.918  0.2805 -1.1339 -0.0601
  689MOL0     C92922   5.552   8.412   4.913  1.3976  0.9732  0.2373
  689MOL0     C92923   5.468   8.443   5.037 -1.1615 -0.3948 -0.3174
  689MOL0    Cl92924   5.288   8.407   5.029 -0.1068  0.0002  0.1760
  689MOL0     C92925   5.944   8.047   4.324  0.4885 -0.7680 -0.4297
  689MOL0     C92926   6.026   7.943   4.288 -0.2197 -0.3707  1.2613
  689MOL0     O92927   6.215   7.817   4.049 -0.1775  0.2690  0.1589
  689MOL0     C92928   6.488   7.702   4.259  0.4071  0.0272 -0.5594
  689MOL0     C92929   6.569   7.593   4.275 -0.4081 -0.0150 -0.2172
  689MOL0     N92930   7.232   7.384   4.208 -0.3743 -0.1739 -0.5722
  689MOL0     N92931   7.330   7.427   4.287  0.0315  0.2576 -0.4270
  689MOL0     C92932   7.420   7.633   5.522  0.4840  1.3087  0.6671
  689MOL0     C92933   7.401   7.668   5.655  0.5443 -0.1399  0.8411
  689MOL0     C92934   7.365   7.929   6.033  0.1661  0.3558  0.2130
  689MOL0     C92935   7.312   7.805   6.091  0.8197 -0.3877 -0.5286
  689MOL0     C92936   7.222   7.805   6.203 -0.2160  0.4151 -0.4640
  689MOL0     C92937   7.195   7.928   6.261 -0.3880  0.6959 -0.3430
  689MOL0     O92938   7.107   7.935   6.367  0.4639  0.0300 -0.3997
  689MOL0     C92939   6.976   7.988   6.337  0.1631  0.0830 -0.7423
  689MOL0     C92940   6.905   7.921   6.461 -0.3151 -0.2251  0.3501
  689MOL0     C92941   6.757   7.930   6.452 -0.0864  0.2299 -0.7716
  689MOL0     C92942   6.704   8.072   6.443 -0.5397  0.3722  0.2903
  689MOL0     C92943   6.569   8.098   6.504 -1.0940  0.1775 -0.2322
  689MOL0     C92944   6.472   8.127   6.563  0.4187 -1.2618 -0.2776
  689MOL0     C92945   7.246   8.047   6.207  0.1312  0.8707  0.6444
  689MOL0     C92946   7.328   8.057   6.089  1.1312  0.3715 -0.3501
  689MOL0     C92947   7.346   8.181   6.003 -0.3082  0.3363 -0.5857
  689MOL0     H92948   7.412   8.003   5.600 -1.4134 -0.1251 -0.8745
  689MOL0     H92949   7.452   7.934   5.363  2.9693  1.2918  1.1069
  689MOL0     H92950   7.435   7.847   5.157  1.1137  0.4927 -1.1427
  689MOL0     H92951   7.596   7.813   5.197 -1.6433  2.3285  0.6500
  689MOL0     H92952   7.593   7.598   5.094 -0.6547 -0.7852  1.2994
  689MOL0     H92953   7.568   7.737   4.985 -2.1043  3.1936  1.5277
  689MOL0     H92954   7.326   7.695   4.971  0.0619 -1.6701 -2.7640
  689MOL0     H92955   7.337   7.539   5.069 -0.7685 -2.9013 -2.0867
  689MOL0     H92956   7.461   7.609   4.812 -2.4615  0.4171 -1.5487
  689MOL0     H92957   7.506   7.458   4.902  1.9879  2.2934  0.9794
  689MOL0     H92958   7.275   7.368   4.859  0.9132 -1.5504 -0.0975
  689MOL0     H92959   7.224   7.531   4.820  2.0177  1.2814 -1.4748
  689MOL0     H92960   7.235   7.393   4.620 -2.4687  0.6573  2.5876
  689MOL0     H92961   7.351   7.532   4.611  2.4151 -0.5105  1.1105
  689MOL0     H92962   7.391   7.230   4.654  0.3812  0.4309  1.1810
  689MOL0     H92963   7.521   7.339   4.693 -1.7152  1.3633  3.0510
  689MOL0     H92964   7.499   7.432   4.463  2.3899 -0.6068 -0.9088
  689MOL0     H92965   7.538   7.254   4.456  0.6383  1.0663 -0.0807
  689MOL0     H92966   7.271   7.129   4.399 -0.3750 -0.2915  0.2582
  689MOL0     H92967   7.099   7.199   4.044 -3.2462 -1.0950 -0.1540
  689MOL0     H92968   7.106   7.078   4.169  0.8992 -0.6998 -1.6170
  689MOL0     H92969   6.877   7.132   4.206 -1.1267  1.0638  0.7498
  689MOL0     H92970   6.924   7.283   4.272 -0.2528  0.2217  0.7302
  689MOL0     H92971   6.862   7.215   3.966 -3.9514  1.7638 -1.1639
  689MOL0     H92972   6.907   7.371   4.032 -2.4349  1.0385 -1.4256
  689MOL0     H92973   6.648   7.218   4.102  1.1066 -0.5340  2.2970
  689MOL0     H92974   6.694   7.359   3.985  1.3239  0.2388  0.2764
  689MOL0     H92975   6.471   7.424   4.001  0.0409 -1.9936  2.1157
  689MOL0     H92976   6.348   7.619   3.955  4.3937  0.7366 -2.0537
  689MOL0     H92977   6.321   8.119   4.287  0.3704 -0.5303  0.9374
  689MOL0     H92978   6.170   8.308   4.309  1.5428 -0.4883 -0.3535
  689MOL0     H92979   5.752   8.242   4.289 -2.3200 -1.8888  1.0626
  689MOL0     H92980   5.746   8.202   4.464 -4.0384  1.2455 -0.6181
  689MOL0     H92981   5.759   8.465   4.319  1.1061  2.4276  1.6152
  689MOL0     H92982   5.618   8.410   4.407 -0.0720 -0.2258  1.7085
  689MOL0     H92983   5.884   8.511   4.506  0.3472  1.3735  1.4562
  689MOL0     H92984   5.730   8.581   4.535 -0.9833 -0.6340 -0.2669
  689MOL0     H92985   5.812   8.323   4.687  1.3479  0.5953 -0.4328
  689MOL0     H92986   5.656   8.392   4.662  0.1824  0.8068 -1.8930
  689MOL0     H92987   5.758   8.620   4.761 -1.4226  0.1443  1.8629
  689MOL0     H92988   5.882   8.525   4.822  0.2838  2.6517 -1.0062
  689MOL0     H92989   5.758   8.395   4.974  0.0229 -2.6880 -1.7040
  689MOL0     H92990   5.700   8.555   4.984 -3.3899  2.4836 -4.1541
  689MOL0     H92991   5.545   8.304   4.899 -0.0726  1.1319 -0.4582
  689MOL0     H92992   5.515   8.457   4.820  3.1656 -1.2466 -1.6642
  689MOL0     H92993   5.510   8.396   5.127  0.9845 -0.7950 -1.4731
  689MOL0     H92994   5.483   8.551   5.048  3.5794 -1.0146  2.6390
  689MOL0     H92995   5.844   8.012   4.345  1.2546 -2.1953  1.1401
  689MOL0     H92996   5.991   7.841   4.270 -3.4553  0.7506  0.6041
  689MOL0     H92997   6.485   7.776   4.338  2.9259 -3.1758  2.9200
  689MOL0     H92998   6.636   7.591   4.361  0.7931 -2.9199 -1.0765
  689MOL0     H92999   7.418   7.526   5.500  4.3505  1.5497 -1.8587
  689MOL0     H93000   7.378   7.593   5.730 -1.8274  0.0205  0.3603
  689MOL0     H93001   7.331   7.706   6.051  1.1280 -0.1257 -1.0480
  689MOL0     H93002   7.181   7.720   6.256 -1.3623  0.4849 -1.1938
  689MOL0     H93003   6.935   7.955   6.241 -2.0739  0.7466 -0.0812
  689MOL0     H93004   6.963   8.096   6.346 -0.1123 -0.0647  0.8430
  689MOL0     H93005   6.935   7.976   6.550  1.2393 -1.0444  0.3713
  689MOL0     H93006   6.945   7.819   6.461  0.0444 -0.2239 -3.1728
  689MOL0     H93007   6.721   7.874   6.539  0.4423 -0.1811 -0.8099
  689MOL0     H93008   6.722   7.868   6.369  0.0663  0.4665 -1.0147
  689MOL0     H93009   6.779   8.131   6.497 -0.1704 -3.3799  4.4156
  689MOL0     H93010   6.704   8.093   6.335 -1.5210  1.3858  0.4663
  689MOL0     H93011   6.398   8.159   6.632 -1.4733 -3.2499 -1.2692
  689MOL0     H93012   7.216   8.134   6.265 -0.7534  0.0438  1.4594
  689MOL0     H93013   7.336   8.151   5.898 -1.7738 -3.6739  0.4919
  689MOL0     H93014   7.260   8.243   6.032 -0.2970 -0.9974  2.7021
  689MOL0     H93015   7.432   8.239   6.036 -0.8908  4.4200 -5.0981
  690MOL0     O93016   5.117   1.846   2.438 -0.9180  0.5415  0.0445
  690MOL0     C93017   5.133   1.867   2.560 -0.7627 -0.8200 -0.1193
  690MOL0     O93018   5.155   1.987   2.626 -0.1920 -0.2636 -0.9495
  690MOL0     C93019   5.209   2.081   2.538  0.1113  0.2763  0.3725
  690MOL0     C93020   5.126   2.178   2.486  0.0160 -1.1137  0.1205
  690MOL0     C93021   5.184   2.259   2.387 -0.1331  0.8487 -0.0958
  690MOL0     C93022   5.322   2.252   2.353 -0.0113  0.5813  0.2243
  690MOL0     O93023   5.384   2.322   2.256  0.2539 -0.2164 -0.2552
  690MOL0     C93024   5.314   2.433   2.194  0.5177  0.2568 -0.2386
  690MOL0     C93025   5.415   2.535   2.140  0.0856 -0.4366  0.5945
  690MOL0     C93026   5.341   2.669   2.109 -0.3404 -0.3433 -0.1484
  690MOL0     C93027   5.405   2.729   1.986  0.4590  0.7125 -0.2696
  690MOL0     C93028   5.324   2.856   1.952 -0.5553  0.1868  0.8593
  690MOL0     C93029   5.180   2.830   1.892 -0.0178  1.1163 -1.7200
  690MOL0     C93030   5.096   2.960   1.880  0.5090 -0.3502  1.3575
  690MOL0     C93031   5.141   3.047   1.763 -0.4491  0.4760 -0.6253
  690MOL0     N93032   5.064   3.176   1.753  0.2181  0.1013 -0.2624
  690MOL0     C93033   5.005   3.223   1.637  0.5881 -0.5390 -0.9800
  690MOL0     C93034   4.973   3.349   1.675  0.4400  0.7746 -0.4403
  690MOL0     C93035   4.888   3.437   1.603  0.6089  0.3253 -0.4100
  690MOL0     C93036   4.730   3.416   1.632  0.0910 -0.6355  0.0106
  690MOL0     C93037   4.703   3.457   1.777 -0.2512 -0.5737  0.7606
  690MOL0     C93038   4.560   3.510   1.809  0.3965  0.7360  0.0406
  690MOL0     O93039   4.454   3.418   1.753  0.3251  0.6189  0.5955
  690MOL0     C93040   4.427   3.323   1.842 -0.0012 -0.1433  0.2561
  690MOL0     C93041   4.437   3.190   1.796 -0.8542 -0.0147  0.5834
  690MOL0     C93042   4.395   3.081   1.879  0.1149 -0.0233 -0.1723
  690MOL0     C93043   4.366   3.097   2.009 -0.1147 -0.7907  0.8488
  690MOL0     C93044   4.331   2.984   2.105  0.2214  0.0568 -0.6199
  690MOL0     O93045   4.284   3.033   2.226  0.4216  0.4107  0.6392
  690MOL0     C93046   4.236   2.954   2.320  0.5541  0.2286 -0.2023
  690MOL0     C93047   4.140   2.849   2.296  0.0613  0.4781 -1.1603
  690MOL0     C93048   4.103   2.765   2.397 -0.7691 -0.3809 -0.6820
  690MOL0     C93049   4.162   2.775   2.521 -0.0286  0.3404  0.2774
  690MOL0     O93050   4.126   2.700   2.623  0.7884 -0.2173 -0.3601
  690MOL0     C93051   4.010   2.617   2.633  0.1564 -1.2117 -0.1436
  690MOL0     C93052   3.995   2.561   2.774  0.6298  0.2672 -0.1254
  690MOL0     C93053   4.123   2.505   2.835  0.6026  0.6678  0.2494
  690MOL0     C93054   4.099   2.469   2.982  0.5459 -0.9147 -0.5952
  690MOL0     C93055   4.218   2.415   3.061 -0.3637 -0.0173 -0.3302
  690MOL0     C93056   4.324   2.515   3.076 -0.2342  0.0014 -1.0705
  690MOL0     C93057   4.427   2.474   3.178 -0.5887 -0.7316  0.5866
  690MOL0     C93058   4.502   2.338   3.149 -0.2294 -0.0736 -0.1297
  690MOL0    Cl93059   4.561   2.312   2.993  0.0019  0.3023 -0.1541
  690MOL0     C93060   4.262   2.869   2.544  0.2707  0.2687  0.0358
  690MOL0     C93061   4.304   2.956   2.444  0.4707  0.2313  0.5072
  690MOL0     O93062   4.332   2.867   2.066 -0.6269 -0.4991  0.1274
  690MOL0     C93063   4.370   3.228   2.060 -0.7948  0.2446 -0.1373
  690MOL0     C93064   4.390   3.341   1.976  0.2754 -0.1140  0.3034
  690MOL0     N93065   5.015   3.381   1.800 -0.4524  0.2810  0.6516
  690MOL0     N93066   5.083   3.280   1.849 -0.2071  0.7453  0.2225
  690MOL0     C93067   5.395   2.147   2.405 -0.2888  0.1353 -0.0992
  690MOL0     C93068   5.339   2.062   2.490 -0.2030 -0.5042 -0.6042
  690MOL0     C93069   5.155   1.749   2.643  0.2757 -1.1280  0.9600
  690MOL0     C93070   5.277   1.729   2.705  0.6351  0.3896 -0.2055
  690MOL0     C93071   5.297   1.628   2.799  0.1039  0.6938  0.0281
  690MOL0     C93072   5.206   1.538   2.813 -0.5099  0.5339 -0.0362
  690MOL0     O93073   5.244   1.439   2.901 -0.1093  0.2163  0.0769
  690MOL0     C93074   5.173   1.328   2.914  0.7131 -0.0228 -0.0541
  690MOL0     C93075   5.195   1.259   3.047  0.8941 -0.0503  0.0789
  690MOL0     C93076   5.096   1.142   3.066 -0.1175 -1.1853  0.6469
  690MOL0     C93077   5.098   1.086   3.204  0.1462 -0.0758 -0.2814
  690MOL0     C93078   5.235   1.041   3.242 -0.2147  0.4080  0.9190
  690MOL0     C93079   5.352   1.003   3.274 -0.4918 -0.2205  0.7547
  690MOL0     C93080   5.089   1.539   2.732 -0.0361  0.1595  0.7804
  690MOL0     C93081   5.054   1.650   2.653 -0.7590 -0.6113 -0.1143
  690MOL0     C93082   4.927   1.640   2.579 -0.4189 -0.0934 -0.1315
  690MOL0     H93083   5.021   2.196   2.510  0.2510  1.9665 -0.7584
  690MOL0     H93084   5.115   2.313   2.323 -0.4327  0.6157  0.0277
  690MOL0     H93085   5.263   2.399   2.103  1.7448 -0.5701 -0.6437
  690MOL0     H93086   5.244   2.489   2.257  2.6619  0.6519  1.9264
  690MOL0     H93087   5.465   2.497   2.050 -0.4948 -0.6940  0.3751
  690MOL0     H93088   5.496   2.540   2.213  0.5046 -1.5960  0.2349
  690MOL0     H93089   5.348   2.735   2.196  1.4518  0.1250 -0.6104
  690MOL0     H93090   5.237   2.646   2.084  0.0135 -0.5701 -1.4860
  690MOL0     H93091   5.511   2.755   2.000  0.2483  0.9076  1.0797
  690MOL0     H93092   5.390   2.649   1.912 -2.3742 -2.6636  3.5126
  690MOL0     H93093   5.313   2.911   2.046  1.0646 -0.4826  1.4765
  690MOL0     H93094   5.380   2.911   1.875 -1.7519  1.7220  1.0485
  690MOL0     H93095   5.182   2.791   1.790 -4.4997 -2.0735 -0.8861
  690MOL0     H93096   5.125   2.758   1.953  1.7348  0.7040 -0.5460
  690MOL0     H93097   5.094   3.022   1.970 -0.5897  1.6856  0.0094
  690MOL0     H93098   4.992   2.929   1.862  0.9157 -2.0378  1.7708
  690MOL0     H93099   5.238   3.091   1.788 -0.7430  1.0128 -0.4072
  690MOL0     H93100   5.145   2.986   1.672  0.9107  1.1153 -1.0256
  690MOL0     H93101   4.966   3.157   1.560 -0.4535  0.5868 -1.4440
  690MOL0     H93102   4.934   3.535   1.611  0.9557  0.1426 -0.1339
  690MOL0     H93103   4.896   3.409   1.497  0.6163 -1.2998 -0.0175
  690MOL0     H93104   4.676   3.488   1.569  1.5837  0.7899  0.2893
  690MOL0     H93105   4.703   3.310   1.625  1.5192 -1.0282  0.0852
  690MOL0     H93106   4.777   3.528   1.814  0.6383 -0.9439 -0.2721
  690MOL0     H93107   4.721   3.372   1.844 -1.8203  1.1920  3.5887
  690MOL0     H93108   4.563   3.598   1.743  0.8319 -0.3943 -1.5189
  690MOL0     H93109   4.536   3.542   1.910  1.3977  0.9265  0.2272
  690MOL0     H93110   4.451   3.173   1.689 -1.8088  0.3504  0.3932
  690MOL0     H93111   4.395   2.977   1.849 -2.1410  0.0361 -0.5486
  690MOL0     H93112   4.106   2.841   2.193 -0.3477  0.4953 -1.0314
  690MOL0     H93113   4.041   2.680   2.372  1.6033 -2.4646  0.1605
  690MOL0     H93114   3.920   2.672   2.601  0.0136 -0.2721  1.7589
  690MOL0     H93115   4.006   2.534   2.562 -0.5789 -1.4165  0.1230
  690MOL0     H93116   3.951   2.640   2.835  0.1214  0.8314 -1.1922
  690MOL0     H93117   3.917   2.485   2.765  0.5347  0.4073 -0.5091
  690MOL0     H93118   4.159   2.413   2.788  5.3988  0.3105  3.8222
  690MOL0     H93119   4.209   2.570   2.816 -0.7166  2.0134 -1.5129
  690MOL0     H93120   4.009   2.407   2.986 -0.1974  0.1993  1.2469
  690MOL0     H93121   4.075   2.565   3.029  0.1165 -1.2953 -0.0290
  690MOL0     H93122   4.260   2.326   3.014 -0.5819  0.2280 -0.9966
  690MOL0     H93123   4.182   2.379   3.158  0.1230 -1.7469 -0.7625
  690MOL0     H93124   4.366   2.546   2.980 -0.3258 -5.2152 -3.0852
  690MOL0     H93125   4.279   2.605   3.120  0.0363 -0.0174 -0.7511
  690MOL0     H93126   4.388   2.475   3.280  2.7072 -0.8396  1.9776
  690MOL0     H93127   4.497   2.558   3.179 -1.6410  1.2113 -8.2287
  690MOL0     H93128   4.586   2.330   3.218 -2.2056 -1.5233  2.3044
  690MOL0     H93129   4.451   2.248   3.185  0.0739  0.0633  0.6571
  690MOL0     H93130   4.305   2.881   2.643 -2.8611  1.6232  1.3761
  690MOL0     H93131   4.375   3.036   2.466  0.9676 -0.7589  2.7857
  690MOL0     H93132   4.348   3.241   2.165  0.9901 -0.4250  0.3559
  690MOL0     H93133   4.379   3.440   2.020  0.0502  0.4876 -1.0799
  690MOL0     H93134   5.493   2.119   2.369 -0.5157 -2.1035  0.8075
  690MOL0     H93135   5.396   1.979   2.531 -1.4109  1.3605  6.0718
  690MOL0     H93136   5.351   1.808   2.700  0.7632  0.5477  2.6206
  690MOL0     H93137   5.385   1.636   2.862  0.0798  3.6321 -0.1948
  690MOL0     H93138   5.182   1.257   2.831 -0.5025 -0.0771 -0.1563
  690MOL0     H93139   5.067   1.357   2.917  0.8063  1.4375 -4.3545
  690MOL0     H93140   5.164   1.328   3.126 -2.0404 -2.0641  0.8526
  690MOL0     H93141   5.301   1.233   3.041  1.7791  3.2573 -1.1841
  690MOL0     H93142   5.121   1.060   2.998 -1.2701 -1.1064  0.1036
  690MOL0     H93143   4.996   1.177   3.037 -0.4328 -2.9396 -0.5345
  690MOL0     H93144   5.074   1.152   3.288 -2.5186  1.6580 -2.2231
  690MOL0     H93145   5.028   1.001   3.208 -1.0028  0.8327 -0.6606
  690MOL0     H93146   5.451   0.997   3.317 -0.8600  4.9175  3.2086
  690MOL0     H93147   5.026   1.452   2.716 -0.6230  0.9459 -1.6430
  690MOL0     H93148   4.948   1.663   2.475 -0.7861 -0.1742 -0.2229
  690MOL0     H93149   4.891   1.537   2.586  5.5056 -2.5076  1.2032
  690MOL0     H93150   4.853   1.715   2.610 -1.9806 -2.5067  2.4748
  691MOL0     O93151   6.730   6.981   8.524  0.2637  0.9017  0.5819
  691MOL0     C93152   6.699   6.861   8.498 -1.1467  0.2105 -0.7550
  691MOL0     O93153   6.782   6.751   8.515 -0.9414  0.0181  0.5449
  691MOL0     C93154   6.926   6.770   8.512 -0.2825  0.7054 -0.4409
  691MOL0     C93155   6.992   6.845   8.603  0.2811  0.1197 -0.7559
  691MOL0     C93156   7.136   6.838   8.615  1.2230  0.0593 -0.8625
  691MOL0     C93157   7.205   6.766   8.520 -0.5526 -0.2513  0.6968
  691MOL0     O93158   7.343   6.754   8.519  0.3729 -0.1166  0.1603
  691MOL0     C93159   7.423   6.796   8.625 -0.0404  1.2965  0.1236
  691MOL0     C93160   7.566   6.745   8.603 -1.2347 -0.1184 -0.9868
  691MOL0     C93161   7.599   6.641   8.713  0.2150 -0.9333 -0.6846
  691MOL0     C93162   7.710   6.547   8.670  0.0888  0.0774  0.3012
  691MOL0     C93163   7.670   6.399   8.626 -0.8554 -0.1220 -0.6972
  691MOL0     C93164   7.554   6.396   8.522 -0.5136 -0.5156  0.3491
  691MOL0     C93165   7.602   6.451   8.385  1.0589 -0.2088 -0.4159
  691MOL0     C93166   7.491   6.428   8.283 -0.3832  0.5793  0.0888
  691MOL0     N93167   7.529   6.480   8.148  0.0498  1.1056 -0.1312
  691MOL0     C93168   7.557   6.608   8.132 -0.1505 -0.6583 -1.0155
  691MOL0     C93169   7.631   6.611   8.023 -0.5790  0.0511  0.0594
  691MOL0     C93170   7.692   6.737   7.968  0.2675  0.8641  1.1708
  691MOL0     C93171   7.844   6.739   7.992  0.3162  0.5878  0.0180
  691MOL0     C93172   7.921   6.626   7.918  0.3485  0.9709 -0.3112
  691MOL0     C93173   8.076   6.639   7.930 -0.5877  0.2479 -0.0023
  691MOL0     O93174   8.125   6.760   7.889 -0.2734  0.4249 -0.0305
  691MOL0     C93175   8.261   6.783   7.878  0.8622 -0.9355 -0.0522
  691MOL0     C93176   8.294   6.908   7.827  0.0466  1.0923 -0.2665
  691MOL0     C93177   8.426   6.943   7.814  0.0464 -0.4534 -0.0849
  691MOL0     C93178   8.526   6.847   7.841 -0.3089 -0.2678  0.0363
  691MOL0     C93179   8.674   6.884   7.838  0.2359 -1.0145  0.1193
  691MOL0     O93180   8.771   6.785   7.831 -0.6483 -0.1539  0.4024
  691MOL0     C93181   8.903   6.802   7.861  0.1238  0.2099 -0.4276
  691MOL0     C93182   8.971   6.921   7.894  0.2896 -0.1791 -0.2096
  691MOL0     C93183   9.102   6.915   7.920 -0.2997  0.3464 -0.7813
  691MOL0     C93184   9.182   6.792   7.916 -0.2287 -0.2793 -1.1183
  691MOL0     O93185   9.317   6.791   7.941 -0.2251  0.6860  0.0134
  691MOL0     C93186   9.353   6.770   8.076  0.1432 -0.5569 -0.6490
  691MOL0     C93187   9.485   6.840   8.090  0.1296  0.6122  0.4390
  691MOL0     C93188   9.451   6.993   8.095 -0.2656 -0.2397 -0.7267
  691MOL0     C93189   9.579   7.070   8.055  0.6252 -1.1846 -0.7095
  691MOL0     C93190   9.558   7.229   8.072 -0.0076 -0.3589 -0.4164
  691MOL0     C93191   9.687   7.302   8.104 -0.4856  0.1531 -0.3883
  691MOL0     C93192   9.673   7.446   8.136  0.4398 -0.0054  0.1803
  691MOL0     C93193   9.660   7.533   8.010 -0.1447 -0.7883  0.4926
  691MOL0    Cl93194   9.617   7.704   8.052  0.3790 -0.4095  0.4039
  691MOL0     C93195   9.113   6.677   7.884  1.2224 -0.0305  0.3332
  691MOL0     C93196   8.974   6.687   7.860 -0.1333 -0.6667 -1.0365
  691MOL0     O93197   8.696   7.003   7.852  0.3486  0.1412  0.0819
  691MOL0     C93198   8.491   6.719   7.879 -0.0136  0.0316 -0.0631
  691MOL0     C93199   8.360   6.684   7.898 -0.5480 -0.1315  0.5596
  691MOL0     N93200   7.644   6.480   7.983 -0.1536 -0.1209  0.4311
  691MOL0     N93201   7.590   6.402   8.062 -0.3564  0.1595 -0.5884
  691MOL0     C93202   7.140   6.680   8.429  0.1152  0.5745 -0.3609
  691MOL0     C93203   6.996   6.686   8.425  1.0854  0.3606 -0.0195
  691MOL0     C93204   6.563   6.828   8.447 -0.1958 -0.3326  0.7676
  691MOL0     C93205   6.536   6.688   8.424  0.4824 -0.4183  0.2744
  691MOL0     C93206   6.414   6.638   8.387 -0.2976  0.3187  0.1147
  691MOL0     C93207   6.302   6.730   8.380  0.3525  0.0205  0.4715
  691MOL0     O93208   6.173   6.692   8.343  0.4443  0.0181  0.8411
  691MOL0     C93209   6.126   6.557   8.360 -0.4494  0.3447  0.9532
  691MOL0     C93210   6.166   6.470   8.234 -0.4021  0.4706 -0.2349
  691MOL0     C93211   6.191   6.549   8.099  0.4163 -0.2469 -0.5453
  691MOL0     C93212   6.160   6.472   7.979 -0.1920 -1.1623 -0.9038
  691MOL0     C93213   6.236   6.346   7.958  0.3791  0.3010 -0.4593
  691MOL0     C93214   6.304   6.248   7.950 -0.1939 -1.0122 -0.4362
  691MOL0     C93215   6.323   6.864   8.411  0.2787  0.2568 -0.0062
  691MOL0     C93216   6.451   6.923   8.444  0.8640  0.2447  0.6157
  691MOL0     C93217   6.449   7.068   8.486 -0.2404  0.1206  0.4605
  691MOL0     H93218   6.930   6.909   8.665 -1.0155 -1.2536 -0.5779
  691MOL0     H93219   7.191   6.897   8.687  1.3953  1.4219 -2.0542
  691MOL0     H93220   7.425   6.906   8.633 -0.6454  1.2608  0.9136
  691MOL0     H93221   7.391   6.768   8.726  2.0092  0.1022  0.4945
  691MOL0     H93222   7.628   6.831   8.629 -2.1519  1.1317 -2.6852
  691MOL0     H93223   7.577   6.718   8.498 -3.2683 -0.3163 -1.1984
  691MOL0     H93224   7.512   6.579   8.734 -0.3950  0.4135  0.9612
  691MOL0     H93225   7.631   6.700   8.799  0.0221  0.3638 -1.4728
  691MOL0     H93226   7.759   6.607   8.593 -0.3221  1.4724  1.1074
  691MOL0     H93227   7.785   6.552   8.750  0.4022  3.4922 -0.0652
  691MOL0     H93228   7.753   6.356   8.569  0.3121 -0.6943  1.3269
  691MOL0     H93229   7.659   6.336   8.715 -0.4410  0.1900 -0.4164
  691MOL0     H93230   7.536   6.290   8.502 -1.6395  0.0909 -2.3621
  691MOL0     H93231   7.465   6.453   8.551  1.3532  1.8717  1.7963
  691MOL0     H93232   7.692   6.398   8.352  1.8524  0.8864 -0.0752
  691MOL0     H93233   7.631   6.556   8.375  0.9350  0.3640  3.5544
  691MOL0     H93234   7.468   6.322   8.276 -0.0580  0.3087  2.3701
  691MOL0     H93235   7.406   6.493   8.305 -0.1369  1.4767 -1.4436
  691MOL0     H93236   7.518   6.689   8.194  2.3960  0.3711 -0.6660
  691MOL0     H93237   7.658   6.744   7.865 -0.7296 -0.9480  1.3298
  691MOL0     H93238   7.641   6.825   8.010 -3.0332  0.2274 -1.0690
  691MOL0     H93239   7.888   6.837   7.970 -1.7625  1.1445 -2.1242
  691MOL0     H93240   7.860   6.709   8.096 -2.0983 -2.7045 -0.4090
  691MOL0     H93241   7.895   6.634   7.812  0.6097  1.7392 -0.3196
  691MOL0     H93242   7.898   6.524   7.951  1.8177  0.0912 -1.8918
  691MOL0     H93243   8.133   6.557   7.884  1.9239  0.0704  3.0571
  691MOL0     H93244   8.088   6.643   8.039 -4.6689  1.7064  0.5798
  691MOL0     H93245   8.218   6.983   7.808 -0.8641  0.0086 -1.0874
  691MOL0     H93246   8.452   7.046   7.790  0.8339 -0.4165  0.8444
  691MOL0     H93247   8.911   7.012   7.897 -0.6302 -0.7309 -1.2972
  691MOL0     H93248   9.161   7.001   7.949 -0.4572  1.0726 -2.4937
  691MOL0     H93249   9.274   6.820   8.133  2.2842  0.3983  1.6865
  691MOL0     H93250   9.362   6.663   8.096  0.6730 -0.6218 -1.2084
  691MOL0     H93251   9.540   6.805   8.178 -3.0780 -0.3032  2.2307
  691MOL0     H93252   9.551   6.820   8.005 -0.2314  1.5218 -0.0717
  691MOL0     H93253   9.373   7.033   8.030  0.1955  2.2428  0.1610
  691MOL0     H93254   9.433   7.014   8.201  0.5533  2.2923 -1.0399
  691MOL0     H93255   9.597   7.046   7.950 -2.4403  1.5907 -2.0438
  691MOL0     H93256   9.656   7.034   8.123  0.7009  0.0667 -0.0930
  691MOL0     H93257   9.499   7.240   8.164  0.1398  0.7523 -0.4458
  691MOL0     H93258   9.509   7.273   7.985 -0.5913  0.3024  0.2297
  691MOL0     H93259   9.742   7.251   8.184  3.3098 -0.2893 -3.0168
  691MOL0     H93260   9.754   7.302   8.017  0.3117 -1.5145  0.1739
  691MOL0     H93261   9.763   7.472   8.193  1.2341  0.2834 -1.1785
  691MOL0     H93262   9.584   7.471   8.195  1.1169 -1.5638  1.9824
  691MOL0     H93263   9.743   7.527   7.939  1.3811 -0.0284  2.1198
  691MOL0     H93264   9.576   7.487   7.957 -1.5793  0.3297  1.6817
  691MOL0     H93265   9.162   6.580   7.885  0.1491 -0.5809  0.5840
  691MOL0     H93266   8.918   6.598   7.834 -1.1735 -1.1576  2.3028
  691MOL0     H93267   8.569   6.646   7.899  1.3235  0.9769 -1.6109
  691MOL0     H93268   8.346   6.579   7.921  2.3096  0.0096  3.7928
  691MOL0     H93269   7.194   6.623   8.354 -2.4176 -2.3281 -0.1854
  691MOL0     H93270   6.942   6.637   8.344 -2.3210  0.0489  2.2331
  691MOL0     H93271   6.619   6.618   8.434  1.4859  0.9579  2.0355
  691MOL0     H93272   6.411   6.530   8.377 -0.6863 -0.0026  2.7403
  691MOL0     H93273   6.017   6.566   8.357 -0.4461  0.5800 -2.4372
  691MOL0     H93274   6.164   6.517   8.454 -0.9753 -1.4335  0.4515
  691MOL0     H93275   6.085   6.397   8.224  1.2478 -1.4257 -0.3679
  691MOL0     H93276   6.254   6.409   8.257 -1.8999 -1.2103  1.3725
  691MOL0     H93277   6.295   6.585   8.100  0.0907  0.7282 -1.0865
  691MOL0     H93278   6.121   6.633   8.101 -2.7645 -2.6586 -1.7941
  691MOL0     H93279   6.057   6.435   7.985  0.3852 -2.7204 -0.2488
  691MOL0     H93280   6.175   6.550   7.903  3.8057  2.7367  3.2321
  691MOL0     H93281   6.350   6.152   7.940 -1.4514 -1.7249  0.3623
  691MOL0     H93282   6.239   6.929   8.390  0.3725 -0.0677 -1.4842
  691MOL0     H93283   6.414   7.128   8.401 -1.7696 -2.2688 -0.6981
  691MOL0     H93284   6.384   7.079   8.574  0.4421 -2.1063  1.3063
  691MOL0     H93285   6.549   7.103   8.513 -0.5829  0.5201  1.2584
  692MOL0     O93286   2.239   7.389   9.365 -0.1785 -0.6031 -0.1543
  692MOL0     C93287   2.357   7.370   9.404 -0.5702 -0.2397 -0.3400
  692MOL0     O93288   2.392   7.340   9.535 -0.2694  0.4895 -0.8511
  692MOL0     C93289   2.320   7.404   9.631  0.1060 -0.5970 -0.0576
  692MOL0     C93290   2.199   7.345   9.673 -0.0708  0.4381  0.5555
  692MOL0     C93291   2.126   7.401   9.775 -0.5791  0.3996  0.1830
  692MOL0     C93292   2.165   7.523   9.833 -0.0757 -0.4002  0.3061
  692MOL0     O93293   2.097   7.574   9.943 -0.5812  0.2034  0.1195
  692MOL0     C93294   2.018   7.689   9.900 -0.2311  0.7359  1.1156
  692MOL0     C93295   1.869   7.643   9.880 -0.6880  0.0139 -0.3039
  692MOL0     C93296   1.797   7.587  10.007 -0.0251  0.0466 -0.4050
  692MOL0     C93297   1.784   7.442  10.005  0.7212  0.4176 -0.5564
  692MOL0     C93298   1.674   7.395  10.091  0.1527 -0.2601  0.8290
  692MOL0     C93299   1.677   7.241  10.092 -0.0904 -0.7146 -1.1497
  692MOL0     C93300   1.573   7.171  10.185 -1.1714 -0.3921  0.4335
  692MOL0     C93301   1.593   7.021  10.199 -0.3423  0.6878  0.0188
  692MOL0     N93302   1.556   6.931  10.081  0.0274  0.4335  0.3779
  692MOL0     C93303   1.430   6.901  10.048  0.4863 -0.0617 -1.0518
  692MOL0     C93304   1.435   6.822   9.935 -0.0022 -0.0474 -0.1262
  692MOL0     C93305   1.319   6.762   9.864  1.2808 -0.4498 -0.2205
  692MOL0     C93306   1.295   6.831   9.726  0.7539  0.6167 -0.2790
  692MOL0     C93307   1.233   6.969   9.737  0.1585  0.0418  0.6587
  692MOL0     C93308   1.221   7.052   9.600 -0.2837 -0.0735 -1.5746
  692MOL0     O93309   1.336   7.070   9.517 -0.1366  0.1789 -0.6235
  692MOL0     C93310   1.417   7.175   9.544  0.1492  0.0235  0.0447
  692MOL0     C93311   1.416   7.252   9.661 -0.2612 -0.3720  0.4700
  692MOL0     C93312   1.503   7.352   9.680 -0.9364 -0.9008 -0.3664
  692MOL0     C93313   1.586   7.390   9.572  0.1554 -0.8992  0.3454
  692MOL0     C93314   1.668   7.514   9.564  0.4278  0.5495  0.3641
  692MOL0     O93315   1.788   7.505   9.512  1.5011  0.0689  1.0282
  692MOL0     C93316   1.871   7.620   9.507 -0.3490 -0.1341  0.7489
  692MOL0     C93317   1.827   7.758   9.494 -0.2436  1.1897 -0.1104
  692MOL0     C93318   1.913   7.868   9.500 -0.9375 -0.5598 -0.0600
  692MOL0     C93319   2.052   7.851   9.510  1.0818 -0.0949 -0.2223
  692MOL0     O93320   2.136   7.955   9.527  0.0813 -0.4648  0.1612
  692MOL0     C93321   2.272   7.937   9.482 -0.3962 -0.7581  0.4878
  692MOL0     C93322   2.332   8.079   9.501  0.3187 -0.5676  0.0118
  692MOL0     C93323   2.260   8.186   9.423  0.5938 -0.3173  0.6206
  692MOL0     C93324   2.290   8.319   9.476  0.8205 -0.5580 -0.1029
  692MOL0     C93325   2.174   8.418   9.453  0.0684 -0.3642 -0.3394
  692MOL0     C93326   2.047   8.392   9.541  0.2181  0.4020  0.1961
  692MOL0     C93327   1.946   8.511   9.566 -0.5535 -0.0328  0.2162
  692MOL0     C93328   1.969   8.574   9.709  0.0458 -0.4414 -0.0085
  692MOL0    Cl93329   1.887   8.474   9.824 -0.1215  0.0188  0.0728
  692MOL0     C93330   2.095   7.709   9.499 -0.2528 -0.4252 -0.4621
  692MOL0     C93331   2.008   7.598   9.489  0.4871 -0.0770  0.4876
  692MOL0     O93332   1.613   7.610   9.620 -0.2223  0.1155 -0.2184
  692MOL0     C93333   1.590   7.319   9.451  0.4192  0.5114  0.2123
  692MOL0     C93334   1.514   7.198   9.442  0.1127 -0.1932 -0.1124
  692MOL0     N93335   1.571   6.794   9.915 -0.1475  0.1678  1.1088
  692MOL0     N93336   1.638   6.872   9.990  0.6725  0.6286 -0.1765
  692MOL0     C93337   2.280   7.582   9.791 -0.8015  0.0723  1.1667
  692MOL0     C93338   2.354   7.527   9.683  0.7913 -0.0952 -0.8420
  692MOL0     C93339   2.475   7.366   9.302  0.5743 -0.3248 -0.3191
  692MOL0     C93340   2.590   7.291   9.336 -0.3379  0.1216 -0.0509
  692MOL0     C93341   2.693   7.277   9.240 -0.4705 -0.0814 -0.3631
  692MOL0     C93342   2.685   7.334   9.111  0.4109 -0.0071  0.0003
  692MOL0     O93343   2.785   7.319   9.020 -0.3071 -0.7574 -0.4563
  692MOL0     C93344   2.886   7.431   9.028 -0.1898  0.2525 -0.4667
  692MOL0     C93345   2.965   7.426   9.163  0.2638 -0.8596  0.0754
  692MOL0     C93346   3.062   7.540   9.189  0.5814 -0.1190  0.2853
  692MOL0     C93347   3.168   7.579   9.068  0.2116 -0.5661 -0.0214
  692MOL0     C93348   3.292   7.641   9.112  0.1480 -0.8858  0.4164
  692MOL0     C93349   3.402   7.695   9.137 -0.5012  0.4956 -0.6780
  692MOL0     C93350   2.573   7.406   9.081  0.9126 -0.1486 -0.2628
  692MOL0     C93351   2.467   7.437   9.181 -0.8598  0.5689  0.0525
  692MOL0     C93352   2.371   7.549   9.144 -0.1091 -0.8505  0.7568
  692MOL0     H93353   2.160   7.260   9.618  1.1029  0.2262  0.0226
  692MOL0     H93354   2.050   7.335   9.814  1.0857 -0.6035  1.8724
  692MOL0     H93355   2.026   7.766   9.978 -1.7635  0.3694  1.6557
  692MOL0     H93356   2.039   7.737   9.804  0.5829  2.0534  1.9212
  692MOL0     H93357   1.853   7.579   9.793  1.4195 -0.2330 -0.5475
  692MOL0     H93358   1.819   7.732   9.841  3.5191  1.3821 -3.3423
  692MOL0     H93359   1.695   7.625   9.997 -0.4612 -0.8317  0.5561
  692MOL0     H93360   1.847   7.622  10.098 -0.0324  2.7826 -1.3536
  692MOL0     H93361   1.769   7.405   9.903  1.4418  0.0913 -0.5495
  692MOL0     H93362   1.881   7.412  10.046  2.0359  3.6456 -0.9794
  692MOL0     H93363   1.702   7.414  10.195  4.9596 -0.7367 -0.1529
  692MOL0     H93364   1.572   7.429  10.070  0.3509 -0.2426 -0.1682
  692MOL0     H93365   1.646   7.193   9.999 -2.7282  2.0652 -1.8846
  692MOL0     H93366   1.775   7.209  10.128 -1.8865 -1.7384  3.6428
  692MOL0     H93367   1.476   7.189  10.138 -1.5804 -4.8629 -0.8991
  692MOL0     H93368   1.580   7.214  10.286 -0.9583  0.4023  0.0874
  692MOL0     H93369   1.698   7.002  10.224 -0.7567 -2.7457 -0.4195
  692MOL0     H93370   1.524   6.979  10.273  2.1753 -0.0133  2.1565
  692MOL0     H93371   1.341   6.929  10.103 -0.7832 -2.3091 -1.8214
  692MOL0     H93372   1.344   6.657   9.846  0.7397 -0.9973  1.8934
  692MOL0     H93373   1.232   6.769   9.930  2.0194 -0.5699  0.7976
  692MOL0     H93374   1.389   6.843   9.672  0.2027  0.3405 -1.3114
  692MOL0     H93375   1.230   6.763   9.670  1.3883 -0.1269 -0.1247
  692MOL0     H93376   1.300   7.034   9.794 -1.3944  1.3071  1.1302
  692MOL0     H93377   1.139   6.950   9.789 -0.5927  1.0393 -0.2641
  692MOL0     H93378   1.168   7.147   9.612  3.6391  2.4950 -2.4994
  692MOL0     H93379   1.156   6.980   9.550  0.6010 -3.4112  1.5787
  692MOL0     H93380   1.344   7.228   9.737  2.9453 -2.8897  3.0079
  692MOL0     H93381   1.504   7.406   9.774  0.6665 -0.1872 -0.7411
  692MOL0     H93382   1.721   7.778   9.496 -0.4540  0.2884 -1.2468
  692MOL0     H93383   1.886   7.973   9.494  0.8967  0.0131  0.7324
  692MOL0     H93384   2.320   7.870   9.553  1.7144 -0.8293 -0.9098
  692MOL0     H93385   2.279   7.902   9.378 -1.3043 -2.5672  1.0025
  692MOL0     H93386   2.319   8.106   9.606  0.8069  0.0118 -0.0705
  692MOL0     H93387   2.436   8.074   9.467  0.5171  2.2035  0.0007
  692MOL0     H93388   2.296   8.176   9.320  0.3064  4.9517 -0.2898
  692MOL0     H93389   2.153   8.165   9.428  1.0731 -2.8240  1.9503
  692MOL0     H93390   2.366   8.360   9.408 -1.9948  1.5540 -2.1898
  692MOL0     H93391   2.332   8.307   9.576  1.3648 -1.1458 -0.3866
  692MOL0     H93392   2.143   8.417   9.348 -0.1040  2.4986 -0.4113
  692MOL0     H93393   2.212   8.519   9.472  2.7507 -1.0262 -1.7583
  692MOL0     H93394   1.987   8.313   9.495  0.4899  1.0325 -1.2791
  692MOL0     H93395   2.087   8.364   9.639  4.7725 -0.4138 -1.6856
  692MOL0     H93396   1.839   8.491   9.555 -1.5009  2.6752  3.1084
  692MOL0     H93397   1.972   8.586   9.490 -0.0235  0.3843  0.7990
  692MOL0     H93398   2.073   8.575   9.741 -0.5258 -0.8651  2.0094
  692MOL0     H93399   1.931   8.676   9.718 -0.8273 -0.8288  0.9234
  692MOL0     H93400   2.201   7.694   9.511  0.4411  3.3305 -0.6148
  692MOL0     H93401   2.052   7.500   9.476 -0.9547 -0.8114  0.9012
  692MOL0     H93402   1.644   7.348   9.362 -2.0989 -3.3874 -2.9715
  692MOL0     H93403   1.507   7.129   9.359  2.9020 -1.1644  0.3422
  692MOL0     H93404   2.306   7.678   9.836 -1.5862 -0.3935  2.6713
  692MOL0     H93405   2.434   7.591   9.646 -0.4629  1.4744 -0.9881
  692MOL0     H93406   2.605   7.248   9.434 -1.1231  0.9161  0.4343
  692MOL0     H93407   2.773   7.212   9.274  0.5551  1.4897  0.3496
  692MOL0     H93408   2.833   7.526   9.019 -1.9403 -0.8864 -4.4046
  692MOL0     H93409   2.947   7.414   8.939  0.1453 -2.6602  0.2001
  692MOL0     H93410   3.021   7.333   9.151  0.7216 -0.3701 -1.8414
  692MOL0     H93411   2.903   7.439   9.253  2.4357  0.8649  1.4298
  692MOL0     H93412   3.109   7.499   9.279 -1.7992  0.7042  2.0209
  692MOL0     H93413   3.009   7.631   9.219  1.3719 -0.4450  2.9204
  692MOL0     H93414   3.192   7.482   9.022  0.5409 -0.3504 -0.3095
  692MOL0     H93415   3.125   7.647   8.994  0.5749 -0.0189  0.2680
  692MOL0     H93416   3.490   7.737   9.182  0.5577 -2.2122 -0.0139
  692MOL0     H93417   2.566   7.464   8.989 -0.6533  3.3357  1.8445
  692MOL0     H93418   2.359   7.619   9.227  1.0296  0.1945  0.0719
  692MOL0     H93419   2.396   7.594   9.047  2.9628 -3.9423 -0.1222
  692MOL0     H93420   2.273   7.507   9.120 -2.0720  2.2224  2.7053
  693MOL0     O93421   2.323   3.510   6.448 -0.3526  0.7942  0.4740
  693MOL0     C93422   2.372   3.607   6.387  1.1033  0.4915 -1.4582
  693MOL0     O93423   2.501   3.617   6.345 -0.2793  0.5344 -0.2215
  693MOL0     C93424   2.601   3.522   6.353 -0.2158  0.6562 -0.1198
  693MOL0     C93425   2.731   3.572   6.360 -0.1151 -0.3371 -0.9960
  693MOL0     C93426   2.830   3.490   6.394 -0.9992 -0.2786 -0.1840
  693MOL0     C93427   2.822   3.349   6.414 -0.4569 -1.3997  0.3860
  693MOL0     O93428   2.934   3.289   6.460 -0.3140 -0.3032  0.4920
  693MOL0     C93429   2.967   3.158   6.410 -0.9224 -0.8958 -0.0380
  693MOL0     C93430   3.070   3.094   6.505  0.0496  0.7869 -0.3031
  693MOL0     C93431   3.200   3.178   6.536 -0.5748  0.2982 -0.2812
  693MOL0     C93432   3.285   3.131   6.653 -0.5820  0.1861 -1.0079
  693MOL0     C93433   3.434   3.183   6.668  0.4081 -0.1224  0.8523
  693MOL0     C93434   3.521   3.123   6.558 -0.4132  0.7049 -0.2815
  693MOL0     C93435   3.637   3.205   6.519 -0.1615  0.7551  0.0475
  693MOL0     C93436   3.752   3.186   6.617 -0.5875 -0.4484 -0.1703
  693MOL0     N93437   3.838   3.065   6.597  0.2193 -0.0963 -0.9234
  693MOL0     C93438   3.956   3.050   6.527 -0.4256 -0.4481 -1.1091
  693MOL0     C93439   3.992   2.917   6.539 -0.2077 -0.6974  0.2288
  693MOL0     C93440   4.118   2.860   6.478 -0.8675  0.3645 -0.2292
  693MOL0     C93441   4.172   2.743   6.557 -0.7433  1.4519  0.6719
  693MOL0     C93442   4.306   2.698   6.494  0.2119  0.1398 -0.0321
  693MOL0     C93443   4.396   2.632   6.600  0.1154  0.2065  0.2486
  693MOL0     O93444   4.330   2.512   6.648  0.4362 -0.0804  0.1946
  693MOL0     C93445   4.349   2.395   6.587 -0.0677 -0.2961  0.2412
  693MOL0     C93446   4.418   2.374   6.463  0.4245  0.7922 -0.0129
  693MOL0     C93447   4.434   2.245   6.409  0.1300  0.0138  1.3316
  693MOL0     C93448   4.395   2.128   6.478 -0.0861  0.7122 -0.6585
  693MOL0     C93449   4.415   1.984   6.429  0.2760 -0.7237  0.3670
  693MOL0     O93450   4.348   1.887   6.488  0.1827 -0.0602  0.3438
  693MOL0     C93451   4.360   1.770   6.417 -0.1956  0.2077 -0.1037
  693MOL0     C93452   4.294   1.751   6.296 -1.2467 -0.3708 -0.0528
  693MOL0     C93453   4.306   1.627   6.227 -0.4274 -0.5426  0.8495
  693MOL0     C93454   4.379   1.523   6.278 -0.4367  0.2658 -0.2338
  693MOL0     O93455   4.400   1.415   6.190 -0.0194 -0.0971 -0.1005
  693MOL0     C93456   4.413   1.298   6.259 -0.1423  0.6860 -0.0693
  693MOL0     C93457   4.378   1.181   6.167 -0.2610  0.4151 -0.0010
  693MOL0     C93458   4.366   1.047   6.242 -0.7509  0.5493 -0.5409
  693MOL0     C93459   4.348   0.926   6.147 -0.4911 -0.0288 -0.9157
  693MOL0     C93460   4.369   0.796   6.233  0.8626 -0.3436 -0.4890
  693MOL0     C93461   4.299   0.674   6.171  0.2847 -0.4567  0.5225
  693MOL0     C93462   4.313   0.542   6.250  0.1467 -0.9350  1.0249
  693MOL0     C93463   4.209   0.439   6.200 -0.2924  0.3244 -0.4247
  693MOL0    Cl93464   4.232   0.270   6.279  0.5155  0.2621 -0.2235
  693MOL0     C93465   4.460   1.545   6.394 -0.1178 -1.1508  0.5896
  693MOL0     C93466   4.449   1.670   6.466  0.0653  0.2067  0.2482
  693MOL0     O93467   4.503   1.970   6.341  0.1906  0.1236  1.0076
  693MOL0     C93468   4.319   2.149   6.599 -1.0414  0.2270 -1.1291
  693MOL0     C93469   4.300   2.281   6.648  0.5764  0.7704  0.5637
  693MOL0     N93470   3.889   2.854   6.607 -0.3082  0.1211  0.2843
  693MOL0     N93471   3.802   2.942   6.640 -0.4939  0.3356 -0.4010
  693MOL0     C93472   2.689   3.289   6.411 -1.0732 -1.2289 -0.2091
  693MOL0     C93473   2.583   3.375   6.376  0.5043 -0.3985  0.0507
  693MOL0     C93474   2.277   3.719   6.354 -0.3719  0.4211  0.4138
  693MOL0     C93475   2.338   3.834   6.300 -0.1292 -0.5158  0.2374
  693MOL0     C93476   2.260   3.949   6.272 -0.0738  0.0681  0.5319
  693MOL0     C93477   2.119   3.948   6.289  0.3973 -0.2823 -0.3744
  693MOL0     O93478   2.041   4.048   6.262  0.2252  0.7952 -0.0191
  693MOL0     C93479   2.086   4.161   6.198 -0.0897  0.4067  0.0669
  693MOL0     C93480   1.978   4.270   6.207  0.4077 -0.7810 -0.2133
  693MOL0     C93481   1.959   4.324   6.347  0.0128 -0.1606  0.3766
  693MOL0     C93482   1.819   4.388   6.370 -0.7313 -0.9106  0.2391
  693MOL0     C93483   1.800   4.380   6.515  0.2168  0.3649  0.3076
  693MOL0     C93484   1.758   4.384   6.635 -0.4763 -0.3548 -0.2866
  693MOL0     C93485   2.056   3.837   6.345 -0.7001  0.2681  0.2300
  693MOL0     C93486   2.139   3.726   6.379  0.2297 -0.0945  0.1189
  693MOL0     C93487   2.053   3.616   6.439 -1.0797  0.1695 -0.7247
  693MOL0     H93488   2.747   3.676   6.335  0.5580 -1.0371 -3.7297
  693MOL0     H93489   2.928   3.534   6.380 -0.0329 -1.8994  1.0430
  693MOL0     H93490   2.880   3.098   6.383 -0.3407 -0.8579 -2.1549
  693MOL0     H93491   3.017   3.180   6.315  1.6549 -0.7694  1.2531
  693MOL0     H93492   3.103   3.002   6.455 -0.8981  1.2274 -1.7947
  693MOL0     H93493   3.013   3.082   6.598  0.7780  2.0091  0.3342
  693MOL0     H93494   3.171   3.284   6.540 -0.4050  0.5119 -2.8551
  693MOL0     H93495   3.262   3.173   6.446  0.1227  0.1729  0.2093
  693MOL0     H93496   3.231   3.151   6.746  2.8948  0.6088  1.0876
  693MOL0     H93497   3.299   3.022   6.647  2.6336  0.3345  1.2273
  693MOL0     H93498   3.432   3.291   6.655  1.0863 -0.0462  1.3818
  693MOL0     H93499   3.475   3.149   6.763  3.2521  1.3920  0.2732
  693MOL0     H93500   3.567   3.028   6.587  1.7643  1.5372 -0.8688
  693MOL0     H93501   3.470   3.100   6.463 -1.4680  1.5093  0.0605
  693MOL0     H93502   3.611   3.311   6.506  3.2291  2.0623  2.4120
  693MOL0     H93503   3.677   3.176   6.421 -1.4638 -0.3362 -0.1823
  693MOL0     H93504   3.822   3.270   6.607 -0.2985 -0.2157  2.8423
  693MOL0     H93505   3.719   3.195   6.721 -2.9700 -0.9037 -0.8259
  693MOL0     H93506   4.022   3.122   6.479 -0.8085  2.5678  2.4203
  693MOL0     H93507   4.107   2.830   6.373  0.5643 -0.1312 -0.2655
  693MOL0     H93508   4.183   2.948   6.475 -2.1775  1.6299  3.3161
  693MOL0     H93509   4.179   2.771   6.662 -0.6704  2.1836  0.4831
  693MOL0     H93510   4.103   2.659   6.565  1.0905 -0.0253  1.6511
  693MOL0     H93511   4.355   2.790   6.460  2.4046 -0.5343  1.1500
  693MOL0     H93512   4.294   2.629   6.410  1.5812  1.1560 -1.1101
  693MOL0     H93513   4.405   2.692   6.691  0.0275  3.1359 -1.5625
  693MOL0     H93514   4.499   2.604   6.576 -0.1242  0.1325 -0.7347
  693MOL0     H93515   4.458   2.456   6.405  3.6068 -0.8619 -0.3898
  693MOL0     H93516   4.472   2.247   6.307  0.1795  1.4126  1.3597
  693MOL0     H93517   4.232   1.827   6.249 -0.9661 -1.2233 -1.9029
  693MOL0     H93518   4.256   1.610   6.132 -0.7886  1.5268  0.6351
  693MOL0     H93519   4.521   1.286   6.272 -0.1872  1.5736  1.3200
  693MOL0     H93520   4.355   1.288   6.351  1.1839 -2.0794  0.5861
  693MOL0     H93521   4.273   1.200   6.140 -0.8781 -2.3358  0.2074
  693MOL0     H93522   4.447   1.175   6.082  1.2263 -2.6894  1.2878
  693MOL0     H93523   4.464   1.033   6.289 -0.7411  2.5557  0.1020
  693MOL0     H93524   4.284   1.050   6.315 -2.0929  2.3474 -2.0623
  693MOL0     H93525   4.434   0.933   6.080  2.0148 -2.9341  1.6904
  693MOL0     H93526   4.247   0.927   6.104 -0.6696 -3.5707 -0.8426
  693MOL0     H93527   4.344   0.808   6.339 -0.2387 -1.6748 -0.5748
  693MOL0     H93528   4.478   0.784   6.232  1.2190  2.1560 -1.8621
  693MOL0     H93529   4.194   0.689   6.146  0.3043 -1.8743 -0.5818
  693MOL0     H93530   4.353   0.658   6.077  0.1867  0.0155  0.3845
  693MOL0     H93531   4.298   0.573   6.354  0.3457  4.3678 -0.2801
  693MOL0     H93532   4.415   0.502   6.241  0.0168 -0.9486 -0.6066
  693MOL0     H93533   4.109   0.472   6.230 -0.4207  0.2921 -0.8062
  693MOL0     H93534   4.208   0.438   6.090  0.5463 -0.2193 -0.4358
  693MOL0     H93535   4.529   1.467   6.424  2.7926  1.5624  1.4222
  693MOL0     H93536   4.497   1.672   6.563 -0.4011 -1.2546  0.5294
  693MOL0     H93537   4.268   2.071   6.653  1.5051 -0.7028  0.1151
  693MOL0     H93538   4.248   2.300   6.741  0.2324  3.2627 -0.0656
  693MOL0     H93539   2.677   3.183   6.434  0.5730 -1.5998 -0.8930
  693MOL0     H93540   2.485   3.330   6.385  0.0241  0.6659  0.3062
  693MOL0     H93541   2.444   3.851   6.280 -0.6764  2.9710 -0.3791
  693MOL0     H93542   2.309   4.041   6.242  0.0851  0.0433  0.7155
  693MOL0     H93543   2.105   4.139   6.093  0.4748  0.5090  0.1482
  693MOL0     H93544   2.182   4.197   6.234  0.0528  0.0323  0.0558
  693MOL0     H93545   1.893   4.207   6.181 -1.0221  1.5152 -1.4875
  693MOL0     H93546   1.987   4.357   6.141  0.2763 -0.0414  0.7200
  693MOL0     H93547   2.044   4.386   6.376  1.2043 -2.2211  1.5260
  693MOL0     H93548   1.961   4.237   6.414  0.7074  0.5030  1.2368
  693MOL0     H93549   1.813   4.492   6.337 -2.7329 -1.1863 -0.3668
  693MOL0     H93550   1.730   4.346   6.323 -3.9583 -1.0270  5.6594
  693MOL0     H93551   1.737   4.369   6.739  0.5616 -1.6151 -0.2212
  693MOL0     H93552   1.948   3.840   6.361 -0.8051 -2.6432  0.6586
  693MOL0     H93553   1.953   3.641   6.475 -1.6874  0.2446 -2.3714
  693MOL0     H93554   2.058   3.540   6.360  0.6230  0.9015 -1.3886
  693MOL0     H93555   2.101   3.579   6.530  0.1457  0.7966 -1.0855
  694MOL0     O93556   6.442   0.988   3.515 -0.2643  1.4555  0.0038
  694MOL0     C93557   6.393   0.927   3.420  0.7760 -0.3271 -0.1199
  694MOL0     O93558   6.300   0.967   3.345 -0.1278 -0.9836 -0.4192
  694MOL0     C93559   6.229   1.076   3.389  0.7389  0.8535  0.1898
  694MOL0     C93560   6.152   1.097   3.505 -0.9928  0.6934  0.4934
  694MOL0     C93561   6.059   1.206   3.509  0.1972  0.4463  0.3036
  694MOL0     C93562   6.077   1.316   3.416  0.0336  0.3844  0.2213
  694MOL0     O93563   5.997   1.424   3.437  0.1589 -0.8739 -0.1611
  694MOL0     C93564   6.035   1.550   3.387  0.1191 -1.0036  0.6661
  694MOL0     C93565   5.932   1.643   3.458  0.2915 -0.3090  0.5510
  694MOL0     C93566   5.957   1.795   3.449 -0.1108  0.9913  0.2488
  694MOL0     C93567   6.102   1.848   3.465  0.4125  0.3441 -0.4472
  694MOL0     C93568   6.109   1.992   3.517 -0.1616  0.0142 -0.5882
  694MOL0     C93569   6.250   2.048   3.552 -0.0250  0.8823  0.2109
  694MOL0     C93570   6.302   2.001   3.688 -0.4275  0.0292 -0.7619
  694MOL0     C93571   6.449   2.038   3.708  0.2209 -0.3013 -0.4537
  694MOL0     N93572   6.504   2.022   3.842  0.7402  0.0828 -0.3467
  694MOL0     C93573   6.563   1.905   3.889 -0.1013 -0.7265  0.4939
  694MOL0     C93574   6.615   1.935   4.007  0.4286 -0.2770 -0.1301
  694MOL0     C93575   6.698   1.836   4.086  0.5349 -0.1140  0.3284
  694MOL0     C93576   6.608   1.736   4.169 -0.6403 -0.5812 -0.2591
  694MOL0     C93577   6.686   1.653   4.274 -0.5882 -0.2510 -0.4521
  694MOL0     C93578   6.813   1.591   4.211  0.2958 -0.7240 -0.4029
  694MOL0     O93579   6.788   1.490   4.114 -0.4152  0.7433  0.1876
  694MOL0     C93580   6.730   1.383   4.157  0.2227  0.0560  0.2733
  694MOL0     C93581   6.598   1.377   4.127 -0.0110 -0.6027  0.7480
  694MOL0     C93582   6.529   1.263   4.170 -0.2295  0.7339  0.6532
  694MOL0     C93583   6.581   1.155   4.245 -0.5285 -0.8139 -0.0536
  694MOL0     C93584   6.507   1.043   4.289  0.2683  0.2621  0.8711
  694MOL0     O93585   6.570   0.952   4.361  0.6683  0.3823 -0.3877
  694MOL0     C93586   6.504   0.831   4.383 -0.1937 -0.4082  0.3484
  694MOL0     C93587   6.470   0.781   4.510 -0.1169 -0.0634 -0.3189
  694MOL0     C93588   6.410   0.658   4.538 -0.9552 -0.4949 -0.0959
  694MOL0     C93589   6.377   0.581   4.431  0.1091  1.0282 -0.1534
  694MOL0     O93590   6.317   0.462   4.445 -0.2959 -0.3964 -0.1878
  694MOL0     C93591   6.231   0.450   4.565  0.4004  0.8510 -0.1720
  694MOL0     C93592   6.114   0.358   4.567  0.7436 -0.1580  0.7997
  694MOL0     C93593   6.156   0.222   4.523 -0.5342 -1.2347 -0.2402
  694MOL0     C93594   6.044   0.140   4.457 -0.2723  0.4702  0.0428
  694MOL0     C93595   6.104   0.000   4.417  0.3577 -0.1017 -0.0107
  694MOL0     C93596   6.166  -0.086   4.533  0.2542  0.3035 -0.9088
  694MOL0     C93597   6.189  -0.228   4.474 -0.1991 -1.0843 -0.3111
  694MOL0     C93598   6.205  -0.324   4.588  0.4795  0.4754 -0.0524
  694MOL0    Cl93599   6.250  -0.491   4.539 -0.7832 -0.0825  0.3049
  694MOL0     C93600   6.423   0.610   4.295  0.5545 -0.6214 -0.3483
  694MOL0     C93601   6.486   0.738   4.276  0.6920 -0.4049 -0.5082
  694MOL0     O93602   6.392   1.033   4.243  0.2061  0.7905  0.0272
  694MOL0     C93603   6.722   1.169   4.272 -0.3478 -0.6531  0.0240
  694MOL0     C93604   6.791   1.285   4.232  0.3360 -1.0003 -0.8963
  694MOL0     N93605   6.591   2.066   4.038 -0.0110 -0.5236  0.4435
  694MOL0     N93606   6.518   2.122   3.941 -0.2927 -0.8482 -0.1290
  694MOL0     C93607   6.163   1.299   3.316 -0.1359  0.3169  0.0246
  694MOL0     C93608   6.241   1.179   3.302  1.0831  0.7322 -0.8630
  694MOL0     C93609   6.431   0.785   3.387 -0.4151  0.0301  0.2687
  694MOL0     C93610   6.336   0.694   3.332 -0.5630  0.4651  1.0213
  694MOL0     C93611   6.368   0.560   3.310  0.6234  0.9489  0.2921
  694MOL0     C93612   6.500   0.519   3.327  0.7881 -0.1483 -0.6024
  694MOL0     O93613   6.528   0.384   3.306 -0.1491 -0.3150 -0.7694
  694MOL0     C93614   6.639   0.358   3.216 -0.0385 -0.1155  0.5510
  694MOL0     C93615   6.617   0.384   3.067  0.2200  0.0714 -0.6540
  694MOL0     C93616   6.518   0.290   2.994  0.1397  0.0799  0.4126
  694MOL0     C93617   6.375   0.316   3.014  0.5646 -0.2610 -0.7159
  694MOL0     C93618   6.289   0.237   2.920  1.6478  0.7780  0.3128
  694MOL0     C93619   6.222   0.174   2.837  0.2192  0.6129  0.1028
  694MOL0     C93620   6.596   0.606   3.367 -0.3505 -0.3814 -1.0242
  694MOL0     C93621   6.564   0.740   3.407 -0.0939  0.5061  0.3979
  694MOL0     C93622   6.684   0.831   3.445 -0.1529 -0.6255 -0.2128
  694MOL0     H93623   6.154   1.014   3.575 -1.7585  1.0988  1.0054
  694MOL0     H93624   5.983   1.218   3.585 -0.5211  1.1297 -0.5027
  694MOL0     H93625   6.133   1.590   3.411 -0.1808 -0.0643  0.3737
  694MOL0     H93626   6.022   1.547   3.278  2.5844 -4.4309  0.3063
  694MOL0     H93627   5.913   1.628   3.565  2.1677  0.7219  1.0770
  694MOL0     H93628   5.843   1.622   3.399  1.3799 -3.6967 -0.1042
  694MOL0     H93629   5.902   1.841   3.532  1.2151  0.6964  1.3367
  694MOL0     H93630   5.909   1.852   3.369  1.0165  0.0746 -1.1299
  694MOL0     H93631   6.145   1.794   3.550 -0.4233  0.2432 -0.0852
  694MOL0     H93632   6.174   1.824   3.386  3.5472 -1.8247  2.7492
  694MOL0     H93633   6.069   2.047   3.432 -1.8495  0.0910  0.2202
  694MOL0     H93634   6.046   2.007   3.605  2.0811 -0.8864  1.2885
  694MOL0     H93635   6.325   1.998   3.489 -0.5978 -1.6085  1.3606
  694MOL0     H93636   6.255   2.157   3.553  2.1171  0.8480 -0.2327
  694MOL0     H93637   6.284   1.895   3.711 -1.5614  0.3206 -0.2560
  694MOL0     H93638   6.251   2.054   3.768  0.3691  0.9061 -0.8287
  694MOL0     H93639   6.513   1.977   3.644  2.9642  3.4847 -1.7001
  694MOL0     H93640   6.464   2.144   3.685 -1.2740  0.1829  0.6261
  694MOL0     H93641   6.591   1.809   3.847  1.9079 -2.3632  4.9068
  694MOL0     H93642   6.766   1.779   4.023  1.3249 -1.1636  2.0446
  694MOL0     H93643   6.756   1.895   4.158  1.3365  1.0621 -1.2327
  694MOL0     H93644   6.524   1.787   4.216  0.8307  0.7833  1.0008
  694MOL0     H93645   6.571   1.658   4.101  0.5990 -1.3763 -0.0694
  694MOL0     H93646   6.618   1.579   4.316 -1.8928  1.4011  0.4477
  694MOL0     H93647   6.713   1.711   4.363  1.5038 -1.1833 -0.4032
  694MOL0     H93648   6.874   1.543   4.289 -0.0702 -0.9449 -0.2473
  694MOL0     H93649   6.882   1.665   4.170  0.0628 -0.4673 -0.3316
  694MOL0     H93650   6.545   1.452   4.071  0.9443  3.2867  4.5291
  694MOL0     H93651   6.421   1.266   4.159  0.0445  1.3189 -3.0332
  694MOL0     H93652   6.493   0.850   4.591 -4.0811 -0.3270  1.2776
  694MOL0     H93653   6.393   0.636   4.643 -2.5030 -1.8269 -0.5719
  694MOL0     H93654   6.297   0.423   4.648 -1.0608  1.6778  1.3094
  694MOL0     H93655   6.201   0.550   4.597  2.1975  1.7382 -1.1131
  694MOL0     H93656   6.064   0.342   4.663 -3.0725  0.7932 -0.8333
  694MOL0     H93657   6.044   0.395   4.491 -1.0159 -1.8602  1.5049
  694MOL0     H93658   6.236   0.223   4.448 -1.5952 -2.5368 -1.4518
  694MOL0     H93659   6.181   0.172   4.618 -1.1774  1.5149  1.4983
  694MOL0     H93660   6.019   0.196   4.366  0.3710  2.0135  0.7853
  694MOL0     H93661   5.961   0.126   4.526 -1.4588 -2.6950 -1.7736
  694MOL0     H93662   6.170   0.021   4.333 -3.1111  1.6009 -2.5739
  694MOL0     H93663   6.018  -0.056   4.381 -2.9445  2.5863  2.9369
  694MOL0     H93664   6.252  -0.032   4.574  0.2162 -1.7602  2.2658
  694MOL0     H93665   6.080  -0.106   4.598  0.8662 -0.8922 -0.4283
  694MOL0     H93666   6.276  -0.237   4.409 -0.2052 -0.2545 -0.4407
  694MOL0     H93667   6.095  -0.247   4.421 -0.0992  2.1857 -1.8702
  694MOL0     H93668   6.290  -0.295   4.650  0.8849 -1.9899  0.6428
  694MOL0     H93669   6.111  -0.327   4.644  0.3936  1.3782 -0.1274
  694MOL0     H93670   6.402   0.537   4.218 -1.9494 -1.4793  1.0413
  694MOL0     H93671   6.519   0.769   4.178 -1.2011 -0.6277 -1.2715
  694MOL0     H93672   6.790   1.104   4.326  1.8103  0.5227 -1.1750
  694MOL0     H93673   6.896   1.298   4.256 -0.1019 -1.8335  1.8959
  694MOL0     H93674   6.167   1.375   3.239  1.3350 -1.4508 -1.7425
  694MOL0     H93675   6.303   1.167   3.213  4.1806  4.6469  0.4511
  694MOL0     H93676   6.232   0.723   3.337 -0.6238  0.2638  0.9410
  694MOL0     H93677   6.284   0.499   3.277 -0.6341  2.2621  0.9760
  694MOL0     H93678   6.668   0.254   3.235 -0.3567 -0.1565  0.8199
  694MOL0     H93679   6.729   0.415   3.240  1.2762 -1.7109 -0.3796
  694MOL0     H93680   6.705   0.347   3.014  0.6231  0.5809 -0.3508
  694MOL0     H93681   6.594   0.491   3.058 -0.1589 -0.0384 -0.9985
  694MOL0     H93682   6.533   0.184   3.020  1.8566 -0.2972 -1.8504
  694MOL0     H93683   6.540   0.289   2.887 -0.8625 -1.2878  0.1954
  694MOL0     H93684   6.341   0.278   3.110  1.1202 -1.9160 -1.1364
  694MOL0     H93685   6.350   0.421   2.997  0.7786  0.0727  0.8982
  694MOL0     H93686   6.163   0.127   2.761 -0.5014  0.9363  0.4546
  694MOL0     H93687   6.700   0.578   3.383 -0.1873  0.4777 -0.5043
  694MOL0     H93688   6.781   0.802   3.403  0.8867  2.3951 -0.1603
  694MOL0     H93689   6.664   0.936   3.417  0.6634 -0.7212 -1.2265
  694MOL0     H93690   6.687   0.832   3.554  1.6228  1.0558 -0.2154
  695MOL0     O93691   1.269   7.391   1.945  0.2420 -0.6380  0.3157
  695MOL0     C93692   1.280   7.366   1.831  0.1415 -0.2443 -0.2403
  695MOL0     O93693   1.222   7.444   1.735 -0.3763  0.4205  1.0473
  695MOL0     C93694   1.182   7.571   1.759  0.5565 -0.4004 -0.7000
  695MOL0     C93695   1.238   7.664   1.684 -0.4498 -1.0241  0.4579
  695MOL0     C93696   1.222   7.803   1.711  0.1176  0.2156  1.3179
  695MOL0     C93697   1.136   7.841   1.808  0.6418  0.5055  0.0989
  695MOL0     O93698   1.110   7.973   1.821 -0.2375  0.2972 -0.0342
  695MOL0     C93699   1.034   8.032   1.710  0.4413  1.3992  0.1321
  695MOL0     C93700   0.935   8.123   1.777 -0.2983  0.2727 -0.2799
  695MOL0     C93701   0.831   8.046   1.857  0.3915  0.5555 -0.5346
  695MOL0     C93702   0.729   7.966   1.770 -1.2850 -0.0609  0.0623
  695MOL0     C93703   0.601   7.927   1.841 -0.6940 -0.2445  0.4201
  695MOL0     C93704   0.614   7.823   1.955  0.0304 -0.4969  0.4972
  695MOL0     C93705   0.485   7.751   1.996  0.4323 -0.8576 -0.2538
  695MOL0     C93706   0.361   7.826   2.032 -0.2780 -0.5052  1.7338
  695MOL0     N93707   0.294   7.911   1.919 -0.6149 -0.7329 -0.5044
  695MOL0     C93708   0.235   7.856   1.809 -0.2870  0.2242  0.4037
  695MOL0     C93709   0.224   7.965   1.727 -0.7141  0.2310 -0.3827
  695MOL0     C93710   0.181   7.963   1.584 -0.0883  0.8630 -0.0991
  695MOL0     C93711   0.103   7.838   1.531 -0.0308 -0.1814  0.1389
  695MOL0     C93712  -0.041   7.820   1.570 -0.5521 -0.5623  0.0667
  695MOL0     C93713  -0.113   7.716   1.483 -0.0639 -0.1128 -0.7241
  695MOL0     O93714  -0.116   7.792   1.360  0.4859 -0.2381 -0.1708
  695MOL0     C93715  -0.109   7.735   1.236  0.1950 -0.0841  0.9150
  695MOL0     C93716  -0.159   7.606   1.228 -0.7297  0.0741 -0.6262
  695MOL0     C93717  -0.191   7.547   1.107 -0.5648  0.8622  0.4035
  695MOL0     C93718  -0.166   7.610   0.987  0.0989 -0.2442  0.3865
  695MOL0     C93719  -0.213   7.559   0.851 -0.5259 -0.5078  0.1667
  695MOL0     O93720  -0.288   7.444   0.852  0.7067 -0.2651 -0.2096
  695MOL0     C93721  -0.322   7.385   0.732 -0.3921  0.3527  0.5330
  695MOL0     C93722  -0.217   7.336   0.641 -0.5403 -0.5654 -0.3990
  695MOL0     C93723  -0.249   7.263   0.530 -0.9222 -0.0198  0.4966
  695MOL0     C93724  -0.379   7.235   0.487 -0.0421 -0.5190  0.3260
  695MOL0     O93725  -0.401   7.168   0.372  0.3830 -0.9447  0.1668
  695MOL0     C93726  -0.499   7.234   0.286 -0.1488  0.1100 -0.3989
  695MOL0     C93727  -0.428   7.353   0.236 -0.6213 -0.6901  0.2072
  695MOL0     C93728  -0.509   7.443   0.136 -0.4558 -0.7761  0.8617
  695MOL0     C93729  -0.630   7.521   0.191 -0.9283 -0.1683  0.5145
  695MOL0     C93730  -0.682   7.620   0.081  0.4084 -0.2760  0.0566
  695MOL0     C93731  -0.815   7.684   0.124  0.1242  0.3564 -0.3541
  695MOL0     C93732  -0.910   7.701   0.005  0.4388 -0.0382 -0.3599
  695MOL0     C93733  -1.043   7.754   0.067 -0.2068  0.4569  0.4187
  695MOL0    Cl93734  -1.152   7.779  -0.074  0.4611  0.1286  0.0920
  695MOL0     C93735  -0.485   7.271   0.580 -0.3679  0.1543  0.2728
  695MOL0     C93736  -0.458   7.346   0.694  0.3329 -0.8776 -0.1131
  695MOL0     O93737  -0.164   7.610   0.750 -0.3499 -0.8127  0.2815
  695MOL0     C93738  -0.103   7.741   0.986 -0.1929 -0.7007 -0.0224
  695MOL0     C93739  -0.081   7.804   1.117 -0.2059 -0.0108  0.3961
  695MOL0     N93740   0.266   8.088   1.787  0.9388  0.6633  0.2724
  695MOL0     N93741   0.305   8.051   1.903 -0.4792  0.1619 -0.8660
  695MOL0     C93742   1.057   7.744   1.892 -0.8910  0.5051  0.4197
  695MOL0     C93743   1.091   7.603   1.864  0.4916 -0.2631 -0.0230
  695MOL0     C93744   1.356   7.247   1.791 -0.2655 -0.0781 -0.9038
  695MOL0     C93745   1.372   7.147   1.882 -0.6608 -0.1013 -0.2206
  695MOL0     C93746   1.448   7.033   1.855 -0.9057  0.3552  0.7527
  695MOL0     C93747   1.507   7.015   1.729 -0.1516 -0.7258  0.0462
  695MOL0     O93748   1.585   6.915   1.687 -0.3909 -0.5865  0.5270
  695MOL0     C93749   1.633   6.821   1.784  0.0508 -0.3380 -0.5261
  695MOL0     C93750   1.535   6.701   1.812  0.3758 -0.6346  0.9068
  695MOL0     C93751   1.574   6.602   1.925 -1.0292  0.1926 -0.3026
  695MOL0     C93752   1.726   6.599   1.946  0.0198 -0.1902 -0.1209
  695MOL0     C93753   1.798   6.532   1.840 -0.4649 -0.5921  0.2622
  695MOL0     C93754   1.857   6.462   1.763  0.1193  0.9970 -0.3133
  695MOL0     C93755   1.496   7.122   1.644  0.2942  0.3782  0.5081
  695MOL0     C93756   1.419   7.235   1.666 -0.6647 -0.4651 -0.1494
  695MOL0     C93757   1.398   7.329   1.543 -0.0582  0.2476 -0.5738
  695MOL0     H93758   1.291   7.641   1.592 -2.9219 -0.6608 -1.1462
  695MOL0     H93759   1.268   7.869   1.639  4.7004 -3.9437 -0.1016
  695MOL0     H93760   1.097   8.092   1.643  1.9425  1.0873  1.2021
  695MOL0     H93761   0.984   7.962   1.643  0.7575  2.3522 -1.1429
  695MOL0     H93762   0.885   8.176   1.695  1.0935 -0.9406 -2.0024
  695MOL0     H93763   0.997   8.192   1.835 -1.4447  3.8221 -2.9822
  695MOL0     H93764   0.772   8.115   1.918 -1.5085 -2.2203  1.0336
  695MOL0     H93765   0.867   7.975   1.932 -3.6748 -1.3416 -0.1015
  695MOL0     H93766   0.717   8.004   1.668  0.6724 -1.5353 -0.7983
  695MOL0     H93767   0.777   7.871   1.743 -0.9204 -0.1389  0.9742
  695MOL0     H93768   0.558   8.019   1.882  0.2160  1.3872 -2.0732
  695MOL0     H93769   0.533   7.888   1.764  1.2227  0.2806 -1.6537
  695MOL0     H93770   0.690   7.750   1.924  0.7411  0.6986 -0.7057
  695MOL0     H93771   0.663   7.867   2.042 -0.6309 -0.1612  0.7118
  695MOL0     H93772   0.508   7.703   2.091  1.1383 -0.8445 -0.4160
  695MOL0     H93773   0.442   7.685   1.919 -0.3534 -0.4428 -0.1794
  695MOL0     H93774   0.281   7.763   2.071 -0.5695 -1.7784 -0.7092
  695MOL0     H93775   0.378   7.907   2.103  2.5175 -0.2979  0.9648
  695MOL0     H93776   0.214   7.752   1.786  0.1172 -0.2563  2.0627
  695MOL0     H93777   0.113   8.048   1.577 -0.9707  0.4162  2.1221
  695MOL0     H93778   0.274   7.966   1.527  0.4030  3.1718  0.7370
  695MOL0     H93779   0.117   7.840   1.422 -0.0204 -0.3517  0.1372
  695MOL0     H93780   0.136   7.740   1.565 -0.4388 -1.7301 -3.4470
  695MOL0     H93781  -0.098   7.914   1.574  0.0683 -0.0995  4.9242
  695MOL0     H93782  -0.040   7.793   1.676 -1.2689 -2.3240 -0.3342
  695MOL0     H93783  -0.215   7.693   1.513 -0.0651 -1.7533 -1.8543
  695MOL0     H93784  -0.049   7.627   1.476 -0.2162 -0.4915  1.7856
  695MOL0     H93785  -0.204   7.551   1.309  0.1462 -0.2512 -0.3460
  695MOL0     H93786  -0.227   7.444   1.104 -0.3487  0.8114 -0.8666
  695MOL0     H93787  -0.116   7.353   0.680 -0.0047 -1.1519 -1.4932
  695MOL0     H93788  -0.170   7.240   0.459 -2.1634  0.5652 -1.1502
  695MOL0     H93789  -0.523   7.175   0.198  0.7062  2.1574 -2.0883
  695MOL0     H93790  -0.596   7.253   0.333 -0.4870 -1.4883 -0.3975
  695MOL0     H93791  -0.422   7.427   0.316  0.3551  0.1618 -0.6330
  695MOL0     H93792  -0.333   7.327   0.189 -0.3218  0.6588  0.0341
  695MOL0     H93793  -0.442   7.519   0.095 -2.5883  0.7583  0.0257
  695MOL0     H93794  -0.549   7.380   0.056  0.7795  2.0268 -2.1893
  695MOL0     H93795  -0.597   7.571   0.283  3.9572 -3.4766  0.9455
  695MOL0     H93796  -0.704   7.446   0.220 -1.1728 -0.3193 -0.4954
  695MOL0     H93797  -0.699   7.568  -0.014  2.5103 -0.6772 -0.1633
  695MOL0     H93798  -0.610   7.701   0.066  1.9990 -1.7582 -0.6323
  695MOL0     H93799  -0.861   7.618   0.199 -0.6962  0.6974 -0.5375
  695MOL0     H93800  -0.809   7.781   0.173 -0.2543  0.3394 -0.2653
  695MOL0     H93801  -0.923   7.599  -0.031 -0.1759 -0.1516  0.1826
  695MOL0     H93802  -0.865   7.760  -0.076  2.4647  1.4461  1.6930
  695MOL0     H93803  -1.088   7.689   0.142  5.2078 -1.0163  2.9096
  695MOL0     H93804  -1.017   7.843   0.124  2.0387 -1.2888  2.2770
  695MOL0     H93805  -0.590   7.246   0.568 -0.2666 -0.3066  0.3279
  695MOL0     H93806  -0.545   7.356   0.759 -0.2056 -0.1034 -0.9215
  695MOL0     H93807  -0.092   7.804   0.898  0.6825 -0.7586  0.0316
  695MOL0     H93808  -0.052   7.909   1.112 -0.3762 -0.0131 -1.1064
  695MOL0     H93809   0.996   7.784   1.972 -0.1985  3.7404 -0.5387
  695MOL0     H93810   1.032   7.525   1.911 -2.8322  1.1861 -1.4770
  695MOL0     H93811   1.323   7.158   1.978  0.2915  0.2977  0.2242
  695MOL0     H93812   1.468   6.960   1.933  1.8664 -1.3163 -1.3551
  695MOL0     H93813   1.653   6.865   1.882 -2.5698  0.2477 -0.1831
  695MOL0     H93814   1.730   6.791   1.744  0.3978 -1.2154  0.8855
  695MOL0     H93815   1.528   6.649   1.716 -0.1570  2.0036 -0.5824
  695MOL0     H93816   1.435   6.742   1.829  0.0603 -1.5500  1.3639
  695MOL0     H93817   1.523   6.505   1.920 -1.2049  0.2743 -0.0934
  695MOL0     H93818   1.527   6.650   2.011 -0.4046 -1.6428  1.1173
  695MOL0     H93819   1.767   6.700   1.963  0.4674  0.1924 -2.9098
  695MOL0     H93820   1.741   6.541   2.037 -0.3624 -2.0273 -1.1967
  695MOL0     H93821   1.911   6.399   1.695 -0.3786  1.9659 -1.6426
  695MOL0     H93822   1.540   7.129   1.545 -0.5447  2.5691  0.2448
  695MOL0     H93823   1.441   7.427   1.567  2.3531 -0.4891 -1.5715
  695MOL0     H93824   1.431   7.290   1.446  2.9062 -0.8086  0.7523
  695MOL0     H93825   1.292   7.348   1.523 -0.5261  0.9491  2.1552
  696MOL0     O93826  10.649   1.424   8.020  0.0634  0.0785  0.1669
  696MOL0     C93827  10.706   1.470   7.919 -0.7001  0.5723  0.7259
  696MOL0     O93828  10.733   1.603   7.881 -0.2833 -0.1518  0.0822
  696MOL0     C93829  10.670   1.710   7.945  0.8096  0.0757  0.2864
  696MOL0     C93830  10.555   1.696   8.026  1.0982  0.3445 -0.2692
  696MOL0     C93831  10.497   1.804   8.082  0.6450 -0.4108 -0.8462
  696MOL0     C93832  10.539   1.937   8.064  0.2606 -0.1226  0.3637
  696MOL0     O93833  10.486   2.039   8.138 -0.1611  0.1901 -0.8303
  696MOL0     C93834  10.365   2.093   8.086  0.0076  0.3258 -1.0185
  696MOL0     C93835  10.297   2.170   8.197 -0.0978 -0.3439 -0.6056
  696MOL0     C93836  10.170   2.256   8.146  0.3643 -0.4223 -1.1685
  696MOL0     C93837  10.149   2.386   8.225  0.2203  0.4762  1.4763
  696MOL0     C93838  10.023   2.456   8.174 -0.2554  0.4196 -0.4311
  696MOL0     C93839  10.019   2.602   8.226  0.1283  0.4024  0.3995
  696MOL0     C93840   9.921   2.685   8.144 -0.3021  0.2117 -0.3021
  696MOL0     C93841   9.782   2.625   8.151  0.3607 -0.5851  0.1655
  696MOL0     N93842   9.694   2.694   8.053  0.0449 -0.7539  0.3740
  696MOL0     C93843   9.667   2.832   8.048  0.2573 -0.3574  0.1526
  696MOL0     C93844   9.570   2.853   7.952 -0.5680  0.4767  0.2462
  696MOL0     C93845   9.508   2.977   7.897  0.0117  0.3865  0.3290
  696MOL0     C93846   9.600   3.066   7.811  0.0682  0.5688  0.1114
  696MOL0     C93847   9.531   3.181   7.737 -0.7099 -1.2792  0.3324
  696MOL0     C93848   9.557   3.310   7.814 -0.5975  0.6986 -0.3438
  696MOL0     O93849   9.523   3.418   7.729 -0.4009  0.1148 -0.8131
  696MOL0     C93850   9.525   3.538   7.788  0.0578  0.3275 -0.7475
  696MOL0     C93851   9.498   3.649   7.709 -0.1384 -0.5875  0.0474
  696MOL0     C93852   9.496   3.780   7.767  0.8961 -0.7588 -0.0747
  696MOL0     C93853   9.537   3.803   7.897  0.8610 -0.2067  0.1487
  696MOL0     C93854   9.539   3.935   7.955 -0.7301 -0.6291 -0.2844
  696MOL0     O93855   9.455   4.028   7.911 -0.0044 -0.4146  0.6035
  696MOL0     C93856   9.477   4.162   7.902  0.2522 -0.1293  0.1967
  696MOL0     C93857   9.393   4.223   7.816  0.0082 -0.1529  0.7804
  696MOL0     C93858   9.423   4.351   7.775  0.1624  0.1161  0.0645
  696MOL0     C93859   9.533   4.421   7.818 -0.3335 -0.9239 -0.3767
  696MOL0     O93860   9.571   4.541   7.761  0.2214 -0.1247  0.9412
  696MOL0     C93861   9.467   4.634   7.760  0.7889  0.5228  0.9409
  696MOL0     C93862   9.516   4.777   7.761  1.0482 -0.1204  0.2642
  696MOL0     C93863   9.400   4.868   7.702  0.0182  0.4742 -0.6153
  696MOL0     C93864   9.464   5.011   7.665 -0.3359  0.5033 -0.9985
  696MOL0     C93865   9.571   5.010   7.549 -0.1826 -0.1618 -0.1559
  696MOL0     C93866   9.509   4.955   7.425  0.0578  0.4674  0.1025
  696MOL0     C93867   9.586   5.009   7.301 -0.3634 -0.2621 -0.3037
  696MOL0     C93868   9.560   4.939   7.174 -0.1411  0.6123  0.1608
  696MOL0    Cl93869   9.652   5.007   7.039  0.5271 -0.5718 -0.2017
  696MOL0     C93870   9.630   4.357   7.888 -0.4495  0.0462 -0.0109
  696MOL0     C93871   9.597   4.231   7.938 -0.7674  0.7909 -0.0094
  696MOL0     O93872   9.620   3.947   8.051  0.1801 -0.0243 -0.6777
  696MOL0     C93873   9.561   3.685   7.973 -0.4901 -0.0888  0.0676
  696MOL0     C93874   9.550   3.562   7.922  0.0423 -0.4704 -0.2004
  696MOL0     N93875   9.560   2.729   7.889 -0.1664 -0.1777 -0.1044
  696MOL0     N93876   9.634   2.641   7.947 -0.1420  1.1640 -0.7387
  696MOL0     C93877  10.657   1.948   7.984  0.2140 -0.3766 -0.3422
  696MOL0     C93878  10.724   1.842   7.932 -0.5631  0.7365  0.7335
  696MOL0     C93879  10.750   1.368   7.807  0.6495  0.1238  0.5102
  696MOL0     C93880  10.850   1.411   7.721  0.0766  0.2956 -1.4891
  696MOL0     C93881  10.900   1.330   7.616 -0.6490  0.6855  0.0863
  696MOL0     C93882  10.847   1.202   7.602 -0.4241  0.1233 -0.2811
  696MOL0     O93883  10.906   1.132   7.512  0.1303 -0.0403  0.4417
  696MOL0     C93884  10.935   0.999   7.542  0.2404  0.2503  0.2848
  696MOL0     C93885  11.089   0.971   7.542  0.0049 -0.1133 -0.1540
  696MOL0     C93886  11.147   0.981   7.404  0.6716  0.7014 -0.4375
  696MOL0     C93887  11.296   0.947   7.409  0.0697  0.2910  0.1749
  696MOL0     C93888  11.372   1.066   7.452 -0.1774  0.4665 -0.6496
  696MOL0     C93889  11.444   1.165   7.463  0.3382 -0.7467 -0.0609
  696MOL0     C93890  10.743   1.161   7.681  0.1119 -0.9911  0.0115
  696MOL0     C93891  10.690   1.245   7.787  0.3139  0.6573 -0.0861
  696MOL0     C93892  10.572   1.189   7.864  0.8912 -0.4484  0.6422
  696MOL0     H93893  10.500   1.603   8.037  2.7081 -0.6476 -0.3068
  696MOL0     H93894  10.404   1.792   8.137  0.6974  2.0238 -0.1164
  696MOL0     H93895  10.397   2.160   8.006 -0.0071 -2.5659 -3.6483
  696MOL0     H93896  10.287   2.024   8.054  0.2466  1.1027 -3.4704
  696MOL0     H93897  10.363   2.250   8.230 -2.1385  2.6201 -3.1383
  696MOL0     H93898  10.266   2.112   8.284  0.2450  1.0269  0.4676
  696MOL0     H93899  10.078   2.198   8.157 -0.6159  1.3445  0.7342
  696MOL0     H93900  10.188   2.284   8.042  0.5831 -1.4330 -1.4196
  696MOL0     H93901  10.133   2.361   8.330 -1.5404 -0.6610  0.9929
  696MOL0     H93902  10.240   2.440   8.198  0.9430 -1.5770 -0.5463
  696MOL0     H93903  10.021   2.454   8.065 -1.0553  0.1207 -0.4172
  696MOL0     H93904   9.936   2.400   8.209 -0.7748  1.5373  0.1090
  696MOL0     H93905   9.981   2.605   8.329  1.1126  0.6921  0.7639
  696MOL0     H93906  10.118   2.645   8.206  1.6506 -3.4063 -1.1619
  696MOL0     H93907   9.961   2.669   8.043 -1.2530 -0.0190 -0.6532
  696MOL0     H93908   9.907   2.786   8.184 -2.0168  0.5134 -1.5542
  696MOL0     H93909   9.783   2.518   8.126 -0.6479 -0.2816 -1.3542
  696MOL0     H93910   9.730   2.640   8.246 -2.2622 -1.1405 -1.0978
  696MOL0     H93911   9.692   2.905   8.124  3.0981 -0.1589 -0.8706
  696MOL0     H93912   9.422   2.937   7.842 -2.7539  0.0354  4.4803
  696MOL0     H93913   9.459   3.047   7.965 -1.6617 -1.0510  0.6681
  696MOL0     H93914   9.689   3.107   7.859  1.2536 -2.0392  0.3170
  696MOL0     H93915   9.643   3.014   7.725  1.6476 -0.1366  1.2784
  696MOL0     H93916   9.428   3.150   7.720 -1.6172  1.3277  0.6636
  696MOL0     H93917   9.586   3.193   7.643  0.1394 -2.6895  0.6242
  696MOL0     H93918   9.658   3.318   7.856 -1.3366 -1.1966  1.9875
  696MOL0     H93919   9.498   3.296   7.905  1.4542 -4.0178  0.5691
  696MOL0     H93920   9.483   3.624   7.605  0.7082 -0.2583 -0.1604
  696MOL0     H93921   9.478   3.864   7.701 -2.4826  0.9794  2.7287
  696MOL0     H93922   9.295   4.179   7.797  0.8452 -1.7583 -0.0266
  696MOL0     H93923   9.354   4.402   7.708  0.7868  0.3089 -0.4417
  696MOL0     H93924   9.435   4.618   7.657  2.6652 -1.4898  0.5927
  696MOL0     H93925   9.399   4.616   7.844 -1.7052 -0.2191 -1.1544
  696MOL0     H93926   9.546   4.816   7.858  2.1251  0.6675 -0.3525
  696MOL0     H93927   9.602   4.785   7.694 -0.7038  0.1624 -2.0920
  696MOL0     H93928   9.364   4.823   7.609 -1.0794 -4.0278  1.7229
  696MOL0     H93929   9.319   4.887   7.773 -0.8657 -0.3428 -1.3803
  696MOL0     H93930   9.529   5.038   7.748  1.5796  1.2986 -2.6548
  696MOL0     H93931   9.385   5.084   7.650  1.0598  2.5184  0.8758
  696MOL0     H93932   9.663   4.957   7.577  0.7551 -0.8173 -3.9583
  696MOL0     H93933   9.595   5.113   7.523 -0.8139 -0.1227 -0.5975
  696MOL0     H93934   9.509   4.846   7.428 -0.3831  0.4865  1.5279
  696MOL0     H93935   9.403   4.982   7.425  0.4554  2.1469  0.0306
  696MOL0     H93936   9.691   5.001   7.328  0.1898  3.4249 -0.7362
  696MOL0     H93937   9.556   5.113   7.284  0.9306  0.0171 -0.9953
  696MOL0     H93938   9.582   4.833   7.191 -1.1625 -0.0009 -1.9737
  696MOL0     H93939   9.452   4.950   7.159 -0.8985 -3.8641  0.7082
  696MOL0     H93940   9.727   4.400   7.915 -0.5130 -0.7922  1.6352
  696MOL0     H93941   9.679   4.190   7.997  1.6269  2.0998 -2.1818
  696MOL0     H93942   9.577   3.708   8.077  0.7585  1.2915 -0.3951
  696MOL0     H93943   9.567   3.487   7.999  0.4103  0.8875  1.0964
  696MOL0     H93944  10.701   2.046   7.969 -0.0820 -0.0664  0.7210
  696MOL0     H93945  10.820   1.852   7.881 -2.3261 -0.4473 -3.1967
  696MOL0     H93946  10.906   1.502   7.735 -0.3214  0.3560 -0.1742
  696MOL0     H93947  10.986   1.366   7.560 -0.6754  0.9641  0.2248
  696MOL0     H93948  10.874   0.924   7.490 -0.1864 -1.2735  2.8043
  696MOL0     H93949  10.899   0.981   7.644 -2.1060 -2.7506 -0.9309
  696MOL0     H93950  11.106   0.869   7.579  0.5726  0.6617  1.8683
  696MOL0     H93951  11.130   1.027   7.626 -0.5187 -1.2867  0.9248
  696MOL0     H93952  11.127   1.082   7.367 -1.9506 -0.0078 -1.1493
  696MOL0     H93953  11.104   0.907   7.337  1.1166 -0.9470  1.0492
  696MOL0     H93954  11.306   0.861   7.477 -2.6274  1.3181  2.0660
  696MOL0     H93955  11.338   0.916   7.313 -4.6413 -0.3902 -1.9794
  696MOL0     H93956  11.496   1.258   7.472  1.9961 -1.4085 -2.0152
  696MOL0     H93957  10.693   1.066   7.667  1.6538 -1.6256 -1.6025
  696MOL0     H93958  10.602   1.169   7.968 -0.4303  2.8307  1.7889
  696MOL0     H93959  10.486   1.254   7.852  1.2258 -0.2211 -0.7072
  696MOL0     H93960  10.541   1.095   7.818  1.3146 -0.0942 -0.3910
  697MOL0     O93961   7.025   6.847   5.972  0.3360  0.9743 -0.1104
  697MOL0     C93962   6.909   6.869   5.944  0.1584  0.5428 -0.2752
  697MOL0     O93963   6.821   6.793   5.865  0.0781  0.4505  0.1167
  697MOL0     C93964   6.859   6.681   5.805 -1.0260  0.1525  0.4005
  697MOL0     C93965   6.935   6.571   5.860 -0.3390  0.1824  0.0433
  697MOL0     C93966   6.969   6.463   5.774  0.7913  0.3595 -0.6764
  697MOL0     C93967   6.926   6.451   5.644  0.4359  0.7183 -0.0775
  697MOL0     O93968   6.957   6.346   5.564  0.1540 -0.5371 -0.6426
  697MOL0     C93969   7.045   6.246   5.619 -0.2646 -0.4561  0.0285
  697MOL0     C93970   7.063   6.137   5.518  0.2563  0.4863 -0.4616
  697MOL0     C93971   7.155   6.033   5.581  0.3610 -0.3575 -0.4949
  697MOL0     C93972   7.301   6.085   5.622 -0.1508  0.5410  0.0808
  697MOL0     C93973   7.375   5.965   5.687 -0.2790 -0.5937 -0.4160
  697MOL0     C93974   7.427   5.863   5.588  0.1849  0.1706  0.5808
  697MOL0     C93975   7.512   5.750   5.642 -0.5514  0.3801 -0.2326
  697MOL0     C93976   7.511   5.616   5.561 -0.5138 -0.1595  1.0674
  697MOL0     N93977   7.544   5.649   5.415 -0.0860  0.1671 -1.5127
  697MOL0     C93978   7.667   5.674   5.369  0.0803 -0.4856  0.0887
  697MOL0     C93979   7.650   5.743   5.253 -0.1295 -0.1318 -0.0187
  697MOL0     C93980   7.769   5.785   5.166  0.5277  0.5420 -0.9390
  697MOL0     C93981   7.722   5.877   5.055  0.1501 -0.3449  0.1048
  697MOL0     C93982   7.836   5.893   4.946 -0.3262 -0.6712  0.6909
  697MOL0     C93983   7.784   5.971   4.820 -0.2503 -0.1808 -0.7907
  697MOL0     O93984   7.675   6.070   4.871  0.4445  1.0496  0.1136
  697MOL0     C93985   7.598   6.137   4.780  0.0186  0.2657 -0.2940
  697MOL0     C93986   7.528   6.248   4.828  0.1959 -0.2115 -0.5025
  697MOL0     C93987   7.420   6.298   4.749 -0.3231  0.9173 -0.4022
  697MOL0     C93988   7.401   6.252   4.611  0.1553  0.0273 -0.0510
  697MOL0     C93989   7.304   6.311   4.518 -0.2476 -0.0885  0.5889
  697MOL0     O93990   7.287   6.254   4.388  0.4502 -0.3764  0.1968
  697MOL0     C93991   7.186   6.302   4.310 -0.4721  0.6622 -0.2655
  697MOL0     C93992   7.219   6.348   4.179 -0.3104  0.1050 -0.2363
  697MOL0     C93993   7.125   6.407   4.098  0.0792 -0.1618 -0.2574
  697MOL0     C93994   6.987   6.421   4.138 -0.3473 -0.2430  0.6625
  697MOL0     O93995   6.896   6.481   4.057 -0.3633 -1.1242  0.3301
  697MOL0     C93996   6.781   6.398   4.033  0.1061 -0.1123  0.3740
  697MOL0     C93997   6.681   6.447   3.928 -0.2315 -0.6121 -0.5395
  697MOL0     C93998   6.760   6.509   3.807  0.3623  1.4426  0.0371
  697MOL0     C93999   6.670   6.544   3.683 -0.0156 -0.1552 -0.8340
  697MOL0     C94000   6.629   6.419   3.600 -0.8286 -0.4127  0.0354
  697MOL0     C94001   6.742   6.328   3.537  0.4817  0.7410  0.3446
  697MOL0     C94002   6.802   6.379   3.402 -0.1002 -0.2412  0.0808
  697MOL0     C94003   6.870   6.285   3.321 -0.6457  0.3094 -0.9229
  697MOL0    Cl94004   6.750   6.210   3.207 -0.2163 -0.1720  0.1924
  697MOL0     C94005   6.956   6.366   4.264  0.3648 -0.0764  0.1165
  697MOL0     C94006   7.051   6.313   4.350  0.4801  0.2761  0.2097
  697MOL0     O94007   7.241   6.401   4.566  0.1659  0.0214 -0.1393
  697MOL0     C94008   7.478   6.144   4.568  0.0255 -0.3856 -0.3750
  697MOL0     C94009   7.581   6.084   4.648  0.2325  0.2863 -0.0757
  697MOL0     N94010   7.517   5.750   5.231 -0.1370  0.0874 -0.6843
  697MOL0     N94011   7.453   5.703   5.327 -0.0145  0.3011 -0.5362
  697MOL0     C94012   6.845   6.558   5.583 -0.5861  0.0748 -0.7717
  697MOL0     C94013   6.819   6.673   5.669 -0.0317 -0.1983 -0.0882
  697MOL0     C94014   6.848   6.984   6.003 -0.3670 -0.3601 -0.8344
  697MOL0     C94015   6.764   7.060   5.919 -0.7223  0.5697  0.9401
  697MOL0     C94016   6.699   7.180   5.962  0.9074  0.2748  1.3133
  697MOL0     C94017   6.708   7.217   6.093  0.0509  0.6721 -1.1889
  697MOL0     O94018   6.652   7.324   6.157 -0.3595  0.3924  0.3653
  697MOL0     C94019   6.615   7.442   6.077 -0.1480 -0.8887  0.8911
  697MOL0     C94020   6.568   7.568   6.156 -0.5321 -0.1627  0.2265
  697MOL0     C94021   6.487   7.543   6.284 -0.1259  0.5537  0.7149
  697MOL0     C94022   6.344   7.486   6.252 -0.1956  0.1366  0.3837
  697MOL0     C94023   6.252   7.561   6.163  0.1727 -0.3060 -1.1218
  697MOL0     C94024   6.175   7.616   6.092  0.8451  0.3130 -0.1933
  697MOL0     C94025   6.781   7.126   6.178  0.2263 -0.9467  0.3664
  697MOL0     C94026   6.857   7.025   6.131 -1.1385 -0.1315  0.6961
  697MOL0     C94027   6.955   6.969   6.229 -0.6803 -0.0685 -0.3925
  697MOL0     H94028   6.973   6.573   5.962  2.7941  1.0910 -0.9985
  697MOL0     H94029   7.053   6.404   5.810 -1.3443 -2.6703 -0.2920
  697MOL0     H94030   7.140   6.290   5.648 -0.5330  0.8386 -0.9657
  697MOL0     H94031   7.011   6.212   5.717  1.5683  0.3313  0.9651
  697MOL0     H94032   7.106   6.180   5.427 -0.9269 -0.6893 -1.6255
  697MOL0     H94033   6.968   6.092   5.487 -1.0642  1.9438  1.2434
  697MOL0     H94034   7.161   5.951   5.509  2.5206  0.7529 -1.6692
  697MOL0     H94035   7.111   5.997   5.675  3.2078  2.8845  2.3663
  697MOL0     H94036   7.344   6.140   5.537 -2.8618  3.0575  0.1793
  697MOL0     H94037   7.276   6.151   5.706 -0.3946 -0.1723  0.5735
  697MOL0     H94038   7.459   6.006   5.743 -0.3240 -0.8920 -0.1281
  697MOL0     H94039   7.311   5.920   5.764 -1.0837 -1.5925 -1.6251
  697MOL0     H94040   7.342   5.813   5.541  1.2182 -2.0868  0.9716
  697MOL0     H94041   7.483   5.919   5.512 -1.1137 -1.5667 -1.7654
  697MOL0     H94042   7.481   5.719   5.742  2.4436  2.9379  1.7035
  697MOL0     H94043   7.618   5.779   5.635  0.1126 -1.5186  1.2453
  697MOL0     H94044   7.595   5.554   5.593  1.1937 -0.2645 -3.0792
  697MOL0     H94045   7.422   5.552   5.553  0.1692 -1.0171  0.1452
  697MOL0     H94046   7.752   5.642   5.428 -0.6985 -0.6792  1.1233
  697MOL0     H94047   7.837   5.841   5.232  0.2751  2.1668 -2.0020
  697MOL0     H94048   7.820   5.695   5.131 -1.6230 -1.3983  0.6119
  697MOL0     H94049   7.626   5.848   5.012 -1.5098  1.9006  2.0309
  697MOL0     H94050   7.697   5.976   5.095  0.0180  0.2244 -1.3200
  697MOL0     H94051   7.884   5.799   4.920 -0.1649 -0.3321 -0.2828
  697MOL0     H94052   7.915   5.952   4.995  0.5734 -2.8997  2.0542
  697MOL0     H94053   7.749   5.898   4.747 -2.7139 -0.5547  0.6232
  697MOL0     H94054   7.870   6.029   4.785  1.2414 -0.9557  1.3616
  697MOL0     H94055   7.559   6.291   4.923  3.5413 -1.8503 -0.6860
  697MOL0     H94056   7.349   6.365   4.795 -0.7231 -0.3505  0.8974
  697MOL0     H94057   7.325   6.355   4.160  0.0245  0.4020  1.5961
  697MOL0     H94058   7.163   6.456   4.009 -1.6664 -1.5473 -1.8389
  697MOL0     H94059   6.827   6.304   4.001  1.1897 -0.4505  2.7349
  697MOL0     H94060   6.719   6.383   4.122 -2.6479 -1.2158 -1.5781
  697MOL0     H94061   6.606   6.369   3.908 -0.0496 -1.4525  1.7508
  697MOL0     H94062   6.628   6.525   3.983 -0.5100 -3.0179  2.9591
  697MOL0     H94063   6.805   6.606   3.830 -0.3887  2.1555 -1.3904
  697MOL0     H94064   6.842   6.442   3.779  2.0338  2.6586  1.7617
  697MOL0     H94065   6.711   6.625   3.621  2.1092  2.0903  3.1361
  697MOL0     H94066   6.578   6.584   3.725  0.2736  4.0084 -3.5537
  697MOL0     H94067   6.560   6.465   3.529  0.1429  2.2027  0.6705
  697MOL0     H94068   6.575   6.358   3.674  0.0810 -2.0097 -0.5944
  697MOL0     H94069   6.823   6.291   3.599  0.2070 -1.1800 -0.3894
  697MOL0     H94070   6.685   6.242   3.502 -1.4792  0.5041  3.7276
  697MOL0     H94071   6.880   6.450   3.432  0.3903  0.9336 -3.4880
  697MOL0     H94072   6.725   6.443   3.358 -1.4654 -1.1770  1.0517
  697MOL0     H94073   6.950   6.332   3.264 -1.4996 -2.8515 -5.3310
  697MOL0     H94074   6.914   6.206   3.383 -0.6152 -0.6294 -2.0991
  697MOL0     H94075   6.855   6.371   4.302  1.6030  5.4387  3.9235
  697MOL0     H94076   7.007   6.269   4.439 -1.6150 -0.3688 -1.0576
  697MOL0     H94077   7.462   6.102   4.470  1.1522 -0.7855 -0.4001
  697MOL0     H94078   7.641   6.002   4.608  2.4533  2.1551 -0.7739
  697MOL0     H94079   6.804   6.541   5.483 -0.4244 -0.2714 -0.7787
  697MOL0     H94080   6.784   6.760   5.615  2.7165  0.3126 -1.2106
  697MOL0     H94081   6.754   7.045   5.812  1.1152  0.3679  0.7589
  697MOL0     H94082   6.640   7.228   5.884 -0.0505 -1.6282  0.7779
  697MOL0     H94083   6.529   7.406   6.020 -0.8836 -2.1593  2.7009
  697MOL0     H94084   6.686   7.461   5.996 -1.3925 -0.1022 -0.0738
  697MOL0     H94085   6.509   7.628   6.086 -3.4749 -2.3745  0.5984
  697MOL0     H94086   6.652   7.629   6.190  0.0214 -0.4691 -0.5707
  697MOL0     H94087   6.465   7.641   6.328 -1.0399 -0.8478  3.6351
  697MOL0     H94088   6.545   7.484   6.356 -0.4738 -0.8937 -0.1643
  697MOL0     H94089   6.358   7.384   6.215  1.8238 -0.5375  2.7426
  697MOL0     H94090   6.298   7.471   6.350 -1.0236 -1.7580 -0.2563
  697MOL0     H94091   6.108   7.658   6.021 -1.8808 -0.2309  1.8949
  697MOL0     H94092   6.767   7.132   6.285 -0.3400 -3.4660  0.4885
  697MOL0     H94093   7.038   7.040   6.234 -1.4473  0.9293  5.6021
  697MOL0     H94094   6.915   6.962   6.331  2.5960 -0.7509  0.9582
  697MOL0     H94095   6.997   6.870   6.213  0.4338 -0.4017  3.4755
  698MOL0     O94096   0.923   3.862   1.414 -0.1268  0.4974 -0.0671
  698MOL0     C94097   0.888   3.898   1.523  0.5888 -0.0277  0.1704
  698MOL0     O94098   0.905   4.025   1.571 -0.1396 -0.0877 -0.4790
  698MOL0     C94099   0.931   4.119   1.477  1.7023  0.3485  0.0569
  698MOL0     C94100   0.821   4.181   1.415  0.3818  0.6031 -1.2842
  698MOL0     C94101   0.852   4.274   1.314 -0.3835  1.5326  0.0871
  698MOL0     C94102   0.985   4.297   1.282 -0.3705 -0.0921 -0.2545
  698MOL0     O94103   0.996   4.397   1.181 -0.4742  0.0581 -0.3791
  698MOL0     C94104   1.132   4.389   1.124 -0.0426 -0.1887  0.1893
  698MOL0     C94105   1.121   4.474   1.000 -1.2299  0.0071  0.3823
  698MOL0     C94106   1.238   4.430   0.904 -0.1393  0.0143 -0.3660
  698MOL0     C94107   1.283   4.529   0.802 -0.2480  0.0921 -0.8744
  698MOL0     C94108   1.169   4.537   0.700  0.7465  0.3884 -0.2727
  698MOL0     C94109   1.182   4.641   0.588 -1.0909  0.4080 -0.7641
  698MOL0     C94110   1.301   4.596   0.500  0.4315 -0.8961 -1.2649
  698MOL0     C94111   1.304   4.687   0.375 -0.5877  0.0535 -0.3344
  698MOL0     N94112   1.429   4.657   0.310 -0.1038  0.7535  0.0206
  698MOL0     C94113   1.512   4.754   0.267  0.1060 -0.6046  0.2456
  698MOL0     C94114   1.597   4.697   0.179  0.1993 -0.7776  0.6707
  698MOL0     C94115   1.721   4.755   0.126 -0.7320  0.4349  0.3966
  698MOL0     C94116   1.723   4.772  -0.033 -0.0898  0.1983  0.0626
  698MOL0     C94117   1.868   4.786  -0.082 -0.5543  0.2721  0.5399
  698MOL0     C94118   1.970   4.871   0.014  0.2951 -0.2204 -0.6633
  698MOL0     O94119   1.903   4.999   0.026  0.0201  0.5730  0.8753
  698MOL0     C94120   1.960   5.105   0.096  0.6379 -0.3739  0.3976
  698MOL0     C94121   1.914   5.230   0.076  0.2611 -0.3018  0.2503
  698MOL0     C94122   1.963   5.339   0.154  0.1122  0.4130  0.2516
  698MOL0     C94123   2.067   5.320   0.255  0.6742 -0.8924  0.8274
  698MOL0     C94124   2.110   5.431   0.342 -0.5126  0.2495 -0.3622
  698MOL0     O94125   2.158   5.403   0.477 -0.2101  0.3283 -0.4942
  698MOL0     C94126   2.224   5.506   0.557 -0.7095 -0.3449  0.6426
  698MOL0     C94127   2.332   5.582   0.508  1.2049  0.1242  0.3312
  698MOL0     C94128   2.377   5.699   0.566 -0.4952 -0.2984 -0.3321
  698MOL0     C94129   2.333   5.732   0.690  0.1826  0.1871  0.4391
  698MOL0     O94130   2.394   5.828   0.768 -0.2043 -0.4420 -0.4628
  698MOL0     C94131   2.497   5.921   0.726 -0.6430  0.6809 -0.3963
  698MOL0     C94132   2.586   5.973   0.834 -0.0702 -0.2670  0.5044
  698MOL0     C94133   2.493   6.037   0.942 -0.0196 -0.0917 -0.6838
  698MOL0     C94134   2.588   6.101   1.050  0.1546  0.7373  0.6048
  698MOL0     C94135   2.512   6.170   1.158 -0.7828  0.0962 -0.0035
  698MOL0     C94136   2.608   6.254   1.252  0.2860 -0.9024 -0.1988
  698MOL0     C94137   2.555   6.291   1.391 -0.2428 -0.6021 -0.3702
  698MOL0     C94138   2.660   6.335   1.491 -0.1825  0.1973  0.5295
  698MOL0    Cl94139   2.711   6.195   1.589  0.2110 -0.2937 -0.2475
  698MOL0     C94140   2.225   5.661   0.742 -0.4319  0.0715 -0.4865
  698MOL0     C94141   2.164   5.552   0.676 -0.4636  0.7797  0.1768
  698MOL0     O94142   2.111   5.544   0.291 -0.6322 -0.0471 -0.0473
  698MOL0     C94143   2.108   5.186   0.279  0.4104 -0.0619  0.4512
  698MOL0     C94144   2.046   5.081   0.200 -0.0555  0.0227 -0.3144
  698MOL0     N94145   1.553   4.568   0.156 -0.4365 -0.5259 -0.1802
  698MOL0     N94146   1.458   4.546   0.236 -0.3796 -0.2059  0.2242
  698MOL0     C94147   1.093   4.235   1.356  0.3462  0.5720  0.5573
  698MOL0     C94148   1.061   4.145   1.451 -0.6199 -0.0914  0.0199
  698MOL0     C94149   0.817   3.806   1.617  0.5277 -0.8966  0.1421
  698MOL0     C94150   0.795   3.848   1.751  0.4155 -1.0150 -0.1436
  698MOL0     C94151   0.708   3.775   1.834  0.5253  0.5548 -0.7141
  698MOL0     C94152   0.665   3.650   1.794  0.9052  0.8002 -0.3606
  698MOL0     O94153   0.578   3.567   1.866  0.0639 -0.7397 -0.2933
  698MOL0     C94154   0.551   3.599   2.004  0.0685 -0.3532 -0.7455
  698MOL0     C94155   0.439   3.701   1.992  0.3497  0.6716 -0.4612
  698MOL0     C94156   0.424   3.773   2.126 -1.0317 -0.0742  0.8247
  698MOL0     C94157   0.326   3.887   2.133 -0.4990 -0.2865  0.0143
  698MOL0     C94158   0.190   3.852   2.092  0.0115  0.9777 -0.2258
  698MOL0     C94159   0.078   3.817   2.054 -0.0694 -0.7817 -0.4481
  698MOL0     C94160   0.688   3.602   1.661  1.0536 -0.0687  0.0255
  698MOL0     C94161   0.757   3.686   1.576  1.1616 -0.1299  0.4374
  698MOL0     C94162   0.756   3.637   1.435 -0.7947  0.2442  0.4867
  698MOL0     H94163   0.717   4.162   1.443  0.6487  0.7347 -0.1288
  698MOL0     H94164   0.777   4.324   1.254 -0.7340 -0.7198 -1.5018
  698MOL0     H94165   1.212   4.414   1.194 -1.5996 -1.2082  2.4820
  698MOL0     H94166   1.141   4.285   1.091 -2.4610 -0.0343 -1.1410
  698MOL0     H94167   1.132   4.577   1.033 -0.9173  0.6355 -1.5422
  698MOL0     H94168   1.025   4.452   0.952 -0.5778 -0.7345 -0.6361
  698MOL0     H94169   1.206   4.336   0.858 -1.5725  0.5665 -0.5213
  698MOL0     H94170   1.329   4.415   0.964 -0.3392  1.7108  0.4089
  698MOL0     H94171   1.294   4.630   0.842 -0.4508  0.6114 -2.0859
  698MOL0     H94172   1.378   4.496   0.760 -0.7306 -1.6678 -0.6426
  698MOL0     H94173   1.146   4.438   0.660  2.6328  0.0556 -0.6103
  698MOL0     H94174   1.082   4.569   0.758 -0.4616 -0.4318 -1.5823
  698MOL0     H94175   1.086   4.641   0.535 -0.3351  1.0972 -2.1847
  698MOL0     H94176   1.190   4.740   0.633 -3.3590  0.5246 -0.4773
  698MOL0     H94177   1.298   4.491   0.469  0.6571 -1.6369  0.9960
  698MOL0     H94178   1.386   4.616   0.567 -0.2144  1.6947 -1.1301
  698MOL0     H94179   1.218   4.665   0.311 -0.5561 -2.3643  0.3678
  698MOL0     H94180   1.304   4.792   0.405 -0.6258 -0.3226  1.0554
  698MOL0     H94181   1.504   4.859   0.290  3.3948 -0.2386  0.2279
  698MOL0     H94182   1.730   4.857   0.166  3.9117  0.3220  0.1572
  698MOL0     H94183   1.804   4.689   0.154 -1.9761 -1.9784 -1.2315
  698MOL0     H94184   1.679   4.686  -0.084 -2.6805  0.2585  2.0403
  698MOL0     H94185   1.666   4.864  -0.051 -0.3294  0.1803  0.7330
  698MOL0     H94186   1.866   4.840  -0.178  0.3628 -1.9541 -0.7983
  698MOL0     H94187   1.896   4.682  -0.098 -0.1913  0.3015  0.9737
  698MOL0     H94188   2.070   4.886  -0.027  0.8566 -3.8570 -0.9055
  698MOL0     H94189   1.988   4.826   0.112  1.0409  3.6760  1.2009
  698MOL0     H94190   1.849   5.258  -0.006 -1.8606 -0.6174  1.7607
  698MOL0     H94191   1.921   5.438   0.136 -3.8068 -0.5213  2.9841
  698MOL0     H94192   2.353   5.555   0.405 -0.2602 -1.5521  0.4227
  698MOL0     H94193   2.455   5.754   0.514  1.9824 -1.6073  1.7644
  698MOL0     H94194   2.566   5.870   0.658 -2.2769 -4.0218  1.0918
  698MOL0     H94195   2.444   6.002   0.674 -0.0839  0.5525 -1.1940
  698MOL0     H94196   2.655   5.893   0.865 -0.4986 -0.5685  0.6955
  698MOL0     H94197   2.649   6.049   0.788  0.1159 -0.1555  0.9336
  698MOL0     H94198   2.427   6.110   0.895  1.3363  1.9427  0.4252
  698MOL0     H94199   2.429   5.966   0.995  0.3465 -0.1540 -0.3175
  698MOL0     H94200   2.673   6.156   1.010  1.8461 -2.6872 -1.0032
  698MOL0     H94201   2.631   6.019   1.109  0.6200  2.0925  2.2262
  698MOL0     H94202   2.470   6.089   1.218  1.2819  1.0243  2.9437
  698MOL0     H94203   2.435   6.227   1.106  0.1270 -1.0389 -2.8057
  698MOL0     H94204   2.702   6.200   1.262  1.4867  1.2153  0.7764
  698MOL0     H94205   2.645   6.348   1.210 -0.2866  0.1191  1.4651
  698MOL0     H94206   2.519   6.197   1.435  3.7246 -1.1806  2.0977
  698MOL0     H94207   2.489   6.375   1.370  0.0607  0.0652  1.2361
  698MOL0     H94208   2.746   6.366   1.430 -0.3920 -3.1953 -1.7598
  698MOL0     H94209   2.631   6.425   1.546  0.2825 -0.5729  2.1088
  698MOL0     H94210   2.178   5.677   0.838  2.0178  0.8884  0.6516
  698MOL0     H94211   2.086   5.499   0.730  2.6856  0.6402  5.1734
  698MOL0     H94212   2.168   5.157   0.365  1.1984 -1.6937 -0.5980
  698MOL0     H94213   2.065   4.980   0.233 -0.8129  0.3935  1.3822
  698MOL0     H94214   1.198   4.262   1.357  0.5859 -0.3179  0.6048
  698MOL0     H94215   1.147   4.095   1.495 -0.1575  2.2214  1.9464
  698MOL0     H94216   0.817   3.953   1.766 -1.4495 -0.4104 -1.3531
  698MOL0     H94217   0.678   3.820   1.929  0.3036 -3.2944  1.2415
  698MOL0     H94218   0.633   3.653   2.053 -0.8617 -0.5002  1.0369
  698MOL0     H94219   0.526   3.516   2.070 -0.7705  1.9160  1.9607
  698MOL0     H94220   0.346   3.643   1.981  1.3306 -1.2941  1.0089
  698MOL0     H94221   0.441   3.779   1.915 -0.0522 -0.1826 -1.3580
  698MOL0     H94222   0.520   3.820   2.151 -0.2063 -2.8433  3.4868
  698MOL0     H94223   0.397   3.705   2.207 -0.7758 -0.3400  0.6929
  698MOL0     H94224   0.328   3.934   2.232  3.8222  1.2136 -0.5465
  698MOL0     H94225   0.361   3.971   2.073 -3.5575  0.5784 -0.7279
  698MOL0     H94226  -0.025   3.804   2.031 -0.8282  0.4160  1.9134
  698MOL0     H94227   0.654   3.507   1.622  1.9106 -0.7972  0.9903
  698MOL0     H94228   0.714   3.713   1.368  2.2150  1.4040 -0.2567
  698MOL0     H94229   0.859   3.615   1.403 -1.3911 -2.0471 -0.0583
  698MOL0     H94230   0.694   3.548   1.422 -1.4081  0.6438  0.6280
  699MOL0     O94231  10.801   0.758   2.125  0.0924 -0.0655  0.1843
  699MOL0     C94232  10.769   0.638   2.100 -0.3429 -1.1283  0.4977
  699MOL0     O94233  10.715   0.593   1.982  0.4793  1.0633 -0.5893
  699MOL0     C94234  10.709   0.674   1.878  0.2233 -1.4315 -0.1031
  699MOL0     C94235  10.599   0.676   1.790  0.1571 -0.5244 -0.4526
  699MOL0     C94236  10.601   0.758   1.663 -0.0451  0.9143 -0.4669
  699MOL0     C94237  10.713   0.815   1.610  0.4678  0.5337 -0.8721
  699MOL0     O94238  10.693   0.869   1.485  0.1277 -0.0616 -0.2429
  699MOL0     C94239  10.809   0.904   1.410 -0.7219 -0.2760 -0.1734
  699MOL0     C94240  10.757   0.986   1.290  0.8824  1.0898  0.5278
  699MOL0     C94241  10.867   1.037   1.190  0.9310 -0.2419 -0.5697
  699MOL0     C94242  10.818   1.139   1.101 -0.1979 -0.4828  0.0757
  699MOL0     C94243  10.932   1.176   0.999 -0.7905  0.3203 -0.3786
  699MOL0     C94244  10.941   1.068   0.883 -0.8629 -0.8130 -0.3651
  699MOL0     C94245  11.052   1.079   0.781 -1.2008 -1.2408 -0.2446
  699MOL0     C94246  11.062   0.947   0.697 -0.3040 -0.4846 -0.7516
  699MOL0     N94247  10.948   0.922   0.622  0.2593 -0.6513 -0.0077
  699MOL0     C94248  10.834   0.861   0.675 -0.0121  0.5172  0.2441
  699MOL0     C94249  10.755   0.857   0.570  0.7146 -0.8890  0.3149
  699MOL0     C94250  10.619   0.795   0.564 -0.1153  0.6880 -0.1114
  699MOL0     C94251  10.508   0.868   0.647  0.0012  1.1013  0.3208
  699MOL0     C94252  10.524   1.018   0.678 -0.4158  0.9031 -0.1958
  699MOL0     C94253  10.388   1.084   0.719  1.2696  0.1374  0.3062
  699MOL0     O94254  10.310   1.000   0.804 -0.3008  0.0685 -0.4200
  699MOL0     C94255  10.351   0.988   0.934  0.0739 -0.7073  0.0122
  699MOL0     C94256  10.429   1.094   1.004  1.0635  0.2328  0.1497
  699MOL0     C94257  10.441   1.081   1.154 -0.2999 -0.8789  0.2779
  699MOL0     C94258  10.379   0.975   1.216  0.5784  0.3403 -0.0418
  699MOL0     C94259  10.388   0.963   1.372 -0.1919 -0.1835  1.1277
  699MOL0     O94260  10.458   1.061   1.433 -0.7012  0.6038  0.4917
  699MOL0     C94261  10.452   1.071   1.569 -0.3442 -0.2909  0.1483
  699MOL0     C94262  10.346   1.033   1.652  0.7722  0.3219  0.2264
  699MOL0     C94263  10.342   1.063   1.782 -0.1006  0.1285 -0.6511
  699MOL0     C94264  10.454   1.123   1.841  0.6460 -0.4419 -0.3981
  699MOL0     O94265  10.453   1.163   1.973 -0.2835 -0.1003  0.4019
  699MOL0     C94266  10.552   1.111   2.065  0.3087  0.5502  0.2237
  699MOL0     C94267  10.532   1.173   2.207 -0.2472  0.8664 -0.1871
  699MOL0     C94268  10.375   1.179   2.252 -0.5504 -0.3243  0.1936
  699MOL0     C94269  10.349   1.174   2.412  0.3622  0.1719  0.4804
  699MOL0     C94270  10.404   1.037   2.460  0.3205  0.1590 -0.1538
  699MOL0     C94271  10.417   1.036   2.609 -0.5979  0.2007  1.0498
  699MOL0     C94272  10.480   0.905   2.654  0.7493  0.8406  0.4511
  699MOL0     C94273  10.570   0.935   2.771 -0.8618 -0.1051 -0.5122
  699MOL0    Cl94274  10.653   0.790   2.829 -0.5309  0.3695  0.1314
  699MOL0     C94275  10.566   1.166   1.765 -0.8650 -0.9030 -1.0224
  699MOL0     C94276  10.566   1.139   1.628 -0.0881  0.1891  0.1046
  699MOL0     O94277  10.342   0.859   1.421 -0.6396  0.0546 -0.2230
  699MOL0     C94278  10.295   0.881   1.149  0.2768  0.3579 -0.5582
  699MOL0     C94279  10.295   0.892   1.004  0.4481  0.6566 -0.2362
  699MOL0     N94280  10.813   0.920   0.459  0.3430 -0.1178 -0.4042
  699MOL0     N94281  10.930   0.954   0.491  0.2755 -0.3022  0.0838
  699MOL0     C94282  10.830   0.793   1.687 -0.1382 -0.2124 -0.2780
  699MOL0     C94283  10.830   0.727   1.817  0.2258 -0.1308 -0.5019
  699MOL0     C94284  10.784   0.534   2.203  0.2206 -0.0054 -1.2381
  699MOL0     C94285  10.757   0.405   2.167  0.2588  0.1559  0.7369
  699MOL0     C94286  10.760   0.295   2.249 -0.8988  0.3285 -0.7318
  699MOL0     C94287  10.802   0.320   2.380  0.0366 -0.0393  0.2129
  699MOL0     O94288  10.825   0.225   2.477 -0.2180  0.3317  0.2444
  699MOL0     C94289  10.808   0.086   2.451 -0.3030 -0.4677  0.3189
  699MOL0     C94290  10.811   0.009   2.583  0.7199  0.3383 -0.3621
  699MOL0     C94291  10.964  -0.010   2.614  0.9644 -0.1687 -0.9515
  699MOL0     C94292  11.000  -0.103   2.728 -0.5682 -0.2270 -0.3079
  699MOL0     C94293  10.942  -0.059   2.859 -0.9777 -0.2233 -1.0420
  699MOL0     C94294  10.890  -0.022   2.960 -0.1574 -0.0188  0.4526
  699MOL0     C94295  10.802   0.448   2.431 -0.3104 -0.0290  0.7665
  699MOL0     C94296  10.796   0.557   2.339  1.1182  0.8868 -1.2422
  699MOL0     C94297  10.803   0.685   2.409  0.8091 -0.1512 -0.8908
  699MOL0     H94298  10.501   0.633   1.809 -0.4660  0.1032 -2.0598
  699MOL0     H94299  10.505   0.783   1.620 -0.1056 -0.9184 -1.5385
  699MOL0     H94300  10.882   0.965   1.465 -0.5663 -0.5133 -0.1141
  699MOL0     H94301  10.853   0.810   1.376 -0.7184 -2.3897  4.8044
  699MOL0     H94302  10.697   1.066   1.336 -2.5743 -2.3619  2.5919
  699MOL0     H94303  10.689   0.924   1.232 -0.3381  1.7004  1.2613
  699MOL0     H94304  10.889   0.946   1.133  1.3941 -0.2341 -0.4035
  699MOL0     H94305  10.961   1.061   1.240  0.8571 -2.7504  0.9132
  699MOL0     H94306  10.726   1.105   1.052 -1.1301  1.2183  0.5525
  699MOL0     H94307  10.792   1.234   1.150 -0.0947  0.9758 -2.4897
  699MOL0     H94308  10.922   1.278   0.961  0.4706  1.5023  2.2362
  699MOL0     H94309  11.026   1.177   1.054 -1.1280 -0.4843  0.2388
  699MOL0     H94310  10.957   0.974   0.938  1.7537  0.6014  1.5109
  699MOL0     H94311  10.843   1.068   0.835 -0.7276  0.0322 -0.6579
  699MOL0     H94312  11.141   1.095   0.841 -1.9925  2.3026  0.1824
  699MOL0     H94313  11.035   1.157   0.706  0.9228 -1.5360 -1.0782
  699MOL0     H94314  11.148   0.949   0.630  0.9973  0.6877  0.8718
  699MOL0     H94315  11.076   0.860   0.762 -1.1933  0.7183  1.1295
  699MOL0     H94316  10.805   0.823   0.773 -1.0755 -0.6410 -0.4753
  699MOL0     H94317  10.578   0.778   0.464  1.7708  1.4445 -1.0577
  699MOL0     H94318  10.632   0.695   0.605 -2.4004 -0.9595 -2.9763
  699MOL0     H94319  10.410   0.854   0.601 -1.4140  2.1225  2.8494
  699MOL0     H94320  10.510   0.817   0.744 -0.8539 -0.0952 -0.2703
  699MOL0     H94321  10.555   1.083   0.595 -0.0240  2.0021  0.7862
  699MOL0     H94322  10.593   1.022   0.762 -1.7301  1.4626  0.9055
  699MOL0     H94323  10.329   1.096   0.627 -0.7867  0.4501  1.6170
  699MOL0     H94324  10.399   1.185   0.758  2.3245 -0.5708  1.9319
  699MOL0     H94325  10.466   1.183   0.956  1.2939 -0.6712 -1.4169
  699MOL0     H94326  10.478   1.169   1.206  2.2795  1.3294 -4.6568
  699MOL0     H94327  10.262   0.978   1.611 -0.1556 -0.2143  2.6958
  699MOL0     H94328  10.242   1.051   1.822  0.2444  2.3917  1.0393
  699MOL0     H94329  10.550   1.002   2.072 -2.4916  0.5322 -0.0815
  699MOL0     H94330  10.655   1.127   2.032  0.3465 -1.8666 -1.0991
  699MOL0     H94331  10.595   1.116   2.275 -0.1895 -0.7568 -1.5140
  699MOL0     H94332  10.568   1.276   2.210 -2.7242  1.8261 -0.3048
  699MOL0     H94333  10.337   1.270   2.206  1.5756 -0.3515 -1.7915
  699MOL0     H94334  10.324   1.094   2.206 -2.7099  0.7185  0.5607
  699MOL0     H94335  10.241   1.184   2.423 -0.1849 -3.9589  0.4001
  699MOL0     H94336  10.403   1.255   2.461 -1.2421  0.3838  1.9645
  699MOL0     H94337  10.503   1.028   2.414  0.2414  2.1147 -0.7581
  699MOL0     H94338  10.339   0.963   2.412  3.0093 -0.4179 -3.2441
  699MOL0     H94339  10.478   1.123   2.633  0.9405 -0.6209  0.2329
  699MOL0     H94340  10.320   1.047   2.660 -0.7150  0.4415  0.7765
  699MOL0     H94341  10.542   0.858   2.577  5.0507 -0.6379  4.3789
  699MOL0     H94342  10.406   0.830   2.681  1.0523  0.0239 -0.8880
  699MOL0     H94343  10.649   1.010   2.763  0.2951 -1.0986  0.9407
  699MOL0     H94344  10.517   0.965   2.862  2.2063  1.4044  0.9416
  699MOL0     H94345  10.647   1.227   1.804 -1.1941 -1.0823 -0.0267
  699MOL0     H94346  10.639   1.183   1.562  0.2785  0.4316  0.6585
  699MOL0     H94347  10.240   0.805   1.204 -0.8206  2.8395  1.9772
  699MOL0     H94348  10.234   0.828   0.941  0.2525  1.0404 -0.4403
  699MOL0     H94349  10.921   0.845   1.656 -0.1044  1.9952  2.9878
  699MOL0     H94350  10.926   0.709   1.864  1.8117 -1.1405 -3.8218
  699MOL0     H94351  10.733   0.377   2.065  0.2840  1.1841  0.4402
  699MOL0     H94352  10.743   0.196   2.209 -0.1008 -0.4107  0.6905
  699MOL0     H94353  10.886   0.045   2.386  2.4228  0.4777  2.7622
  699MOL0     H94354  10.712   0.066   2.403  0.6326  1.0020 -2.3674
  699MOL0     H94355  10.759  -0.085   2.563  2.8392 -0.8578 -0.4954
  699MOL0     H94356  10.766   0.064   2.667  0.5235 -0.7721  0.2836
  699MOL0     H94357  11.010   0.088   2.633 -0.5479  0.5264 -0.7199
  699MOL0     H94358  11.019  -0.042   2.525 -0.6376 -1.4700 -1.5139
  699MOL0     H94359  10.970  -0.206   2.707 -1.7106  0.3326 -1.5968
  699MOL0     H94360  11.109  -0.106   2.740 -0.0353  1.2380 -3.6864
  699MOL0     H94361  10.841   0.008   3.050 -1.5271 -1.4944  0.2392
  699MOL0     H94362  10.831   0.459   2.535  0.4193 -2.0678  0.8228
  699MOL0     H94363  10.884   0.751   2.376  0.3737  0.3250 -1.0372
  699MOL0     H94364  10.713   0.746   2.391  3.1630  4.9812  2.1668
  699MOL0     H94365  10.804   0.669   2.518 -0.2067  0.5019 -0.7664
  700MOL0     O94366   8.086   2.334   3.185  0.1511  0.4515  0.0968
  700MOL0     C94367   8.001   2.257   3.160  0.5510 -0.0634 -0.4654
  700MOL0     O94368   7.990   2.134   3.214 -0.7730 -0.2520  0.6642
  700MOL0     C94369   8.064   2.069   3.307  0.0139  1.1824  0.5420
  700MOL0     C94370   8.136   2.131   3.400  0.4454 -0.0268  0.1157
  700MOL0     C94371   8.210   2.057   3.495  0.0170  1.1428  0.4979
  700MOL0     C94372   8.222   1.924   3.489 -0.2100  0.1917  1.0501
  700MOL0     O94373   8.298   1.837   3.560 -0.2083 -0.1594  0.4561
  700MOL0     C94374   8.379   1.894   3.668 -0.6317  0.6028  0.7742
  700MOL0     C94375   8.430   1.788   3.767 -0.6655 -0.4480 -0.5634
  700MOL0     C94376   8.541   1.704   3.702 -0.4741 -0.2559 -0.2650
  700MOL0     C94377   8.605   1.586   3.786  0.6493 -0.2221  0.4334
  700MOL0     C94378   8.750   1.553   3.743 -0.2188  0.4191 -0.0977
  700MOL0     C94379   8.809   1.439   3.836  0.0686  0.2497 -0.7438
  700MOL0     C94380   8.820   1.488   3.977 -1.0599 -0.1500 -0.7134
  700MOL0     C94381   8.756   1.392   4.079  1.3305  0.3466 -0.0374
  700MOL0     N94382   8.784   1.438   4.215  0.0277 -0.3590  0.8812
  700MOL0     C94383   8.719   1.535   4.294 -0.2146  0.2829  0.1030
  700MOL0     C94384   8.779   1.515   4.415 -0.3660 -0.3220  0.2495
  700MOL0     C94385   8.739   1.595   4.537  0.3803 -0.2575  0.2335
  700MOL0     C94386   8.811   1.733   4.539  0.5476 -0.2502  0.0746
  700MOL0     C94387   8.783   1.827   4.659  0.1748 -0.2021  0.5635
  700MOL0     C94388   8.836   1.761   4.783  0.4569 -0.3975 -0.0459
  700MOL0     O94389   8.861   1.845   4.897 -0.6870 -0.2189  0.6982
  700MOL0     C94390   8.880   1.792   5.026  0.2893 -0.3551  0.0541
  700MOL0     C94391   8.902   1.660   5.065  0.3863 -0.0149  0.2777
  700MOL0     C94392   8.907   1.628   5.207 -0.6402 -0.3767  0.1566
  700MOL0     C94393   8.883   1.726   5.306  0.1720 -0.3088 -0.3390
  700MOL0     C94394   8.891   1.692   5.450  0.4736 -0.1756 -0.3752
  700MOL0     O94395   8.842   1.784   5.538 -1.0780  0.8210  0.7086
  700MOL0     C94396   8.811   1.744   5.667  1.1711 -0.1217  0.2976
  700MOL0     C94397   8.834   1.849   5.760  0.0776 -0.5482  1.2495
  700MOL0     C94398   8.810   1.832   5.890  0.9419  0.3053 -0.5178
  700MOL0     C94399   8.770   1.705   5.942  1.7359 -0.7183 -0.2262
  700MOL0     O94400   8.753   1.696   6.073 -0.1780  0.6906  0.1714
  700MOL0     C94401   8.628   1.639   6.113 -0.0500 -0.2217 -0.6538
  700MOL0     C94402   8.569   1.695   6.241  0.3488  0.6631 -0.4133
  700MOL0     C94403   8.571   1.847   6.230  0.4074  0.5930  0.4418
  700MOL0     C94404   8.591   1.931   6.360 -0.0576 -0.5371 -0.9874
  700MOL0     C94405   8.736   1.973   6.385  0.0081  0.2482  0.4646
  700MOL0     C94406   8.783   2.091   6.301  0.1404  0.4266 -0.4967
  700MOL0     C94407   8.928   2.079   6.293 -0.6561  0.1726  0.3338
  700MOL0     C94408   8.980   2.201   6.219  0.5043  0.2526  0.6272
  700MOL0    Cl94409   8.912   2.211   6.053  0.4084 -0.4537 -0.2088
  700MOL0     C94410   8.759   1.595   5.860  0.0351 -0.2326  0.6244
  700MOL0     C94411   8.774   1.615   5.718  0.0825  0.5567  0.0037
  700MOL0     O94412   8.937   1.582   5.481 -0.0942  0.6513 -1.1571
  700MOL0     C94413   8.863   1.858   5.266  0.2945 -0.2564  0.6757
  700MOL0     C94414   8.865   1.883   5.127 -0.3951 -0.7001  0.1558
  700MOL0     N94415   8.879   1.420   4.405  0.5496 -0.3268  0.0227
  700MOL0     N94416   8.879   1.364   4.284  0.4029 -0.2228  0.9078
  700MOL0     C94417   8.164   1.858   3.385  0.2273 -0.3778 -0.8590
  700MOL0     C94418   8.081   1.930   3.300  0.4846  0.1013  0.0549
  700MOL0     C94419   7.887   2.301   3.081  0.6616 -0.5984 -0.6265
  700MOL0     C94420   7.781   2.202   3.074 -0.2052  0.0154 -0.5778
  700MOL0     C94421   7.692   2.219   2.970 -0.0557  0.4344 -1.4990
  700MOL0     C94422   7.681   2.343   2.912 -0.0181 -0.1011  0.1608
  700MOL0     O94423   7.575   2.337   2.824 -0.5101 -0.2664  0.3078
  700MOL0     C94424   7.508   2.459   2.777  0.5027 -0.2455  0.3726
  700MOL0     C94425   7.427   2.524   2.901 -0.2757  0.1538  0.3954
  700MOL0     C94426   7.400   2.672   2.895 -0.6705  1.3746 -0.1112
  700MOL0     C94427   7.256   2.711   2.927  0.1890  0.0257  0.0315
  700MOL0     C94428   7.229   2.851   2.929  0.0893  0.4421  0.7019
  700MOL0     C94429   7.195   2.971   2.930  0.3390 -0.2288 -0.3038
  700MOL0     C94430   7.768   2.443   2.926  0.1617  0.1995 -0.2827
  700MOL0     C94431   7.879   2.422   3.006 -0.4546  0.0318 -0.4959
  700MOL0     C94432   7.999   2.532   2.992  0.0735 -0.2599  0.2113
  700MOL0     H94433   8.146   2.239   3.408 -2.4021  0.4325 -1.1561
  700MOL0     H94434   8.273   2.120   3.559  2.3260  3.3519 -3.5000
  700MOL0     H94435   8.468   1.941   3.625 -1.6445 -0.6092 -3.0897
  700MOL0     H94436   8.332   1.976   3.721 -3.9856 -0.4877 -0.2239
  700MOL0     H94437   8.348   1.727   3.807  1.1784 -1.9326  1.2053
  700MOL0     H94438   8.471   1.832   3.858 -0.1923 -0.6695 -0.6621
  700MOL0     H94439   8.617   1.780   3.681 -0.3971 -0.3241 -0.2351
  700MOL0     H94440   8.507   1.674   3.603 -2.3519  0.5146  0.0953
  700MOL0     H94441   8.594   1.618   3.891 -2.6408  0.7293 -0.0671
  700MOL0     H94442   8.536   1.501   3.782 -1.3408  1.3722 -1.8234
  700MOL0     H94443   8.763   1.522   3.639  0.4994  0.2109  0.0442
  700MOL0     H94444   8.802   1.647   3.764 -1.4948  0.8093  1.5161
  700MOL0     H94445   8.747   1.349   3.831  2.7146 -1.6589 -1.2923
  700MOL0     H94446   8.904   1.401   3.798  0.2931  1.9404 -1.9681
  700MOL0     H94447   8.770   1.583   3.998 -4.4350 -1.7484 -0.8102
  700MOL0     H94448   8.924   1.493   4.007 -1.6661  0.1553  1.4703
  700MOL0     H94449   8.647   1.389   4.078  1.2471 -2.8320  2.4990
  700MOL0     H94450   8.779   1.285   4.083 -0.0421  0.0143 -0.4773
  700MOL0     H94451   8.635   1.595   4.261  0.3076  0.0930 -1.6592
  700MOL0     H94452   8.632   1.611   4.550  0.4140 -0.2442  0.5161
  700MOL0     H94453   8.769   1.522   4.613 -2.1736 -1.4978  0.1358
  700MOL0     H94454   8.919   1.733   4.523  1.0057  2.9989  2.1460
  700MOL0     H94455   8.774   1.777   4.446  2.0291 -0.6165 -0.7056
  700MOL0     H94456   8.680   1.862   4.670 -0.6944 -1.3847 -2.6722
  700MOL0     H94457   8.854   1.904   4.628  0.1637 -1.0795 -1.8555
  700MOL0     H94458   8.926   1.705   4.755 -1.5944 -2.8782 -2.2669
  700MOL0     H94459   8.759   1.687   4.808 -1.0415  0.5410 -1.6832
  700MOL0     H94460   8.916   1.587   4.986 -3.8502  1.1480 -1.8320
  700MOL0     H94461   8.921   1.525   5.236 -0.3079 -0.4846 -0.3777
  700MOL0     H94462   8.865   1.950   5.738  0.2504 -1.0212 -0.9552
  700MOL0     H94463   8.805   1.911   5.965  0.5053 -1.9467  2.0037
  700MOL0     H94464   8.556   1.652   6.032 -0.2884  3.6915  0.0273
  700MOL0     H94465   8.650   1.534   6.135  1.7967  0.7838  3.0233
  700MOL0     H94466   8.464   1.668   6.256  0.5545 -1.1030 -1.7578
  700MOL0     H94467   8.622   1.653   6.327 -2.6291 -0.3447  1.0741
  700MOL0     H94468   8.624   1.889   6.144  0.0192 -0.8765 -0.5567
  700MOL0     H94469   8.472   1.869   6.189  0.6309  0.1930 -0.3415
  700MOL0     H94470   8.545   1.878   6.445 -2.2103 -0.3258 -1.9623
  700MOL0     H94471   8.531   2.022   6.345  0.6827  0.4448  1.5207
  700MOL0     H94472   8.799   1.885   6.372  0.1113  0.2771  0.7628
  700MOL0     H94473   8.759   2.002   6.488 -0.7620  0.6969  0.5202
  700MOL0     H94474   8.724   2.097   6.209 -1.3587  0.6439  0.4431
  700MOL0     H94475   8.761   2.186   6.349  2.1605  0.4549  0.4570
  700MOL0     H94476   8.956   1.987   6.241 -0.2037  1.3980 -1.7114
  700MOL0     H94477   8.974   2.085   6.392 -2.6328  1.3791  1.2567
  700MOL0     H94478   8.948   2.289   6.276  1.5275  0.7202  0.4883
  700MOL0     H94479   9.089   2.200   6.225  0.7741  2.0514 -2.2537
  700MOL0     H94480   8.767   1.496   5.904 -2.3988  0.2968  2.4290
  700MOL0     H94481   8.760   1.531   5.651 -0.8881  1.3721 -0.8636
  700MOL0     H94482   8.866   1.941   5.336 -3.4709  2.0188 -1.5448
  700MOL0     H94483   8.836   1.983   5.096 -0.4807 -0.7421  0.0998
  700MOL0     H94484   8.157   1.750   3.372 -0.9595 -0.2586 -1.3183
  700MOL0     H94485   8.022   1.883   3.221 -2.0806  0.3559  1.7120
  700MOL0     H94486   7.781   2.107   3.126  1.7567 -0.5048 -1.4407
  700MOL0     H94487   7.618   2.142   2.950  2.2442 -1.7286 -2.2384
  700MOL0     H94488   7.449   2.432   2.689  0.7269 -3.3968  1.0413
  700MOL0     H94489   7.581   2.534   2.746  0.5029 -0.0405  0.8590
  700MOL0     H94490   7.490   2.517   2.990 -0.2260  0.9189  0.4288
  700MOL0     H94491   7.332   2.472   2.916 -0.0414 -0.7571 -1.1181
  700MOL0     H94492   7.426   2.705   2.794  2.6620  3.5692  1.3020
  700MOL0     H94493   7.469   2.723   2.962 -1.2100  1.1428  0.6390
  700MOL0     H94494   7.183   2.660   2.863 -2.3062  0.3101  2.4467
  700MOL0     H94495   7.252   2.669   3.028  0.3817 -1.5559 -0.5906
  700MOL0     H94496   7.165   3.073   2.932  1.0123  0.0644  3.8988
  700MOL0     H94497   7.761   2.525   2.856  1.5586 -0.9423 -1.8239
  700MOL0     H94498   8.008   2.587   3.086  1.6084  0.0210 -0.0706
  700MOL0     H94499   8.091   2.478   2.968 -0.7069 -0.7651 -1.9105
  700MOL0     H94500   7.989   2.601   2.908 -1.2897  0.6512  1.0723
  701MOL0     O94501   8.360   6.259   5.258 -0.8054  0.3939 -0.2136
  701MOL0     C94502   8.308   6.211   5.155 -0.3770  0.6693 -0.9546
  701MOL0     O94503   8.215   6.108   5.153 -0.4449  0.2742 -0.0968
  701MOL0     C94504   8.166   6.063   5.270  0.1694  0.3122  0.1219
  701MOL0     C94505   8.032   6.090   5.311  0.0066  0.2660 -0.2643
  701MOL0     C94506   7.974   6.052   5.432 -0.1246  0.7932  0.4652
  701MOL0     C94507   8.063   6.002   5.531  0.9058 -0.7999 -0.1871
  701MOL0     O94508   8.028   5.980   5.665 -0.2041  0.5513 -0.0143
  701MOL0     C94509   7.942   6.057   5.738 -0.4023  0.7035  0.2973
  701MOL0     C94510   7.833   5.964   5.794  0.4643 -0.0869  0.2807
  701MOL0     C94511   7.749   6.018   5.916  0.6229  0.7534  0.3264
  701MOL0     C94512   7.698   6.160   5.901 -0.7028  0.8171  0.0619
  701MOL0     C94513   7.597   6.205   6.013 -0.2791  0.5263  0.6662
  701MOL0     C94514   7.449   6.166   6.004  0.2179  1.0632 -0.8634
  701MOL0     C94515   7.362   6.252   6.103 -0.7985 -0.4317 -0.8945
  701MOL0     C94516   7.221   6.204   6.107 -0.3625 -0.0532 -0.8554
  701MOL0     N94517   7.139   6.282   6.200  0.4849 -0.1403 -0.4860
  701MOL0     C94518   7.129   6.285   6.333  0.3794 -0.3369 -0.7581
  701MOL0     C94519   7.054   6.401   6.358 -0.0609  0.2321  0.0486
  701MOL0     C94520   7.016   6.453   6.492 -0.1433  0.1509  0.5124
  701MOL0     C94521   7.065   6.593   6.533  0.7204 -0.4993 -0.8060
  701MOL0     C94522   6.965   6.647   6.647 -0.6393  0.1122 -0.0198
  701MOL0     C94523   7.002   6.775   6.727  0.6506 -0.0891  0.1204
  701MOL0     O94524   7.006   6.880   6.626 -0.1283  0.0735  0.2190
  701MOL0     C94525   6.920   6.982   6.617 -0.1872 -0.9158 -0.0832
  701MOL0     C94526   6.799   6.990   6.688  0.0366  0.0498 -0.0520
  701MOL0     C94527   6.718   7.100   6.677  0.6096 -1.3535  0.0413
  701MOL0     C94528   6.760   7.215   6.598 -0.1574 -0.6054 -0.0428
  701MOL0     C94529   6.669   7.336   6.583 -1.1428  0.0713 -0.1393
  701MOL0     O94530   6.553   7.332   6.657  0.9116 -0.0318  0.3862
  701MOL0     C94531   6.463   7.438   6.655 -0.9916 -1.3720 -0.2756
  701MOL0     C94532   6.499   7.573   6.654 -0.7827  0.3672 -0.3021
  701MOL0     C94533   6.403   7.672   6.656 -0.3694 -0.7546  0.6448
  701MOL0     C94534   6.272   7.625   6.648 -0.4070 -0.7287 -0.0601
  701MOL0     O94535   6.173   7.718   6.633 -0.1683 -0.6275  0.5179
  701MOL0     C94536   6.133   7.745   6.500  0.0293 -0.0559  0.2594
  701MOL0     C94537   6.112   7.890   6.494  0.2585 -0.1557 -0.3827
  701MOL0     C94538   5.995   7.928   6.393 -0.2665 -0.5141  0.0003
  701MOL0     C94539   5.909   8.042   6.454 -1.2153  0.6380 -0.2124
  701MOL0     C94540   5.821   8.112   6.355  0.4572 -1.0159 -0.6107
  701MOL0     C94541   5.897   8.207   6.264 -0.5080 -0.5954 -0.2026
  701MOL0     C94542   5.793   8.310   6.207 -0.7424  0.2475  0.2105
  701MOL0     C94543   5.867   8.417   6.120  0.0926 -0.8044 -0.1951
  701MOL0    Cl94544   5.765   8.558   6.084 -0.3328 -0.5257  0.0866
  701MOL0     C94545   6.239   7.492   6.652 -0.0532 -0.2466  1.1836
  701MOL0     C94546   6.328   7.396   6.671  0.5488 -0.1779 -0.2321
  701MOL0     O94547   6.709   7.427   6.512  0.0803  0.4369 -0.2111
  701MOL0     C94548   6.882   7.210   6.528  0.2165 -0.0558  0.0083
  701MOL0     C94549   6.958   7.096   6.542  0.2178 -0.0322  0.6944
  701MOL0     N94550   7.013   6.461   6.242 -0.9991  0.2007  0.1574
  701MOL0     N94551   7.060   6.383   6.143 -0.9915  0.5601  0.3713
  701MOL0     C94552   8.195   5.977   5.493  1.3526  1.0158  0.1651
  701MOL0     C94553   8.245   6.002   5.363 -0.1357  0.3610 -0.0637
  701MOL0     C94554   8.373   6.252   5.029  0.5756  0.7743  0.8821
  701MOL0     C94555   8.336   6.179   4.908 -0.8412 -0.5575  0.1387
  701MOL0     C94556   8.377   6.219   4.785  0.2087 -0.6101 -0.4644
  701MOL0     C94557   8.458   6.337   4.762 -0.3976  0.1686  0.2396
  701MOL0     O94558   8.496   6.364   4.630  0.9298 -0.5436  0.2837
  701MOL0     C94559   8.556   6.500   4.608 -1.0810 -0.4589 -0.0466
  701MOL0     C94560   8.472   6.627   4.614  0.5400  0.3948  0.1673
  701MOL0     C94561   8.521   6.752   4.546 -0.6347 -0.1432  0.1243
  701MOL0     C94562   8.619   6.829   4.628 -1.2309  1.2772  0.2448
  701MOL0     C94563   8.750   6.763   4.611  0.3197 -0.4305  0.5877
  701MOL0     C94564   8.863   6.716   4.599 -0.2624  0.2013 -0.3108
  701MOL0     C94565   8.494   6.411   4.873  0.5965  0.7330  0.2183
  701MOL0     C94566   8.447   6.374   5.007  0.0619 -0.1573  0.1197
  701MOL0     C94567   8.486   6.478   5.114 -0.6078  0.0566 -0.3764
  701MOL0     H94568   7.966   6.148   5.247 -1.9110 -0.3644  1.0630
  701MOL0     H94569   7.868   6.069   5.450 -0.1032  1.0863  0.3174
  701MOL0     H94570   8.002   6.092   5.823  0.3599 -4.1727  2.0575
  701MOL0     H94571   7.901   6.140   5.679 -1.1008 -1.3588 -2.3534
  701MOL0     H94572   7.882   5.876   5.835 -1.2688  0.0221  2.8635
  701MOL0     H94573   7.770   5.928   5.712  0.2992 -2.0173  1.1957
  701MOL0     H94574   7.799   5.999   6.012 -2.5034  1.1620  2.1500
  701MOL0     H94575   7.664   5.950   5.919  1.9804 -1.0468 -0.1284
  701MOL0     H94576   7.795   6.208   5.889  1.3087 -2.9242  0.0157
  701MOL0     H94577   7.645   6.164   5.804  0.6785 -0.7311 -0.7986
  701MOL0     H94578   7.617   6.159   6.110 -3.8611  0.0292  1.3366
  701MOL0     H94579   7.591   6.314   6.021  2.2795  0.5905  2.8475
  701MOL0     H94580   7.409   6.168   5.903 -0.8041  1.8426 -0.4534
  701MOL0     H94581   7.439   6.060   6.029 -1.0487  1.5342  0.7886
  701MOL0     H94582   7.361   6.361   6.087  2.5072  0.0954  1.4950
  701MOL0     H94583   7.387   6.235   6.208 -1.8549 -1.0437 -0.7296
  701MOL0     H94584   7.189   6.235   6.007  1.3634  0.0778 -1.4045
  701MOL0     H94585   7.223   6.099   6.137 -0.1816  0.7636  2.3402
  701MOL0     H94586   7.170   6.214   6.404  0.3773  1.2627  0.9319
  701MOL0     H94587   6.908   6.460   6.502 -0.4007 -0.2452 -1.6457
  701MOL0     H94588   7.052   6.385   6.571  1.9187  0.1167 -0.3942
  701MOL0     H94589   7.166   6.581   6.576  1.1866 -1.2783 -2.0586
  701MOL0     H94590   7.073   6.656   6.445  1.6979  0.6891  0.0912
  701MOL0     H94591   6.945   6.565   6.717 -1.2758 -1.3140 -1.7793
  701MOL0     H94592   6.865   6.663   6.605 -1.0084 -2.0480 -0.0952
  701MOL0     H94593   7.102   6.757   6.768  0.8772 -1.3628 -0.9221
  701MOL0     H94594   6.937   6.788   6.814 -0.1540  3.2584 -0.8284
  701MOL0     H94595   6.765   6.916   6.759  0.6202 -1.0054 -0.8360
  701MOL0     H94596   6.624   7.106   6.731  0.8011  2.6142  0.2691
  701MOL0     H94597   6.603   7.602   6.657 -0.2833 -1.1982 -1.5423
  701MOL0     H94598   6.415   7.779   6.645 -0.7636 -0.6629  1.1059
  701MOL0     H94599   6.205   7.700   6.431 -3.2616 -1.5339 -2.4429
  701MOL0     H94600   6.036   7.701   6.480 -0.2778  1.1385 -1.0577
  701MOL0     H94601   6.086   7.927   6.593 -1.6593  1.9762 -1.5881
  701MOL0     H94602   6.201   7.944   6.460  0.4689  0.4450  1.0695
  701MOL0     H94603   6.029   7.983   6.305 -2.2813  1.4072  0.3422
  701MOL0     H94604   5.932   7.840   6.374  1.0611 -1.6658  0.7595
  701MOL0     H94605   5.974   8.115   6.504  2.9829 -2.1004 -1.1631
  701MOL0     H94606   5.851   7.998   6.536  0.3265 -3.1099 -0.9363
  701MOL0     H94607   5.740   8.167   6.403 -1.5706 -2.0644 -2.6486
  701MOL0     H94608   5.763   8.037   6.299 -2.4658  1.3658 -1.0115
  701MOL0     H94609   5.983   8.254   6.313 -2.0133 -0.6827  2.7546
  701MOL0     H94610   5.944   8.149   6.184 -1.6590 -4.0241  1.4278
  701MOL0     H94611   5.732   8.355   6.286 -1.3190 -1.3663  0.7379
  701MOL0     H94612   5.728   8.249   6.143  1.1101 -1.2597 -0.3151
  701MOL0     H94613   5.953   8.451   6.179  0.3317  3.0422 -2.4082
  701MOL0     H94614   5.897   8.381   6.021  1.0600  2.1112 -1.0579
  701MOL0     H94615   6.134   7.468   6.658  0.3046 -1.6318  2.8920
  701MOL0     H94616   6.299   7.292   6.681  0.3581 -0.1375 -0.3723
  701MOL0     H94617   6.914   7.289   6.460 -0.0773 -1.4739 -1.8624
  701MOL0     H94618   7.047   7.081   6.482 -1.2650  2.2337 -2.3455
  701MOL0     H94619   8.271   5.956   5.568  0.5726 -2.3167  0.1351
  701MOL0     H94620   8.349   5.987   5.334  0.2557  1.6310  0.6313
  701MOL0     H94621   8.282   6.086   4.919 -1.6659  0.0355  1.3995
  701MOL0     H94622   8.343   6.174   4.693  0.8354 -0.7416 -0.6379
  701MOL0     H94623   8.611   6.501   4.513  2.0058 -0.8050  1.5850
  701MOL0     H94624   8.635   6.508   4.683 -0.4447 -3.5658 -0.2760
  701MOL0     H94625   8.448   6.648   4.719  0.2571 -3.0289  0.9127
  701MOL0     H94626   8.376   6.611   4.564 -0.6864  1.0957  2.1773
  701MOL0     H94627   8.434   6.819   4.547 -1.1486 -0.7889 -0.1638
  701MOL0     H94628   8.560   6.719   4.449  0.9709 -0.5184  0.8710
  701MOL0     H94629   8.633   6.930   4.588  1.8259  1.1124  0.6713
  701MOL0     H94630   8.578   6.835   4.729 -4.5685 -0.3329 -0.8589
  701MOL0     H94631   8.959   6.669   4.607 -0.6964 -0.6906 -0.2479
  701MOL0     H94632   8.543   6.507   4.862  2.0248 -0.0901 -0.9700
  701MOL0     H94633   8.543   6.559   5.069  2.7822 -1.0567  1.4777
  701MOL0     H94634   8.394   6.514   5.160  0.7694 -0.3231  3.0387
  701MOL0     H94635   8.545   6.428   5.192 -2.4801  0.4930  1.4042
  702MOL0     O94636   8.727   7.734  10.376 -0.3410 -0.2258  0.5217
  702MOL0     C94637   8.806   7.668  10.440 -0.7708 -0.0643  0.6675
  702MOL0     O94638   8.815   7.683  10.572 -0.3555  0.0257 -0.2553
  702MOL0     C94639   8.717   7.738  10.643  0.2898  1.4356 -0.2784
  702MOL0     C94640   8.597   7.670  10.667 -0.3391 -0.0489 -0.1003
  702MOL0     C94641   8.487   7.729  10.740 -0.3824 -0.6428 -0.2561
  702MOL0     C94642   8.499   7.859  10.789  0.7903  0.3917  0.3862
  702MOL0     O94643   8.390   7.928  10.843 -0.6524 -0.0974 -1.2840
  702MOL0     C94644   8.261   7.866  10.873  0.0804 -0.1147 -0.4323
  702MOL0     C94645   8.264   7.769  10.980 -0.3534  0.1045 -0.3828
  702MOL0     C94646   8.127   7.756  11.042  0.1496  0.3034 -0.1187
  702MOL0     C94647   8.133   7.625  11.127 -0.4109  0.0786 -0.8722
  702MOL0     C94648   7.989   7.599  11.177  0.3495 -0.1484  0.3698
  702MOL0     C94649   7.966   7.462  11.242  0.6184  0.6824 -0.2452
  702MOL0     C94650   8.061   7.444  11.359 -0.0236 -1.9008  0.2723
  702MOL0     C94651   8.018   7.314  11.434 -0.6035 -0.0713 -0.2918
  702MOL0     N94652   8.110   7.283  11.541 -0.2337  0.5144 -0.5711
  702MOL0     C94653   8.100   7.316  11.666  0.1127 -0.6916 -0.2670
  702MOL0     C94654   8.207   7.278  11.737 -0.1301 -0.4865  0.1298
  702MOL0     C94655   8.244   7.293  11.882 -0.2043  0.5966  0.2840
  702MOL0     C94656   8.368   7.365  11.906  0.2358 -0.8359 -0.8218
  702MOL0     C94657   8.389   7.380  12.059 -0.0056  0.1481 -0.1046
  702MOL0     C94658   8.506   7.469  12.097  0.4377 -0.3396  0.2584
  702MOL0     O94659   8.623   7.391  12.122  0.4259  0.1478 -0.2650
  702MOL0     C94660   8.741   7.446  12.089  0.3475  0.5350  1.1924
  702MOL0     C94661   8.841   7.349  12.056 -0.3269  0.5604 -0.5771
  702MOL0     C94662   8.967   7.389  12.028 -0.5722  0.4156  0.8601
  702MOL0     C94663   9.000   7.530  12.015  0.4400  0.0460  0.2893
  702MOL0     C94664   9.136   7.563  11.975 -0.3221  0.1076 -0.4917
  702MOL0     O94665   9.160   7.698  11.951  0.0080  0.1135 -0.4405
  702MOL0     C94666   9.286   7.744  11.918  0.5315 -0.1670  0.3671
  702MOL0     C94667   9.289   7.831  11.811  0.3155 -0.6460  0.0840
  702MOL0     C94668   9.419   7.894  11.782 -0.0910 -0.5851 -0.2758
  702MOL0     C94669   9.537   7.873  11.859  0.4021 -0.2288 -0.3431
  702MOL0     O94670   9.653   7.940  11.831  0.4107  0.1816  0.2450
  702MOL0     C94671   9.694   8.039  11.936 -0.3722  1.1859 -0.5380
  702MOL0     C94672   9.596   8.138  11.969  0.9066 -0.5723 -0.3773
  702MOL0     C94673   9.573   8.240  11.857  0.3391  0.3705  0.0717
  702MOL0     C94674   9.438   8.312  11.869  0.0609 -0.5836 -0.3394
  702MOL0     C94675   9.322   8.214  11.836  0.0962 -0.2261  0.1839
  702MOL0     C94676   9.186   8.293  11.850  0.0504 -0.0090  0.0360
  702MOL0     C94677   9.123   8.284  11.982 -0.6265 -0.1083 -0.1563
  702MOL0     C94678   9.058   8.146  12.002  0.0921 -0.9391  0.0064
  702MOL0    Cl94679   8.973   8.169  12.163 -0.0699 -0.0599  0.0762
  702MOL0     C94680   9.538   7.772  11.955 -0.1899  0.8524  0.0100
  702MOL0     C94681   9.407   7.717  11.986 -0.9446  0.1236 -0.1175
  702MOL0     O94682   9.222   7.475  11.958  0.6328  0.2308 -0.6848
  702MOL0     C94683   8.893   7.620  12.037 -0.7881 -0.7243  0.3142
  702MOL0     C94684   8.767   7.590  12.084 -0.1771  0.0458 -0.6034
  702MOL0     N94685   8.276   7.205  11.649 -0.7574 -0.2008  0.0811
  702MOL0     N94686   8.226   7.210  11.531 -0.1773 -0.3201 -0.4302
  702MOL0     C94687   8.607   7.934  10.754 -0.2785  1.4521 -0.1654
  702MOL0     C94688   8.715   7.874  10.677  1.0744  0.4707  0.2055
  702MOL0     C94689   8.898   7.575  10.371 -0.9301  0.2665 -0.0221
  702MOL0     C94690   8.879   7.548  10.239  0.1546  0.5843  0.0664
  702MOL0     C94691   8.962   7.470  10.163 -0.0586  0.4340 -0.1841
  702MOL0     C94692   9.063   7.400  10.224  0.3430  0.3195  0.0905
  702MOL0     O94693   9.142   7.312  10.153 -0.2536  0.0840 -0.3875
  702MOL0     C94694   9.081   7.195  10.097  0.4146  0.2474 -0.4810
  702MOL0     C94695   9.200   7.121  10.030  0.2143  0.1160 -0.4935
  702MOL0     C94696   9.303   7.210   9.954 -0.2502 -0.3770 -0.6175
  702MOL0     C94697   9.374   7.118   9.871 -0.4903  0.6681 -0.0331
  702MOL0     C94698   9.453   7.193   9.779 -0.0100 -0.2079 -0.8214
  702MOL0     C94699   9.516   7.253   9.701  0.2976  0.0779  1.0109
  702MOL0     C94700   9.104   7.432  10.355 -0.3548 -0.6202 -0.0044
  702MOL0     C94701   9.031   7.521  10.431 -0.1617 -0.1797  0.2245
  702MOL0     C94702   9.094   7.556  10.562  0.7248 -0.5514 -0.2309
  702MOL0     H94703   8.585   7.570  10.625 -0.1268 -0.7387  1.4329
  702MOL0     H94704   8.398   7.672  10.766  0.4504 -0.8255  2.4043
  702MOL0     H94705   8.198   7.950  10.901 -0.2930  0.0059 -1.5888
  702MOL0     H94706   8.206   7.827  10.786 -0.0264  1.1531 -0.9568
  702MOL0     H94707   8.325   7.815  11.058  0.5968 -2.4176  0.4453
  702MOL0     H94708   8.310   7.672  10.961 -0.6846  0.2820 -2.2841
  702MOL0     H94709   8.050   7.744  10.965 -0.8146 -3.4490  1.2433
  702MOL0     H94710   8.098   7.837  11.110 -1.0653 -0.6165  0.5043
  702MOL0     H94711   8.178   7.538  11.078 -1.3708 -0.9558  0.0141
  702MOL0     H94712   8.181   7.647  11.223 -1.3615  2.0110 -0.7775
  702MOL0     H94713   7.966   7.680  11.248  0.1815 -1.0176  1.3390
  702MOL0     H94714   7.911   7.603  11.101  1.4463  1.1003 -0.7492
  702MOL0     H94715   7.861   7.447  11.269  0.3862  0.2828 -1.3034
  702MOL0     H94716   7.995   7.390  11.165  1.2134  2.1024 -1.4091
  702MOL0     H94717   8.065   7.530  11.427  2.1988  1.6015 -3.7833
  702MOL0     H94718   8.166   7.432  11.330  0.0727  0.4642 -0.5308
  702MOL0     H94719   7.920   7.335  11.479 -0.0857 -1.0378  1.3981
  702MOL0     H94720   8.014   7.236  11.357 -0.6486 -0.2455 -0.1131
  702MOL0     H94721   8.026   7.376  11.718  2.8258  1.5749  1.2384
  702MOL0     H94722   8.152   7.334  11.925 -1.1091  0.8183 -1.7593
  702MOL0     H94723   8.250   7.198  11.936  0.5643 -0.4034 -1.5013
  702MOL0     H94724   8.464   7.340  11.860 -0.1947 -0.1677 -2.1227
  702MOL0     H94725   8.341   7.467  11.879  0.0950 -0.4570  0.6754
  702MOL0     H94726   8.401   7.278  12.094 -1.1959 -1.3344 -3.5432
  702MOL0     H94727   8.293   7.423  12.090 -0.0020  1.0576 -1.2844
  702MOL0     H94728   8.473   7.535  12.178 -2.1623 -0.6546 -0.4584
  702MOL0     H94729   8.521   7.541  12.016 -1.1121 -0.8388 -0.5080
  702MOL0     H94730   8.817   7.243  12.059  0.1171  0.4514 -0.7534
  702MOL0     H94731   9.040   7.315  11.997 -3.5201 -1.1648 -3.2928
  702MOL0     H94732   9.192   7.846  11.765  0.1062 -1.7517  0.1462
  702MOL0     H94733   9.423   7.967  11.702  1.7277  0.8131  1.0147
  702MOL0     H94734   9.716   7.979  12.025 -0.1843  0.9220 -0.7591
  702MOL0     H94735   9.784   8.088  11.898 -0.1104  1.7973  0.8369
  702MOL0     H94736   9.505   8.103  12.019  1.4224 -0.7220  0.4725
  702MOL0     H94737   9.637   8.205  12.045  0.0348 -0.6946  0.2155
  702MOL0     H94738   9.655   8.312  11.869 -0.5317  1.6070 -1.1753
  702MOL0     H94739   9.586   8.196  11.758 -0.8609  2.1826 -0.9457
  702MOL0     H94740   9.438   8.392  11.795  0.8044 -1.2174 -1.0365
  702MOL0     H94741   9.435   8.362  11.966 -0.3896  1.6046 -1.4063
  702MOL0     H94742   9.335   8.121  11.892  1.0006 -1.7802 -2.3941
  702MOL0     H94743   9.336   8.178  11.733  0.8105  0.1547  0.1444
  702MOL0     H94744   9.211   8.399  11.837 -0.0783  0.2767  1.8960
  702MOL0     H94745   9.118   8.259  11.771  2.2530  1.5287 -2.7266
  702MOL0     H94746   9.047   8.362  11.982 -0.0007  0.5143  0.8590
  702MOL0     H94747   9.182   8.310  12.070 -3.9284  1.5773  1.7777
  702MOL0     H94748   8.987   8.108  11.928 -0.0452 -1.5020  0.4160
  702MOL0     H94749   9.139   8.074  12.015  1.5548  0.1760 -2.2797
  702MOL0     H94750   9.615   7.728  12.016 -0.4061 -1.6349 -1.3690
  702MOL0     H94751   9.400   7.658  12.077 -2.9713 -0.1007 -0.3709
  702MOL0     H94752   8.910   7.725  12.016  1.5252 -0.7666  1.6647
  702MOL0     H94753   8.700   7.670  12.113 -0.8802 -0.1715 -1.5975
  702MOL0     H94754   8.618   8.039  10.780  1.8988  1.5147 -1.1672
  702MOL0     H94755   8.798   7.937  10.645  2.8748 -2.6970 -1.8664
  702MOL0     H94756   8.794   7.600  10.196 -0.4685  0.4621  1.1314
  702MOL0     H94757   8.937   7.459  10.058 -5.9902  1.1783  0.7980
  702MOL0     H94758   9.011   7.224  10.018  1.8764 -0.7664 -2.2141
  702MOL0     H94759   9.035   7.146  10.184  1.8526 -0.0091  0.1738
  702MOL0     H94760   9.159   7.044   9.963 -1.8260 -0.6110  1.4761
  702MOL0     H94761   9.241   7.061  10.111  3.0090  1.9373 -0.4410
  702MOL0     H94762   9.371   7.258  10.024  2.1013 -2.9552 -0.9907
  702MOL0     H94763   9.246   7.287   9.901  0.1607 -0.7204 -1.5686
  702MOL0     H94764   9.432   7.057   9.942 -1.0915  1.0053  0.7601
  702MOL0     H94765   9.306   7.054   9.814  2.4125 -1.1028 -1.7830
  702MOL0     H94766   9.568   7.292   9.616  0.1015 -0.1489  0.7853
  702MOL0     H94767   9.182   7.373  10.402 -0.6471 -0.4656  0.6967
  702MOL0     H94768   9.202   7.548  10.551  0.7775 -0.3791  0.1330
  702MOL0     H94769   9.064   7.655  10.598 -2.1445 -1.0448 -0.9627
  702MOL0     H94770   9.054   7.487  10.637  0.2122 -2.0056 -1.7786
  703MOL0     O94771   5.136   8.303   7.203 -0.2118 -0.2264  0.4103
  703MOL0     C94772   5.125   8.413   7.253  0.8328 -0.7256 -0.6748
  703MOL0     O94773   5.033   8.515   7.224 -0.1961  0.6032  0.5814
  703MOL0     C94774   4.930   8.475   7.139 -0.9479  0.0207  0.2845
  703MOL0     C94775   4.956   8.470   7.006  0.0161  0.3417 -0.4001
  703MOL0     C94776   4.847   8.430   6.921  0.9597 -0.7606 -0.2285
  703MOL0     C94777   4.716   8.416   6.972  0.6705  0.4727 -0.2126
  703MOL0     O94778   4.598   8.397   6.899 -1.5986  0.5676  0.3960
  703MOL0     C94779   4.629   8.382   6.753  0.3675  0.4846 -1.3999
  703MOL0     C94780   4.535   8.285   6.694  0.4821 -0.2961 -0.1504
  703MOL0     C94781   4.492   8.301   6.544  0.2698 -0.6148  0.3610
  703MOL0     C94782   4.425   8.168   6.500 -0.4649  0.9272 -0.4729
  703MOL0     C94783   4.333   8.164   6.378 -0.2135  0.1184  0.4439
  703MOL0     C94784   4.400   8.236   6.257 -0.4669 -1.6418 -0.2885
  703MOL0     C94785   4.335   8.192   6.122  0.5378  0.0948 -0.5018
  703MOL0     C94786   4.422   8.236   5.996 -1.2328  1.2247  0.3354
  703MOL0     N94787   4.359   8.192   5.875 -0.4410 -0.3034  0.4162
  703MOL0     C94788   4.359   8.069   5.817 -0.5265 -0.1446 -0.1596
  703MOL0     C94789   4.282   8.085   5.706 -0.3709  0.0965 -0.7422
  703MOL0     C94790   4.269   7.980   5.607 -0.2274  0.1392 -0.0212
  703MOL0     C94791   4.116   7.963   5.581  0.5594 -0.1579  0.0421
  703MOL0     C94792   4.034   7.896   5.695  0.3765 -0.1193  0.4201
  703MOL0     C94793   3.965   8.002   5.789 -0.9278 -0.4834  0.1417
  703MOL0     O94794   3.894   7.921   5.884  0.1782  0.1261 -0.5042
  703MOL0     C94795   3.819   8.002   5.980 -0.4375  0.9660  0.0063
  703MOL0     C94796   3.815   8.140   5.980 -1.4891  0.6808  0.6639
  703MOL0     C94797   3.739   8.219   6.070 -0.4790  0.5019  0.6808
  703MOL0     C94798   3.672   8.144   6.177 -0.4310  0.0117  0.0150
  703MOL0     C94799   3.598   8.210   6.290 -0.3565 -1.1353 -0.2491
  703MOL0     O94800   3.607   8.351   6.282  0.2132  0.7362 -0.0948
  703MOL0     C94801   3.535   8.427   6.368  0.5680 -0.9338 -0.0604
  703MOL0     C94802   3.574   8.560   6.378  0.3083 -1.3283 -0.1666
  703MOL0     C94803   3.517   8.648   6.478 -0.6987  0.4468 -0.5314
  703MOL0     C94804   3.404   8.601   6.552 -0.1588  0.3674 -1.4050
  703MOL0     O94805   3.384   8.686   6.652  0.1601  0.2121  0.1856
  703MOL0     C94806   3.322   8.642   6.774 -0.8734  0.3179  1.3938
  703MOL0     C94807   3.268   8.764   6.851 -1.1365  0.1006  0.2686
  703MOL0     C94808   3.223   8.719   6.988  0.6773  0.3752 -0.9192
  703MOL0     C94809   3.215   8.836   7.085 -0.1425  0.3430 -0.6241
  703MOL0     C94810   3.149   8.785   7.212  0.0173 -0.2097  0.1517
  703MOL0     C94811   3.147   8.892   7.316 -0.7167 -0.1850  0.0256
  703MOL0     C94812   3.086   8.839   7.444  0.1729  1.3863 -0.3660
  703MOL0     C94813   3.094   8.942   7.546  0.0789 -0.1947  0.1857
  703MOL0    Cl94814   3.037   8.893   7.708 -0.2069 -0.5493  0.0371
  703MOL0     C94815   3.345   8.474   6.525 -0.6745 -0.0817 -0.4584
  703MOL0     C94816   3.409   8.385   6.444 -0.7261 -0.0300 -0.0618
  703MOL0     O94817   3.526   8.145   6.365  0.3344 -0.2523 -0.0637
  703MOL0     C94818   3.672   8.002   6.171  0.8104 -1.5076 -0.9267
  703MOL0     C94819   3.746   7.933   6.075  0.5671  1.3815  0.2656
  703MOL0     N94820   4.237   8.219   5.696 -0.0089  1.0784  0.3209
  703MOL0     N94821   4.282   8.280   5.797  0.1138 -0.0634  0.5900
  703MOL0     C94822   4.702   8.430   7.109 -0.4799  0.6627 -0.3492
  703MOL0     C94823   4.808   8.461   7.194  0.2990 -0.0073  0.3604
  703MOL0     C94824   5.219   8.432   7.359  0.0068  0.2111 -0.4073
  703MOL0     C94825   5.226   8.336   7.460 -1.3962 -0.9264  0.6612
  703MOL0     C94826   5.309   8.348   7.570 -0.2815  0.4478  1.0933
  703MOL0     C94827   5.395   8.462   7.572 -0.1167 -0.3810  0.0772
  703MOL0     O94828   5.498   8.490   7.658  0.1100 -1.1274  0.4642
  703MOL0     C94829   5.488   8.421   7.780 -0.3251 -0.2268 -0.3805
  703MOL0     C94830   5.600   8.474   7.875  0.5074  0.1441 -0.7203
  703MOL0     C94831   5.616   8.401   8.013 -1.1390 -0.6478 -0.3173
  703MOL0     C94832   5.701   8.481   8.101  0.3527 -0.5545 -0.6386
  703MOL0     C94833   5.697   8.413   8.229 -1.1423  0.0744 -1.4754
  703MOL0     C94834   5.711   8.386   8.341 -0.4001 -0.0629 -0.0895
  703MOL0     C94835   5.388   8.555   7.474  1.1975  0.3450 -0.1623
  703MOL0     C94836   5.297   8.550   7.373  0.3506  0.5245  1.0291
  703MOL0     C94837   5.305   8.653   7.261 -0.2511  0.5968  0.6472
  703MOL0     H94838   5.059   8.494   6.981  1.3061 -1.7508  2.3851
  703MOL0     H94839   4.876   8.428   6.817  1.8852  0.2125 -0.0023
  703MOL0     H94840   4.609   8.481   6.708  0.3003  0.9103 -0.4596
  703MOL0     H94841   4.723   8.342   6.715  1.8731  4.1106 -1.8853
  703MOL0     H94842   4.447   8.295   6.758  2.1101 -1.3353  2.4479
  703MOL0     H94843   4.579   8.185   6.710  2.0241 -0.0452 -2.4020
  703MOL0     H94844   4.577   8.336   6.485  0.2212  1.8510  1.6044
  703MOL0     H94845   4.420   8.383   6.529 -0.5779 -1.0764  1.6952
  703MOL0     H94846   4.509   8.099   6.501  0.5615  2.1407  0.3208
  703MOL0     H94847   4.354   8.139   6.578 -2.4580 -3.1857 -3.4269
  703MOL0     H94848   4.323   8.059   6.349  1.5913 -0.3308  1.2672
  703MOL0     H94849   4.236   8.200   6.414 -0.4474  1.0667 -1.0487
  703MOL0     H94850   4.385   8.344   6.270 -4.4956 -1.9897 -0.7484
  703MOL0     H94851   4.506   8.210   6.259 -0.2918 -1.2936 -2.2283
  703MOL0     H94852   4.233   8.229   6.107 -1.1205 -4.6840 -3.1590
  703MOL0     H94853   4.298   8.089   6.121 -0.1438  0.1677  3.3237
  703MOL0     H94854   4.437   8.344   5.999  1.6149  0.9255  2.6091
  703MOL0     H94855   4.522   8.191   6.004 -1.1572  0.4752 -3.3400
  703MOL0     H94856   4.412   7.982   5.853  0.0031  0.8152  1.5234
  703MOL0     H94857   4.317   8.012   5.514  0.5393  0.4452  0.4655
  703MOL0     H94858   4.320   7.889   5.642  0.9700  0.7473 -0.1498
  703MOL0     H94859   4.069   8.059   5.559  2.8767  2.6618  5.5651
  703MOL0     H94860   4.109   7.895   5.495 -0.6161 -1.9854  1.5168
  703MOL0     H94861   4.107   7.829   5.742 -0.6995 -1.7043 -0.0548
  703MOL0     H94862   3.960   7.835   5.642  1.0573 -0.0438 -0.6435
  703MOL0     H94863   3.888   8.062   5.738  0.0466  1.7753  1.1816
  703MOL0     H94864   4.032   8.071   5.841  0.4606 -1.0878 -0.8082
  703MOL0     H94865   3.890   8.194   5.923 -0.5176  0.6864  1.9022
  703MOL0     H94866   3.747   8.327   6.075 -0.9353  0.4975  1.6741
  703MOL0     H94867   3.662   8.586   6.319  0.4699 -2.2164 -0.3332
  703MOL0     H94868   3.560   8.746   6.493  0.9172 -0.4884  1.3717
  703MOL0     H94869   3.244   8.568   6.755  0.7723 -1.0403 -0.3127
  703MOL0     H94870   3.412   8.609   6.827  0.9286  2.3797 -0.1993
  703MOL0     H94871   3.351   8.834   6.865  1.1118 -1.8425 -2.3247
  703MOL0     H94872   3.181   8.812   6.805 -0.1639  0.3439 -1.4132
  703MOL0     H94873   3.121   8.681   6.978  0.8960 -0.0561 -1.6453
  703MOL0     H94874   3.278   8.633   7.029 -0.9692 -0.6711 -0.8133
  703MOL0     H94875   3.156   8.918   7.042 -0.8319 -1.1947 -2.7488
  703MOL0     H94876   3.316   8.875   7.098 -0.0919  0.1043 -0.2916
  703MOL0     H94877   3.209   8.704   7.253  1.3322  1.5383  1.9136
  703MOL0     H94878   3.045   8.765   7.186 -0.1992  0.5680  0.3672
  703MOL0     H94879   3.252   8.916   7.335 -1.2821  1.7315  1.0765
  703MOL0     H94880   3.098   8.981   7.274  1.0549  0.5674 -0.5243
  703MOL0     H94881   3.149   8.755   7.475  0.6485  1.1243 -1.9653
  703MOL0     H94882   2.989   8.792   7.425  0.1814  0.4070  1.7492
  703MOL0     H94883   3.193   8.989   7.555 -0.9516  2.1933 -0.0494
  703MOL0     H94884   3.037   9.031   7.518  0.2240 -0.1401  0.0661
  703MOL0     H94885   3.251   8.445   6.573 -0.8455  1.6825  0.3521
  703MOL0     H94886   3.353   8.296   6.417 -3.4644  0.2404  3.8431
  703MOL0     H94887   3.644   7.933   6.250  1.2830  0.3405  0.9067
  703MOL0     H94888   3.759   7.825   6.084 -0.9320  1.0480 -1.0244
  703MOL0     H94889   4.608   8.410   7.160 -1.2769 -3.8922 -3.1282
  703MOL0     H94890   4.784   8.482   7.298  1.6544 -2.5966  1.2718
  703MOL0     H94891   5.168   8.245   7.447  0.5197 -2.0459 -0.5505
  703MOL0     H94892   5.329   8.268   7.640  0.9869  1.8851  2.4659
  703MOL0     H94893   5.498   8.313   7.764 -0.1179 -0.5869  1.9509
  703MOL0     H94894   5.389   8.440   7.824 -0.9806 -1.8427 -1.0825
  703MOL0     H94895   5.576   8.577   7.901  0.8608 -0.0925  0.6088
  703MOL0     H94896   5.693   8.490   7.819  1.2435 -0.9295  0.1591
  703MOL0     H94897   5.679   8.312   8.006 -0.4736 -0.1872 -0.2777
  703MOL0     H94898   5.520   8.378   8.061 -0.3863  0.7092  2.0163
  703MOL0     H94899   5.801   8.512   8.070  0.8937  0.3325  1.8121
  703MOL0     H94900   5.656   8.580   8.112  1.3505 -0.1382 -0.2172
  703MOL0     H94901   5.738   8.373   8.444  3.9896  3.0928 -0.5564
  703MOL0     H94902   5.452   8.642   7.487  0.6035  0.6652  0.7019
  703MOL0     H94903   5.324   8.599   7.168  1.6846  2.9771 -0.4349
  703MOL0     H94904   5.215   8.714   7.250  0.8377  2.8462  3.1102
  703MOL0     H94905   5.392   8.718   7.271  0.6000 -0.1956 -1.2144
  704MOL0     O94906  10.664   8.684   5.397 -0.3939 -0.2746  0.2057
  704MOL0     C94907  10.671   8.803   5.365  0.4910  0.2433  1.0379
  704MOL0     O94908  10.621   8.852   5.250  0.9436  0.2202  0.5454
  704MOL0     C94909  10.598   8.766   5.136 -0.8782  0.0480 -0.0092
  704MOL0     C94910  10.519   8.651   5.131 -0.1539  0.5006 -0.5678
  704MOL0     C94911  10.503   8.587   5.013 -0.1851  0.0810 -0.6194
  704MOL0     C94912  10.561   8.633   4.896 -0.2336  0.9904 -0.2662
  704MOL0     O94913  10.548   8.560   4.778 -0.7408 -0.6198  0.1998
  704MOL0     C94914  10.557   8.616   4.649 -0.3525  0.2396  0.6231
  704MOL0     C94915  10.487   8.533   4.540  0.5762 -0.4451  0.3333
  704MOL0     C94916  10.537   8.584   4.400 -0.2176  0.0965 -0.1885
  704MOL0     C94917  10.444   8.524   4.296 -0.6862 -0.4260 -0.0924
  704MOL0     C94918  10.491   8.554   4.147 -0.8959 -0.7419 -0.6852
  704MOL0     C94919  10.610   8.459   4.117  0.1130  0.0740 -0.3480
  704MOL0     C94920  10.639   8.468   3.965 -0.1955  0.7315 -0.0348
  704MOL0     C94921  10.611   8.334   3.891  0.0110 -0.3623  0.1933
  704MOL0     N94922  10.683   8.214   3.952  0.4594 -0.1939  0.1982
  704MOL0     C94923  10.817   8.208   3.999  0.5579 -0.3237  0.3660
  704MOL0     C94924  10.827   8.094   4.074 -0.2565 -0.3257  0.1966
  704MOL0     C94925  10.943   8.060   4.160  0.9055  0.4833 -0.0530
  704MOL0     C94926  10.918   8.131   4.296  0.5885 -0.2648  0.8276
  704MOL0     C94927  10.898   8.285   4.287  0.1416  0.1806  0.1446
  704MOL0     C94928  10.897   8.345   4.423 -0.1085  0.5357 -0.1951
  704MOL0     O94929  10.786   8.301   4.494  0.8150  0.4218 -0.7453
  704MOL0     C94930  10.782   8.304   4.627 -0.6395 -0.1215 -0.1043
  704MOL0     C94931  10.682   8.223   4.678  0.1001  0.7554  0.6067
  704MOL0     C94932  10.675   8.202   4.812  0.5850 -0.9444 -0.8841
  704MOL0     C94933  10.753   8.280   4.901 -0.1930 -0.2355  0.4238
  704MOL0     C94934  10.742   8.269   5.047  1.3880 -0.8625 -0.2511
  704MOL0     O94935  10.839   8.294   5.131 -0.2868  0.1479 -0.2584
  704MOL0     C94936  10.800   8.265   5.258  0.3440 -0.0842 -0.1884
  704MOL0     C94937  10.851   8.152   5.322  0.2351 -0.0550 -0.0306
  704MOL0     C94938  10.838   8.132   5.460 -0.1465 -0.3640 -0.5227
  704MOL0     C94939  10.771   8.239   5.534 -0.0330 -0.0018  0.6179
  704MOL0     O94940  10.747   8.231   5.663  0.6522  0.1827 -0.5511
  704MOL0     C94941  10.860   8.218   5.752 -0.1062 -0.0483 -0.2021
  704MOL0     C94942  10.813   8.271   5.889 -0.2998  0.1219 -0.3972
  704MOL0     C94943  10.711   8.169   5.956 -0.5680 -0.1342 -0.8321
  704MOL0     C94944  10.643   8.243   6.071  0.3020  0.1801 -0.5758
  704MOL0     C94945  10.505   8.316   6.036  0.6599 -0.3370 -0.1662
  704MOL0     C94946  10.422   8.381   6.149  0.1314 -0.9122 -0.6372
  704MOL0     C94947  10.459   8.527   6.167 -0.3879  0.7871  0.2828
  704MOL0     C94948  10.353   8.594   6.257  0.4668  0.9689  0.2129
  704MOL0    Cl94949  10.387   8.764   6.286  0.1501 -0.1328 -0.1177
  704MOL0     C94950  10.726   8.349   5.464  0.2078  0.3269  0.7403
  704MOL0     C94951  10.738   8.357   5.327 -0.1600 -0.5008 -0.0454
  704MOL0     O94952  10.622   8.256   5.078  0.4711 -0.0457  0.0059
  704MOL0     C94953  10.838   8.377   4.849  0.0229 -0.4766  0.0398
  704MOL0     C94954  10.862   8.379   4.713  0.3577 -0.2794 -0.3653
  704MOL0     N94955  10.705   8.029   4.074 -0.7378 -0.9705  0.5705
  704MOL0     N94956  10.622   8.092   3.994 -0.3691 -0.9993  0.0320
  704MOL0     C94957  10.652   8.740   4.900 -0.0939 -0.1955 -0.6071
  704MOL0     C94958  10.662   8.810   5.017 -0.3116  0.1186 -0.0256
  704MOL0     C94959  10.717   8.901   5.461 -0.2494 -0.5922  0.5664
  704MOL0     C94960  10.641   8.906   5.581 -0.2528 -0.2382 -0.7455
  704MOL0     C94961  10.678   8.986   5.688 -0.5078  0.5525 -0.1339
  704MOL0     C94962  10.782   9.082   5.669  0.2775 -0.1324  0.2403
  704MOL0     O94963  10.812   9.183   5.757 -0.5818  0.0227 -0.1472
  704MOL0     C94964  10.751   9.180   5.889 -0.5449 -0.7264  0.1465
  704MOL0     C94965  10.819   9.285   5.978  1.1027  0.3642 -0.4554
  704MOL0     C94966  10.816   9.249   6.128  1.5262  0.3006  0.0122
  704MOL0     C94967  10.917   9.330   6.218  1.3475  0.9455 -0.9080
  704MOL0     C94968  10.859   9.469   6.242  1.1214  0.5303 -0.6488
  704MOL0     C94969  10.825   9.580   6.286 -0.0582 -0.9112  0.8448
  704MOL0     C94970  10.845   9.084   5.540 -0.0635  0.3353 -0.0782
  704MOL0     C94971  10.813   8.997   5.431  0.0860 -0.3147  0.0249
  704MOL0     C94972  10.899   8.989   5.309  0.9733 -0.6871  1.1790
  704MOL0     H94973  10.469   8.616   5.220  0.4544  0.8594 -0.0765
  704MOL0     H94974  10.434   8.503   5.009  0.4788 -0.4449 -1.5472
  704MOL0     H94975  10.540   8.724   4.644  0.9729  0.4355 -0.2026
  704MOL0     H94976  10.663   8.617   4.623 -1.0462  3.0432 -2.8428
  704MOL0     H94977  10.378   8.531   4.543  0.4363  0.3549 -2.0781
  704MOL0     H94978  10.519   8.429   4.548  0.6866 -0.6025 -1.6732
  704MOL0     H94979  10.641   8.552   4.391 -0.2012 -0.9260  2.6985
  704MOL0     H94980  10.550   8.692   4.384 -0.1264 -0.2100 -2.4182
  704MOL0     H94981  10.436   8.416   4.310  3.9743 -0.9792 -0.2155
  704MOL0     H94982  10.342   8.563   4.305 -0.1689  0.6613  1.2894
  704MOL0     H94983  10.414   8.521   4.077 -2.2723  0.2218  0.3269
  704MOL0     H94984  10.514   8.660   4.142  1.4212 -1.0034  2.1170
  704MOL0     H94985  10.700   8.496   4.165  0.5281  0.8092 -1.6304
  704MOL0     H94986  10.583   8.358   4.149 -1.9558  0.0733 -1.8228
  704MOL0     H94987  10.748   8.476   3.964  0.1099 -0.1442  4.6707
  704MOL0     H94988  10.582   8.545   3.913 -1.1992  0.8420  1.1955
  704MOL0     H94989  10.504   8.313   3.879 -0.0199 -0.0748 -0.0179
  704MOL0     H94990  10.645   8.336   3.787  1.2131 -1.6336  0.5336
  704MOL0     H94991  10.898   8.279   3.991  0.5780 -0.1134  2.0496
  704MOL0     H94992  10.941   7.951   4.165  0.8307  0.3497 -1.9854
  704MOL0     H94993  11.030   8.093   4.103  0.5286  1.2805 -0.1868
  704MOL0     H94994  10.840   8.075   4.347  0.3254  0.0765  0.8091
  704MOL0     H94995  11.008   8.109   4.355 -0.5201 -0.3630  2.5598
  704MOL0     H94996  10.802   8.310   4.241 -0.8058 -1.5819  1.0354
  704MOL0     H94997  10.976   8.331   4.225 -0.6628  0.0287 -1.0102
  704MOL0     H94998  10.907   8.453   4.422  1.4237  0.4220  0.2051
  704MOL0     H94999  10.984   8.303   4.475 -2.0037 -2.5438  0.7984
  704MOL0     H95000  10.624   8.162   4.610  0.3791 -0.4870  1.4495
  704MOL0     H95001  10.584   8.151   4.843  1.8914 -1.7195  2.0878
  704MOL0     H95002  10.899   8.072   5.266 -0.5699 -0.3300 -0.3466
  704MOL0     H95003  10.870   8.044   5.515 -0.5468 -0.9426 -1.2033
  704MOL0     H95004  10.879   8.112   5.772 -2.1944 -0.5449 -0.5978
  704MOL0     H95005  10.949   8.267   5.712 -0.0824  0.2624  0.2193
  704MOL0     H95006  10.897   8.290   5.957 -0.8113  1.6405 -0.1361
  704MOL0     H95007  10.765   8.370   5.886 -1.0425 -0.1630  0.9154
  704MOL0     H95008  10.641   8.132   5.880  1.2421 -3.1417 -1.1944
  704MOL0     H95009  10.751   8.078   6.001 -4.0707 -0.9534  0.9582
  704MOL0     H95010  10.695   8.329   6.115 -2.4441  1.7634 -0.2052
  704MOL0     H95011  10.623   8.161   6.140  3.3535 -0.8941 -0.7941
  704MOL0     H95012  10.440   8.237   5.999  1.3522  0.0248 -2.3133
  704MOL0     H95013  10.526   8.389   5.957 -2.9937 -1.1253 -2.0719
  704MOL0     H95014  10.317   8.367   6.122  0.5418 -1.6357 -1.9368
  704MOL0     H95015  10.440   8.330   6.245 -2.5174 -2.6466 -0.9366
  704MOL0     H95016  10.464   8.571   6.067  0.7925  2.9876  1.2500
  704MOL0     H95017  10.555   8.539   6.218 -0.3879  0.1850  0.4331
  704MOL0     H95018  10.248   8.587   6.228 -0.3928  4.8003  1.8433
  704MOL0     H95019  10.355   8.542   6.353  3.0116  2.4396  1.0529
  704MOL0     H95020  10.689   8.436   5.518 -0.0009 -0.3072  1.6618
  704MOL0     H95021  10.706   8.456   5.294  0.3882 -0.3108 -0.0208
  704MOL0     H95022  10.901   8.441   4.909  0.5547 -0.3347 -0.6558
  704MOL0     H95023  10.940   8.445   4.676  0.8023 -0.7853 -0.3379
  704MOL0     H95024  10.705   8.773   4.811 -0.7532  1.3043 -0.4795
  704MOL0     H95025  10.711   8.905   5.002 -1.7608  0.6614 -1.6876
  704MOL0     H95026  10.552   8.849   5.604  0.0306  0.1684  1.5269
  704MOL0     H95027  10.626   8.974   5.783 -0.8122  4.3341  0.3369
  704MOL0     H95028  10.779   9.087   5.939 -1.0676 -0.0831  1.6941
  704MOL0     H95029  10.643   9.196   5.877 -0.6515 -3.0795 -4.0358
  704MOL0     H95030  10.771   9.383   5.974 -0.3406 -0.3525 -1.3209
  704MOL0     H95031  10.924   9.284   5.946  1.1435 -1.5962 -0.3884
  704MOL0     H95032  10.842   9.143   6.138  2.2656  0.5757  1.2749
  704MOL0     H95033  10.717   9.270   6.169  2.2623  1.7478  1.1561
  704MOL0     H95034  10.937   9.272   6.308 -2.2384 -0.6384 -0.9847
  704MOL0     H95035  11.011   9.347   6.165  0.7616 -2.0829 -3.1674
  704MOL0     H95036  10.763   9.664   6.312 -1.1543 -0.9135 -1.5303
  704MOL0     H95037  10.920   9.162   5.523  0.0768 -0.2818 -2.8823
  704MOL0     H95038  10.979   9.062   5.323  2.2770 -1.2455 -2.2448
  704MOL0     H95039  10.941   8.888   5.301  0.1926 -0.9515  0.0300
  704MOL0     H95040  10.844   9.015   5.218  0.5998  2.1595  2.1195
  705MOL0     O95041   2.429   9.975   8.036  0.0812 -1.4836 -0.1354
  705MOL0     C95042   2.445  10.086   8.102 -0.2473  0.1554 -0.3211
  705MOL0     O95043   2.465  10.207   8.045  0.8240  0.0053 -0.5314
  705MOL0     C95044   2.426  10.218   7.921  0.8296  0.0167  0.1391
  705MOL0     C95045   2.284  10.222   7.890  0.2068 -0.4672 -0.9842
  705MOL0     C95046   2.240  10.226   7.763 -0.2286  0.1794  0.3143
  705MOL0     C95047   2.319  10.234   7.649  0.0695  0.6854 -0.8409
  705MOL0     O95048   2.259  10.254   7.523  0.2511  0.4060  0.5401
  705MOL0     C95049   2.329  10.189   7.414 -0.5420 -0.0285  0.5167
  705MOL0     C95050   2.241  10.138   7.299 -0.0591  0.4469 -0.0911
  705MOL0     C95051   2.139  10.026   7.338 -1.0689  0.4562  0.5193
  705MOL0     C95052   2.017  10.088   7.413 -0.3943  0.2858  0.5635
  705MOL0     C95053   1.917   9.976   7.459 -0.5381 -0.1249  1.4630
  705MOL0     C95054   1.978   9.873   7.546  0.2254  0.0443 -0.0190
  705MOL0     C95055   1.995   9.917   7.691 -0.2964  0.2686 -0.1698
  705MOL0     C95056   2.037   9.798   7.779 -0.3192 -0.2266  0.7806
  705MOL0     N95057   2.016   9.833   7.913 -0.0229  0.1766 -0.8150
  705MOL0     C95058   2.108   9.894   8.002  0.6076  0.3884 -0.4890
  705MOL0     C95059   2.045   9.903   8.115 -0.4733 -0.0066  1.0627
  705MOL0     C95060   2.114   9.957   8.231  0.7364  0.2212 -0.8380
  705MOL0     C95061   2.050  10.077   8.305 -0.3852 -1.0241  0.9041
  705MOL0     C95062   1.915  10.041   8.368 -0.2919  0.3176 -0.8055
  705MOL0     C95063   1.891  10.144   8.477  0.8181 -0.2984 -0.6405
  705MOL0     O95064   1.892  10.287   8.430  0.0751 -0.4621  0.8384
  705MOL0     C95065   1.969  10.372   8.507 -0.6780  0.1229 -0.4623
  705MOL0     C95066   1.956  10.382   8.647  1.3543 -0.6178  0.1059
  705MOL0     C95067   2.033  10.473   8.715 -0.0180 -0.3558  0.6719
  705MOL0     C95068   2.135  10.541   8.652 -0.2376  0.6935  1.2114
  705MOL0     C95069   2.236  10.619   8.729 -1.3793  0.1808 -1.0123
  705MOL0     O95070   2.187  10.676   8.844 -0.4828 -0.0864 -0.3959
  705MOL0     C95071   2.273  10.708   8.939 -0.4112  0.0841 -0.5535
  705MOL0     C95072   2.291  10.636   9.059  0.6084 -0.6194  0.0845
  705MOL0     C95073   2.378  10.680   9.164  0.0426 -1.2455  1.1268
  705MOL0     C95074   2.468  10.790   9.137  0.2772 -0.2657 -0.0826
  705MOL0     O95075   2.562  10.821   9.231  0.8658 -0.0029 -0.5232
  705MOL0     C95076   2.690  10.863   9.183 -0.3797  0.3213 -0.2662
  705MOL0     C95077   2.737  10.977   9.269 -0.0748  0.0569  0.6992
  705MOL0     C95078   2.876  11.012   9.208 -0.3988 -0.4464  0.2892
  705MOL0     C95079   2.944  11.115   9.291 -0.6966 -0.1920  0.7323
  705MOL0     C95080   2.899  11.256   9.297  0.1860  0.7397  0.7509
  705MOL0     C95081   2.815  11.292   9.422 -0.1311  0.0822 -0.4161
  705MOL0     C95082   2.895  11.308   9.550 -0.5753 -0.3847 -1.1859
  705MOL0     C95083   2.804  11.320   9.676  0.0695  0.2195 -0.2884
  705MOL0    Cl95084   2.744  11.155   9.710 -0.0982  0.0593 -0.1158
  705MOL0     C95085   2.450  10.865   9.020  0.8636  0.6523  1.0781
  705MOL0     C95086   2.359  10.818   8.927  0.4280 -0.8927 -0.3539
  705MOL0     O95087   2.349  10.622   8.688  0.1648 -0.0954  0.2257
  705MOL0     C95088   2.159  10.522   8.510  0.1176  0.0226  1.1640
  705MOL0     C95089   2.066  10.448   8.436 -0.5240  0.3825  0.1610
  705MOL0     N95090   1.921   9.849   8.109  0.0377  0.5377 -1.0120
  705MOL0     N95091   1.896   9.825   7.989  0.1110  1.2788  0.6165
  705MOL0     C95092   2.455  10.238   7.677  0.6938 -0.1961 -0.3653
  705MOL0     C95093   2.502  10.228   7.810 -0.5328  0.6069 -0.2262
  705MOL0     C95094   2.445  10.079   8.253 -0.3246  0.6846  0.2280
  705MOL0     C95095   2.424  10.197   8.320 -0.3590  0.0276  0.3476
  705MOL0     C95096   2.430  10.218   8.461 -0.4223  0.8382 -1.0271
  705MOL0     C95097   2.462  10.108   8.541 -0.7644 -0.5531 -0.9853
  705MOL0     O95098   2.482  10.116   8.676  0.2056  0.7532 -0.3260
  705MOL0     C95099   2.380  10.196   8.743  0.0765  0.7464 -0.3673
  705MOL0     C95100   2.351  10.140   8.885 -0.1197 -0.0512  0.4434
  705MOL0     C95101   2.256  10.224   8.972 -0.2401 -0.1252  0.2952
  705MOL0     C95102   2.292  10.220   9.123  0.5659 -0.1996  0.2368
  705MOL0     C95103   2.188  10.281   9.197 -0.2154 -1.5347  0.1993
  705MOL0     C95104   2.101  10.335   9.260  0.8709  0.2277  0.1960
  705MOL0     C95105   2.486   9.981   8.478  0.0666  0.0986 -0.7441
  705MOL0     C95106   2.484   9.965   8.336  0.1369  0.3269  0.0965
  705MOL0     C95107   2.508   9.819   8.279  0.8483  0.1234  0.6323
  705MOL0     H95108   2.215  10.203   7.972  0.1495 -0.6339 -1.0726
  705MOL0     H95109   2.131  10.227   7.762 -0.2776 -1.7673  0.9920
  705MOL0     H95110   2.400  10.260   7.370  1.0151 -1.3819  0.7374
  705MOL0     H95111   2.384  10.103   7.454 -1.0645 -0.5456  0.1324
  705MOL0     H95112   2.313  10.104   7.223  1.2838 -1.6262  1.9701
  705MOL0     H95113   2.192  10.223   7.251 -0.4678  0.5237  0.4537
  705MOL0     H95114   2.182   9.948   7.401 -3.1235 -2.5856 -1.5420
  705MOL0     H95115   2.111   9.981   7.241  3.0137  2.8524 -2.0649
  705MOL0     H95116   2.051  10.149   7.497  1.4278 -1.3024  1.0590
  705MOL0     H95117   1.956  10.153   7.351 -1.4973  0.2031  1.5319
  705MOL0     H95118   1.825  10.025   7.492 -0.3470  1.9465 -0.7612
  705MOL0     H95119   1.891   9.915   7.372 -2.1789 -0.3189  2.0530
  705MOL0     H95120   1.896   9.800   7.539 -2.6872  3.2241 -2.5112
  705MOL0     H95121   2.069   9.822   7.510  1.4623  1.9970  0.2027
  705MOL0     H95122   1.900   9.950   7.734  0.6720  3.3246 -0.1921
  705MOL0     H95123   2.066  10.000   7.690  1.2207 -0.9097  2.0306
  705MOL0     H95124   1.978   9.708   7.755  2.8462 -1.8705 -1.4465
  705MOL0     H95125   2.143   9.773   7.771 -0.3890 -1.0191  2.0768
  705MOL0     H95126   2.205   9.939   7.983  0.8449 -1.2805 -4.1938
  705MOL0     H95127   2.130   9.883   8.310 -0.1819  0.2878 -0.5692
  705MOL0     H95128   2.209  10.003   8.204  0.8715 -0.3774 -1.3901
  705MOL0     H95129   2.126  10.112   8.375  0.1694  1.2629 -0.7366
  705MOL0     H95130   2.044  10.157   8.231  1.5786  0.8587  2.6406
  705MOL0     H95131   1.905   9.935   8.394 -1.2515  0.2409 -1.4485
  705MOL0     H95132   1.826  10.058   8.307 -1.8373  0.2055  1.3280
  705MOL0     H95133   1.972  10.135   8.550 -0.6166  2.8826  1.5669
  705MOL0     H95134   1.792  10.131   8.521  1.2135 -1.2878 -0.0219
  705MOL0     H95135   1.883  10.315   8.691  1.5011 -1.7558 -1.2936
  705MOL0     H95136   2.018  10.488   8.821  0.2731  1.8499  0.4588
  705MOL0     H95137   2.220  10.562   9.093  0.4010 -1.1305 -1.4008
  705MOL0     H95138   2.393  10.615   9.250  0.9544 -1.4587  0.8175
  705MOL0     H95139   2.756  10.777   9.197 -1.0592 -0.2324 -0.4159
  705MOL0     H95140   2.699  10.882   9.076 -1.4890  1.4959 -0.1697
  705MOL0     H95141   2.675  11.066   9.249  0.9117  0.6874  0.3682
  705MOL0     H95142   2.748  10.953   9.375  6.0958 -0.8991  0.1655
  705MOL0     H95143   2.948  10.932   9.228  0.8069  0.5760  0.1973
  705MOL0     H95144   2.877  11.032   9.101  1.2754 -0.8606  0.2078
  705MOL0     H95145   3.044  11.121   9.247 -0.4872 -1.4596  0.9874
  705MOL0     H95146   2.950  11.074   9.393 -1.0968 -3.6895 -0.4876
  705MOL0     H95147   2.853  11.279   9.201  4.5993 -1.4110 -2.2034
  705MOL0     H95148   2.991  11.316   9.299 -0.2132  1.4233  3.5268
  705MOL0     H95149   2.778  11.392   9.395  1.2917  0.5508 -0.7410
  705MOL0     H95150   2.736  11.217   9.432  0.9668 -1.1395 -0.7526
  705MOL0     H95151   2.953  11.400   9.555 -1.2700  0.0803  3.6527
  705MOL0     H95152   2.961  11.222   9.566 -1.9504 -0.9701  2.2317
  705MOL0     H95153   2.852  11.346   9.771 -0.6644 -5.2111  1.9434
  705MOL0     H95154   2.736  11.404   9.656  2.0241  2.2684  1.1802
  705MOL0     H95155   2.505  10.956   8.999  1.0646  0.4584  0.7625
  705MOL0     H95156   2.351  10.865   8.830  0.1813 -1.3376 -0.5546
  705MOL0     H95157   2.245  10.571   8.467 -0.8961  0.0554 -0.9391
  705MOL0     H95158   2.072  10.439   8.328 -2.3041  0.1365  0.0525
  705MOL0     H95159   2.524  10.253   7.595 -1.3347 -0.7413 -2.2863
  705MOL0     H95160   2.610  10.234   7.818 -0.3945 -1.5818  0.1189
  705MOL0     H95161   2.384  10.282   8.266 -0.0081  0.4182  0.6968
  705MOL0     H95162   2.433  10.317   8.507  2.7992  0.1616  0.5297
  705MOL0     H95163   2.281  10.179   8.700 -0.0445  1.8543 -0.5365
  705MOL0     H95164   2.415  10.299   8.750  2.1406  0.3500 -3.0248
  705MOL0     H95165   2.451  10.129   8.927 -1.1744 -2.3601  2.5989
  705MOL0     H95166   2.296  10.045   8.877  1.3170 -0.8557 -0.2319
  705MOL0     H95167   2.152  10.191   8.967  0.0920 -1.0874 -0.7322
  705MOL0     H95168   2.263  10.327   8.935 -2.8501 -0.2957 -0.8668
  705MOL0     H95169   2.305  10.121   9.166 -0.7526  0.2473  1.7557
  705MOL0     H95170   2.382  10.281   9.140 -0.7154  2.9280 -2.7972
  705MOL0     H95171   2.022  10.391   9.305  1.3126  1.3979 -0.4229
  705MOL0     H95172   2.512   9.894   8.539  0.6586  0.6177 -0.2406
  705MOL0     H95173   2.547   9.744   8.348  0.1832 -1.4413 -0.6453
  705MOL0     H95174   2.411   9.791   8.239 -0.2832  3.2662  0.8688
  705MOL0     H95175   2.591   9.832   8.208 -1.4567 -2.4135 -2.8012
  706MOL0     O95176   9.358  11.196   8.892  1.0822  0.5095  0.0453
  706MOL0     C95177   9.412  11.173   9.000 -0.2752  0.8779 -0.7577
  706MOL0     O95178   9.544  11.197   9.022  0.4628  0.3851  0.3554
  706MOL0     C95179   9.621  11.288   8.944  0.9092 -0.3041  1.0553
  706MOL0     C95180   9.574  11.422   8.913 -0.2846  0.9237 -0.3274
  706MOL0     C95181   9.662  11.523   8.859  0.2761  0.5033 -0.4233
  706MOL0     C95182   9.797  11.496   8.846 -0.6803 -0.0115 -1.2428
  706MOL0     O95183   9.873  11.594   8.788  0.1193 -0.4543  0.3601
  706MOL0     C95184  10.000  11.575   8.738 -1.2562 -0.1124 -0.5095
  706MOL0     C95185  10.094  11.653   8.824 -0.8154  0.1804  0.1186
  706MOL0     C95186  10.240  11.644   8.764  0.1580  0.7065 -0.5593
  706MOL0     C95187  10.323  11.776   8.813 -0.5115  0.3800 -0.0983
  706MOL0     C95188  10.389  11.762   8.947 -0.0218 -0.3240  0.3816
  706MOL0     C95189  10.471  11.889   8.975  0.8970 -0.6439 -0.1529
  706MOL0     C95190  10.537  11.889   9.115 -0.9452  1.1487 -1.1102
  706MOL0     C95191  10.632  12.007   9.125  0.5459  0.3869 -0.2218
  706MOL0     N95192  10.739  12.000   9.027 -0.3205  0.7123 -0.9023
  706MOL0     C95193  10.841  11.907   9.027  0.3269  0.0915  0.1157
  706MOL0     C95194  10.941  11.949   8.949 -0.3954 -0.4223  0.2471
  706MOL0     C95195  11.060  11.871   8.894  0.3196 -0.4839  0.2887
  706MOL0     C95196  11.191  11.867   8.983  0.0642  0.5282 -0.3129
  706MOL0     C95197  11.239  12.005   9.024  0.1330  0.0013  0.1591
  706MOL0     C95198  11.344  12.013   9.132 -0.9114  1.1443 -1.0271
  706MOL0     O95199  11.434  11.909   9.117 -0.5140 -0.4850  0.6483
  706MOL0     C95200  11.496  11.847   9.225  0.1988  0.3802 -1.7909
  706MOL0     C95201  11.615  11.775   9.204 -0.2200  0.3866  0.2696
  706MOL0     C95202  11.696  11.724   9.311 -0.1306 -0.6178  0.4069
  706MOL0     C95203  11.658  11.744   9.445  1.0066 -0.7181 -0.0967
  706MOL0     C95204  11.741  11.715   9.565  0.0970 -0.2016  0.9304
  706MOL0     O95205  11.693  11.731   9.692 -0.0741  0.0574 -0.3753
  706MOL0     C95206  11.759  11.717   9.810  0.2752 -0.3380  0.5077
  706MOL0     C95207  11.895  11.674   9.818 -0.2956 -0.2763 -0.6926
  706MOL0     C95208  11.950  11.647   9.942  0.4256 -0.0525 -0.4663
  706MOL0     C95209  11.881  11.646  10.058  0.3792 -0.7049  0.4692
  706MOL0     O95210  11.952  11.613  10.167 -0.7749  0.3584  0.5016
  706MOL0     C95211  11.884  11.559  10.275  1.6262 -1.1302  0.8780
  706MOL0     C95212  11.974  11.476  10.367  0.1012 -0.3709  0.0671
  706MOL0     C95213  12.061  11.568  10.471 -0.1709 -0.1566  0.5057
  706MOL0     C95214  11.992  11.566  10.601 -0.2671 -0.2202  0.2288
  706MOL0     C95215  12.022  11.437  10.679  0.4698 -0.6670 -0.1454
  706MOL0     C95216  12.158  11.421  10.736 -0.2848 -0.1923 -0.1192
  706MOL0     C95217  12.203  11.531  10.823  0.8767 -0.4081 -0.2568
  706MOL0     C95218  12.343  11.499  10.882  0.4275  0.0093  0.4140
  706MOL0    Cl95219  12.476  11.478  10.761  0.7805 -0.4965  0.1184
  706MOL0     C95220  11.744  11.685  10.053  0.0934  0.5525  0.1628
  706MOL0     C95221  11.686  11.725   9.925  0.8330 -0.2316  0.0623
  706MOL0     O95222  11.847  11.660   9.534 -0.1061  0.2465  0.0658
  706MOL0     C95223  11.539  11.812   9.469  0.1370 -0.6594  1.4206
  706MOL0     C95224  11.461  11.864   9.360  0.4311 -0.8866  0.0559
  706MOL0     N95225  10.903  12.072   8.902  0.7233 -0.5657  0.4336
  706MOL0     N95226  10.789  12.105   8.949 -0.0537  0.0445 -0.0751
  706MOL0     C95227   9.845  11.365   8.884 -1.6007 -0.4004  0.4281
  706MOL0     C95228   9.761  11.266   8.926 -0.0743  0.2003 -0.5350
  706MOL0     C95229   9.334  11.094   9.095  0.9154  0.6723 -0.4089
  706MOL0     C95230   9.388  11.040   9.216  0.4532 -0.5034  0.9403
  706MOL0     C95231   9.312  10.970   9.306  0.4451  1.4316 -0.2986
  706MOL0     C95232   9.177  10.948   9.272  0.1926  0.1585  0.1560
  706MOL0     O95233   9.100  10.873   9.361  0.1324  0.2308  0.8708
  706MOL0     C95234   9.107  10.900   9.503 -0.6026  0.0194 -0.1743
  706MOL0     C95235   8.986  10.841   9.564  0.6516 -0.2828 -0.0745
  706MOL0     C95236   8.858  10.919   9.534  0.8040 -0.2393  0.1993
  706MOL0     C95237   8.734  10.860   9.592 -0.4879 -0.7546  0.3899
  706MOL0     C95238   8.702  10.723   9.551 -0.3049 -0.3723 -0.6493
  706MOL0     C95239   8.675  10.612   9.505  0.0639  0.0159 -0.3707
  706MOL0     C95240   9.121  10.991   9.158  0.4882  0.3908  0.3784
  706MOL0     C95241   9.185  11.065   9.072 -0.9655  0.7060 -0.1958
  706MOL0     C95242   9.104  11.118   8.959  0.1669 -0.2999  0.2565
  706MOL0     H95243   9.470  11.445   8.934 -1.2987 -4.3639  2.1675
  706MOL0     H95244   9.624  11.623   8.842  1.0610  1.6104  3.3726
  706MOL0     H95245  10.026  11.469   8.731 -1.4873 -0.4100  2.1085
  706MOL0     H95246  10.015  11.636   8.649 -0.5450  3.6589  1.9588
  706MOL0     H95247  10.093  11.614   8.926  1.4519  3.8760  1.7749
  706MOL0     H95248  10.058  11.756   8.824  4.7391  2.4971  2.4733
  706MOL0     H95249  10.230  11.663   8.656  0.3171 -0.2583 -0.7484
  706MOL0     H95250  10.292  11.549   8.782  0.1775  1.3321  3.6481
  706MOL0     H95251  10.400  11.796   8.738 -0.3391  0.2008  0.0297
  706MOL0     H95252  10.260  11.865   8.809 -0.4658  0.6820  3.1043
  706MOL0     H95253  10.327  11.738   9.035 -1.1785  1.1676  0.0189
  706MOL0     H95254  10.459  11.678   8.936 -0.4435 -0.9210  1.9366
  706MOL0     H95255  10.542  11.896   8.892  1.2772 -0.4250  0.1831
  706MOL0     H95256  10.408  11.978   8.978  1.8734  0.0906 -0.5721
  706MOL0     H95257  10.592  11.795   9.120  0.1093  1.7675 -0.7175
  706MOL0     H95258  10.457  11.897   9.189  0.3675  4.0613  0.1728
  706MOL0     H95259  10.575  12.100   9.129 -1.6615 -0.9119  0.0826
  706MOL0     H95260  10.672  12.001   9.227 -1.4439  2.2731  0.7515
  706MOL0     H95261  10.836  11.816   9.086 -0.3464 -1.0085 -1.5671
  706MOL0     H95262  11.022  11.772   8.869 -0.6330  0.0070 -0.2356
  706MOL0     H95263  11.095  11.919   8.802  2.4461  0.9127  1.7114
  706MOL0     H95264  11.156  11.826   9.078  1.5592  4.2657  2.0711
  706MOL0     H95265  11.274  11.805   8.949  0.5066 -0.1563  1.8549
  706MOL0     H95266  11.162  12.075   9.057  0.5263  0.3228  0.4193
  706MOL0     H95267  11.275  12.048   8.930 -2.5207  0.3361 -0.7658
  706MOL0     H95268  11.298  12.005   9.231 -1.3286 -2.4827 -1.3758
  706MOL0     H95269  11.393  12.110   9.129 -2.1666  1.9363  1.5327
  706MOL0     H95270  11.646  11.730   9.110 -0.2996  0.2533  0.3071
  706MOL0     H95271  11.793  11.676   9.294 -0.2857 -0.2394 -1.8508
  706MOL0     H95272  11.960  11.683   9.732 -1.5807  0.6747 -1.5949
  706MOL0     H95273  12.055  11.621   9.949  0.6602  1.0747  0.7300
  706MOL0     H95274  11.826  11.635  10.328  0.7301 -0.3889 -1.0583
  706MOL0     H95275  11.809  11.489  10.238 -0.5915  0.4608  2.1229
  706MOL0     H95276  11.910  11.406  10.421 -2.5353 -1.2909 -3.8780
  706MOL0     H95277  12.053  11.433  10.305 -0.0925  1.4764 -1.5732
  706MOL0     H95278  12.162  11.533  10.495  0.2808  1.7005  1.5591
  706MOL0     H95279  12.069  11.671  10.434  2.3110 -0.7712 -0.9423
  706MOL0     H95280  11.886  11.591  10.589  0.8093  4.9584 -0.7763
  706MOL0     H95281  12.033  11.655  10.649  0.4281  0.1130 -0.9479
  706MOL0     H95282  12.009  11.348  10.616 -1.3498  0.8634 -2.0892
  706MOL0     H95283  11.942  11.426  10.753  0.4685  0.0538 -0.0349
  706MOL0     H95284  12.160  11.326  10.789  1.3915  0.7249  1.5815
  706MOL0     H95285  12.233  11.410  10.658 -1.2382  1.6768 -1.3909
  706MOL0     H95286  12.141  11.544  10.912  0.7768 -1.2876 -0.1822
  706MOL0     H95287  12.209  11.631  10.780  1.2533  0.4578  1.6988
  706MOL0     H95288  12.367  11.577  10.955  1.6193 -1.8564  2.1436
  706MOL0     H95289  12.337  11.402  10.932 -1.3959 -1.5487 -2.5516
  706MOL0     H95290  11.684  11.688  10.143  1.8641  2.4904  1.3963
  706MOL0     H95291  11.582  11.755   9.935  0.7613 -0.5158  0.1996
  706MOL0     H95292  11.506  11.829   9.571  2.2778 -2.4464  2.4940
  706MOL0     H95293  11.371  11.914   9.394 -0.2837 -1.2174 -1.2831
  706MOL0     H95294   9.952  11.350   8.873 -1.1973  2.6436 -0.7143
  706MOL0     H95295   9.816  11.175   8.947 -0.5130  0.3258  1.3287
  706MOL0     H95296   9.489  11.070   9.240  1.7819 -2.2999 -1.8118
  706MOL0     H95297   9.349  10.932   9.401  1.3505  0.2827 -1.0649
  706MOL0     H95298   9.123  11.006   9.525  1.0389 -0.7013  2.5390
  706MOL0     H95299   9.193  10.843   9.538  0.9031  1.5603 -1.2572
  706MOL0     H95300   8.996  10.841   9.673  0.7303 -1.4121 -0.0691
  706MOL0     H95301   8.981  10.737   9.530 -0.9998 -0.7556  1.4445
  706MOL0     H95302   8.835  10.936   9.428 -1.6299  2.6314  1.0341
  706MOL0     H95303   8.870  11.022   9.571 -0.9175 -0.4815  1.5644
  706MOL0     H95304   8.752  10.857   9.700 -3.2666 -0.6632  0.9310
  706MOL0     H95305   8.647  10.923   9.577  0.2417 -0.1109 -1.4451
  706MOL0     H95306   8.623  10.525   9.471 -2.5665  0.5471  1.8606
  706MOL0     H95307   9.015  10.967   9.153 -0.1603 -0.4751  7.6046
  706MOL0     H95308   9.130  11.224   8.967 -1.0844  0.3098 -2.5035
  706MOL0     H95309   9.132  11.073   8.863  0.1891 -0.2714  0.2504
  706MOL0     H95310   8.998  11.106   8.985  0.7758 -2.7045  2.0490
  707MOL0     O95311  10.817   7.087   3.805 -0.0428 -0.8315  0.2211
  707MOL0     C95312  10.922   7.129   3.858  0.4321  0.0556  0.4159
  707MOL0     O95313  10.930   7.182   3.987 -0.3191 -0.3904  0.3634
  707MOL0     C95314  10.820   7.187   4.072 -0.6892 -0.1905  0.9704
  707MOL0     C95315  10.693   7.248   4.050  0.5997 -0.4303 -0.6819
  707MOL0     C95316  10.601   7.246   4.157  0.5990  0.1458  0.0198
  707MOL0     C95317  10.625   7.182   4.282  0.3953 -0.4867 -0.0476
  707MOL0     O95318  10.527   7.176   4.378  0.3916  0.5454 -0.0680
  707MOL0     C95319  10.476   7.309   4.422  0.1745  0.4458 -0.4755
  707MOL0     C95320  10.435   7.310   4.567 -0.8308  0.1481  0.7772
  707MOL0     C95321  10.532   7.250   4.671  0.6018  0.4878 -0.2438
  707MOL0     C95322  10.662   7.330   4.673 -0.2001  0.2329  0.6399
  707MOL0     C95323  10.743   7.279   4.793  0.0841 -0.6077 -0.1348
  707MOL0     C95324  10.888   7.317   4.792 -0.4688 -0.3523  0.0210
  707MOL0     C95325  10.964   7.285   4.921 -0.3611  0.6401 -1.3979
  707MOL0     C95326  11.117   7.297   4.914 -0.0009 -0.5627 -0.2778
  707MOL0     N95327  11.152   7.448   4.907 -0.3191  0.6939 -0.5670
  707MOL0     C95328  11.119   7.537   5.000  0.0820  0.0499  0.3428
  707MOL0     C95329  11.174   7.659   4.961  1.0442  0.7105  0.1453
  707MOL0     C95330  11.184   7.800   5.033  0.0779  0.2022  0.2077
  707MOL0     C95331  11.250   7.775   5.168  0.7647 -0.1968  0.1653
  707MOL0     C95332  11.391   7.739   5.137 -0.6689 -0.3145 -0.9116
  707MOL0     C95333  11.451   7.642   5.248 -0.0628  0.2435  1.4100
  707MOL0     O95334  11.407   7.680   5.381 -0.5762 -0.1112 -0.9241
  707MOL0     C95335  11.443   7.611   5.496  0.8074  0.0127  0.0902
  707MOL0     C95336  11.499   7.485   5.507  0.1905  0.8638  0.6536
  707MOL0     C95337  11.541   7.419   5.624 -0.0909  0.6772 -0.4712
  707MOL0     C95338  11.505   7.475   5.747  0.2706  0.1011 -1.0277
  707MOL0     C95339  11.531   7.410   5.877 -0.6172  0.0745 -0.1251
  707MOL0     O95340  11.588   7.283   5.884 -0.0501  0.3040  0.9267
  707MOL0     C95341  11.606   7.213   6.004 -0.3228 -0.3358  0.0050
  707MOL0     C95342  11.732   7.168   6.036 -0.5721 -0.2784  0.4232
  707MOL0     C95343  11.763   7.115   6.160 -0.1901 -0.6732  0.5320
  707MOL0     C95344  11.668   7.092   6.257 -0.0097 -0.0135 -0.3939
  707MOL0     O95345  11.717   7.028   6.370  0.1355 -0.6358 -0.0771
  707MOL0     C95346  11.638   6.955   6.466  0.2386  0.2923  1.1132
  707MOL0     C95347  11.694   6.979   6.599  0.7325  0.4018 -0.3309
  707MOL0     C95348  11.610   6.891   6.696 -0.1296 -0.3125  0.4918
  707MOL0     C95349  11.652   6.921   6.831  0.9593 -0.5993 -0.2650
  707MOL0     C95350  11.572   6.841   6.936 -0.9300 -0.5047  0.3048
  707MOL0     C95351  11.598   6.694   6.923 -0.4787  0.2996 -0.3658
  707MOL0     C95352  11.498   6.618   7.009 -0.1643  0.8281 -0.3821
  707MOL0     C95353  11.545   6.472   7.036 -0.4465 -0.4334 -1.3060
  707MOL0    Cl95354  11.673   6.497   7.161 -0.4283 -0.0167  0.1189
  707MOL0     C95355  11.540   7.147   6.242  0.4883  0.7217  1.1525
  707MOL0     C95356  11.509   7.198   6.109 -1.6518  0.2513 -0.2322
  707MOL0     O95357  11.513   7.479   5.975 -0.5300  0.4638 -0.9235
  707MOL0     C95358  11.441   7.608   5.742 -0.8338  0.2047 -0.4906
  707MOL0     C95359  11.419   7.670   5.619 -0.3609 -0.9548  0.2578
  707MOL0     N95360  11.230   7.625   4.846 -0.9709 -0.1458 -0.1969
  707MOL0     N95361  11.222   7.503   4.811 -0.2314 -0.0179  0.1566
  707MOL0     C95362  10.753   7.130   4.300  0.4831  0.0681  0.0113
  707MOL0     C95363  10.848   7.129   4.194  0.0890  0.0152  0.5449
  707MOL0     C95364  11.049   7.101   3.782 -0.1623  0.1235 -0.5886
  707MOL0     C95365  11.050   7.008   3.685  0.5799  0.2216 -0.1267
  707MOL0     C95366  11.159   6.977   3.603 -0.7820  0.0585  0.2745
  707MOL0     C95367  11.285   7.047   3.623 -0.3541 -0.2472 -0.1379
  707MOL0     O95368  11.401   7.027   3.542 -0.6411 -0.3154  0.3192
  707MOL0     C95369  11.418   6.897   3.479  0.2205 -0.3384 -0.0395
  707MOL0     C95370  11.470   6.813   3.594  0.6721  0.3401  0.5834
  707MOL0     C95371  11.565   6.690   3.559  0.0816 -0.8565  0.4145
  707MOL0     C95372  11.574   6.605   3.683 -0.4861 -0.2016  0.2347
  707MOL0     C95373  11.474   6.505   3.687 -0.2530  0.4265  0.7654
  707MOL0     C95374  11.398   6.406   3.666  0.4083  0.1626  1.0000
  707MOL0     C95375  11.279   7.153   3.706  0.0619 -0.0208 -0.1755
  707MOL0     C95376  11.163   7.175   3.792 -1.1045 -0.1996  0.0145
  707MOL0     C95377  11.159   7.295   3.878  0.6813 -1.2236 -0.5387
  707MOL0     H95378  10.682   7.300   3.956  0.7562 -0.7231 -0.8650
  707MOL0     H95379  10.507   7.298   4.142  0.9781  1.9584  3.0148
  707MOL0     H95380  10.554   7.384   4.409  0.2651  0.1776 -1.6031
  707MOL0     H95381  10.405   7.337   4.344 -0.5496  0.3855  0.1553
  707MOL0     H95382  10.336   7.264   4.571 -0.6263 -0.3151  0.5699
  707MOL0     H95383  10.413   7.415   4.592 -0.8125  0.7414 -1.5167
  707MOL0     H95384  10.544   7.149   4.632 -1.4805  0.0505  0.1211
  707MOL0     H95385  10.488   7.242   4.771  1.1077  0.9007  0.0202
  707MOL0     H95386  10.713   7.312   4.578 -2.4993  1.7393 -0.9942
  707MOL0     H95387  10.641   7.437   4.678 -3.2277 -0.1345 -1.4638
  707MOL0     H95388  10.697   7.311   4.887  1.6624 -4.0578  1.9806
  707MOL0     H95389  10.748   7.171   4.782  0.2823 -0.6141  0.0235
  707MOL0     H95390  10.948   7.276   4.710  0.3625 -1.1937  1.0189
  707MOL0     H95391  10.901   7.425   4.783  5.7716 -0.7291 -0.0061
  707MOL0     H95392  10.938   7.181   4.946  2.1265  0.4237  0.8164
  707MOL0     H95393  10.917   7.343   5.001  2.5543 -0.2208  1.1620
  707MOL0     H95394  11.166   7.251   4.999  1.3919  3.6225  1.4547
  707MOL0     H95395  11.140   7.239   4.824 -2.1075 -1.2818 -0.4174
  707MOL0     H95396  11.054   7.528   5.086 -2.4717  1.5901 -1.2878
  707MOL0     H95397  11.249   7.865   4.974  0.6941 -1.0631 -0.5569
  707MOL0     H95398  11.094   7.858   5.055 -0.0944 -0.8656  2.5795
  707MOL0     H95399  11.231   7.854   5.241 -2.7585  0.6559 -1.4648
  707MOL0     H95400  11.192   7.694   5.212 -2.6322  1.9217  0.0102
  707MOL0     H95401  11.443   7.835   5.135 -0.3696 -0.3523  1.7046
  707MOL0     H95402  11.409   7.694   5.038 -0.0210  0.0436 -0.9628
  707MOL0     H95403  11.558   7.635   5.228 -0.0713  1.8080  0.6297
  707MOL0     H95404  11.411   7.545   5.220 -1.8539  1.5531 -0.8730
  707MOL0     H95405  11.536   7.431   5.420  1.8142 -1.0993  2.4204
  707MOL0     H95406  11.609   7.334   5.625  1.4241  1.8480  0.9263
  707MOL0     H95407  11.819   7.180   5.972  1.0283 -2.0252  2.1433
  707MOL0     H95408  11.861   7.074   6.186 -0.9528 -2.0005  1.4819
  707MOL0     H95409  11.528   6.952   6.468  0.2013 -2.3362 -0.2932
  707MOL0     H95410  11.659   6.851   6.439  0.0071 -0.0151  2.0790
  707MOL0     H95411  11.800   6.957   6.587  0.9220  2.0113 -2.0852
  707MOL0     H95412  11.684   7.086   6.622  1.9780  0.7658 -1.3789
  707MOL0     H95413  11.505   6.922   6.691 -0.7958 -2.3835  0.4822
  707MOL0     H95414  11.625   6.787   6.665 -2.5997 -1.2446  2.0685
  707MOL0     H95415  11.632   7.025   6.856 -3.4567 -1.3115 -0.0626
  707MOL0     H95416  11.759   6.900   6.838  1.2125  1.1338  2.0970
  707MOL0     H95417  11.464   6.859   6.930 -0.6455  2.4406  2.1608
  707MOL0     H95418  11.599   6.860   7.040  1.5149 -0.7727 -0.2117
  707MOL0     H95419  11.569   6.672   6.819 -1.8199  1.4769 -0.2887
  707MOL0     H95420  11.704   6.672   6.937 -0.5144  0.1070 -0.3962
  707MOL0     H95421  11.405   6.614   6.952 -0.0430 -3.1203 -0.5564
  707MOL0     H95422  11.487   6.676   7.101  0.4123 -1.1772  1.0186
  707MOL0     H95423  11.475   6.408   7.091  0.6911 -0.9258 -0.3925
  707MOL0     H95424  11.577   6.431   6.940  0.0935 -0.2509 -1.2055
  707MOL0     H95425  11.460   7.145   6.315  0.1033  0.9890  0.7413
  707MOL0     H95426  11.415   7.253   6.106 -1.3246  0.9985  1.7098
  707MOL0     H95427  11.431   7.657   5.839 -2.4338  5.1499 -2.8527
  707MOL0     H95428  11.374   7.769   5.617  0.5590 -0.5121 -2.3082
  707MOL0     H95429  10.774   7.070   4.387 -0.3040  0.4737  0.4936
  707MOL0     H95430  10.936   7.066   4.195 -1.3609 -2.1524 -0.5168
  707MOL0     H95431  10.967   6.943   3.657  1.7572 -0.5691 -1.9779
  707MOL0     H95432  11.145   6.892   3.536 -0.4063  0.0962  0.1442
  707MOL0     H95433  11.494   6.896   3.401  0.2317  1.1910 -0.0789
  707MOL0     H95434  11.323   6.861   3.438 -0.8383  2.4880 -0.2844
  707MOL0     H95435  11.388   6.778   3.655 -0.0080  0.8468 -0.0192
  707MOL0     H95436  11.529   6.881   3.655  2.0785  0.9447 -1.3340
  707MOL0     H95437  11.666   6.724   3.534  0.0373 -0.1607  1.1768
  707MOL0     H95438  11.520   6.638   3.473 -2.5215  2.3347 -0.3564
  707MOL0     H95439  11.675   6.562   3.678  0.4028  1.0444  3.8846
  707MOL0     H95440  11.576   6.661   3.777 -0.9269  0.3688 -0.0936
  707MOL0     H95441  11.327   6.332   3.635  0.1208 -0.0188  2.0567
  707MOL0     H95442  11.355   7.230   3.711 -0.8604  0.9669 -0.7900
  707MOL0     H95443  11.167   7.268   3.984  0.1054  2.3890  0.5603
  707MOL0     H95444  11.248   7.357   3.866  2.6886 -3.9854 -0.9435
  707MOL0     H95445  11.065   7.351   3.871  1.5639  0.5653  1.0399
  708MOL0     O95446   2.598   6.974   7.278  0.1108 -0.2203 -0.2040
  708MOL0     C95447   2.570   7.024   7.165 -0.3575 -0.2795 -0.2141
  708MOL0     O95448   2.483   6.984   7.067 -0.6687 -0.0962 -0.6021
  708MOL0     C95449   2.412   6.874   7.099  0.4305  0.9218  0.5386
  708MOL0     C95450   2.442   6.762   7.030 -0.9145  0.6181 -1.0612
  708MOL0     C95451   2.378   6.649   7.067  0.7893  0.5021  0.9826
  708MOL0     C95452   2.272   6.636   7.153  0.7457  0.9713 -0.3967
  708MOL0     O95453   2.202   6.518   7.165 -1.3265 -0.1524  0.2379
  708MOL0     C95454   2.245   6.453   7.292  0.3398  0.7937  0.3536
  708MOL0     C95455   2.207   6.300   7.290  0.8458 -0.1855  0.9469
  708MOL0     C95456   2.051   6.293   7.319 -0.0565  1.1741  0.3374
  708MOL0     C95457   2.013   6.132   7.326  0.7117  0.0131 -0.5474
  708MOL0     C95458   1.863   6.113   7.362  0.3693 -0.6872  0.7070
  708MOL0     C95459   1.840   5.958   7.389 -0.7345  0.3828  1.0657
  708MOL0     C95460   1.694   5.910   7.367 -0.4704 -0.0090 -0.2008
  708MOL0     C95461   1.687   5.759   7.353  0.4046 -0.1623  0.7742
  708MOL0     N95462   1.716   5.714   7.217  0.8357 -0.6514 -0.1595
  708MOL0     C95463   1.616   5.700   7.126  0.4191 -0.3037  0.7862
  708MOL0     C95464   1.681   5.650   7.018 -0.0700 -0.1938 -0.9127
  708MOL0     C95465   1.616   5.603   6.890  1.1140 -0.9801 -0.0350
  708MOL0     C95466   1.576   5.459   6.898  0.3865 -0.6381 -0.2219
  708MOL0     C95467   1.541   5.388   6.761  0.6956  0.4791 -0.9024
  708MOL0     C95468   1.484   5.246   6.761 -0.7499 -0.1747  0.0175
  708MOL0     O95469   1.369   5.222   6.845  0.6570 -0.7538 -0.0138
  708MOL0     C95470   1.299   5.112   6.832 -0.0360 -0.4040 -0.1964
  708MOL0     C95471   1.162   5.120   6.813  0.4297  0.4118 -0.3174
  708MOL0     C95472   1.098   5.003   6.790  0.3255 -0.3192  0.0224
  708MOL0     C95473   1.165   4.883   6.786  0.2379  0.0837 -0.3064
  708MOL0     C95474   1.092   4.768   6.725 -0.3220 -0.2532  0.0717
  708MOL0     O95475   0.960   4.776   6.741  0.4492 -0.4216 -0.5555
  708MOL0     C95476   0.883   4.683   6.684 -0.6637  0.5336 -0.3177
  708MOL0     C95477   0.772   4.721   6.601  0.0155  0.2456 -0.1354
  708MOL0     C95478   0.701   4.613   6.544  0.2097 -0.1649 -0.4890
  708MOL0     C95479   0.733   4.474   6.560 -0.3684 -0.0217  0.7858
  708MOL0     O95480   0.665   4.387   6.472  0.1300 -0.2397 -0.1652
  708MOL0     C95481   0.614   4.267   6.526  1.0200  0.3370 -0.6675
  708MOL0     C95482   0.508   4.299   6.625  0.0227 -0.3723  0.0679
  708MOL0     C95483   0.505   4.195   6.733  0.1441  0.0395 -0.1111
  708MOL0     C95484   0.419   4.076   6.685 -0.3511  0.0355  0.0054
  708MOL0     C95485   0.424   3.963   6.782 -0.9502  0.5522 -0.5106
  708MOL0     C95486   0.311   3.861   6.772 -0.4387  0.1594  0.2958
  708MOL0     C95487   0.178   3.900   6.845 -0.0887 -0.8782 -0.0862
  708MOL0     C95488   0.080   3.779   6.846 -0.4709  0.0931  0.5834
  708MOL0    Cl95489  -0.092   3.811   6.898  0.1442 -0.1974 -0.1499
  708MOL0     C95490   0.827   4.450   6.654 -0.4995  1.3186 -0.3070
  708MOL0     C95491   0.900   4.548   6.720 -0.1810  0.2710 -0.1387
  708MOL0     O95492   1.157   4.690   6.656  0.0273 -0.0469 -0.4269
  708MOL0     C95493   1.300   4.874   6.826  0.3372  0.1750  0.0156
  708MOL0     C95494   1.365   4.993   6.852 -1.6083 -0.3213  0.3996
  708MOL0     N95495   1.819   5.639   7.048 -0.0892 -0.1114 -0.0630
  708MOL0     N95496   1.842   5.671   7.170 -0.5776  1.4614 -0.5323
  708MOL0     C95497   2.240   6.757   7.224 -1.0543 -0.0187 -1.1557
  708MOL0     C95498   2.313   6.868   7.204 -0.1586 -0.2368  0.0591
  708MOL0     C95499   2.657   7.142   7.130  0.2628 -1.1644 -0.5504
  708MOL0     C95500   2.783   7.111   7.078 -0.4854  0.8581  1.3010
  708MOL0     C95501   2.879   7.201   7.039 -0.2072 -0.0050 -0.2605
  708MOL0     C95502   2.844   7.338   7.053  0.1254  0.5221  0.2881
  708MOL0     O95503   2.925   7.440   7.003  0.1000 -0.1150 -0.6762
  708MOL0     C95504   2.949   7.453   6.855 -0.6536  0.2030  0.0599
  708MOL0     C95505   3.064   7.379   6.797  0.6054 -0.1679 -0.2961
  708MOL0     C95506   3.207   7.407   6.859  0.6411 -0.2706  0.4543
  708MOL0     C95507   3.237   7.557   6.863  1.2847  0.1296 -0.4382
  708MOL0     C95508   3.389   7.574   6.865 -0.1731 -0.1852  0.1125
  708MOL0     C95509   3.514   7.571   6.870  0.8209 -0.5213  0.2400
  708MOL0     C95510   2.712   7.370   7.098  0.3106 -0.3777 -0.3294
  708MOL0     C95511   2.619   7.274   7.132 -0.7447 -0.4884 -0.8844
  708MOL0     C95512   2.486   7.321   7.150  0.7681 -0.1234  0.7301
  708MOL0     H95513   2.521   6.755   6.956  1.1426  2.0438  0.8396
  708MOL0     H95514   2.412   6.559   7.016 -0.7686  1.6133 -2.3375
  708MOL0     H95515   2.355   6.446   7.291  0.4353  1.2543  2.5746
  708MOL0     H95516   2.199   6.492   7.383 -0.6484 -0.3201  0.3521
  708MOL0     H95517   2.269   6.246   7.362  1.5038  0.7377  1.0892
  708MOL0     H95518   2.230   6.253   7.194 -1.8431  0.8515 -0.2986
  708MOL0     H95519   1.990   6.347   7.247 -0.9927  2.4799  2.0424
  708MOL0     H95520   2.039   6.329   7.422  0.0278 -0.3917  0.9237
  708MOL0     H95521   2.032   6.093   7.226  0.3877  1.2584 -1.1083
  708MOL0     H95522   2.081   6.072   7.386  0.7021 -0.1077 -0.6550
  708MOL0     H95523   1.835   6.168   7.451 -0.1466 -2.2390  1.5425
  708MOL0     H95524   1.797   6.138   7.278  2.7619 -1.2801 -1.4968
  708MOL0     H95525   1.910   5.912   7.319  0.1305 -0.2943  2.3474
  708MOL0     H95526   1.871   5.913   7.483 -1.0352 -0.3201  0.8436
  708MOL0     H95527   1.654   5.963   7.280  0.5855  0.3906 -0.4549
  708MOL0     H95528   1.631   5.933   7.453 -1.1701 -2.1589 -0.0779
  708MOL0     H95529   1.758   5.703   7.414  1.9327  2.4068  1.4946
  708MOL0     H95530   1.586   5.729   7.383 -0.0699  1.3854  0.7744
  708MOL0     H95531   1.509   5.716   7.135  0.1878 -0.9645 -0.6189
  708MOL0     H95532   1.530   5.669   6.873  2.5073  0.0569 -4.3754
  708MOL0     H95533   1.684   5.617   6.806  0.5967  1.6345 -0.1048
  708MOL0     H95534   1.657   5.400   6.941  0.9263 -1.4920 -2.3008
  708MOL0     H95535   1.484   5.452   6.956  2.4545  0.6097  3.5439
  708MOL0     H95536   1.636   5.387   6.707  0.7991  1.1960 -0.7483
  708MOL0     H95537   1.484   5.455   6.697  3.3414  0.0577 -3.9473
  708MOL0     H95538   1.569   5.181   6.784  0.8974  0.8583 -2.7326
  708MOL0     H95539   1.458   5.228   6.657 -2.2862  0.8999  0.1770
  708MOL0     H95540   1.121   5.221   6.809  1.9054  1.0095 -0.8864
  708MOL0     H95541   0.998   5.021   6.754 -0.0544 -0.7992  0.8068
  708MOL0     H95542   0.743   4.824   6.582  1.1022  0.8808  1.4706
  708MOL0     H95543   0.619   4.649   6.483  0.3203  4.1020  1.4913
  708MOL0     H95544   0.590   4.202   6.441  0.0031  1.2193 -1.0831
  708MOL0     H95545   0.693   4.211   6.576 -0.5596 -0.4451  1.0570
  708MOL0     H95546   0.511   4.391   6.684  0.0678  0.3881 -1.0893
  708MOL0     H95547   0.418   4.308   6.563 -0.2907  0.2496  0.6113
  708MOL0     H95548   0.606   4.160   6.755  0.9220  0.2588 -2.9395
  708MOL0     H95549   0.452   4.223   6.825 -0.9361 -1.1170 -0.3533
  708MOL0     H95550   0.436   4.039   6.584  1.3905 -2.4610  1.1080
  708MOL0     H95551   0.317   4.115   6.677  0.1279  0.9426 -4.5755
  708MOL0     H95552   0.422   4.010   6.880 -2.2213 -2.0848  0.8174
  708MOL0     H95553   0.520   3.911   6.772 -1.8291 -1.6280  1.4689
  708MOL0     H95554   0.303   3.838   6.665  0.5434 -2.4443  0.7078
  708MOL0     H95555   0.335   3.762   6.813 -2.7991 -1.4640 -1.8629
  708MOL0     H95556   0.132   3.983   6.791  1.6323  1.4387  1.8254
  708MOL0     H95557   0.212   3.931   6.944  1.3794  0.5838 -1.0025
  708MOL0     H95558   0.077   3.745   6.741  2.2023  0.8513  0.2022
  708MOL0     H95559   0.127   3.700   6.905  3.2213  0.8782 -1.0460
  708MOL0     H95560   0.861   4.353   6.689  0.0885  2.3716  2.2651
  708MOL0     H95561   0.975   4.518   6.793 -0.7623 -0.0887  0.3199
  708MOL0     H95562   1.353   4.779   6.835  1.0390  0.5099 -0.5057
  708MOL0     H95563   1.472   4.982   6.864 -1.7670 -0.7451  1.5429
  708MOL0     H95564   2.157   6.755   7.293 -0.7886  1.6666 -0.7509
  708MOL0     H95565   2.298   6.952   7.272 -2.7642 -0.8310  0.3405
  708MOL0     H95566   2.818   7.008   7.079  0.0479  0.9618 -1.0699
  708MOL0     H95567   2.983   7.180   7.016  0.1705 -0.0945  1.3858
  708MOL0     H95568   2.969   7.559   6.839  3.7462 -0.2803  0.9372
  708MOL0     H95569   2.858   7.413   6.811 -0.4944 -0.4108  0.2695
  708MOL0     H95570   3.074   7.413   6.693 -3.1936  0.5150 -0.5829
  708MOL0     H95571   3.043   7.271   6.797  1.9847 -0.4750  1.1091
  708MOL0     H95572   3.284   7.348   6.809  0.4598  0.2736 -0.4856
  708MOL0     H95573   3.198   7.367   6.960  1.5698  0.2173  0.7474
  708MOL0     H95574   3.197   7.605   6.773 -2.9026  0.1798  1.2569
  708MOL0     H95575   3.185   7.600   6.949 -2.3072  0.7322 -2.7185
  708MOL0     H95576   3.621   7.571   6.864  0.7682  0.2181 -1.3374
  708MOL0     H95577   2.702   7.478   7.102  2.0009 -0.2309  2.4896
  708MOL0     H95578   2.462   7.390   7.069 -1.0728 -0.9339  0.5412
  708MOL0     H95579   2.408   7.244   7.156  1.9585 -1.4956 -0.6248
  708MOL0     H95580   2.476   7.370   7.247 -1.1449 -0.8996  0.9716
  709MOL0     O95581   4.382   7.017   7.944  0.7402  0.4470  0.2098
  709MOL0     C95582   4.260   7.031   7.971  0.2133 -0.6180 -0.1220
  709MOL0     O95583   4.152   6.956   7.930 -0.2535 -0.4046 -0.4585
  709MOL0     C95584   4.183   6.870   7.821  0.1755 -0.1307 -0.1028
  709MOL0     C95585   4.155   6.731   7.840 -0.2421 -0.6586 -0.6945
  709MOL0     C95586   4.185   6.635   7.749 -0.1269 -0.2992  0.4518
  709MOL0     C95587   4.245   6.671   7.630  0.4996  0.7921  1.1607
  709MOL0     O95588   4.274   6.559   7.546  0.5968  0.0007  0.2041
  709MOL0     C95589   4.288   6.599   7.412 -0.7149 -0.1250 -0.0820
  709MOL0     C95590   4.270   6.473   7.324  0.3874 -0.3722  0.3105
  709MOL0     C95591   4.125   6.475   7.282  0.3116 -0.1289  0.5979
  709MOL0     C95592   4.094   6.346   7.216 -0.5728  0.9667  0.1645
  709MOL0     C95593   3.967   6.333   7.125 -0.9145 -0.5762  0.0979
  709MOL0     C95594   3.976   6.214   7.031 -0.2561 -0.0215  0.0571
  709MOL0     C95595   3.882   6.219   6.912 -0.1114 -0.2898 -0.5700
  709MOL0     C95596   3.727   6.215   6.960 -0.5383  0.0289  0.4524
  709MOL0     N95597   3.690   6.098   7.050  0.0298  0.5527  0.9627
  709MOL0     C95598   3.575   6.095   7.113 -0.2412 -0.1288  0.5786
  709MOL0     C95599   3.565   5.961   7.146  0.7273 -0.3987  0.5423
  709MOL0     C95600   3.439   5.919   7.219 -0.1251 -0.4939  0.6939
  709MOL0     C95601   3.321   5.883   7.122 -0.4987 -0.6265  0.1434
  709MOL0     C95602   3.220   5.769   7.177  1.1342 -0.2226 -0.0337
  709MOL0     C95603   3.154   5.807   7.306 -1.2641  0.8376  0.4601
  709MOL0     O95604   3.049   5.907   7.289 -0.1633 -0.1344  0.9513
  709MOL0     C95605   2.983   5.942   7.406  0.0736 -0.0010  0.7865
  709MOL0     C95606   3.011   5.878   7.526 -0.6702  0.6547 -0.1239
  709MOL0     C95607   2.934   5.909   7.636  0.0461 -0.3001 -0.9321
  709MOL0     C95608   2.831   5.998   7.618  0.5385 -0.2806  0.2682
  709MOL0     C95609   2.751   6.042   7.731 -0.6750 -0.4613 -1.3994
  709MOL0     O95610   2.800   6.004   7.857 -0.0044 -0.3741  0.3787
  709MOL0     C95611   2.742   6.034   7.981  0.3806  0.2407  0.0029
  709MOL0     C95612   2.646   6.134   7.992 -0.1707  0.6607 -0.0572
  709MOL0     C95613   2.594   6.173   8.119 -0.0109  0.0268  0.3213
  709MOL0     C95614   2.618   6.095   8.230 -0.2515 -0.4398  0.0916
  709MOL0     O95615   2.569   6.139   8.352  0.6854  0.1551  0.3451
  709MOL0     C95616   2.462   6.053   8.403 -0.1828 -0.0594  0.7587
  709MOL0     C95617   2.389   6.129   8.505  0.6613  0.3172 -0.6079
  709MOL0     C95618   2.256   6.053   8.539 -0.5879  0.3990  0.5974
  709MOL0     C95619   2.139   6.087   8.447 -0.5514 -0.1539  0.0014
  709MOL0     C95620   2.018   5.994   8.470 -0.9880 -1.4220  0.7094
  709MOL0     C95621   1.892   6.045   8.406 -0.2819 -0.0353  0.0904
  709MOL0     C95622   1.897   6.059   8.253 -0.4634 -0.5516 -0.1011
  709MOL0     C95623   1.764   6.063   8.192  0.5761  0.9531  0.3642
  709MOL0    Cl95624   1.689   6.232   8.172  0.1939 -0.2171  0.5430
  709MOL0     C95625   2.697   5.981   8.221  1.2943  0.5819  0.8219
  709MOL0     C95626   2.757   5.953   8.090  0.9722  0.3907  0.1661
  709MOL0     O95627   2.646   6.093   7.709 -0.4196 -1.0064 -0.3936
  709MOL0     C95628   2.808   6.067   7.499 -0.0229 -0.2182 -0.0192
  709MOL0     C95629   2.894   6.043   7.399  0.5628 -0.4544 -0.5703
  709MOL0     N95630   3.676   5.889   7.123  0.2122  0.1773 -0.3022
  709MOL0     N95631   3.738   5.966   7.040  0.1868 -0.6749  0.1644
  709MOL0     C95632   4.284   6.801   7.614 -0.1182 -0.4426  0.2219
  709MOL0     C95633   4.246   6.902   7.699  0.2021 -1.1925 -0.5515
  709MOL0     C95634   4.227   7.164   8.033  0.5055  0.0195 -0.1468
  709MOL0     C95635   4.111   7.235   7.986  0.4370  0.9801  0.4495
  709MOL0     C95636   4.074   7.353   8.036  0.4174  0.6950  0.1994
  709MOL0     C95637   4.153   7.420   8.127  0.6235  0.5956 -0.4069
  709MOL0     O95638   4.095   7.531   8.184  0.4176  0.2168 -0.3554
  709MOL0     C95639   4.121   7.548   8.325  0.4002  0.0639  0.5484
  709MOL0     C95640   4.005   7.654   8.372 -0.3577 -0.0937  0.5570
  709MOL0     C95641   4.057   7.691   8.517  0.6601  0.3067  1.1539
  709MOL0     C95642   3.957   7.793   8.585 -0.1780  0.1790 -0.8209
  709MOL0     C95643   3.934   7.922   8.521  0.3342  0.6460  0.6582
  709MOL0     C95644   3.927   8.032   8.473 -0.1244  0.5628  0.2110
  709MOL0     C95645   4.273   7.367   8.166 -0.5865  1.3091  0.2952
  709MOL0     C95646   4.312   7.236   8.118 -0.7134 -0.1187  0.7774
  709MOL0     C95647   4.438   7.181   8.182  0.2205  0.6150 -0.0510
  709MOL0     H95648   4.131   6.695   7.939 -1.5582 -2.8666 -1.7464
  709MOL0     H95649   4.170   6.531   7.777  0.7801 -0.6711 -0.4103
  709MOL0     H95650   4.220   6.680   7.384  1.1781  0.1812 -4.6208
  709MOL0     H95651   4.391   6.628   7.388 -1.5498  0.5191 -3.4440
  709MOL0     H95652   4.294   6.381   7.378 -0.5570  0.4628  2.2531
  709MOL0     H95653   4.333   6.463   7.235 -1.7992  2.9626 -1.8452
  709MOL0     H95654   4.112   6.562   7.217  5.4142  0.1375 -0.5176
  709MOL0     H95655   4.064   6.484   7.373 -2.8076  2.0801 -1.5078
  709MOL0     H95656   4.177   6.328   7.147 -0.3178  1.6660  0.2840
  709MOL0     H95657   4.095   6.257   7.281 -0.9797 -0.4523 -1.6842
  709MOL0     H95658   3.873   6.329   7.182 -0.7726  0.6659  0.4516
  709MOL0     H95659   3.970   6.421   7.061  1.1841  0.2157  1.1929
  709MOL0     H95660   4.076   6.212   6.987 -0.4552  1.7249 -0.5406
  709MOL0     H95661   3.960   6.120   7.085  3.6585 -2.2800 -2.2282
  709MOL0     H95662   3.908   6.129   6.855 -0.9454 -1.0258  0.1896
  709MOL0     H95663   3.906   6.304   6.847 -1.7991  0.8511  0.2517
  709MOL0     H95664   3.705   6.309   7.011  0.0656  1.4401 -1.7394
  709MOL0     H95665   3.651   6.218   6.880 -1.1141 -3.0286  0.7657
  709MOL0     H95666   3.514   6.185   7.116  2.5197  1.9492 -0.6304
  709MOL0     H95667   3.457   5.834   7.286 -1.9177 -1.9256 -0.5365
  709MOL0     H95668   3.423   6.008   7.282  1.3226  0.5182 -0.3067
  709MOL0     H95669   3.274   5.977   7.090  0.6244 -0.2056 -0.3163
  709MOL0     H95670   3.369   5.848   7.030 -1.5305  2.0483 -1.5488
  709MOL0     H95671   3.284   5.683   7.196  2.8450  1.2281  1.0971
  709MOL0     H95672   3.143   5.746   7.102  1.4888  0.2534 -0.5555
  709MOL0     H95673   3.232   5.856   7.365  1.8388 -1.1974 -1.6554
  709MOL0     H95674   3.118   5.714   7.350  2.5684 -1.0017  0.1260
  709MOL0     H95675   3.095   5.811   7.541  0.8078  1.7044 -2.8452
  709MOL0     H95676   2.959   5.857   7.728 -0.1062 -0.3742 -0.9339
  709MOL0     H95677   2.622   6.201   7.910  0.4567  1.8359  0.6705
  709MOL0     H95678   2.538   6.264   8.137 -3.1672 -1.7333  0.0623
  709MOL0     H95679   2.401   6.015   8.321  0.3990  2.1291 -0.7774
  709MOL0     H95680   2.506   5.966   8.452 -0.3901 -1.1495 -0.9020
  709MOL0     H95681   2.440   6.146   8.601 -2.1600  2.5539  0.6372
  709MOL0     H95682   2.367   6.233   8.480 -5.4039 -0.0851  1.5148
  709MOL0     H95683   2.268   5.944   8.529  1.7612  0.7024 -0.6916
  709MOL0     H95684   2.236   6.066   8.646 -1.2045 -1.0077  0.6716
  709MOL0     H95685   2.176   6.068   8.346 -1.4325 -0.0065 -0.3527
  709MOL0     H95686   2.112   6.193   8.453  1.2823  0.2848  2.9195
  709MOL0     H95687   2.003   5.979   8.577  4.1098 -0.4143  1.7937
  709MOL0     H95688   2.033   5.891   8.437  0.2029 -0.6653 -1.3221
  709MOL0     H95689   1.815   5.969   8.422  0.6500 -1.0923 -0.2925
  709MOL0     H95690   1.872   6.136   8.462  1.1659 -0.9969  2.3199
  709MOL0     H95691   1.947   5.976   8.202 -2.7210 -3.1236  1.6064
  709MOL0     H95692   1.946   6.153   8.225 -0.1862 -0.9886 -1.0953
  709MOL0     H95693   1.758   6.014   8.094  2.0969  1.4488 -0.0060
  709MOL0     H95694   1.697   6.007   8.257  2.4501  0.8925  2.3396
  709MOL0     H95695   2.708   5.917   8.308  0.4940  3.0557  2.9013
  709MOL0     H95696   2.798   5.854   8.076  1.0590  0.5425 -0.6935
  709MOL0     H95697   2.744   6.154   7.493  0.9377  0.5307  0.2663
  709MOL0     H95698   2.867   6.106   7.315 -1.7269 -1.8358 -0.9668
  709MOL0     H95699   4.348   6.818   7.528 -0.9179  1.4154 -0.0499
  709MOL0     H95700   4.272   7.005   7.678 -1.2337 -0.4655  1.0326
  709MOL0     H95701   4.059   7.176   7.910 -1.1755 -0.5524  2.6166
  709MOL0     H95702   3.982   7.396   7.998 -0.8024 -2.2846 -0.5798
  709MOL0     H95703   4.221   7.593   8.327 -0.1158  1.4161 -1.2291
  709MOL0     H95704   4.125   7.451   8.376 -0.9846 -1.5505 -2.1986
  709MOL0     H95705   3.902   7.616   8.374 -0.4553 -0.3902 -2.9189
  709MOL0     H95706   4.010   7.732   8.296  4.1126  0.4236  1.0935
  709MOL0     H95707   4.156   7.739   8.511 -0.4466  2.5631 -0.9464
  709MOL0     H95708   4.062   7.600   8.576 -0.3181 -1.0697 -0.7726
  709MOL0     H95709   3.861   7.751   8.619  0.2522  0.5641  0.9775
  709MOL0     H95710   4.005   7.818   8.680 -0.6514  1.6905 -0.9488
  709MOL0     H95711   3.929   8.128   8.425 -2.5502 -0.0076 -1.2076
  709MOL0     H95712   4.339   7.422   8.232 -1.7844  2.3462  0.6476
  709MOL0     H95713   4.431   7.077   8.215  0.5634  1.1648  1.8311
  709MOL0     H95714   4.519   7.204   8.112  1.0477 -1.2797  0.2203
  709MOL0     H95715   4.472   7.246   8.263 -1.2069  0.7521  0.4686
  710MOL0     O95716   7.309  10.642   1.972 -0.5512 -0.0945  0.1101
  710MOL0     C95717   7.230  10.719   2.031  1.4940 -0.2375 -0.4019
  710MOL0     O95718   7.238  10.762   2.166  0.3409 -0.3569 -0.5195
  710MOL0     C95719   7.339  10.704   2.231 -0.3070 -0.4892 -0.3440
  710MOL0     C95720   7.312  10.592   2.313 -0.6584 -0.9549 -0.2213
  710MOL0     C95721   7.414  10.524   2.396 -0.4146  0.7340 -1.0114
  710MOL0     C95722   7.552  10.570   2.379  0.1088 -0.5175  0.1384
  710MOL0     O95723   7.660  10.518   2.448  0.3009 -0.2206  0.7514
  710MOL0     C95724   7.636  10.424   2.550  0.5078  1.4725  0.1814
  710MOL0     C95725   7.612  10.487   2.698  0.1931 -0.3805  1.4228
  710MOL0     C95726   7.652  10.379   2.802  0.7192 -0.8506 -0.2263
  710MOL0     C95727   7.637  10.432   2.940  1.3383  0.2231 -0.2609
  710MOL0     C95728   7.688  10.348   3.051 -0.2277  0.4299  0.6677
  710MOL0     C95729   7.624  10.394   3.182  0.2429 -0.0652 -0.6362
  710MOL0     C95730   7.691  10.320   3.304 -0.0343 -1.3853  0.1369
  710MOL0     C95731   7.822  10.393   3.342  0.4758  0.5377 -1.0376
  710MOL0     N95732   7.887  10.345   3.465 -0.4426  0.5848 -0.5541
  710MOL0     C95733   7.934  10.220   3.488  1.2358  0.1232 -0.3144
  710MOL0     C95734   7.969  10.218   3.622 -0.7323 -0.7220  0.7923
  710MOL0     C95735   8.024  10.106   3.707 -0.8229 -0.2057 -0.1732
  710MOL0     C95736   8.178  10.123   3.752 -0.0701  0.1202 -0.1263
  710MOL0     C95737   8.219   9.993   3.822  0.3432 -0.9128  0.2385
  710MOL0     C95738   8.345  10.021   3.894  0.1376  0.1049 -0.4623
  710MOL0     O95739   8.377   9.918   3.991  0.2024 -0.4642  0.2667
  710MOL0     C95740   8.487   9.834   3.981  1.3428  0.4978  0.1680
  710MOL0     C95741   8.542   9.782   4.099  0.9256 -0.2741  0.0743
  710MOL0     C95742   8.651   9.689   4.091 -0.1919  0.3126  0.7091
  710MOL0     C95743   8.710   9.665   3.965 -0.0616 -0.2159  0.3266
  710MOL0     C95744   8.834   9.579   3.962  0.0249  0.8228 -0.1615
  710MOL0     O95745   8.899   9.539   4.076 -0.0008 -0.1810 -0.0227
  710MOL0     C95746   9.028   9.490   4.077  0.2587 -1.0157  0.3655
  710MOL0     C95747   9.062   9.390   3.992 -0.9362 -0.8034  0.8384
  710MOL0     C95748   9.188   9.333   3.985  0.0016  0.8254  0.8780
  710MOL0     C95749   9.287   9.371   4.074  0.6117  0.2028  0.3360
  710MOL0     O95750   9.410   9.313   4.060 -0.3594  0.4367 -0.2880
  710MOL0     C95751   9.515   9.345   4.165 -0.3665 -0.8029  0.0790
  710MOL0     C95752   9.477   9.290   4.309  0.8111 -0.0115  1.1382
  710MOL0     C95753   9.453   9.139   4.299  0.0997 -0.5672  0.1083
  710MOL0     C95754   9.582   9.071   4.336 -0.5353  0.1657 -0.1435
  710MOL0     C95755   9.557   8.925   4.370  0.4479 -0.2252 -0.2811
  710MOL0     C95756   9.503   8.880   4.507 -0.4741  0.5999  0.5701
  710MOL0     C95757   9.602   8.903   4.630  0.0708  0.8688 -0.4187
  710MOL0     C95758   9.692   8.775   4.642  0.8578  0.0085  0.4479
  710MOL0    Cl95759   9.589   8.645   4.724  0.1259 -0.0740  0.1888
  710MOL0     C95760   9.259   9.474   4.173 -0.0029  0.4173  0.1398
  710MOL0     C95761   9.129   9.538   4.167 -0.2174  0.4294 -0.3608
  710MOL0     O95762   8.880   9.561   3.852  0.4827  0.0238 -0.0354
  710MOL0     C95763   8.637   9.712   3.852 -0.2143 -0.3596  0.7551
  710MOL0     C95764   8.529   9.793   3.858 -0.7551 -0.3087 -0.3279
  710MOL0     N95765   7.947  10.341   3.673  0.5318  0.4508  0.1062
  710MOL0     N95766   7.901  10.417   3.581  0.1845 -0.0549 -0.8613
  710MOL0     C95767   7.580  10.683   2.292  0.5640 -0.1066  0.2853
  710MOL0     C95768   7.479  10.741   2.219 -0.5499  0.1399  0.3074
  710MOL0     C95769   7.106  10.758   1.956  0.3004 -0.3585  0.3465
  710MOL0     C95770   6.977  10.757   2.022 -1.2056 -0.2588  0.6259
  710MOL0     C95771   6.869  10.803   1.955 -0.4501 -0.6815  0.0460
  710MOL0     C95772   6.870  10.837   1.813 -0.3399 -0.3767  1.4506
  710MOL0     O95773   6.762  10.887   1.735  0.4348  0.1546 -0.1145
  710MOL0     C95774   6.640  10.904   1.803  0.0560  0.7756  0.0936
  710MOL0     C95775   6.540  10.966   1.708  0.7857  0.0965  0.4872
  710MOL0     C95776   6.472  10.863   1.617 -0.7445 -0.6247  0.0241
  710MOL0     C95777   6.353  10.916   1.530  0.1070 -0.0237  0.5572
  710MOL0     C95778   6.401  10.977   1.411 -0.3973  0.5378  0.0899
  710MOL0     C95779   6.433  11.013   1.297 -0.2200 -0.0293  0.6422
  710MOL0     C95780   6.991  10.832   1.750 -0.0720 -1.3068 -0.3334
  710MOL0     C95781   7.110  10.797   1.821 -0.1071  0.1648 -1.0135
  710MOL0     C95782   7.238  10.793   1.739  0.6089  0.2020  0.2986
  710MOL0     H95783   7.206  10.569   2.318 -1.3442  1.6723 -1.0404
  710MOL0     H95784   7.375  10.439   2.452 -1.6190  0.9706 -1.4697
  710MOL0     H95785   7.556  10.353   2.528  2.3855 -1.2915  1.6754
  710MOL0     H95786   7.726  10.362   2.562  0.4542  1.1449 -1.0131
  710MOL0     H95787   7.506  10.510   2.708  0.7184  2.8958  0.5743
  710MOL0     H95788   7.677  10.575   2.700  1.2351 -1.0461 -0.5637
  710MOL0     H95789   7.761  10.370   2.797  0.9065  0.1367  1.5565
  710MOL0     H95790   7.592  10.290   2.778 -1.4981  1.3272 -3.5568
  710MOL0     H95791   7.687  10.528   2.937  0.9160  0.4275 -1.0676
  710MOL0     H95792   7.531  10.453   2.960  1.0261 -2.1199  0.9692
  710MOL0     H95793   7.657  10.246   3.028 -3.2408  1.4115 -0.1296
  710MOL0     H95794   7.796  10.362   3.053 -0.1976  0.6058 -0.9661
  710MOL0     H95795   7.629  10.503   3.185 -3.9373  0.2939 -0.8570
  710MOL0     H95796   7.517  10.370   3.179  0.2040 -0.3045  1.2501
  710MOL0     H95797   7.701  10.212   3.289 -1.3839 -2.0441  3.2546
  710MOL0     H95798   7.625  10.337   3.389 -1.0320  1.9351 -1.1440
  710MOL0     H95799   7.892  10.368   3.262  0.4503 -0.0763 -0.8703
  710MOL0     H95800   7.801  10.501   3.338  3.0511  1.1836  0.4778
  710MOL0     H95801   7.941  10.130   3.427 -1.0831  0.9938 -2.0049
  710MOL0     H95802   7.962  10.092   3.796  0.9008 -2.4149  0.7968
  710MOL0     H95803   8.011  10.013   3.650 -2.3706  0.2241 -0.5775
  710MOL0     H95804   8.237  10.146   3.663 -1.0693  0.3466 -0.7441
  710MOL0     H95805   8.189  10.216   3.808  1.5317  1.1046 -1.9339
  710MOL0     H95806   8.238   9.911   3.751 -0.4413  0.3730 -1.5393
  710MOL0     H95807   8.142   9.957   3.890 -0.1593 -4.4653 -1.9553
  710MOL0     H95808   8.343  10.118   3.945  1.8152  0.4964 -1.0679
  710MOL0     H95809   8.421  10.032   3.815  0.2700 -0.1453 -0.3703
  710MOL0     H95810   8.482   9.799   4.188 -0.9288 -1.1113 -0.9550
  710MOL0     H95811   8.712   9.648   4.171  0.8765 -1.3892 -0.9009
  710MOL0     H95812   8.987   9.343   3.930 -1.8445  0.0841  1.2410
  710MOL0     H95813   9.213   9.248   3.922  2.2424  1.3432  0.9929
  710MOL0     H95814   9.612   9.316   4.126 -0.0347  1.1507 -0.6838
  710MOL0     H95815   9.525   9.454   4.175  0.3776 -0.7702 -0.9622
  710MOL0     H95816   9.556   9.319   4.379  2.2315  1.0731 -0.8199
  710MOL0     H95817   9.386   9.338   4.347  1.9791  1.9205  1.6292
  710MOL0     H95818   9.376   9.104   4.369 -1.3425  1.0509 -0.5627
  710MOL0     H95819   9.432   9.118   4.194  3.8993 -2.2841 -0.4736
  710MOL0     H95820   9.633   9.108   4.426  0.3064 -1.8466  0.2540
  710MOL0     H95821   9.644   9.077   4.247  3.2353 -1.3062  2.1491
  710MOL0     H95822   9.652   8.872   4.359  0.5024 -0.7424  2.0589
  710MOL0     H95823   9.479   8.890   4.302 -2.6613  2.1160  1.7666
  710MOL0     H95824   9.413   8.940   4.521  1.4628  3.0624  4.0321
  710MOL0     H95825   9.479   8.773   4.508  1.5584 -0.0310 -2.8031
  710MOL0     H95826   9.551   8.931   4.723  4.0824  1.5374  1.8112
  710MOL0     H95827   9.665   8.989   4.608  3.9030 -1.5969 -0.1710
  710MOL0     H95828   9.724   8.747   4.541 -0.8792  0.6898 -0.3370
  710MOL0     H95829   9.783   8.791   4.701  0.8781  0.3044  0.3394
  710MOL0     H95830   9.340   9.511   4.235  1.3194 -0.1096 -1.2165
  710MOL0     H95831   9.087   9.622   4.221 -1.1770  0.0432 -0.4723
  710MOL0     H95832   8.677   9.668   3.761 -0.1515 -0.3119  0.7595
  710MOL0     H95833   8.488   9.838   3.769 -0.5558  1.3043  0.3743
  710MOL0     H95834   7.677  10.732   2.289  0.0013  2.0342  5.8459
  710MOL0     H95835   7.505  10.815   2.144 -4.5350  1.2051 -0.2984
  710MOL0     H95836   6.964  10.713   2.120  3.4680 -0.2330  1.5005
  710MOL0     H95837   6.783  10.793   2.021 -0.6507 -2.2850 -0.4104
  710MOL0     H95838   6.647  10.965   1.894 -1.5951  2.3958 -0.7955
  710MOL0     H95839   6.612  10.807   1.844 -0.5517  0.1297 -1.7521
  710MOL0     H95840   6.585  11.036   1.637  2.8382 -1.7387 -0.0989
  710MOL0     H95841   6.469  11.022   1.770 -1.2039 -0.6893 -0.9414
  710MOL0     H95842   6.431  10.788   1.687  0.5361 -4.0988 -2.6592
  710MOL0     H95843   6.540  10.808   1.552  0.7342  0.2993  0.7508
  710MOL0     H95844   6.290  10.835   1.492  0.0954 -1.2890  3.0905
  710MOL0     H95845   6.292  10.985   1.589 -0.9139  0.0653 -0.5602
  710MOL0     H95846   6.467  11.025   1.196  0.1884  1.1656  0.9087
  710MOL0     H95847   7.012  10.864   1.649  1.9044 -2.1877 -0.2513
  710MOL0     H95848   7.264  10.694   1.703 -1.4088 -1.2724  2.5947
  710MOL0     H95849   7.233  10.855   1.649  1.9087 -1.4014 -0.9442
  710MOL0     H95850   7.323  10.824   1.801 -0.1558 -0.5807  1.7772
  711MOL0     O95851   7.862   8.830   9.302 -0.9729  0.1715  0.5696
  711MOL0     C95852   7.805   8.852   9.193  1.1618 -0.5230  0.6337
  711MOL0     O95853   7.848   8.819   9.069  0.1902  0.4084  0.1818
  711MOL0     C95854   7.983   8.805   9.046  0.4125  0.0819 -1.2937
  711MOL0     C95855   8.081   8.904   9.071 -0.1897 -0.6237 -0.0059
  711MOL0     C95856   8.215   8.885   9.041  0.7312  0.1615 -0.5334
  711MOL0     C95857   8.255   8.762   8.978 -0.6023 -0.5371 -0.5048
  711MOL0     O95858   8.379   8.727   8.945  0.1696  0.1424  0.1843
  711MOL0     C95859   8.483   8.834   8.947  0.3520  0.5338  0.6008
  711MOL0     C95860   8.608   8.791   8.868  0.3019  1.6777 -0.3271
  711MOL0     C95861   8.731   8.855   8.919 -0.3842  0.5522 -0.4732
  711MOL0     C95862   8.855   8.798   8.843  0.2545  0.0983  0.2779
  711MOL0     C95863   8.984   8.838   8.919 -0.3219 -1.0745  0.8200
  711MOL0     C95864   9.104   8.801   8.833  0.2542 -0.4137 -0.9686
  711MOL0     C95865   9.232   8.793   8.903 -0.2276 -0.1586 -0.7636
  711MOL0     C95866   9.321   8.677   8.854  0.6823 -0.1397 -0.0252
  711MOL0     N95867   9.353   8.688   8.705  0.0499  0.6061 -0.5376
  711MOL0     C95868   9.397   8.807   8.651  0.0523  1.3028 -0.2007
  711MOL0     C95869   9.436   8.766   8.529  0.2432 -0.3004 -1.4507
  711MOL0     C95870   9.499   8.864   8.434  0.6481 -0.6717 -0.2033
  711MOL0     C95871   9.651   8.859   8.454  0.6732 -0.0542  0.3811
  711MOL0     C95872   9.724   8.975   8.386 -0.0193  0.3165  0.4867
  711MOL0     C95873   9.878   8.945   8.364  0.1874  0.4817  0.1029
  711MOL0     O95874   9.943   9.075   8.338  0.0939 -0.0466  0.3359
  711MOL0     C95875  10.076   9.077   8.310 -0.1316 -0.6129  0.3439
  711MOL0     C95876  10.167   8.968   8.306  0.2771 -0.9770  0.0158
  711MOL0     C95877  10.306   8.985   8.269  0.0319 -0.6860  0.8998
  711MOL0     C95878  10.353   9.113   8.223  0.9773  0.1253 -0.5059
  711MOL0     C95879  10.493   9.136   8.194 -1.0979 -0.1613  0.7747
  711MOL0     O95880  10.526   9.248   8.128 -0.0673  0.4561  0.4874
  711MOL0     C95881  10.659   9.275   8.113 -0.9559  0.0982 -0.3634
  711MOL0     C95882  10.740   9.310   8.230  0.3325  0.8817 -0.8374
  711MOL0     C95883  10.870   9.360   8.211  0.4289 -0.2696 -1.0154
  711MOL0     C95884  10.904   9.401   8.076 -0.1294  0.2546 -1.2142
  711MOL0     O95885  11.038   9.438   8.051  0.1175  0.5492 -0.1206
  711MOL0     C95886  11.124   9.354   7.974 -0.1825 -0.1105 -0.0386
  711MOL0     C95887  11.236   9.296   8.053  0.1481  0.4077  0.0349
  711MOL0     C95888  11.203   9.148   8.094  0.5490  0.1823  0.1754
  711MOL0     C95889  11.335   9.069   8.134 -0.2688  0.1169  0.0875
  711MOL0     C95890  11.383   9.095   8.273  0.4478 -0.4745  0.1951
  711MOL0     C95891  11.515   9.025   8.299 -0.6459 -0.2485  0.3037
  711MOL0     C95892  11.578   9.064   8.442 -0.2689  0.2243  0.6644
  711MOL0     C95893  11.633   8.945   8.533  0.6747 -1.2217  0.1542
  711MOL0    Cl95894  11.487   8.863   8.586 -0.0231 -0.3406 -0.0404
  711MOL0     C95895  10.827   9.375   7.969 -0.1325 -0.5419 -0.1342
  711MOL0     C95896  10.698   9.321   7.988  0.3544 -0.3633  0.2036
  711MOL0     O95897  10.579   9.050   8.231  0.7350  0.0942  0.1838
  711MOL0     C95898  10.262   9.223   8.226  0.9703  0.7831 -0.3557
  711MOL0     C95899  10.132   9.200   8.269  1.4718  0.1720 -0.5359
  711MOL0     N95900   9.408   8.633   8.500  0.1446  0.0455 -0.2071
  711MOL0     N95901   9.356   8.583   8.616 -0.3566  0.2566  1.3814
  711MOL0     C95902   8.157   8.666   8.960  0.3685  0.6106 -0.0268
  711MOL0     C95903   8.022   8.686   8.995  0.8701 -0.0873 -0.3393
  711MOL0     C95904   7.670   8.921   9.187 -0.1067  0.0416  0.4801
  711MOL0     C95905   7.658   9.012   9.084 -0.5036  0.4972 -0.5263
  711MOL0     C95906   7.531   9.066   9.074 -0.4763 -0.3341 -0.3650
  711MOL0     C95907   7.424   9.034   9.151  0.7664  0.1991 -0.1693
  711MOL0     O95908   7.302   9.098   9.129 -0.4520  0.5252  0.1219
  711MOL0     C95909   7.192   9.082   9.220  0.2644  0.6220  0.1453
  711MOL0     C95910   7.084   9.180   9.200 -0.6346 -0.5390  0.4307
  711MOL0     C95911   7.012   9.163   9.063 -0.8366  0.3289 -0.6633
  711MOL0     C95912   6.883   9.248   9.050  0.6400 -0.1635  0.0149
  711MOL0     C95913   6.912   9.392   9.019  0.3509  1.4041  0.6041
  711MOL0     C95914   6.941   9.504   9.001 -0.5024 -0.8380 -0.8208
  711MOL0     C95915   7.444   8.948   9.257 -0.1149 -0.0516 -0.4806
  711MOL0     C95916   7.565   8.889   9.276 -0.8732 -0.3051 -0.8023
  711MOL0     C95917   7.574   8.770   9.373 -0.4107 -0.4416  0.4053
  711MOL0     H95918   8.060   9.001   9.113  1.2232 -1.2359  2.2694
  711MOL0     H95919   8.288   8.962   9.063 -1.2782  1.8781  0.5848
  711MOL0     H95920   8.442   8.927   8.907  3.7401  1.1352 -1.9507
  711MOL0     H95921   8.503   8.844   9.054  0.7732 -2.0015  0.8434
  711MOL0     H95922   8.606   8.790   8.759  2.8387 -1.0680 -0.5009
  711MOL0     H95923   8.626   8.684   8.882  2.5876  1.6520 -2.7270
  711MOL0     H95924   8.733   8.850   9.028 -1.5353  1.1084 -0.4080
  711MOL0     H95925   8.725   8.959   8.886  2.8253  0.8876 -0.3071
  711MOL0     H95926   8.841   8.690   8.836  1.4537  0.0185 -2.2331
  711MOL0     H95927   8.852   8.830   8.738  0.3874 -0.3063  0.1489
  711MOL0     H95928   8.995   8.946   8.913 -0.8776 -1.0970 -2.2855
  711MOL0     H95929   8.983   8.804   9.023  1.8907 -2.3018  0.5090
  711MOL0     H95930   9.083   8.698   8.801 -2.6603  0.4227 -2.0529
  711MOL0     H95931   9.110   8.856   8.739 -0.3835  2.0517  0.3620
  711MOL0     H95932   9.212   8.785   9.010  0.1509  3.5845 -0.2794
  711MOL0     H95933   9.285   8.889   8.895 -0.3232 -0.1984 -2.1033
  711MOL0     H95934   9.419   8.656   8.897  0.0183 -1.2537  1.0076
  711MOL0     H95935   9.267   8.583   8.864 -1.1072  0.1967 -4.2455
  711MOL0     H95936   9.402   8.912   8.676 -0.9468  2.0515 -2.7984
  711MOL0     H95937   9.479   8.838   8.329 -1.9362 -2.4048  0.6347
  711MOL0     H95938   9.468   8.967   8.451  3.0527 -0.1994  1.9795
  711MOL0     H95939   9.663   8.876   8.561 -2.1564 -0.7281  0.8879
  711MOL0     H95940   9.702   8.765   8.430  2.1896  0.5318  1.1385
  711MOL0     H95941   9.705   9.060   8.450 -2.5083  2.3436 -2.6378
  711MOL0     H95942   9.679   9.017   8.295  0.6498  1.3383  0.6109
  711MOL0     H95943   9.903   8.888   8.275  1.4689  2.2771 -0.7603
  711MOL0     H95944   9.918   8.898   8.454  0.8390  2.5392  0.9485
  711MOL0     H95945  10.136   8.866   8.325 -2.1933 -0.6719 -1.9174
  711MOL0     H95946  10.379   8.905   8.269 -0.4233 -1.2660 -2.7121
  711MOL0     H95947  10.706   9.285   8.330  0.6495  3.5517  0.0127
  711MOL0     H95948  10.935   9.382   8.295 -0.6218  1.1157 -0.5296
  711MOL0     H95949  11.085   9.272   7.912  0.3629  0.2745 -0.8951
  711MOL0     H95950  11.163   9.434   7.911 -2.7222  0.6908 -0.6946
  711MOL0     H95951  11.326   9.286   7.992 -0.2539  0.8424 -0.6432
  711MOL0     H95952  11.257   9.354   8.143 -3.1287  1.3005  0.3739
  711MOL0     H95953  11.128   9.143   8.172 -0.3953  0.2917 -0.7037
  711MOL0     H95954  11.147   9.107   8.010  1.4407  0.4915 -0.5983
  711MOL0     H95955  11.421   9.087   8.069  0.9165 -1.2963  1.1997
  711MOL0     H95956  11.303   8.968   8.107 -0.5782  0.7374 -2.0072
  711MOL0     H95957  11.299   9.073   8.339  1.3041  2.9042  2.6652
  711MOL0     H95958  11.405   9.202   8.284  4.5598 -1.1400  0.2618
  711MOL0     H95959  11.501   8.917   8.290  0.9024 -0.3039 -2.7819
  711MOL0     H95960  11.591   9.043   8.223 -1.9690 -1.5989 -1.4105
  711MOL0     H95961  11.498   9.116   8.496 -2.2802 -3.3519  1.4322
  711MOL0     H95962  11.657   9.138   8.424 -0.7984  0.6912  0.1876
  711MOL0     H95963  11.689   8.868   8.481 -1.7225 -2.9383 -0.0401
  711MOL0     H95964  11.693   8.986   8.615 -0.2746  1.2023 -0.2634
  711MOL0     H95965  10.863   9.395   7.869  2.8472 -0.5161  0.8526
  711MOL0     H95966  10.637   9.293   7.903  1.0229 -2.9431  0.4897
  711MOL0     H95967  10.292   9.324   8.198  2.8689 -0.0316 -1.5325
  711MOL0     H95968  10.064   9.281   8.246  0.9592  0.2858  1.2227
  711MOL0     H95969   8.175   8.566   8.922 -1.4246  0.1184  0.3406
  711MOL0     H95970   7.952   8.607   8.971  2.7992 -1.2856 -2.3798
  711MOL0     H95971   7.731   9.062   9.022 -0.6725  1.1110 -0.2402
  711MOL0     H95972   7.511   9.124   8.984  0.4025  1.2323  0.4131
  711MOL0     H95973   7.222   9.094   9.325 -0.0437  0.6748  0.2275
  711MOL0     H95974   7.151   8.982   9.207 -0.2707  1.2108 -3.5907
  711MOL0     H95975   7.137   9.274   9.214  1.9558 -2.0560  1.5295
  711MOL0     H95976   7.002   9.177   9.273 -0.5872 -3.9900  0.5249
  711MOL0     H95977   6.973   9.061   9.071  1.4272 -0.4544  4.2288
  711MOL0     H95978   7.082   9.169   8.979 -1.8039 -0.3553 -1.5421
  711MOL0     H95979   6.821   9.208   8.969  1.3785  0.9940 -1.1809
  711MOL0     H95980   6.814   9.237   9.134 -0.1592  2.0285 -0.2835
  711MOL0     H95981   6.966   9.607   8.983  3.4201 -1.4558  0.2011
  711MOL0     H95982   7.365   8.908   9.320  1.0028 -0.7123  0.5479
  711MOL0     H95983   7.477   8.721   9.382  0.1739 -1.3221  2.6890
  711MOL0     H95984   7.653   8.702   9.338  0.8389  1.4307 -0.6172
  711MOL0     H95985   7.601   8.800   9.475  2.0432 -2.9998  0.6365
  712MOL0     O95986   7.882   9.461   5.691 -0.4554  0.6446  0.9695
  712MOL0     C95987   7.996   9.465   5.655 -0.3055 -0.1825 -0.5480
  712MOL0     O95988   8.084   9.567   5.678  0.2791 -0.3753 -0.3709
  712MOL0     C95989   8.042   9.686   5.723  0.8116 -0.1186  0.7920
  712MOL0     C95990   8.004   9.793   5.640  0.4725 -0.1339 -0.9382
  712MOL0     C95991   7.967   9.917   5.700  0.5308  1.0380  0.1891
  712MOL0     C95992   7.956   9.930   5.842 -1.3692  0.3561  0.1308
  712MOL0     O95993   7.907  10.033   5.915 -0.3879 -0.7428 -0.2439
  712MOL0     C95994   7.937  10.172   5.874 -0.2439  0.0894 -1.1435
  712MOL0     C95995   7.915  10.256   6.002  0.1758  0.5927 -0.7816
  712MOL0     C95996   7.929  10.407   5.994  0.0291  0.9645 -0.6103
  712MOL0     C95997   7.847  10.488   6.108 -0.0367  0.6167  0.6182
  712MOL0     C95998   7.915  10.614   6.160 -0.7896  0.8395  0.2872
  712MOL0     C95999   7.909  10.731   6.065  0.0192 -0.2375  0.8512
  712MOL0     C96000   7.770  10.788   6.043  0.6939  0.3191 -0.5715
  712MOL0     C96001   7.788  10.915   5.958 -0.7352  0.2618 -0.3552
  712MOL0     N96002   7.662  10.992   5.945  0.4794  0.2311 -0.3662
  712MOL0     C96003   7.657  11.125   5.912  0.3339  0.2661  0.5086
  712MOL0     C96004   7.528  11.143   5.940  0.4065 -0.0253  0.4608
  712MOL0     C96005   7.455  11.276   5.938 -0.0380  0.1378  0.1559
  712MOL0     C96006   7.466  11.353   5.805 -0.1644 -0.7887  0.7678
  712MOL0     C96007   7.411  11.501   5.833 -0.8959 -0.3066  0.2025
  712MOL0     C96008   7.509  11.587   5.915 -0.2139 -0.4956 -0.1024
  712MOL0     O96009   7.445  11.640   6.042 -0.4549  0.2868 -0.4060
  712MOL0     C96010   7.492  11.747   6.110 -0.4097 -0.3179  0.8185
  712MOL0     C96011   7.460  11.758   6.252  0.6417  0.6721  0.0252
  712MOL0     C96012   7.500  11.878   6.326 -0.4396  0.3947  0.5836
  712MOL0     C96013   7.576  11.979   6.256 -1.0486 -0.1657  0.2739
  712MOL0     C96014   7.610  12.111   6.324  0.0358 -0.3858 -0.0540
  712MOL0     O96015   7.560  12.125   6.452 -0.7333  0.0157 -0.1324
  712MOL0     C96016   7.617  12.215   6.533  0.4044  0.0436 -1.0796
  712MOL0     C96017   7.756  12.242   6.537 -0.4727  0.8676  0.0819
  712MOL0     C96018   7.807  12.323   6.629  0.5378 -0.3454  0.8003
  712MOL0     C96019   7.720  12.399   6.714  0.2373 -0.2380 -0.2655
  712MOL0     O96020   7.762  12.469   6.824  0.2429  0.0450  0.3420
  712MOL0     C96021   7.855  12.571   6.802 -0.1856 -0.2023 -0.0182
  712MOL0     C96022   7.821  12.698   6.871  0.1561  0.6658 -0.3620
  712MOL0     C96023   7.948  12.783   6.911  1.1527  0.7673 -0.7464
  712MOL0     C96024   8.021  12.842   6.793 -0.1971  0.0208  0.1103
  712MOL0     C96025   8.089  12.966   6.827  0.5238  1.1909 -0.1935
  712MOL0     C96026   8.155  13.047   6.714  0.0621 -0.4079 -0.0087
  712MOL0     C96027   8.255  13.152   6.772 -0.2837  0.6501 -0.7587
  712MOL0     C96028   8.292  13.263   6.671 -0.8954 -0.6896  0.8829
  712MOL0    Cl96029   8.320  13.196   6.499 -0.1299  0.5724  0.7116
  712MOL0     C96030   7.585  12.374   6.706  0.0455 -0.5158  0.4580
  712MOL0     C96031   7.529  12.292   6.616  1.1394 -0.3907 -0.7275
  712MOL0     O96032   7.674  12.195   6.259 -0.1362 -0.4529 -0.3990
  712MOL0     C96033   7.603  11.966   6.120 -0.6567  0.2557  0.4078
  712MOL0     C96034   7.552  11.860   6.046  0.7460  0.5111 -0.8517
  712MOL0     N96035   7.454  11.031   5.970  0.3449  1.3262 -0.5034
  712MOL0     N96036   7.540  10.942   5.972 -0.1355  0.7098 -0.6124
  712MOL0     C96037   7.986   9.816   5.922  0.0077 -0.0010  0.5698
  712MOL0     C96038   8.021   9.694   5.861 -0.3779  0.1897  1.4257
  712MOL0     C96039   8.048   9.338   5.600  0.6846  0.5155  0.6685
  712MOL0     C96040   8.022   9.208   5.655  0.4418 -0.4849 -0.0678
  712MOL0     C96041   8.069   9.093   5.601  0.1802 -0.3047 -0.1835
  712MOL0     C96042   8.139   9.095   5.481  0.0331 -0.5171 -0.6520
  712MOL0     O96043   8.183   8.987   5.411  1.0802 -0.0545  0.1364
  712MOL0     C96044   8.085   8.885   5.374  0.5243  0.3746  0.2599
  712MOL0     C96045   8.132   8.822   5.243 -0.0737  0.3829  1.0838
  712MOL0     C96046   8.130   8.932   5.123 -0.3595  0.3534 -0.1110
  712MOL0     C96047   8.237   8.899   5.015  0.0040 -0.3330  0.2600
  712MOL0     C96048   8.377   8.910   5.051 -0.6838 -0.0943 -1.0575
  712MOL0     C96049   8.492   8.922   5.094 -0.0563 -0.1417  0.4993
  712MOL0     C96050   8.157   9.219   5.423 -0.5052 -0.6083  0.1118
  712MOL0     C96051   8.114   9.334   5.479  0.2831 -0.4282 -0.1520
  712MOL0     C96052   8.130   9.465   5.393 -0.4718  0.4046 -0.1942
  712MOL0     H96053   8.017   9.785   5.532  3.2572 -1.4231 -0.6116
  712MOL0     H96054   7.931   9.991   5.629 -2.1974 -2.5091 -2.5417
  712MOL0     H96055   8.041  10.170   5.838 -0.4748 -2.8902 -1.8936
  712MOL0     H96056   7.875  10.210   5.793 -0.7572 -0.5185 -1.0391
  712MOL0     H96057   7.995  10.214   6.063  0.1840  1.4240 -0.1991
  712MOL0     H96058   7.810  10.247   6.034  0.2887  0.9030 -0.3170
  712MOL0     H96059   7.897  10.444   5.896  2.0671  2.7178 -0.6913
  712MOL0     H96060   8.035  10.430   6.010 -0.2264  1.2402  0.8312
  712MOL0     H96061   7.743  10.507   6.080 -1.5039 -2.1739  3.5237
  712MOL0     H96062   7.839  10.423   6.195 -2.3823 -1.2508 -0.8768
  712MOL0     H96063   7.874  10.639   6.259 -4.0035  0.3169 -0.8064
  712MOL0     H96064   8.023  10.604   6.174 -0.1498  4.9543 -0.6460
  712MOL0     H96065   7.972  10.812   6.103 -1.6485  1.2429  0.5880
  712MOL0     H96066   7.969  10.706   5.977 -0.2622  3.5150 -0.6132
  712MOL0     H96067   7.739  10.827   6.140  2.8517  2.4273 -0.6307
  712MOL0     H96068   7.696  10.711   6.018 -0.7974  1.1303  1.1001
  712MOL0     H96069   7.868  10.973   6.005 -0.9344 -2.1388  3.2775
  712MOL0     H96070   7.835  10.886   5.864  2.2847  0.3594  1.0062
  712MOL0     H96071   7.737  11.197   5.897  0.0860  0.1744 -1.6319
  712MOL0     H96072   7.349  11.248   5.941  0.5871 -3.0798 -2.3999
  712MOL0     H96073   7.498  11.334   6.020 -1.9871  1.4825  0.3067
  712MOL0     H96074   7.571  11.342   5.777 -1.0753 -0.3980 -3.5190
  712MOL0     H96075   7.410  11.309   5.722  2.0415  2.6038 -2.8944
  712MOL0     H96076   7.312  11.478   5.874 -0.5791 -1.4893  0.3549
  712MOL0     H96077   7.394  11.555   5.739 -0.9180 -1.1422 -0.2851
  712MOL0     H96078   7.538  11.672   5.853  0.2322  1.5484  2.6771
  712MOL0     H96079   7.591  11.517   5.934 -1.1478 -1.7103 -0.4543
  712MOL0     H96080   7.425  11.669   6.304  2.0080 -1.1462 -1.9785
  712MOL0     H96081   7.481  11.889   6.432  0.2356 -0.9905  0.8760
  712MOL0     H96082   7.827  12.175   6.490  0.9623  0.1911  2.9839
  712MOL0     H96083   7.915  12.322   6.643  0.6619 -0.4183 -0.1193
  712MOL0     H96084   7.954  12.545   6.841 -1.1316  0.8878  3.4835
  712MOL0     H96085   7.853  12.595   6.695 -0.4142 -1.3953 -0.2883
  712MOL0     H96086   7.756  12.761   6.810 -0.3307 -0.0966 -0.6492
  712MOL0     H96087   7.761  12.668   6.957 -1.1519  0.5106 -1.3007
  712MOL0     H96088   7.933  12.861   6.987  3.2789 -1.3395  2.0591
  712MOL0     H96089   8.015  12.710   6.955  2.1572  3.1350  2.0135
  712MOL0     H96090   7.959  12.855   6.704 -0.5546  0.5423  0.4349
  712MOL0     H96091   8.107  12.780   6.766  0.1020  0.3994  0.1846
  712MOL0     H96092   8.150  12.945   6.915 -1.3726 -0.9278  0.7147
  712MOL0     H96093   8.007  13.029   6.861 -0.1592 -1.2054  3.1491
  712MOL0     H96094   8.216  12.989   6.643  0.8132 -1.4746  1.4549
  712MOL0     H96095   8.083  13.092   6.645  1.2310  0.8977 -0.4149
  712MOL0     H96096   8.353  13.109   6.792 -1.8497 -1.2708  4.2315
  712MOL0     H96097   8.210  13.202   6.858 -0.9802  0.6612 -1.1198
  712MOL0     H96098   8.212  13.338   6.671 -0.7642 -0.5429  0.4829
  712MOL0     H96099   8.389  13.305   6.699  1.0391 -3.8836 -0.4845
  712MOL0     H96100   7.527  12.422   6.784  0.8906  1.7838 -0.2546
  712MOL0     H96101   7.423  12.269   6.612  0.8169  1.1920 -2.7888
  712MOL0     H96102   7.651  12.056   6.081  0.2119  0.4728  1.9017
  712MOL0     H96103   7.566  11.846   5.939  1.0336  0.7100 -0.8414
  712MOL0     H96104   7.987   9.823   6.031  2.9948 -0.3949  0.6357
  712MOL0     H96105   8.041   9.613   5.931 -1.1261 -2.4079 -1.2014
  712MOL0     H96106   7.963   9.194   5.746  0.2596  2.0732  0.2926
  712MOL0     H96107   8.045   8.997   5.644 -1.3119  0.9921  2.0519
  712MOL0     H96108   7.986   8.929   5.360 -0.2625 -1.5218 -0.4050
  712MOL0     H96109   8.073   8.813   5.455  0.2425  0.4677  0.3019
  712MOL0     H96110   8.062   8.743   5.216  2.1807 -1.4988  0.4134
  712MOL0     H96111   8.235   8.786   5.244  0.1908  1.0929  0.3972
  712MOL0     H96112   8.144   9.036   5.155 -2.2019  0.4375  0.5071
  712MOL0     H96113   8.030   8.926   5.080 -0.4189 -2.1401  0.2578
  712MOL0     H96114   8.227   8.792   4.994  0.8972 -0.9881  2.8282
  712MOL0     H96115   8.209   8.966   4.934 -2.6394  1.3717  2.4017
  712MOL0     H96116   8.591   8.909   5.133  0.8162 -3.7550 -2.3903
  712MOL0     H96117   8.198   9.228   5.323 -2.0215  2.2375 -0.3716
  712MOL0     H96118   8.204   9.533   5.435 -2.4452  3.1016 -0.7916
  712MOL0     H96119   8.167   9.433   5.295  0.0659 -1.6183  0.6392
  712MOL0     H96120   8.039   9.526   5.380 -0.0765  0.5726 -2.7989
  713MOL0     O96121   8.480   2.677   4.295  0.3826 -0.0357  0.3281
  713MOL0     C96122   8.530   2.622   4.210  0.6500 -0.5775  0.2601
  713MOL0     O96123   8.496   2.634   4.074 -0.5108  0.7946  0.2026
  713MOL0     C96124   8.372   2.671   4.025  1.1836  0.1265 -0.6391
  713MOL0     C96125   8.354   2.714   3.898  0.1050 -0.2439  0.8085
  713MOL0     C96126   8.232   2.732   3.839  0.7226 -0.1283  0.1032
  713MOL0     C96127   8.118   2.723   3.921  0.2406  0.1924 -0.4398
  713MOL0     O96128   7.991   2.735   3.865 -0.4164 -0.1192  0.2937
  713MOL0     C96129   7.960   2.867   3.886  0.6088 -0.2955  0.0238
  713MOL0     C96130   7.837   2.903   3.813 -0.5656 -0.2349  0.4164
  713MOL0     C96131   7.705   2.836   3.849  0.0928  0.5659 -0.2646
  713MOL0     C96132   7.583   2.879   3.778  0.3582  0.3752 -0.1414
  713MOL0     C96133   7.454   2.874   3.874 -0.0999 -0.0027 -0.4920
  713MOL0     C96134   7.324   2.901   3.792  0.2149 -0.5889  0.7825
  713MOL0     C96135   7.199   2.934   3.875 -0.7695 -0.3400  0.1225
  713MOL0     C96136   7.143   2.814   3.951  0.8019 -0.0838 -0.9941
  713MOL0     N96137   7.109   2.699   3.862 -0.3139 -0.0780  0.2394
  713MOL0     C96138   7.183   2.585   3.846 -0.0588  1.0245  0.8742
  713MOL0     C96139   7.111   2.518   3.757 -0.2661 -0.5892  0.2532
  713MOL0     C96140   7.149   2.385   3.691 -0.5481 -0.3076 -0.2391
  713MOL0     C96141   7.219   2.294   3.790 -0.8488  0.2913 -0.0330
  713MOL0     C96142   7.131   2.258   3.912 -0.3763 -0.7010  0.9559
  713MOL0     C96143   7.214   2.176   4.005 -0.5250  0.8366  0.0023
  713MOL0     O96144   7.129   2.151   4.113  0.4871 -0.5795 -0.8239
  713MOL0     C96145   7.123   2.024   4.164 -0.9277 -0.1668  0.3262
  713MOL0     C96146   7.020   2.005   4.257  0.9806 -0.3738  0.3423
  713MOL0     C96147   7.016   1.891   4.339  0.5772  0.4605 -0.4535
  713MOL0     C96148   7.118   1.787   4.332  0.4444  0.4575 -0.1548
  713MOL0     C96149   7.124   1.682   4.436 -0.0114  0.0353  0.1379
  713MOL0     O96150   7.093   1.730   4.556  0.6582  0.7425  0.3052
  713MOL0     C96151   7.117   1.662   4.671 -1.0990 -0.1779 -0.7408
  713MOL0     C96152   7.185   1.719   4.784  0.3437  0.2634 -0.2592
  713MOL0     C96153   7.204   1.648   4.903  0.3752 -0.0262  0.2741
  713MOL0     C96154   7.143   1.522   4.911 -0.4076  0.5719 -0.4275
  713MOL0     O96155   7.182   1.451   5.029 -0.0733 -0.2396  0.1737
  713MOL0     C96156   7.089   1.352   5.067 -0.9994  0.0540 -0.3948
  713MOL0     C96157   7.112   1.314   5.209  0.2776 -0.0078 -0.1877
  713MOL0     C96158   7.221   1.213   5.237 -0.2428  0.9857  0.2823
  713MOL0     C96159   7.269   1.227   5.388 -0.4270 -0.5940  0.2945
  713MOL0     C96160   7.284   1.079   5.459  0.5176 -0.1738 -0.0874
  713MOL0     C96161   7.132   1.014   5.489 -0.5262  0.2662  0.0784
  713MOL0     C96162   7.127   0.884   5.567  1.5283 -0.0627 -0.1570
  713MOL0     C96163   7.006   0.869   5.666 -0.3427 -0.8637 -0.7132
  713MOL0    Cl96164   7.040   0.979   5.799  0.3863  0.2868 -0.1717
  713MOL0     C96165   7.063   1.469   4.811 -0.0556 -0.4442  0.2100
  713MOL0     C96166   7.055   1.536   4.688 -0.2673 -0.9659  1.3293
  713MOL0     O96167   7.139   1.564   4.405 -0.1135 -0.2780 -0.0403
  713MOL0     C96168   7.215   1.797   4.223  0.4444  0.0366 -0.2738
  713MOL0     C96169   7.224   1.921   4.146  0.1714 -0.8116 -0.0731
  713MOL0     N96170   6.987   2.581   3.730  0.2795  0.1242 -0.4081
  713MOL0     N96171   6.992   2.695   3.797  0.5123 -0.7330 -0.0867
  713MOL0     C96172   8.131   2.673   4.053 -0.8791  0.4781 -0.2006
  713MOL0     C96173   8.258   2.648   4.104  0.4483 -0.2506 -0.0320
  713MOL0     C96174   8.645   2.545   4.256  0.3123  0.9396  0.2563
  713MOL0     C96175   8.727   2.486   4.164  0.0682  0.7051 -0.4195
  713MOL0     C96176   8.831   2.395   4.198 -0.2102  0.1990  0.2151
  713MOL0     C96177   8.837   2.348   4.323 -0.2585  0.6473 -0.4861
  713MOL0     O96178   8.950   2.266   4.348 -0.2492 -0.4261 -0.2449
  713MOL0     C96179   8.942   2.186   4.465 -0.3254 -0.0876  0.2385
  713MOL0     C96180   9.082   2.151   4.522  0.4141  0.1602 -0.2905
  713MOL0     C96181   9.161   2.103   4.401 -0.6158 -0.4055  0.8653
  713MOL0     C96182   9.263   1.999   4.446 -0.0359  0.1539 -0.9332
  713MOL0     C96183   9.221   1.853   4.467  0.3001 -0.8098  0.1054
  713MOL0     C96184   9.199   1.730   4.471 -0.9249 -0.0891  1.2970
  713MOL0     C96185   8.748   2.403   4.426 -0.7515 -0.0171 -0.0640
  713MOL0     C96186   8.647   2.501   4.394 -0.7773  0.3183 -0.0106
  713MOL0     C96187   8.565   2.548   4.517  0.3147  0.1711  0.4299
  713MOL0     H96188   8.443   2.717   3.836 -0.1080  0.3768  0.5266
  713MOL0     H96189   8.212   2.743   3.733 -0.7962 -4.3594 -0.2565
  713MOL0     H96190   7.946   2.889   3.992 -2.9524  1.5840 -0.6570
  713MOL0     H96191   8.042   2.928   3.845 -1.8636  3.0162 -0.4192
  713MOL0     H96192   7.858   2.888   3.706 -1.9036 -0.3648  0.1513
  713MOL0     H96193   7.828   3.012   3.813  1.2077 -0.0497  0.4902
  713MOL0     H96194   7.699   2.871   3.953  2.2097 -1.5685  0.6917
  713MOL0     H96195   7.719   2.728   3.857 -1.5535  0.2804 -0.7946
  713MOL0     H96196   7.601   2.984   3.752 -0.0047  0.9217  1.6819
  713MOL0     H96197   7.568   2.814   3.692 -1.2119 -3.5053  2.7870
  713MOL0     H96198   7.460   2.775   3.920 -1.6222  0.5091  0.8816
  713MOL0     H96199   7.465   2.956   3.946 -2.9894 -0.4419  0.5742
  713MOL0     H96200   7.344   2.988   3.728 -0.4749 -1.2875 -0.4340
  713MOL0     H96201   7.297   2.823   3.720 -0.1121 -0.0527  0.3076
  713MOL0     H96202   7.122   2.966   3.804  0.7434  3.5924 -0.0018
  713MOL0     H96203   7.205   3.025   3.936 -1.5816  1.6486 -2.5439
  713MOL0     H96204   7.224   2.787   4.020 -0.5764  0.6651  0.9796
  713MOL0     H96205   7.052   2.840   4.005  1.7456 -0.6068  0.9192
  713MOL0     H96206   7.279   2.555   3.889  0.0090 -1.0539 -0.5674
  713MOL0     H96207   7.062   2.335   3.646  1.1367 -1.0375 -2.9474
  713MOL0     H96208   7.219   2.414   3.611 -0.5289  1.0041  0.2176
  713MOL0     H96209   7.250   2.205   3.734  1.8350  0.2228  1.4324
  713MOL0     H96210   7.309   2.338   3.832 -0.1855  0.9566 -2.0360
  713MOL0     H96211   7.042   2.197   3.895 -0.7281  0.5215 -2.3166
  713MOL0     H96212   7.105   2.350   3.966 -2.4912 -1.8693  2.0537
  713MOL0     H96213   7.309   2.221   4.036  1.4298 -3.8204  1.5561
  713MOL0     H96214   7.236   2.090   3.942 -1.5638  0.6800 -0.1518
  713MOL0     H96215   6.958   2.090   4.285  0.6166  1.8909 -5.8566
  713MOL0     H96216   6.951   1.884   4.426 -2.4418 -3.0163 -2.7025
  713MOL0     H96217   7.218   1.822   4.780  2.7325 -0.3890  0.8986
  713MOL0     H96218   7.265   1.698   4.978  1.8847  0.7682 -1.3960
  713MOL0     H96219   6.987   1.367   5.032 -1.0509 -1.9758 -1.2898
  713MOL0     H96220   7.104   1.260   5.009 -1.9743  0.5495 -1.4737
  713MOL0     H96221   7.127   1.406   5.267  1.4860  0.5109 -1.2880
  713MOL0     H96222   7.016   1.280   5.249  1.0595 -1.7027  0.3954
  713MOL0     H96223   7.177   1.115   5.213 -0.1270  1.7110 -3.5456
  713MOL0     H96224   7.303   1.227   5.165 -1.2727  0.0254 -1.1383
  713MOL0     H96225   7.188   1.277   5.442 -1.0673  2.8867 -3.4173
  713MOL0     H96226   7.363   1.282   5.377 -1.3228  0.5975 -2.1919
  713MOL0     H96227   7.342   1.092   5.551  0.3174  0.5837 -0.0591
  713MOL0     H96228   7.337   1.005   5.398 -0.5411 -1.0370  0.0073
  713MOL0     H96229   7.074   1.084   5.549  2.3088  3.6675 -0.7843
  713MOL0     H96230   7.086   1.000   5.391 -2.3109  3.7358  0.2699
  713MOL0     H96231   7.222   0.866   5.618  1.3609 -1.3720 -0.2807
  713MOL0     H96232   7.113   0.810   5.488  0.6216  0.1921 -0.2498
  713MOL0     H96233   6.912   0.897   5.619 -0.0783  1.2719 -0.0792
  713MOL0     H96234   7.009   0.766   5.704  4.7043 -1.3671 -1.7250
  713MOL0     H96235   7.032   1.365   4.817  2.2679 -1.6531 -4.2497
  713MOL0     H96236   7.008   1.491   4.601  1.8945  0.4945 -0.7215
  713MOL0     H96237   7.284   1.715   4.206  0.2099 -0.2213  0.0158
  713MOL0     H96238   7.305   1.934   4.075  1.0875 -0.1704  1.0509
  713MOL0     H96239   8.043   2.662   4.115  0.1546  1.1308  1.4382
  713MOL0     H96240   8.273   2.618   4.207 -0.2486 -0.7723 -0.0723
  713MOL0     H96241   8.743   2.525   4.064  1.1501  1.7278  0.1280
  713MOL0     H96242   8.905   2.362   4.125 -0.6151 -2.2807  0.8492
  713MOL0     H96243   8.881   2.099   4.439  0.8000 -1.0582  0.7641
  713MOL0     H96244   8.892   2.244   4.542 -1.8035  0.5569 -1.1462
  713MOL0     H96245   9.082   2.066   4.591  1.9629 -0.3549 -0.8738
  713MOL0     H96246   9.125   2.245   4.558  1.4342 -0.0303 -0.9678
  713MOL0     H96247   9.217   2.184   4.353  2.6246 -3.3622 -0.8536
  713MOL0     H96248   9.096   2.067   4.321  2.1149  0.0729 -1.7434
  713MOL0     H96249   9.333   2.001   4.362  1.6785  2.1993  0.4306
  713MOL0     H96250   9.313   2.036   4.536 -3.1722 -2.2687  2.0631
  713MOL0     H96251   9.187   1.623   4.468  1.2022 -0.3338 -1.1824
  713MOL0     H96252   8.754   2.375   4.531 -2.4433  0.2103  0.1180
  713MOL0     H96253   8.567   2.475   4.598 -1.3380  1.3689  1.6179
  713MOL0     H96254   8.597   2.649   4.545  0.1424  0.6499 -0.9733
  713MOL0     H96255   8.457   2.541   4.502  0.3510 -0.3038  0.3878
  714MOL0     O96256   2.789   5.837   5.502 -1.2907  0.2062  0.1332
  714MOL0     C96257   2.851   5.783   5.409  0.1277  0.0357  0.2124
  714MOL0     O96258   2.936   5.680   5.423  0.2300  0.0295 -0.6701
  714MOL0     C96259   2.996   5.647   5.538  0.8554 -0.2237  0.7931
  714MOL0     C96260   3.136   5.669   5.538  0.3970  0.9737  0.0846
  714MOL0     C96261   3.211   5.662   5.657  0.0557  0.0621  0.0428
  714MOL0     C96262   3.152   5.643   5.773  1.0132  0.4506  0.4150
  714MOL0     O96263   3.223   5.631   5.881 -0.1610  0.0495 -0.9698
  714MOL0     C96264   3.342   5.711   5.890  0.7030  0.0402  1.2428
  714MOL0     C96265   3.389   5.737   6.035 -0.4531 -0.3531 -0.2625
  714MOL0     C96266   3.285   5.798   6.124  0.7273 -0.5182  0.6026
  714MOL0     C96267   3.304   5.788   6.278 -0.4431 -0.2008  0.2675
  714MOL0     C96268   3.426   5.871   6.334 -0.5354 -0.3975  0.0445
  714MOL0     C96269   3.455   5.833   6.478 -0.2234 -0.2650  0.3990
  714MOL0     C96270   3.561   5.930   6.543 -0.9921  0.3158 -0.1942
  714MOL0     C96271   3.560   5.926   6.695 -0.5135 -0.6017 -0.2780
  714MOL0     N96272   3.444   5.992   6.753 -0.2331 -0.0834  0.4119
  714MOL0     C96273   3.320   5.951   6.782  0.3718  0.0805  0.3291
  714MOL0     C96274   3.253   6.063   6.817  0.1331 -0.1991  0.7362
  714MOL0     C96275   3.100   6.066   6.867 -0.8626 -0.9401 -0.0139
  714MOL0     C96276   3.020   6.125   6.750  0.6035  0.4597 -0.8388
  714MOL0     C96277   3.071   6.102   6.614 -0.3406 -0.1709  0.6316
  714MOL0     C96278   2.999   6.204   6.526 -0.4624  0.2676 -0.9079
  714MOL0     O96279   3.012   6.164   6.389 -0.1337 -0.5995 -0.8961
  714MOL0     C96280   2.921   6.080   6.324  0.1934 -0.3691  0.8192
  714MOL0     C96281   2.950   6.057   6.192  0.0882  0.3432 -1.3636
  714MOL0     C96282   2.866   5.972   6.116  0.0255 -0.0982 -0.3033
  714MOL0     C96283   2.751   5.908   6.173  0.5758  0.5525 -0.6118
  714MOL0     C96284   2.661   5.834   6.088 -0.4678 -0.5400 -0.7691
  714MOL0     O96285   2.697   5.811   5.961  0.3938 -0.7009  0.2459
  714MOL0     C96286   2.619   5.738   5.880  1.1498 -0.4034 -0.3194
  714MOL0     C96287   2.596   5.603   5.912 -0.4969 -1.3180  0.3499
  714MOL0     C96288   2.508   5.545   5.823  0.0523 -0.3930  0.7985
  714MOL0     C96289   2.456   5.603   5.704 -0.3039  1.0711  1.2175
  714MOL0     O96290   2.393   5.509   5.627  0.4772 -0.3223  0.3030
  714MOL0     C96291   2.358   5.564   5.496 -1.0787 -0.4361 -0.3554
  714MOL0     C96292   2.242   5.478   5.436  0.4875 -0.7707  0.1663
  714MOL0     C96293   2.103   5.528   5.490  0.4276 -0.4992  0.5737
  714MOL0     C96294   1.982   5.428   5.464 -0.4971 -1.1775 -0.5893
  714MOL0     C96295   1.859   5.486   5.520 -0.3830 -0.6674  0.0631
  714MOL0     C96296   1.791   5.592   5.421  0.0114 -0.0127  0.3564
  714MOL0     C96297   1.696   5.695   5.481 -0.0627 -0.2607  0.9458
  714MOL0     C96298   1.756   5.781   5.589 -0.6179  0.8807  0.2076
  714MOL0    Cl96299   1.628   5.828   5.690  0.7749  0.1540 -0.0560
  714MOL0     C96300   2.474   5.740   5.688 -0.5150 -0.5155 -0.5396
  714MOL0     C96301   2.556   5.811   5.772  0.0129  0.1146  0.3491
  714MOL0     O96302   2.562   5.783   6.149 -1.0283  0.0892  0.7211
  714MOL0     C96303   2.711   5.942   6.304 -0.4300 -0.0817 -0.0905
  714MOL0     C96304   2.801   6.024   6.374  0.0901  0.6056 -0.0037
  714MOL0     N96305   3.347   6.169   6.815 -1.0772 -0.1924 -1.1385
  714MOL0     N96306   3.457   6.125   6.777 -0.3363 -0.5531  0.0108
  714MOL0     C96307   3.010   5.634   5.781 -0.7001 -0.6277  0.4032
  714MOL0     C96308   2.929   5.632   5.664 -0.9580  0.6283 -0.0779
  714MOL0     C96309   2.832   5.824   5.269 -0.8841 -0.5102 -0.2310
  714MOL0     C96310   2.713   5.787   5.211 -0.0237  0.7158  0.4008
  714MOL0     C96311   2.692   5.789   5.078 -0.1657  0.5013 -0.8629
  714MOL0     C96312   2.785   5.845   4.992 -0.3023 -0.0564 -0.2002
  714MOL0     O96313   2.771   5.869   4.859  0.4024 -0.5621 -0.2169
  714MOL0     C96314   2.642   5.893   4.806  0.6589 -0.2048  0.0918
  714MOL0     C96315   2.642   5.875   4.655  0.5089 -0.8602  0.5994
  714MOL0     C96316   2.530   5.949   4.598 -0.6241  0.8308  0.6150
  714MOL0     C96317   2.506   5.944   4.447 -0.8783 -0.3699 -0.9732
  714MOL0     C96318   2.381   5.992   4.393  0.5038  0.0647  0.7409
  714MOL0     C96319   2.291   6.040   4.332 -1.0285 -0.0632 -0.4274
  714MOL0     C96320   2.902   5.890   5.052 -2.0773  0.1615  0.0395
  714MOL0     C96321   2.935   5.869   5.187 -0.5009 -0.4281  0.1817
  714MOL0     C96322   3.067   5.915   5.252 -0.2282 -1.3412  0.3364
  714MOL0     H96323   3.190   5.687   5.445  0.0433  1.4252 -0.0377
  714MOL0     H96324   3.317   5.654   5.636 -0.3508 -3.8847 -1.3111
  714MOL0     H96325   3.412   5.659   5.824 -2.8752 -1.1266 -2.0595
  714MOL0     H96326   3.317   5.809   5.846  1.1056  0.0951  1.1340
  714MOL0     H96327   3.470   5.811   6.029 -2.7207  2.2371 -1.4278
  714MOL0     H96328   3.419   5.641   6.079 -0.2472 -1.1960 -2.1694
  714MOL0     H96329   3.183   5.766   6.102  0.8688  0.0773 -1.0971
  714MOL0     H96330   3.289   5.906   6.102 -1.7348 -0.1051  1.8657
  714MOL0     H96331   3.210   5.808   6.331 -0.5308 -0.0922  0.0713
  714MOL0     H96332   3.327   5.685   6.306 -4.3578 -0.3481  4.1130
  714MOL0     H96333   3.514   5.844   6.275  0.0151  2.0675 -0.3607
  714MOL0     H96334   3.411   5.979   6.331  3.3715  0.3560  1.4624
  714MOL0     H96335   3.359   5.850   6.527  0.0804 -0.8519  1.2194
  714MOL0     H96336   3.494   5.731   6.488 -0.9044 -0.4697  1.0234
  714MOL0     H96337   3.549   6.033   6.508 -3.4688  0.3778  0.6307
  714MOL0     H96338   3.657   5.898   6.502 -0.6897  1.0613 -0.0769
  714MOL0     H96339   3.581   5.826   6.735 -0.8016  0.5049  2.8810
  714MOL0     H96340   3.645   5.990   6.720  1.8006 -0.8515 -6.0074
  714MOL0     H96341   3.273   5.854   6.786  1.0358 -0.2110  1.9201
  714MOL0     H96342   3.070   5.963   6.886  2.6359 -1.9532  0.6890
  714MOL0     H96343   3.102   6.119   6.962 -0.3435  1.4881 -1.2982
  714MOL0     H96344   2.934   6.058   6.751 -0.7048  2.0423 -1.3887
  714MOL0     H96345   3.004   6.230   6.778 -2.8373 -0.5602  1.7591
  714MOL0     H96346   3.056   6.000   6.576  0.0642 -0.2807  0.7658
  714MOL0     H96347   3.179   6.115   6.607 -0.6162  1.5811 -0.9184
  714MOL0     H96348   3.034   6.308   6.531 -0.8661  0.3780  0.0113
  714MOL0     H96349   2.894   6.207   6.557 -0.1246  0.4970  0.2996
  714MOL0     H96350   3.037   6.099   6.142  1.8736 -2.6087 -0.9683
  714MOL0     H96351   2.896   5.956   6.013 -1.4745  0.3291 -0.8247
  714MOL0     H96352   2.641   5.546   5.993  2.2732  1.3826  0.9161
  714MOL0     H96353   2.494   5.438   5.838  2.2807 -0.7059  1.1534
  714MOL0     H96354   2.316   5.663   5.516 -1.1223 -0.8242  1.7468
  714MOL0     H96355   2.445   5.562   5.431 -1.0609  1.7182 -0.4463
  714MOL0     H96356   2.270   5.492   5.331  1.8003 -2.5780  0.2364
  714MOL0     H96357   2.259   5.377   5.475  0.5266 -0.4815  0.9172
  714MOL0     H96358   2.106   5.544   5.598 -0.6531 -1.6690  0.7891
  714MOL0     H96359   2.072   5.620   5.439 -1.2272 -2.1488 -1.5573
  714MOL0     H96360   2.002   5.332   5.513 -0.5680 -1.3290 -0.8585
  714MOL0     H96361   1.982   5.408   5.357  0.7183  0.9078 -1.0378
  714MOL0     H96362   1.881   5.535   5.616 -0.8634 -0.7078  0.1927
  714MOL0     H96363   1.782   5.414   5.545 -3.1008  2.2981  0.9387
  714MOL0     H96364   1.877   5.649   5.384  0.2407  0.2380  1.2484
  714MOL0     H96365   1.739   5.539   5.341  1.5065 -2.2785  0.7593
  714MOL0     H96366   1.617   5.626   5.514 -2.1629  2.0271  1.0110
  714MOL0     H96367   1.656   5.757   5.400 -0.7035 -2.2977 -0.3655
  714MOL0     H96368   1.821   5.725   5.657  1.3603 -1.1766 -3.0947
  714MOL0     H96369   1.800   5.866   5.537 -1.0905  1.6485  1.0403
  714MOL0     H96370   2.428   5.799   5.610 -1.2902 -0.6148 -0.1613
  714MOL0     H96371   2.564   5.917   5.750 -0.3436  0.5376  2.1058
  714MOL0     H96372   2.621   5.905   6.350  0.0319 -0.9195  0.1583
  714MOL0     H96373   2.771   6.048   6.475  0.9592  2.1653 -0.0828
  714MOL0     H96374   2.964   5.604   5.875 -1.7712 -0.1883  0.0347
  714MOL0     H96375   2.822   5.618   5.668 -1.5954  4.5162  2.8715
  714MOL0     H96376   2.644   5.740   5.280  0.2476  1.6060  1.3116
  714MOL0     H96377   2.600   5.741   5.047 -0.0911  1.3126 -2.3841
  714MOL0     H96378   2.607   5.991   4.839 -2.3222 -0.3263 -2.2628
  714MOL0     H96379   2.571   5.815   4.838  0.8025 -0.3853 -0.0255
  714MOL0     H96380   2.631   5.769   4.631 -2.0242 -0.9178  1.6344
  714MOL0     H96381   2.735   5.911   4.610  0.4075 -1.1250  0.1624
  714MOL0     H96382   2.543   6.054   4.623  1.7829  1.5198 -2.8554
  714MOL0     H96383   2.446   5.903   4.652 -0.9268  0.5192 -0.1011
  714MOL0     H96384   2.579   6.006   4.394 -0.2274 -3.3631 -3.9071
  714MOL0     H96385   2.518   5.839   4.417 -0.6670 -0.5861 -0.1579
  714MOL0     H96386   2.199   6.070   4.287 -1.9188 -0.2566  1.1822
  714MOL0     H96387   2.974   5.921   4.977 -1.3244 -1.2117  0.1603
  714MOL0     H96388   3.153   5.848   5.254  1.1544  0.0433 -3.4779
  714MOL0     H96389   3.100   6.007   5.203  1.1910 -1.6093  0.7398
  714MOL0     H96390   3.041   5.957   5.350  4.2572  3.3598 -0.0395
  715MOL0     O96391   1.245   8.710   1.113 -0.0682  0.2088 -0.5087
  715MOL0     C96392   1.351   8.747   1.057 -0.6049 -0.1568  0.1683
  715MOL0     O96393   1.371   8.881   1.008 -0.5072 -0.0988 -0.3038
  715MOL0     C96394   1.243   8.936   0.998 -0.0290 -0.6781  0.4238
  715MOL0     C96395   1.222   9.054   1.068  0.6172 -1.0669 -0.3446
  715MOL0     C96396   1.104   9.121   1.031 -0.4392  0.2580 -0.1924
  715MOL0     C96397   1.023   9.095   0.920 -0.1904  0.1122  0.4491
  715MOL0     O96398   0.902   9.158   0.899  0.4440  0.0905  0.6852
  715MOL0     C96399   0.882   9.210   0.765 -0.7220 -0.2632  0.2626
  715MOL0     C96400   0.759   9.137   0.712  0.0335  1.2745  0.7940
  715MOL0     C96401   0.717   9.188   0.574  0.3781  0.0775  0.5538
  715MOL0     C96402   0.829   9.239   0.477  0.1199  0.2483 -0.0769
  715MOL0     C96403   0.790   9.270   0.332  0.1645 -0.6389  0.6161
  715MOL0     C96404   0.747   9.153   0.249 -0.9519  0.8255  0.7754
  715MOL0     C96405   0.781   9.160   0.102  0.4381 -0.0891  0.6985
  715MOL0     C96406   0.710   9.275   0.030  0.2198  0.4952 -0.0204
  715MOL0     N96407   0.710   9.282  -0.118 -0.0648  0.0302 -0.2619
  715MOL0     C96408   0.704   9.399  -0.185 -0.8289 -0.3396  0.3097
  715MOL0     C96409   0.731   9.381  -0.310 -0.0890  0.2176  0.1503
  715MOL0     C96410   0.711   9.473  -0.428  0.9361  0.0780  0.3249
  715MOL0     C96411   0.574   9.451  -0.505 -0.6270  0.1095 -0.7696
  715MOL0     C96412   0.465   9.471  -0.402  0.5963 -0.4504  0.7464
  715MOL0     C96413   0.328   9.504  -0.461 -0.6403 -0.2387  0.3618
  715MOL0     O96414   0.341   9.637  -0.504  0.7167 -0.0662 -0.7848
  715MOL0     C96415   0.230   9.696  -0.565 -0.1466 -0.5240  0.0184
  715MOL0     C96416   0.231   9.832  -0.603  0.0231 -0.2742  0.5176
  715MOL0     C96417   0.129   9.904  -0.667 -0.3983 -0.1646  0.6410
  715MOL0     C96418   0.016   9.827  -0.698  0.5260  0.2473  0.4601
  715MOL0     C96419  -0.086   9.876  -0.794 -0.2428  0.0454  0.1544
  715MOL0     O96420  -0.205   9.815  -0.801 -0.4173  0.1486 -0.2619
  715MOL0     C96421  -0.302   9.884  -0.887 -0.5907 -0.4859  0.6278
  715MOL0     C96422  -0.318   9.828  -1.015  0.8187 -0.6367 -0.4906
  715MOL0     C96423  -0.401   9.895  -1.103  0.5672  0.7688 -0.4924
  715MOL0     C96424  -0.460  10.019  -1.067  0.0582  0.1389 -0.4663
  715MOL0     O96425  -0.532  10.103  -1.145  0.2489 -0.1065  0.4481
  715MOL0     C96426  -0.528  10.092  -1.288  0.2308  0.1792  0.1052
  715MOL0     C96427  -0.392  10.140  -1.341 -0.2854  0.4877 -0.4300
  715MOL0     C96428  -0.376  10.296  -1.322 -0.5983 -0.0845 -0.2156
  715MOL0     C96429  -0.244  10.337  -1.383 -0.5078  0.4338  0.2148
  715MOL0     C96430  -0.223  10.497  -1.387 -0.2116 -0.3148  0.2978
  715MOL0     C96431  -0.080  10.520  -1.427  1.2575 -0.7617 -0.5300
  715MOL0     C96432  -0.056  10.667  -1.471  0.3928 -0.0077 -1.0338
  715MOL0     C96433   0.075  10.725  -1.425  0.0837 -0.8302  0.1126
  715MOL0    Cl96434   0.089  10.737  -1.246 -0.2008  0.2044 -0.3463
  715MOL0     C96435  -0.441  10.069  -0.940 -0.4289  0.3999  0.2272
  715MOL0     C96436  -0.358  10.003  -0.846 -0.0575  0.5938 -0.1464
  715MOL0     O96437  -0.052   9.966  -0.862 -0.2386  0.5177  0.8013
  715MOL0     C96438   0.001   9.692  -0.657  0.2042  0.5726  0.3416
  715MOL0     C96439   0.113   9.627  -0.593  0.1272 -0.0979 -0.0017
  715MOL0     N96440   0.751   9.243  -0.327  0.5406  0.0729 -0.0984
  715MOL0     N96441   0.744   9.185  -0.211 -0.1511  0.3065  0.3045
  715MOL0     C96442   1.050   8.975   0.850  0.0510 -0.3004 -0.2275
  715MOL0     C96443   1.159   8.902   0.892 -0.5894  0.9279 -0.1052
  715MOL0     C96444   1.463   8.662   1.050 -0.1524  0.3132 -0.4614
  715MOL0     C96445   1.590   8.727   1.059  0.2922  0.3540 -0.6006
  715MOL0     C96446   1.708   8.645   1.040  0.0458 -0.9763  0.6311
  715MOL0     C96447   1.700   8.510   1.014 -0.3070  0.1150 -1.2962
  715MOL0     O96448   1.799   8.423   0.985 -0.2212  0.3346 -0.0255
  715MOL0     C96449   1.939   8.452   1.012 -0.6098 -0.2877 -0.2042
  715MOL0     C96450   1.984   8.378   1.139  0.1788  1.2731  0.4526
  715MOL0     C96451   1.961   8.222   1.143 -0.8216  0.0158  0.6769
  715MOL0     C96452   2.020   8.155   1.024 -0.8344  0.4853  0.4500
  715MOL0     C96453   2.167   8.160   1.009  0.4069 -0.3012  0.1898
  715MOL0     C96454   2.284   8.161   0.990  0.9141  0.4943  0.4244
  715MOL0     C96455   1.573   8.452   1.028 -0.6890  0.2960  0.0651
  715MOL0     C96456   1.448   8.517   1.039  0.0908 -0.0504  0.3339
  715MOL0     C96457   1.325   8.436   1.026 -0.2092  0.3114  0.7916
  715MOL0     H96458   1.297   9.078   1.143 -1.8830 -1.4098  2.4635
  715MOL0     H96459   1.072   9.214   1.076 -1.8733  0.7729 -2.1311
  715MOL0     H96460   0.876   9.320   0.768  1.0407 -0.1366  0.2054
  715MOL0     H96461   0.961   9.184   0.693  0.4697  0.3139  1.3102
  715MOL0     H96462   0.672   9.157   0.775 -0.5443  0.3681  0.3039
  715MOL0     H96463   0.770   9.028   0.711  1.4794  1.3914 -1.2823
  715MOL0     H96464   0.667   9.285   0.582  2.1946  1.2313 -1.0492
  715MOL0     H96465   0.642   9.124   0.525  0.3583 -0.6924  1.5703
  715MOL0     H96466   0.883   9.322   0.524 -2.7399  1.0336  2.0743
  715MOL0     H96467   0.920   9.177   0.476  1.5305  2.0308  2.8895
  715MOL0     H96468   0.708   9.342   0.331 -1.3613 -2.3050  1.3713
  715MOL0     H96469   0.875   9.322   0.286 -1.9554  2.9943  0.4129
  715MOL0     H96470   0.809   9.065   0.270  1.1457  2.2476  0.8603
  715MOL0     H96471   0.640   9.132   0.259 -1.3277  2.0016 -0.4851
  715MOL0     H96472   0.742   9.069   0.056 -1.1613  1.1804 -0.5847
  715MOL0     H96473   0.889   9.166   0.087  0.4855 -1.3563  0.4358
  715MOL0     H96474   0.605   9.263   0.059 -0.5978  1.8154 -2.1981
  715MOL0     H96475   0.751   9.365   0.076  2.4941 -0.4311 -0.0974
  715MOL0     H96476   0.685   9.499  -0.145 -1.5114 -0.7721  1.1027
  715MOL0     H96477   0.717   9.577  -0.394  1.8101 -0.1105  0.7608
  715MOL0     H96478   0.796   9.448  -0.493 -0.5805 -5.2046 -0.0850
  715MOL0     H96479   0.566   9.509  -0.597 -0.3401  2.4693  0.6226
  715MOL0     H96480   0.565   9.347  -0.540  0.3502  0.3010 -1.6288
  715MOL0     H96481   0.494   9.541  -0.323  3.6352 -1.6745  0.8390
  715MOL0     H96482   0.456   9.374  -0.352  0.9266 -1.3369 -0.8358
  715MOL0     H96483   0.255   9.492  -0.380  0.9377  0.6633  1.9815
  715MOL0     H96484   0.301   9.436  -0.543  0.3199 -0.5094  0.2664
  715MOL0     H96485   0.325   9.885  -0.594 -1.2162  3.5397 -4.4148
  715MOL0     H96486   0.145  10.008  -0.694 -3.3826  0.7087  1.8776
  715MOL0     H96487  -0.274   9.731  -1.034  1.2098 -0.5420 -0.0909
  715MOL0     H96488  -0.423   9.846  -1.197 -1.1364  0.3135  0.1189
  715MOL0     H96489  -0.539   9.986  -1.312  0.0188  0.7674 -2.7086
  715MOL0     H96490  -0.602  10.156  -1.337  3.0589  2.2056 -1.9082
  715MOL0     H96491  -0.319  10.077  -1.289  0.1470  1.0411 -0.3574
  715MOL0     H96492  -0.377  10.132  -1.449  1.5120 -0.7514 -0.1183
  715MOL0     H96493  -0.456  10.347  -1.376 -1.6073  0.5253  1.7832
  715MOL0     H96494  -0.385  10.322  -1.217 -0.3503  1.4157 -0.5445
  715MOL0     H96495  -0.247  10.293  -1.483 -0.6048 -0.1063  0.4523
  715MOL0     H96496  -0.160  10.283  -1.339 -2.8263 -2.5055  1.4532
  715MOL0     H96497  -0.243  10.536  -1.287  0.2649  1.9954 -0.4568
  715MOL0     H96498  -0.289  10.540  -1.462 -0.2464 -2.3602 -0.9355
  715MOL0     H96499  -0.017  10.494  -1.342 -0.2441 -1.5106  0.3925
  715MOL0     H96500  -0.040  10.467  -1.514 -0.8946 -1.3488 -1.2186
  715MOL0     H96501  -0.129  10.735  -1.424  1.1975  0.1759 -0.0071
  715MOL0     H96502  -0.066  10.668  -1.580  0.7031 -3.1096 -1.1800
  715MOL0     H96503   0.159  10.672  -1.470 -0.9619 -2.2115 -0.3048
  715MOL0     H96504   0.091  10.825  -1.467  0.7221 -1.3266 -0.8601
  715MOL0     H96505  -0.479  10.168  -0.919  0.0886  0.2313  2.1430
  715MOL0     H96506  -0.341  10.040  -0.745 -1.2679 -2.3295  1.2382
  715MOL0     H96507  -0.075   9.627  -0.698 -0.7225 -1.6126  4.8512
  715MOL0     H96508   0.099   9.524  -0.563  0.7603 -0.1641  0.0572
  715MOL0     H96509   0.993   8.929   0.769  2.3429 -2.4583 -0.7213
  715MOL0     H96510   1.161   8.810   0.833  0.3034  2.5528 -2.7855
  715MOL0     H96511   1.592   8.836   1.061  0.7853  0.3755 -1.6083
  715MOL0     H96512   1.804   8.696   1.038  1.0007 -2.7100 -1.1888
  715MOL0     H96513   1.951   8.559   1.028  0.6520 -0.6566  1.5022
  715MOL0     H96514   2.009   8.433   0.930 -2.5407  0.1201 -2.0516
  715MOL0     H96515   1.940   8.419   1.231 -0.8202  2.6215 -0.5789
  715MOL0     H96516   2.091   8.397   1.142  0.6973 -1.4777  2.9355
  715MOL0     H96517   1.853   8.207   1.150 -0.7154 -0.0148  5.5447
  715MOL0     H96518   2.014   8.172   1.225  5.1674  2.8331 -0.8980
  715MOL0     H96519   2.000   8.048   1.034  0.1428  0.2363 -0.1732
  715MOL0     H96520   1.976   8.191   0.931 -0.3966  2.1121  0.8288
  715MOL0     H96521   2.386   8.169   0.959  0.4902  1.3600 -0.8069
  715MOL0     H96522   1.569   8.344   1.019  1.3936  0.1940 -0.0211
  715MOL0     H96523   1.329   8.327   1.036 -5.4680 -0.2897 -0.7411
  715MOL0     H96524   1.264   8.462   1.113 -0.0796  2.5249  0.2683
  715MOL0     H96525   1.277   8.460   0.931 -0.0312  0.2997  0.6983
  716MOL0     O96526   6.287   2.172   1.420  0.2785  0.5345  0.1275
  716MOL0     C96527   6.358   2.130   1.505 -0.5164  0.4656  0.0507
  716MOL0     O96528   6.473   2.190   1.545 -0.2453 -0.2458 -0.0448
  716MOL0     C96529   6.547   2.273   1.465 -0.1656 -0.2796  0.7356
  716MOL0     C96530   6.686   2.254   1.456 -0.2313 -1.1992 -0.5224
  716MOL0     C96531   6.766   2.333   1.368 -0.0369  0.1007 -0.1662
  716MOL0     C96532   6.709   2.439   1.295 -1.1638 -0.2065  0.4710
  716MOL0     O96533   6.784   2.513   1.208 -0.4807 -0.0190 -0.3200
  716MOL0     C96534   6.917   2.548   1.248  0.6189  0.0971  1.2261
  716MOL0     C96535   6.956   2.652   1.137 -0.9811 -0.5137 -0.9960
  716MOL0     C96536   7.091   2.711   1.188 -0.7902 -0.5793  0.7437
  716MOL0     C96537   7.129   2.846   1.119  0.5267  0.0281  0.1232
  716MOL0     C96538   7.278   2.891   1.142  0.0607  0.2457 -0.2158
  716MOL0     C96539   7.388   2.789   1.118  1.2709  0.2068 -0.1991
  716MOL0     C96540   7.533   2.831   1.118  0.2984 -0.0103 -0.0890
  716MOL0     C96541   7.624   2.728   1.045 -0.3079 -0.7594 -0.3690
  716MOL0     N96542   7.655   2.612   1.125 -0.2099 -0.7941 -0.3162
  716MOL0     C96543   7.743   2.597   1.228 -0.5004 -0.2553 -0.3744
  716MOL0     C96544   7.729   2.469   1.276 -0.9860 -0.6449  0.3679
  716MOL0     C96545   7.811   2.396   1.382 -0.0539  1.5096  0.4306
  716MOL0     C96546   7.780   2.444   1.524  0.6498 -0.0821  0.1310
  716MOL0     C96547   7.633   2.462   1.571  0.4171 -0.0457  0.3127
  716MOL0     C96548   7.540   2.341   1.548  0.1039  0.0881  0.7003
  716MOL0     O96549   7.603   2.227   1.604  0.6115  0.0851 -0.2855
  716MOL0     C96550   7.511   2.139   1.653  0.5156 -1.5708  0.7058
  716MOL0     C96551   7.444   2.042   1.589 -0.1372  0.3913 -0.1037
  716MOL0     C96552   7.384   1.938   1.653  0.4102  0.3044 -0.3595
  716MOL0     C96553   7.380   1.942   1.793  0.1835 -0.3925 -0.3965
  716MOL0     C96554   7.306   1.836   1.860 -0.2970 -0.1162 -0.9328
  716MOL0     O96555   7.337   1.822   1.999 -0.2998  0.3223  0.0896
  716MOL0     C96556   7.283   1.717   2.061 -0.4109  0.4046  0.3220
  716MOL0     C96557   7.307   1.590   2.010  0.0048  0.2108  0.4305
  716MOL0     C96558   7.240   1.479   2.071  0.2706 -0.8220 -0.3577
  716MOL0     C96559   7.177   1.489   2.194 -1.1402 -1.2588 -0.4650
  716MOL0     O96560   7.128   1.385   2.269  0.3574  0.4469 -0.6840
  716MOL0     C96561   7.066   1.278   2.198  0.0444  0.8983 -0.0807
  716MOL0     C96562   6.957   1.207   2.281  0.6998  0.9673  0.0955
  716MOL0     C96563   6.870   1.120   2.187  0.1494  0.3745  0.3356
  716MOL0     C96564   6.953   1.012   2.120  0.1142 -0.2819  0.8076
  716MOL0     C96565   6.862   0.906   2.048 -0.3117 -0.7600 -0.4790
  716MOL0     C96566   6.953   0.811   1.955 -0.2851 -0.4898  0.4881
  716MOL0     C96567   6.873   0.699   1.891  1.2589 -0.0160  0.0589
  716MOL0     C96568   6.965   0.582   1.873  0.1140 -0.0288 -0.1130
  716MOL0    Cl96569   6.883   0.441   1.799  0.4279  0.8156 -0.1101
  716MOL0     C96570   7.173   1.620   2.250  0.7077  0.6404 -0.3434
  716MOL0     C96571   7.225   1.730   2.189 -0.0344 -0.0222 -0.7223
  716MOL0     O96572   7.231   1.761   1.796  0.5603  0.3737 -0.3884
  716MOL0     C96573   7.461   2.029   1.861 -0.5364 -0.2341  1.0108
  716MOL0     C96574   7.521   2.132   1.789 -0.1952  0.1354  0.4176
  716MOL0     N96575   7.615   2.413   1.222 -0.0092  0.1007  0.8829
  716MOL0     N96576   7.571   2.507   1.137 -0.3617 -0.4463  0.5298
  716MOL0     C96577   6.571   2.453   1.295 -0.1752 -0.8219  0.4480
  716MOL0     C96578   6.489   2.380   1.383 -0.6101  0.4964 -0.0741
  716MOL0     C96579   6.310   2.016   1.584  0.6000 -0.4395 -0.3243
  716MOL0     C96580   6.404   1.931   1.647  0.6696 -0.1815  0.3097
  716MOL0     C96581   6.370   1.824   1.727  0.0229 -0.2064 -0.3773
  716MOL0     C96582   6.236   1.806   1.758 -0.4513 -0.0344  0.4538
  716MOL0     O96583   6.213   1.716   1.858  0.5339  0.8277 -0.2008
  716MOL0     C96584   6.132   1.761   1.978 -0.7515  0.3320  0.1059
  716MOL0     C96585   6.139   1.646   2.084  0.6493 -0.4659 -0.3306
  716MOL0     C96586   6.150   1.715   2.217 -0.9832  0.1863 -0.4054
  716MOL0     C96587   6.036   1.810   2.251  0.2807 -0.3034 -0.1121
  716MOL0     C96588   6.029   1.836   2.394  0.4365  0.1420 -0.0053
  716MOL0     C96589   6.002   1.874   2.505 -0.2017 -0.0486  0.4416
  716MOL0     C96590   6.137   1.891   1.703  0.4093 -0.5998  0.1670
  716MOL0     C96591   6.172   1.981   1.611  1.0581 -0.3608 -0.2767
  716MOL0     C96592   6.044   2.042   1.541 -0.5983 -0.1707 -0.8245
  716MOL0     H96593   6.730   2.180   1.522  2.5264  0.3309 -0.4917
  716MOL0     H96594   6.871   2.307   1.369 -0.3150 -1.1387 -1.1070
  716MOL0     H96595   6.913   2.584   1.351 -2.8199 -0.5683  1.4232
  716MOL0     H96596   6.982   2.462   1.228  0.7366  0.0493  1.7982
  716MOL0     H96597   6.887   2.737   1.142  1.1654  1.2574 -0.1666
  716MOL0     H96598   6.965   2.602   1.040 -0.5414 -2.0736 -0.1827
  716MOL0     H96599   7.167   2.634   1.171 -1.8484 -1.1906 -1.7978
  716MOL0     H96600   7.082   2.741   1.293 -1.9390  1.7599  0.0595
  716MOL0     H96601   7.105   2.835   1.013 -3.2626  0.4600  0.7887
  716MOL0     H96602   7.060   2.926   1.146 -1.4283 -1.6745  0.4777
  716MOL0     H96603   7.294   2.981   1.081  1.0468  1.3611  1.5636
  716MOL0     H96604   7.282   2.918   1.248  2.6502 -0.6271 -0.0296
  716MOL0     H96605   7.366   2.717   1.198  1.1686 -1.0875 -1.3403
  716MOL0     H96606   7.366   2.741   1.022 -0.3230  3.4299 -1.5883
  716MOL0     H96607   7.552   2.840   1.225 -0.3001  0.2610 -0.0012
  716MOL0     H96608   7.543   2.935   1.086 -1.4630  0.4298  0.7109
  716MOL0     H96609   7.568   2.705   0.954 -0.5608 -1.3703 -0.0642
  716MOL0     H96610   7.720   2.776   1.024 -0.0062  0.2007  2.7219
  716MOL0     H96611   7.824   2.668   1.242  2.6718 -3.2450 -2.0147
  716MOL0     H96612   7.775   2.293   1.382 -3.3915  2.5143 -1.8013
  716MOL0     H96613   7.918   2.399   1.361 -0.1484 -2.3662 -1.5417
  716MOL0     H96614   7.823   2.376   1.598 -2.2731  0.3178  2.3867
  716MOL0     H96615   7.837   2.532   1.558 -0.6229  1.1123 -0.7576
  716MOL0     H96616   7.597   2.531   1.493  0.2981 -1.2991 -0.7737
  716MOL0     H96617   7.627   2.508   1.670 -2.9111  2.3467 -0.7960
  716MOL0     H96618   7.512   2.333   1.443 -1.2878 -0.5077  1.0995
  716MOL0     H96619   7.455   2.372   1.609  0.3398 -1.7864  2.0821
  716MOL0     H96620   7.439   2.043   1.481  1.6066  1.2314 -0.2007
  716MOL0     H96621   7.335   1.860   1.595 -1.0275 -0.8508  2.2105
  716MOL0     H96622   7.364   1.563   1.921 -0.6608  0.7567 -0.1798
  716MOL0     H96623   7.254   1.384   2.020 -3.1360 -0.6034 -1.9291
  716MOL0     H96624   7.029   1.315   2.102 -1.5114 -0.8360 -0.1940
  716MOL0     H96625   7.141   1.201   2.178  0.1814  0.7997  0.7553
  716MOL0     H96626   7.006   1.143   2.356  2.1191  1.3138 -0.5030
  716MOL0     H96627   6.894   1.278   2.336  0.9875  2.5946 -1.5778
  716MOL0     H96628   6.794   1.060   2.239  0.6982 -0.5520  0.0999
  716MOL0     H96629   6.814   1.179   2.114  1.2760  1.5524  0.4095
  716MOL0     H96630   7.033   0.962   2.176 -0.0228 -1.6509 -0.1607
  716MOL0     H96631   7.017   1.059   2.045  0.3290 -0.5579  0.8158
  716MOL0     H96632   6.786   0.958   1.989  0.6260 -0.9388 -1.8930
  716MOL0     H96633   6.815   0.849   2.130 -1.9700 -0.7131 -1.3578
  716MOL0     H96634   7.023   0.865   1.890  0.3759  0.3529  1.8611
  716MOL0     H96635   7.028   0.768   2.022 -2.1120  0.0791  3.0639
  716MOL0     H96636   6.841   0.719   1.789 -0.0838 -1.1042  0.2317
  716MOL0     H96637   6.785   0.685   1.955  1.5585  0.2581  0.5400
  716MOL0     H96638   7.051   0.619   1.816  0.3092  2.6496  1.7701
  716MOL0     H96639   6.997   0.557   1.975  1.8666 -0.3722 -0.7178
  716MOL0     H96640   7.108   1.622   2.337  1.1669 -0.2964  0.0431
  716MOL0     H96641   7.229   1.828   2.235  1.3965  0.5832 -2.0540
  716MOL0     H96642   7.457   2.016   1.968 -0.8040 -3.5431  0.7137
  716MOL0     H96643   7.583   2.204   1.843  1.9933 -1.2016 -0.2015
  716MOL0     H96644   6.535   2.534   1.232 -0.3702 -1.4856 -0.3176
  716MOL0     H96645   6.382   2.392   1.381 -0.7664 -0.7453 -1.3034
  716MOL0     H96646   6.511   1.944   1.637  0.5208  1.1120  0.1559
  716MOL0     H96647   6.445   1.753   1.759 -1.0615 -2.4303 -2.4071
  716MOL0     H96648   6.037   1.812   1.964 -1.5161 -1.0940 -0.0795
  716MOL0     H96649   6.195   1.842   2.017  1.6990 -1.8148  0.8900
  716MOL0     H96650   6.236   1.598   2.068  1.8112  1.5478  0.3063
  716MOL0     H96651   6.051   1.582   2.078  0.3642 -0.4399  2.4938
  716MOL0     H96652   6.241   1.775   2.225 -0.7502  0.2773 -3.0721
  716MOL0     H96653   6.155   1.641   2.298 -3.5338  1.8004  1.3973
  716MOL0     H96654   6.051   1.903   2.196  0.4765  0.6664  1.5019
  716MOL0     H96655   5.943   1.756   2.230 -0.3899  1.1359 -0.9412
  716MOL0     H96656   5.968   1.921   2.595 -3.4989 -3.4176  1.2209
  716MOL0     H96657   6.034   1.881   1.733  0.0647  1.5721 -0.1703
  716MOL0     H96658   6.056   2.014   1.436  0.2865 -4.9316  0.3161
  716MOL0     H96659   5.957   1.987   1.577  0.7779 -1.1929  1.1056
  716MOL0     H96660   6.042   2.150   1.562 -0.9489  0.1603 -2.3922
  717MOL0     O96661   1.393   8.349   3.520  1.0471  0.0657 -0.0360
  717MOL0     C96662   1.284   8.354   3.462 -0.2002 -0.1359 -0.1617
  717MOL0     O96663   1.212   8.466   3.454 -0.2626 -0.0520  0.4505
  717MOL0     C96664   1.235   8.579   3.534 -0.1008  0.0482 -0.0559
  717MOL0     C96665   1.214   8.579   3.670  0.0281 -0.4535 -0.7132
  717MOL0     C96666   1.247   8.696   3.749  0.4955  0.2510 -0.4576
  717MOL0     C96667   1.302   8.812   3.686  0.0944  0.7825 -0.4649
  717MOL0     O96668   1.334   8.912   3.772  0.5924 -0.0561  0.3972
  717MOL0     C96669   1.437   9.000   3.721 -0.9047  0.2220  0.4785
  717MOL0     C96670   1.552   9.023   3.819  0.1209 -0.3368  0.1410
  717MOL0     C96671   1.670   9.102   3.771 -0.7317  0.0872  0.0237
  717MOL0     C96672   1.754   9.015   3.672 -0.1670 -0.0098 -0.5038
  717MOL0     C96673   1.875   9.078   3.615 -0.3105  0.5797 -1.0165
  717MOL0     C96674   1.991   9.099   3.713 -0.3632 -0.3767 -0.3502
  717MOL0     C96675   2.110   9.188   3.654 -0.0671 -1.1014 -0.2118
  717MOL0     C96676   2.187   9.124   3.530 -0.7912 -0.2092 -1.4766
  717MOL0     N96677   2.320   9.174   3.523  0.5491 -0.1579 -0.5303
  717MOL0     C96678   2.353   9.308   3.499  1.5321  0.4300  0.2513
  717MOL0     C96679   2.487   9.304   3.488  0.5135  0.6629  1.1761
  717MOL0     C96680   2.562   9.425   3.428  0.2090  0.1297 -0.1568
  717MOL0     C96681   2.591   9.386   3.290  0.2375  0.3264  0.2156
  717MOL0     C96682   2.473   9.433   3.194 -0.4145 -0.5038 -0.1711
  717MOL0     C96683   2.519   9.408   3.046  0.1206  1.0135  0.0321
  717MOL0     O96684   2.478   9.274   3.018  0.3556  0.0397 -0.2612
  717MOL0     C96685   2.484   9.246   2.884  0.8738  0.1559 -0.0673
  717MOL0     C96686   2.605   9.249   2.810  0.1430  0.4389 -0.1198
  717MOL0     C96687   2.609   9.230   2.672 -0.6465  0.0707 -0.7492
  717MOL0     C96688   2.499   9.190   2.603 -0.5611  0.5095  0.0724
  717MOL0     C96689   2.503   9.159   2.459 -0.4528  0.1271 -0.0735
  717MOL0     O96690   2.623   9.139   2.403 -0.2081 -0.2923  0.3180
  717MOL0     C96691   2.622   9.134   2.261  0.2867  0.4020 -0.0299
  717MOL0     C96692   2.603   9.014   2.190 -0.1789 -0.1677  0.0448
  717MOL0     C96693   2.615   9.003   2.052  0.1778 -0.0567  0.4600
  717MOL0     C96694   2.658   9.107   1.975  0.0699  0.3196  0.1023
  717MOL0     O96695   2.664   9.096   1.841 -1.3205  0.2141  0.8138
  717MOL0     C96696   2.570   9.183   1.781  0.7163  0.8343  0.5478
  717MOL0     C96697   2.438   9.104   1.784 -0.3824  0.9211  0.0601
  717MOL0     C96698   2.438   8.963   1.718 -0.7230 -0.0908  0.0224
  717MOL0     C96699   2.472   8.973   1.572 -0.2003 -0.1530  0.5374
  717MOL0     C96700   2.434   8.835   1.514  0.6206  1.4997 -0.6657
  717MOL0     C96701   2.518   8.722   1.554  0.2149  0.4070 -0.7087
  717MOL0     C96702   2.471   8.588   1.511 -0.4548  0.0868  0.2422
  717MOL0     C96703   2.498   8.552   1.361  0.3441 -0.2895  0.9078
  717MOL0    Cl96704   2.360   8.590   1.271  0.0346  0.2365  0.5681
  717MOL0     C96705   2.687   9.221   2.046  0.2436 -0.2211 -0.6082
  717MOL0     C96706   2.676   9.233   2.185 -0.8553 -0.6349  0.3619
  717MOL0     O96707   2.389   9.160   2.404 -1.0396  0.3934  0.4557
  717MOL0     C96708   2.389   9.173   2.681 -0.8089 -1.2393  0.4497
  717MOL0     C96709   2.374   9.198   2.818  1.0107 -0.2465  0.1650
  717MOL0     N96710   2.541   9.182   3.525  0.2993 -0.0057  0.4600
  717MOL0     N96711   2.440   9.109   3.552  0.0390 -0.0895 -0.0697
  717MOL0     C96712   1.303   8.812   3.551 -1.0977 -0.8407  1.3207
  717MOL0     C96713   1.283   8.697   3.474 -0.0550 -0.2811  0.4864
  717MOL0     C96714   1.248   8.239   3.383 -0.2245  0.5594 -0.7925
  717MOL0     C96715   1.283   8.232   3.247  0.6957  0.5920 -0.4438
  717MOL0     C96716   1.258   8.118   3.171  0.4972  0.2026 -0.8528
  717MOL0     C96717   1.192   8.008   3.230 -0.8186 -0.4627 -0.2744
  717MOL0     O96718   1.156   7.894   3.157 -0.3974  0.0108 -0.0449
  717MOL0     C96719   1.250   7.860   3.039  0.4837  0.4363  0.5360
  717MOL0     C96720   1.193   7.734   2.970  0.1572  0.5244 -0.3013
  717MOL0     C96721   1.220   7.596   3.041  1.5120 -0.4259  0.7153
  717MOL0     C96722   1.200   7.597   3.190 -0.4603  0.9128  0.1688
  717MOL0     C96723   1.177   7.457   3.232 -0.0060 -0.4671 -0.2141
  717MOL0     C96724   1.176   7.348   3.281  0.0325  0.8111  0.8363
  717MOL0     C96725   1.151   8.019   3.359  0.2310 -0.0696 -0.7642
  717MOL0     C96726   1.184   8.128   3.436 -0.0690  0.4673 -0.4417
  717MOL0     C96727   1.164   8.110   3.587 -0.5207  0.2726  0.2311
  717MOL0     H96728   1.162   8.491   3.708 -3.9025  1.1861 -1.7448
  717MOL0     H96729   1.244   8.691   3.857  1.0326 -6.4197 -0.3097
  717MOL0     H96730   1.474   8.947   3.633 -0.2622  0.2494  0.7262
  717MOL0     H96731   1.391   9.093   3.689 -2.6833 -0.9563 -0.5438
  717MOL0     H96732   1.580   8.933   3.875 -0.3965  0.1393  1.1826
  717MOL0     H96733   1.506   9.098   3.883 -2.7819 -1.7468 -0.1056
  717MOL0     H96734   1.740   9.133   3.849 -0.0902  0.3835 -0.6571
  717MOL0     H96735   1.644   9.192   3.716 -0.0957 -0.6887 -1.6126
  717MOL0     H96736   1.782   8.922   3.722  1.1833  0.5034 -0.2622
  717MOL0     H96737   1.697   8.998   3.580 -1.1881  0.1001  0.0911
  717MOL0     H96738   1.902   9.017   3.528 -0.0968  0.5413 -0.9252
  717MOL0     H96739   1.837   9.174   3.578  2.3605  1.1242 -2.7302
  717MOL0     H96740   1.960   9.144   3.808  0.6094 -0.6487  0.1154
  717MOL0     H96741   2.033   9.001   3.734 -4.4566 -1.9295  1.5614
  717MOL0     H96742   2.182   9.209   3.733  0.3290 -1.9275 -0.3411
  717MOL0     H96743   2.069   9.286   3.630 -0.6284 -1.3836 -0.4234
  717MOL0     H96744   2.198   9.018   3.555  2.0959 -0.3894 -3.1754
  717MOL0     H96745   2.132   9.129   3.436  1.4191 -0.6607 -2.8548
  717MOL0     H96746   2.276   9.383   3.484 -1.0757 -2.2834 -0.9663
  717MOL0     H96747   2.500   9.515   3.435  0.9406  0.5445  1.3679
  717MOL0     H96748   2.655   9.435   3.485 -0.2924  2.1667  0.3607
  717MOL0     H96749   2.678   9.448   3.267  0.5163 -0.1315  0.0195
  717MOL0     H96750   2.615   9.279   3.287 -0.0709  0.1093  2.9278
  717MOL0     H96751   2.453   9.540   3.197 -0.4023 -0.4199 -2.0906
  717MOL0     H96752   2.385   9.373   3.219  0.7508 -1.0878  3.0128
  717MOL0     H96753   2.628   9.403   3.040  0.0671 -2.9337 -0.0959
  717MOL0     H96754   2.480   9.485   2.979  1.1661  0.3706 -1.3604
  717MOL0     H96755   2.691   9.271   2.873 -2.0997 -0.6237  3.6786
  717MOL0     H96756   2.702   9.247   2.618 -0.4210  3.0228  0.3555
  717MOL0     H96757   2.572   8.921   2.238 -2.0241  1.6088  2.5599
  717MOL0     H96758   2.593   8.907   2.005 -2.0839  0.9804 -0.7475
  717MOL0     H96759   2.568   9.283   1.825  1.1726  0.1030  2.2974
  717MOL0     H96760   2.611   9.199   1.681 -0.7021 -1.7128 -0.5605
  717MOL0     H96761   2.403   9.094   1.887 -2.1276  1.8226 -0.4218
  717MOL0     H96762   2.362   9.172   1.744  1.2828  3.7747  1.4631
  717MOL0     H96763   2.510   8.898   1.768 -0.3057 -0.5625 -1.1487
  717MOL0     H96764   2.346   8.911   1.745 -0.1791  0.6706  4.0160
  717MOL0     H96765   2.576   9.006   1.570 -0.4679  0.6998  0.1780
  717MOL0     H96766   2.412   9.057   1.535  0.7550  0.3063 -0.0335
  717MOL0     H96767   2.447   8.846   1.406  0.7993 -0.2613 -0.8460
  717MOL0     H96768   2.329   8.808   1.530  0.5026  0.2863 -3.0056
  717MOL0     H96769   2.616   8.743   1.510 -0.8212  0.9788 -2.8789
  717MOL0     H96770   2.534   8.710   1.661  2.8818  1.4658 -0.9057
  717MOL0     H96771   2.365   8.570   1.533 -0.6156  0.0691 -0.5074
  717MOL0     H96772   2.527   8.518   1.573  1.0529  1.1303  0.0900
  717MOL0     H96773   2.583   8.614   1.329 -0.0802  1.3037  2.6957
  717MOL0     H96774   2.527   8.449   1.339  1.7387  0.2760 -0.0839
  717MOL0     H96775   2.731   9.310   2.002  0.0494  1.3545  2.1239
  717MOL0     H96776   2.693   9.324   2.242  0.0232 -0.6148  0.0743
  717MOL0     H96777   2.300   9.139   2.627 -1.0885  2.5329 -1.7930
  717MOL0     H96778   2.278   9.178   2.864  0.6932  0.0740 -0.3498
  717MOL0     H96779   1.343   8.901   3.503  0.3436 -1.8654  0.5450
  717MOL0     H96780   1.299   8.708   3.367 -1.2229  0.9776  0.4062
  717MOL0     H96781   1.329   8.320   3.204  1.4379  1.5751  2.2037
  717MOL0     H96782   1.276   8.126   3.064 -1.3123  0.2870 -1.1791
  717MOL0     H96783   1.353   7.847   3.074 -0.5406  0.0794  3.7825
  717MOL0     H96784   1.234   7.941   2.968 -3.3109  0.2487  0.9686
  717MOL0     H96785   1.239   7.727   2.871  1.6093 -1.9479  0.4523
  717MOL0     H96786   1.084   7.746   2.967 -0.0291  0.0270  2.4278
  717MOL0     H96787   1.323   7.564   3.022  1.5673  0.3224 -0.2999
  717MOL0     H96788   1.151   7.526   2.993 -2.3618  1.8454  2.4693
  717MOL0     H96789   1.289   7.637   3.240 -0.2623 -0.6214  1.0939
  717MOL0     H96790   1.114   7.661   3.214 -1.9930 -1.7475  2.2543
  717MOL0     H96791   1.183   7.250   3.325 -0.3542  1.0599  1.4787
  717MOL0     H96792   1.100   7.934   3.402  1.2293 -1.4481 -2.1887
  717MOL0     H96793   1.127   8.202   3.633  2.2521  1.8357 -0.4032
  717MOL0     H96794   1.111   8.020   3.620  2.1565 -0.9539  1.4475
  717MOL0     H96795   1.263   8.099   3.632 -0.1905  2.9619  0.3228
  718MOL0     O96796   1.915  10.204   0.443 -1.3458 -0.0566  1.4031
  718MOL0     C96797   2.015  10.205   0.366  0.3412  0.1304  0.5368
  718MOL0     O96798   2.013  10.253   0.242 -0.2483  0.7263 -1.0616
  718MOL0     C96799   1.898  10.309   0.196 -0.6078  0.0524 -0.0110
  718MOL0     C96800   1.875  10.445   0.204  0.5235  0.5995  0.0492
  718MOL0     C96801   1.772  10.508   0.139  0.2321  0.9637  0.2180
  718MOL0     C96802   1.690  10.423   0.067  0.3126 -0.0716  0.0532
  718MOL0     O96803   1.582  10.460  -0.016 -0.0108 -0.5961  0.2522
  718MOL0     C96804   1.535  10.598   0.008  0.4761 -0.0688  0.3821
  718MOL0     C96805   1.411  10.636  -0.076 -0.9575  0.4440  0.1665
  718MOL0     C96806   1.278  10.636   0.008  0.2791  0.1579  0.1545
  718MOL0     C96807   1.232  10.486   0.049 -0.4176 -0.2974  0.6802
  718MOL0     C96808   1.137  10.458   0.173 -0.9785  0.2417  0.0865
  718MOL0     C96809   1.214  10.479   0.301  0.3299  0.3104 -0.3914
  718MOL0     C96810   1.337  10.390   0.324 -0.0990  0.2833  0.0675
  718MOL0     C96811   1.410  10.424   0.451 -1.2084  0.1743 -0.1744
  718MOL0     N96812   1.342  10.384   0.574  0.0054  0.1861 -0.1828
  718MOL0     C96813   1.259  10.466   0.640  0.1508 -0.4349 -0.2510
  718MOL0     C96814   1.256  10.410   0.765  0.0188 -0.1621  0.5857
  718MOL0     C96815   1.181  10.479   0.873 -1.0373  0.6208 -0.3066
  718MOL0     C96816   1.271  10.585   0.944  0.6095  0.3890  0.9440
  718MOL0     C96817   1.325  10.709   0.869  0.5135  0.4133 -0.0374
  718MOL0     C96818   1.415  10.796   0.958  0.3606 -0.0053  0.7355
  718MOL0     O96819   1.458  10.911   0.877  0.5700  0.2116 -0.9350
  718MOL0     C96820   1.595  10.931   0.884 -0.7242  0.4685 -0.0223
  718MOL0     C96821   1.670  10.898   1.000  0.0611  0.6117  0.8655
  718MOL0     C96822   1.806  10.929   1.007 -0.3942  0.0170  0.4041
  718MOL0     C96823   1.873  10.978   0.900  0.7101  0.8635 -0.3171
  718MOL0     C96824   2.021  10.981   0.907  0.3815  0.0304 -0.4063
  718MOL0     O96825   2.088  11.039   0.801 -0.1247 -0.3053  0.3141
  718MOL0     C96826   2.195  11.109   0.843  0.7001 -0.1529  0.2130
  718MOL0     C96827   2.183  11.230   0.906  0.7449  0.3122  0.1284
  718MOL0     C96828   2.299  11.298   0.948 -0.2828 -0.1308 -0.6036
  718MOL0     C96829   2.429  11.248   0.940 -0.0434  0.4075 -0.6113
  718MOL0     O96830   2.518  11.325   1.000  1.1815  0.1916 -0.1252
  718MOL0     C96831   2.613  11.252   1.074 -0.4446 -0.6756 -0.5430
  718MOL0     C96832   2.559  11.195   1.212  0.0239  1.2187  0.3307
  718MOL0     C96833   2.669  11.133   1.304  0.2182 -0.6231 -0.1679
  718MOL0     C96834   2.789  11.069   1.236 -0.1923  0.5499 -1.0695
  718MOL0     C96835   2.878  10.981   1.335  0.6065 -0.7491 -0.0973
  718MOL0     C96836   2.985  10.905   1.257 -0.9121  0.0957  0.1486
  718MOL0     C96837   3.054  10.810   1.374  0.3132 -0.0783  1.3536
  718MOL0     C96838   3.141  10.695   1.313  0.1804  0.5370 -0.2919
  718MOL0    Cl96839   3.269  10.733   1.201 -0.1774 -0.3601  0.5435
  718MOL0     C96840   2.441  11.128   0.865 -0.5792  0.2025  0.3635
  718MOL0     C96841   2.320  11.062   0.825  0.3150 -0.7298  0.6262
  718MOL0     O96842   2.078  10.917   0.997  0.2981 -1.0618 -0.6169
  718MOL0     C96843   1.800  11.014   0.783  0.1492  0.2639  0.0353
  718MOL0     C96844   1.658  10.993   0.775  0.2602  0.5536  0.4076
  718MOL0     N96845   1.350  10.305   0.777 -0.6237 -0.1374 -0.2129
  718MOL0     N96846   1.386  10.280   0.653  0.1430 -0.2958  0.4586
  718MOL0     C96847   1.706  10.284   0.065  0.1769 -0.9518  0.2079
  718MOL0     C96848   1.826  10.231   0.119 -0.2538  0.1541  0.7896
  718MOL0     C96849   2.136  10.129   0.418 -0.6687  0.3618  0.2835
  718MOL0     C96850   2.146  10.105   0.558  0.4588  0.0389 -0.3956
  718MOL0     C96851   2.259  10.050   0.619  0.1869  0.5882 -0.5318
  718MOL0     C96852   2.365  10.001   0.548  0.4717  0.4835 -0.4706
  718MOL0     O96853   2.482   9.941   0.593  0.0852 -0.0395 -0.1789
  718MOL0     C96854   2.501   9.896   0.729  0.2784 -0.1723 -0.3229
  718MOL0     C96855   2.598   9.774   0.741  0.8442  0.5211 -0.8004
  718MOL0     C96856   2.739   9.801   0.683 -0.4145  0.1618 -1.0815
  718MOL0     C96857   2.828   9.675   0.713 -0.0935 -0.5099  0.1384
  718MOL0     C96858   2.959   9.704   0.651  0.7050 -0.2205  0.2681
  718MOL0     C96859   3.060   9.731   0.594  1.0490  0.2428 -0.0255
  718MOL0     C96860   2.356  10.009   0.409  0.8222  0.4078  0.5606
  718MOL0     C96861   2.247  10.074   0.351  0.6368 -1.1515  0.4913
  718MOL0     C96862   2.252  10.087   0.200 -0.0911 -0.1796 -0.6667
  718MOL0     H96863   1.934  10.514   0.263 -2.2785 -0.0724  4.0181
  718MOL0     H96864   1.769  10.616   0.134 -0.6950  0.9444  0.1253
  718MOL0     H96865   1.502  10.603   0.112 -1.1390 -1.6275  0.0037
  718MOL0     H96866   1.613  10.668  -0.025  2.4490 -2.3160 -0.0795
  718MOL0     H96867   1.400  10.567  -0.160  1.5919  0.6829 -0.4426
  718MOL0     H96868   1.428  10.741  -0.102  1.2489  0.7236  2.2975
  718MOL0     H96869   1.194  10.677  -0.049  1.2200  0.3111 -1.1766
  718MOL0     H96870   1.306  10.708   0.084  4.0302  1.5294 -2.2427
  718MOL0     H96871   1.187  10.456  -0.046  5.1135  1.2594 -2.9345
  718MOL0     H96872   1.324  10.428   0.060 -0.6319 -0.9183 -0.6709
  718MOL0     H96873   1.054  10.527   0.151 -1.6355 -0.2424  0.9949
  718MOL0     H96874   1.099  10.355   0.172  1.2282 -0.6212 -0.8836
  718MOL0     H96875   1.265  10.576   0.296  3.6563 -1.1430  2.1645
  718MOL0     H96876   1.141  10.474   0.382 -0.0515  0.0629 -0.7462
  718MOL0     H96877   1.421  10.401   0.255  0.5047 -3.7653 -0.0763
  718MOL0     H96878   1.302  10.287   0.331  2.3532 -0.5042  3.2876
  718MOL0     H96879   1.506  10.371   0.453 -0.3358  1.7166  1.2690
  718MOL0     H96880   1.441  10.529   0.450  1.9278 -0.6566 -0.3689
  718MOL0     H96881   1.212  10.550   0.591  1.8015  0.9132  0.3964
  718MOL0     H96882   1.104  10.538   0.821  1.1778  2.7652 -1.3892
  718MOL0     H96883   1.141  10.395   0.930  2.9711 -2.8252 -2.0320
  718MOL0     H96884   1.215  10.625   1.029 -0.0017  0.8223  0.3525
  718MOL0     H96885   1.355  10.539   0.996  0.1942 -1.1803  0.2551
  718MOL0     H96886   1.227  10.753   0.850  0.0826 -0.1201  0.9059
  718MOL0     H96887   1.362  10.696   0.767  0.4012 -1.3569  0.1209
  718MOL0     H96888   1.498  10.731   0.983  0.0349 -0.1812  1.3828
  718MOL0     H96889   1.345  10.819   1.038 -0.7609  1.1057 -0.5090
  718MOL0     H96890   1.618  10.889   1.095  0.5990 -0.4457  1.0781
  718MOL0     H96891   1.853  10.915   1.104 -0.8051  1.6111  0.8558
  718MOL0     H96892   2.089  11.276   0.935  0.4891  1.1547 -1.8703
  718MOL0     H96893   2.286  11.386   1.011  1.0516 -1.2068  1.2829
  718MOL0     H96894   2.669  11.176   1.018  0.1733 -0.0357 -0.8167
  718MOL0     H96895   2.684  11.332   1.099 -2.0313  2.0702 -4.0342
  718MOL0     H96896   2.488  11.252   1.271 -0.9413  0.1858  0.2092
  718MOL0     H96897   2.499  11.113   1.171  2.4020  2.0875 -6.0422
  718MOL0     H96898   2.709  11.201   1.380  1.4423 -0.4943 -0.8949
  718MOL0     H96899   2.616  11.064   1.370  0.3237 -0.5704 -0.0263
  718MOL0     H96900   2.859  11.137   1.187  1.0457 -0.7300 -1.1525
  718MOL0     H96901   2.744  11.013   1.153  0.7639 -0.4032 -0.9642
  718MOL0     H96902   2.811  10.912   1.388 -0.4134 -1.1351 -1.8118
  718MOL0     H96903   2.935  11.053   1.394  0.3477  0.9720 -1.8437
  718MOL0     H96904   2.935  10.847   1.180 -2.6936  3.2843 -1.3147
  718MOL0     H96905   3.049  10.977   1.204 -2.6311  0.0108 -2.1923
  718MOL0     H96906   2.969  10.764   1.425  0.5476 -1.9967  0.1572
  718MOL0     H96907   3.114  10.871   1.442  3.4807 -0.1517 -1.1099
  718MOL0     H96908   3.191  10.640   1.393 -0.6736  0.1874  0.0172
  718MOL0     H96909   3.078  10.625   1.257  1.8826 -0.3899 -1.1358
  718MOL0     H96910   2.539  11.082   0.857 -0.5762  0.5255 -3.8282
  718MOL0     H96911   2.341  10.959   0.795  0.1585 -0.9407  1.2201
  718MOL0     H96912   1.851  11.063   0.701  4.3802 -3.0063  0.3478
  718MOL0     H96913   1.621  11.026   0.678  3.1949 -1.7550 -1.7013
  718MOL0     H96914   1.646  10.213   0.008  0.5984 -0.2087 -1.2115
  718MOL0     H96915   1.851  10.126   0.105  0.7779  0.6573 -1.5092
  718MOL0     H96916   2.070  10.149   0.622 -1.1476  0.3977 -2.4356
  718MOL0     H96917   2.255  10.045   0.727 -0.2278  1.0150 -0.5214
  718MOL0     H96918   2.406   9.850   0.759  1.6154 -2.6810  0.3496
  718MOL0     H96919   2.540   9.978   0.791  0.1755  0.3193 -0.9040
  718MOL0     H96920   2.550   9.693   0.686  0.1524 -0.0600  0.6010
  718MOL0     H96921   2.590   9.745   0.846 -2.2992  1.1523 -0.7648
  718MOL0     H96922   2.773   9.886   0.744 -1.2199  0.6296 -1.2592
  718MOL0     H96923   2.744   9.829   0.577 -1.5321  3.0987 -0.4679
  718MOL0     H96924   2.840   9.658   0.820  1.2729  1.5052  0.3575
  718MOL0     H96925   2.781   9.591   0.660 -2.9000  0.1885  1.2897
  718MOL0     H96926   3.155   9.763   0.555  0.3003 -0.1760 -2.3644
  718MOL0     H96927   2.429   9.953   0.352  0.5044  0.7859 -0.2300
  718MOL0     H96928   2.154  10.064   0.158 -1.0174  0.5718  0.9650
  718MOL0     H96929   2.271  10.191   0.171 -1.4160 -0.5774 -3.1272
  718MOL0     H96930   2.339  10.029   0.170  0.6559 -1.6627  3.5698
  719MOL0     O96931   6.003   7.408   5.101  0.5355 -0.2900  1.0387
  719MOL0     C96932   5.959   7.483   5.186  1.3541  0.7077  0.0956
  719MOL0     O96933   5.846   7.469   5.258  0.6404 -0.3383 -0.1433
  719MOL0     C96934   5.789   7.347   5.273  0.4678  0.2569  0.0010
  719MOL0     C96935   5.652   7.339   5.276 -0.2932 -0.2438 -0.5825
  719MOL0     C96936   5.578   7.218   5.299 -0.1184 -0.3761 -0.3541
  719MOL0     C96937   5.643   7.099   5.307 -0.1231 -0.6628 -0.3555
  719MOL0     O96938   5.575   6.989   5.326 -0.1779  0.4562 -0.8706
  719MOL0     C96939   5.608   6.875   5.254 -1.0008  1.4044 -0.8928
  719MOL0     C96940   5.622   6.747   5.338  0.9806  0.5221 -0.3328
  719MOL0     C96941   5.627   6.610   5.260  0.5281 -0.3822  0.6765
  719MOL0     C96942   5.495   6.542   5.223  0.1885 -0.6676  0.6512
  719MOL0     C96943   5.413   6.606   5.108  1.2576 -0.6370  0.6387
  719MOL0     C96944   5.313   6.509   5.049 -0.0701 -0.5292 -0.0985
  719MOL0     C96945   5.201   6.472   5.148  0.5076 -0.4245 -0.9525
  719MOL0     C96946   5.079   6.444   5.059  0.5543 -0.6926 -0.5893
  719MOL0     N96947   5.089   6.329   4.974 -0.1592  0.7103  0.4290
  719MOL0     C96948   5.153   6.210   4.997  0.7568  0.2717 -0.8228
  719MOL0     C96949   5.176   6.157   4.871  0.0012  0.4159 -0.5898
  719MOL0     C96950   5.250   6.034   4.844 -0.5852  0.2274  0.6864
  719MOL0     C96951   5.165   5.915   4.797  0.1690 -0.0874  0.3244
  719MOL0     C96952   5.121   5.921   4.646 -0.0001 -0.6393 -0.0290
  719MOL0     C96953   5.075   5.799   4.582 -0.5745 -0.5311 -0.2045
  719MOL0     O96954   4.994   5.834   4.468  0.4488 -0.1137  0.7022
  719MOL0     C96955   4.949   5.738   4.384 -0.5215  0.5129  0.5663
  719MOL0     C96956   4.915   5.613   4.431  0.4393  0.1101 -0.4814
  719MOL0     C96957   4.893   5.517   4.334 -0.7275  0.8517  1.4812
  719MOL0     C96958   4.920   5.539   4.198 -0.9678 -0.6490 -0.5524
  719MOL0     C96959   4.915   5.429   4.109  0.1387  0.3561  0.5469
  719MOL0     O96960   4.851   5.317   4.145  0.0818  0.2547  0.1465
  719MOL0     C96961   4.847   5.219   4.047 -0.0434 -0.5085  0.2792
  719MOL0     C96962   4.721   5.203   3.989 -0.5439  0.0160 -0.0502
  719MOL0     C96963   4.702   5.108   3.878  1.3251  0.1198 -0.9593
  719MOL0     C96964   4.813   5.036   3.832  0.3850 -0.1310 -1.0558
  719MOL0     O96965   4.815   4.933   3.735 -0.2654 -0.2475 -0.3905
  719MOL0     C96966   4.690   4.860   3.693 -0.2931  0.3943 -0.5775
  719MOL0     C96967   4.641   4.763   3.801 -0.2851  0.1561  0.2032
  719MOL0     C96968   4.743   4.751   3.921  0.4704  0.4424 -0.0344
  719MOL0     C96969   4.746   4.624   4.008 -0.0489  0.0932 -0.3439
  719MOL0     C96970   4.802   4.506   3.929 -0.1281  0.2552 -0.3363
  719MOL0     C96971   4.788   4.377   4.026 -0.4544  0.6371  0.8646
  719MOL0     C96972   4.799   4.247   3.931  0.0741  0.0493 -0.7708
  719MOL0     C96973   4.733   4.136   4.021 -0.6877 -0.4375 -0.5861
  719MOL0    Cl96974   4.547   4.174   4.052 -0.3706  0.3346 -0.2010
  719MOL0     C96975   4.938   5.057   3.898 -0.9691  0.1004  0.8437
  719MOL0     C96976   4.956   5.148   3.999  0.2626  0.0171 -0.9120
  719MOL0     O96977   4.963   5.449   4.002 -0.0968  0.2108  0.2316
  719MOL0     C96978   4.950   5.662   4.152  0.0545 -1.1939 -0.4502
  719MOL0     C96979   4.963   5.768   4.243 -0.0832 -0.7026  0.0172
  719MOL0     N96980   5.119   6.234   4.777 -0.5385  0.5498 -0.5188
  719MOL0     N96981   5.071   6.330   4.837  0.6698  0.8175  0.3237
  719MOL0     C96982   5.790   7.097   5.301  0.6950 -0.3122 -0.1586
  719MOL0     C96983   5.860   7.221   5.290 -0.1436  0.2972 -0.9126
  719MOL0     C96984   6.027   7.609   5.206  0.3929  0.2817 -0.5580
  719MOL0     C96985   6.071   7.637   5.329 -0.5219 -0.2954 -0.5427
  719MOL0     C96986   6.151   7.745   5.356 -0.3176  0.1929 -0.5872
  719MOL0     C96987   6.189   7.826   5.260 -0.1032 -0.4333  0.9857
  719MOL0     O96988   6.287   7.916   5.277 -0.3111 -0.4459  0.4395
  719MOL0     C96989   6.258   8.024   5.371 -0.5803  0.5868  0.7538
  719MOL0     C96990   6.142   8.108   5.328 -0.8189  0.3645 -0.4613
  719MOL0     C96991   6.155   8.184   5.198  1.3485 -0.1630 -0.7865
  719MOL0     C96992   6.056   8.298   5.205  0.3935 -0.5522  0.1390
  719MOL0     C96993   6.077   8.408   5.103 -1.0999 -0.4243  0.4771
  719MOL0     C96994   6.077   8.506   5.024  0.8153 -0.8579 -0.1054
  719MOL0     C96995   6.132   7.808   5.137  0.5697 -0.0597  0.4154
  719MOL0     C96996   6.054   7.694   5.105  0.1260 -0.3290 -0.3895
  719MOL0     C96997   5.988   7.694   4.967 -0.3842  1.3198  0.2105
  719MOL0     H96998   5.593   7.427   5.255 -0.5051 -0.4447 -0.8521
  719MOL0     H96999   5.470   7.219   5.302 -0.2327  3.7951 -0.2260
  719MOL0     H97000   5.528   6.844   5.186 -1.0118 -1.7140  0.4077
  719MOL0     H97001   5.702   6.881   5.198 -0.3952  2.2500  0.1745
  719MOL0     H97002   5.542   6.727   5.410 -0.6123 -0.0173 -2.1501
  719MOL0     H97003   5.717   6.753   5.392  0.8249 -0.2743  0.0345
  719MOL0     H97004   5.676   6.541   5.329  2.2291  0.8091  0.7171
  719MOL0     H97005   5.692   6.628   5.173 -0.3019  2.6572  0.5584
  719MOL0     H97006   5.516   6.437   5.199 -1.7253 -0.3676 -3.1463
  719MOL0     H97007   5.426   6.534   5.307  1.7329  0.2845  2.0632
  719MOL0     H97008   5.359   6.696   5.140 -0.4369 -2.8630  4.9167
  719MOL0     H97009   5.481   6.626   5.025  0.2934  2.9600  0.5827
  719MOL0     H97010   5.275   6.561   4.961  1.2759  0.4731 -0.1266
  719MOL0     H97011   5.365   6.421   5.009  1.8081  1.1149 -1.5275
  719MOL0     H97012   5.170   6.547   5.221  0.5862 -2.9333  1.8790
  719MOL0     H97013   5.229   6.382   5.204  0.7344 -1.3268 -2.4576
  719MOL0     H97014   4.998   6.422   5.129  2.1748 -0.3279  1.5155
  719MOL0     H97015   5.054   6.528   4.994  4.1010  0.9603 -0.1121
  719MOL0     H97016   5.190   6.168   5.089 -0.8358 -0.6247 -0.5443
  719MOL0     H97017   5.310   6.054   4.755 -2.0465 -0.0937 -0.4043
  719MOL0     H97018   5.309   6.008   4.932  1.5000  0.4203 -0.5776
  719MOL0     H97019   5.218   5.822   4.818 -2.6154 -1.7199  0.5516
  719MOL0     H97020   5.072   5.918   4.855  0.6043 -0.1164  1.0288
  719MOL0     H97021   5.208   5.954   4.588 -0.0660  1.5170  0.9909
  719MOL0     H97022   5.041   5.996   4.647  2.8218  2.6580  1.8973
  719MOL0     H97023   5.011   5.745   4.653  0.6047  1.2100  2.3215
  719MOL0     H97024   5.164   5.739   4.559  1.1931  1.5596  0.7846
  719MOL0     H97025   4.901   5.603   4.538  4.7613 -1.2923  0.1900
  719MOL0     H97026   4.847   5.427   4.375 -0.1512  0.3272  1.0102
  719MOL0     H97027   4.635   5.263   4.017  0.7421  2.7414 -1.4928
  719MOL0     H97028   4.613   5.086   3.819  0.0700  0.6322  0.6885
  719MOL0     H97029   4.610   4.931   3.670  0.3928  0.4717 -2.9142
  719MOL0     H97030   4.709   4.797   3.606  0.3615  1.9037 -1.5820
  719MOL0     H97031   4.550   4.800   3.849  0.5255  1.3669  0.8730
  719MOL0     H97032   4.602   4.669   3.759  0.2453  0.7020 -1.5959
  719MOL0     H97033   4.847   4.766   3.891  1.4396 -0.1569  2.7265
  719MOL0     H97034   4.717   4.840   3.978 -2.5644  0.0964 -0.7085
  719MOL0     H97035   4.639   4.607   4.020  0.0811 -0.3626  0.1849
  719MOL0     H97036   4.792   4.633   4.107  1.5893  0.0372 -1.0642
  719MOL0     H97037   4.907   4.529   3.910  0.9952 -3.7253  0.2565
  719MOL0     H97038   4.748   4.497   3.835  1.4470 -1.0612 -1.1642
  719MOL0     H97039   4.864   4.379   4.105  0.0948 -1.4640  0.4617
  719MOL0     H97040   4.692   4.387   4.077 -0.0888  1.6163  1.3905
  719MOL0     H97041   4.906   4.232   3.913 -0.1072 -0.5214 -1.4262
  719MOL0     H97042   4.751   4.253   3.833 -1.5417 -1.3918 -0.1100
  719MOL0     H97043   4.751   4.037   3.977 -0.7768 -1.1114  0.8347
  719MOL0     H97044   4.785   4.134   4.117 -1.0568  0.1783 -0.3719
  719MOL0     H97045   5.011   4.987   3.859 -0.8723  0.5100  0.2764
  719MOL0     H97046   5.056   5.152   4.040  0.2060  2.3081 -0.8505
  719MOL0     H97047   4.980   5.682   4.049  2.5606  0.5435  0.5197
  719MOL0     H97048   4.963   5.874   4.219 -0.9893 -0.9800 -1.3590
  719MOL0     H97049   5.840   7.001   5.305 -2.4623 -2.0579  1.0339
  719MOL0     H97050   5.967   7.203   5.286 -0.3969 -2.1616  0.7860
  719MOL0     H97051   6.040   7.573   5.411 -1.9306 -2.6012 -2.7273
  719MOL0     H97052   6.176   7.776   5.457  2.3480 -2.4985 -0.2593
  719MOL0     H97053   6.349   8.081   5.390  1.9233 -3.0263  0.4804
  719MOL0     H97054   6.233   7.972   5.465 -1.2205 -1.8860 -0.6936
  719MOL0     H97055   6.132   8.179   5.411 -0.1054  1.0769 -0.9622
  719MOL0     H97056   6.050   8.050   5.326 -0.9617  0.5957 -0.8682
  719MOL0     H97057   6.126   8.114   5.119 -1.5039 -0.1044  0.0915
  719MOL0     H97058   6.254   8.230   5.190  1.4524 -0.6170 -2.3420
  719MOL0     H97059   5.958   8.254   5.184  0.7666 -2.3409  1.8377
  719MOL0     H97060   6.062   8.344   5.303 -1.5578 -1.5515  0.7959
  719MOL0     H97061   6.091   8.589   4.958 -2.1948 -0.9826 -1.0739
  719MOL0     H97062   6.167   7.875   5.060 -0.8901  0.4210  0.1386
  719MOL0     H97063   6.008   7.592   4.932  0.1140  0.5905  2.4663
  719MOL0     H97064   5.882   7.718   4.971 -1.1230 -1.7394  2.8341
  719MOL0     H97065   6.045   7.755   4.897  0.4413 -0.2778 -0.5864
  720MOL0     O97066   0.126   8.527   2.932 -0.1623  0.1512 -0.4054
  720MOL0     C97067   0.130   8.406   2.950 -0.2233  1.2353 -0.1084
  720MOL0     O97068   0.059   8.332   3.034  0.1415 -0.0854  0.1557
  720MOL0     C97069  -0.074   8.358   3.054  0.4356  0.7212  0.8709
  720MOL0     C97070  -0.129   8.307   3.173 -0.2416  0.3550 -0.0886
  720MOL0     C97071  -0.261   8.340   3.225 -0.8474 -0.0920  1.0871
  720MOL0     C97072  -0.325   8.430   3.148  0.3058  0.4689  0.8094
  720MOL0     O97073  -0.450   8.480   3.168 -0.3367 -0.5083 -0.1893
  720MOL0     C97074  -0.492   8.514   3.300  0.8365  0.9244  0.3313
  720MOL0     C97075  -0.440   8.663   3.341  0.2249  0.7692  0.7294
  720MOL0     C97076  -0.291   8.660   3.373 -0.7308 -0.5203  0.2275
  720MOL0     C97077  -0.262   8.810   3.396 -0.3464  0.1550  0.2678
  720MOL0     C97078  -0.107   8.835   3.425 -0.7905  1.0330  0.3256
  720MOL0     C97079  -0.054   8.758   3.556  0.4826  0.5004 -0.1440
  720MOL0     C97080  -0.157   8.758   3.677  0.7818 -0.2693 -0.5360
  720MOL0     C97081  -0.084   8.738   3.818 -0.7230  0.2770  0.2525
  720MOL0     N97082  -0.188   8.719   3.923 -0.2169  0.1529  0.0650
  720MOL0     C97083  -0.288   8.817   3.938 -0.0894 -0.0562 -0.4941
  720MOL0     C97084  -0.383   8.746   4.000  0.1869  0.7886  0.1928
  720MOL0     C97085  -0.511   8.801   4.056  0.6471  0.9117  0.1518
  720MOL0     C97086  -0.531   8.753   4.201  0.1932  0.1343  0.4933
  720MOL0     C97087  -0.424   8.783   4.307  1.0282 -1.0048  0.8580
  720MOL0     C97088  -0.443   8.928   4.362 -0.2143  1.0128  0.5947
  720MOL0     O97089  -0.562   8.940   4.437 -0.0452 -0.5228 -0.2586
  720MOL0     C97090  -0.539   8.922   4.573  0.2685 -0.4959 -0.5067
  720MOL0     C97091  -0.483   9.016   4.657  0.7263  0.2181  0.6448
  720MOL0     C97092  -0.455   8.991   4.796  0.0508 -0.4783 -0.7860
  720MOL0     C97093  -0.473   8.864   4.852  0.3187 -0.5026 -0.2048
  720MOL0     C97094  -0.448   8.828   4.993  0.5772 -0.2280  0.3576
  720MOL0     O97095  -0.453   8.697   5.031  0.8041 -1.0415 -0.4800
  720MOL0     C97096  -0.413   8.666   5.160 -0.4753 -0.7239 -0.2227
  720MOL0     C97097  -0.505   8.602   5.236 -0.0321 -0.0302  0.4390
  720MOL0     C97098  -0.482   8.575   5.371 -0.3293  0.2131 -0.2908
  720MOL0     C97099  -0.368   8.627   5.436 -0.0606  0.5008  0.0978
  720MOL0     O97100  -0.338   8.597   5.566 -0.2466 -0.3052 -0.2762
  720MOL0     C97101  -0.454   8.593   5.651 -0.1906  0.4994  0.0792
  720MOL0     C97102  -0.420   8.679   5.769  0.9979  0.1492 -0.3210
  720MOL0     C97103  -0.520   8.681   5.888  0.6427 -1.0476  0.0784
  720MOL0     C97104  -0.668   8.707   5.849  0.1743  0.3396  0.2675
  720MOL0     C97105  -0.772   8.727   5.961 -0.6085  0.0428  0.2425
  720MOL0     C97106  -0.747   8.838   6.063  0.1614 -0.1985 -0.6536
  720MOL0     C97107  -0.718   8.785   6.200  0.8059  0.1891 -0.4508
  720MOL0     C97108  -0.660   8.898   6.285  0.8125 -0.0152 -0.3970
  720MOL0    Cl97109  -0.493   8.948   6.230  0.2594 -0.3464 -0.2029
  720MOL0     C97110  -0.274   8.691   5.360  0.0252  0.1289  0.0097
  720MOL0     C97111  -0.296   8.715   5.226  0.1684  0.3028  0.6084
  720MOL0     O97112  -0.404   8.925   5.062  0.6936  0.1189 -0.8456
  720MOL0     C97113  -0.525   8.761   4.766 -0.8622  0.3919  0.7266
  720MOL0     C97114  -0.562   8.795   4.632  0.5381  0.8250  0.4880
  720MOL0     N97115  -0.350   8.616   4.019  0.5173 -0.4213 -0.5233
  720MOL0     N97116  -0.239   8.596   3.955  0.1552 -0.1047  0.4848
  720MOL0     C97117  -0.275   8.472   3.019 -0.0857  0.3419 -0.1845
  720MOL0     C97118  -0.158   8.425   2.964  0.3946 -1.1029  0.2523
  720MOL0     C97119   0.240   8.330   2.890 -0.3277  0.6690  0.8576
  720MOL0     C97120   0.304   8.406   2.783  0.1492  0.3278  0.3448
  720MOL0     C97121   0.399   8.339   2.701 -0.4508  0.5050 -0.4948
  720MOL0     C97122   0.444   8.214   2.726  0.1963  0.0986 -0.6223
  720MOL0     O97123   0.534   8.147   2.656 -0.5913 -0.0698  0.0119
  720MOL0     C97124   0.615   8.204   2.551 -0.4532 -0.0198  0.0134
  720MOL0     C97125   0.753   8.139   2.547 -0.4315  0.6338  0.0576
  720MOL0     C97126   0.732   7.988   2.528  0.1586 -0.8486  0.3315
  720MOL0     C97127   0.695   7.951   2.386  0.3572  0.5928  0.6984
  720MOL0     C97128   0.734   7.824   2.341 -0.9471  0.1592 -0.4112
  720MOL0     C97129   0.750   7.708   2.296  1.0848  0.0080  0.1314
  720MOL0     C97130   0.382   8.144   2.827 -0.1562  0.5081 -0.1214
  720MOL0     C97131   0.281   8.188   2.910 -0.0394  0.6991  0.3621
  720MOL0     C97132   0.211   8.089   3.000 -0.1590  0.6557 -0.7695
  720MOL0     H97133  -0.067   8.247   3.239  0.7528  1.1851 -0.2374
  720MOL0     H97134  -0.311   8.291   3.308 -4.2121  0.5817 -0.3474
  720MOL0     H97135  -0.601   8.509   3.302  0.7597 -5.2321  1.3517
  720MOL0     H97136  -0.449   8.437   3.365  0.2223  1.1470  1.0075
  720MOL0     H97137  -0.500   8.696   3.426 -1.2919 -0.4548  0.1905
  720MOL0     H97138  -0.468   8.740   3.268  1.4121  1.1323  0.6293
  720MOL0     H97139  -0.234   8.637   3.283 -0.5073  1.0954 -0.0826
  720MOL0     H97140  -0.262   8.591   3.453 -1.4019 -1.3462 -0.2190
  720MOL0     H97141  -0.287   8.880   3.315  2.5370  1.1392  0.0942
  720MOL0     H97142  -0.324   8.838   3.481 -3.9816 -0.2356 -2.0322
  720MOL0     H97143  -0.043   8.820   3.338  3.0092 -4.7146  3.4214
  720MOL0     H97144  -0.093   8.940   3.453 -4.0150  1.3017  1.2911
  720MOL0     H97145  -0.033   8.654   3.532 -2.5247 -0.5729  1.3730
  720MOL0     H97146   0.033   8.812   3.596  0.4511  1.6604 -1.5245
  720MOL0     H97147  -0.245   8.693   3.670 -1.0388  1.5145  2.9862
  720MOL0     H97148  -0.198   8.859   3.678  0.9090 -0.2052  0.7489
  720MOL0     H97149  -0.011   8.657   3.812 -0.8666  0.1504  0.2158
  720MOL0     H97150  -0.034   8.833   3.840 -0.8334  0.4046 -0.0459
  720MOL0     H97151  -0.286   8.919   3.900 -0.8980 -0.9747 -3.2504
  720MOL0     H97152  -0.501   8.910   4.068 -3.1781  1.4377  0.0534
  720MOL0     H97153  -0.593   8.783   3.986 -0.3076  1.4590  1.0913
  720MOL0     H97154  -0.630   8.784   4.236 -1.2592 -1.6789 -1.7455
  720MOL0     H97155  -0.540   8.644   4.201  1.3418  0.0268  0.2335
  720MOL0     H97156  -0.328   8.778   4.255  0.0358 -4.4760 -0.9304
  720MOL0     H97157  -0.428   8.715   4.393  1.7348 -0.6312  1.1922
  720MOL0     H97158  -0.444   9.011   4.290  0.6132  0.7249  0.2376
  720MOL0     H97159  -0.355   8.948   4.424  0.4522  1.2803 -0.4106
  720MOL0     H97160  -0.465   9.114   4.614  0.3039 -0.8690 -2.3018
  720MOL0     H97161  -0.416   9.071   4.858  1.0041 -0.4761 -1.3691
  720MOL0     H97162  -0.594   8.564   5.187 -0.4406  3.7520 -2.1971
  720MOL0     H97163  -0.545   8.506   5.426  2.6729 -2.1739  0.4317
  720MOL0     H97164  -0.539   8.642   5.602 -0.3558 -1.4390 -1.6877
  720MOL0     H97165  -0.475   8.493   5.688  0.2443  0.6804  0.8490
  720MOL0     H97166  -0.328   8.640   5.815 -0.8857  0.3034  4.0625
  720MOL0     H97167  -0.409   8.783   5.736 -1.0235  0.1537 -1.0888
  720MOL0     H97168  -0.515   8.583   5.935  1.2599 -2.2607 -2.3546
  720MOL0     H97169  -0.481   8.754   5.959 -3.2101  1.4594 -0.0893
  720MOL0     H97170  -0.706   8.628   5.783 -2.7233 -0.9275  3.1756
  720MOL0     H97171  -0.663   8.795   5.784 -1.1260 -0.2485 -0.6906
  720MOL0     H97172  -0.781   8.628   6.008 -1.4834 -0.2564 -0.5119
  720MOL0     H97173  -0.867   8.762   5.920 -0.7432 -0.6906 -0.0965
  720MOL0     H97174  -0.660   8.894   6.027 -1.0282 -0.3087 -4.0327
  720MOL0     H97175  -0.835   8.903   6.062  0.0245 -0.3850 -1.4220
  720MOL0     H97176  -0.633   8.717   6.191  1.5111  1.0556 -0.4939
  720MOL0     H97177  -0.805   8.732   6.239  1.0895 -0.1511 -0.2803
  720MOL0     H97178  -0.740   8.972   6.277  0.8382  0.1825  0.9419
  720MOL0     H97179  -0.663   8.871   6.391 -0.0311  0.6769 -0.2262
  720MOL0     H97180  -0.187   8.727   5.414  0.7725 -5.0190  2.8361
  720MOL0     H97181  -0.236   8.789   5.173 -1.1042  2.0600  1.5321
  720MOL0     H97182  -0.561   8.665   4.801 -0.9851  0.5842  1.1301
  720MOL0     H97183  -0.617   8.727   4.568  2.0553 -0.1474  0.1792
  720MOL0     H97184  -0.342   8.535   2.960 -3.0920 -4.0800 -2.0643
  720MOL0     H97185  -0.131   8.460   2.864  2.5771  1.1540  1.5261
  720MOL0     H97186   0.292   8.510   2.755  1.1652 -0.1996 -2.3701
  720MOL0     H97187   0.439   8.394   2.617  2.7918 -3.0076 -1.5416
  720MOL0     H97188   0.628   8.311   2.573 -2.0854  0.0184  0.9380
  720MOL0     H97189   0.565   8.200   2.454 -0.7087  1.3072  0.0584
  720MOL0     H97190   0.810   8.156   2.638 -1.5071  0.6718  0.7399
  720MOL0     H97191   0.815   8.173   2.464  1.8324 -0.8515  1.0557
  720MOL0     H97192   0.650   7.943   2.585 -1.4023 -1.1665 -2.0313
  720MOL0     H97193   0.826   7.943   2.563  2.6783  2.3141 -1.7560
  720MOL0     H97194   0.590   7.962   2.358 -0.4913  0.4488  3.5238
  720MOL0     H97195   0.744   8.020   2.316  0.9083  0.2030  0.6908
  720MOL0     H97196   0.760   7.610   2.255  2.3253 -0.2185  0.9398
  720MOL0     H97197   0.420   8.045   2.849 -1.2932  0.5672  2.4725
  720MOL0     H97198   0.207   8.116   3.106  3.2625 -0.0809 -0.3224
  720MOL0     H97199   0.107   8.076   2.971  0.1990 -0.3907 -1.6701
  720MOL0     H97200   0.250   7.987   3.001 -0.6562  0.4630 -0.9727
  721MOL0     O97201   2.520   6.688  10.064  0.2225 -0.3676  0.1126
  721MOL0     C97202   2.454   6.583  10.072 -0.1813 -0.5897 -0.2851
  721MOL0     O97203   2.353   6.539   9.983  0.5343  1.2696  0.4010
  721MOL0     C97204   2.310   6.614   9.882  0.4711  0.6247 -0.3225
  721MOL0     C97205   2.274   6.552   9.761  0.1753  0.9733  0.5749
  721MOL0     C97206   2.237   6.631   9.652  0.6660 -0.0523 -0.3620
  721MOL0     C97207   2.225   6.764   9.663  0.6627 -1.7166  0.8121
  721MOL0     O97208   2.185   6.842   9.557  0.0540  0.0693  0.2371
  721MOL0     C97209   2.235   6.975   9.531 -0.7189 -0.2000 -0.3659
  721MOL0     C97210   2.385   6.966   9.495  0.6992 -0.5945 -0.7465
  721MOL0     C97211   2.400   6.908   9.360  0.1039  0.6302 -0.2802
  721MOL0     C97212   2.556   6.874   9.328  0.3205  0.3114  1.0223
  721MOL0     C97213   2.585   6.837   9.178  0.6064  0.1435  0.1030
  721MOL0     C97214   2.729   6.840   9.127 -0.3353  0.7082 -0.1638
  721MOL0     C97215   2.742   6.829   8.972  0.8521 -1.1363 -0.6192
  721MOL0     C97216   2.679   6.701   8.909  0.5637  0.2372  0.4621
  721MOL0     N97217   2.714   6.675   8.760  1.1861 -0.1200 -0.1988
  721MOL0     C97218   2.842   6.680   8.702 -0.5251  0.5829  1.0408
  721MOL0     C97219   2.812   6.621   8.577 -0.3624 -0.2032 -0.1695
  721MOL0     C97220   2.927   6.606   8.479 -1.1003 -0.5992 -0.3473
  721MOL0     C97221   2.967   6.444   8.478 -0.0557 -0.5322  1.2008
  721MOL0     C97222   2.895   6.351   8.370  0.8730 -0.2271 -0.2252
  721MOL0     C97223   2.911   6.381   8.225  0.0672  0.6752  0.9039
  721MOL0     O97224   3.051   6.374   8.184 -0.0441  0.3962 -0.9888
  721MOL0     C97225   3.090   6.246   8.134 -0.2164 -0.3784 -0.7461
  721MOL0     C97226   3.047   6.205   8.001 -0.0573 -0.7809  0.2856
  721MOL0     C97227   3.090   6.071   7.959  0.4992 -0.2889  0.1534
  721MOL0     C97228   3.175   5.995   8.043 -0.1979  0.8431 -0.9556
  721MOL0     C97229   3.219   5.863   8.021  0.2877  0.0890 -0.1830
  721MOL0     O97230   3.219   5.783   8.139 -0.2572  0.0046  0.1693
  721MOL0     C97231   3.255   5.657   8.137  0.2219 -0.4157 -0.9403
  721MOL0     C97232   3.158   5.558   8.118 -0.4824  0.1847 -0.7060
  721MOL0     C97233   3.195   5.418   8.121 -0.1507  0.2079  0.0184
  721MOL0     C97234   3.327   5.378   8.141 -0.7821 -0.3740 -0.0338
  721MOL0     O97235   3.350   5.236   8.146  0.2054 -0.9677  0.2494
  721MOL0     C97236   3.482   5.203   8.184 -0.6058 -0.2983 -0.0523
  721MOL0     C97237   3.506   5.056   8.187  0.0798  0.3720 -0.8056
  721MOL0     C97238   3.506   5.001   8.321 -1.2577  0.4020  0.0821
  721MOL0     C97239   3.648   5.012   8.381  0.0551  0.1619 -0.9759
  721MOL0     C97240   3.663   5.002   8.538 -0.3004  0.9212 -0.0179
  721MOL0     C97241   3.561   4.900   8.580  0.2443  0.4885 -0.5781
  721MOL0     C97242   3.583   4.853   8.723  0.4864  0.0803 -0.2983
  721MOL0     C97243   3.489   4.754   8.782  0.7148  0.0817 -0.5455
  721MOL0    Cl97244   3.319   4.807   8.780 -0.0471 -0.3529  0.0509
  721MOL0     C97245   3.423   5.485   8.156  0.1251 -0.0909 -0.0288
  721MOL0     C97246   3.387   5.620   8.154 -0.5061 -0.1966  0.6720
  721MOL0     O97247   3.234   5.822   7.902 -0.1127  0.3823 -0.0651
  721MOL0     C97248   3.228   6.048   8.162 -0.1077 -0.4809  0.4731
  721MOL0     C97249   3.176   6.167   8.208  0.4980 -0.1638 -0.1072
  721MOL0     N97250   2.678   6.602   8.562  0.3795 -0.4252  0.3484
  721MOL0     N97251   2.619   6.647   8.668  0.9653  0.1366  0.6804
  721MOL0     C97252   2.256   6.820   9.789 -0.3324  0.2755  0.3111
  721MOL0     C97253   2.304   6.756   9.899  0.5730 -0.2389  1.2399
  721MOL0     C97254   2.479   6.507  10.202 -0.8618  0.5312 -0.2795
  721MOL0     C97255   2.367   6.444  10.251  0.0243  0.7337 -0.3014
  721MOL0     C97256   2.375   6.354  10.355  0.4912  0.1323  0.5698
  721MOL0     C97257   2.493   6.349  10.428 -0.8978 -0.6202 -0.1878
  721MOL0     O97258   2.512   6.256  10.523 -0.4429  0.3465  0.7099
  721MOL0     C97259   2.415   6.251  10.620 -0.2296 -0.4015  0.6811
  721MOL0     C97260   2.460   6.283  10.764  0.6038  0.1820  1.6827
  721MOL0     C97261   2.537   6.417  10.759 -1.1264 -0.1980 -0.5959
  721MOL0     C97262   2.553   6.448  10.910  0.4615 -0.4511 -0.7077
  721MOL0     C97263   2.660   6.545  10.929  0.1081  0.7761  0.5889
  721MOL0     C97264   2.740   6.634  10.922 -1.3522  1.0284  0.1347
  721MOL0     C97265   2.594   6.428  10.404 -0.1168 -0.2175  0.3587
  721MOL0     C97266   2.592   6.502  10.285 -0.8961 -0.0101 -0.3471
  721MOL0     C97267   2.727   6.542  10.230 -1.3600 -0.0983 -1.0225
  721MOL0     H97268   2.280   6.444   9.751  3.1359  1.1082  0.0370
  721MOL0     H97269   2.209   6.584   9.558  3.8846 -4.6019  0.6324
  721MOL0     H97270   2.177   7.016   9.448 -1.9341  0.1754  0.6438
  721MOL0     H97271   2.225   7.039   9.618  3.7438 -1.6118  1.4983
  721MOL0     H97272   2.423   6.898   9.571  2.7514  0.6078 -0.6347
  721MOL0     H97273   2.435   7.063   9.504  1.3922 -1.1583  2.6027
  721MOL0     H97274   2.368   6.970   9.276 -1.2551  0.0880 -0.1854
  721MOL0     H97275   2.334   6.821   9.358 -1.1041  1.3886  2.4212
  721MOL0     H97276   2.612   6.955   9.375 -0.4722  1.6847 -0.3193
  721MOL0     H97277   2.566   6.781   9.384 -4.6094 -2.8794 -2.5684
  721MOL0     H97278   2.532   6.744   9.157 -3.3944  2.2340  0.0404
  721MOL0     H97279   2.541   6.923   9.126 -1.7398 -0.4364  0.9959
  721MOL0     H97280   2.769   6.933   9.169  0.6063  0.3362 -0.2128
  721MOL0     H97281   2.788   6.768   9.185  1.2745  0.9544 -1.4436
  721MOL0     H97282   2.843   6.856   8.942  0.9626 -1.6327 -0.7078
  721MOL0     H97283   2.684   6.913   8.933  0.2232 -1.4052 -0.2909
  721MOL0     H97284   2.714   6.617   8.969 -3.1276  1.1444  4.3414
  721MOL0     H97285   2.571   6.719   8.911  0.6587  1.2541 -1.4793
  721MOL0     H97286   2.937   6.704   8.748  0.1166  0.6647 -0.3009
  721MOL0     H97287   2.894   6.640   8.380 -0.4908  2.7754  0.4752
  721MOL0     H97288   3.019   6.661   8.498 -0.4110 -1.1046 -2.0427
  721MOL0     H97289   3.072   6.438   8.449 -1.1310 -3.2152 -3.0524
  721MOL0     H97290   2.966   6.409   8.582 -1.9888  1.9798  2.1326
  721MOL0     H97291   2.790   6.342   8.398  1.2195 -0.2547  1.1481
  721MOL0     H97292   2.938   6.254   8.398  0.8456  0.3345  1.9698
  721MOL0     H97293   2.875   6.479   8.191 -1.4654  0.6166  2.2345
  721MOL0     H97294   2.863   6.305   8.163  4.0733 -0.5610 -1.0368
  721MOL0     H97295   2.983   6.255   7.929 -2.5541 -2.4459  1.1804
  721MOL0     H97296   3.047   6.025   7.871  1.8789  0.8868 -1.1911
  721MOL0     H97297   3.051   5.568   8.102 -0.4845  0.9121 -0.2756
  721MOL0     H97298   3.121   5.339   8.114 -0.0529  0.1900 -1.0385
  721MOL0     H97299   3.554   5.246   8.114 -2.4247 -0.0770 -1.8896
  721MOL0     H97300   3.487   5.249   8.283  2.6087  1.7470 -1.0246
  721MOL0     H97301   3.424   5.005   8.136  0.4548 -1.6823  0.5011
  721MOL0     H97302   3.599   5.034   8.135  0.6166 -1.3760  0.8113
  721MOL0     H97303   3.441   5.058   8.388  1.6547  3.2566  0.6956
  721MOL0     H97304   3.472   4.897   8.313  3.3854 -1.2172 -1.6057
  721MOL0     H97305   3.700   5.103   8.351 -1.2243  1.7276  1.2621
  721MOL0     H97306   3.704   4.923   8.350 -1.1554 -2.0807  2.6226
  721MOL0     H97307   3.631   5.090   8.593 -0.0604  1.5063 -0.8019
  721MOL0     H97308   3.763   4.975   8.575 -0.2713 -0.6778 -1.1131
  721MOL0     H97309   3.461   4.946   8.577 -1.2605 -2.5483 -1.5693
  721MOL0     H97310   3.565   4.812   8.515 -0.2449 -0.8118  1.0727
  721MOL0     H97311   3.589   4.946   8.779  3.9745 -1.2477  1.8375
  721MOL0     H97312   3.684   4.812   8.734  0.6944  1.0338  1.8372
  721MOL0     H97313   3.497   4.649   8.751 -0.7808 -0.8777  2.0488
  721MOL0     H97314   3.519   4.740   8.886 -3.5438 -0.7798  0.7465
  721MOL0     H97315   3.530   5.467   8.153  0.6259  2.5975 -0.8538
  721MOL0     H97316   3.472   5.685   8.174 -0.2261 -1.7228  5.9587
  721MOL0     H97317   3.321   6.004   8.197  1.4320  0.8051 -1.7738
  721MOL0     H97318   3.210   6.194   8.307  0.0322  2.9591 -0.7035
  721MOL0     H97319   2.240   6.926   9.806 -1.7713 -0.1589  1.9982
  721MOL0     H97320   2.325   6.816   9.987  3.1254  1.2892 -0.3067
  721MOL0     H97321   2.273   6.447  10.198  0.6965 -0.4282 -1.6173
  721MOL0     H97322   2.297   6.283  10.377  0.7314 -1.1221 -2.1693
  721MOL0     H97323   2.374   6.149  10.625 -0.6821 -0.2406  0.3223
  721MOL0     H97324   2.330   6.318  10.608 -2.8291 -3.2876  1.5605
  721MOL0     H97325   2.532   6.208  10.798  1.8105  1.5125  2.1800
  721MOL0     H97326   2.368   6.282  10.823  1.3254 -3.0493  2.9884
  721MOL0     H97327   2.481   6.497  10.710  0.8247  0.6877 -1.5226
  721MOL0     H97328   2.638   6.408  10.718  0.3386 -0.4861  2.7003
  721MOL0     H97329   2.462   6.485  10.959  1.2209 -0.9811  1.1875
  721MOL0     H97330   2.577   6.353  10.959 -3.0137 -1.6751 -1.1198
  721MOL0     H97331   2.819   6.706  10.911  0.4640 -0.7590  0.7903
  721MOL0     H97332   2.687   6.414  10.458  1.7522 -0.7619 -2.7468
  721MOL0     H97333   2.802   6.481  10.280 -3.1636 -1.0479  0.6291
  721MOL0     H97334   2.730   6.529  10.121  1.7893 -0.4841 -0.9806
  721MOL0     H97335   2.767   6.644  10.237  0.8817 -0.6407 -3.8063
  722MOL0     O97336   8.030  10.962   4.458  0.1993 -0.0912  0.2458
  722MOL0     C97337   8.045  11.025   4.563 -0.0767 -0.2092 -0.0550
  722MOL0     O97338   7.957  11.092   4.640  0.5972 -0.0667  0.2830
  722MOL0     C97339   7.832  11.108   4.600  0.2076 -0.4062 -0.8418
  722MOL0     C97340   7.734  10.997   4.585  0.4480 -0.2338  0.2006
  722MOL0     C97341   7.602  11.029   4.542 -0.7712 -0.6355  0.3397
  722MOL0     C97342   7.569  11.159   4.503  0.4112  0.6932 -0.4073
  722MOL0     O97343   7.442  11.170   4.466  0.2178 -1.1446 -0.0960
  722MOL0     C97344   7.422  11.220   4.327  0.0496 -0.5715  1.0825
  722MOL0     C97345   7.461  11.114   4.223  0.0543  0.5088  0.4809
  722MOL0     C97346   7.448  11.156   4.073  0.3686  0.0598 -0.0752
  722MOL0     C97347   7.422  11.029   3.996 -0.1249  0.7079  0.1550
  722MOL0     C97348   7.383  11.042   3.851 -0.0581 -0.1548 -1.1645
  722MOL0     C97349   7.266  11.147   3.819  0.5709  0.6202  0.6595
  722MOL0     C97350   7.241  11.153   3.665 -0.1023  0.2549 -0.2656
  722MOL0     C97351   7.311  11.264   3.588  0.3270 -0.6627  1.0993
  722MOL0     N97352   7.453  11.280   3.626  0.0371 -0.0212  0.0343
  722MOL0     C97353   7.566  11.210   3.576 -0.1899  0.1665 -1.1631
  722MOL0     C97354   7.668  11.279   3.618  0.4598 -0.2312  0.0630
  722MOL0     C97355   7.812  11.270   3.585 -1.1630  0.5485  0.0273
  722MOL0     C97356   7.873  11.131   3.621 -0.7594 -0.6628 -0.2763
  722MOL0     C97357   8.015  11.119   3.586 -0.8056  1.3205 -0.0544
  722MOL0     C97358   8.050  11.095   3.437  1.0364 -0.4190 -0.9251
  722MOL0     O97359   8.190  11.103   3.406 -0.0635 -0.2570 -0.2872
  722MOL0     C97360   8.229  11.105   3.277 -0.2790 -0.8638  0.3375
  722MOL0     C97361   8.195  10.999   3.191  0.1091 -0.0053 -1.0486
  722MOL0     C97362   8.269  10.984   3.072 -0.4298 -0.0295  0.7519
  722MOL0     C97363   8.347  11.083   3.014  0.7104  0.3447 -0.7032
  722MOL0     C97364   8.413  11.069   2.891 -0.4726  0.2348  0.3353
  722MOL0     O97365   8.452  10.946   2.859  0.0273  0.2516  0.2126
  722MOL0     C97366   8.479  10.910   2.722 -0.1015  0.0003 -0.5344
  722MOL0     C97367   8.412  10.959   2.615  0.5534 -0.0962 -0.1003
  722MOL0     C97368   8.441  10.898   2.490  1.0576 -0.6471  0.2247
  722MOL0     C97369   8.532  10.800   2.466 -0.3977  0.1890 -0.3828
  722MOL0     O97370   8.556  10.742   2.341  0.9797 -0.1462 -0.0084
  722MOL0     C97371   8.595  10.823   2.232  0.2796 -1.3115  0.4544
  722MOL0     C97372   8.520  10.778   2.098 -0.0078  0.4356 -0.2326
  722MOL0     C97373   8.582  10.640   2.047 -0.0466 -0.7021  0.8987
  722MOL0     C97374   8.585  10.527   2.144  0.6630 -0.7056  0.2793
  722MOL0     C97375   8.446  10.471   2.171 -0.9203  0.7145  0.7090
  722MOL0     C97376   8.449  10.364   2.280 -0.3515  0.3703  0.2122
  722MOL0     C97377   8.502  10.414   2.408 -0.3394 -0.0437  0.3134
  722MOL0     C97378   8.469  10.337   2.530 -0.1884 -0.6784 -0.3456
  722MOL0    Cl97379   8.568  10.384   2.669 -0.0640 -0.1880 -0.1781
  722MOL0     C97380   8.598  10.745   2.577 -0.7038 -0.4111 -0.3003
  722MOL0     C97381   8.579  10.803   2.704 -0.3850  0.1393 -0.3382
  722MOL0     O97382   8.430  11.177   2.828  0.2905  0.0367  0.1868
  722MOL0     C97383   8.356  11.196   3.099 -0.4896 -0.2095  0.4998
  722MOL0     C97384   8.313  11.200   3.230 -0.2310 -0.8807 -0.3608
  722MOL0     N97385   7.627  11.382   3.700 -0.0979 -0.6295 -0.0642
  722MOL0     N97386   7.495  11.382   3.707 -0.3469 -0.5331  0.7244
  722MOL0     C97387   7.657  11.263   4.519  0.5678  0.1957 -0.1331
  722MOL0     C97388   7.783  11.238   4.567 -0.7216  0.0085 -0.4878
  722MOL0     C97389   8.182  11.014   4.609  0.0769 -0.4160 -0.1496
  722MOL0     C97390   8.270  11.102   4.553 -0.3642  0.1826  0.6157
  722MOL0     C97391   8.407  11.077   4.571 -0.6157  0.1523 -0.6269
  722MOL0     C97392   8.455  10.973   4.661 -0.2787  0.7196 -0.4530
  722MOL0     O97393   8.587  10.945   4.694 -0.5666 -0.2943  1.0982
  722MOL0     C97394   8.686  11.024   4.642 -1.1294  0.6876  0.0738
  722MOL0     C97395   8.828  10.984   4.698 -0.0912 -1.0142  0.5332
  722MOL0     C97396   8.842  10.959   4.847  0.2881  0.3555  0.2252
  722MOL0     C97397   8.741  11.061   4.927  0.7401 -0.9066 -1.1212
  722MOL0     C97398   8.735  11.022   5.068 -0.0851  0.2861 -0.0468
  722MOL0     C97399   8.734  11.006   5.191  0.6617 -0.2966  0.0018
  722MOL0     C97400   8.352  10.902   4.725 -0.7930  0.5093  0.5689
  722MOL0     C97401   8.219  10.913   4.693  0.2766  0.7822 -0.0321
  722MOL0     C97402   8.121  10.812   4.744  0.3481 -0.3673 -0.5933
  722MOL0     H97403   7.781  10.901   4.599 -0.1643 -0.7035 -0.8805
  722MOL0     H97404   7.527  10.950   4.542 -1.3869 -0.0796  1.5281
  722MOL0     H97405   7.320  11.252   4.306 -0.6288 -2.8827  0.5437
  722MOL0     H97406   7.485  11.306   4.304  4.5556 -3.8031 -0.0897
  722MOL0     H97407   7.411  11.017   4.232  0.9946 -0.0244  0.0900
  722MOL0     H97408   7.561  11.072   4.231  0.5935  1.6299 -0.1484
  722MOL0     H97409   7.542  11.188   4.028  0.0553 -0.2823 -0.9938
  722MOL0     H97410   7.363  11.224   4.060 -0.3289 -0.8253 -0.2097
  722MOL0     H97411   7.507  10.961   3.988  1.4804  2.7266 -0.7430
  722MOL0     H97412   7.333  10.981   4.037 -0.2308  1.1010  0.3864
  722MOL0     H97413   7.473  11.072   3.797 -0.3801 -0.5081 -1.9134
  722MOL0     H97414   7.353  10.945   3.810 -0.6421 -0.3056 -0.4117
  722MOL0     H97415   7.168  11.117   3.855  0.6695 -0.2647  0.2067
  722MOL0     H97416   7.292  11.245   3.862  1.2260  1.0597 -0.6759
  722MOL0     H97417   7.138  11.170   3.633  0.4437 -1.2075 -3.0913
  722MOL0     H97418   7.272  11.058   3.619 -0.8696 -0.9159  1.5012
  722MOL0     H97419   7.311  11.244   3.480 -0.8773  1.7091  0.5951
  722MOL0     H97420   7.248  11.349   3.612  0.9847  0.7671 -1.8358
  722MOL0     H97421   7.564  11.125   3.510  2.0735 -0.6175 -0.3085
  722MOL0     H97422   7.816  11.294   3.478 -0.9655  1.3491  0.2126
  722MOL0     H97423   7.855  11.345   3.652  1.9163 -0.8631 -0.1755
  722MOL0     H97424   7.869  11.134   3.730  2.1952 -0.3368 -0.0893
  722MOL0     H97425   7.813  11.052   3.575  0.6421 -1.1314 -1.3981
  722MOL0     H97426   8.052  11.031   3.639 -1.5770  1.5435  0.8647
  722MOL0     H97427   8.069  11.205   3.626 -1.7316  0.3194  3.7664
  722MOL0     H97428   7.994  11.159   3.368 -0.8114 -1.4893 -0.5019
  722MOL0     H97429   8.002  11.002   3.404  0.8107 -0.1469 -1.3786
  722MOL0     H97430   8.114  10.933   3.220 -0.0439 -1.2304 -3.8955
  722MOL0     H97431   8.254  10.888   3.025  0.6511  0.1545 -0.0036
  722MOL0     H97432   8.339  11.039   2.618 -1.1399 -1.2952 -3.9052
  722MOL0     H97433   8.393  10.945   2.405  1.1692  0.4207  0.7421
  722MOL0     H97434   8.556  10.924   2.243  0.9202 -1.2216  2.2132
  722MOL0     H97435   8.702  10.818   2.212  0.1192 -1.9826 -0.2575
  722MOL0     H97436   8.414  10.763   2.119  0.3001 -1.5644  0.1301
  722MOL0     H97437   8.540  10.859   2.027  1.3189  2.9929  2.7994
  722MOL0     H97438   8.521  10.599   1.966  0.0668  1.2211 -0.2272
  722MOL0     H97439   8.683  10.647   2.006 -0.6259 -0.2973 -0.5262
  722MOL0     H97440   8.642  10.553   2.233 -0.6433  0.0140  0.9489
  722MOL0     H97441   8.641  10.442   2.104  0.4915 -1.2920  1.2670
  722MOL0     H97442   8.415  10.435   2.073 -0.1530  0.8279  0.4159
  722MOL0     H97443   8.375  10.548   2.202 -1.6932 -0.5142  2.0805
  722MOL0     H97444   8.344  10.333   2.285 -0.1073 -0.8291 -1.2343
  722MOL0     H97445   8.509  10.275   2.258  0.2120  0.1171  2.5036
  722MOL0     H97446   8.473  10.519   2.416 -2.5076 -0.5148 -0.6102
  722MOL0     H97447   8.611  10.421   2.401 -0.2433 -0.9632  0.8096
  722MOL0     H97448   8.367  10.353   2.566  1.1895  4.5462  2.3145
  722MOL0     H97449   8.476  10.229   2.511  2.3573 -0.8123  0.8385
  722MOL0     H97450   8.666  10.666   2.549 -0.7405 -0.6723  0.3279
  722MOL0     H97451   8.633  10.765   2.791 -2.8840 -2.6806  0.1362
  722MOL0     H97452   8.415  11.280   3.063 -1.2109 -0.1821 -0.6806
  722MOL0     H97453   8.343  11.271   3.307 -0.2823 -1.6402  0.3831
  722MOL0     H97454   7.609  11.358   4.497 -0.2819 -0.6687 -2.3604
  722MOL0     H97455   7.846  11.326   4.574 -0.4600 -0.1982 -0.1957
  722MOL0     H97456   8.216  11.174   4.492 -1.6286 -0.3875  1.0265
  722MOL0     H97457   8.481  11.137   4.520  1.5183  0.5496  2.6518
  722MOL0     H97458   8.667  11.125   4.676 -1.0838  2.1401 -3.6974
  722MOL0     H97459   8.684  11.027   4.532  0.8447 -1.5488 -0.1252
  722MOL0     H97460   8.902  11.054   4.658 -1.2705 -0.0515 -0.0069
  722MOL0     H97461   8.863  10.899   4.638  1.4635  0.5579 -0.9155
  722MOL0     H97462   8.942  10.970   4.890  0.2719 -1.0295  0.6694
  722MOL0     H97463   8.803  10.860   4.874 -1.4617  1.7261  3.2397
  722MOL0     H97464   8.788  11.160   4.929  1.4543 -1.2107  1.1895
  722MOL0     H97465   8.638  11.057   4.890  0.6176 -1.1155 -0.7696
  722MOL0     H97466   8.737  10.998   5.298 -2.5750 -1.8847  0.0816
  722MOL0     H97467   8.389  10.835   4.802 -0.2406 -0.4087 -0.4574
  722MOL0     H97468   8.060  10.774   4.661 -0.3728  4.3312 -2.5611
  722MOL0     H97469   8.164  10.731   4.803 -2.3675  0.1416  2.3458
  722MOL0     H97470   8.062  10.865   4.819 -1.6884  0.3481 -2.5903
  723MOL0     O97471  10.123   7.600   8.668 -0.1461 -0.6267  0.4950
  723MOL0     C97472  10.216   7.655   8.602  0.3218 -0.3497 -0.2439
  723MOL0     O97473  10.238   7.635   8.474  0.5718 -0.3289 -0.1041
  723MOL0     C97474  10.213   7.515   8.413  0.2413 -0.4509  0.0783
  723MOL0     C97475  10.226   7.397   8.477 -0.3488 -0.0247 -0.0991
  723MOL0     C97476  10.216   7.275   8.415  0.4120 -0.0268 -0.7645
  723MOL0     C97477  10.174   7.275   8.282 -1.3088 -0.3296  1.4515
  723MOL0     O97478  10.162   7.163   8.200 -0.1981 -1.2408  0.2644
  723MOL0     C97479  10.143   7.039   8.263  0.9808 -0.3075  0.6070
  723MOL0     C97480  10.114   6.937   8.156 -0.1760  0.6409  0.1147
  723MOL0     C97481   9.990   6.959   8.072 -0.2128  0.7562  0.4417
  723MOL0     C97482   9.954   6.819   8.014 -0.0218 -0.3033 -0.4093
  723MOL0     C97483   9.820   6.819   7.944  0.4364 -0.5536 -0.0257
  723MOL0     C97484   9.807   6.890   7.808 -0.1297  0.1652  0.2570
  723MOL0     C97485   9.706   6.815   7.721  0.6996 -0.1041  0.0255
  723MOL0     C97486   9.669   6.879   7.595  0.0757 -0.2413 -1.3170
  723MOL0     N97487   9.585   6.998   7.588 -0.2288 -0.5543 -0.0138
  723MOL0     C97488   9.460   7.017   7.652  0.3525  0.4538 -0.4511
  723MOL0     C97489   9.420   7.142   7.618 -0.7752  0.7197 -0.3412
  723MOL0     C97490   9.281   7.195   7.636  1.2394 -0.1147 -0.5055
  723MOL0     C97491   9.262   7.265   7.773  0.2089 -0.6473 -0.9110
  723MOL0     C97492   9.132   7.334   7.798 -0.6023  0.6650  0.2336
  723MOL0     C97493   9.105   7.447   7.709  0.2652  0.2918 -0.2356
  723MOL0     O97494   8.967   7.497   7.727 -0.3302  0.2951 -0.6429
  723MOL0     C97495   8.930   7.599   7.650  0.3887 -0.3061 -0.0191
  723MOL0     C97496   9.004   7.665   7.546 -0.2175  0.0949  1.0421
  723MOL0     C97497   8.949   7.770   7.475 -0.0499  0.4406  0.2427
  723MOL0     C97498   8.814   7.809   7.487  0.7429 -0.4299 -0.7736
  723MOL0     C97499   8.748   7.908   7.398  0.2488  0.5751  0.3952
  723MOL0     O97500   8.812   8.024   7.363 -0.1564 -0.1284 -0.8463
  723MOL0     C97501   8.746   8.105   7.272 -0.5325 -0.3518  0.4439
  723MOL0     C97502   8.653   8.200   7.323 -0.0255  0.1797 -1.0994
  723MOL0     C97503   8.584   8.289   7.246 -0.2168  0.1924 -0.1934
  723MOL0     C97504   8.611   8.287   7.107 -0.7961 -1.6297 -0.6396
  723MOL0     O97505   8.538   8.376   7.034 -0.6839  0.1870  0.6101
  723MOL0     C97506   8.598   8.409   6.906 -0.0362 -0.0327  0.5086
  723MOL0     C97507   8.543   8.544   6.863  0.5014 -0.1413  0.1191
  723MOL0     C97508   8.396   8.521   6.846  0.6481 -0.6940  0.1567
  723MOL0     C97509   8.325   8.628   6.757 -0.2751  0.1509 -0.2598
  723MOL0     C97510   8.355   8.772   6.804 -0.1057  0.0063 -0.3074
  723MOL0     C97511   8.266   8.867   6.726  0.6326  0.1241  0.9203
  723MOL0     C97512   8.288   9.013   6.748  0.6128 -1.2462  0.0172
  723MOL0     C97513   8.257   9.050   6.898  0.9409  0.0788 -0.3265
  723MOL0    Cl97514   8.086   9.064   6.935  0.1168  0.1882  0.0155
  723MOL0     C97515   8.703   8.197   7.056 -0.4672 -0.2438  0.4537
  723MOL0     C97516   8.775   8.103   7.135 -0.4906  0.3452 -0.4641
  723MOL0     O97517   8.637   7.865   7.356 -0.4281  0.2249 -1.7333
  723MOL0     C97518   8.751   7.759   7.602 -0.1870  1.9636  0.3557
  723MOL0     C97519   8.804   7.658   7.685  0.9451 -0.6633  0.5695
  723MOL0     N97520   9.511   7.192   7.533 -0.8877 -0.7114  0.2516
  723MOL0     N97521   9.609   7.112   7.523  0.5800 -0.0561 -0.1979
  723MOL0     C97522  10.161   7.391   8.211 -0.2600  0.2090 -0.2692
  723MOL0     C97523  10.187   7.509   8.282  0.0088  0.4828  0.7555
  723MOL0     C97524  10.316   7.751   8.660 -0.0885  0.3245 -0.0719
  723MOL0     C97525  10.429   7.700   8.727 -0.7403 -0.2223 -0.1146
  723MOL0     C97526  10.528   7.784   8.790  0.2052 -2.2707  0.8841
  723MOL0     C97527  10.494   7.917   8.796 -0.5803  0.8421 -0.0135
  723MOL0     O97528  10.554   8.015   8.870 -0.8314 -0.1419 -1.2375
  723MOL0     C97529  10.698   8.016   8.882 -0.1510 -0.6352 -0.8991
  723MOL0     C97530  10.745   8.000   9.040 -0.2242 -0.2291  0.3302
  723MOL0     C97531  10.894   8.022   9.052 -0.6308 -0.3036  0.0917
  723MOL0     C97532  10.964   8.000   9.186  0.0066  0.2766  0.3904
  723MOL0     C97533  10.929   7.871   9.242 -0.1043 -0.1869  0.5347
  723MOL0     C97534  10.900   7.767   9.292  1.1053 -0.1382  0.5118
  723MOL0     C97535  10.374   7.971   8.741 -0.4437 -0.2363  0.0128
  723MOL0     C97536  10.291   7.891   8.665  0.3159  0.3876  0.4235
  723MOL0     C97537  10.174   7.956   8.595 -0.1889  0.2559  0.1210
  723MOL0     H97538  10.251   7.399   8.582  0.4150 -0.2345 -0.2710
  723MOL0     H97539  10.230   7.179   8.463  3.0526  0.5616 -0.2070
  723MOL0     H97540  10.225   7.013   8.331  0.9623  1.2918  1.2761
  723MOL0     H97541  10.052   7.042   8.323  1.4292  0.4106  1.2727
  723MOL0     H97542  10.091   6.847   8.213  0.1541 -0.6571 -1.6905
  723MOL0     H97543  10.197   6.919   8.086 -2.3482 -2.8297 -1.8282
  723MOL0     H97544   9.997   7.036   7.995  0.8581 -1.0363 -1.3427
  723MOL0     H97545   9.913   6.975   8.148  1.3243 -3.0234  3.0690
  723MOL0     H97546  10.025   6.769   7.949 -2.7058 -2.4677 -1.8894
  723MOL0     H97547   9.944   6.751   8.099  1.4154 -0.8739 -0.6687
  723MOL0     H97548   9.792   6.714   7.942  4.5989 -1.8406  0.5162
  723MOL0     H97549   9.746   6.883   7.994 -1.6746  0.7811 -4.3990
  723MOL0     H97550   9.791   6.996   7.826  3.8768  1.0296 -0.3182
  723MOL0     H97551   9.894   6.868   7.745 -1.9804 -1.1850 -2.0301
  723MOL0     H97552   9.614   6.805   7.780 -0.1950  1.2401 -1.0590
  723MOL0     H97553   9.755   6.719   7.701  0.0461 -0.4799  0.1882
  723MOL0     H97554   9.761   6.901   7.540 -1.0303 -0.9993 -3.6101
  723MOL0     H97555   9.611   6.813   7.530  1.0667 -1.5995 -0.8716
  723MOL0     H97556   9.393   6.942   7.693  0.9032 -0.3793 -1.0299
  723MOL0     H97557   9.263   7.264   7.553 -0.6466 -0.8346 -0.7531
  723MOL0     H97558   9.211   7.111   7.637  0.1439  0.7715 -0.5330
  723MOL0     H97559   9.282   7.193   7.853 -0.8403 -0.4381 -0.4472
  723MOL0     H97560   9.341   7.342   7.779 -0.2789  0.1519 -3.4388
  723MOL0     H97561   9.142   7.384   7.895  0.5390  0.7759  0.0783
  723MOL0     H97562   9.054   7.258   7.793 -0.6642  0.7686 -0.3602
  723MOL0     H97563   9.131   7.420   7.607  1.3853 -1.5723  0.4769
  723MOL0     H97564   9.172   7.525   7.747  0.9159  0.6943 -2.1171
  723MOL0     H97565   9.094   7.635   7.493 -0.1103  0.7698  0.8275
  723MOL0     H97566   8.992   7.816   7.386  1.5087 -1.5275 -0.0781
  723MOL0     H97567   8.635   8.187   7.429 -2.1360 -2.1278 -1.6726
  723MOL0     H97568   8.503   8.346   7.290  0.3713  1.6691 -0.9478
  723MOL0     H97569   8.707   8.421   6.903 -0.2856  3.0199 -1.8591
  723MOL0     H97570   8.594   8.327   6.834  0.8706  2.4939 -2.6750
  723MOL0     H97571   8.555   8.624   6.937  0.6080  0.1539 -0.2127
  723MOL0     H97572   8.596   8.580   6.774 -0.7170  2.5678  0.3712
  723MOL0     H97573   8.380   8.433   6.783 -1.3389  0.8227 -1.5953
  723MOL0     H97574   8.359   8.513   6.948  1.7140 -1.3881  0.5087
  723MOL0     H97575   8.219   8.605   6.749  0.0112 -1.0322 -0.8287
  723MOL0     H97576   8.365   8.630   6.655 -1.2213  0.8830 -0.6269
  723MOL0     H97577   8.458   8.794   6.776 -0.6986 -0.2709 -2.9780
  723MOL0     H97578   8.341   8.785   6.912 -1.4030 -0.4010 -0.4086
  723MOL0     H97579   8.278   8.860   6.618  1.2173 -0.9828  1.0414
  723MOL0     H97580   8.161   8.842   6.746 -0.7133  4.0561 -0.2537
  723MOL0     H97581   8.228   9.074   6.680  0.5171 -1.2133  0.1336
  723MOL0     H97582   8.395   9.031   6.730  0.8432 -1.0357  1.4641
  723MOL0     H97583   8.310   8.977   6.961  1.9446 -0.0959 -1.3451
  723MOL0     H97584   8.296   9.150   6.921 -1.4561  0.5957  1.9997
  723MOL0     H97585   8.737   8.209   6.954 -0.0527  1.5842  0.7651
  723MOL0     H97586   8.852   8.036   7.098 -1.1520  0.4685 -2.1243
  723MOL0     H97587   8.661   7.812   7.631 -0.9124  0.7180  0.4628
  723MOL0     H97588   8.755   7.644   7.781  0.5298 -0.2649  0.4219
  723MOL0     H97589  10.146   7.393   8.103 -1.3196  1.4681 -0.1196
  723MOL0     H97590  10.193   7.596   8.218 -1.6481  1.0623  1.3335
  723MOL0     H97591  10.448   7.593   8.722 -0.5440 -0.1994  0.0894
  723MOL0     H97592  10.612   7.730   8.832  1.2265 -2.8653 -1.6832
  723MOL0     H97593  10.739   8.106   8.835 -3.5724  0.3903 -2.2859
  723MOL0     H97594  10.751   7.942   8.822  2.7765  0.6914 -0.1003
  723MOL0     H97595  10.732   7.898   9.077  1.9601  0.3982  3.1954
  723MOL0     H97596  10.688   8.083   9.084 -3.3187 -0.3923 -2.9288
  723MOL0     H97597  10.915   8.129   9.045  0.0418 -0.4335  0.0574
  723MOL0     H97598  10.939   7.971   8.967 -2.9574  0.3579 -1.6458
  723MOL0     H97599  11.069   8.003   9.155 -1.5377  1.8278 -6.3289
  723MOL0     H97600  10.937   8.072   9.263 -0.1632 -0.1438  0.7253
  723MOL0     H97601  10.878   7.676   9.343 -4.5430  1.5231  1.7394
  723MOL0     H97602  10.354   8.073   8.773 -0.3348 -0.6222  1.3794
  723MOL0     H97603  10.204   8.048   8.544  0.2956 -0.1526 -0.3410
  723MOL0     H97604  10.111   7.895   8.529  1.1067  1.1293 -2.0490
  723MOL0     H97605  10.104   7.988   8.673 -1.7183  0.2403 -1.1942
  724MOL0     O97606   5.474   9.098   5.788 -0.1662 -0.0281  0.0527
  724MOL0     C97607   5.592   9.062   5.786  0.6968  0.0876  0.1838
  724MOL0     O97608   5.653   8.980   5.687 -0.0777 -0.3923  0.3615
  724MOL0     C97609   5.589   8.949   5.568 -0.5010  0.5026  0.2945
  724MOL0     C97610   5.577   9.043   5.460  0.3339  0.6971 -0.0318
  724MOL0     C97611   5.507   9.006   5.350  0.7598 -0.6443  0.3624
  724MOL0     C97612   5.445   8.887   5.333 -0.1223 -0.9718  0.4432
  724MOL0     O97613   5.386   8.830   5.220  0.3732 -0.0307 -0.2289
  724MOL0     C97614   5.330   8.917   5.112 -0.2683 -0.9468  0.1480
  724MOL0     C97615   5.199   8.985   5.153  0.1689 -0.1662 -0.2348
  724MOL0     C97616   5.088   8.875   5.171  0.0266  0.0413  0.4411
  724MOL0     C97617   4.952   8.936   5.208 -0.0415  0.8295  0.9980
  724MOL0     C97618   4.826   8.874   5.135  0.0426  0.3298 -0.1667
  724MOL0     C97619   4.712   8.959   5.182  0.1914 -0.0563  0.5801
  724MOL0     C97620   4.566   8.893   5.166 -0.5404 -0.3371 -1.6804
  724MOL0     C97621   4.505   8.890   5.027  0.3819 -0.1082 -0.4779
  724MOL0     N97622   4.561   8.798   4.939 -0.5017  0.3422  0.3028
  724MOL0     C97623   4.612   8.834   4.822 -0.1447 -0.6493  0.2902
  724MOL0     C97624   4.652   8.724   4.766  0.8490  0.9252  0.1718
  724MOL0     C97625   4.727   8.716   4.639 -0.2488 -0.3821  0.2171
  724MOL0     C97626   4.882   8.750   4.661  0.2878 -1.0493 -0.5481
  724MOL0     C97627   4.949   8.787   4.526  0.0981 -0.9593  0.8982
  724MOL0     C97628   4.934   8.933   4.491 -0.4620 -0.0541  0.0953
  724MOL0     O97629   4.795   8.971   4.466  0.8244 -0.1035 -0.0275
  724MOL0     C97630   4.777   9.109   4.469 -0.1273  0.3102 -0.0009
  724MOL0     C97631   4.877   9.205   4.472  0.1351  0.6032 -0.5979
  724MOL0     C97632   4.832   9.344   4.466 -1.0075 -0.1774 -0.2356
  724MOL0     C97633   4.702   9.384   4.464  1.1327 -0.0164  0.0843
  724MOL0     C97634   4.664   9.531   4.477  0.7977  0.5953  0.0297
  724MOL0     O97635   4.769   9.619   4.450  0.3127  0.1206 -0.0829
  724MOL0     C97636   4.777   9.749   4.495  0.3993  0.0205  0.7785
  724MOL0     C97637   4.685   9.805   4.586 -0.0653 -0.3213  0.0083
  724MOL0     C97638   4.707   9.939   4.630 -0.1054  0.1175 -0.1835
  724MOL0     C97639   4.822  10.012   4.584  0.0903 -0.1439 -0.4273
  724MOL0     O97640   4.841  10.133   4.641 -0.6541  0.6059 -0.0740
  724MOL0     C97641   4.925  10.235   4.576  0.1112 -0.4359  0.3932
  724MOL0     C97642   4.946  10.348   4.681  0.0110  0.6469  0.4832
  724MOL0     C97643   5.000  10.472   4.612 -0.3269 -0.1799  1.0207
  724MOL0     C97644   4.904  10.555   4.528 -0.2250 -1.1033 -0.3525
  724MOL0     C97645   4.966  10.689   4.483 -0.7028  0.3451 -0.3092
  724MOL0     C97646   4.857  10.761   4.408  0.4715  0.8298  0.1512
  724MOL0     C97647   4.913  10.856   4.303  0.6769 -0.1786 -0.6404
  724MOL0     C97648   5.006  10.963   4.357  0.0095 -0.3168 -0.4683
  724MOL0    Cl97649   5.011  11.100   4.246  0.1974 -0.3863 -0.0912
  724MOL0     C97650   4.898   9.959   4.482 -0.5608 -0.3337 -0.5204
  724MOL0     C97651   4.882   9.827   4.442  0.8417 -0.4359  0.1791
  724MOL0     O97652   4.550   9.554   4.522 -0.5141 -0.1818 -0.4944
  724MOL0     C97653   4.604   9.285   4.485 -1.2139  0.2472 -0.6432
  724MOL0     C97654   4.648   9.150   4.473  0.1763 -0.3189 -0.6433
  724MOL0     N97655   4.638   8.617   4.854  0.3619  0.4839  0.4075
  724MOL0     N97656   4.576   8.662   4.958  0.6074  0.0606  0.2532
  724MOL0     C97657   5.451   8.792   5.440 -0.7325 -0.5469  1.0349
  724MOL0     C97658   5.523   8.827   5.554 -0.0671  0.0802 -0.5011
  724MOL0     C97659   5.679   9.140   5.875 -0.7187 -0.0727  0.4393
  724MOL0     C97660   5.720   9.265   5.843 -0.5624  1.2647 -0.4510
  724MOL0     C97661   5.828   9.323   5.904  0.6906  0.1644 -0.1880
  724MOL0     C97662   5.884   9.268   6.022 -0.4910  0.3605  0.3713
  724MOL0     O97663   5.999   9.311   6.092  0.3097 -0.2521  0.3852
  724MOL0     C97664   6.059   9.437   6.049  0.3062 -0.7421  0.4766
  724MOL0     C97665   6.170   9.424   5.940  0.8355 -0.3041 -0.1305
  724MOL0     C97666   6.298   9.348   5.992  0.5119 -0.8755  0.6137
  724MOL0     C97667   6.416   9.329   5.881  1.0097 -0.3749 -0.5319
  724MOL0     C97668   6.508   9.439   5.866 -0.1389 -0.8103  0.2790
  724MOL0     C97669   6.592   9.532   5.859  0.2627 -0.1230  0.0936
  724MOL0     C97670   5.835   9.139   6.059 -1.2456 -0.1848 -0.2798
  724MOL0     C97671   5.733   9.071   5.986 -0.5527 -1.2970  0.1749
  724MOL0     C97672   5.677   8.940   6.043  0.4866  0.3080  0.6463
  724MOL0     H97673   5.623   9.141   5.466 -3.6958  2.8154 -0.4993
  724MOL0     H97674   5.520   9.078   5.270 -1.4273 -1.3159 -0.6690
  724MOL0     H97675   5.409   8.987   5.081 -0.0820  0.0295  2.6345
  724MOL0     H97676   5.309   8.863   5.019  3.6566  1.9142 -2.7692
  724MOL0     H97677   5.159   9.059   5.083  0.6592  0.1307 -0.2044
  724MOL0     H97678   5.218   9.035   5.248  0.3886  0.7402 -0.7416
  724MOL0     H97679   5.113   8.811   5.256 -0.8516 -2.1865 -0.8587
  724MOL0     H97680   5.090   8.818   5.077  0.7222  0.7763  0.0029
  724MOL0     H97681   4.950   8.914   5.315  0.8818  0.6902  0.9923
  724MOL0     H97682   4.944   9.039   5.171 -0.8738  0.3322 -0.2978
  724MOL0     H97683   4.836   8.880   5.026 -3.2638 -0.0121 -0.5851
  724MOL0     H97684   4.798   8.772   5.161  0.3836  0.9002  2.8239
  724MOL0     H97685   4.732   9.003   5.280  0.6415 -0.5043  0.6928
  724MOL0     H97686   4.713   9.047   5.117 -1.4509  1.3279  2.3001
  724MOL0     H97687   4.489   8.947   5.221 -1.6739 -1.0903 -2.4691
  724MOL0     H97688   4.563   8.797   5.220 -0.1751 -1.3194 -3.3419
  724MOL0     H97689   4.398   8.865   5.027 -0.1926  2.0931 -0.9199
  724MOL0     H97690   4.502   8.993   4.990  1.5489  0.4668  0.9139
  724MOL0     H97691   4.622   8.939   4.795 -1.7787 -0.6801 -0.5746
  724MOL0     H97692   4.724   8.611   4.610  5.2365 -1.0745  1.1421
  724MOL0     H97693   4.682   8.784   4.565  0.5497 -0.9861 -0.8573
  724MOL0     H97694   4.877   8.831   4.735 -0.9490 -0.4873 -1.2119
  724MOL0     H97695   4.926   8.658   4.700  3.7196 -1.2615 -4.3332
  724MOL0     H97696   4.922   8.716   4.449 -2.5807  0.4137  0.4636
  724MOL0     H97697   5.058   8.775   4.534 -0.0634 -2.2125  1.3140
  724MOL0     H97698   4.993   8.967   4.405  1.9909  1.2583  2.1505
  724MOL0     H97699   4.973   8.998   4.570 -1.8879 -0.5874  1.2770
  724MOL0     H97700   4.983   9.180   4.477 -0.0014  0.0320 -0.5752
  724MOL0     H97701   4.913   9.417   4.474 -0.0950 -1.1747 -0.1218
  724MOL0     H97702   4.597   9.762   4.634 -0.9737  2.7956  1.4031
  724MOL0     H97703   4.654   9.996   4.705 -0.4691 -2.5492  1.7105
  724MOL0     H97704   5.023  10.190   4.554 -1.2827 -4.3312  1.3657
  724MOL0     H97705   4.876  10.267   4.484  3.7571  0.3123 -1.4736
  724MOL0     H97706   4.846  10.365   4.722  0.1937  0.8196  0.8626
  724MOL0     H97707   5.006  10.316   4.767 -2.3813 -4.5148  0.6620
  724MOL0     H97708   5.041  10.526   4.698 -0.9301 -2.3524  2.7768
  724MOL0     H97709   5.085  10.434   4.554 -0.0886 -1.1212  1.9426
  724MOL0     H97710   4.816  10.578   4.589  1.0787  2.6770  0.3598
  724MOL0     H97711   4.866  10.491   4.448 -1.4882 -3.2429  1.8057
  724MOL0     H97712   5.038  10.651   4.409 -0.9918  0.1329 -0.4810
  724MOL0     H97713   5.013  10.734   4.571 -0.0719  0.6035 -0.7637
  724MOL0     H97714   4.798  10.680   4.364 -0.2285  1.4544 -0.0891
  724MOL0     H97715   4.794  10.814   4.480  0.5770  0.2572  0.6705
  724MOL0     H97716   4.834  10.920   4.261  0.9093  0.9552  0.5637
  724MOL0     H97717   4.964  10.806   4.220 -1.4564  1.2096 -2.9478
  724MOL0     H97718   4.986  11.000   4.459  2.8718  1.6894 -0.5065
  724MOL0     H97719   5.104  10.917   4.345 -0.6217 -1.0780 -3.2899
  724MOL0     H97720   4.981  10.013   4.439 -2.6092  3.3814 -0.1872
  724MOL0     H97721   4.927   9.785   4.353 -3.2848  0.1385 -2.4720
  724MOL0     H97722   4.499   9.310   4.495 -1.3687  0.9407 -3.1717
  724MOL0     H97723   4.579   9.068   4.487 -0.7321  0.6926  1.1724
  724MOL0     H97724   5.412   8.692   5.425 -1.5091 -0.0253 -0.6269
  724MOL0     H97725   5.531   8.756   5.635 -1.9339  2.0650  1.5489
  724MOL0     H97726   5.668   9.326   5.769 -0.1254  3.7964  1.2335
  724MOL0     H97727   5.852   9.424   5.874 -3.0298  1.1780 -0.2347
  724MOL0     H97728   6.106   9.489   6.134 -0.3669  1.3631 -0.3655
  724MOL0     H97729   5.975   9.503   6.025 -1.3776 -2.5661  1.1127
  724MOL0     H97730   6.193   9.529   5.920 -0.2048 -0.3237 -1.6058
  724MOL0     H97731   6.133   9.374   5.851 -0.1339  2.2145 -1.2487
  724MOL0     H97732   6.269   9.249   6.030  2.3183 -1.0946  1.5904
  724MOL0     H97733   6.346   9.409   6.070 -1.5026  1.4398  0.1578
  724MOL0     H97734   6.462   9.232   5.901 -2.3026 -1.7717  0.9805
  724MOL0     H97735   6.375   9.322   5.780  0.2184  0.4175 -0.2782
  724MOL0     H97736   6.651   9.621   5.851  0.7916  0.0525  4.1176
  724MOL0     H97737   5.891   9.089   6.137  0.6300 -1.4039 -2.2885
  724MOL0     H97738   5.651   8.865   5.967 -1.3917  0.5229  1.0375
  724MOL0     H97739   5.739   8.887   6.116 -1.0272  0.1085  1.8333
  724MOL0     H97740   5.586   8.971   6.094  0.3431  1.4286 -0.2560
  725MOL0     O97741   5.475   4.207   0.125  0.2531  0.0271 -0.6034
  725MOL0     C97742   5.399   4.152   0.212  0.1632  0.7736  0.2108
  725MOL0     O97743   5.273   4.192   0.225  0.1385 -0.5039  0.1618
  725MOL0     C97744   5.201   4.228   0.112  1.1738 -0.3603 -0.3546
  725MOL0     C97745   5.225   4.349   0.043  0.6657  0.0776  1.0272
  725MOL0     C97746   5.145   4.399  -0.053 -0.5056  1.1450  0.3519
  725MOL0     C97747   5.036   4.320  -0.099 -0.8087 -0.3192  0.5313
  725MOL0     O97748   4.950   4.357  -0.200  0.3106 -0.5173  0.2459
  725MOL0     C97749   4.940   4.505  -0.212 -0.5145 -0.3479 -0.4199
  725MOL0     C97750   5.034   4.558  -0.328 -0.6538 -0.0782 -0.5124
  725MOL0     C97751   4.976   4.577  -0.460 -1.1028  0.0787 -0.3663
  725MOL0     C97752   5.012   4.480  -0.568 -0.4773  0.4389  0.8912
  725MOL0     C97753   4.962   4.549  -0.697  0.1607  0.3751 -0.0784
  725MOL0     C97754   4.995   4.467  -0.816 -0.4281  0.2567  0.0399
  725MOL0     C97755   4.941   4.508  -0.958 -0.6852  0.3228 -0.6843
  725MOL0     C97756   4.992   4.425  -1.072  0.4831 -0.4270 -0.3343
  725MOL0     N97757   4.918   4.470  -1.190 -0.6971  0.2959 -0.2767
  725MOL0     C97758   4.847   4.393  -1.285 -0.1394  0.1493 -0.2432
  725MOL0     C97759   4.806   4.478  -1.373  0.1237 -1.1397  0.1396
  725MOL0     C97760   4.725   4.442  -1.494 -0.5084  1.2178 -0.8621
  725MOL0     C97761   4.793   4.393  -1.615 -0.3477  1.2160  0.8716
  725MOL0     C97762   4.678   4.338  -1.711 -0.1684  0.1964  0.0002
  725MOL0     C97763   4.758   4.271  -1.832 -0.0178  0.0809 -1.2046
  725MOL0     O97764   4.864   4.358  -1.882  0.1006  0.5553  0.1544
  725MOL0     C97765   4.976   4.296  -1.924 -0.2978 -1.0552  0.0863
  725MOL0     C97766   5.089   4.367  -1.889 -0.1602 -0.5344 -0.6833
  725MOL0     C97767   5.213   4.325  -1.949 -0.5715 -0.4832 -0.4952
  725MOL0     C97768   5.206   4.221  -2.048  0.1011 -0.0477 -0.0594
  725MOL0     C97769   5.331   4.177  -2.121 -0.5647 -0.4902 -0.1836
  725MOL0     O97770   5.315   4.070  -2.211  0.1451  0.7084  0.0564
  725MOL0     C97771   5.414   4.038  -2.302 -1.4323 -0.4636  0.0040
  725MOL0     C97772   5.467   4.129  -2.389 -0.3342 -0.5824  0.5872
  725MOL0     C97773   5.570   4.097  -2.488  0.5706  0.1922 -0.3617
  725MOL0     C97774   5.626   3.969  -2.480  0.3238 -0.3351 -0.0112
  725MOL0     O97775   5.718   3.921  -2.577  0.4477  0.6377  0.3061
  725MOL0     C97776   5.782   4.007  -2.678 -0.2067  0.1130  0.2119
  725MOL0     C97777   5.892   3.946  -2.756 -0.6430  0.4885  0.1385
  725MOL0     C97778   6.010   3.944  -2.657  0.3598  1.1986 -0.0462
  725MOL0     C97779   6.118   4.043  -2.700 -0.6066  0.0761 -0.6694
  725MOL0     C97780   6.247   4.037  -2.613  0.2378  0.8804  0.0934
  725MOL0     C97781   6.371   4.100  -2.673  0.2257 -0.4356 -0.3846
  725MOL0     C97782   6.355   4.246  -2.726 -0.6102  0.6354  0.1927
  725MOL0     C97783   6.488   4.303  -2.763 -0.3706  1.1718 -0.8008
  725MOL0    Cl97784   6.547   4.253  -2.915  0.0672  0.1230  0.6330
  725MOL0     C97785   5.580   3.877  -2.379 -0.1593 -0.4924  1.0731
  725MOL0     C97786   5.472   3.913  -2.302  0.9701 -0.3924  0.0658
  725MOL0     O97787   5.437   4.244  -2.116 -0.4055 -0.4465  0.2499
  725MOL0     C97788   5.088   4.158  -2.082  0.8288 -0.1401  0.0551
  725MOL0     C97789   4.970   4.197  -2.017 -0.0563 -0.8412 -0.0583
  725MOL0     N97790   4.860   4.608  -1.345 -0.1979  1.0113 -0.1252
  725MOL0     N97791   4.923   4.598  -1.235 -0.4394 -0.2659 -0.8324
  725MOL0     C97792   5.009   4.200  -0.038  0.4756 -0.1340 -0.4688
  725MOL0     C97793   5.092   4.152   0.060 -0.1902  0.3644  0.4297
  725MOL0     C97794   5.454   4.056   0.312  0.2180 -0.0794  0.8342
  725MOL0     C97795   5.586   4.060   0.339  0.3699  0.2576  0.0638
  725MOL0     C97796   5.643   3.970   0.431 -0.0655  0.6227  0.7459
  725MOL0     C97797   5.572   3.887   0.508 -0.5959  0.1290  0.8111
  725MOL0     O97798   5.614   3.804   0.606 -0.0961 -0.3050  0.1417
  725MOL0     C97799   5.758   3.788   0.621 -0.4805  0.2897 -0.3411
  725MOL0     C97800   5.771   3.659   0.703  0.1086 -0.3673 -0.4371
  725MOL0     C97801   5.747   3.535   0.618  0.4013 -0.0537  0.2221
  725MOL0     C97802   5.609   3.478   0.620  0.0270 -0.2969 -0.3442
  725MOL0     C97803   5.600   3.331   0.624 -0.1618  0.1904  0.7429
  725MOL0     C97804   5.614   3.208   0.603  0.7590  1.1382 -1.5440
  725MOL0     C97805   5.444   3.882   0.473  0.3635  0.0314  0.1692
  725MOL0     C97806   5.376   3.963   0.374  0.1943 -1.3801 -0.8530
  725MOL0     C97807   5.233   3.929   0.350  0.2735  0.1676  0.8792
  725MOL0     H97808   5.320   4.393   0.074 -0.0423  1.2180  1.6341
  725MOL0     H97809   5.171   4.498  -0.089  0.7707  0.2251 -1.4644
  725MOL0     H97810   4.836   4.527  -0.237 -0.8144 -0.4933  0.6297
  725MOL0     H97811   4.952   4.545  -0.111 -1.4379 -2.1177  0.4310
  725MOL0     H97812   5.114   4.485  -0.316 -3.1450 -3.3270 -2.2081
  725MOL0     H97813   5.076   4.656  -0.301  2.4645 -0.4855 -3.2126
  725MOL0     H97814   5.009   4.679  -0.481 -1.3302  0.6379  1.7618
  725MOL0     H97815   4.868   4.584  -0.449 -0.9698  3.3106 -0.0666
  725MOL0     H97816   5.121   4.473  -0.564 -0.3939  1.8118  1.5243
  725MOL0     H97817   4.951   4.392  -0.547 -2.9070  2.2119  1.6337
  725MOL0     H97818   4.853   4.545  -0.685  0.3489 -2.5076  1.7222
  725MOL0     H97819   5.000   4.650  -0.711 -0.0357  0.2497 -1.6543
  725MOL0     H97820   5.104   4.458  -0.809 -0.6639 -1.9240  2.2004
  725MOL0     H97821   4.972   4.361  -0.803  2.2662 -0.6673 -1.8398
  725MOL0     H97822   4.960   4.615  -0.975  1.8392  0.5963  2.6319
  725MOL0     H97823   4.835   4.494  -0.939 -0.3008 -1.1692  0.5499
  725MOL0     H97824   5.098   4.432  -1.098 -0.3555  1.1271 -4.1951
  725MOL0     H97825   4.972   4.319  -1.058  0.7595 -0.5859 -1.0863
  725MOL0     H97826   4.829   4.287  -1.289 -3.4714  0.5671  0.7696
  725MOL0     H97827   4.669   4.355  -1.457 -0.6191  1.6931  0.1237
  725MOL0     H97828   4.659   4.521  -1.533 -2.6753 -1.6950 -3.6652
  725MOL0     H97829   4.847   4.474  -1.665 -1.0434 -1.2149 -4.5745
  725MOL0     H97830   4.860   4.310  -1.592 -0.7608  0.1996 -1.2891
  725MOL0     H97831   4.614   4.422  -1.739 -0.8535 -0.0999  0.6600
  725MOL0     H97832   4.625   4.259  -1.658  0.9542 -2.1235 -2.1323
  725MOL0     H97833   4.684   4.227  -1.899 -2.5457 -1.2850  2.1991
  725MOL0     H97834   4.801   4.189  -1.774  1.4408  1.9805  0.6016
  725MOL0     H97835   5.087   4.442  -1.811 -0.8958 -1.4444  0.2003
  725MOL0     H97836   5.304   4.370  -1.911 -0.4206 -0.4345 -0.9085
  725MOL0     H97837   5.421   4.228  -2.387 -2.1633 -1.3544 -0.2994
  725MOL0     H97838   5.634   4.157  -2.552  3.2825 -1.6289  0.4440
  725MOL0     H97839   5.700   4.041  -2.741 -2.5062 -1.1330  2.3364
  725MOL0     H97840   5.831   4.097  -2.640 -0.9455  0.5577  0.1322
  725MOL0     H97841   5.862   3.842  -2.771  0.0316  0.1727  0.8708
  725MOL0     H97842   5.914   4.006  -2.844  3.3119 -2.5886 -1.3133
  725MOL0     H97843   5.992   3.960  -2.550  1.8076 -1.7753  0.7637
  725MOL0     H97844   6.053   3.844  -2.651 -2.7543 -0.1913  2.4303
  725MOL0     H97845   6.087   4.147  -2.709  2.1262  0.9625 -0.5664
  725MOL0     H97846   6.145   4.004  -2.799  0.3164 -0.0969 -0.3600
  725MOL0     H97847   6.273   3.932  -2.597 -0.7770  0.9930  3.4218
  725MOL0     H97848   6.225   4.074  -2.512 -0.3974 -0.0942  0.3277
  725MOL0     H97849   6.449   4.099  -2.596  0.7786 -0.7169 -0.9390
  725MOL0     H97850   6.404   4.033  -2.753 -1.1069 -0.9863 -0.4828
  725MOL0     H97851   6.318   4.299  -2.637  0.5479  0.1342  1.0114
  725MOL0     H97852   6.289   4.256  -2.812  1.5516 -0.1244 -1.6573
  725MOL0     H97853   6.479   4.411  -2.776 -1.7673  1.1019 -0.5537
  725MOL0     H97854   6.561   4.277  -2.685 -0.2643  3.1789 -0.1869
  725MOL0     H97855   5.637   3.786  -2.393  1.6846  0.6521  0.7781
  725MOL0     H97856   5.425   3.843  -2.235 -0.3561  0.7405  0.3735
  725MOL0     H97857   5.072   4.080  -2.156 -2.6271 -0.1477  0.6239
  725MOL0     H97858   4.872   4.162  -2.047 -0.3773  1.8920 -2.6361
  725MOL0     H97859   4.911   4.156  -0.049  0.9003 -2.2612  2.7362
  725MOL0     H97860   5.079   4.051   0.099 -0.2098  0.1424 -0.1414
  725MOL0     H97861   5.651   4.132   0.291 -1.7160  3.5644  1.7632
  725MOL0     H97862   5.751   3.981   0.435 -0.1508  1.7140  0.2149
  725MOL0     H97863   5.804   3.870   0.677  0.3464  0.7972 -1.7083
  725MOL0     H97864   5.806   3.777   0.524 -2.1188  1.6605 -1.3715
  725MOL0     H97865   5.711   3.657   0.794  1.0646 -0.8757  0.2041
  725MOL0     H97866   5.872   3.668   0.744 -0.0391  2.9291 -0.5791
  725MOL0     H97867   5.811   3.454   0.655  0.9124  0.6116  0.8055
  725MOL0     H97868   5.765   3.560   0.513  0.0065  0.0635  0.1805
  725MOL0     H97869   5.541   3.510   0.700  0.8324  0.5469  0.0112
  725MOL0     H97870   5.547   3.518   0.539 -3.3132 -0.3929  1.9412
  725MOL0     H97871   5.604   3.102   0.595  1.5200  0.9731 -0.4124
  725MOL0     H97872   5.376   3.822   0.532  0.3701 -1.2161 -1.0539
  725MOL0     H97873   5.167   4.009   0.385 -0.4595 -0.9231  2.0385
  725MOL0     H97874   5.214   3.925   0.243 -0.7477 -0.5971  1.0746
  725MOL0     H97875   5.195   3.837   0.394 -3.0942  0.5488 -0.9133
  726MOL0     O97876   8.717   3.123   9.116 -0.6559  0.6578  0.6541
  726MOL0     C97877   8.637   3.049   9.168  0.4034 -1.2083 -0.0175
  726MOL0     O97878   8.645   2.910   9.173 -0.4075 -0.3096 -0.2525
  726MOL0     C97879   8.765   2.856   9.136  0.3834  0.7816 -0.1890
  726MOL0     C97880   8.886   2.901   9.175 -0.5014 -1.1675 -0.8735
  726MOL0     C97881   9.003   2.830   9.147  0.7341 -0.1134 -0.5748
  726MOL0     C97882   9.003   2.700   9.095  1.7103 -0.9727 -0.2950
  726MOL0     O97883   9.116   2.632   9.057 -0.5586  0.3717  0.5168
  726MOL0     C97884   9.218   2.616   9.150  0.0499  0.3905 -0.3344
  726MOL0     C97885   9.210   2.475   9.221  0.6405 -0.6428 -0.4412
  726MOL0     C97886   9.190   2.354   9.122  0.1021  0.3664  0.0267
  726MOL0     C97887   9.169   2.231   9.209  0.0539 -0.5105  0.4710
  726MOL0     C97888   9.214   2.108   9.128 -0.4717 -0.2573 -0.7789
  726MOL0     C97889   9.214   1.975   9.219 -0.2252  0.9963 -1.5425
  726MOL0     C97890   9.296   1.869   9.147  0.6855  0.6495 -0.1414
  726MOL0     C97891   9.323   1.741   9.243  0.5263  0.6620  0.4462
  726MOL0     N97892   9.204   1.666   9.265  0.4450 -0.2345  0.8205
  726MOL0     C97893   9.129   1.668   9.381  1.0107  0.3485 -0.3642
  726MOL0     C97894   9.025   1.590   9.342  0.5816 -0.3494 -0.1210
  726MOL0     C97895   8.890   1.566   9.416 -0.0586 -0.1947 -0.4159
  726MOL0     C97896   8.783   1.676   9.390 -0.6387 -0.8236  0.1868
  726MOL0     C97897   8.637   1.624   9.379 -0.1460 -0.7599 -0.3726
  726MOL0     C97898   8.548   1.740   9.340 -0.7941 -0.1818 -0.2682
  726MOL0     O97899   8.414   1.700   9.322 -0.2297 -1.0935  0.1253
  726MOL0     C97900   8.326   1.793   9.262  0.1302 -0.5094 -0.3164
  726MOL0     C97901   8.192   1.785   9.305 -0.0777  0.9094  0.6600
  726MOL0     C97902   8.096   1.873   9.273 -0.8122  0.3917  0.2671
  726MOL0     C97903   8.132   1.993   9.212 -0.1950  0.7454  0.7065
  726MOL0     C97904   8.029   2.089   9.191  0.7021 -1.2318  0.1161
  726MOL0     O97905   7.902   2.072   9.237  0.1443  0.1197  0.3618
  726MOL0     C97906   7.794   2.159   9.222 -0.4352  0.7045 -0.2239
  726MOL0     C97907   7.724   2.183   9.343 -0.0839  1.2530  0.1479
  726MOL0     C97908   7.619   2.271   9.336 -0.0882 -0.8215 -0.5791
  726MOL0     C97909   7.585   2.339   9.216  0.7832 -0.2606  0.1414
  726MOL0     O97910   7.473   2.419   9.201  0.7938  0.1785  0.0968
  726MOL0     C97911   7.465   2.521   9.112 -0.9885  0.4318 -0.4434
  726MOL0     C97912   7.388   2.643   9.179  0.5037  0.0001  0.4296
  726MOL0     C97913   7.408   2.779   9.117  0.1739 -0.0713 -0.2265
  726MOL0     C97914   7.346   2.890   9.206  0.1972  0.0913 -0.3421
  726MOL0     C97915   7.333   3.030   9.143  1.1003  0.5474  0.2788
  726MOL0     C97916   7.458   3.106   9.118  0.3525  0.4128  0.1083
  726MOL0     C97917   7.438   3.219   9.024  0.2471  0.2102 -0.0384
  726MOL0     C97918   7.569   3.280   8.987  1.0376 -0.4447 -0.9301
  726MOL0    Cl97919   7.532   3.413   8.874  0.4130  0.1120  0.7054
  726MOL0     C97920   7.655   2.310   9.098  0.3276  0.1772 -0.4231
  726MOL0     C97921   7.764   2.228   9.098  0.1671  0.1524 -0.0906
  726MOL0     O97922   8.065   2.184   9.127  0.2248 -0.7624  0.0206
  726MOL0     C97923   8.272   2.007   9.165 -0.1070  0.4811  0.3424
  726MOL0     C97924   8.365   1.902   9.184 -0.6192 -0.0578  0.0149
  726MOL0     N97925   9.046   1.525   9.224 -1.2396  0.3467 -0.1694
  726MOL0     N97926   9.148   1.579   9.172 -0.3429 -0.0699  0.6353
  726MOL0     C97927   8.878   2.657   9.058 -0.3654  0.7545 -0.7468
  726MOL0     C97928   8.761   2.728   9.081  0.2545  0.1614 -0.2670
  726MOL0     C97929   8.528   3.110   9.244 -0.4283 -0.8175 -0.0152
  726MOL0     C97930   8.499   3.246   9.225  0.3979  0.0938 -0.1473
  726MOL0     C97931   8.405   3.312   9.310 -0.5151  0.4807  0.3920
  726MOL0     C97932   8.338   3.247   9.413 -0.4097 -0.1091  0.1129
  726MOL0     O97933   8.248   3.310   9.499  0.1689 -0.2001  0.1575
  726MOL0     C97934   8.222   3.454   9.483 -0.4516  0.9519 -0.4030
  726MOL0     C97935   8.092   3.485   9.559  0.4183 -0.9162 -0.3201
  726MOL0     C97936   8.084   3.411   9.699  0.9397 -0.4383 -1.5710
  726MOL0     C97937   8.005   3.281   9.694  0.3656 -0.4122  0.3074
  726MOL0     C97938   7.856   3.296   9.686 -0.2820  1.1514  0.1412
  726MOL0     C97939   7.734   3.291   9.681  0.4486 -0.2142 -0.4543
  726MOL0     C97940   8.363   3.113   9.425  0.0847  0.1123 -0.1419
  726MOL0     C97941   8.455   3.044   9.346 -0.5023 -0.4785  1.0076
  726MOL0     C97942   8.472   2.899   9.385 -0.3610 -0.3015  0.4643
  726MOL0     H97943   8.910   3.000   9.214  0.4628 -2.3550  1.7928
  726MOL0     H97944   9.097   2.874   9.178  0.3099  0.0067  0.5594
  726MOL0     H97945   9.311   2.627   9.092  2.1244 -2.0437  2.2602
  726MOL0     H97946   9.211   2.688   9.232  0.8142  2.6164 -2.1021
  726MOL0     H97947   9.128   2.475   9.294 -0.2977 -1.5714 -1.4538
  726MOL0     H97948   9.305   2.458   9.274  1.8095 -1.6733 -2.7213
  726MOL0     H97949   9.271   2.335   9.051 -0.6195  0.8309 -0.9399
  726MOL0     H97950   9.100   2.366   9.061 -0.8370 -0.7406  1.1455
  726MOL0     H97951   9.242   2.234   9.290  0.2532 -0.2836  0.2854
  726MOL0     H97952   9.066   2.218   9.244  0.1871  2.3408  2.2815
  726MOL0     H97953   9.149   2.107   9.041  1.2415  1.5351 -2.1775
  726MOL0     H97954   9.321   2.121   9.109  0.1779 -1.8061  1.3679
  726MOL0     H97955   9.264   1.987   9.316 -1.0393 -1.3382 -0.7663
  726MOL0     H97956   9.114   1.932   9.233  0.9806 -1.9054 -1.1687
  726MOL0     H97957   9.389   1.918   9.118  0.1759  1.4528 -0.4304
  726MOL0     H97958   9.245   1.844   9.054 -2.9020  4.8000  0.4131
  726MOL0     H97959   9.410   1.687   9.205  0.1823  0.4491 -0.0611
  726MOL0     H97960   9.358   1.779   9.339  1.7280 -0.9449  0.6921
  726MOL0     H97961   9.140   1.730   9.470 -1.0977 -1.8308  1.5553
  726MOL0     H97962   8.856   1.465   9.395  4.4803 -2.3081  1.1879
  726MOL0     H97963   8.896   1.572   9.525 -2.0610  3.1374 -0.3375
  726MOL0     H97964   8.797   1.755   9.464  3.1029 -0.4167 -0.7362
  726MOL0     H97965   8.831   1.719   9.301  3.0922 -3.7722  0.4632
  726MOL0     H97966   8.601   1.574   9.469 -0.7837  0.3770  0.0086
  726MOL0     H97967   8.640   1.551   9.297 -1.4760 -1.3846  0.1004
  726MOL0     H97968   8.575   1.775   9.240  1.2371  1.3449  0.7471
  726MOL0     H97969   8.564   1.821   9.411  4.4254 -1.5800  0.5997
  726MOL0     H97970   8.167   1.694   9.360 -2.2238 -0.0748 -1.7757
  726MOL0     H97971   7.993   1.849   9.293 -0.9303  2.9519  3.7385
  726MOL0     H97972   7.757   2.134   9.434  3.9810  5.5668  1.4391
  726MOL0     H97973   7.559   2.301   9.421 -0.4630  2.4252 -1.8241
  726MOL0     H97974   7.564   2.558   9.081 -0.2533 -1.9550 -1.1815
  726MOL0     H97975   7.403   2.496   9.026  1.1511  1.8044 -2.5347
  726MOL0     H97976   7.283   2.614   9.173  0.7849 -0.8679 -0.6352
  726MOL0     H97977   7.415   2.638   9.285 -2.7845 -3.6352  1.3139
  726MOL0     H97978   7.515   2.799   9.109  0.3896 -0.8925  0.4434
  726MOL0     H97979   7.359   2.780   9.019  1.2218  1.3099 -0.7703
  726MOL0     H97980   7.412   2.892   9.294 -1.3163 -0.0996  0.8334
  726MOL0     H97981   7.242   2.875   9.234  0.0740  0.6931 -0.4615
  726MOL0     H97982   7.260   3.082   9.205 -0.1510 -0.7309 -0.0603
  726MOL0     H97983   7.286   3.018   9.045  0.4920  1.6862  0.4145
  726MOL0     H97984   7.509   3.127   9.213 -1.8925 -1.5977  1.9184
  726MOL0     H97985   7.533   3.036   9.081 -0.3986 -3.0275  4.2096
  726MOL0     H97986   7.366   3.287   9.070  0.6808  0.6330  0.0181
  726MOL0     H97987   7.401   3.186   8.926  3.5454  1.8485 -2.0294
  726MOL0     H97988   7.597   3.332   9.080 -2.9017 -0.8206  0.6664
  726MOL0     H97989   7.648   3.210   8.960 -1.5515 -5.2242  2.4328
  726MOL0     H97990   7.626   2.356   9.004  1.5535 -1.1841 -1.5173
  726MOL0     H97991   7.827   2.225   9.010  1.4011  1.1739  0.7218
  726MOL0     H97992   8.307   2.102   9.126 -0.3746 -0.3212 -1.9910
  726MOL0     H97993   8.466   1.928   9.154 -0.5378  0.0864  0.4037
  726MOL0     H97994   8.871   2.558   9.013  2.6104  0.4862 -0.8139
  726MOL0     H97995   8.665   2.688   9.049 -0.2140  0.2690  0.9519
  726MOL0     H97996   8.547   3.312   9.154  1.4244 -1.8213 -1.3267
  726MOL0     H97997   8.398   3.418   9.290  1.2033  0.3095 -1.4764
  726MOL0     H97998   8.210   3.486   9.379  1.0320  3.1313  0.0112
  726MOL0     H97999   8.296   3.524   9.524  0.6578  2.1926 -4.1617
  726MOL0     H98000   7.998   3.459   9.509 -0.3928 -0.6109  0.9941
  726MOL0     H98001   8.086   3.593   9.576  0.3372 -0.8756 -0.6057
  726MOL0     H98002   8.019   3.462   9.770 -0.1077 -2.6609 -0.8544
  726MOL0     H98003   8.183   3.384   9.737 -0.3384 -1.3481  1.4111
  726MOL0     H98004   8.034   3.220   9.607  2.1341 -1.0134  1.2704
  726MOL0     H98005   8.033   3.225   9.784 -1.3923 -2.2867 -0.2220
  726MOL0     H98006   7.631   3.270   9.662  0.8360 -1.9998 -0.7270
  726MOL0     H98007   8.320   3.072   9.516  1.4508  3.0684  2.0067
  726MOL0     H98008   8.577   2.872   9.397  0.5316  2.4597 -0.2254
  726MOL0     H98009   8.411   2.874   9.472 -0.5658  1.5951  0.9211
  726MOL0     H98010   8.429   2.840   9.304 -0.5561  1.1688 -0.5412
  727MOL0     O98011   0.531  10.461   6.297 -0.3746 -0.6678 -0.6602
  727MOL0     C98012   0.622  10.467   6.390  0.4102  0.1248 -0.7343
  727MOL0     O98013   0.590  10.485   6.521 -0.3848 -0.7770 -0.6335
  727MOL0     C98014   0.455  10.497   6.557  0.3058 -0.5216 -0.0090
  727MOL0     C98015   0.346  10.570   6.494 -0.1690 -0.6476 -0.3650
  727MOL0     C98016   0.219  10.572   6.543 -0.0749  0.9291  0.0025
  727MOL0     C98017   0.179  10.499   6.659  0.4233 -0.1678  0.3218
  727MOL0     O98018   0.056  10.509   6.708 -0.1973  0.1323 -0.1795
  727MOL0     C98019  -0.017  10.391   6.722  0.6121  0.8361  0.3110
  727MOL0     C98020  -0.122  10.397   6.617 -0.1030 -0.2484 -0.0472
  727MOL0     C98021  -0.088  10.319   6.483  0.2906 -0.2777  0.0233
  727MOL0     C98022  -0.206  10.332   6.390 -0.6703  0.0898 -0.0550
  727MOL0     C98023  -0.191  10.240   6.273  0.6415  0.3004 -0.3171
  727MOL0     C98024  -0.065  10.266   6.189 -0.1825 -0.5681  0.2199
  727MOL0     C98025  -0.083  10.208   6.050 -0.7302  0.6232  0.0804
  727MOL0     C98026  -0.126  10.311   5.948  0.2619 -1.0008 -0.4075
  727MOL0     N98027  -0.144  10.246   5.818 -0.3561  0.3926 -0.5815
  727MOL0     C98028  -0.226  10.144   5.782  0.5020 -0.7788  0.5866
  727MOL0     C98029  -0.187  10.096   5.671 -0.1189  0.4751  0.2116
  727MOL0     C98030  -0.238   9.976   5.597 -0.3236  0.0736  0.2829
  727MOL0     C98031  -0.133   9.913   5.515  0.6375  0.3093  0.9742
  727MOL0     C98032  -0.100   9.996   5.388 -0.5673 -0.2629  0.0954
  727MOL0     C98033  -0.205  10.015   5.282  0.1818  0.3247 -0.5217
  727MOL0     O98034  -0.323   9.926   5.279 -0.3448 -0.8757 -0.3638
  727MOL0     C98035  -0.395   9.964   5.170  0.1209 -0.4990  0.3693
  727MOL0     C98036  -0.371   9.906   5.045 -1.0553 -0.0225  1.3462
  727MOL0     C98037  -0.464   9.933   4.940  0.0519 -0.3034 -0.1474
  727MOL0     C98038  -0.580  10.009   4.966  1.3783 -0.0176  0.0441
  727MOL0     C98039  -0.681  10.041   4.868 -0.0490 -0.1738  0.2189
  727MOL0     O98040  -0.783  10.128   4.895 -0.0389  0.9924 -0.3318
  727MOL0     C98041  -0.899  10.125   4.815  0.1549  0.7569 -0.0354
  727MOL0     C98042  -0.938  10.252   4.773 -0.9025  0.1594  0.1517
  727MOL0     C98043  -1.057  10.265   4.695  0.6377  0.2832  0.2096
  727MOL0     C98044  -1.128  10.153   4.638 -0.1669  1.4604 -0.5414
  727MOL0     O98045  -1.236  10.150   4.559  0.0707  0.1852  0.0858
  727MOL0     C98046  -1.311  10.277   4.545 -0.7049 -0.5345 -0.3347
  727MOL0     C98047  -1.452  10.257   4.520 -1.2795  0.3296 -0.8611
  727MOL0     C98048  -1.514  10.168   4.631  0.6208 -0.2300 -0.6161
  727MOL0     C98049  -1.503  10.024   4.586  0.7459  0.6048  0.0787
  727MOL0     C98050  -1.601   9.937   4.665  0.1385  0.1756 -0.8492
  727MOL0     C98051  -1.604   9.784   4.636 -0.5975 -1.0428  0.3974
  727MOL0     C98052  -1.666   9.708   4.749 -0.3476 -0.3085 -0.2275
  727MOL0     C98053  -1.675   9.562   4.724  1.1769  0.4859 -1.4758
  727MOL0    Cl98054  -1.792   9.531   4.599 -0.2259  0.1300  0.2843
  727MOL0     C98055  -1.075  10.021   4.685 -0.2660  0.1979  0.5706
  727MOL0     C98056  -0.960  10.004   4.773  1.3692  0.3342  0.3774
  727MOL0     O98057  -0.664   9.991   4.753  0.4571 -0.1737 -0.2333
  727MOL0     C98058  -0.603  10.059   5.093 -0.0276 -0.5296 -0.3003
  727MOL0     C98059  -0.514  10.031   5.199  0.5041  0.6742  0.3368
  727MOL0     N98060  -0.069  10.164   5.639  0.0938 -0.1827  0.3985
  727MOL0     N98061  -0.050  10.262   5.717 -0.2553  0.2948 -0.0354
  727MOL0     C98062   0.278  10.427   6.714 -0.3801  1.1706  0.3707
  727MOL0     C98063   0.416  10.426   6.672  0.0365 -0.1745 -0.3074
  727MOL0     C98064   0.767  10.447   6.353 -0.5574 -0.4285 -0.4569
  727MOL0     C98065   0.794  10.390   6.222  0.0259  0.1647  0.2399
  727MOL0     C98066   0.918  10.345   6.187 -0.8187  0.6998 -0.0992
  727MOL0     C98067   1.020  10.343   6.273 -0.8791 -1.3540 -0.2331
  727MOL0     O98068   1.142  10.277   6.259 -0.2527  0.1449  0.7609
  727MOL0     C98069   1.215  10.315   6.140  0.5073 -0.1077 -0.4008
  727MOL0     C98070   1.361  10.315   6.170  0.6973 -0.9760 -0.8008
  727MOL0     C98071   1.458  10.306   6.057  0.9141 -1.1943 -0.6208
  727MOL0     C98072   1.489  10.168   6.013 -0.3873  0.0350 -0.7097
  727MOL0     C98073   1.590  10.174   5.906  0.2907  0.1445  0.9728
  727MOL0     C98074   1.671  10.157   5.816  0.0023  0.8449 -0.3048
  727MOL0     C98075   1.005  10.421   6.394  0.4370 -0.5391  1.0829
  727MOL0     C98076   0.879  10.466   6.441 -0.1757  0.6317 -0.4320
  727MOL0     C98077   0.868  10.552   6.573  0.1141  0.7413  0.7547
  727MOL0     H98078   0.368  10.622   6.401  0.3560  1.1302  0.7106
  727MOL0     H98079   0.147  10.624   6.481 -0.5465 -0.4356 -0.6268
  727MOL0     H98080   0.037  10.296   6.711 -1.7604 -0.7753  1.7721
  727MOL0     H98081  -0.058  10.394   6.824  2.2885  2.8538  1.0128
  727MOL0     H98082  -0.149  10.501   6.595 -0.7974 -0.3436  0.3339
  727MOL0     H98083  -0.208  10.343   6.656 -0.7440  1.6575  1.3235
  727MOL0     H98084  -0.068  10.217   6.516  5.6422  0.8355  1.2661
  727MOL0     H98085   0.002  10.358   6.434  0.1430  2.6198  1.8043
  727MOL0     H98086  -0.296  10.309   6.447 -1.4793 -1.7514 -1.9279
  727MOL0     H98087  -0.207  10.438   6.366 -0.8742  0.8216  2.7980
  727MOL0     H98088  -0.192  10.135   6.306 -0.0221 -0.1087 -1.5485
  727MOL0     H98089  -0.283  10.259   6.217 -0.1619 -1.1430  0.4403
  727MOL0     H98090  -0.040  10.373   6.181  2.5883 -1.2013 -0.7471
  727MOL0     H98091   0.017  10.213   6.238 -1.0769 -0.2581  2.1289
  727MOL0     H98092  -0.164  10.136   6.057 -1.0207  1.0558  4.3723
  727MOL0     H98093   0.007  10.154   6.018 -1.2226 -0.2575  0.1566
  727MOL0     H98094  -0.222  10.352   5.979  0.3631 -0.3675 -0.9121
  727MOL0     H98095  -0.053  10.390   5.928 -1.2675  0.2201 -1.3045
  727MOL0     H98096  -0.300  10.098   5.847  1.7743 -3.9768 -0.0268
  727MOL0     H98097  -0.270   9.895   5.663 -0.7779  1.4039  1.7708
  727MOL0     H98098  -0.323  10.002   5.533 -0.8828  1.8858  1.6587
  727MOL0     H98099  -0.037   9.911   5.569  0.8129  1.5981  0.7433
  727MOL0     H98100  -0.173   9.816   5.486 -0.9343  1.2012  0.0167
  727MOL0     H98101  -0.021   9.943   5.334  0.7399 -0.6442  2.2843
  727MOL0     H98102  -0.044  10.089   5.399  0.2430 -0.9653  2.4040
  727MOL0     H98103  -0.167  10.015   5.180 -1.2894  1.6395 -1.1132
  727MOL0     H98104  -0.234  10.119   5.300 -1.7225 -0.4424  1.2359
  727MOL0     H98105  -0.285   9.840   5.031 -1.1355 -0.8354  4.1876
  727MOL0     H98106  -0.447   9.896   4.840  1.2246  0.6005 -0.3055
  727MOL0     H98107  -0.889  10.345   4.799 -0.7617  0.1089  0.0681
  727MOL0     H98108  -1.083  10.365   4.663  3.2057  1.0807  0.3844
  727MOL0     H98109  -1.300  10.323   4.644 -1.3661  0.1504 -0.5771
  727MOL0     H98110  -1.259  10.345   4.477 -1.6732  0.1995 -0.3494
  727MOL0     H98111  -1.504  10.353   4.530  0.9830  1.4084  1.5762
  727MOL0     H98112  -1.486  10.230   4.419 -2.1763 -2.0724  0.0102
  727MOL0     H98113  -1.457  10.192   4.721 -0.0048  0.0358 -0.2892
  727MOL0     H98114  -1.618  10.198   4.645  1.5726  3.4885 -0.3893
  727MOL0     H98115  -1.408   9.989   4.628  0.0582  0.1595  1.3162
  727MOL0     H98116  -1.518  10.011   4.479 -1.4601  0.5978  0.3561
  727MOL0     H98117  -1.700   9.976   4.637 -0.0843  0.6583  0.5512
  727MOL0     H98118  -1.576   9.952   4.770  0.6830 -1.1433 -0.7810
  727MOL0     H98119  -1.649   9.775   4.536  0.7150  0.2483 -0.3688
  727MOL0     H98120  -1.502   9.746   4.631 -1.3976 -3.1838 -0.7549
  727MOL0     H98121  -1.771   9.730   4.773 -0.5732 -2.0164  0.4857
  727MOL0     H98122  -1.618   9.733   4.844 -1.1079  2.8138 -0.5509
  727MOL0     H98123  -1.574   9.526   4.703  1.1585 -1.9538  1.8322
  727MOL0     H98124  -1.710   9.518   4.817  0.7743  2.5889 -0.5720
  727MOL0     H98125  -1.137   9.934   4.663 -1.9187  1.5964 -0.5483
  727MOL0     H98126  -0.920   9.911   4.813  1.4702  0.0611 -0.3298
  727MOL0     H98127  -0.687  10.119   5.128  0.7586  1.6271 -1.8788
  727MOL0     H98128  -0.540  10.054   5.302 -0.5318 -1.8052  0.6960
  727MOL0     H98129   0.260  10.381   6.810  1.2098 -2.9492 -1.0861
  727MOL0     H98130   0.499  10.372   6.716  2.9454  3.3606 -0.9119
  727MOL0     H98131   0.715  10.367   6.152 -0.4890 -0.0560  0.8798
  727MOL0     H98132   0.927  10.299   6.089  1.0539  0.5197  0.1251
  727MOL0     H98133   1.175  10.407   6.097 -0.0894 -0.3301 -0.3331
  727MOL0     H98134   1.200  10.243   6.059  1.2209 -2.0125  1.0957
  727MOL0     H98135   1.376  10.233   6.240  0.0053 -0.5593 -0.1497
  727MOL0     H98136   1.379  10.414   6.215 -0.6713 -0.6953 -0.8146
  727MOL0     H98137   1.549  10.349   6.102 -0.7853  1.0790  0.9074
  727MOL0     H98138   1.441  10.375   5.974  5.2324  0.5477 -0.3204
  727MOL0     H98139   1.536  10.115   6.096 -0.2370  0.6223 -0.4158
  727MOL0     H98140   1.398  10.114   5.985  0.6216 -1.1309 -1.8875
  727MOL0     H98141   1.733  10.131   5.732 -1.5293 -2.3922 -0.5739
  727MOL0     H98142   1.077  10.412   6.475 -0.1179 -1.6508  1.4774
  727MOL0     H98143   0.967  10.551   6.619 -0.0238 -0.5636  1.0912
  727MOL0     H98144   0.837  10.654   6.550  1.8124  0.6971 -2.0997
  727MOL0     H98145   0.799  10.503   6.644 -0.6377 -2.1823 -1.7607
  728MOL0     O98146   0.698   6.432  10.874  0.3850  0.1592  0.3130
  728MOL0     C98147   0.816   6.411  10.865 -0.2475 -0.7259 -0.0632
  728MOL0     O98148   0.866   6.346  10.760 -0.2423  0.4890 -0.5076
  728MOL0     C98149   0.798   6.317  10.644 -0.1952 -0.5972  0.6672
  728MOL0     C98150   0.844   6.371  10.524  1.0416 -0.0671 -0.2073
  728MOL0     C98151   0.777   6.330  10.405 -0.6692 -0.1425  0.8953
  728MOL0     C98152   0.658   6.252  10.412 -0.3024  0.2522  0.6292
  728MOL0     O98153   0.586   6.211  10.307  0.7270  0.0440 -0.0055
  728MOL0     C98154   0.635   6.246  10.175  0.4574 -0.0984 -0.3080
  728MOL0     C98155   0.527   6.225  10.074 -0.6797 -0.2407  0.4450
  728MOL0     C98156   0.594   6.178   9.945  0.2687 -0.6567 -0.4613
  728MOL0     C98157   0.489   6.094   9.870  0.0562 -0.2468 -0.3080
  728MOL0     C98158   0.552   6.014   9.760  0.5326 -0.9988 -0.8726
  728MOL0     C98159   0.624   6.115   9.654  0.6981 -0.5328 -0.4298
  728MOL0     C98160   0.621   6.052   9.511 -1.7447  0.2930 -1.0063
  728MOL0     C98161   0.716   6.108   9.409 -0.6152  0.1269  0.1065
  728MOL0     N98162   0.859   6.103   9.456  0.5822  0.4427  0.2514
  728MOL0     C98163   0.947   6.003   9.423 -0.3454 -0.7260  0.3624
  728MOL0     C98164   1.074   6.049   9.439 -0.1351  0.7016  1.4436
  728MOL0     C98165   1.201   5.978   9.396 -0.0578  0.0621 -0.2795
  728MOL0     C98166   1.203   5.976   9.243 -0.0914 -1.0260  0.1642
  728MOL0     C98167   1.281   6.107   9.198 -0.1039 -0.0956 -0.0747
  728MOL0     C98168   1.315   6.113   9.055  0.2343  0.8670 -0.9720
  728MOL0     O98169   1.397   6.007   9.021 -1.0345  0.7419  0.6501
  728MOL0     C98170   1.417   5.986   8.886  0.1849  0.1605  0.1970
  728MOL0     C98171   1.507   5.887   8.856  0.1123 -1.1262  0.1396
  728MOL0     C98172   1.523   5.841   8.727  0.1416  0.0253 -0.6074
  728MOL0     C98173   1.469   5.918   8.625  0.4973  0.2551  0.3496
  728MOL0     C98174   1.502   5.877   8.488  0.0279 -0.1550  0.3790
  728MOL0     O98175   1.602   5.781   8.474 -0.0656  0.6772 -0.1079
  728MOL0     C98176   1.616   5.717   8.351 -0.0244 -0.5580 -0.2054
  728MOL0     C98177   1.527   5.697   8.251  0.5103 -0.1318  0.3802
  728MOL0     C98178   1.573   5.638   8.127  0.8546  0.2947  0.0333
  728MOL0     C98179   1.708   5.604   8.109 -0.5639 -0.5031 -0.8063
  728MOL0     O98180   1.738   5.532   7.997  0.2605 -0.1270  0.1132
  728MOL0     C98181   1.852   5.442   7.995  0.2742  0.4729  0.9410
  728MOL0     C98182   1.887   5.424   7.851  0.3682  0.8858  0.0689
  728MOL0     C98183   1.777   5.336   7.793  0.6745 -0.0790 -0.0955
  728MOL0     C98184   1.785   5.348   7.644  0.3714 -0.7401  0.6921
  728MOL0     C98185   1.700   5.223   7.592  0.5663  0.7981  0.5617
  728MOL0     C98186   1.559   5.225   7.626  0.1433 -0.1032 -0.5487
  728MOL0     C98187   1.482   5.119   7.543  0.8594 -0.7918 -0.4808
  728MOL0     C98188   1.346   5.080   7.606 -0.2256  0.2016  0.6233
  728MOL0    Cl98189   1.256   4.946   7.509  0.2794 -0.6744  0.0958
  728MOL0     C98190   1.798   5.624   8.216 -0.3010 -0.1389  0.6562
  728MOL0     C98191   1.752   5.697   8.334 -0.4150  0.5395  0.6008
  728MOL0     O98192   1.431   5.925   8.398  0.6512  0.9184  0.7264
  728MOL0     C98193   1.386   6.024   8.648 -1.0045 -0.5896  0.2811
  728MOL0     C98194   1.358   6.065   8.782 -0.9711  0.5723 -0.2773
  728MOL0     N98195   1.057   6.187   9.464 -0.1065  0.5493 -0.5847
  728MOL0     N98196   0.930   6.212   9.485 -0.2179 -0.9200  0.1817
  728MOL0     C98197   0.612   6.205  10.532  0.4121  0.2501 -0.2269
  728MOL0     C98198   0.687   6.235  10.646 -0.6269  0.1566  0.0318
  728MOL0     C98199   0.904   6.480  10.963 -0.4912  0.0601 -0.5583
  728MOL0     C98200   1.010   6.557  10.909 -0.7059 -0.1515 -0.0375
  728MOL0     C98201   1.099   6.627  10.993  0.9230  0.8029 -0.2283
  728MOL0     C98202   1.092   6.620  11.132  0.5730 -0.3802 -0.1799
  728MOL0     O98203   1.185   6.694  11.204 -0.1237 -0.3590  0.4654
  728MOL0     C98204   1.195   6.677  11.350 -0.1629 -0.4107 -0.8111
  728MOL0     C98205   1.316   6.751  11.414  1.0084  0.5206 -0.2779
  728MOL0     C98206   1.447   6.726  11.336  0.0181  0.5074  0.8185
  728MOL0     C98207   1.556   6.771  11.431 -0.0489  0.1719 -0.0639
  728MOL0     C98208   1.687   6.712  11.392  0.7520  0.5120  0.0955
  728MOL0     C98209   1.793   6.665  11.363  0.4761  0.4180 -0.6231
  728MOL0     C98210   0.986   6.537  11.183  1.0019  0.3122 -0.0225
  728MOL0     C98211   0.886   6.478  11.099 -0.2164 -1.3496  0.2503
  728MOL0     C98212   0.773   6.406  11.171 -0.4769 -0.5650 -0.1000
  728MOL0     H98213   0.928   6.440  10.520  0.8861  0.0680 -1.2263
  728MOL0     H98214   0.807   6.370  10.309 -0.7627  2.1026  1.7397
  728MOL0     H98215   0.652   6.353  10.160  0.7568 -0.0742  0.1751
  728MOL0     H98216   0.729   6.197  10.149 -1.1378 -1.6422 -3.7365
  728MOL0     H98217   0.470   6.316  10.053  0.3327  0.1044 -0.9988
  728MOL0     H98218   0.453   6.156  10.113 -0.9977  0.2422  0.6983
  728MOL0     H98219   0.688   6.125   9.964 -0.7845 -2.5084 -0.1856
  728MOL0     H98220   0.615   6.269   9.888 -1.9273 -0.4380 -1.0006
  728MOL0     H98221   0.434   6.018   9.927 -0.3003  0.3239  0.1265
  728MOL0     H98222   0.414   6.167   9.838  0.4926  1.4086  2.1713
  728MOL0     H98223   0.623   5.939   9.796  0.6548 -0.8456 -0.7956
  728MOL0     H98224   0.468   5.972   9.703 -2.8257  2.8745  0.7161
  728MOL0     H98225   0.565   6.206   9.648  0.5903 -0.5322  0.5579
  728MOL0     H98226   0.730   6.119   9.682  1.5066 -2.4773 -2.8108
  728MOL0     H98227   0.521   6.058   9.466 -1.5298 -2.4543 -2.0667
  728MOL0     H98228   0.642   5.945   9.519 -0.7842  0.4834 -0.9138
  728MOL0     H98229   0.711   6.051   9.316  0.9670  0.8743 -0.4748
  728MOL0     H98230   0.692   6.213   9.390 -1.2510 -0.0928 -0.3051
  728MOL0     H98231   0.917   5.902   9.393 -1.6604  0.0267 -0.9986
  728MOL0     H98232   1.291   6.027   9.434 -0.7666  3.0904 -2.1372
  728MOL0     H98233   1.205   5.872   9.422 -0.0576 -0.2860 -1.6249
  728MOL0     H98234   1.261   5.890   9.208  0.4600 -0.4030 -0.4773
  728MOL0     H98235   1.109   5.981   9.189  1.1314 -0.8376 -2.0597
  728MOL0     H98236   1.374   6.100   9.255 -0.8820 -0.4173  1.2018
  728MOL0     H98237   1.228   6.201   9.216 -0.5139  0.2130 -2.4811
  728MOL0     H98238   1.376   6.201   9.035  3.3338 -0.2773  2.3500
  728MOL0     H98239   1.222   6.108   8.997 -2.4429  1.1664  2.9565
  728MOL0     H98240   1.544   5.827   8.938  3.9711  1.6602  0.7327
  728MOL0     H98241   1.588   5.755   8.718 -0.1759 -0.1265 -1.5994
  728MOL0     H98242   1.421   5.713   8.268  0.4653 -0.9405  0.9363
  728MOL0     H98243   1.509   5.613   8.043  0.2849 -3.2471  1.3409
  728MOL0     H98244   1.937   5.466   8.061 -0.9064  1.4664  2.1575
  728MOL0     H98245   1.802   5.351   8.027 -2.8915  1.3358 -1.1168
  728MOL0     H98246   1.898   5.516   7.793  0.3337  1.5469  1.0829
  728MOL0     H98247   1.978   5.365   7.860 -0.6661 -0.6689  0.6341
  728MOL0     H98248   1.798   5.232   7.823 -1.3950 -1.3084 -2.5699
  728MOL0     H98249   1.676   5.356   7.829 -0.2403  1.3127 -3.1651
  728MOL0     H98250   1.887   5.339   7.607 -0.5279 -0.1584 -2.2126
  728MOL0     H98251   1.732   5.439   7.616  1.0402  0.0329  1.8413
  728MOL0     H98252   1.750   5.132   7.625 -0.0284  0.6502  1.0690
  728MOL0     H98253   1.704   5.222   7.483 -2.4061 -0.7543  0.3625
  728MOL0     H98254   1.554   5.203   7.733  2.8007  0.1261 -0.3109
  728MOL0     H98255   1.515   5.323   7.604  1.6957  0.6685 -0.3387
  728MOL0     H98256   1.542   5.029   7.536  0.6294 -1.2481  2.3414
  728MOL0     H98257   1.459   5.156   7.443 -3.0669 -2.1479 -0.2775
  728MOL0     H98258   1.365   5.035   7.704 -0.2502 -1.0618  0.0795
  728MOL0     H98259   1.275   5.162   7.618  0.3033  1.6166 -3.9440
  728MOL0     H98260   1.903   5.597   8.220 -0.3605 -0.9035 -1.6770
  728MOL0     H98261   1.830   5.718   8.407 -1.9356  1.8386  1.9076
  728MOL0     H98262   1.341   6.078   8.566  0.9421  0.0208 -0.4294
  728MOL0     H98263   1.303   6.156   8.803 -0.2237  0.5073  2.3475
  728MOL0     H98264   0.518   6.154  10.548 -0.0601  1.5182  1.3787
  728MOL0     H98265   0.652   6.189  10.738  0.0049 -0.4654 -0.0235
  728MOL0     H98266   1.013   6.558  10.800 -0.5692 -2.8408 -0.1244
  728MOL0     H98267   1.172   6.693  10.947  1.3123  1.9052  1.8606
  728MOL0     H98268   1.207   6.571  11.373  1.8522 -0.5923 -2.4563
  728MOL0     H98269   1.112   6.722  11.405  2.3653  3.3730  0.3035
  728MOL0     H98270   1.320   6.712  11.517 -0.3471  3.8226  1.1551
  728MOL0     H98271   1.303   6.858  11.429 -3.3699 -0.1974  3.1954
  728MOL0     H98272   1.461   6.786  11.246  1.8949 -0.3976  0.4551
  728MOL0     H98273   1.454   6.618  11.321  1.2605  0.6266  0.4647
  728MOL0     H98274   1.554   6.880  11.430 -0.7097  0.1762  0.9323
  728MOL0     H98275   1.526   6.735  11.530 -1.4597  2.7253  0.5109
  728MOL0     H98276   1.884   6.610  11.353  1.7275  1.8374  1.8935
  728MOL0     H98277   0.974   6.521  11.290  0.1631 -1.4616 -0.3321
  728MOL0     H98278   0.778   6.430  11.277  1.0844 -2.1093  0.2154
  728MOL0     H98279   0.678   6.438  11.126  0.3009  2.2988  0.1267
  728MOL0     H98280   0.785   6.298  11.158 -2.8044 -0.9681  0.5497
  729MOL0     O98281  11.013   8.960   3.633  0.5645  0.6818  0.6592
  729MOL0     C98282  10.959   8.994   3.732 -0.4148 -0.2034 -0.4271
  729MOL0     O98283  10.853   8.937   3.786  0.2115  0.7050 -0.0076
  729MOL0     C98284  10.782   8.836   3.716  0.1369  0.7092 -0.6512
  729MOL0     C98285  10.828   8.705   3.698 -0.0503  0.4096  0.2605
  729MOL0     C98286  10.747   8.606   3.633 -0.1890  0.8462 -0.0907
  729MOL0     C98287  10.625   8.645   3.579 -0.6580  0.0721 -0.9218
  729MOL0     O98288  10.559   8.527   3.520 -0.7606  0.2870 -0.0170
  729MOL0     C98289  10.422   8.533   3.493 -0.1062 -0.6107 -0.0192
  729MOL0     C98290  10.376   8.393   3.436  0.1130 -0.3253 -0.4179
  729MOL0     C98291  10.488   8.319   3.351 -0.3749 -0.2538  0.6517
  729MOL0     C98292  10.424   8.187   3.287 -0.7784 -0.4542 -0.1612
  729MOL0     C98293  10.346   8.232   3.160  0.4380  0.4515 -0.3070
  729MOL0     C98294  10.202   8.159   3.142 -0.0613 -0.2375  0.9985
  729MOL0     C98295  10.182   8.156   2.987 -0.0034  0.0712 -0.6447
  729MOL0     C98296  10.250   8.026   2.932  0.8380  0.2286  0.2080
  729MOL0     N98297  10.229   8.033   2.784  1.0273  0.5925  0.0254
  729MOL0     C98298  10.328   8.015   2.688  0.0471  0.5893  0.4724
  729MOL0     C98299  10.262   8.025   2.574 -0.3420  0.3609  0.7132
  729MOL0     C98300  10.321   8.027   2.430  0.1312 -0.1832 -0.6152
  729MOL0     C98301  10.262   8.125   2.328 -0.2203 -0.4096  0.2668
  729MOL0     C98302  10.122   8.076   2.275  0.3573 -0.7068  0.0459
  729MOL0     C98303  10.057   8.207   2.213  0.2470 -0.4357 -0.0340
  729MOL0     O98304  10.141   8.270   2.114 -0.5374 -0.0661  0.3847
  729MOL0     C98305  10.087   8.384   2.052 -0.0398  0.0085 -0.0451
  729MOL0     C98306   9.975   8.454   2.098  0.4404 -0.2292  0.2011
  729MOL0     C98307   9.955   8.582   2.048 -0.0690 -0.2109  0.1012
  729MOL0     C98308  10.018   8.631   1.927 -0.7154  0.2943 -0.5804
  729MOL0     C98309   9.957   8.748   1.850 -0.0548  0.0547  0.1047
  729MOL0     O98310  10.036   8.800   1.749 -0.2715 -0.4325  0.0662
  729MOL0     C98311  10.011   8.930   1.700  0.2501  0.2736  0.2492
  729MOL0     C98312  10.079   8.962   1.582  0.3309  0.2003  0.0917
  729MOL0     C98313  10.064   9.086   1.515  0.8679  0.6920 -0.3006
  729MOL0     C98314   9.988   9.185   1.565  0.3321  0.3162 -0.9709
  729MOL0     O98315   9.959   9.296   1.493 -0.1891  0.1862  0.6118
  729MOL0     C98316  10.051   9.403   1.510 -0.9481 -0.5422 -0.5719
  729MOL0     C98317  10.172   9.390   1.418  0.8094 -0.1253  0.6618
  729MOL0     C98318  10.199   9.522   1.329  0.2109  0.8586 -0.5568
  729MOL0     C98319  10.092   9.549   1.223 -0.4834  0.6930 -0.2963
  729MOL0     C98320  10.117   9.681   1.152 -0.3538 -0.3518 -0.1460
  729MOL0     C98321  10.016   9.712   1.042 -0.8343  0.1681 -0.1669
  729MOL0     C98322  10.052   9.845   0.973  0.1375  0.5197  0.2053
  729MOL0     C98323  10.184   9.861   0.903  0.8690  0.0744 -0.7267
  729MOL0    Cl98324  10.220   9.745   0.775  0.1991 -0.4883  0.5817
  729MOL0     C98325   9.918   9.164   1.692 -0.1874 -0.8542 -0.2537
  729MOL0     C98326   9.935   9.035   1.756  0.3544  0.0357  0.1270
  729MOL0     O98327   9.844   8.780   1.889 -0.4278 -0.3270 -0.0051
  729MOL0     C98328  10.100   8.534   1.864  1.1228  0.6310 -0.1539
  729MOL0     C98329  10.132   8.414   1.929  0.1068 -0.9534  0.3242
  729MOL0     N98330  10.126   8.052   2.604 -0.7090  0.0412  0.6602
  729MOL0     N98331  10.110   8.058   2.731 -0.1751  0.3578 -0.1166
  729MOL0     C98332  10.582   8.780   3.594  0.5651 -0.1133 -0.1436
  729MOL0     C98333  10.662   8.875   3.656 -0.0543 -0.2115  0.5932
  729MOL0     C98334  11.041   9.099   3.816 -0.5774  0.6258  0.1748
  729MOL0     C98335  11.175   9.128   3.779 -0.3622 -0.2857 -0.0632
  729MOL0     C98336  11.255   9.208   3.854 -0.1366  0.5457  0.5716
  729MOL0     C98337  11.208   9.265   3.968  0.1723 -0.5299 -0.2419
  729MOL0     O98338  11.293   9.348   4.023 -0.2928  0.0547  0.4032
  729MOL0     C98339  11.279   9.380   4.163  0.1598  0.2838 -0.3518
  729MOL0     C98340  11.421   9.422   4.207  0.3214 -0.6693 -0.1735
  729MOL0     C98341  11.474   9.337   4.325  0.3541  0.5303 -0.3269
  729MOL0     C98342  11.602   9.376   4.391 -0.8219  0.3768 -0.3311
  729MOL0     C98343  11.592   9.501   4.470 -0.0480  0.4959 -0.1716
  729MOL0     C98344  11.573   9.608   4.530  0.2250 -0.0718  0.1505
  729MOL0     C98345  11.079   9.244   4.006 -0.5081  0.1149 -0.0753
  729MOL0     C98346  10.998   9.162   3.935  0.7370 -0.3615 -0.4604
  729MOL0     C98347  10.858   9.173   3.989  0.5936  0.0647  0.1276
  729MOL0     H98348  10.930   8.683   3.729 -0.9656 -2.0885  1.7819
  729MOL0     H98349  10.785   8.505   3.619 -2.4817 -0.4417  1.9982
  729MOL0     H98350  10.373   8.556   3.589 -0.4508 -3.7649  0.6660
  729MOL0     H98351  10.406   8.622   3.431  0.6542  1.3096  2.3847
  729MOL0     H98352  10.287   8.398   3.371 -0.2599  1.6525  0.1740
  729MOL0     H98353  10.339   8.334   3.521  0.9694  0.3901  0.4739
  729MOL0     H98354  10.571   8.292   3.417  0.7617  0.5065 -0.4011
  729MOL0     H98355  10.534   8.384   3.276 -2.3442  5.0708  3.5260
  729MOL0     H98356  10.492   8.104   3.268 -0.5614 -0.1088 -0.9105
  729MOL0     H98357  10.354   8.133   3.352 -0.9952 -1.2404 -1.0303
  729MOL0     H98358  10.340   8.340   3.173  3.2470  0.5066  1.4504
  729MOL0     H98359  10.405   8.211   3.070  1.0957 -1.3519  0.5023
  729MOL0     H98360  10.207   8.064   3.196  0.8245  0.7678  2.7753
  729MOL0     H98361  10.114   8.210   3.181 -0.8419 -0.6173 -0.1838
  729MOL0     H98362  10.230   8.243   2.940  1.3865 -1.2639 -1.8157
  729MOL0     H98363  10.073   8.158   2.981 -0.1627  1.0860  1.6176
  729MOL0     H98364  10.356   8.012   2.954  0.1909 -1.7057  2.5831
  729MOL0     H98365  10.201   7.939   2.977 -0.9348  0.6732 -0.7337
  729MOL0     H98366  10.430   7.981   2.704 -0.2713 -0.4028  0.4328
  729MOL0     H98367  10.428   8.032   2.451 -0.1737 -1.8872  1.7378
  729MOL0     H98368  10.305   7.927   2.388  0.3130 -1.5811  2.4078
  729MOL0     H98369  10.245   8.223   2.373  1.0229  0.3249 -0.7983
  729MOL0     H98370  10.326   8.131   2.239 -4.0532 -4.7016 -3.2923
  729MOL0     H98371  10.062   8.046   2.361 -0.7004  2.1210  0.4150
  729MOL0     H98372  10.127   7.990   2.208 -0.6360 -0.1083 -0.8353
  729MOL0     H98373  10.046   8.282   2.292  1.3176  2.1910 -2.2318
  729MOL0     H98374   9.964   8.165   2.174  0.6498 -1.4481  0.0601
  729MOL0     H98375   9.929   8.427   2.193 -2.0133  3.4133  0.2169
  729MOL0     H98376   9.876   8.643   2.091  0.4605  1.3263 -1.0226
  729MOL0     H98377  10.147   8.886   1.543  1.8437  0.9529  1.1516
  729MOL0     H98378  10.118   9.101   1.422 -2.2952  1.8657 -2.1399
  729MOL0     H98379   9.998   9.497   1.496  0.6631  0.6291  0.7866
  729MOL0     H98380  10.090   9.403   1.613  1.3568 -0.0281 -1.3796
  729MOL0     H98381  10.264   9.366   1.473  2.0904 -0.2514 -1.4392
  729MOL0     H98382  10.151   9.307   1.350 -0.5449 -1.2968  2.3952
  729MOL0     H98383  10.210   9.606   1.399 -3.0107 -1.9125  3.8493
  729MOL0     H98384  10.293   9.512   1.274 -1.4045  0.9595 -3.5550
  729MOL0     H98385  10.000   9.548   1.282 -0.4062  1.2580 -0.1617
  729MOL0     H98386  10.090   9.467   1.151  1.8104  0.2680  0.0513
  729MOL0     H98387  10.215   9.682   1.104 -0.7591  2.0660 -1.0911
  729MOL0     H98388  10.116   9.769   1.216  1.2902  0.2543 -0.9012
  729MOL0     H98389  10.010   9.629   0.972 -0.2307 -1.6982  1.8879
  729MOL0     H98390   9.923   9.732   1.096 -0.4083  0.2525  0.5651
  729MOL0     H98391  10.048   9.922   1.051 -0.5547 -1.4607  2.2540
  729MOL0     H98392   9.981   9.854   0.891  1.3358 -1.5839 -1.1554
  729MOL0     H98393  10.188   9.965   0.867  2.0662  0.1212 -0.4803
  729MOL0     H98394  10.263   9.869   0.978 -1.3568  2.1190  1.5881
  729MOL0     H98395   9.855   9.242   1.733  0.6420 -0.3718  0.1223
  729MOL0     H98396   9.892   9.022   1.855  1.0429  2.8097  0.8870
  729MOL0     H98397  10.141   8.558   1.766  1.7671 -2.7200 -0.8251
  729MOL0     H98398  10.192   8.341   1.875 -2.3149 -3.1731  0.4407
  729MOL0     H98399  10.487   8.802   3.545  0.2764 -4.9913 -2.3589
  729MOL0     H98400  10.634   8.979   3.671  1.0783  0.9913 -4.0067
  729MOL0     H98401  11.207   9.068   3.694  1.1928 -1.5865  1.3776
  729MOL0     H98402  11.360   9.228   3.834 -0.7695  3.2355 -0.5012
  729MOL0     H98403  11.231   9.296   4.214 -2.0499  0.4576 -1.9948
  729MOL0     H98404  11.208   9.463   4.179  0.2293  0.6034 -1.6135
  729MOL0     H98405  11.423   9.526   4.240  0.2392 -0.1745 -1.6486
  729MOL0     H98406  11.487   9.416   4.120 -0.3061 -3.5153 -0.5837
  729MOL0     H98407  11.476   9.232   4.294  1.7577 -0.4907  2.8346
  729MOL0     H98408  11.398   9.347   4.404  1.3441 -1.6608  1.0043
  729MOL0     H98409  11.636   9.299   4.461  2.1368  1.8943  0.0675
  729MOL0     H98410  11.667   9.374   4.303  0.4339 -2.7011  0.5230
  729MOL0     H98411  11.546   9.694   4.588 -0.6441  0.8238 -1.4742
  729MOL0     H98412  11.036   9.296   4.091 -1.0809 -1.5132  0.6717
  729MOL0     H98413  10.788   9.165   3.906  0.9651  0.3737 -0.2226
  729MOL0     H98414  10.828   9.094   4.059 -1.1128  0.6168  0.0435
  729MOL0     H98415  10.831   9.274   4.021 -2.2737  0.0674 -1.9608
  730MOL0     O98416   0.157   9.334   9.718  0.0013 -1.1525 -0.9599
  730MOL0     C98417   0.157   9.284   9.606 -0.0340 -0.7906 -1.0306
  730MOL0     O98418   0.146   9.349   9.484  0.6857 -0.2299 -0.2475
  730MOL0     C98419   0.089   9.473   9.476  0.3878  0.1478  0.3548
  730MOL0     C98420  -0.001   9.531   9.572 -0.3662  0.2139 -0.1946
  730MOL0     C98421  -0.047   9.658   9.568  0.2460  0.1226  0.0635
  730MOL0     C98422  -0.004   9.741   9.460 -0.3757 -0.9063 -0.1657
  730MOL0     O98423  -0.042   9.875   9.445 -0.0269  1.4047  0.0045
  730MOL0     C98424   0.071   9.963   9.463  0.4157 -0.0319  0.6303
  730MOL0     C98425   0.039  10.106   9.434  0.6798 -0.1932 -0.1867
  730MOL0     C98426  -0.016  10.182   9.554 -0.0406 -0.0800 -0.4869
  730MOL0     C98427  -0.044  10.328   9.511 -0.6961 -0.1470 -0.2287
  730MOL0     C98428  -0.136  10.415   9.595 -0.1841  0.0350  0.0283
  730MOL0     C98429  -0.262  10.340   9.635  0.6143 -0.0294  0.3091
  730MOL0     C98430  -0.358  10.428   9.724 -0.0735  1.4302 -0.1306
  730MOL0     C98431  -0.426  10.540   9.649  0.0794 -0.3556  0.2583
  730MOL0     N98432  -0.450  10.664   9.728 -0.2365 -0.1988 -0.2299
  730MOL0     C98433  -0.348  10.752   9.755 -0.7314 -0.3728 -0.7572
  730MOL0     C98434  -0.412  10.840   9.833 -0.0959  0.4560  0.7296
  730MOL0     C98435  -0.354  10.965   9.890 -0.1189 -0.9314 -0.2530
  730MOL0     C98436  -0.345  11.079   9.793  0.1022  0.5657 -1.0774
  730MOL0     C98437  -0.463  11.091   9.694 -0.3922  0.4340  0.3116
  730MOL0     C98438  -0.477  11.243   9.658  0.6646 -0.1933  0.1322
  730MOL0     O98439  -0.612  11.291   9.607  0.0938  0.2282 -0.3980
  730MOL0     C98440  -0.651  11.260   9.480 -0.2571 -0.6593 -0.2108
  730MOL0     C98441  -0.597  11.184   9.376 -0.1031  0.2976  0.0610
  730MOL0     C98442  -0.681  11.147   9.269  0.1785  0.0065  0.5675
  730MOL0     C98443  -0.814  11.195   9.256  0.0208 -0.5010 -0.2798
  730MOL0     C98444  -0.891  11.143   9.144  0.5410 -0.1148  0.3906
  730MOL0     O98445  -1.020  11.202   9.136 -0.0488  0.1150  0.5518
  730MOL0     C98446  -1.093  11.172   9.027 -1.5545  0.6471  0.2313
  730MOL0     C98447  -1.047  11.217   8.901  0.2893 -0.0736 -0.6297
  730MOL0     C98448  -1.118  11.214   8.783  0.3632 -0.3068  0.5709
  730MOL0     C98449  -1.247  11.178   8.783 -0.4226 -0.8467  0.5583
  730MOL0     O98450  -1.337  11.199   8.674  0.0960  0.0747  0.0834
  730MOL0     C98451  -1.279  11.165   8.547  0.6313  0.0111  0.0107
  730MOL0     C98452  -1.377  11.203   8.439 -0.2370  0.0937 -0.8019
  730MOL0     C98453  -1.314  11.178   8.300  0.1082  0.1783  0.3261
  730MOL0     C98454  -1.423  11.180   8.195 -0.0975 -0.6327  0.3855
  730MOL0     C98455  -1.372  11.195   8.046 -0.0243  0.0968 -0.4007
  730MOL0     C98456  -1.319  11.060   8.009 -0.4034 -0.8973  0.3671
  730MOL0     C98457  -1.432  10.961   7.955 -0.0340 -0.1318 -0.3494
  730MOL0     C98458  -1.377  10.831   7.907  0.7581 -0.2263 -0.3001
  730MOL0    Cl98459  -1.257  10.875   7.783 -0.4080  0.2557 -0.8467
  730MOL0     C98460  -1.293  11.127   8.898 -0.0392  0.6393 -0.4920
  730MOL0     C98461  -1.225  11.116   9.020 -0.6941 -0.1314 -0.1175
  730MOL0     O98462  -0.841  11.062   9.070  0.1966 -0.5336  0.0053
  730MOL0     C98463  -0.853  11.285   9.350  0.8165 -0.2075  0.0160
  730MOL0     C98464  -0.784  11.308   9.464 -0.3761  0.2240 -0.5049
  730MOL0     N98465  -0.543  10.811   9.866 -0.9690  0.0687 -0.2428
  730MOL0     N98466  -0.559  10.700   9.799 -0.2706  0.2637 -0.1113
  730MOL0     C98467   0.082   9.677   9.364  0.2396 -0.5197 -0.1512
  730MOL0     C98468   0.122   9.547   9.367 -0.3528  0.5452  0.7345
  730MOL0     C98469   0.202   9.141   9.597  0.5362 -0.4339 -0.5440
  730MOL0     C98470   0.301   9.099   9.500 -0.4881 -0.3246  0.3523
  730MOL0     C98471   0.346   8.965   9.495  0.1408  0.0254 -0.0623
  730MOL0     C98472   0.294   8.867   9.578 -0.2706 -0.0021  0.2135
  730MOL0     O98473   0.332   8.745   9.562 -0.9500 -0.2391 -1.1167
  730MOL0     C98474   0.318   8.650   9.668 -0.3738  0.6114  0.0411
  730MOL0     C98475   0.203   8.561   9.643 -0.1983  0.3600 -0.2441
  730MOL0     C98476   0.177   8.480   9.765  0.1852 -0.2269 -0.6208
  730MOL0     C98477   0.057   8.394   9.740 -0.6871  0.3645  0.6570
  730MOL0     C98478  -0.065   8.480   9.749  0.2647  2.0128  0.2580
  730MOL0     C98479  -0.170   8.550   9.751 -1.2191 -0.8535  0.0059
  730MOL0     C98480   0.192   8.909   9.667 -0.2732  0.3386  0.7213
  730MOL0     C98481   0.152   9.037   9.680 -0.0208 -0.3574  0.3964
  730MOL0     C98482   0.046   9.084   9.780  0.0056  1.2046 -0.6067
  730MOL0     H98483  -0.059   9.473   9.644 -1.8459  1.9984  0.1270
  730MOL0     H98484  -0.116   9.677   9.649 -1.6882  0.6168 -1.6003
  730MOL0     H98485   0.115   9.953   9.563  1.3298 -0.9208  0.1527
  730MOL0     H98486   0.156   9.937   9.399  3.5118 -1.1592  4.7638
  730MOL0     H98487  -0.041  10.104   9.359  0.7952  2.6988 -0.5012
  730MOL0     H98488   0.125  10.161   9.397 -0.5776  2.3779  0.4373
  730MOL0     H98489   0.061  10.189   9.632  1.4843 -1.0751 -1.8295
  730MOL0     H98490  -0.097  10.123   9.597 -0.0359  1.8842  2.4567
  730MOL0     H98491   0.050  10.381   9.493  1.4326 -3.7611 -0.5838
  730MOL0     H98492  -0.091  10.321   9.412  1.8929 -3.1321 -1.4007
  730MOL0     H98493  -0.078  10.446   9.683 -0.0581 -1.7368  0.6117
  730MOL0     H98494  -0.179  10.501   9.542 -1.7841 -0.7002  0.0818
  730MOL0     H98495  -0.304  10.303   9.541  0.3912 -1.1632  0.8415
  730MOL0     H98496  -0.245  10.253   9.698 -3.0292 -1.5712 -0.5645
  730MOL0     H98497  -0.311  10.458   9.818  1.0754 -2.0238  0.5411
  730MOL0     H98498  -0.432  10.355   9.759 -1.0319  1.7485 -1.3856
  730MOL0     H98499  -0.358  10.554   9.565  2.1790 -3.3558  1.2751
  730MOL0     H98500  -0.524  10.501   9.619 -0.2673  1.7849 -1.6698
  730MOL0     H98501  -0.243  10.752   9.728 -0.6217 -1.7110 -0.3848
  730MOL0     H98502  -0.428  10.995   9.965  0.8199 -0.0073  0.3297
  730MOL0     H98503  -0.253  10.955   9.930 -0.0544  0.1109 -0.1123
  730MOL0     H98504  -0.326  11.166   9.857  4.2169 -2.0860  1.8168
  730MOL0     H98505  -0.249  11.079   9.739 -0.0551 -1.2992 -1.4208
  730MOL0     H98506  -0.555  11.040   9.724 -0.5608  0.0320 -0.8338
  730MOL0     H98507  -0.436  11.044   9.599 -1.6584 -0.3209  0.3045
  730MOL0     H98508  -0.420  11.267   9.567 -0.4011  1.6501 -0.1020
  730MOL0     H98509  -0.453  11.307   9.743  1.9593 -0.9141  0.3325
  730MOL0     H98510  -0.495  11.148   9.374 -0.3889 -0.6433 -2.7374
  730MOL0     H98511  -0.643  11.084   9.189  0.0525  0.7049 -0.0538
  730MOL0     H98512  -0.944  11.252   8.901  1.2904 -2.8088 -0.6894
  730MOL0     H98513  -1.087  11.278   8.701 -2.8329  1.7056  0.7561
  730MOL0     H98514  -1.198  11.235   8.527  0.2524  0.2497 -0.7171
  730MOL0     H98515  -1.262  11.057   8.554  3.0563  0.3783  0.6153
  730MOL0     H98516  -1.472  11.151   8.456 -2.7272  4.4046 -0.0643
  730MOL0     H98517  -1.405  11.308   8.447 -1.1627 -0.2654  1.3765
  730MOL0     H98518  -1.238  11.254   8.280 -0.8940  1.2924  0.6132
  730MOL0     H98519  -1.263  11.081   8.303  0.2123  0.2466  0.8253
  730MOL0     H98520  -1.469  11.276   8.220  1.1957 -0.5617  2.8569
  730MOL0     H98521  -1.486  11.094   8.219 -1.1599 -0.5220 -1.8573
  730MOL0     H98522  -1.292  11.269   8.045 -0.7940  1.0197  1.2939
  730MOL0     H98523  -1.452  11.215   7.975 -1.1297  0.3497  0.8599
  730MOL0     H98524  -1.247  11.076   7.928 -1.3882 -1.4997 -0.6580
  730MOL0     H98525  -1.272  11.007   8.093  0.6432 -2.6877 -1.2696
  730MOL0     H98526  -1.479  11.019   7.875 -0.0480  0.4300  0.0629
  730MOL0     H98527  -1.504  10.940   8.034 -1.9520  0.5935 -1.8319
  730MOL0     H98528  -1.329  10.772   7.985 -0.5753 -0.7616  0.1464
  730MOL0     H98529  -1.445  10.755   7.868  1.2501 -1.8314  1.7790
  730MOL0     H98530  -1.392  11.084   8.879  1.3168 -1.4789 -3.7457
  730MOL0     H98531  -1.265  11.070   9.110 -0.0083 -0.0943  0.2110
  730MOL0     H98532  -0.954  11.324   9.354  1.4128  1.4223 -0.1428
  730MOL0     H98533  -0.834  11.376   9.533  0.4214  3.0110 -2.5058
  730MOL0     H98534   0.117   9.741   9.284  1.8474  3.0511  3.0480
  730MOL0     H98535   0.176   9.502   9.285 -1.4353  2.1815 -0.9532
  730MOL0     H98536   0.343   9.169   9.428 -0.4919  0.1153  0.7743
  730MOL0     H98537   0.434   8.947   9.434  0.1125  0.1228 -0.1335
  730MOL0     H98538   0.318   8.707   9.761  1.6554 -1.5249  1.4813
  730MOL0     H98539   0.393   8.571   9.659 -1.6562 -0.6807  0.3161
  730MOL0     H98540   0.226   8.499   9.556 -2.8001 -4.0406  1.8647
  730MOL0     H98541   0.114   8.621   9.618  0.0027  0.2459 -1.2644
  730MOL0     H98542   0.150   8.547   9.848 -0.3475 -0.3172 -0.7148
  730MOL0     H98543   0.266   8.427   9.800  1.7559  2.7269  0.1963
  730MOL0     H98544   0.062   8.345   9.643 -0.6365 -2.3381  1.9295
  730MOL0     H98545   0.048   8.313   9.813 -3.1445 -0.4330 -0.4466
  730MOL0     H98546  -0.260   8.603   9.729 -2.6997 -2.8280  1.0286
  730MOL0     H98547   0.157   8.847   9.749 -2.4304 -2.3506 -1.9911
  730MOL0     H98548   0.081   9.135   9.870 -0.3484 -1.6652  1.3170
  730MOL0     H98549  -0.034   9.137   9.728 -0.3224  0.4129 -0.9206
  730MOL0     H98550   0.009   8.988   9.819 -0.0898  1.0074 -1.1685
  731MOL0     O98551  11.487   1.632   6.621  0.1885 -0.1133  0.6289
  731MOL0     C98552  11.556   1.630   6.522 -0.3576 -0.5319 -0.4224
  731MOL0     O98553  11.639   1.728   6.481  0.5359  0.6634 -0.5799
  731MOL0     C98554  11.636   1.847   6.547 -0.2259 -0.9854 -0.0497
  731MOL0     C98555  11.749   1.888   6.620  1.0545  0.1018  0.0402
  731MOL0     C98556  11.750   2.003   6.706 -0.1341  0.0103  1.2072
  731MOL0     C98557  11.636   2.081   6.713 -1.0097 -1.1433 -0.0008
  731MOL0     O98558  11.622   2.211   6.772  0.6035  0.0890  0.6222
  731MOL0     C98559  11.731   2.263   6.850  0.3749 -0.3826 -0.9871
  731MOL0     C98560  11.702   2.390   6.932 -0.4106 -0.6191  0.2856
  731MOL0     C98561  11.610   2.365   7.049  0.4236  0.3983 -0.8123
  731MOL0     C98562  11.619   2.480   7.148 -0.4552  0.4335 -0.5972
  731MOL0     C98563  11.579   2.435   7.296 -0.3367  0.1676  0.3631
  731MOL0     C98564  11.583   2.557   7.393 -0.5735  0.3215  0.4455
  731MOL0     C98565  11.711   2.596   7.462 -0.1748 -0.0559 -0.0733
  731MOL0     C98566  11.745   2.541   7.595  0.0879  0.1392  0.5539
  731MOL0     N98567  11.872   2.591   7.657 -0.1378 -0.9745 -0.1586
  731MOL0     C98568  12.001   2.550   7.629  0.3622  0.1232  0.1180
  731MOL0     C98569  12.078   2.657   7.687  0.1986  0.0648 -0.4686
  731MOL0     C98570  12.224   2.673   7.667 -0.3013 -0.4823  0.2717
  731MOL0     C98571  12.313   2.801   7.684  0.4499  1.3903  0.2429
  731MOL0     C98572  12.319   2.832   7.832  0.1701 -0.1784 -0.6898
  731MOL0     C98573  12.419   2.751   7.925 -0.5180 -0.0195  0.0525
  731MOL0     O98574  12.405   2.774   8.070  0.2922 -0.4545 -0.3001
  731MOL0     C98575  12.298   2.708   8.128  1.0570 -0.0021  0.2776
  731MOL0     C98576  12.224   2.597   8.072 -0.5977  0.4097 -0.5884
  731MOL0     C98577  12.121   2.546   8.157 -0.1921  0.2723 -1.1665
  731MOL0     C98578  12.079   2.611   8.275 -0.1004  0.4232  0.6491
  731MOL0     C98579  11.967   2.554   8.356 -0.5481  0.0549 -0.8191
  731MOL0     O98580  11.890   2.641   8.436 -0.6400  0.5709 -0.4849
  731MOL0     C98581  11.768   2.592   8.481 -0.7798  0.7118 -0.5218
  731MOL0     C98582  11.759   2.483   8.561  0.2628 -0.3975 -0.2120
  731MOL0     C98583  11.635   2.448   8.615 -0.4929 -0.2876  0.8002
  731MOL0     C98584  11.528   2.527   8.592  1.2078  0.3241 -0.6300
  731MOL0     O98585  11.410   2.471   8.641  0.5250  0.9526  0.0680
  731MOL0     C98586  11.295   2.571   8.643 -0.4572  0.8019 -0.6619
  731MOL0     C98587  11.181   2.519   8.730 -0.7482  0.4260  0.0704
  731MOL0     C98588  11.143   2.378   8.671  0.7512  0.1672  0.4013
  731MOL0     C98589  10.997   2.361   8.710  0.4473  0.4007 -0.1818
  731MOL0     C98590  10.974   2.210   8.699 -0.7153  0.5647 -0.9877
  731MOL0     C98591  10.842   2.168   8.748 -0.5120 -0.7610  0.4531
  731MOL0     C98592  10.819   2.015   8.753  0.5333 -0.8475  0.7197
  731MOL0     C98593  10.727   1.965   8.861 -0.0843 -0.4233 -0.5998
  731MOL0    Cl98594  10.691   1.797   8.851 -0.5233  0.5795 -0.1661
  731MOL0     C98595  11.543   2.651   8.530 -0.1606  0.2828  0.1664
  731MOL0     C98596  11.667   2.674   8.467 -0.8109  0.4848  0.1419
  731MOL0     O98597  11.955   2.435   8.368  0.1895  0.8654 -0.7621
  731MOL0     C98598  12.143   2.724   8.321 -0.6827 -0.5371  0.3751
  731MOL0     C98599  12.247   2.771   8.248  0.2912 -0.2379 -0.2581
  731MOL0     N98600  11.991   2.752   7.745 -0.7680 -0.2079 -0.6713
  731MOL0     N98601  11.868   2.716   7.725  0.7900  0.1990 -1.0902
  731MOL0     C98602  11.523   2.035   6.644  0.2034  0.2004  0.2846
  731MOL0     C98603  11.524   1.925   6.564  0.6197 -0.1183 -0.1573
  731MOL0     C98604  11.548   1.519   6.442 -0.5787  0.5186 -0.3356
  731MOL0     C98605  11.654   1.499   6.350 -0.0696  0.9024  0.1899
  731MOL0     C98606  11.658   1.380   6.263  0.7043 -1.0184 -0.2330
  731MOL0     C98607  11.562   1.285   6.274 -0.0347  0.0347 -0.2455
  731MOL0     O98608  11.574   1.171   6.208  0.6829  0.5645  0.3306
  731MOL0     C98609  11.461   1.084   6.186  0.2596 -0.3217  0.1405
  731MOL0     C98610  11.358   1.127   6.078  0.5209 -0.1919  0.6325
  731MOL0     C98611  11.395   1.121   5.939 -0.2494  0.0776  0.3924
  731MOL0     C98612  11.284   1.177   5.851  0.3110 -0.2199  0.1596
  731MOL0     C98613  11.328   1.153   5.714  0.2602 -0.0926  0.1784
  731MOL0     C98614  11.375   1.144   5.598  0.1989 -0.1337 -0.6055
  731MOL0     C98615  11.447   1.315   6.350 -0.2065 -0.8167 -0.6453
  731MOL0     C98616  11.434   1.427   6.434 -0.5053  0.7310 -0.0840
  731MOL0     C98617  11.304   1.443   6.509 -1.1401 -0.7765 -0.2907
  731MOL0     H98618  11.847   1.846   6.598  0.6120 -1.1827  0.3755
  731MOL0     H98619  11.849   2.035   6.737  0.2606 -1.6382  1.7422
  731MOL0     H98620  11.789   2.192   6.909  1.9947 -0.3982 -2.5018
  731MOL0     H98621  11.805   2.285   6.772  3.1280 -4.6869  0.0499
  731MOL0     H98622  11.678   2.476   6.868  1.6651 -0.0106  0.2320
  731MOL0     H98623  11.799   2.413   6.976 -1.3577  1.1992  1.5300
  731MOL0     H98624  11.650   2.278   7.102  1.4495  1.1890 -0.2413
  731MOL0     H98625  11.504   2.362   7.024 -0.1549  0.6898  1.4372
  731MOL0     H98626  11.713   2.535   7.157 -0.8566  1.0415  0.0205
  731MOL0     H98627  11.549   2.560   7.124  0.0292  1.8283  2.1872
  731MOL0     H98628  11.477   2.395   7.300 -1.8492  3.6532 -0.1454
  731MOL0     H98629  11.647   2.355   7.326  2.3624  2.0505 -0.3791
  731MOL0     H98630  11.535   2.639   7.338 -1.4124 -0.5865 -0.2003
  731MOL0     H98631  11.510   2.540   7.473 -0.4694  1.3028  0.7626
  731MOL0     H98632  11.700   2.704   7.472 -0.6028 -0.1123  0.0936
  731MOL0     H98633  11.793   2.569   7.395  0.5188  1.4507  0.1262
  731MOL0     H98634  11.658   2.566   7.656 -1.2035 -3.6300  0.4909
  731MOL0     H98635  11.743   2.432   7.588  2.7411 -0.1787  2.8449
  731MOL0     H98636  12.031   2.464   7.569 -3.0237 -0.0908 -1.4687
  731MOL0     H98637  12.272   2.599   7.732  0.0348  0.5606  1.2384
  731MOL0     H98638  12.248   2.641   7.565 -0.8805 -1.8770  0.5549
  731MOL0     H98639  12.416   2.786   7.650  0.9456  1.8338  1.5216
  731MOL0     H98640  12.280   2.883   7.620  0.6751  1.2906 -0.0032
  731MOL0     H98641  12.224   2.847   7.885  1.2970  2.4548  0.8559
  731MOL0     H98642  12.356   2.935   7.829  2.1732 -0.8672 -1.9526
  731MOL0     H98643  12.519   2.792   7.909 -1.8988  3.0349 -1.4713
  731MOL0     H98644  12.423   2.645   7.898  2.0209 -0.2595  1.0156
  731MOL0     H98645  12.231   2.545   7.977  0.6067 -1.6897  0.5807
  731MOL0     H98646  12.061   2.459   8.129 -0.6516  0.4524 -0.7601
  731MOL0     H98647  11.844   2.417   8.578  0.3355 -0.3546 -0.4141
  731MOL0     H98648  11.619   2.364   8.682 -0.9983 -0.2260  0.7648
  731MOL0     H98649  11.328   2.664   8.690  0.4484  0.6266 -0.9318
  731MOL0     H98650  11.272   2.598   8.540 -0.7755  0.6562 -0.6296
  731MOL0     H98651  11.220   2.512   8.832  0.7571  2.8785 -0.2465
  731MOL0     H98652  11.099   2.590   8.743  0.2090  1.2949  1.7559
  731MOL0     H98653  11.144   2.362   8.563 -1.7253 -1.0362  0.4788
  731MOL0     H98654  11.212   2.311   8.724  0.1274  1.7187  3.4067
  731MOL0     H98655  10.943   2.424   8.639  2.1920 -0.1085 -2.0524
  731MOL0     H98656  10.960   2.388   8.809 -2.5455 -1.0434 -0.8197
  731MOL0     H98657  11.052   2.151   8.748 -1.8308  1.3170  1.8833
  731MOL0     H98658  10.977   2.188   8.592 -0.9449  1.7096 -1.2402
  731MOL0     H98659  10.823   2.202   8.850  1.0546 -2.3866  1.3481
  731MOL0     H98660  10.758   2.210   8.693  0.1896  0.8941  0.5822
  731MOL0     H98661  10.917   1.970   8.773  1.1114  0.5040  1.0257
  731MOL0     H98662  10.783   1.982   8.655 -0.9024  3.2068 -0.3080
  731MOL0     H98663  10.763   1.990   8.961 -0.8959 -0.6395 -0.2442
  731MOL0     H98664  10.630   2.017   8.859 -0.0079  0.0168  2.5872
  731MOL0     H98665  11.466   2.727   8.518 -0.1537  0.5925  1.7842
  731MOL0     H98666  11.667   2.765   8.407 -3.7946 -0.5378 -1.6512
  731MOL0     H98667  12.109   2.783   8.406  0.6358  1.8743 -0.6819
  731MOL0     H98668  12.284   2.870   8.272 -0.7189  0.0187  0.3150
  731MOL0     H98669  11.429   2.088   6.643  0.3285  0.6871  3.2800
  731MOL0     H98670  11.433   1.916   6.507  0.4710  0.4334 -0.0107
  731MOL0     H98671  11.730   1.572   6.323  0.9996 -0.7713 -1.6090
  731MOL0     H98672  11.748   1.368   6.204 -0.3609 -0.1659 -2.1269
  731MOL0     H98673  11.421   1.062   6.285  0.2068 -0.7289  0.0317
  731MOL0     H98674  11.498   0.992   6.139 -4.0982 -2.2680  0.0746
  731MOL0     H98675  11.311   1.223   6.100  1.2638 -0.1471  2.2409
  731MOL0     H98676  11.275   1.057   6.087 -0.0281  0.5276  1.2818
  731MOL0     H98677  11.423   1.020   5.910 -0.9505  0.4698 -1.8618
  731MOL0     H98678  11.482   1.186   5.930  0.7736 -1.2663  0.3642
  731MOL0     H98679  11.190   1.129   5.880 -0.2754 -0.3241 -1.7682
  731MOL0     H98680  11.283   1.286   5.862  2.6930  0.3708 -3.5694
  731MOL0     H98681  11.431   1.145   5.506  2.4688 -2.8930  0.6007
  731MOL0     H98682  11.365   1.244   6.349  0.8020 -2.0064 -0.6400
  731MOL0     H98683  11.312   1.443   6.618 -0.4366 -0.9310 -0.3363
  731MOL0     H98684  11.267   1.545   6.494 -1.9556 -0.6627  2.0163
  731MOL0     H98685  11.223   1.384   6.464 -1.8102  2.9228 -4.7066
  732MOL0     O98686  11.010  10.359   6.063  0.5151 -0.1011  0.1724
  732MOL0     C98687  10.910  10.345   6.125 -0.1616 -0.1680 -0.3745
  732MOL0     O98688  10.847  10.228   6.147 -0.3954  0.2317  0.4637
  732MOL0     C98689  10.918  10.119   6.119  0.1688  0.8621  0.1232
  732MOL0     C98690  10.912  10.079   5.981 -0.9114 -0.3885  0.0190
  732MOL0     C98691  10.964   9.958   5.950  0.1405  0.5269 -0.2188
  732MOL0     C98692  11.039   9.878   6.038  0.6436 -0.5647  0.5505
  732MOL0     O98693  11.086   9.766   5.984 -0.4857  0.2101 -0.6257
  732MOL0     C98694  11.150   9.673   6.080  0.2687 -1.1091  0.5122
  732MOL0     C98695  11.304   9.674   6.093 -0.1604 -0.9168 -0.3519
  732MOL0     C98696  11.364   9.725   5.960 -1.0025 -0.3963  0.4647
  732MOL0     C98697  11.510   9.749   5.975 -0.7588 -0.6580  0.1874
  732MOL0     C98698  11.579   9.765   5.839 -1.4304 -0.0828 -0.1820
  732MOL0     C98699  11.718   9.837   5.846 -0.1566  1.4244  0.2797
  732MOL0     C98700  11.777   9.826   5.694  0.3644  0.8375 -0.5440
  732MOL0     C98701  11.860   9.954   5.670 -0.2841 -0.1623  0.0665
  732MOL0     N98702  11.920   9.967   5.542 -0.1949  0.1325  0.9640
  732MOL0     C98703  11.897  10.050   5.435  0.5723  0.5950  0.5684
  732MOL0     C98704  11.976  10.014   5.332  0.3648  1.5354  0.4777
  732MOL0     C98705  11.966  10.080   5.194  0.2213 -0.1535 -0.3848
  732MOL0     C98706  11.900   9.998   5.076 -0.2439 -0.2649 -0.0532
  732MOL0     C98707  11.761   9.942   5.112 -0.0830 -0.0723  0.5813
  732MOL0     C98708  11.694   9.834   5.021 -0.4728  0.2915  0.9376
  732MOL0     O98709  11.565   9.812   5.073  0.7854  0.3049  0.2639
  732MOL0     C98710  11.497   9.694   5.031  0.0204  0.1449 -0.0904
  732MOL0     C98711  11.395   9.649   5.116  0.2605  0.1598 -0.5101
  732MOL0     C98712  11.297   9.553   5.067  0.2789  0.2601  0.1256
  732MOL0     C98713  11.315   9.489   4.945 -0.2435 -0.0405 -0.1346
  732MOL0     C98714  11.219   9.395   4.900 -0.4491 -1.0248  0.0643
  732MOL0     O98715  11.124   9.370   4.989  0.0251  0.2361 -0.0261
  732MOL0     C98716  10.999   9.313   4.956 -0.6413  0.2304 -1.4741
  732MOL0     C98717  10.932   9.253   5.059 -0.2591  0.0952  0.3144
  732MOL0     C98718  10.798   9.217   5.047 -0.6213  0.5661  0.4207
  732MOL0     C98719  10.738   9.231   4.924  0.8174  0.1075 -0.3411
  732MOL0     O98720  10.604   9.203   4.921  0.2903  0.7277  0.4395
  732MOL0     C98721  10.522   9.222   4.805 -0.4632 -0.2772 -0.5258
  732MOL0     C98722  10.499   9.084   4.731  0.0094  0.5959  0.6179
  732MOL0     C98723  10.367   9.090   4.649  0.3186 -0.7224  0.1481
  732MOL0     C98724  10.342   8.956   4.564  0.2299 -0.0894 -0.6610
  732MOL0     C98725  10.208   8.955   4.486  0.0251  0.2466 -0.1837
  732MOL0     C98726  10.175   8.808   4.446 -0.1438  0.2649 -1.0336
  732MOL0     C98727  10.048   8.812   4.379 -0.9992  0.5177  0.0593
  732MOL0     C98728  10.009   8.676   4.337 -0.2788  0.8611  0.0328
  732MOL0    Cl98729   9.923   8.677   4.180 -0.0632 -0.3408  0.4290
  732MOL0     C98730  10.813   9.284   4.812 -0.5893 -0.7098 -0.1399
  732MOL0     C98731  10.944   9.327   4.830  0.3608  0.7298 -0.9149
  732MOL0     O98732  11.241   9.334   4.797 -0.4719  0.0184  0.2349
  732MOL0     C98733  11.421   9.537   4.868 -0.9647 -0.1273  0.2669
  732MOL0     C98734  11.503   9.640   4.904  0.2588  0.3904  0.5821
  732MOL0     N98735  12.048   9.906   5.367  0.4127 -0.6862  0.1335
  732MOL0     N98736  12.004   9.869   5.489 -1.7890  0.6111  0.3139
  732MOL0     C98737  11.052   9.927   6.172  0.5858  0.3818  0.1741
  732MOL0     C98738  10.987  10.043   6.210 -1.1673  0.1992  0.8560
  732MOL0     C98739  10.841  10.460   6.175 -0.2869  0.5874 -0.7086
  732MOL0     C98740  10.812  10.468   6.311 -1.2120  0.7282  0.4313
  732MOL0     C98741  10.737  10.568   6.365  0.0495  0.1927 -0.6259
  732MOL0     C98742  10.695  10.672   6.281  0.4548 -0.0855  0.3532
  732MOL0     O98743  10.618  10.770   6.334  0.3004 -0.6191 -0.0985
  732MOL0     C98744  10.672  10.906   6.293  0.3225  0.4763  0.6246
  732MOL0     C98745  10.616  11.010   6.383  0.0506  0.2701  0.4181
  732MOL0     C98746  10.714  11.066   6.495 -0.2556 -0.5480  0.6471
  732MOL0     C98747  10.643  11.151   6.600  0.0606  0.1848 -0.1152
  732MOL0     C98748  10.745  11.237   6.673  0.3004 -0.4998 -0.8344
  732MOL0     C98749  10.828  11.290   6.746 -0.2389  0.1945 -0.8887
  732MOL0     C98750  10.734  10.673   6.142 -0.0251 -0.2942 -0.9553
  732MOL0     C98751  10.806  10.567   6.091 -0.3024  0.6180  0.3557
  732MOL0     C98752  10.855  10.582   5.951  0.2212 -0.1158  0.3062
  732MOL0     H98753  10.847  10.126   5.907  0.5723 -1.4378 -2.0469
  732MOL0     H98754  10.954   9.928   5.846  2.8627  0.6428 -0.5918
  732MOL0     H98755  11.093   9.680   6.173 -2.3296  3.7304 -1.0368
  732MOL0     H98756  11.127   9.575   6.037 -6.2961  0.1754 -0.0530
  732MOL0     H98757  11.344   9.575   6.117  1.1854  0.4475  3.9736
  732MOL0     H98758  11.335   9.735   6.178 -0.3149 -2.7850  1.1165
  732MOL0     H98759  11.318   9.810   5.909  3.9082  2.0384 -0.5937
  732MOL0     H98760  11.368   9.640   5.892  1.1747 -0.9079  1.1318
  732MOL0     H98761  11.519   9.835   6.042 -4.7403 -0.6082  0.8986
  732MOL0     H98762  11.554   9.667   6.034 -1.4940 -0.7903  0.5552
  732MOL0     H98763  11.594   9.662   5.805 -0.0386  0.0746 -0.1123
  732MOL0     H98764  11.510   9.813   5.770 -0.3662 -1.1913 -2.1112
  732MOL0     H98765  11.705   9.942   5.871 -1.4907  1.1657  0.7759
  732MOL0     H98766  11.798   9.787   5.902 -1.1744 -0.7017 -0.0406
  732MOL0     H98767  11.697   9.816   5.620 -0.0427 -3.6242  0.2083
  732MOL0     H98768  11.832   9.732   5.685 -0.7003 -0.2666  2.8481
  732MOL0     H98769  11.792  10.040   5.674 -0.3828 -0.2270 -0.1723
  732MOL0     H98770  11.938   9.951   5.747 -0.2761  3.3531  0.3456
  732MOL0     H98771  11.822  10.129   5.429 -1.0376 -0.8675  0.6360
  732MOL0     H98772  11.899  10.167   5.199  0.5123  0.0678 -0.3362
  732MOL0     H98773  12.067  10.118   5.178  0.4108 -0.7855 -0.7146
  732MOL0     H98774  11.886  10.057   4.985  0.6271 -2.3702 -1.6471
  732MOL0     H98775  11.968   9.917   5.048  0.4505  0.9871 -2.1810
  732MOL0     H98776  11.693  10.027   5.121 -1.1365 -0.8682  0.3393
  732MOL0     H98777  11.757   9.906   5.215  0.6590 -2.0394 -0.0243
  732MOL0     H98778  11.747   9.739   5.016 -1.8440 -0.4812  0.5089
  732MOL0     H98779  11.689   9.872   4.918  0.7262 -1.0232  0.3606
  732MOL0     H98780  11.379   9.698   5.211 -0.3975 -1.5902  0.3366
  732MOL0     H98781  11.227   9.515   5.141  1.8405 -0.5922  1.2171
  732MOL0     H98782  10.971   9.249   5.161  0.9361 -0.4434 -0.1502
  732MOL0     H98783  10.741   9.196   5.137 -1.0621 -2.7097 -0.4735
  732MOL0     H98784  10.421   9.259   4.827  0.0555  0.7488  0.1455
  732MOL0     H98785  10.566   9.288   4.730  2.2608 -1.3527  0.0273
  732MOL0     H98786  10.596   9.059   4.688  0.1776  0.4879  1.0514
  732MOL0     H98787  10.477   9.007   4.806  0.7706  0.9095  1.1807
  732MOL0     H98788  10.293   9.112   4.727  1.0113  4.1452 -0.2069
  732MOL0     H98789  10.367   9.175   4.580 -1.2266 -0.4982  0.3755
  732MOL0     H98790  10.354   8.874   4.635  2.6580  1.3147  0.6862
  732MOL0     H98791  10.425   8.937   4.495 -0.8265 -1.7225 -1.5458
  732MOL0     H98792  10.217   9.023   4.401  0.7686 -0.0014 -0.3064
  732MOL0     H98793  10.130   9.003   4.547 -0.1814 -1.3533  0.8649
  732MOL0     H98794  10.263   8.768   4.394 -0.3976  1.2828 -2.2624
  732MOL0     H98795  10.160   8.752   4.539  3.1332 -0.5418 -0.8484
  732MOL0     H98796  10.049   8.875   4.289  0.3100  0.8939  0.3123
  732MOL0     H98797   9.964   8.856   4.434 -0.9319  2.7848 -1.5206
  732MOL0     H98798  10.099   8.619   4.312 -1.7273 -0.9678 -1.2765
  732MOL0     H98799   9.953   8.634   4.421  2.5267  1.8676  2.5909
  732MOL0     H98800  10.758   9.283   4.718  0.6160 -2.8652 -0.8878
  732MOL0     H98801  10.995   9.382   4.752  1.2556 -0.6166 -1.3098
  732MOL0     H98802  11.432   9.502   4.766  0.7705 -1.0866  0.7295
  732MOL0     H98803  11.562   9.685   4.825 -1.4596  1.0247 -0.4180
  732MOL0     H98804  11.116   9.877   6.244  4.5897  4.1780 -0.3336
  732MOL0     H98805  11.014  10.086   6.306 -1.8017  2.5982  0.0243
  732MOL0     H98806  10.847  10.395   6.383 -0.6551 -1.8682 -2.2589
  732MOL0     H98807  10.695  10.577   6.464  0.9698 -2.1324  0.0533
  732MOL0     H98808  10.644  10.935   6.191  0.5372 -0.3281  0.3271
  732MOL0     H98809  10.781  10.909   6.307  0.2723  1.8462  0.8636
  732MOL0     H98810  10.524  10.973   6.428 -1.0883 -0.4456 -2.3444
  732MOL0     H98811  10.594  11.099   6.323  3.4113  1.6568  0.9763
  732MOL0     H98812  10.788  11.127   6.442  1.1580  0.2326  3.2857
  732MOL0     H98813  10.757  10.978   6.544  0.1519 -1.4539 -1.2813
  732MOL0     H98814  10.570  11.219   6.555 -1.1774 -1.0806 -0.1005
  732MOL0     H98815  10.596  11.086   6.674  1.2320  0.8467  1.2436
  732MOL0     H98816  10.899  11.336   6.813  1.4808 -0.9694 -1.8481
  732MOL0     H98817  10.681  10.748   6.085 -3.6723 -0.2605  2.0960
  732MOL0     H98818  10.804  10.509   5.888 -0.4327  1.2805 -0.8605
  732MOL0     H98819  10.829  10.675   5.899  1.6397 -1.4522 -3.1220
  732MOL0     H98820  10.963  10.573   5.944  0.0118 -1.9473 -1.2660
  733MOL0     O98821   2.521   7.475   2.958 -0.0613  0.7084 -0.2822
  733MOL0     C98822   2.415   7.534   2.961 -0.0590 -0.8658 -1.2508
  733MOL0     O98823   2.405   7.669   2.978  0.5792 -0.4336  0.8058
  733MOL0     C98824   2.284   7.732   2.971 -0.9402 -0.2801  0.1583
  733MOL0     C98825   2.211   7.722   2.856 -0.2310  0.4662  0.5310
  733MOL0     C98826   2.092   7.791   2.854  0.8134  0.2602 -1.0963
  733MOL0     C98827   2.051   7.868   2.961  0.3845 -0.4226 -0.0569
  733MOL0     O98828   1.930   7.935   2.961  0.1472 -0.7637 -0.6539
  733MOL0     C98829   1.821   7.850   2.945  0.1539  0.1421 -0.3712
  733MOL0     C98830   1.738   7.858   3.068 -0.9218 -0.9083 -0.5768
  733MOL0     C98831   1.747   8.003   3.137  0.8716  1.2184  0.1073
  733MOL0     C98832   1.631   8.011   3.242 -0.2170 -0.3378 -1.1836
  733MOL0     C98833   1.683   8.116   3.334 -0.5095  0.1037 -0.9595
  733MOL0     C98834   1.611   8.120   3.468 -0.4774 -0.0345 -0.6153
  733MOL0     C98835   1.659   8.019   3.571 -0.5949  0.4482  0.7487
  733MOL0     C98836   1.591   8.027   3.710  0.4511 -0.2683  0.7352
  733MOL0     N98837   1.599   7.911   3.802 -0.1659  0.3349  0.6839
  733MOL0     C98838   1.506   7.877   3.897 -0.3543  0.2405 -0.0516
  733MOL0     C98839   1.557   7.786   3.974 -1.0050 -0.1169  0.1681
  733MOL0     C98840   1.509   7.708   4.097  0.6505  1.1489 -0.2129
  733MOL0     C98841   1.403   7.611   4.049 -0.0143  0.1399 -0.3732
  733MOL0     C98842   1.303   7.577   4.161  0.6265 -0.0996  0.1264
  733MOL0     C98843   1.237   7.438   4.148  0.2387 -1.3236 -0.3969
  733MOL0     O98844   1.186   7.410   4.281  0.2014  0.3684 -0.1025
  733MOL0     C98845   1.151   7.273   4.321 -0.2197  0.1868 -0.1092
  733MOL0     C98846   1.172   7.160   4.250 -0.7197 -0.1070 -0.0302
  733MOL0     C98847   1.124   7.041   4.301  0.0848 -0.1656  0.6310
  733MOL0     C98848   1.068   7.020   4.428 -0.9560 -0.6166 -0.1355
  733MOL0     C98849   1.021   6.894   4.485 -0.1185 -0.4686  0.4717
  733MOL0     O98850   1.026   6.781   4.401 -0.0287  1.1402 -0.3582
  733MOL0     C98851   1.008   6.655   4.467 -0.2537 -0.2934 -0.1433
  733MOL0     C98852   0.912   6.566   4.426 -0.1392  0.6481  0.5643
  733MOL0     C98853   0.886   6.443   4.494  0.8354  0.3078  0.9571
  733MOL0     C98854   0.970   6.414   4.606  0.0941  0.7362  0.1006
  733MOL0     O98855   0.954   6.292   4.668 -0.2270 -0.3072  0.3773
  733MOL0     C98856   0.953   6.302   4.816 -0.7750 -0.0054 -0.5043
  733MOL0     C98857   0.805   6.313   4.857  0.7489 -0.2658  0.1850
  733MOL0     C98858   0.780   6.308   5.005 -0.8346 -0.2935  0.0244
  733MOL0     C98859   0.639   6.274   5.034  1.6060 -0.5477  0.1962
  733MOL0     C98860   0.595   6.325   5.175 -0.1276 -0.2664  1.1880
  733MOL0     C98861   0.477   6.238   5.203 -0.0045 -0.3613 -0.4996
  733MOL0     C98862   0.453   6.235   5.356 -1.1425 -0.2362  0.0927
  733MOL0     C98863   0.317   6.183   5.384  0.6513 -0.2652 -0.5191
  733MOL0    Cl98864   0.299   6.020   5.313  0.0072  0.2000  0.0327
  733MOL0     C98865   1.069   6.498   4.638 -0.2324 -0.3964 -0.8210
  733MOL0     C98866   1.092   6.619   4.567 -0.7532 -0.5914  0.0031
  733MOL0     O98867   0.976   6.891   4.594  0.0596  0.1635 -0.4322
  733MOL0     C98868   1.059   7.142   4.500  1.1333 -0.3321  0.2268
  733MOL0     C98869   1.091   7.262   4.449  0.2611 -0.6095  0.2793
  733MOL0     N98870   1.687   7.764   3.924  0.2322 -0.0944  1.0871
  733MOL0     N98871   1.711   7.838   3.822 -1.1864  0.4431 -0.8396
  733MOL0     C98872   2.121   7.881   3.081  0.1999  0.2981 -0.5103
  733MOL0     C98873   2.241   7.811   3.082 -0.1161  0.4503 -0.2310
  733MOL0     C98874   2.297   7.441   2.961 -0.3198  0.2732  0.2487
  733MOL0     C98875   2.230   7.440   3.084 -0.4605 -0.6462  0.6201
  733MOL0     C98876   2.126   7.351   3.103 -0.7259 -0.0564  0.5037
  733MOL0     C98877   2.082   7.255   3.005 -0.5705  0.6924 -0.1508
  733MOL0     O98878   1.981   7.165   3.031  0.1008 -0.2272 -0.7454
  733MOL0     C98879   1.973   7.117   3.163 -0.7745 -0.0530  0.8649
  733MOL0     C98880   1.857   7.190   3.232  0.0818  0.0516 -0.1017
  733MOL0     C98881   1.734   7.194   3.145  0.3913  0.0195 -0.6125
  733MOL0     C98882   1.600   7.202   3.209  0.4008  0.2629 -0.0525
  733MOL0     C98883   1.493   7.231   3.109  0.0587 -0.0033 -0.7720
  733MOL0     C98884   1.408   7.256   3.022  0.0453  0.1837 -0.1867
  733MOL0     C98885   2.153   7.270   2.878 -0.6214  0.6474 -0.9884
  733MOL0     C98886   2.258   7.360   2.857  0.1727 -0.5148  0.4050
  733MOL0     C98887   2.302   7.371   2.711 -0.5870  0.4841 -0.2373
  733MOL0     H98888   2.224   7.659   2.768 -1.9119  0.6837  0.0898
  733MOL0     H98889   2.025   7.773   2.770  0.6211  2.8928 -1.5971
  733MOL0     H98890   1.772   7.864   2.848  1.3691 -0.9897 -1.1888
  733MOL0     H98891   1.852   7.745   2.952 -1.3633 -0.3005  0.0011
  733MOL0     H98892   1.782   7.792   3.144  1.1903  2.0232  0.9460
  733MOL0     H98893   1.635   7.833   3.040 -1.1674 -0.6492  0.0968
  733MOL0     H98894   1.746   8.090   3.069  0.0212  0.8106 -0.4187
  733MOL0     H98895   1.847   8.007   3.181  0.8721  2.0450  0.0583
  733MOL0     H98896   1.529   8.033   3.208 -1.9481 -2.0045  2.4059
  733MOL0     H98897   1.618   7.917   3.295 -1.5661 -0.1093 -1.0811
  733MOL0     H98898   1.791   8.107   3.346 -0.1438  1.4428 -2.8607
  733MOL0     H98899   1.684   8.217   3.291  3.7067  0.4801 -0.3176
  733MOL0     H98900   1.646   8.216   3.507  1.7860 -0.4200 -1.5018
  733MOL0     H98901   1.503   8.121   3.456 -0.7750 -2.3329  1.1320
  733MOL0     H98902   1.764   8.045   3.588 -1.3262  3.1166  1.6308
  733MOL0     H98903   1.649   7.917   3.532  1.2653  0.7291 -0.6098
  733MOL0     H98904   1.636   8.121   3.741  0.0094  1.7543 -3.9628
  733MOL0     H98905   1.483   8.047   3.704  0.4095  0.4799  2.9896
  733MOL0     H98906   1.404   7.913   3.909 -1.5299 -2.7818  0.0452
  733MOL0     H98907   1.593   7.654   4.141 -0.4893  1.3850  2.4497
  733MOL0     H98908   1.465   7.779   4.168 -1.4401 -2.0075  1.9331
  733MOL0     H98909   1.353   7.675   3.975  0.8576 -0.2347 -1.3229
  733MOL0     H98910   1.437   7.523   3.994 -1.9069  0.2721 -1.8895
  733MOL0     H98911   1.234   7.660   4.178  0.6503 -0.2995  1.2743
  733MOL0     H98912   1.373   7.583   4.245  1.0979  1.3710 -0.3404
  733MOL0     H98913   1.315   7.365   4.122 -0.0167 -1.6653 -0.2241
  733MOL0     H98914   1.157   7.443   4.074 -0.6419  3.1690  0.5770
  733MOL0     H98915   1.216   7.164   4.151 -1.4170 -2.5355 -0.5113
  733MOL0     H98916   1.131   6.951   4.241  0.3404  1.6842 -2.2931
  733MOL0     H98917   0.863   6.609   4.339  2.8612 -1.1178 -2.2505
  733MOL0     H98918   0.804   6.379   4.464  1.2045  0.9344 -1.6285
  733MOL0     H98919   1.004   6.215   4.858  1.7217  1.1121 -1.0443
  733MOL0     H98920   1.004   6.387   4.863 -0.1739 -0.4496 -0.3426
  733MOL0     H98921   0.772   6.411   4.820 -2.3989 -1.6254 -0.9395
  733MOL0     H98922   0.750   6.234   4.805 -0.9511 -0.0369  1.5368
  733MOL0     H98923   0.846   6.229   5.043 -0.7714  0.1132  0.7699
  733MOL0     H98924   0.811   6.403   5.050 -1.2360 -0.7096  1.2228
  733MOL0     H98925   0.635   6.164   5.028 -2.1791 -0.7299  2.7236
  733MOL0     H98926   0.572   6.311   4.956  0.3225 -0.2974  1.3775
  733MOL0     H98927   0.577   6.433   5.177  1.0753  0.0009 -0.4550
  733MOL0     H98928   0.675   6.302   5.247  2.4672  1.9768 -0.7433
  733MOL0     H98929   0.386   6.267   5.150  0.4469  2.0885 -0.0626
  733MOL0     H98930   0.508   6.134   5.185 -0.6641 -0.6189 -0.1902
  733MOL0     H98931   0.461   6.340   5.388  1.4481  0.0398 -1.1642
  733MOL0     H98932   0.523   6.172   5.412 -3.2633 -1.5587  1.3630
  733MOL0     H98933   0.303   6.186   5.492  0.3461  1.4360 -0.5694
  733MOL0     H98934   0.238   6.247   5.342 -1.2989 -0.5119  2.4412
  733MOL0     H98935   1.137   6.465   4.716 -2.3731 -3.0474  0.1033
  733MOL0     H98936   1.178   6.682   4.589 -1.3608  1.3928 -2.8747
  733MOL0     H98937   1.030   7.152   4.604 -0.4806  2.1669 -0.3698
  733MOL0     H98938   1.069   7.351   4.508 -4.0600 -1.4931  0.3343
  733MOL0     H98939   2.078   7.939   3.162 -1.3969 -1.4569 -0.0242
  733MOL0     H98940   2.303   7.797   3.170 -2.1744  2.3564  1.6415
  733MOL0     H98941   2.260   7.497   3.171  0.2725 -2.0632  1.3415
  733MOL0     H98942   2.082   7.354   3.202  0.6669 -0.8687  1.1792
  733MOL0     H98943   2.058   7.141   3.227 -0.2668 -1.0793  0.5960
  733MOL0     H98944   1.961   7.009   3.150  0.6082  0.0686 -2.5111
  733MOL0     H98945   1.882   7.293   3.256 -1.7788  0.6554 -0.6051
  733MOL0     H98946   1.853   7.139   3.329 -1.6975  1.2763  0.5229
  733MOL0     H98947   1.730   7.100   3.088 -0.5352  0.9519 -2.1671
  733MOL0     H98948   1.752   7.261   3.061  0.4235 -2.6240 -2.8778
  733MOL0     H98949   1.572   7.106   3.253 -1.0251 -0.5560 -2.5199
  733MOL0     H98950   1.584   7.257   3.302 -2.3166 -3.0955  1.6971
  733MOL0     H98951   1.333   7.295   2.956  2.7085  2.6683 -1.9426
  733MOL0     H98952   2.121   7.217   2.790  0.3212 -0.6641 -0.5723
  733MOL0     H98953   2.269   7.280   2.660 -5.4332  0.4600  2.3427
  733MOL0     H98954   2.250   7.454   2.662 -0.0039  0.8635 -0.2205
  733MOL0     H98955   2.409   7.391   2.702 -0.3238 -1.1438 -1.1367
  734MOL0     O98956   4.412   7.835   3.465  0.8379 -0.2642 -0.2113
  734MOL0     C98957   4.495   7.859   3.377 -0.6626 -0.1919  0.0144
  734MOL0     O98958   4.467   7.927   3.256  0.5417  0.6915 -0.2277
  734MOL0     C98959   4.332   7.952   3.226  0.1198 -0.7195 -0.5464
  734MOL0     C98960   4.286   8.081   3.195 -0.4953 -0.7749  0.5441
  734MOL0     C98961   4.155   8.106   3.155 -0.2499  0.1197  0.0685
  734MOL0     C98962   4.058   8.006   3.151 -1.0759 -0.4407  0.4401
  734MOL0     O98963   3.921   8.017   3.129  0.2028 -1.0013  0.2154
  734MOL0     C98964   3.869   8.150   3.106  0.0532 -0.9295  0.4858
  734MOL0     C98965   3.714   8.148   3.098  0.6584  0.5705  0.3689
  734MOL0     C98966   3.641   8.084   3.219 -0.6549 -0.0426  0.4215
  734MOL0     C98967   3.630   8.182   3.333 -0.7336  0.1482 -0.3544
  734MOL0     C98968   3.610   8.105   3.460  0.6564  0.2153  0.3040
  734MOL0     C98969   3.566   8.208   3.579 -0.0629 -0.2513 -0.2510
  734MOL0     C98970   3.469   8.142   3.679  0.2722 -0.3709 -0.0558
  734MOL0     C98971   3.323   8.137   3.619 -0.3675 -0.0320 -0.5152
  734MOL0     N98972   3.226   8.094   3.722 -0.1354 -0.4849 -0.3328
  734MOL0     C98973   3.156   8.181   3.797 -0.0618  0.3233 -0.4394
  734MOL0     C98974   3.085   8.110   3.883  0.9126  0.5108  1.1893
  734MOL0     C98975   2.996   8.169   3.991  0.3002 -0.4560  0.1238
  734MOL0     C98976   3.094   8.234   4.090  0.4761 -0.2437 -0.9761
  734MOL0     C98977   3.011   8.335   4.160  0.7380  0.2563 -0.0325
  734MOL0     C98978   3.112   8.412   4.244  0.4919  0.1621 -0.6233
  734MOL0     O98979   3.007   8.487   4.305 -0.4090  0.0932  0.2574
  734MOL0     C98980   3.028   8.589   4.396  0.3779 -0.6670  0.0371
  734MOL0     C98981   2.935   8.687   4.414  1.1922  0.2182  0.0008
  734MOL0     C98982   2.944   8.781   4.519  0.4925 -0.1066  0.7527
  734MOL0     C98983   3.063   8.790   4.592  0.0350  0.2825 -0.3482
  734MOL0     C98984   3.080   8.895   4.686  0.8652 -0.8961 -0.0520
  734MOL0     O98985   2.990   8.994   4.683  0.3325 -0.3223  0.3647
  734MOL0     C98986   2.993   9.084   4.786 -0.5335  1.2139 -0.1035
  734MOL0     C98987   3.038   9.213   4.773 -0.9686  0.2246  0.8334
  734MOL0     C98988   3.038   9.296   4.882  0.3010 -0.0739  0.2407
  734MOL0     C98989   2.974   9.259   5.002  0.8580 -0.3034  0.0729
  734MOL0     O98990   2.952   9.349   5.106 -0.0943  0.3489  0.2954
  734MOL0     C98991   2.938   9.488   5.073 -0.1012 -0.2500 -1.0001
  734MOL0     C98992   2.862   9.578   5.175 -0.5322 -0.6890  0.9152
  734MOL0     C98993   2.708   9.568   5.160 -0.4060  0.5323  0.1876
  734MOL0     C98994   2.648   9.441   5.224  0.5020  0.0256 -0.1582
  734MOL0     C98995   2.492   9.435   5.204 -0.2002 -0.2371  0.2640
  734MOL0     C98996   2.442   9.411   5.061 -0.0377  0.5568  0.5723
  734MOL0     C98997   2.492   9.281   4.992  0.6487  0.0966  0.7340
  734MOL0     C98998   2.384   9.235   4.894  0.1492  0.2676  0.8278
  734MOL0    Cl98999   2.265   9.126   4.978 -0.2103 -0.4322 -0.1710
  734MOL0     C99000   2.913   9.131   5.014 -1.0245 -0.2019 -0.2197
  734MOL0     C99001   2.935   9.044   4.908 -0.5233  0.3740 -0.6117
  734MOL0     O99002   3.191   8.897   4.742 -0.5128  0.1988  0.4753
  734MOL0     C99003   3.160   8.701   4.568  0.3357 -0.1851  0.1582
  734MOL0     C99004   3.135   8.600   4.477 -0.3535  0.6514 -0.3664
  734MOL0     N99005   3.119   7.976   3.868  0.0804 -0.1875 -0.8798
  734MOL0     N99006   3.210   7.973   3.773  0.0940  0.1186  0.3467
  734MOL0     C99007   4.106   7.878   3.181  0.4195 -0.3156 -0.2706
  734MOL0     C99008   4.245   7.850   3.205 -0.6112 -0.6436 -0.0470
  734MOL0     C99009   4.624   7.781   3.387 -0.6100 -0.1249  0.0287
  734MOL0     C99010   4.660   7.721   3.511 -0.0785 -0.3440  0.5009
  734MOL0     C99011   4.782   7.660   3.531  0.2102 -0.2173 -0.4372
  734MOL0     C99012   4.881   7.669   3.434  0.2834 -0.4686 -1.2909
  734MOL0     O99013   4.989   7.600   3.467 -0.3923 -1.0625 -0.5412
  734MOL0     C99014   5.114   7.655   3.421 -0.0562 -0.0888 -0.4740
  734MOL0     C99015   5.209   7.596   3.521  1.0976 -0.5534  0.0791
  734MOL0     C99016   5.346   7.653   3.496  0.1207 -0.1543  0.3483
  734MOL0     C99017   5.445   7.628   3.616  0.4490  0.2274  0.5465
  734MOL0     C99018   5.413   7.716   3.725  0.8011  0.3458 -0.6389
  734MOL0     C99019   5.394   7.790   3.825 -0.8879  0.2545  0.0905
  734MOL0     C99020   4.861   7.749   3.321  0.2815 -0.4820 -0.7102
  734MOL0     C99021   4.729   7.790   3.294  0.4239 -0.5867  0.6946
  734MOL0     C99022   4.705   7.828   3.152  0.3356  0.4781 -0.1194
  734MOL0     H99023   4.364   8.157   3.195  3.1121 -4.1327 -1.5425
  734MOL0     H99024   4.121   8.205   3.126  0.5422  1.6065  3.7330
  734MOL0     H99025   3.894   8.227   3.180  1.6231  1.2308 -2.1172
  734MOL0     H99026   3.905   8.188   3.010  1.0722  0.8239  1.5030
  734MOL0     H99027   3.708   8.098   3.001  1.0528 -1.1003  1.1587
  734MOL0     H99028   3.677   8.250   3.087 -0.6438  0.0816  0.1167
  734MOL0     H99029   3.706   8.002   3.251  1.3362  0.9581 -0.8744
  734MOL0     H99030   3.539   8.055   3.195 -1.0884  1.0595  0.8575
  734MOL0     H99031   3.713   8.253   3.342 -1.0679  0.3957  1.1794
  734MOL0     H99032   3.539   8.241   3.321  0.8886  3.1776  0.9819
  734MOL0     H99033   3.531   8.031   3.447  0.8928 -0.1990  1.1483
  734MOL0     H99034   3.704   8.060   3.492  3.4934  3.9654 -1.8881
  734MOL0     H99035   3.660   8.233   3.629 -1.0225 -1.3453  2.2919
  734MOL0     H99036   3.524   8.304   3.548  4.6604  1.4614 -2.2898
  734MOL0     H99037   3.479   8.204   3.769  2.7403  0.6550 -0.9494
  734MOL0     H99038   3.500   8.039   3.697  2.0422  0.2020  0.3571
  734MOL0     H99039   3.307   8.239   3.583  3.7265  0.5804 -1.1136
  734MOL0     H99040   3.312   8.072   3.531 -2.1935 -0.4088 -0.0502
  734MOL0     H99041   3.162   8.289   3.788  1.6836  0.3425  0.4910
  734MOL0     H99042   2.939   8.251   3.944  0.4588 -0.6495 -0.4192
  734MOL0     H99043   2.933   8.100   4.047 -0.8298  2.3141  2.5043
  734MOL0     H99044   3.139   8.165   4.162  1.1830  0.2117 -0.9707
  734MOL0     H99045   3.175   8.291   4.044 -0.8155  1.9303 -0.6471
  734MOL0     H99046   2.956   8.269   4.227  0.1526 -2.7155 -3.1944
  734MOL0     H99047   2.945   8.402   4.102 -2.8710  3.4401  6.6015
  734MOL0     H99048   3.182   8.477   4.190  2.6100  0.5881  2.3577
  734MOL0     H99049   3.164   8.357   4.323  2.4626  1.6375 -0.7917
  734MOL0     H99050   2.834   8.682   4.375  0.4153  1.1308  1.7763
  734MOL0     H99051   2.851   8.836   4.531  0.0964 -1.0208  2.0375
  734MOL0     H99052   3.083   9.232   4.677  1.1461 -1.0775  1.5045
  734MOL0     H99053   3.076   9.398   4.872  2.3264 -0.8094 -0.1836
  734MOL0     H99054   3.036   9.535   5.059 -0.8269  2.6255  2.1729
  734MOL0     H99055   2.892   9.488   4.974  2.3888 -1.9205 -2.2749
  734MOL0     H99056   2.895   9.555   5.277  2.1914 -2.3322 -0.2296
  734MOL0     H99057   2.886   9.683   5.152  1.8927 -1.6509 -1.4493
  734MOL0     H99058   2.661   9.660   5.193  1.5690  1.3325  0.9420
  734MOL0     H99059   2.678   9.553   5.056  0.9958 -1.3890  0.0018
  734MOL0     H99060   2.669   9.437   5.331  0.0109  3.2043  0.1792
  734MOL0     H99061   2.696   9.353   5.182 -0.5051 -1.4016  1.5619
  734MOL0     H99062   2.446   9.531   5.227  2.6171  1.7156 -1.6368
  734MOL0     H99063   2.450   9.361   5.273 -0.2229  1.0796  1.7091
  734MOL0     H99064   2.333   9.400   5.065  0.0483 -1.7687 -1.0523
  734MOL0     H99065   2.458   9.487   4.984  0.4933  0.3349  0.4626
  734MOL0     H99066   2.522   9.198   5.056 -1.8821 -1.5372 -0.0639
  734MOL0     H99067   2.583   9.300   4.935  1.0359  1.4679  1.7452
  734MOL0     H99068   2.337   9.324   4.851 -0.2473 -0.1279  0.4368
  734MOL0     H99069   2.439   9.187   4.813  2.8656  1.2384  2.0019
  734MOL0     H99070   2.858   9.105   5.104 -1.3978  0.9346 -0.1076
  734MOL0     H99071   2.899   8.942   4.908  0.6020 -0.0447 -0.8274
  734MOL0     H99072   3.260   8.699   4.610  0.8574  2.1505 -0.7934
  734MOL0     H99073   3.202   8.514   4.475 -4.5195 -3.3849  4.7556
  734MOL0     H99074   4.030   7.801   3.184  1.1015 -1.1360 -2.0559
  734MOL0     H99075   4.288   7.751   3.215 -0.4592 -0.6303 -0.5365
  734MOL0     H99076   4.579   7.735   3.582  1.1485  2.0026  1.5603
  734MOL0     H99077   4.809   7.596   3.615  2.1323 -0.2076 -0.9961
  734MOL0     H99078   5.109   7.764   3.431 -1.6642 -0.2055  0.2932
  734MOL0     H99079   5.136   7.630   3.317  1.6524 -0.4070 -0.0713
  734MOL0     H99080   5.205   7.487   3.516  1.1101 -0.5521  0.0366
  734MOL0     H99081   5.178   7.633   3.619  4.4167 -0.8101  1.3599
  734MOL0     H99082   5.342   7.761   3.475 -0.1912 -0.4549 -1.1928
  734MOL0     H99083   5.391   7.613   3.405  0.2034  2.9907 -1.1273
  734MOL0     H99084   5.456   7.526   3.652  0.5562  0.1551  0.3124
  734MOL0     H99085   5.542   7.657   3.574 -0.8400  3.5689 -0.5650
  734MOL0     H99086   5.385   7.850   3.913 -1.5061 -1.1008  0.9691
  734MOL0     H99087   4.930   7.734   3.238  1.2556  0.6049 -0.1253
  734MOL0     H99088   4.611   7.779   3.124  0.4473 -1.8234  3.0546
  734MOL0     H99089   4.700   7.937   3.142 -1.7637  0.2620 -2.4862
  734MOL0     H99090   4.784   7.788   3.089  1.2760  1.1283  0.6241
  735MOL0     O99091   8.147   2.929   8.558  0.0758  1.2700 -0.5262
  735MOL0     C99092   8.049   2.901   8.486  0.8686 -0.3814 -0.4740
  735MOL0     O99093   7.958   2.986   8.426 -0.0820 -0.1920  0.1623
  735MOL0     C99094   7.981   3.123   8.434 -0.6095  0.6189 -1.0042
  735MOL0     C99095   8.110   3.181   8.431  0.0160 -0.2191  1.1259
  735MOL0     C99096   8.112   3.323   8.443 -0.2361  0.3896 -0.7726
  735MOL0     C99097   7.999   3.408   8.446 -1.3308 -0.1927  0.2551
  735MOL0     O99098   8.007   3.543   8.454  0.1839  0.1037 -0.3804
  735MOL0     C99099   8.046   3.599   8.582  0.1632  0.4791  1.1128
  735MOL0     C99100   7.934   3.629   8.669 -1.1774  0.3029 -0.3208
  735MOL0     C99101   7.854   3.750   8.610  0.6333  0.3625  0.2893
  735MOL0     C99102   7.710   3.753   8.668 -0.3129 -0.6951 -0.0306
  735MOL0     C99103   7.709   3.765   8.817 -0.0958 -0.7998 -0.6662
  735MOL0     C99104   7.570   3.798   8.870  0.8019  0.2539  0.1802
  735MOL0     C99105   7.564   3.791   9.018  1.1525 -0.3458 -0.8726
  735MOL0     C99106   7.434   3.868   9.064  0.4532 -0.3361  0.5707
  735MOL0     N99107   7.309   3.850   8.990 -0.0167  0.1031  0.7405
  735MOL0     C99108   7.243   3.733   8.949  0.1054 -0.8197  0.4508
  735MOL0     C99109   7.111   3.765   8.907 -0.0514  0.7393 -0.5789
  735MOL0     C99110   7.019   3.650   8.857  0.0962  0.3885  0.7195
  735MOL0     C99111   7.044   3.619   8.708 -0.4697 -0.7706 -0.4899
  735MOL0     C99112   6.956   3.495   8.684 -0.3544 -0.5023 -0.7878
  735MOL0     C99113   6.951   3.459   8.532  0.1718  1.1139 -0.2050
  735MOL0     O99114   6.857   3.345   8.531  0.3901 -0.8135 -0.6395
  735MOL0     C99115   6.721   3.380   8.525  0.6552  1.0483  0.6996
  735MOL0     C99116   6.677   3.503   8.510 -0.1205 -0.7463  0.6195
  735MOL0     C99117   6.538   3.526   8.504  0.2171 -0.1922  0.6825
  735MOL0     C99118   6.441   3.424   8.530 -0.5530 -0.1081 -0.4676
  735MOL0     C99119   6.294   3.445   8.539 -0.5683 -0.1789 -0.6622
  735MOL0     O99120   6.220   3.340   8.584 -0.0064  0.2337 -0.7870
  735MOL0     C99121   6.085   3.344   8.571  0.9764  0.3919 -0.1925
  735MOL0     C99122   6.023   3.248   8.486 -0.8463 -0.2782  0.2544
  735MOL0     C99123   5.886   3.251   8.469 -0.7440 -0.4568  0.1081
  735MOL0     C99124   5.803   3.352   8.529 -0.1192  0.1876 -1.0956
  735MOL0     O99125   5.666   3.359   8.517 -0.2357  0.4613 -1.4769
  735MOL0     C99126   5.594   3.277   8.415 -0.5500 -0.2380  0.6490
  735MOL0     C99127   5.458   3.346   8.397 -0.0879  0.5126  0.6660
  735MOL0     C99128   5.367   3.315   8.508  0.3770  1.2378 -0.2710
  735MOL0     C99129   5.238   3.394   8.475 -0.3990  0.1583  0.8977
  735MOL0     C99130   5.128   3.363   8.580  0.1302 -0.4145  0.3597
  735MOL0     C99131   5.099   3.223   8.633  0.0033  0.0023 -0.8491
  735MOL0     C99132   5.016   3.133   8.528 -0.4228 -0.0451 -0.4670
  735MOL0     C99133   4.874   3.188   8.497  0.2403  0.1362  0.0032
  735MOL0    Cl99134   4.782   3.247   8.638  0.1731 -0.6431  0.0752
  735MOL0     C99135   5.861   3.434   8.625  0.0489 -0.5982 -0.0815
  735MOL0     C99136   5.998   3.427   8.650 -0.1700 -0.5043  0.4980
  735MOL0     O99137   6.252   3.553   8.488 -0.5714 -0.1459 -0.4395
  735MOL0     C99138   6.498   3.297   8.552  0.4537 -0.3424  0.6082
  735MOL0     C99139   6.632   3.279   8.542  0.2822  0.2209 -0.0422
  735MOL0     N99140   7.106   3.903   8.927 -0.2397 -0.9007  0.1584
  735MOL0     N99141   7.222   3.950   8.966 -0.0397  0.0699  1.0648
  735MOL0     C99142   7.873   3.341   8.457  0.1564  0.4411 -0.8412
  735MOL0     C99143   7.867   3.199   8.461 -0.9343  1.3365 -1.5459
  735MOL0     C99144   8.029   2.757   8.470  0.2081  0.1881 -0.4163
  735MOL0     C99145   7.896   2.707   8.491 -0.4631  0.5325 -1.0550
  735MOL0     C99146   7.860   2.571   8.469 -0.7591 -0.2333  0.2308
  735MOL0     C99147   7.961   2.477   8.441  0.6106 -0.4284  0.1068
  735MOL0     O99148   7.914   2.350   8.412 -0.1491 -0.4108  0.3286
  735MOL0     C99149   7.988   2.240   8.459 -0.3246 -0.4288  0.2236
  735MOL0     C99150   7.939   2.097   8.410  0.3824 -0.9485  0.5598
  735MOL0     C99151   7.941   1.983   8.523 -0.2742  0.0927 -0.0202
  735MOL0     C99152   7.921   1.831   8.486  1.0711  0.1424  0.0625
  735MOL0     C99153   7.787   1.809   8.432  0.9721 -0.4385 -0.6586
  735MOL0     C99154   7.671   1.789   8.404 -0.1764  0.1681 -0.9738
  735MOL0     C99155   8.088   2.529   8.424 -0.7211  0.6384  0.6184
  735MOL0     C99156   8.134   2.664   8.434 -0.4651 -0.5159 -0.9384
  735MOL0     C99157   8.275   2.708   8.390  0.3504  0.1185 -0.6843
  735MOL0     H99158   8.198   3.127   8.400 -2.2641 -3.0118 -1.0985
  735MOL0     H99159   8.210   3.370   8.446  0.0830  0.0710 -3.7272
  735MOL0     H99160   8.118   3.526   8.620 -2.4985 -2.6252  0.7079
  735MOL0     H99161   8.109   3.685   8.557  0.7216 -0.6149 -1.6566
  735MOL0     H99162   7.969   3.666   8.765  1.6017  2.3603 -1.9640
  735MOL0     H99163   7.869   3.541   8.675 -1.1762  0.1792 -1.7488
  735MOL0     H99164   7.835   3.738   8.503  1.8084 -2.0442  0.2765
  735MOL0     H99165   7.911   3.842   8.621  2.4162 -0.7153  0.5085
  735MOL0     H99166   7.663   3.846   8.635  1.6646  0.8012  1.0843
  735MOL0     H99167   7.650   3.666   8.640  1.4698 -2.1374  0.4177
  735MOL0     H99168   7.728   3.667   8.862  1.6768 -0.2412 -0.1144
  735MOL0     H99169   7.790   3.830   8.849  0.4947 -2.3314  1.1202
  735MOL0     H99170   7.538   3.900   8.849 -0.9432 -0.6459 -1.9118
  735MOL0     H99171   7.491   3.738   8.823 -2.5073  2.9176  1.9240
  735MOL0     H99172   7.646   3.840   9.072 -0.1835 -1.2128  2.1374
  735MOL0     H99173   7.551   3.687   9.048  0.9361  0.5443  2.4888
  735MOL0     H99174   7.420   3.841   9.169  3.1676 -1.1047  0.8100
  735MOL0     H99175   7.451   3.976   9.061 -0.9943 -0.0920 -2.3738
  735MOL0     H99176   7.284   3.633   8.943 -0.4418 -0.9763 -1.1917
  735MOL0     H99177   7.045   3.562   8.916 -0.1489 -0.7972 -0.8683
  735MOL0     H99178   6.919   3.688   8.881  0.9948  2.1537  1.9354
  735MOL0     H99179   7.001   3.703   8.653  0.2706 -0.0251  0.0566
  735MOL0     H99180   7.144   3.602   8.668 -0.4998  1.3965 -1.6502
  735MOL0     H99181   6.855   3.523   8.715  1.4503  0.7154  5.3377
  735MOL0     H99182   6.984   3.405   8.740  0.4433 -1.6687 -2.9121
  735MOL0     H99183   7.046   3.427   8.489  1.5052  2.6862  1.3953
  735MOL0     H99184   6.922   3.543   8.467 -0.6392  0.2466 -0.9886
  735MOL0     H99185   6.734   3.595   8.514  1.5722 -1.7909  1.1140
  735MOL0     H99186   6.492   3.623   8.489 -1.4037 -0.4982  3.1208
  735MOL0     H99187   6.085   3.172   8.440  0.5619 -0.8887  2.9571
  735MOL0     H99188   5.835   3.179   8.405 -1.9518  1.3655 -1.0815
  735MOL0     H99189   5.627   3.275   8.311 -0.5078 -2.4035  0.6594
  735MOL0     H99190   5.583   3.174   8.449 -0.8997  0.6458  3.4855
  735MOL0     H99191   5.462   3.455   8.393  1.2770  0.5664  2.3027
  735MOL0     H99192   5.414   3.301   8.307  2.4864 -1.1933  0.1453
  735MOL0     H99193   5.330   3.212   8.507  3.9375 -0.3225  2.6954
  735MOL0     H99194   5.408   3.339   8.607  1.7299  0.0680 -0.5095
  735MOL0     H99195   5.206   3.376   8.372  0.3249  1.7570  0.3505
  735MOL0     H99196   5.253   3.502   8.475 -0.9673  0.2812 -1.2343
  735MOL0     H99197   5.040   3.401   8.528  0.9974 -1.4329 -1.9564
  735MOL0     H99198   5.149   3.427   8.667 -0.0153  1.5702 -1.0011
  735MOL0     H99199   5.190   3.176   8.672  0.6297  2.1959  0.5090
  735MOL0     H99200   5.040   3.229   8.725 -1.4100 -1.6649 -1.5907
  735MOL0     H99201   5.014   3.035   8.577 -2.0957  1.2266  2.2404
  735MOL0     H99202   5.069   3.127   8.432 -0.3739 -1.2229 -0.3803
  735MOL0     H99203   4.889   3.277   8.435  2.1688 -1.2762 -1.6742
  735MOL0     H99204   4.814   3.111   8.447  1.1041 -0.2894 -0.4008
  735MOL0     H99205   5.794   3.502   8.677 -1.1040 -1.7609  0.0093
  735MOL0     H99206   6.037   3.493   8.727 -3.5941  2.2632  0.1418
  735MOL0     H99207   6.423   3.220   8.571 -1.0713  0.9388 -0.0537
  735MOL0     H99208   6.674   3.180   8.557  0.0772  0.1250 -0.1037
  735MOL0     H99209   7.784   3.401   8.468  1.7925  2.4914  5.2211
  735MOL0     H99210   7.770   3.151   8.462 -1.6146  2.6812 -1.3595
  735MOL0     H99211   7.810   2.769   8.515 -0.0969  0.7295 -0.1960
  735MOL0     H99212   7.756   2.541   8.468 -1.1742  1.1390 -0.1646
  735MOL0     H99213   7.983   2.231   8.568 -2.1205 -1.1263  0.1219
  735MOL0     H99214   8.095   2.246   8.435 -0.5467 -0.0411 -0.7097
  735MOL0     H99215   7.991   2.071   8.318  2.0437 -0.4698  1.3333
  735MOL0     H99216   7.834   2.120   8.389 -0.5457  0.4024  5.3477
  735MOL0     H99217   7.869   2.016   8.599  0.6435  0.0821  0.8601
  735MOL0     H99218   8.039   1.985   8.570 -0.5591 -2.5704  0.8257
  735MOL0     H99219   7.994   1.807   8.409  1.0781  3.1868 -1.0128
  735MOL0     H99220   7.943   1.770   8.575  1.7782 -0.3763 -0.4542
  735MOL0     H99221   7.567   1.771   8.382 -0.5398  3.3821 -2.4876
  735MOL0     H99222   8.172   2.470   8.387 -1.4685 -0.3322  0.4073
  735MOL0     H99223   8.336   2.769   8.458 -2.0204  3.7091 -1.4980
  735MOL0     H99224   8.334   2.617   8.372 -1.2868 -1.2011  0.3018
  735MOL0     H99225   8.268   2.774   8.303  0.4823 -0.2941 -1.0098
  736MOL0     O99226   2.706   6.295   5.654  0.2609  0.0082 -0.1744
  736MOL0     C99227   2.713   6.251   5.538  0.2314 -0.5790  1.1713
  736MOL0     O99228   2.824   6.260   5.462  0.2229  0.2132  0.0540
  736MOL0     C99229   2.932   6.282   5.539  0.7895  0.5470  0.2494
  736MOL0     C99230   2.979   6.410   5.556 -0.5572 -0.5265  0.6301
  736MOL0     C99231   3.101   6.435   5.617 -0.7513 -0.4881 -0.4044
  736MOL0     C99232   3.171   6.332   5.679 -0.3915 -0.5142  0.4265
  736MOL0     O99233   3.284   6.375   5.744  0.2334  0.3259 -0.0182
  736MOL0     C99234   3.376   6.293   5.808 -0.6154  1.5555 -0.0089
  736MOL0     C99235   3.330   6.212   5.929  0.9736  0.1573 -0.8668
  736MOL0     C99236   3.429   6.218   6.051 -0.0406  0.8810 -0.2789
  736MOL0     C99237   3.555   6.119   6.032  0.3659 -0.5717  0.1431
  736MOL0     C99238   3.664   6.120   6.146 -0.4430 -0.0584  0.3203
  736MOL0     C99239   3.707   6.259   6.168 -0.2571 -0.7798 -0.5885
  736MOL0     C99240   3.845   6.269   6.245 -0.6357 -0.2127  0.3437
  736MOL0     C99241   3.909   6.412   6.271 -0.0596 -0.3929  0.3228
  736MOL0     N99242   4.021   6.398   6.359  0.4296 -0.2415 -0.6947
  736MOL0     C99243   4.008   6.340   6.485 -0.2393 -0.2542  0.3198
  736MOL0     C99244   4.127   6.323   6.536  0.6336 -0.6422 -0.2666
  736MOL0     C99245   4.152   6.271   6.676 -0.7771  0.8965 -0.1722
  736MOL0     C99246   4.289   6.207   6.686 -0.0376 -0.6113  0.1084
  736MOL0     C99247   4.314   6.097   6.587 -0.4249 -0.1123  0.3513
  736MOL0     C99248   4.196   5.995   6.562  0.2541  0.2093 -0.9154
  736MOL0     O99249   4.127   5.962   6.689 -0.0759 -0.1989 -0.1464
  736MOL0     C99250   4.030   5.865   6.676  0.1323 -0.6084  0.5419
  736MOL0     C99251   3.987   5.807   6.557  0.0498 -1.2596 -0.2084
  736MOL0     C99252   3.878   5.711   6.561  0.4874 -0.4587  0.2052
  736MOL0     C99253   3.833   5.659   6.682 -0.5689  0.2752 -0.0508
  736MOL0     C99254   3.722   5.559   6.694 -0.3284  0.1952 -0.3204
  736MOL0     O99255   3.684   5.540   6.823  0.0480  0.4362 -0.3287
  736MOL0     C99256   3.555   5.485   6.836 -0.0554 -0.4129  0.3176
  736MOL0     C99257   3.546   5.346   6.814  0.3948  0.3814 -0.2138
  736MOL0     C99258   3.426   5.288   6.844 -0.0453 -0.1793  0.4517
  736MOL0     C99259   3.310   5.363   6.863 -0.4873 -0.1392  0.0817
  736MOL0     O99260   3.187   5.288   6.890  0.2122  0.3534 -0.2147
  736MOL0     C99261   3.071   5.370   6.920  0.0922  0.0826  0.1008
  736MOL0     C99262   3.070   5.438   7.060 -0.1784  1.0875  0.1381
  736MOL0     C99263   3.084   5.333   7.170  0.1266 -0.3612 -1.2064
  736MOL0     C99264   3.092   5.405   7.312  0.5793 -0.1444  0.3158
  736MOL0     C99265   3.070   5.293   7.424  0.2285  0.0745 -0.7422
  736MOL0     C99266   3.162   5.332   7.541  0.4888 -0.5288 -1.0006
  736MOL0     C99267   3.094   5.459   7.610 -1.0005  0.8087  0.5677
  736MOL0     C99268   3.177   5.530   7.723  0.8306  0.4156 -0.3794
  736MOL0    Cl99269   3.302   5.619   7.628  0.0942 -0.1846  0.4861
  736MOL0     C99270   3.321   5.507   6.858 -0.6670  0.2474  0.3149
  736MOL0     C99271   3.445   5.563   6.859  0.2439 -0.1016 -0.8678
  736MOL0     O99272   3.654   5.525   6.602  0.2956  0.6386  0.5927
  736MOL0     C99273   3.882   5.715   6.802 -0.0157 -0.4474 -0.6010
  736MOL0     C99274   3.974   5.820   6.798  0.7242  0.1620  0.1417
  736MOL0     N99275   4.214   6.372   6.441 -1.2986  0.2796 -0.6076
  736MOL0     N99276   4.156   6.401   6.337  0.4796  0.1595 -0.4538
  736MOL0     C99277   3.122   6.203   5.663 -0.2121  0.5522 -0.8307
  736MOL0     C99278   3.008   6.175   5.593 -0.7063  0.2360  0.2657
  736MOL0     C99279   2.602   6.176   5.482 -1.3278 -0.3657  0.0798
  736MOL0     C99280   2.601   6.170   5.341  0.2283 -0.1368 -0.0120
  736MOL0     C99281   2.486   6.119   5.274 -0.7830 -0.4457  0.3969
  736MOL0     C99282   2.376   6.074   5.342  0.4440  0.0326 -0.3173
  736MOL0     O99283   2.274   6.020   5.265  0.3773  0.2681  0.7510
  736MOL0     C99284   2.174   5.921   5.320 -0.6478 -0.1110 -1.0578
  736MOL0     C99285   2.030   5.979   5.299 -0.1567  0.2976 -0.1982
  736MOL0     C99286   2.004   6.015   5.150 -0.0520  0.0531  0.2586
  736MOL0     C99287   1.856   6.008   5.119  0.3655 -0.3116 -0.8723
  736MOL0     C99288   1.774   6.087   5.218  0.8296 -0.3022  0.6585
  736MOL0     C99289   1.703   6.132   5.298 -0.1778 -1.1081 -0.4346
  736MOL0     C99290   2.382   6.091   5.482  0.4794  0.0127 -0.3438
  736MOL0     C99291   2.484   6.150   5.549  0.3062 -0.8741  0.3976
  736MOL0     C99292   2.458   6.192   5.698  0.1240  0.3358  0.8443
  736MOL0     H99293   2.924   6.493   5.512  1.6522  1.4329  1.3272
  736MOL0     H99294   3.124   6.541   5.622  0.1897 -0.7360  0.9274
  736MOL0     H99295   3.415   6.219   5.738  0.7391  1.1809  1.1018
  736MOL0     H99296   3.467   6.347   5.833  0.6531 -0.1426 -0.6917
  736MOL0     H99297   3.309   6.109   5.900  1.8700 -0.2280 -0.1936
  736MOL0     H99298   3.235   6.254   5.963  0.0348 -2.0770 -0.5475
  736MOL0     H99299   3.385   6.190   6.147  0.4296  2.3046  0.3791
  736MOL0     H99300   3.468   6.316   6.080 -0.7697  0.1316  3.8722
  736MOL0     H99301   3.523   6.017   6.011  1.9286 -1.1471  0.4357
  736MOL0     H99302   3.612   6.159   5.948  2.4735  0.1311  1.8379
  736MOL0     H99303   3.628   6.066   6.234 -0.5422 -0.8329 -0.1864
  736MOL0     H99304   3.750   6.063   6.107  0.1501 -1.9377  3.9290
  736MOL0     H99305   3.732   6.305   6.072 -0.1211 -3.5690 -1.9957
  736MOL0     H99306   3.638   6.329   6.216  1.4329  0.6136 -0.0969
  736MOL0     H99307   3.919   6.205   6.197  0.1609 -0.0034  1.2603
  736MOL0     H99308   3.827   6.218   6.340  0.1465 -2.3916 -0.6156
  736MOL0     H99309   3.952   6.447   6.176  2.1685 -0.4345  1.2474
  736MOL0     H99310   3.831   6.481   6.302 -0.1361 -0.2097 -0.2544
  736MOL0     H99311   3.914   6.320   6.537 -1.8750  1.8778 -1.6110
  736MOL0     H99312   4.139   6.359   6.740 -1.7489  0.3846  0.3669
  736MOL0     H99313   4.074   6.200   6.705  2.2299 -1.7958  1.9861
  736MOL0     H99314   4.381   6.266   6.692 -0.0307 -0.6851  0.7888
  736MOL0     H99315   4.286   6.153   6.781  2.0254 -2.2891 -0.6837
  736MOL0     H99316   4.397   6.048   6.640 -1.0626  1.2947  2.8320
  736MOL0     H99317   4.348   6.146   6.495  0.6829  2.1313  1.8468
  736MOL0     H99318   4.237   5.907   6.512 -0.8652 -0.3386 -0.9032
  736MOL0     H99319   4.122   6.049   6.503 -1.2961  3.5504  3.5029
  736MOL0     H99320   4.010   5.839   6.456 -3.2253  1.9342 -0.1426
  736MOL0     H99321   3.834   5.683   6.466 -0.0860 -0.5668  0.4945
  736MOL0     H99322   3.630   5.283   6.786  0.4774 -0.7998  2.3628
  736MOL0     H99323   3.409   5.181   6.843 -2.5919  0.0561  3.5080
  736MOL0     H99324   3.063   5.437   6.834  2.3907 -0.0384 -0.2474
  736MOL0     H99325   2.988   5.299   6.916 -0.1445  0.4059 -3.3131
  736MOL0     H99326   3.151   5.511   7.067 -1.4963  2.4869  1.4870
  736MOL0     H99327   2.974   5.491   7.068 -1.4986 -1.2925  1.0652
  736MOL0     H99328   2.995   5.268   7.173 -2.3616  2.7976  1.4455
  736MOL0     H99329   3.175   5.272   7.175 -1.0098 -2.3171  5.1435
  736MOL0     H99330   3.018   5.485   7.316  0.1953 -0.1527 -3.1816
  736MOL0     H99331   3.186   5.461   7.313 -1.0070  2.6970  2.5695
  736MOL0     H99332   3.097   5.193   7.387 -1.5123 -0.3273 -0.9817
  736MOL0     H99333   2.967   5.309   7.457  0.2935 -2.9331  1.3135
  736MOL0     H99334   3.148   5.257   7.619 -1.9701 -2.1744 -2.8823
  736MOL0     H99335   3.268   5.347   7.516  1.0895 -2.7640 -0.0116
  736MOL0     H99336   3.000   5.425   7.654 -0.8747 -0.0017  0.2274
  736MOL0     H99337   3.078   5.547   7.548 -0.0276 -0.2066 -1.1970
  736MOL0     H99338   3.120   5.602   7.783 -1.0467  0.0359 -1.6268
  736MOL0     H99339   3.222   5.455   7.788  0.2944  0.3959 -0.0210
  736MOL0     H99340   3.245   5.584   6.845  0.1182  0.7917 -1.2973
  736MOL0     H99341   3.456   5.671   6.852  2.1630 -0.3010 -1.7776
  736MOL0     H99342   3.847   5.697   6.903  2.6997  0.7657  0.6669
  736MOL0     H99343   3.992   5.867   6.894 -3.6248 -1.4993  2.0702
  736MOL0     H99344   3.175   6.124   5.715 -0.6290  1.2677  0.7231
  736MOL0     H99345   2.987   6.070   5.572 -1.8379  1.1164 -3.7601
  736MOL0     H99346   2.695   6.193   5.290  0.3373  2.9310  1.3698
  736MOL0     H99347   2.479   6.114   5.166 -1.2958 -2.7242  0.4880
  736MOL0     H99348   2.193   5.913   5.428 -0.2052 -0.7967 -1.1774
  736MOL0     H99349   2.189   5.817   5.288  0.5032 -0.0629 -0.6996
  736MOL0     H99350   2.022   6.075   5.351  0.6143  0.3442 -0.1555
  736MOL0     H99351   1.950   5.924   5.350 -1.0706  0.9702 -0.8827
  736MOL0     H99352   2.057   5.955   5.076  1.3516 -2.1101  2.8679
  736MOL0     H99353   2.042   6.118   5.143 -0.5787  0.4315  2.4026
  736MOL0     H99354   1.842   6.063   5.026  1.6104  2.2159  0.3263
  736MOL0     H99355   1.813   5.907   5.111 -0.1934 -0.4166  2.2055
  736MOL0     H99356   1.629   6.163   5.369 -1.5999 -1.4927 -1.6765
  736MOL0     H99357   2.302   6.064   5.551  2.1923 -1.0781  1.2958
  736MOL0     H99358   2.422   6.295   5.703 -1.9332 -0.2409 -0.7261
  736MOL0     H99359   2.376   6.142   5.750  0.6867  1.5195  2.9797
  736MOL0     H99360   2.547   6.170   5.757  0.5047  0.2677  0.2510
  737MOL0     O99361   4.321   2.925   9.194 -0.1725  0.5003 -0.0571
  737MOL0     C99362   4.409   2.960   9.264 -0.9223 -0.4899 -0.7526
  737MOL0     O99363   4.481   3.074   9.233 -0.1975  0.2428 -0.7783
  737MOL0     C99364   4.438   3.160   9.136  0.2066  0.5411 -0.9029
  737MOL0     C99365   4.515   3.179   9.023 -0.4836 -0.2295  0.2822
  737MOL0     C99366   4.461   3.264   8.928 -0.3281 -0.2513  0.2043
  737MOL0     C99367   4.340   3.333   8.940  0.0490  0.4739 -0.1939
  737MOL0     O99368   4.285   3.425   8.856  0.3697  0.0118  0.5914
  737MOL0     C99369   4.354   3.447   8.736 -0.5260  0.2518 -0.2209
  737MOL0     C99370   4.303   3.578   8.688 -0.0297 -0.1071 -0.2974
  737MOL0     C99371   4.158   3.553   8.636  0.1493 -0.4682 -0.3876
  737MOL0     C99372   4.111   3.655   8.532  0.0827  0.3470 -0.0383
  737MOL0     C99373   4.132   3.604   8.386 -0.4074  0.3499 -0.1236
  737MOL0     C99374   4.225   3.698   8.307 -0.1423  0.2791  0.5846
  737MOL0     C99375   4.274   3.642   8.179 -0.4324  0.5098 -0.7214
  737MOL0     C99376   4.413   3.574   8.199 -0.5490 -0.7608 -0.5693
  737MOL0     N99377   4.412   3.467   8.302 -0.2957 -0.0002  0.3086
  737MOL0     C99378   4.369   3.336   8.286  0.9712 -0.7232 -0.6243
  737MOL0     C99379   4.433   3.267   8.384  0.3228 -0.1459 -0.0415
  737MOL0     C99380   4.404   3.122   8.411  0.8688 -0.0373 -0.3490
  737MOL0     C99381   4.512   3.054   8.498 -0.7645 -0.5361  0.0868
  737MOL0     C99382   4.507   2.898   8.474  0.1824 -0.5217  0.1551
  737MOL0     C99383   4.632   2.819   8.517 -0.9618  0.5014 -0.6634
  737MOL0     O99384   4.680   2.870   8.645 -0.1603  0.2072 -0.0507
  737MOL0     C99385   4.803   2.850   8.689 -0.1662 -0.4316 -0.9203
  737MOL0     C99386   4.904   2.777   8.629  0.1589  0.0030  0.8904
  737MOL0     C99387   5.031   2.775   8.676  0.3661 -0.5321 -0.2045
  737MOL0     C99388   5.061   2.848   8.791 -0.3977 -0.1218 -0.6191
  737MOL0     C99389   5.201   2.856   8.835  0.0413  0.7520  0.0746
  737MOL0     O99390   5.254   2.978   8.846  0.0450  0.2249  0.2433
  737MOL0     C99391   5.389   2.996   8.878  0.1898  0.9629 -0.6706
  737MOL0     C99392   5.478   2.933   8.968  0.1315  0.1839  0.2927
  737MOL0     C99393   5.609   2.974   8.983 -0.9195 -1.0313 -1.4686
  737MOL0     C99394   5.669   3.070   8.904 -0.8175  0.0768  1.3878
  737MOL0     O99395   5.804   3.102   8.918 -0.4461  0.9819  0.3538
  737MOL0     C99396   5.841   3.237   8.945 -0.0325  0.0947  0.1550
  737MOL0     C99397   5.786   3.283   9.085 -0.7127  0.4738 -0.9700
  737MOL0     C99398   5.781   3.433   9.127 -0.4148 -0.4544  0.4142
  737MOL0     C99399   5.926   3.482   9.153 -0.4777  0.4102 -0.3784
  737MOL0     C99400   5.964   3.590   9.048 -1.4509  0.1006  1.0428
  737MOL0     C99401   6.111   3.636   9.059 -0.8258  0.2245 -0.3908
  737MOL0     C99402   6.139   3.714   9.188  0.1752  0.2562 -0.0205
  737MOL0     C99403   6.281   3.763   9.211  0.6626  0.6222  0.3063
  737MOL0    Cl99404   6.260   3.868   9.355 -0.4134  0.0581 -0.0310
  737MOL0     C99405   5.583   3.133   8.807 -0.6226 -0.4804  0.2258
  737MOL0     C99406   5.448   3.086   8.795  0.4080  0.6294 -0.6185
  737MOL0     O99407   5.259   2.745   8.838  0.1029 -0.9672 -0.3598
  737MOL0     C99408   4.956   2.910   8.863  0.1777 -0.8815  0.0911
  737MOL0     C99409   4.830   2.919   8.803  0.5169 -0.1506  0.4573
  737MOL0     N99410   4.510   3.355   8.460  0.0530  0.3282 -0.3074
  737MOL0     N99411   4.504   3.473   8.403 -0.2528  0.2475 -0.1892
  737MOL0     C99412   4.265   3.311   9.057  0.1695 -0.4095  0.1123
  737MOL0     C99413   4.314   3.226   9.151  1.0513  0.1470  0.6051
  737MOL0     C99414   4.447   2.892   9.390  0.3572  0.4305 -1.3696
  737MOL0     C99415   4.522   2.960   9.487  0.7331  1.1005 -0.1946
  737MOL0     C99416   4.548   2.902   9.613 -0.1425  0.9410 -0.3836
  737MOL0     C99417   4.498   2.778   9.650 -0.9568  0.2726 -0.8503
  737MOL0     O99418   4.536   2.714   9.765  0.0478 -0.2095 -0.3279
  737MOL0     C99419   4.530   2.569   9.783  0.0954  0.2904 -0.0967
  737MOL0     C99420   4.623   2.499   9.678 -1.6124 -0.1760  0.7318
  737MOL0     C99421   4.682   2.354   9.712  0.0823 -0.7260  0.3920
  737MOL0     C99422   4.801   2.361   9.802  0.2580 -0.0984 -0.3671
  737MOL0     C99423   4.924   2.397   9.740 -0.9113  0.1407  0.5084
  737MOL0     C99424   5.030   2.441   9.696 -0.4849 -0.0351 -0.2102
  737MOL0     C99425   4.414   2.714   9.553 -1.0163 -0.5465  0.3912
  737MOL0     C99426   4.400   2.762   9.427  0.3532 -0.8485  0.2136
  737MOL0     C99427   4.327   2.670   9.331  0.3252 -1.0807 -0.4396
  737MOL0     H99428   4.607   3.123   9.021 -0.8355 -0.8172  0.3454
  737MOL0     H99429   4.524   3.288   8.843 -1.6950  1.4632 -0.4083
  737MOL0     H99430   4.461   3.469   8.747 -1.2035  4.0324  0.3445
  737MOL0     H99431   4.334   3.370   8.661  0.2787 -0.0453 -0.1434
  737MOL0     H99432   4.359   3.611   8.600 -0.0425  0.0768 -0.2354
  737MOL0     H99433   4.295   3.664   8.755  4.3619  2.8764 -2.9927
  737MOL0     H99434   4.104   3.570   8.729  0.7068  0.7545 -0.2717
  737MOL0     H99435   4.139   3.447   8.616 -1.4151 -0.0019 -1.5808
  737MOL0     H99436   4.004   3.674   8.544 -0.4594  0.4080 -3.9015
  737MOL0     H99437   4.153   3.754   8.552  1.6572 -0.3212  0.1165
  737MOL0     H99438   4.171   3.502   8.398 -1.0219 -0.0619 -1.4938
  737MOL0     H99439   4.038   3.599   8.330  0.6030 -1.1858 -1.8047
  737MOL0     H99440   4.177   3.794   8.289 -0.5812 -0.4293 -2.7937
  737MOL0     H99441   4.316   3.715   8.365  1.6034 -1.6188 -1.4223
  737MOL0     H99442   4.279   3.719   8.102  0.9860 -0.0105 -1.1858
  737MOL0     H99443   4.215   3.563   8.133  0.3692  0.8545 -2.4082
  737MOL0     H99444   4.464   3.535   8.110  2.1642  2.0845 -0.4028
  737MOL0     H99445   4.484   3.651   8.229 -1.6291  0.5019 -1.1502
  737MOL0     H99446   4.304   3.298   8.208 -0.8706  0.0319  0.4725
  737MOL0     H99447   4.308   3.111   8.461 -1.1205  2.3423 -3.2999
  737MOL0     H99448   4.390   3.075   8.314  0.6879 -1.8842  0.5294
  737MOL0     H99449   4.608   3.086   8.458 -0.7372 -1.2878 -0.4814
  737MOL0     H99450   4.493   3.083   8.602 -1.8104 -4.5677  1.1963
  737MOL0     H99451   4.501   2.885   8.366  0.2451  0.4788  0.0174
  737MOL0     H99452   4.418   2.858   8.524  2.4282 -5.9140  0.5038
  737MOL0     H99453   4.710   2.843   8.444  1.3146 -0.7916  1.1889
  737MOL0     H99454   4.608   2.714   8.533 -0.8365  0.7724  1.7547
  737MOL0     H99455   4.896   2.749   8.525  5.3194 -1.3063  0.5967
  737MOL0     H99456   5.117   2.735   8.623  0.3061  1.7313 -2.1867
  737MOL0     H99457   5.433   2.855   9.028 -1.9402  0.1989 -1.1482
  737MOL0     H99458   5.659   2.919   9.062 -1.4464 -1.4394 -1.4106
  737MOL0     H99459   5.950   3.247   8.947  0.2990 -2.7798  2.1092
  737MOL0     H99460   5.805   3.303   8.865 -3.4639 -0.8303  0.7486
  737MOL0     H99461   5.683   3.249   9.103 -0.0589 -0.8380  0.4638
  737MOL0     H99462   5.851   3.233   9.157 -2.5123  0.2124  0.5583
  737MOL0     H99463   5.726   3.489   9.051  2.1534  1.6007 -0.0464
  737MOL0     H99464   5.733   3.442   9.225  2.8847  2.7235  1.9518
  737MOL0     H99465   6.002   3.405   9.142 -1.1247  0.0042 -2.3416
  737MOL0     H99466   5.937   3.521   9.255 -1.7555 -0.1306 -0.0116
  737MOL0     H99467   5.894   3.674   9.052 -0.6944  0.6980  2.9272
  737MOL0     H99468   5.950   3.546   8.949  1.0362 -0.0555  0.6996
  737MOL0     H99469   6.177   3.548   9.053 -1.4593 -0.4466  1.6550
  737MOL0     H99470   6.128   3.711   8.982  2.3094  1.3905  1.2518
  737MOL0     H99471   6.108   3.654   9.274 -1.1135  1.9763  0.7768
  737MOL0     H99472   6.068   3.797   9.181 -1.6635 -1.0088  2.1733
  737MOL0     H99473   6.348   3.679   9.234 -1.5261 -1.8254 -1.6661
  737MOL0     H99474   6.317   3.816   9.122 -0.5631  1.1913  0.1353
  737MOL0     H99475   5.625   3.207   8.740 -0.6866  0.7341  1.4776
  737MOL0     H99476   5.388   3.138   8.721  1.6084  2.1368 -0.5780
  737MOL0     H99477   4.987   2.973   8.946  2.9331 -0.0440 -1.4258
  737MOL0     H99478   4.756   2.994   8.827  0.9126  0.8204 -1.1986
  737MOL0     H99479   4.165   3.352   9.063 -0.9679 -3.0432  0.7040
  737MOL0     H99480   4.249   3.221   9.238 -1.6527  1.7948 -1.1758
  737MOL0     H99481   4.565   3.057   9.465  2.2959 -0.0809 -2.7758
  737MOL0     H99482   4.615   2.962   9.674  0.9836 -2.6970  2.2997
  737MOL0     H99483   4.427   2.536   9.763 -0.7333  2.5358  0.1812
  737MOL0     H99484   4.559   2.547   9.886  2.3074  5.0585  0.5602
  737MOL0     H99485   4.702   2.568   9.648 -2.0359 -0.0978 -0.2469
  737MOL0     H99486   4.554   2.475   9.597 -0.7338  0.0069 -0.0812
  737MOL0     H99487   4.694   2.286   9.628 -1.3126 -1.2406  0.5763
  737MOL0     H99488   4.596   2.305   9.759  0.4564 -3.1919 -1.2940
  737MOL0     H99489   4.779   2.420   9.892  0.9291 -2.0204  1.1345
  737MOL0     H99490   4.819   2.262   9.846  0.5361 -0.6571 -1.6959
  737MOL0     H99491   5.117   2.478   9.646  0.8399 -2.0949  0.4620
  737MOL0     H99492   4.366   2.619   9.577 -2.9603  0.4968  0.7706
  737MOL0     H99493   4.400   2.622   9.265  1.1196 -1.3128  0.5808
  737MOL0     H99494   4.286   2.585   9.386 -2.2582  0.4670  0.1890
  737MOL0     H99495   4.242   2.714   9.278 -0.3175 -1.3586  0.3366
  738MOL0     O99496   1.858   1.237   0.423  0.3208  0.5360  0.4539
  738MOL0     C99497   1.952   1.180   0.479 -0.0244  0.0976  0.5261
  738MOL0     O99498   1.962   1.042   0.491 -0.2607 -0.4511  0.0539
  738MOL0     C99499   1.908   0.963   0.401  1.0015  1.4630 -0.7415
  738MOL0     C99500   1.870   0.999   0.273  0.5154 -0.6933 -0.0964
  738MOL0     C99501   1.817   0.905   0.184 -0.4149  0.8252 -0.2848
  738MOL0     C99502   1.813   0.758   0.225  1.1963 -0.6201  0.2591
  738MOL0     O99503   1.758   0.666   0.142 -0.5727  0.7749  0.0710
  738MOL0     C99504   1.615   0.634   0.161  0.1679 -0.0328  0.2767
  738MOL0     C99505   1.511   0.741   0.155 -0.6619  0.2173 -0.8197
  738MOL0     C99506   1.492   0.813   0.014  0.7770  0.2175 -1.0526
  738MOL0     C99507   1.375   0.751  -0.064  0.6572 -0.3681  0.2246
  738MOL0     C99508   1.374   0.846  -0.191  0.6567 -0.3537  0.5643
  738MOL0     C99509   1.280   0.804  -0.302  0.7551  0.0936  0.0124
  738MOL0     C99510   1.128   0.790  -0.256 -0.6335  0.1728 -0.0076
  738MOL0     C99511   1.053   0.725  -0.363 -0.0546 -0.2722  0.8044
  738MOL0     N99512   0.903   0.731  -0.354  0.2049 -0.1059  0.2927
  738MOL0     C99513   0.837   0.849  -0.362  0.2968  0.5100  0.2552
  738MOL0     C99514   0.713   0.819  -0.392 -0.0656  1.0291  0.3294
  738MOL0     C99515   0.589   0.907  -0.420  0.5530 -0.3555 -0.5925
  738MOL0     C99516   0.514   0.882  -0.551  0.0290 -0.5171  0.2488
  738MOL0     C99517   0.441   1.006  -0.598 -0.2991  0.1314 -0.3410
  738MOL0     C99518   0.409   0.998  -0.745  0.5328  0.3111  1.0520
  738MOL0     O99519   0.525   1.044  -0.820 -0.2209 -0.1391 -0.1234
  738MOL0     C99520   0.516   1.047  -0.953  0.0254  0.0670  0.2703
  738MOL0     C99521   0.475   0.939  -1.031  1.3619  0.0281 -0.3178
  738MOL0     C99522   0.454   0.950  -1.168 -0.5139 -0.1266 -0.1721
  738MOL0     C99523   0.471   1.068  -1.233  0.4054 -0.7171  0.7511
  738MOL0     C99524   0.426   1.095  -1.371  0.3935  1.0133 -0.3505
  738MOL0     O99525   0.329   1.012  -1.426  0.2103  0.2837  0.2889
  738MOL0     C99526   0.286   1.038  -1.556 -0.1372 -0.3356  1.2561
  738MOL0     C99527   0.272   0.940  -1.654  0.4402  0.2511 -0.4840
  738MOL0     C99528   0.199   0.963  -1.766  0.0273  0.1361  0.1126
  738MOL0     C99529   0.137   1.082  -1.788  0.4289 -0.5727  0.6527
  738MOL0     O99530   0.065   1.118  -1.907 -0.0741 -1.1716 -0.4860
  738MOL0     C99531  -0.028   1.022  -1.953 -0.3607  0.2872 -0.4012
  738MOL0     C99532  -0.103   1.102  -2.056  0.5935 -0.1296  0.1909
  738MOL0     C99533  -0.206   1.201  -1.989 -0.4725  1.0316 -0.2176
  738MOL0     C99534  -0.300   1.263  -2.098  0.9706 -0.0341 -0.2372
  738MOL0     C99535  -0.425   1.325  -2.029  0.2514 -0.1476  0.0770
  738MOL0     C99536  -0.499   1.429  -2.114 -0.9498 -0.1394 -0.0125
  738MOL0     C99537  -0.653   1.447  -2.081 -0.1603 -0.3437  0.3681
  738MOL0     C99538  -0.683   1.576  -1.990  0.3347  0.1200 -0.1210
  738MOL0    Cl99539  -0.571   1.587  -1.847 -0.0123  0.1886  0.5936
  738MOL0     C99540   0.155   1.185  -1.700 -0.4545  0.5412  0.0585
  738MOL0     C99541   0.223   1.158  -1.582  0.9547 -0.3313 -0.2193
  738MOL0     O99542   0.488   1.179  -1.442 -0.3506  0.3164  0.2993
  738MOL0     C99543   0.533   1.171  -1.163  0.8331  0.6434  0.0891
  738MOL0     C99544   0.549   1.164  -1.025  0.3788 -0.0744 -0.2978
  738MOL0     N99545   0.704   0.681  -0.387 -0.0132 -0.3795  0.6025
  738MOL0     N99546   0.818   0.631  -0.372 -0.1130 -0.1960  0.1238
  738MOL0     C99547   1.878   0.725   0.338 -0.0898 -0.0543 -0.3679
  738MOL0     C99548   1.916   0.821   0.436 -0.6846 -1.0397 -0.4832
  738MOL0     C99549   2.064   1.265   0.524  0.5284  0.5968 -0.3394
  738MOL0     C99550   2.039   1.407   0.527 -0.1963  0.6386  0.3523
  738MOL0     C99551   2.126   1.495   0.593 -0.4603 -0.0387  0.5952
  738MOL0     C99552   2.250   1.449   0.643  0.8952  0.0718 -0.3906
  738MOL0     O99553   2.353   1.536   0.679  0.0328 -0.1295  0.2783
  738MOL0     C99554   2.485   1.491   0.737  0.7790 -0.1318  0.6150
  738MOL0     C99555   2.476   1.456   0.881 -0.7090 -0.4829 -0.5411
  738MOL0     C99556   2.616   1.473   0.956 -0.3807  1.5912  0.2733
  738MOL0     C99557   2.602   1.463   1.110  0.4148 -0.2737  0.1392
  738MOL0     C99558   2.522   1.573   1.157 -1.1137  0.1673 -0.9674
  738MOL0     C99559   2.444   1.662   1.196  0.3153 -0.7579  0.3222
  738MOL0     C99560   2.277   1.311   0.629 -0.6336 -0.3669  1.4660
  738MOL0     C99561   2.181   1.216   0.578  0.0433 -0.3484  0.3808
  738MOL0     C99562   2.207   1.071   0.617  0.7891 -0.3495  0.6387
  738MOL0     H99563   1.907   1.094   0.237  1.2570 -0.4842  1.1586
  738MOL0     H99564   1.762   0.948   0.101 -2.6178 -2.4933 -0.7186
  738MOL0     H99565   1.588   0.557   0.089 -0.7538  2.5938 -2.3576
  738MOL0     H99566   1.608   0.570   0.250 -4.2486 -0.8173 -0.4056
  738MOL0     H99567   1.540   0.816   0.229  0.9562  1.1690 -2.3138
  738MOL0     H99568   1.419   0.691   0.187  1.6985 -1.3575  4.5868
  738MOL0     H99569   1.587   0.815  -0.040  1.2844  0.4017 -0.1805
  738MOL0     H99570   1.452   0.910   0.045 -2.4317 -0.3596 -2.9970
  738MOL0     H99571   1.408   0.649  -0.089  2.9461  0.2105  0.6399
  738MOL0     H99572   1.278   0.747  -0.013 -0.4925 -1.5611 -1.9031
  738MOL0     H99573   1.342   0.948  -0.167  0.9058  1.4931 -5.3752
  738MOL0     H99574   1.470   0.857  -0.240  1.5875  3.5518  2.7910
  738MOL0     H99575   1.285   0.878  -0.383  1.9994  2.2303  1.9178
  738MOL0     H99576   1.298   0.707  -0.348 -2.1647 -0.0666 -1.0179
  738MOL0     H99577   1.084   0.888  -0.239  0.3056  0.0807  3.9197
  738MOL0     H99578   1.122   0.732  -0.163  1.4214 -1.5920 -0.8974
  738MOL0     H99579   1.087   0.764  -0.459  1.3471 -0.9918  0.9762
  738MOL0     H99580   1.082   0.619  -0.364  2.7590  0.3824  3.0558
  738MOL0     H99581   0.879   0.949  -0.363  1.9378 -0.1177  1.5954
  738MOL0     H99582   0.526   0.905  -0.331  2.1716 -1.9165  0.5960
  738MOL0     H99583   0.633   1.006  -0.434 -1.3678  0.6542  0.2124
  738MOL0     H99584   0.590   0.858  -0.626  0.2718  0.9572 -0.0107
  738MOL0     H99585   0.455   0.790  -0.547 -0.8962  0.0374 -0.3073
  738MOL0     H99586   0.503   1.095  -0.581 -3.1176  2.1599  0.2147
  738MOL0     H99587   0.348   1.028  -0.544 -1.3509 -2.9248 -0.7086
  738MOL0     H99588   0.322   1.064  -0.762 -3.3492 -4.0287  2.0363
  738MOL0     H99589   0.387   0.897  -0.780  0.3733  0.4643  0.7009
  738MOL0     H99590   0.439   0.850  -0.979 -1.3593  1.1033 -0.2238
  738MOL0     H99591   0.402   0.873  -1.224 -0.0284 -0.4558 -0.1765
  738MOL0     H99592   0.302   0.836  -1.642  0.1072 -0.0030 -1.6538
  738MOL0     H99593   0.185   0.889  -1.844 -0.4452  2.6609 -2.3677
  738MOL0     H99594   0.022   0.937  -2.000  1.1100 -0.1618  1.7992
  738MOL0     H99595  -0.092   0.988  -1.870  1.6460  0.2393  1.2019
  738MOL0     H99596  -0.032   1.156  -2.119  0.7873 -3.3047 -2.6010
  738MOL0     H99597  -0.166   1.047  -2.126 -1.5171  4.0661 -1.4941
  738MOL0     H99598  -0.268   1.146  -1.917  2.6643 -0.1211  1.8049
  738MOL0     H99599  -0.154   1.266  -1.919  0.1927  1.4798 -1.1076
  738MOL0     H99600  -0.346   1.176  -2.147 -0.6486  0.1887  0.7935
  738MOL0     H99601  -0.255   1.337  -2.164  0.0274  1.1087  0.3823
  738MOL0     H99602  -0.395   1.368  -1.933  2.6584  1.6022 -1.3504
  738MOL0     H99603  -0.488   1.239  -2.004  2.9531 -1.4728  3.0062
  738MOL0     H99604  -0.455   1.528  -2.100 -0.4972 -0.0046 -1.9845
  738MOL0     H99605  -0.501   1.389  -2.216 -0.5142 -1.1729  0.3668
  738MOL0     H99606  -0.695   1.361  -2.029  0.2524 -1.6797 -1.3970
  738MOL0     H99607  -0.703   1.453  -2.178  2.3040  0.5936 -0.9235
  738MOL0     H99608  -0.665   1.671  -2.042  1.8962  0.9328  1.7782
  738MOL0     H99609  -0.785   1.564  -1.952  1.2722  0.0683  2.6377
  738MOL0     H99610   0.109   1.283  -1.712 -2.5575 -0.1136  1.9948
  738MOL0     H99611   0.221   1.233  -1.504 -0.4525  1.0589 -1.5324
  738MOL0     H99612   0.553   1.269  -1.206 -1.2520  1.3013  0.4828
  738MOL0     H99613   0.578   1.253  -0.971  0.0692 -1.2771  2.0119
  738MOL0     H99614   1.888   0.619   0.359  0.3388  0.0642  0.0439
  738MOL0     H99615   1.958   0.793   0.532  5.2028 -0.8133 -2.5923
  738MOL0     H99616   1.942   1.444   0.494 -1.5310 -1.8457  1.1838
  738MOL0     H99617   2.095   1.599   0.592  0.2802  0.1924  0.9836
  738MOL0     H99618   2.554   1.574   0.722  0.7718 -0.3912 -1.1185
  738MOL0     H99619   2.535   1.417   0.674  0.3890 -0.4642  0.6911
  738MOL0     H99620   2.428   1.361   0.906 -1.4660  0.5867  2.4809
  738MOL0     H99621   2.407   1.536   0.913  3.9533  3.5311  0.7359
  738MOL0     H99622   2.653   1.568   0.917 -1.5399  1.3481 -1.5624
  738MOL0     H99623   2.674   1.387   0.921  0.0936  0.8586  2.6419
  738MOL0     H99624   2.554   1.369   1.139 -0.8196  0.3107  0.0442
  738MOL0     H99625   2.700   1.461   1.159  0.5645  0.3180 -0.1292
  738MOL0     H99626   2.383   1.741   1.232  3.2540  0.2735  3.5722
  738MOL0     H99627   2.375   1.266   0.645 -1.1907 -2.8132 -1.2367
  738MOL0     H99628   2.215   1.000   0.534  3.1865 -1.8122  2.0257
  738MOL0     H99629   2.299   1.066   0.675  1.3050 -0.3207 -0.1719
  738MOL0     H99630   2.123   1.042   0.681  0.4909  1.7730  1.2911
  739MOL0     O99631  11.081   5.175   6.590 -0.5521 -0.0524 -0.4238
  739MOL0     C99632  11.150   5.235   6.502  0.2769  0.3638  0.9212
  739MOL0     O99633  11.110   5.296   6.383  0.2429 -0.4341  0.1567
  739MOL0     C99634  10.983   5.281   6.343  1.3060 -0.8101 -0.0880
  739MOL0     C99635  10.886   5.349   6.419 -1.1258  0.1166 -0.7134
  739MOL0     C99636  10.750   5.364   6.381  0.1063  0.4339 -0.0457
  739MOL0     C99637  10.706   5.303   6.265 -0.3267 -0.1531  1.0188
  739MOL0     O99638  10.576   5.330   6.234 -0.2217  0.6252 -0.1419
  739MOL0     C99639  10.543   5.322   6.090 -0.9511  0.1171 -0.0064
  739MOL0     C99640  10.413   5.397   6.065  1.1624  0.0173 -0.1734
  739MOL0     C99641  10.304   5.347   6.156  0.2604 -0.5201  0.4061
  739MOL0     C99642  10.167   5.373   6.101  0.2907 -1.1919 -0.5818
  739MOL0     C99643  10.099   5.484   6.188 -0.9863  0.7587  0.4553
  739MOL0     C99644   9.955   5.516   6.131  0.3138 -0.8002 -0.3647
  739MOL0     C99645   9.879   5.621   6.214  0.3598  0.2584 -0.3761
  739MOL0     C99646   9.748   5.668   6.152 -0.1647 -0.8530 -0.4194
  739MOL0     N99647   9.651   5.554   6.160  0.3239 -0.0556  0.1070
  739MOL0     C99648   9.539   5.555   6.086  0.8116  0.8354  0.1232
  739MOL0     C99649   9.471   5.453   6.122  0.1507  0.7731 -0.0288
  739MOL0     C99650   9.327   5.423   6.073  0.1183  0.4892  0.3141
  739MOL0     C99651   9.228   5.422   6.187 -0.3851  0.7618  1.2952
  739MOL0     C99652   9.087   5.362   6.137 -0.3897 -0.6576 -0.8289
  739MOL0     C99653   9.048   5.234   6.220  0.1746  0.7318  0.5496
  739MOL0     O99654   8.963   5.143   6.147  0.7964  0.7516 -0.1494
  739MOL0     C99655   8.828   5.134   6.159  0.1740  0.3652 -0.3729
  739MOL0     C99656   8.771   5.021   6.105 -0.0156 -0.7563  0.3768
  739MOL0     C99657   8.632   4.999   6.123 -0.8260  0.7169  0.6124
  739MOL0     C99658   8.552   5.072   6.215 -0.8480  0.4928  0.3706
  739MOL0     C99659   8.416   5.038   6.242 -0.8622 -0.8420 -0.1058
  739MOL0     O99660   8.344   5.114   6.325  0.5518  0.2088  0.6265
  739MOL0     C99661   8.215   5.078   6.350  0.3076 -0.6516  0.1622
  739MOL0     C99662   8.098   5.116   6.276  0.7828 -0.7165 -0.0743
  739MOL0     C99663   7.975   5.041   6.292  0.3799 -0.4207 -0.2920
  739MOL0     C99664   7.961   4.959   6.410 -0.4184  0.1086  0.1745
  739MOL0     O99665   7.839   4.907   6.427 -0.2222  0.5936  0.4111
  739MOL0     C99666   7.727   4.994   6.465  0.2595 -0.9634  0.6630
  739MOL0     C99667   7.602   4.906   6.506 -0.4821  0.4243 -0.7277
  739MOL0     C99668   7.618   4.855   6.660 -0.3275  0.9655  0.0918
  739MOL0     C99669   7.594   4.969   6.758  0.1551  0.2243  0.4940
  739MOL0     C99670   7.553   4.913   6.900 -0.1012  0.3980  0.0433
  739MOL0     C99671   7.546   5.023   7.012  1.6364  0.7723 -0.2065
  739MOL0     C99672   7.585   4.972   7.148  0.6124 -0.4510  0.6049
  739MOL0     C99673   7.524   5.052   7.262  0.5177 -0.1384  0.0113
  739MOL0    Cl99674   7.610   5.214   7.303  0.4443  0.3939 -0.4386
  739MOL0     C99675   8.076   4.929   6.486  0.1582 -0.1231 -0.7245
  739MOL0     C99676   8.202   4.995   6.462  0.2390 -0.4897 -0.4856
  739MOL0     O99677   8.364   4.956   6.164 -0.2865 -0.3146  0.4018
  739MOL0     C99678   8.622   5.181   6.278  0.2304 -0.1275  0.6731
  739MOL0     C99679   8.755   5.212   6.247 -0.0900 -0.0177 -0.1900
  739MOL0     N99680   9.543   5.367   6.210 -0.2543 -0.4678  1.1454
  739MOL0     N99681   9.648   5.432   6.234 -0.1549 -0.0773 -0.9081
  739MOL0     C99682  10.807   5.231   6.185  0.5966  0.4811 -1.4877
  739MOL0     C99683  10.936   5.220   6.228 -0.6110 -0.5861 -0.8837
  739MOL0     C99684  11.294   5.253   6.544 -0.4656 -0.4215 -0.4214
  739MOL0     C99685  11.394   5.239   6.445  0.2094  0.3532  0.0500
  739MOL0     C99686  11.527   5.228   6.475  0.4504 -0.6193 -0.3861
  739MOL0     C99687  11.569   5.233   6.611 -0.6835  1.1034 -0.9905
  739MOL0     O99688  11.701   5.211   6.643  0.4061  0.3234  0.7911
  739MOL0     C99689  11.743   5.234   6.778 -0.7284  0.4569  0.5006
  739MOL0     C99690  11.746   5.386   6.812 -1.0605  0.4762 -0.1016
  739MOL0     C99691  11.845   5.425   6.927 -0.1660  0.7810 -0.5744
  739MOL0     C99692  11.812   5.351   7.056  0.0426 -0.8009  0.2017
  739MOL0     C99693  11.670   5.366   7.109  0.0266 -0.1480 -0.9473
  739MOL0     C99694  11.550   5.384   7.140 -0.4414 -0.7207  0.6879
  739MOL0     C99695  11.471   5.251   6.707 -0.2434  0.1160 -0.3512
  739MOL0     C99696  11.332   5.268   6.679 -0.3901  0.6097  0.7870
  739MOL0     C99697  11.240   5.286   6.795  0.2750 -0.9022 -0.3900
  739MOL0     H99698  10.923   5.400   6.508 -3.2760  1.0612 -0.3127
  739MOL0     H99699  10.687   5.421   6.448  1.4767  0.3337  1.3768
  739MOL0     H99700  10.622   5.364   6.027 -0.4731 -1.0716 -0.2116
  739MOL0     H99701  10.525   5.219   6.060 -0.6944 -0.2295  0.9973
  739MOL0     H99702  10.388   5.380   5.960  0.1420 -2.0160  0.3517
  739MOL0     H99703  10.431   5.504   6.083 -0.4259  0.4701 -1.0676
  739MOL0     H99704  10.308   5.387   6.258  1.7642 -2.3462  1.1053
  739MOL0     H99705  10.310   5.238   6.153  1.7130 -0.4450 -0.1010
  739MOL0     H99706  10.161   5.396   5.994  1.5134  3.3398  0.1305
  739MOL0     H99707  10.103   5.286   6.116 -0.9777 -0.2107 -0.1000
  739MOL0     H99708  10.091   5.440   6.288  0.0299 -0.2341  0.1316
  739MOL0     H99709  10.164   5.571   6.177 -1.5554  1.2319  0.8143
  739MOL0     H99710   9.969   5.565   6.034  0.3244 -3.4349 -1.8014
  739MOL0     H99711   9.900   5.422   6.122  0.6081 -0.8596 -1.8317
  739MOL0     H99712   9.934   5.715   6.223  1.3000 -0.1702 -1.4894
  739MOL0     H99713   9.864   5.569   6.309  4.1406 -2.4930 -1.0723
  739MOL0     H99714   9.729   5.749   6.224  1.4403 -2.2954  1.7432
  739MOL0     H99715   9.747   5.689   6.045 -0.9026 -1.0134 -0.4540
  739MOL0     H99716   9.494   5.634   6.026  2.6445  1.0513 -1.0586
  739MOL0     H99717   9.294   5.505   6.009 -2.3533 -2.4996 -2.5327
  739MOL0     H99718   9.321   5.329   6.019  1.0195  0.2491  0.6107
  739MOL0     H99719   9.276   5.354   6.258  1.4034  1.7740  1.1359
  739MOL0     H99720   9.212   5.525   6.222  1.8104  1.4168  0.5605
  739MOL0     H99721   9.110   5.332   6.034  0.0019  0.3706 -1.0609
  739MOL0     H99722   9.015   5.444   6.143  0.2993  0.2696 -3.5547
  739MOL0     H99723   9.005   5.262   6.317  2.0322  0.6235  1.4508
  739MOL0     H99724   9.139   5.176   6.235 -0.9149 -0.7118  1.9666
  739MOL0     H99725   8.837   4.960   6.044 -0.5314 -1.6216  0.6726
  739MOL0     H99726   8.595   4.907   6.077  0.9879 -0.7110  1.8617
  739MOL0     H99727   8.111   5.200   6.209 -0.7756 -1.1045 -0.9209
  739MOL0     H99728   7.896   5.061   6.221  0.2420  0.1893  0.0193
  739MOL0     H99729   7.760   5.056   6.549  0.2416  0.3362 -0.2526
  739MOL0     H99730   7.689   5.062   6.387  1.5320 -0.5926  0.3396
  739MOL0     H99731   7.517   4.971   6.484 -1.2145 -0.1352  0.3589
  739MOL0     H99732   7.595   4.815   6.445  1.0874 -0.4729  0.3541
  739MOL0     H99733   7.540   4.783   6.684 -1.2042  2.1038  0.7778
  739MOL0     H99734   7.714   4.807   6.682 -1.1539 -1.6458 -1.6185
  739MOL0     H99735   7.525   5.044   6.719 -1.6335 -0.4092  2.3095
  739MOL0     H99736   7.687   5.022   6.778  1.9732 -2.4430 -0.2646
  739MOL0     H99737   7.616   4.825   6.918 -2.0877 -0.8761  1.1208
  739MOL0     H99738   7.450   4.877   6.894 -0.0952 -0.0289  1.8652
  739MOL0     H99739   7.613   5.108   6.996  0.3339  2.3518  2.0933
  739MOL0     H99740   7.444   5.062   7.009  2.0030  1.7822 -2.7634
  739MOL0     H99741   7.692   4.983   7.168  0.4248 -0.2734  1.5550
  739MOL0     H99742   7.553   4.867   7.155  3.7029 -1.8568 -2.9537
  739MOL0     H99743   7.421   5.069   7.228 -0.4283  0.5867  2.9713
  739MOL0     H99744   7.524   4.982   7.346  0.7790 -0.6421 -0.4040
  739MOL0     H99745   8.073   4.865   6.574 -2.0636  1.5184  0.4981
  739MOL0     H99746   8.289   4.960   6.516  0.5982  1.3992  0.2389
  739MOL0     H99747   8.578   5.256   6.343  0.1648  0.6651 -0.2793
  739MOL0     H99748   8.798   5.281   6.319 -2.5140 -0.2472  1.6270
  739MOL0     H99749  10.779   5.182   6.093 -0.7755 -1.2585 -0.2053
  739MOL0     H99750  11.014   5.162   6.180  0.9309 -0.0022  0.7530
  739MOL0     H99751  11.355   5.245   6.343 -1.6581 -0.1334  0.6987
  739MOL0     H99752  11.608   5.219   6.403  1.7707  2.1431  0.5952
  739MOL0     H99753  11.847   5.201   6.769 -1.6056 -2.1192 -1.5182
  739MOL0     H99754  11.682   5.173   6.845  1.2590  0.3957  2.3707
  739MOL0     H99755  11.644   5.421   6.828 -1.8264 -0.4605 -2.5131
  739MOL0     H99756  11.778   5.439   6.721 -0.0583 -0.3077 -0.2202
  739MOL0     H99757  11.846   5.532   6.946  1.6222  0.7432 -0.2637
  739MOL0     H99758  11.947   5.405   6.892  1.3026  0.1268  3.4431
  739MOL0     H99759  11.827   5.244   7.039  2.0107 -0.7049  1.1496
  739MOL0     H99760  11.898   5.374   7.119 -0.3255 -1.1491  0.8472
  739MOL0     H99761  11.444   5.399   7.144 -0.5503 -0.1962 -2.2523
  739MOL0     H99762  11.495   5.273   6.810  1.8332 -1.0315 -0.5341
  739MOL0     H99763  11.281   5.343   6.878 -1.1201 -1.8138  0.9885
  739MOL0     H99764  11.153   5.344   6.762  2.0810  1.9495 -0.5361
  739MOL0     H99765  11.205   5.190   6.834  1.1422 -0.9290  0.3553
  740MOL0     O99766   0.627   3.510   6.220 -0.4584  0.3844  0.0828
  740MOL0     C99767   0.541   3.501   6.137  1.0573  0.1590  0.4768
  740MOL0     O99768   0.417   3.443   6.162  0.5209  0.8027 -0.0962
  740MOL0     C99769   0.350   3.443   6.286 -0.3885 -0.4043 -0.1492
  740MOL0     C99770   0.212   3.397   6.288  0.1221 -0.3763 -0.4622
  740MOL0     C99771   0.131   3.405   6.407 -0.6253  0.7225 -0.9965
  740MOL0     C99772   0.185   3.463   6.529 -0.7109 -0.5177  0.3890
  740MOL0     O99773   0.104   3.481   6.646  0.3185  0.7605  0.0189
  740MOL0     C99774   0.050   3.356   6.700 -0.4617  0.0153 -0.5324
  740MOL0     C99775  -0.101   3.359   6.736 -0.0360 -0.3001 -0.4565
  740MOL0     C99776  -0.156   3.220   6.736 -0.2442  1.3728 -0.5200
  740MOL0     C99777  -0.312   3.202   6.713  0.1706 -0.2621 -1.1914
  740MOL0     C99778  -0.344   3.050   6.715  1.0786 -1.2186  0.6195
  740MOL0     C99779  -0.470   3.029   6.633  0.0089 -1.0133  0.1720
  740MOL0     C99780  -0.524   2.893   6.628 -0.2903 -0.1192  0.5514
  740MOL0     C99781  -0.625   2.873   6.522 -0.2078  0.4303  0.2903
  740MOL0     N99782  -0.578   2.836   6.385 -0.2668 -0.1133 -0.2358
  740MOL0     C99783  -0.494   2.730   6.366  0.9115  0.2359  0.3235
  740MOL0     C99784  -0.489   2.730   6.233  0.0915  0.1362 -0.2259
  740MOL0     C99785  -0.421   2.620   6.151  0.1051 -0.1199 -0.6273
  740MOL0     C99786  -0.350   2.662   6.021 -0.2006 -0.4183  0.3531
  740MOL0     C99787  -0.281   2.546   5.956 -0.2168 -0.5455  0.0499
  740MOL0     C99788  -0.208   2.585   5.830 -0.9593 -0.2187 -0.5709
  740MOL0     O99789  -0.292   2.638   5.731 -0.0539 -0.9781 -0.0560
  740MOL0     C99790  -0.341   2.552   5.640 -0.5553 -0.0260  0.3592
  740MOL0     C99791  -0.336   2.419   5.649  0.4541 -0.4121 -0.1155
  740MOL0     C99792  -0.412   2.330   5.571 -0.1749  0.1999 -0.1245
  740MOL0     C99793  -0.492   2.390   5.474 -1.0310  0.5305 -0.2588
  740MOL0     C99794  -0.567   2.306   5.380 -0.2058  0.8784  0.0944
  740MOL0     O99795  -0.652   2.378   5.303  0.1131 -1.0579 -0.4789
  740MOL0     C99796  -0.718   2.318   5.189 -0.0887 -0.5545  0.5187
  740MOL0     C99797  -0.741   2.404   5.075  0.4865  1.1320  0.1773
  740MOL0     C99798  -0.800   2.359   4.956 -0.6746  0.6596  0.3497
  740MOL0     C99799  -0.865   2.234   4.958 -0.6693  0.2871  0.5712
  740MOL0     O99800  -0.929   2.192   4.844  0.2541  0.5143 -0.6384
  740MOL0     C99801  -1.028   2.092   4.851 -0.4964  0.6614  0.3898
  740MOL0     C99802  -0.978   1.963   4.786  0.8325 -0.8434  0.5848
  740MOL0     C99803  -0.950   1.998   4.634  0.3590 -0.3040 -0.6090
  740MOL0     C99804  -0.840   1.911   4.572  0.1600  0.2457 -0.0565
  740MOL0     C99805  -0.799   1.971   4.438  0.5519  0.6321  0.3737
  740MOL0     C99806  -0.919   2.001   4.340 -0.0970 -0.4939  0.0548
  740MOL0     C99807  -0.879   2.038   4.197  0.1139  0.2326 -0.3407
  740MOL0     C99808  -0.824   1.918   4.124 -0.3135 -0.0836  0.4180
  740MOL0    Cl99809  -0.748   1.976   3.977  0.1026 -0.0702 -0.3385
  740MOL0     C99810  -0.848   2.156   5.078 -0.4980 -0.8945 -0.2618
  740MOL0     C99811  -0.779   2.195   5.191  0.3297  0.2754  1.0244
  740MOL0     O99812  -0.566   2.180   5.393  1.1595  0.4784 -0.9199
  740MOL0     C99813  -0.498   2.532   5.461 -0.2737 -0.2122 -0.6213
  740MOL0     C99814  -0.428   2.617   5.550 -0.3613 -0.1981 -0.2391
  740MOL0     N99815  -0.545   2.841   6.168  0.3174 -0.4666  0.7223
  740MOL0     N99816  -0.611   2.895   6.264  0.6837 -0.4601  0.1523
  740MOL0     C99817   0.320   3.500   6.525 -0.4395  0.0370  0.3535
  740MOL0     C99818   0.402   3.487   6.408 -0.3191 -0.6410 -0.5003
  740MOL0     C99819   0.575   3.524   5.994 -0.8036  0.1933 -0.1259
  740MOL0     C99820   0.467   3.533   5.906  0.0012  0.1792 -0.0105
  740MOL0     C99821   0.475   3.589   5.771  0.4841  0.0469  0.3188
  740MOL0     C99822   0.608   3.614   5.721 -0.8688  0.4212  0.0144
  740MOL0     O99823   0.649   3.651   5.595 -1.2161  0.2852  0.3044
  740MOL0     C99824   0.567   3.719   5.496  0.4993  0.8106 -0.0392
  740MOL0     C99825   0.549   3.871   5.519  0.0691  0.4118  0.0366
  740MOL0     C99826   0.684   3.955   5.486  0.2664  0.8550  0.3119
  740MOL0     C99827   0.648   4.114   5.458 -0.8688  0.0455 -0.5701
  740MOL0     C99828   0.721   4.169   5.346 -0.7707 -0.2863  0.6165
  740MOL0     C99829   0.775   4.223   5.249 -0.1710  1.0220  0.2911
  740MOL0     C99830   0.718   3.574   5.800  0.5068  0.1234 -0.1081
  740MOL0     C99831   0.703   3.537   5.938 -0.2948 -0.1854  0.6141
  740MOL0     C99832   0.831   3.486   6.000 -0.1891 -0.3181 -0.4481
  740MOL0     H99833   0.170   3.358   6.196  1.6613 -3.6759  0.1035
  740MOL0     H99834   0.031   3.362   6.413 -0.3336  0.2398  0.8810
  740MOL0     H99835   0.067   3.268   6.638  1.6140 -0.6828  0.9129
  740MOL0     H99836   0.113   3.333   6.786  0.5571  0.7566 -1.0570
  740MOL0     H99837  -0.148   3.406   6.649 -2.6748 -0.6215  0.6922
  740MOL0     H99838  -0.120   3.412   6.830 -0.1874 -0.2932 -0.4906
  740MOL0     H99839  -0.118   3.164   6.823 -1.6038  1.1938 -0.0134
  740MOL0     H99840  -0.105   3.177   6.650 -1.0983  2.2653 -1.4969
  740MOL0     H99841  -0.360   3.266   6.787 -0.5144 -0.2936 -1.6056
  740MOL0     H99842  -0.331   3.241   6.612 -2.2323  0.3565 -0.5628
  740MOL0     H99843  -0.268   2.984   6.671 -0.9266 -2.1048 -1.7777
  740MOL0     H99844  -0.353   3.018   6.819  0.8108 -1.3469  0.5555
  740MOL0     H99845  -0.547   3.106   6.642  1.1471  0.7356 -3.0448
  740MOL0     H99846  -0.439   3.040   6.528 -2.3508  1.0684 -0.3997
  740MOL0     H99847  -0.566   2.857   6.723  0.4008 -2.2818  0.1151
  740MOL0     H99848  -0.433   2.838   6.600  0.6870  2.0671 -0.8111
  740MOL0     H99849  -0.690   2.798   6.568 -0.7791 -0.4092 -1.7795
  740MOL0     H99850  -0.684   2.964   6.505 -1.1006 -0.6954 -3.6585
  740MOL0     H99851  -0.445   2.656   6.429 -1.4042 -1.5954  0.1197
  740MOL0     H99852  -0.343   2.576   6.213  0.9079 -1.7161 -2.6508
  740MOL0     H99853  -0.492   2.538   6.141 -0.8958  0.3248  2.0559
  740MOL0     H99854  -0.413   2.703   5.942  0.1787  2.8525  1.6175
  740MOL0     H99855  -0.277   2.740   6.045 -1.9475  2.0110 -1.7931
  740MOL0     H99856  -0.356   2.468   5.939 -1.0849  0.1447  0.6364
  740MOL0     H99857  -0.218   2.500   6.032  2.5993  2.5512 -0.1933
  740MOL0     H99858  -0.134   2.515   5.789  0.4011  2.0781 -2.2631
  740MOL0     H99859  -0.143   2.665   5.864 -0.1827 -0.4739 -1.4049
  740MOL0     H99860  -0.288   2.368   5.732  0.8325 -0.9929 -0.6831
  740MOL0     H99861  -0.406   2.223   5.586 -0.0768 -0.0189 -1.6559
  740MOL0     H99862  -0.696   2.502   5.070 -0.8329  1.7665  0.3867
  740MOL0     H99863  -0.803   2.418   4.864  3.3125 -4.3060 -3.5288
  740MOL0     H99864  -1.062   2.069   4.953  0.6860 -1.5990  0.3337
  740MOL0     H99865  -1.113   2.124   4.789 -1.7665 -3.7240 -0.5015
  740MOL0     H99866  -0.884   1.925   4.825  1.1764  1.2682  1.9595
  740MOL0     H99867  -1.051   1.882   4.797  1.8353 -2.3829 -2.8037
  740MOL0     H99868  -1.037   1.980   4.570  1.9411 -1.9152 -2.4307
  740MOL0     H99869  -0.912   2.101   4.630  0.0062 -0.1720 -0.6672
  740MOL0     H99870  -0.877   1.811   4.549  0.2605  0.5093 -1.4487
  740MOL0     H99871  -0.754   1.890   4.637  0.0815 -2.7466 -0.7746
  740MOL0     H99872  -0.734   1.894   4.395  1.9948  1.0697  1.6742
  740MOL0     H99873  -0.723   2.049   4.438  1.3359 -0.0485  2.8393
  740MOL0     H99874  -1.003   1.931   4.342 -1.4841  1.1210  0.7917
  740MOL0     H99875  -0.957   2.098   4.373  2.0565  0.5141 -0.2800
  740MOL0     H99876  -0.797   2.110   4.204 -0.8057  1.2303  0.7445
  740MOL0     H99877  -0.960   2.091   4.145  0.0338 -0.0588 -0.5153
  740MOL0     H99878  -0.752   1.866   4.188 -0.8211 -0.6162  0.5733
  740MOL0     H99879  -0.907   1.850   4.103  0.0089 -0.5271  0.5589
  740MOL0     H99880  -0.905   2.065   5.091 -0.0457 -0.8944  2.0699
  740MOL0     H99881  -0.782   2.127   5.275  0.7234 -1.4557 -0.3071
  740MOL0     H99882  -0.560   2.590   5.393  0.3660  4.1815  2.1143
  740MOL0     H99883  -0.446   2.724   5.556  0.5894  0.0157 -1.1292
  740MOL0     H99884   0.374   3.538   6.612 -1.4118  0.1178  0.9429
  740MOL0     H99885   0.506   3.513   6.426  0.2806 -0.9340 -3.1526
  740MOL0     H99886   0.362   3.522   5.932  0.0823  0.6610  0.5236
  740MOL0     H99887   0.384   3.601   5.714 -0.4404  1.6979  2.0535
  740MOL0     H99888   0.471   3.668   5.482  1.4984 -1.2943  0.3404
  740MOL0     H99889   0.612   3.704   5.398  0.0909 -3.6108  0.2294
  740MOL0     H99890   0.522   3.872   5.625 -0.9964 -2.2606 -0.1476
  740MOL0     H99891   0.455   3.906   5.474  0.1740  0.3889 -0.1991
  740MOL0     H99892   0.734   3.915   5.398 -0.5314 -0.4512  0.4290
  740MOL0     H99893   0.763   3.945   5.561  1.5222  0.3179 -1.0372
  740MOL0     H99894   0.539   4.122   5.452 -0.9951 -0.8183  0.3378
  740MOL0     H99895   0.681   4.175   5.542 -2.1807 -1.9437  1.5093
  740MOL0     H99896   0.823   4.275   5.169  1.7996 -0.6994  0.2809
  740MOL0     H99897   0.819   3.581   5.762  0.2623 -0.8766 -0.9821
  740MOL0     H99898   0.871   3.573   6.053 -0.9509  1.4992 -2.6867
  740MOL0     H99899   0.813   3.408   6.075  0.2579 -2.0082 -2.0306
  740MOL0     H99900   0.901   3.445   5.926 -0.7206 -1.3488 -0.3891
  741MOL0     O99901   7.800   0.664  10.930  0.0936 -0.3085 -0.4478
  741MOL0     C99902   7.852   0.677  10.822 -0.0579 -0.5785  0.1238
  741MOL0     O99903   7.870   0.798  10.762  0.2499 -0.1468 -0.8661
  741MOL0     C99904   7.815   0.912  10.811 -0.1661 -0.4071 -0.5435
  741MOL0     C99905   7.681   0.918  10.845  0.4323  0.1488 -0.0751
  741MOL0     C99906   7.622   1.045  10.876 -0.0023 -1.1775  0.2278
  741MOL0     C99907   7.701   1.163  10.880  0.0989  2.0498 -0.8500
  741MOL0     O99908   7.660   1.283  10.927  0.4047  0.2591  0.1611
  741MOL0     C99909   7.543   1.351  10.897  0.9797  0.1526 -0.4706
  741MOL0     C99910   7.553   1.406  10.754 -0.2125 -0.4032  0.4457
  741MOL0     C99911   7.661   1.514  10.729 -0.3860  0.3466 -0.3481
  741MOL0     C99912   7.639   1.653  10.790  0.1691 -0.1386 -0.0724
  741MOL0     C99913   7.739   1.744  10.725 -0.5366 -0.4250 -0.7214
  741MOL0     C99914   7.705   1.772  10.571  0.3534 -0.5362 -0.3571
  741MOL0     C99915   7.815   1.734  10.468  0.5315  0.2154  1.0587
  741MOL0     C99916   7.780   1.773  10.323  0.5121  0.1840  0.9736
  741MOL0     N99917   7.668   1.700  10.273  0.1452  1.1892  0.5325
  741MOL0     C99918   7.561   1.781  10.234  0.3203 -0.1688 -0.3758
  741MOL0     C99919   7.494   1.709  10.145 -0.0375  0.3516 -0.7432
  741MOL0     C99920   7.369   1.757  10.071  0.3575 -0.2763 -0.6161
  741MOL0     C99921   7.252   1.755  10.175 -0.1928 -0.7305 -0.7843
  741MOL0     C99922   7.237   1.895  10.250  0.6569 -0.3139  0.5042
  741MOL0     C99923   7.102   1.956  10.211  0.5720 -0.1542 -0.5390
  741MOL0     O99924   7.085   1.948  10.062  0.1828 -0.3834 -0.5737
  741MOL0     C99925   7.157   2.047   9.991 -0.1318 -0.0677  1.0397
  741MOL0     C99926   7.215   1.996   9.872  0.8963  0.2993 -0.0599
  741MOL0     C99927   7.287   2.079   9.777  0.7136 -0.1835  0.0803
  741MOL0     C99928   7.303   2.212   9.812 -0.1012 -0.1086 -0.4166
  741MOL0     C99929   7.370   2.302   9.712  0.8495 -0.5126 -0.2193
  741MOL0     O99930   7.378   2.438   9.740  0.3939  0.3722 -0.4420
  741MOL0     C99931   7.451   2.524   9.657 -0.0429 -0.4993  0.1666
  741MOL0     C99932   7.594   2.512   9.633  0.7222 -0.7038 -0.3128
  741MOL0     C99933   7.658   2.618   9.556  0.1839 -0.7526  0.8276
  741MOL0     C99934   7.583   2.728   9.499  0.0054 -0.5426 -0.0152
  741MOL0     O99935   7.641   2.830   9.430  0.1416 -0.1247  0.2431
  741MOL0     C99936   7.705   2.928   9.515  0.2742 -0.5874 -0.3195
  741MOL0     C99937   7.767   3.041   9.428 -0.5755  0.5111 -0.0782
  741MOL0     C99938   7.898   3.004   9.353 -0.0251 -0.2413  0.6911
  741MOL0     C99939   7.936   2.855   9.331  0.2364  0.8433  0.3606
  741MOL0     C99940   8.051   2.860   9.224 -0.5620  0.8497  0.5065
  741MOL0     C99941   8.077   2.728   9.159 -0.0161 -0.1573  0.1537
  741MOL0     C99942   8.129   2.624   9.264 -0.2359 -0.4921  0.3064
  741MOL0     C99943   8.083   2.492   9.229 -0.5439  1.1796 -0.3724
  741MOL0    Cl99944   7.908   2.487   9.264 -0.0033 -0.0121 -0.0604
  741MOL0     C99945   7.450   2.733   9.537  0.1482 -0.6502  0.1882
  741MOL0     C99946   7.390   2.634   9.609 -0.7817  0.6246 -0.2339
  741MOL0     O99947   7.410   2.251   9.611 -0.3407 -0.2331 -0.0585
  741MOL0     C99948   7.249   2.273   9.926  0.1092 -0.7066 -0.7658
  741MOL0     C99949   7.183   2.184  10.022  0.0164  0.2505  0.6022
  741MOL0     N99950   7.555   1.585  10.132 -0.5093  0.6205 -0.6685
  741MOL0     N99951   7.664   1.584  10.200  0.6264  0.9019  0.4548
  741MOL0     C99952   7.834   1.152  10.848 -0.5327 -0.0713 -0.6116
  741MOL0     C99953   7.892   1.026  10.815  0.6143  0.2468 -0.2344
  741MOL0     C99954   7.916   0.551  10.760 -0.3527  0.1319  0.1390
  741MOL0     C99955   8.007   0.575  10.647 -0.1007  0.6452  0.2030
  741MOL0     C99956   8.084   0.471  10.598 -0.6317 -0.5605 -0.2107
  741MOL0     C99957   8.066   0.336  10.643 -0.1617 -0.8772  0.2344
  741MOL0     O99958   8.140   0.239  10.571 -0.2624 -0.0048 -0.8936
  741MOL0     C99959   8.104   0.097  10.602  0.2842  0.3369 -0.3719
  741MOL0     C99960   8.179   0.036  10.721  0.0572  0.1179 -0.8397
  741MOL0     C99961   8.155  -0.113  10.764 -0.1217 -0.0262 -0.1782
  741MOL0     C99962   8.027  -0.131  10.856  0.7746  0.0568 -0.6941
  741MOL0     C99963   7.904  -0.125  10.768 -0.3342  0.7433  0.1474
  741MOL0     C99964   7.798  -0.122  10.696 -0.9055  0.7419  0.1537
  741MOL0     C99965   7.985   0.317  10.749 -0.0516  0.3407 -0.1721
  741MOL0     C99966   7.902   0.414  10.804 -1.1847 -0.3328  0.0494
  741MOL0     C99967   7.816   0.380  10.925  0.4964  0.4955 -0.2119
  741MOL0     H99968   7.618   0.832  10.863 -1.0587  1.3120  0.4638
  741MOL0     H99969   7.518   1.054  10.908 -0.2284 -1.2005 -0.4764
  741MOL0     H99970   7.449   1.296  10.905  0.3171  1.3616  0.3051
  741MOL0     H99971   7.537   1.433  10.969 -1.9386 -0.6493  0.3413
  741MOL0     H99972   7.454   1.453  10.746  1.1229  2.8746  1.4768
  741MOL0     H99973   7.573   1.320  10.689  2.1152 -0.5705  1.2838
  741MOL0     H99974   7.671   1.523  10.621  2.6131  3.0973 -0.0027
  741MOL0     H99975   7.757   1.471  10.760 -0.9402 -2.4013 -2.1107
  741MOL0     H99976   7.538   1.685  10.762 -1.4804 -2.7446  2.3248
  741MOL0     H99977   7.653   1.659  10.898  1.5657 -0.3590 -0.2281
  741MOL0     H99978   7.745   1.838  10.782  2.4316 -0.2031 -1.2276
  741MOL0     H99979   7.835   1.692  10.726 -0.1071  0.3003  1.4945
  741MOL0     H99980   7.619   1.711  10.542  0.5242 -0.7327 -0.4509
  741MOL0     H99981   7.673   1.875  10.557  2.1715  0.1567  0.3102
  741MOL0     H99982   7.847   1.630  10.478  2.1956  0.5079 -0.7035
  741MOL0     H99983   7.908   1.788  10.491  0.7048 -0.0038  0.8754
  741MOL0     H99984   7.766   1.881  10.321  1.9125  0.3766  1.0278
  741MOL0     H99985   7.869   1.747  10.266  0.1988 -0.5251  0.7968
  741MOL0     H99986   7.547   1.876  10.285 -2.3646 -0.5475 -0.2522
  741MOL0     H99987   7.404   1.857  10.042  3.0568 -0.5727  1.2987
  741MOL0     H99988   7.351   1.694   9.983 -2.4819  0.3758 -0.6179
  741MOL0     H99989   7.156   1.736  10.126 -0.4232 -0.6800 -0.3638
  741MOL0     H99990   7.283   1.675  10.243  1.5484  1.2613  0.9172
  741MOL0     H99991   7.318   1.961  10.218  1.2520 -0.9740  0.6339
  741MOL0     H99992   7.234   1.881  10.359 -1.7660  0.2691  0.5919
  741MOL0     H99993   7.107   2.064  10.230  3.8713 -0.1877 -0.6484
  741MOL0     H99994   7.018   1.914  10.268 -2.7838  3.7549 -2.0228
  741MOL0     H99995   7.213   1.892   9.840  1.2223  0.3290 -0.1800
  741MOL0     H99996   7.326   2.036   9.685 -3.0529 -1.7402 -0.9648
  741MOL0     H99997   7.652   2.425   9.662  1.4545 -0.2562 -0.4039
  741MOL0     H99998   7.765   2.607   9.538  0.7722  2.5603  1.6965
  741MOL0     H99999   7.637   2.967   9.591 -0.8250 -1.8137 -0.6485
  741MOL0     H    0   7.792   2.885   9.566  1.2753 -0.5250 -1.9078
  741MOL0     H    1   7.692   3.083   9.360 -1.7496 -0.8239  0.3220
  741MOL0     H    2   7.799   3.115   9.502 -0.8935 -0.5405  1.1498
  741MOL0     H    3   7.880   3.062   9.262  0.2539  0.1277  0.8667
  741MOL0     H    4   7.982   3.050   9.406  1.0722  0.7077 -1.7400
  741MOL0     H    5   7.844   2.811   9.290 -0.0320 -0.0318  1.8244
  741MOL0     H    6   7.953   2.791   9.418  1.0632 -0.4768 -0.7365
  741MOL0     H    7   8.150   2.903   9.245 -0.3248  0.5478  0.0237
  741MOL0     H    8   8.010   2.931   9.152  1.0445  0.4895 -0.8076
  741MOL0     H    9   7.984   2.704   9.106  0.5493 -1.0449 -0.4762
  741MOL0     H   10   8.153   2.735   9.080 -0.9688  0.7058 -0.7257
  741MOL0     H   11   8.096   2.638   9.368 -3.6813  1.1557 -0.8543
  741MOL0     H   12   8.237   2.636   9.271 -0.4392  0.5377  2.9287
  741MOL0     H   13   8.106   2.472   9.124  1.6866  5.1081 -0.8423
  741MOL0     H   14   8.144   2.414   9.275 -1.5123  0.5938 -0.0636
  741MOL0     H   15   7.392   2.815   9.495  1.6875 -0.6187 -2.0612
  741MOL0     H   16   7.286   2.652   9.636 -0.5783  0.7289  0.5060
  741MOL0     H   17   7.268   2.378   9.945 -1.2292  0.0154 -2.9461
  741MOL0     H   18   7.139   2.230  10.110 -2.6007  1.1366 -1.0526
  741MOL0     H   19   7.898   1.239  10.862 -2.2918  1.4812 -1.7151
  741MOL0     H   20   7.998   1.018  10.792  0.6404  1.1775 -0.4740
  741MOL0     H   21   8.023   0.671  10.600 -1.0790  0.0649 -1.3920
  741MOL0     H   22   8.147   0.484  10.511 -1.4899 -2.8666 -1.2648
  741MOL0     H   23   8.142   0.041  10.517  0.1571  1.2208 -1.0315
  741MOL0     H   24   7.999   0.081  10.628  0.8061 -1.2887  0.8985
  741MOL0     H   25   8.166   0.096  10.811  1.1938 -2.1839  0.9578
  741MOL0     H   26   8.283   0.046  10.688  0.2015  1.2622 -0.0819
  741MOL0     H   27   8.246  -0.141  10.819 -1.4952 -1.9269  1.2717
  741MOL0     H   28   8.153  -0.179  10.676  0.2226  0.0719 -0.2621
  741MOL0     H   29   8.023  -0.221  10.918  2.5514  1.3285  1.4019
  741MOL0     H   30   8.022  -0.056  10.934 -1.2913 -1.4504  0.7351
  741MOL0     H   31   7.714  -0.109  10.630  0.9015  1.3717 -2.1935
  741MOL0     H   32   7.983   0.222  10.801 -0.3756 -0.5933 -1.8270
  741MOL0     H   33   7.805   0.272  10.940 -0.3330  0.7935  1.5245
  741MOL0     H   34   7.857   0.427  11.014  3.2526 -0.7086 -0.7423
  741MOL0     H   35   7.714   0.418  10.912  0.1819  1.0004  2.9646
  742MOL0     O   36   2.486   6.817  10.996 -0.2328 -0.2878  0.3156
  742MOL0     C   37   2.547   6.831  11.102 -0.3228  0.4805 -0.3270
  742MOL0     O   38   2.522   6.767  11.226 -0.5831  0.1014 -0.1569
  742MOL0     C   39   2.424   6.676  11.228  0.7164  0.3982  1.0965
  742MOL0     C   40   2.448   6.535  11.252 -0.2248 -0.2340  0.6829
  742MOL0     C   41   2.354   6.452  11.292 -0.4208  0.1376 -0.2087
  742MOL0     C   42   2.221   6.499  11.287  1.1061  0.0224 -0.8991
  742MOL0     O   43   2.115   6.423  11.333 -0.6529  0.5913 -0.1978
  742MOL0     C   44   2.126   6.382  11.470 -0.2346 -0.8698  0.1150
  742MOL0     C   45   1.990   6.354  11.537 -0.3681  0.1206  0.6525
  742MOL0     C   46   2.004   6.357  11.685 -0.6949  0.5381 -0.5046
  742MOL0     C   47   1.879   6.330  11.756 -0.2119 -0.1673  0.9887
  742MOL0     C   48   1.903   6.319  11.908 -0.2735 -0.9630  0.1414
  742MOL0     C   49   1.965   6.438  11.983  0.2401 -0.5050 -0.3637
  742MOL0     C   50   1.985   6.408  12.133  0.0125  0.1672 -0.0753
  742MOL0     C   51   2.119   6.339  12.168  0.3887 -0.0229 -0.9030
  742MOL0     N   52   2.122   6.294  12.307  0.7908 -0.4321  0.0591
  742MOL0     C   53   2.076   6.359  12.421  0.4916 -0.2343  0.7678
  742MOL0     C   54   2.119   6.294  12.530  0.3525 -0.1189 -0.1774
  742MOL0     C   55   2.108   6.331  12.672  0.8831  0.1403  0.2535
  742MOL0     C   56   2.112   6.210  12.778 -0.0906 -0.3888  0.5156
  742MOL0     C   57   2.080   6.250  12.925 -0.2009 -0.6063 -0.2125
  742MOL0     C   58   2.092   6.150  13.041 -0.4579  0.0293 -1.1323
  742MOL0     O   59   2.061   6.221  13.165 -0.6683 -0.2894 -0.5049
  742MOL0     C   60   2.101   6.165  13.285  0.5741  0.3465  0.2450
  742MOL0     C   61   2.142   6.233  13.399  0.3031 -1.0559 -0.8352
  742MOL0     C   62   2.168   6.169  13.529  0.5355 -0.0290 -0.5890
  742MOL0     C   63   2.165   6.029  13.533  0.3238  0.2834  0.4403
  742MOL0     C   64   2.182   5.953  13.659  0.1149 -0.3052  0.0395
  742MOL0     O   65   2.254   6.018  13.762  0.7927  0.4317  0.1284
  742MOL0     C   66   2.297   5.935  13.860  0.0677  0.2603 -0.3650
  742MOL0     C   67   2.400   5.838  13.843 -0.3735 -0.1683 -0.7747
  742MOL0     C   68   2.453   5.773  13.958 -0.8138 -0.2832  0.2399
  742MOL0     C   69   2.394   5.799  14.089  0.4696 -0.7734  0.2042
  742MOL0     O   70   2.439   5.748  14.200 -0.8562  0.1351 -0.3745
  742MOL0     C   71   2.525   5.635  14.209 -0.0878  0.1664 -0.8519
  742MOL0     C   72   2.460   5.500  14.183  0.0252  0.3327 -0.2879
  742MOL0     C   73   2.346   5.471  14.281  0.3099 -0.1401 -0.8120
  742MOL0     C   74   2.301   5.329  14.294  0.2725 -0.6342  0.2240
  742MOL0     C   75   2.181   5.316  14.381 -0.2454 -0.6232 -0.9785
  742MOL0     C   76   2.146   5.171  14.381  0.5907  0.1614 -0.6704
  742MOL0     C   77   2.014   5.156  14.462  0.3839 -0.4882  0.4549
  742MOL0     C   78   1.946   5.022  14.429  0.2378  1.3976 -0.5029
  742MOL0    Cl   79   2.045   4.885  14.485 -0.0236 -0.2926  0.1545
  742MOL0     C   80   2.273   5.872  14.092  0.1665 -0.1403 -0.9159
  742MOL0     C   81   2.227   5.935  13.980 -0.3710 -0.3849  1.3913
  742MOL0     O   82   2.124   5.847  13.670  0.7242  0.9465  0.5701
  742MOL0     C   83   2.130   5.963  13.413 -0.4497 -0.2336  0.6354
  742MOL0     C   84   2.088   6.029  13.296  0.4074  0.3077 -0.8197
  742MOL0     N   85   2.194   6.193  12.478 -0.0651 -0.1607 -0.8390
  742MOL0     N   86   2.181   6.180  12.350  0.3477  0.0974  0.3696
  742MOL0     C   87   2.191   6.621  11.238  0.3251 -0.9239 -0.4786
  742MOL0     C   88   2.291   6.723  11.225 -0.3072 -0.2303 -0.5938
  742MOL0     C   89   2.676   6.911  11.100 -0.2114  0.2134 -0.3025
  742MOL0     C   90   2.758   6.913  11.216  0.8272  1.3146 -0.5680
  742MOL0     C   91   2.881   6.976  11.204 -0.6957 -0.7513  0.0628
  742MOL0     C   92   2.925   7.043  11.093 -0.2616  0.1340 -0.4317
  742MOL0     O   93   3.047   7.105  11.098 -0.1879  0.6298  0.5183
  742MOL0     C   94   3.113   7.150  10.976 -0.5062  0.1189  0.4976
  742MOL0     C   95   3.144   7.031  10.889 -0.5727  0.1751  0.5010
  742MOL0     C   96   3.246   6.930  10.953  0.3940 -0.6346  0.7262
  742MOL0     C   97   3.272   6.825  10.849 -0.5046 -0.0665  0.2903
  742MOL0     C   98   3.329   6.866  10.715 -0.4036  0.4369 -0.4610
  742MOL0     C   99   3.357   6.894  10.598 -0.5142 -0.1405 -0.2349
  742MOL0     C  100   2.841   7.053  10.984  0.5139  0.6786  0.3563
  742MOL0     C  101   2.712   7.000  10.995 -0.6396  0.8449 -0.8539
  742MOL0     C  102   2.627   7.036  10.885 -0.2210 -0.4334  0.3474
  742MOL0     H  103   2.550   6.501  11.270 -0.1281 -0.4595 -0.2390
  742MOL0     H  104   2.368   6.349  11.323  0.3835 -0.1870 -1.5334
  742MOL0     H  105   2.189   6.293  11.465  2.2981  0.3469  4.7406
  742MOL0     H  106   2.174   6.466  11.522 -1.8180  0.4202 -0.4095
  742MOL0     H  107   1.952   6.257  11.503 -0.7038  0.5104 -0.1202
  742MOL0     H  108   1.921   6.433  11.508 -0.8006 -1.1619 -2.1362
  742MOL0     H  109   2.049   6.454  11.704 -0.4449  0.6631 -1.6729
  742MOL0     H  110   2.073   6.276  11.710 -1.7865 -0.8956 -1.8851
  742MOL0     H  111   1.816   6.418  11.741 -2.5716 -1.8366  0.5056
  742MOL0     H  112   1.831   6.242  11.713  0.4484 -0.7083  1.3415
  742MOL0     H  113   1.805   6.298  11.953 -0.0105 -0.8804  0.7555
  742MOL0     H  114   1.958   6.230  11.938 -3.2068 -2.6568  0.8843
  742MOL0     H  115   2.065   6.462  11.946 -0.8478  4.3686 -0.8684
  742MOL0     H  116   1.921   6.537  11.967 -0.0635 -0.4645  0.6488
  742MOL0     H  117   1.898   6.358  12.175  2.4193 -1.5624  3.4395
  742MOL0     H  118   1.993   6.503  12.188 -1.1038 -0.7510  1.7554
  742MOL0     H  119   2.129   6.257  12.097  0.6416 -1.3972  0.6665
  742MOL0     H  120   2.205   6.407  12.159 -1.9502  3.1744 -0.7744
  742MOL0     H  121   2.028   6.456  12.424 -0.1378 -0.4232 -1.4003
  742MOL0     H  122   2.179   6.406  12.707 -0.8195  3.0554 -2.1424
  742MOL0     H  123   2.012   6.382  12.678  0.8774  0.0931  0.5622
  742MOL0     H  124   2.047   6.125  12.755  0.2100 -0.6140  0.4841
  742MOL0     H  125   2.215   6.172  12.777 -1.2564 -4.0304 -1.3068
  742MOL0     H  126   1.977   6.285  12.930  0.7852  3.0951 -2.1587
  742MOL0     H  127   2.141   6.338  12.950  1.1952 -2.3846  3.4491
  742MOL0     H  128   2.192   6.108  13.056 -1.0997 -1.0328  0.4937
  742MOL0     H  129   2.025   6.064  13.040 -0.1513 -0.3969  2.0554
  742MOL0     H  130   2.160   6.340  13.391  0.9599 -0.9923  0.9423
  742MOL0     H  131   2.189   6.236  13.612 -0.2945 -2.1212  1.4499
  742MOL0     H  132   2.450   5.825  13.748 -0.7709  0.1999 -1.0408
  742MOL0     H  133   2.544   5.718  13.935 -2.5102 -2.9603 -0.5500
  742MOL0     H  134   2.599   5.644  14.128  0.6920  2.6594  0.0190
  742MOL0     H  135   2.584   5.629  14.301  1.8255  0.9606 -1.9548
  742MOL0     H  136   2.423   5.493  14.080 -0.5742 -1.7389  0.0037
  742MOL0     H  137   2.537   5.422  14.188  0.7478  1.0675  0.2739
  742MOL0     H  138   2.367   5.509  14.381 -2.7341  1.3660 -0.6630
  742MOL0     H  139   2.265   5.534  14.246  0.4846 -0.2335 -1.4000
  742MOL0     H  140   2.387   5.279  14.341 -0.4528 -0.6124  1.6144
  742MOL0     H  141   2.293   5.280  14.197 -0.7633  1.7720 -0.9814
  742MOL0     H  142   2.097   5.370  14.336  1.0410  0.4851 -2.1652
  742MOL0     H  143   2.202   5.350  14.483  1.5436 -4.9621  0.3095
  742MOL0     H  144   2.141   5.139  14.276  1.6270  2.3250 -1.4441
  742MOL0     H  145   2.213   5.103  14.434  1.1282 -1.9353 -3.7478
  742MOL0     H  146   1.951   5.236  14.424  2.3617  0.4565 -0.9668
  742MOL0     H  147   2.034   5.167  14.569 -2.6914 -0.0691  1.0947
  742MOL0     H  148   1.849   5.033  14.477  0.4110  0.2358  0.1475
  742MOL0     H  149   1.936   5.002  14.322 -1.0911 -1.5369  0.0835
  742MOL0     H  150   2.209   5.886  14.179  1.0549 -0.4299 -0.1929
  742MOL0     H  151   2.129   5.983  13.974  0.4268  1.2903  1.0557
  742MOL0     H  152   2.127   5.855  13.421 -2.1249 -0.3701 -1.1851
  742MOL0     H  153   2.057   5.953  13.225 -1.4563 -1.8580  2.0943
  742MOL0     H  154   2.086   6.639  11.215  0.0240 -1.4654  0.3995
  742MOL0     H  155   2.273   6.827  11.200  2.2381  1.4415  3.4648
  742MOL0     H  156   2.741   6.861  11.310 -0.4089  2.0809 -0.3404
  742MOL0     H  157   2.958   6.994  11.279  0.1326  0.4590 -1.0299
  742MOL0     H  158   3.204   7.187  11.024  0.3652 -0.9776 -0.2624
  742MOL0     H  159   3.068   7.234  10.922 -0.0122 -3.2188 -6.0655
  742MOL0     H  160   3.184   7.066  10.793 -2.2663 -1.4871 -0.9161
  742MOL0     H  161   3.054   6.975  10.864  0.6514 -1.6049 -0.1464
  742MOL0     H  162   3.195   6.883  11.038 -3.5760 -0.1902 -1.1827
  742MOL0     H  163   3.340   6.979  10.979  1.0119 -2.4698  2.2171
  742MOL0     H  164   3.341   6.750  10.888 -1.0218 -1.5958 -1.5746
  742MOL0     H  165   3.182   6.764  10.836 -1.8464  1.8291  0.3292
  742MOL0     H  166   3.391   6.927  10.502  2.1856  0.6054  0.8971
  742MOL0     H  167   2.849   7.113  10.894 -3.5913  0.2077 -0.5354
  742MOL0     H  168   2.524   7.049  10.920 -0.6878 -1.8367 -0.3978
  742MOL0     H  169   2.660   7.117  10.819  1.4826 -1.7404 -0.5035
  742MOL0     H  170   2.620   6.951  10.816 -0.6573 -0.9417  1.0064
  743MOL0     O  171   5.462   8.242   3.368  0.3505 -0.1138 -0.2625
  743MOL0     C  172   5.451   8.338   3.439 -0.5390 -0.4203  0.1316
  743MOL0     O  173   5.431   8.460   3.391  0.5734  0.5355 -0.2840
  743MOL0     C  174   5.437   8.495   3.254  0.2373  0.1822 -0.3516
  743MOL0     C  175   5.357   8.608   3.234 -0.1161  1.0604 -0.0314
  743MOL0     C  176   5.341   8.658   3.101  0.1682  0.4744  0.9553
  743MOL0     C  177   5.405   8.597   2.996 -0.9945  0.3668  1.4833
  743MOL0     O  178   5.380   8.634   2.860  0.5704  0.4970  0.6652
  743MOL0     C  179   5.259   8.711   2.841 -0.3654  0.9073  0.1334
  743MOL0     C  180   5.233   8.734   2.686  0.0106  0.0936 -0.4455
  743MOL0     C  181   5.181   8.613   2.615 -1.0321  0.9772 -0.3560
  743MOL0     C  182   5.168   8.623   2.464  0.2400 -1.3274 -0.4092
  743MOL0     C  183   5.054   8.722   2.425  0.0264  0.0549  0.2800
  743MOL0     C  184   5.035   8.722   2.272  0.0231 -0.1666  0.3997
  743MOL0     C  185   4.956   8.846   2.226 -1.3364 -1.2092 -0.1527
  743MOL0     C  186   5.019   8.979   2.269  0.4243  0.2737  0.1685
  743MOL0     N  187   4.972   9.085   2.181  0.0880 -0.4205  0.0021
  743MOL0     C  188   5.036   9.148   2.070  0.4393 -0.3366 -1.3223
  743MOL0     C  189   4.958   9.261   2.049 -0.8740  0.1950 -0.4983
  743MOL0     C  190   5.003   9.369   1.953 -1.0992 -0.5538  0.0303
  743MOL0     C  191   4.982   9.290   1.811 -0.3544 -0.1563 -0.1924
  743MOL0     C  192   4.835   9.265   1.776 -0.1652  1.1016 -0.2328
  743MOL0     C  193   4.746   9.395   1.778 -0.3184 -0.1727  0.4053
  743MOL0     O  194   4.799   9.470   1.665 -0.0638  0.3629 -0.2646
  743MOL0     C  195   4.714   9.554   1.601 -0.8426  0.0559  0.0133
  743MOL0     C  196   4.582   9.603   1.621 -1.3733  0.3684  0.2701
  743MOL0     C  197   4.522   9.680   1.520  0.0499 -0.0454  0.1050
  743MOL0     C  198   4.594   9.714   1.403  0.1663  0.6502 -0.0523
  743MOL0     C  199   4.522   9.775   1.290  1.2627  0.0325  0.6368
  743MOL0     O  200   4.418   9.857   1.322 -0.7381  0.2205  0.2208
  743MOL0     C  201   4.349   9.895   1.209  0.2455 -0.0742 -0.6915
  743MOL0     C  202   4.389  10.005   1.133  0.5286 -0.1416 -0.1008
  743MOL0     C  203   4.304  10.042   1.032  0.3418 -0.7848  0.5308
  743MOL0     C  204   4.187   9.976   0.997  0.7587  0.3382  0.0060
  743MOL0     O  205   4.124  10.017   0.880 -0.0619 -0.5257  0.3505
  743MOL0     C  206   4.023   9.934   0.830 -0.3752 -0.0562  0.9120
  743MOL0     C  207   3.954   9.984   0.696  0.2894  0.4244 -0.8060
  743MOL0     C  208   4.042   9.958   0.579 -0.1209 -0.0490  0.2840
  743MOL0     C  209   3.971   9.981   0.445 -0.2842 -0.6555 -0.3017
  743MOL0     C  210   4.077   9.939   0.347 -0.4856 -0.2126  0.3691
  743MOL0     C  211   4.042   9.979   0.201 -0.1136 -0.2954 -0.2086
  743MOL0     C  212   4.139   9.930   0.102  0.0184  0.0425  0.6039
  743MOL0     C  213   4.271  10.001   0.100  0.6982  1.2374 -0.3623
  743MOL0    Cl  214   4.267  10.163   0.050 -0.2523 -0.2745 -0.0941
  743MOL0     C  215   4.156   9.857   1.078 -0.2037  0.5361 -0.0576
  743MOL0     C  216   4.234   9.832   1.185 -0.3354  0.0303  0.3562
  743MOL0     O  217   4.561   9.749   1.173 -0.0998 -0.2623 -0.0348
  743MOL0     C  218   4.721   9.662   1.390 -0.5975 -0.2949  0.6000
  743MOL0     C  219   4.780   9.582   1.482  0.1023  0.7728 -0.0636
  743MOL0     N  220   4.849   9.266   2.137 -1.0866  0.1925  0.2755
  743MOL0     N  221   4.855   9.152   2.203 -0.0374 -0.6926 -0.4750
  743MOL0     C  222   5.496   8.500   3.024  0.1979  0.7132 -0.5987
  743MOL0     C  223   5.517   8.450   3.151  0.9458 -0.3191 -0.2172
  743MOL0     C  224   5.440   8.327   3.587  0.1841  0.2320  0.3623
  743MOL0     C  225   5.400   8.439   3.659 -0.2110 -0.1366 -0.6632
  743MOL0     C  226   5.364   8.431   3.797 -0.7317 -0.4413  0.1664
  743MOL0     C  227   5.383   8.311   3.865  0.4999 -0.1330  0.1616
  743MOL0     O  228   5.363   8.282   3.998  0.3769  0.1235  0.2775
  743MOL0     C  229   5.275   8.362   4.063  0.4684 -0.2744 -0.9227
  743MOL0     C  230   5.348   8.468   4.144 -0.0251 -0.2010 -1.1245
  743MOL0     C  231   5.242   8.553   4.209 -0.2023  0.6549 -0.1979
  743MOL0     C  232   5.289   8.688   4.271 -0.0279  0.6474 -0.1324
  743MOL0     C  233   5.383   8.762   4.188 -0.2077  0.6601 -0.4390
  743MOL0     C  234   5.449   8.829   4.116  0.2632  0.1125 -0.2897
  743MOL0     C  235   5.418   8.206   3.788  0.0906  0.5915 -0.0336
  743MOL0     C  236   5.441   8.203   3.650  0.7989 -0.4932  0.8538
  743MOL0     C  237   5.495   8.077   3.589 -0.2064  0.4214 -0.5323
  743MOL0     H  238   5.329   8.659   3.325  3.6952 -1.5663  2.9747
  743MOL0     H  239   5.281   8.746   3.081  3.0419  2.5346  0.8697
  743MOL0     H  240   5.170   8.662   2.881 -2.3586  4.1634  0.0040
  743MOL0     H  241   5.275   8.811   2.881  0.5311  0.7183  0.2860
  743MOL0     H  242   5.314   8.783   2.632 -0.0069  0.7071  0.0763
  743MOL0     H  243   5.155   8.810   2.686 -2.5492 -2.3757 -0.9613
  743MOL0     H  244   5.083   8.587   2.657 -0.7296 -0.3290 -0.4153
  743MOL0     H  245   5.254   8.533   2.628 -2.9496 -0.5271  2.3023
  743MOL0     H  246   5.260   8.669   2.428  0.0652  1.2643  2.0711
  743MOL0     H  247   5.152   8.527   2.414 -0.4297  0.0219 -2.9617
  743MOL0     H  248   4.960   8.695   2.475 -2.0156  3.0637 -1.5982
  743MOL0     H  249   5.083   8.818   2.469 -1.6465  1.9553 -2.4286
  743MOL0     H  250   5.135   8.740   2.231  0.4868 -1.1306  1.0675
  743MOL0     H  251   4.989   8.631   2.234  0.8154 -0.6938  0.6830
  743MOL0     H  252   4.855   8.851   2.267 -1.3573  0.7014 -0.3578
  743MOL0     H  253   4.968   8.849   2.117  0.1365 -1.0039 -0.0052
  743MOL0     H  254   4.991   9.000   2.373  0.3997  3.2344 -0.3407
  743MOL0     H  255   5.128   8.974   2.262  0.4545 -1.1766  1.2397
  743MOL0     H  256   5.135   9.126   2.030  2.4987  1.6613  2.1812
  743MOL0     H  257   4.940   9.458   1.957 -0.5167  0.1470 -3.3304
  743MOL0     H  258   5.102   9.408   1.978 -2.9746  3.3964  2.2911
  743MOL0     H  259   5.037   9.354   1.741 -0.5719  2.0487  1.5577
  743MOL0     H  260   5.033   9.193   1.803  2.0256  1.1967 -3.9212
  743MOL0     H  261   4.787   9.188   1.836 -0.2325  2.4141  1.4835
  743MOL0     H  262   4.827   9.220   1.676 -0.7189  0.2912  0.1668
  743MOL0     H  263   4.749   9.448   1.874  0.3222 -0.0328  0.3122
  743MOL0     H  264   4.641   9.371   1.763 -0.1696  0.0436 -1.1692
  743MOL0     H  265   4.526   9.586   1.713 -0.0628  0.7924  1.1684
  743MOL0     H  266   4.416   9.704   1.523 -1.1111 -3.4729 -4.1281
  743MOL0     H  267   4.484  10.058   1.143 -0.7896  1.9562  3.5454
  743MOL0     H  268   4.327  10.122   0.962 -0.2332  0.1774  1.4103
  743MOL0     H  269   4.065   9.833   0.818  1.8896  0.7743  1.3721
  743MOL0     H  270   3.934   9.943   0.893 -0.7662  0.3032  0.3210
  743MOL0     H  271   3.857   9.936   0.680  0.7097 -1.3681  1.4031
  743MOL0     H  272   3.933  10.089   0.719  1.7385  0.1438  2.4280
  743MOL0     H  273   4.138  10.011   0.581  0.6429 -1.3243 -0.8823
  743MOL0     H  274   4.069   9.852   0.580  0.4433  0.0947  1.1405
  743MOL0     H  275   3.934  10.083   0.444 -0.5051 -0.7331 -0.0902
  743MOL0     H  276   3.889   9.910   0.432  0.3333 -1.4416 -0.0033
  743MOL0     H  277   4.087   9.832   0.362 -0.6788 -0.0894  1.4475
  743MOL0     H  278   4.173   9.987   0.367 -0.3417 -0.3924  0.1080
  743MOL0     H  279   3.943   9.942   0.170 -1.1553  1.5271  0.7685
  743MOL0     H  280   4.029  10.088   0.205  3.0920  0.1867  4.3667
  743MOL0     H  281   4.081   9.924   0.010  0.8858  1.8673 -0.1125
  743MOL0     H  282   4.157   9.826   0.130 -0.4237 -0.6128 -1.4029
  743MOL0     H  283   4.320   9.988   0.197  3.8986 -1.6054 -2.1332
  743MOL0     H  284   4.339   9.948   0.032  1.4633 -1.9410  2.5893
  743MOL0     H  285   4.064   9.802   1.064 -0.1549 -0.6982  3.5457
  743MOL0     H  286   4.215   9.751   1.255 -5.0353  0.8188  0.2878
  743MOL0     H  287   4.789   9.688   1.309  0.3028 -1.5584  0.9289
  743MOL0     H  288   4.882   9.546   1.468  0.0570  0.7150 -0.2498
  743MOL0     H  289   5.541   8.451   2.938 -2.6524 -0.2401 -1.6800
  743MOL0     H  290   5.603   8.388   3.174  0.5935 -0.6432  0.2194
  743MOL0     H  291   5.379   8.537   3.618 -0.9627 -0.1273 -0.2715
  743MOL0     H  292   5.328   8.517   3.852 -2.5171  0.2406 -1.9270
  743MOL0     H  293   5.227   8.302   4.141  2.2320  0.7830  1.0784
  743MOL0     H  294   5.189   8.393   4.003 -1.1554 -1.2062  0.7944
  743MOL0     H  295   5.417   8.530   4.086  0.9356 -1.4189 -1.3277
  743MOL0     H  296   5.396   8.415   4.226 -1.4837 -0.2146 -0.2479
  743MOL0     H  297   5.193   8.489   4.282  1.4247 -0.5998 -0.1466
  743MOL0     H  298   5.171   8.583   4.131  0.0145 -0.7063 -0.9356
  743MOL0     H  299   5.199   8.744   4.296 -2.6086 -1.7772 -3.1330
  743MOL0     H  300   5.338   8.663   4.365 -0.2109  2.4489  0.4585
  743MOL0     H  301   5.487   8.903   4.048 -0.6966  0.4984 -0.4186
  743MOL0     H  302   5.417   8.104   3.825 -2.1200  1.1766  1.6858
  743MOL0     H  303   5.583   8.109   3.532 -0.5669  2.3496 -0.0899
  743MOL0     H  304   5.507   8.002   3.668 -4.2174  0.6170  0.5069
  743MOL0     H  305   5.423   8.037   3.517 -1.6706 -2.0371  2.1016
  744MOL0     O  306   7.223   4.456   5.643  0.4009 -0.4926 -0.0531
  744MOL0     C  307   7.211   4.333   5.660 -1.2162 -0.2512 -0.3654
  744MOL0     O  308   7.309   4.254   5.630 -0.3906 -0.0677  0.6042
  744MOL0     C  309   7.404   4.295   5.538 -0.2408 -0.9541  0.7719
  744MOL0     C  310   7.515   4.375   5.576  0.2724  0.0258  0.4432
  744MOL0     C  311   7.607   4.408   5.470 -0.1563  0.0385 -0.1801
  744MOL0     C  312   7.601   4.355   5.344 -1.1676  0.2908  1.0624
  744MOL0     O  313   7.700   4.401   5.255  0.3286  0.1322  0.9054
  744MOL0     C  314   7.742   4.328   5.145  0.3491  0.1244 -0.0163
  744MOL0     C  315   7.782   4.417   5.027 -0.2820 -0.2889  0.4683
  744MOL0     C  316   7.886   4.519   5.066  0.0046  0.3450  0.4588
  744MOL0     C  317   7.976   4.557   4.942  0.9548 -0.0776 -0.1885
  744MOL0     C  318   8.109   4.627   4.971  0.2150 -0.7602  0.0768
  744MOL0     C  319   8.191   4.637   4.832 -0.0613  0.1385 -0.6055
  744MOL0     C  320   8.224   4.500   4.763  0.5367 -0.0386 -0.7671
  744MOL0     C  321   8.342   4.527   4.670 -0.5490  0.2904  0.5020
  744MOL0     N  322   8.369   4.407   4.590 -0.0079 -0.6226 -0.3679
  744MOL0     C  323   8.479   4.394   4.506  0.1415  0.2911 -0.1461
  744MOL0     C  324   8.463   4.269   4.454 -0.5146 -1.3551 -0.1411
  744MOL0     C  325   8.566   4.203   4.369 -0.1343  0.0416  0.8317
  744MOL0     C  326   8.705   4.259   4.371 -0.5618  0.3533  0.7780
  744MOL0     C  327   8.783   4.161   4.286 -0.5821  0.4790  0.4229
  744MOL0     C  328   8.931   4.199   4.278  0.8863 -0.8180 -0.1674
  744MOL0     O  329   8.988   4.135   4.163  0.0094  0.0628  0.1990
  744MOL0     C  330   8.981   4.201   4.043 -0.4942  0.1387 -0.5346
  744MOL0     C  331   9.033   4.132   3.935  0.0679 -0.7344 -0.2650
  744MOL0     C  332   9.026   4.179   3.808 -0.5399 -0.1878  0.3587
  744MOL0     C  333   8.977   4.304   3.773 -0.6324 -0.7067  0.0505
  744MOL0     C  334   8.973   4.360   3.640  0.8616  0.2351  0.9636
  744MOL0     O  335   8.936   4.493   3.632 -0.2733 -1.2324 -0.2463
  744MOL0     C  336   8.888   4.543   3.513 -0.2238 -0.1683  0.1257
  744MOL0     C  337   8.782   4.492   3.439  1.7914 -0.7150  0.6428
  744MOL0     C  338   8.741   4.571   3.320 -0.8936  0.0569 -0.2357
  744MOL0     C  339   8.810   4.686   3.272 -0.2954  0.1545 -0.2930
  744MOL0     O  340   8.791   4.768   3.163 -0.1013  0.4889  0.0726
  744MOL0     C  341   8.720   4.698   3.055  1.3128 -0.0132 -0.5168
  744MOL0     C  342   8.676   4.810   2.969  0.2887  0.0511  0.5025
  744MOL0     C  343   8.632   4.762   2.835  0.4400 -0.0870 -0.8105
  744MOL0     C  344   8.568   4.872   2.738  1.0038 -0.5582 -0.3608
  744MOL0     C  345   8.667   4.984   2.692 -0.5805 -0.1991  0.3935
  744MOL0     C  346   8.608   5.062   2.578 -0.1311 -0.1000 -0.2025
  744MOL0     C  347   8.714   5.152   2.516 -0.4788 -0.0952 -0.3464
  744MOL0     C  348   8.663   5.255   2.410 -0.1265  0.2316  0.4966
  744MOL0    Cl  349   8.595   5.153   2.280  0.2376  0.0017  0.5187
  744MOL0     C  350   8.920   4.726   3.349  0.4101 -0.8226 -0.1413
  744MOL0     C  351   8.953   4.659   3.463 -0.3752  0.9156 -0.0732
  744MOL0     O  352   8.990   4.284   3.541  0.1312  0.5460 -1.0320
  744MOL0     C  353   8.923   4.376   3.883 -0.1807 -1.1717 -0.5575
  744MOL0     C  354   8.924   4.322   4.010  0.3691  1.2557 -0.2906
  744MOL0     N  355   8.349   4.206   4.518 -0.3406  0.0072 -0.1790
  744MOL0     N  356   8.292   4.293   4.594  0.0270 -0.3360 -0.8200
  744MOL0     C  357   7.494   4.279   5.313 -0.0696  0.4575  0.4311
  744MOL0     C  358   7.395   4.252   5.404 -0.9339  0.2029 -0.0004
  744MOL0     C  359   7.099   4.275   5.723  0.3534 -0.0474 -0.1129
  744MOL0     C  360   7.120   4.157   5.790  0.1995  0.3821 -0.0453
  744MOL0     C  361   7.020   4.075   5.850  1.0379 -0.1151 -0.4361
  744MOL0     C  362   6.891   4.132   5.857 -0.8094 -0.8635 -1.1799
  744MOL0     O  363   6.785   4.064   5.918  0.0756 -0.0167  0.7596
  744MOL0     C  364   6.800   4.086   6.061 -0.0677 -0.9701  0.3253
  744MOL0     C  365   6.724   4.211   6.105  0.0519 -0.0962  0.1410
  744MOL0     C  366   6.768   4.242   6.247 -0.1037  0.5998 -0.4614
  744MOL0     C  367   6.687   4.174   6.355  0.6623 -0.0006 -0.1119
  744MOL0     C  368   6.724   4.031   6.376  0.1067 -0.2982 -0.3454
  744MOL0     C  369   6.753   3.912   6.389 -0.0873 -0.7186 -0.6394
  744MOL0     C  370   6.873   4.253   5.796  0.0315 -0.9869  0.7664
  744MOL0     C  371   6.973   4.330   5.732 -0.4461  0.0720  0.9561
  744MOL0     C  372   6.941   4.469   5.691  0.0597 -0.3734  0.5451
  744MOL0     H  373   7.534   4.420   5.673  0.6559  4.0893 -1.3369
  744MOL0     H  374   7.692   4.471   5.494  0.5876 -1.0728  0.1561
  744MOL0     H  375   7.823   4.267   5.187  0.2245  0.3160  0.5137
  744MOL0     H  376   7.670   4.251   5.117  0.8498 -0.7440  1.0288
  744MOL0     H  377   7.693   4.472   4.994  0.4756  0.2797 -0.6926
  744MOL0     H  378   7.818   4.354   4.945 -1.3766  0.5978 -0.7553
  744MOL0     H  379   7.948   4.485   5.149 -0.0080  0.8848  0.6941
  744MOL0     H  380   7.836   4.614   5.089  0.6296  0.9787 -0.7119
  744MOL0     H  381   8.005   4.463   4.895 -0.0306  0.0411 -1.0549
  744MOL0     H  382   7.908   4.618   4.884 -1.6533  1.2468  3.8350
  744MOL0     H  383   8.090   4.730   5.003  0.0564 -1.0188  0.8427
  744MOL0     H  384   8.154   4.573   5.055  1.2864 -0.7881 -0.5012
  744MOL0     H  385   8.137   4.696   4.757 -1.7041 -1.1346 -0.4810
  744MOL0     H  386   8.288   4.687   4.843 -0.0119  0.2986 -1.6512
  744MOL0     H  387   8.136   4.455   4.716 -1.9354  0.4519  3.0056
  744MOL0     H  388   8.258   4.431   4.841 -1.2542 -1.2362 -1.0013
  744MOL0     H  389   8.332   4.610   4.599  0.2712 -1.1888 -1.4703
  744MOL0     H  390   8.429   4.546   4.733 -1.4410  1.4984  1.4006
  744MOL0     H  391   8.556   4.466   4.480 -2.1164  2.1454 -2.2418
  744MOL0     H  392   8.571   4.101   4.407  0.9189  0.0435  0.7086
  744MOL0     H  393   8.525   4.212   4.268  0.2055  2.5644  0.8587
  744MOL0     H  394   8.721   4.357   4.326  0.1365 -0.3179 -0.4861
  744MOL0     H  395   8.738   4.258   4.475 -2.6034  0.9290  1.4821
  744MOL0     H  396   8.743   4.167   4.184  2.1596  0.3498 -0.7331
  744MOL0     H  397   8.780   4.057   4.318 -1.3562 -0.2329 -1.7434
  744MOL0     H  398   8.980   4.167   4.370 -1.7672  2.5769  2.6870
  744MOL0     H  399   8.953   4.306   4.273  1.8267 -1.0401 -1.7140
  744MOL0     H  400   9.090   4.041   3.949 -2.0353 -2.0645  0.0833
  744MOL0     H  401   9.072   4.122   3.728 -0.5456  0.9876 -0.5103
  744MOL0     H  402   8.705   4.418   3.458  0.3574  0.8337  1.0607
  744MOL0     H  403   8.647   4.540   3.276  0.4105 -4.6552 -0.2939
  744MOL0     H  404   8.781   4.626   3.002  1.2309  0.9323 -1.9549
  744MOL0     H  405   8.628   4.653   3.095  0.1382  0.8749 -2.1003
  744MOL0     H  406   8.591   4.849   3.026 -2.2935 -3.9484 -0.1840
  744MOL0     H  407   8.749   4.891   2.960 -2.1739  2.5037  1.0832
  744MOL0     H  408   8.713   4.706   2.789  1.0948 -0.0256  0.2318
  744MOL0     H  409   8.550   4.693   2.856 -0.7187  1.9099  1.8017
  744MOL0     H  410   8.489   4.913   2.803  1.4339 -0.5371  0.1586
  744MOL0     H  411   8.530   4.802   2.663 -1.6923 -4.8665  4.2707
  744MOL0     H  412   8.757   4.931   2.662 -0.6021 -0.8570  1.4461
  744MOL0     H  413   8.700   5.047   2.775 -0.9409  1.2445 -0.5195
  744MOL0     H  414   8.567   5.001   2.497 -0.1503 -1.5759  0.8613
  744MOL0     H  415   8.526   5.129   2.603 -1.3145 -0.8774 -1.8255
  744MOL0     H  416   8.800   5.094   2.483 -0.0798 -0.8298  1.7978
  744MOL0     H  417   8.753   5.210   2.601  3.2137 -1.5992 -0.8501
  744MOL0     H  418   8.575   5.315   2.435 -0.2117 -0.0211  0.8057
  744MOL0     H  419   8.746   5.313   2.369 -1.2306  0.9126 -0.8623
  744MOL0     H  420   8.974   4.815   3.318  2.5715 -2.5942 -1.9102
  744MOL0     H  421   9.040   4.685   3.523  1.3963  2.8410 -3.2068
  744MOL0     H  422   8.886   4.476   3.859  2.5703  0.2867  0.7507
  744MOL0     H  423   8.879   4.375   4.093 -1.6528  0.9546 -1.1415
  744MOL0     H  424   7.483   4.233   5.216 -1.0007 -2.5391  1.8493
  744MOL0     H  425   7.295   4.220   5.375 -1.4792  0.4156  1.5581
  744MOL0     H  426   7.218   4.112   5.791  0.6906  1.4188  1.4075
  744MOL0     H  427   7.048   3.980   5.894 -1.0869 -0.1619  0.9791
  744MOL0     H  428   6.908   4.090   6.080  0.6659 -3.2741 -2.4950
  744MOL0     H  429   6.765   3.994   6.110 -0.2673  0.0815  2.2546
  744MOL0     H  430   6.619   4.181   6.111  0.9507 -3.7454  0.2529
  744MOL0     H  431   6.743   4.302   6.047  1.1266  0.8031  1.8563
  744MOL0     H  432   6.754   4.349   6.266 -0.9159  0.2294  1.2702
  744MOL0     H  433   6.875   4.227   6.264 -0.3995 -0.5517  0.4913
  744MOL0     H  434   6.701   4.232   6.447  0.6183 -2.0021  1.2174
  744MOL0     H  435   6.581   4.197   6.342  0.7431  1.9279  1.9711
  744MOL0     H  436   6.785   3.810   6.399 -2.0172 -1.3052  0.1824
  744MOL0     H  437   6.781   4.309   5.809  0.1010 -0.6259 -0.2329
  744MOL0     H  438   6.855   4.498   5.753  1.2911  0.7113  1.8140
  744MOL0     H  439   7.021   4.541   5.711  2.7740 -3.0789  0.1232
  744MOL0     H  440   6.917   4.454   5.586 -1.5744 -5.1141  1.3436
  745MOL0     O  441   3.171  10.630   0.283 -0.0670 -1.1940 -0.4743
  745MOL0     C  442   3.130  10.522   0.255  0.8524  1.0815 -0.4672
  745MOL0     O  443   3.190  10.406   0.262 -0.7943 -0.3719 -0.2739
  745MOL0     C  444   3.324  10.395   0.254  0.1781  0.8362  0.0287
  745MOL0     C  445   3.406  10.498   0.198 -0.4122  0.6059 -0.6739
  745MOL0     C  446   3.550  10.491   0.213  0.7237  0.0506 -0.0747
  745MOL0     C  447   3.609  10.380   0.279  0.5949  0.5831 -0.0481
  745MOL0     O  448   3.746  10.376   0.301 -0.5823 -0.3601 -0.0303
  745MOL0     C  449   3.834  10.469   0.226 -0.2987  0.7515 -0.7800
  745MOL0     C  450   3.963  10.394   0.215  0.3194 -0.5265  0.9375
  745MOL0     C  451   4.048  10.467   0.109 -0.3220  0.1442 -0.3899
  745MOL0     C  452   4.123  10.593   0.155  0.3236  0.8950 -0.0409
  745MOL0     C  453   4.228  10.638   0.052 -0.8317  1.1162  0.8176
  745MOL0     C  454   4.337  10.526   0.014  0.6510 -0.6294  0.0926
  745MOL0     C  455   4.408  10.473   0.131  0.0787  0.7924 -1.1465
  745MOL0     C  456   4.460  10.584   0.220  0.4876  0.4682  0.0884
  745MOL0     N  457   4.544  10.553   0.336 -0.0805  0.1593  0.2663
  745MOL0     C  458   4.524  10.564   0.475 -0.3473 -0.5822 -1.5841
  745MOL0     C  459   4.644  10.542   0.530  0.3115  0.1818  0.5854
  745MOL0     C  460   4.686  10.555   0.668  0.1167 -0.0285  0.6146
  745MOL0     C  461   4.628  10.431   0.726  0.5644  0.9842 -0.6932
  745MOL0     C  462   4.668  10.425   0.878 -0.1844 -0.5415 -0.7963
  745MOL0     C  463   4.630  10.299   0.945  0.2271 -0.2444  0.0705
  745MOL0     O  464   4.648  10.296   1.086  0.5780  0.0222  1.0062
  745MOL0     C  465   4.746  10.215   1.139  0.4041 -0.3493 -0.5021
  745MOL0     C  466   4.849  10.279   1.208  0.0360  0.1638  0.6746
  745MOL0     C  467   4.950  10.207   1.267  0.5817  0.5003 -0.1884
  745MOL0     C  468   4.948  10.069   1.253 -0.7030  0.5152  0.1656
  745MOL0     C  469   5.057   9.991   1.314 -0.2065  0.9419  0.0332
  745MOL0     O  470   5.087   9.865   1.259 -1.0147  0.2392  0.3658
  745MOL0     C  471   5.170   9.797   1.341  0.4065 -0.5883 -0.3406
  745MOL0     C  472   5.303   9.802   1.308 -0.3848  0.3712 -0.1706
  745MOL0     C  473   5.396   9.723   1.380 -0.1114 -1.4817  0.5212
  745MOL0     C  474   5.345   9.645   1.491 -0.0326 -0.0946  1.9378
  745MOL0     O  475   5.431   9.560   1.551 -0.1154 -0.2872 -0.0082
  745MOL0     C  476   5.575   9.580   1.575  1.2941 -0.2039 -0.2208
  745MOL0     C  477   5.666   9.486   1.491  0.0396 -0.5422  0.1776
  745MOL0     C  478   5.812   9.508   1.526 -0.8221 -0.2953  0.7350
  745MOL0     C  479   5.906   9.393   1.485 -0.2310  0.3693  0.5839
  745MOL0     C  480   6.054   9.394   1.541 -0.7796 -0.0109 -0.4370
  745MOL0     C  481   6.069   9.385   1.689 -0.6934 -0.4316  0.0324
  745MOL0     C  482   6.219   9.422   1.727  0.6876  0.1765  0.4462
  745MOL0     C  483   6.229   9.474   1.863 -0.0162 -0.4304  0.1578
  745MOL0    Cl  484   6.411   9.502   1.875  0.0464  0.2230  0.1150
  745MOL0     C  485   5.212   9.650   1.527  0.2572 -1.5504 -0.8392
  745MOL0     C  486   5.119   9.724   1.450  0.5594 -0.8493  0.1636
  745MOL0     O  487   5.108  10.046   1.407  0.4392  0.5401 -0.0295
  745MOL0     C  488   4.845  10.004   1.180 -0.1509  0.4093  0.0963
  745MOL0     C  489   4.749  10.079   1.117  0.9440  0.7234 -0.1704
  745MOL0     N  490   4.732  10.507   0.428  0.4320 -0.1450  0.3437
  745MOL0     N  491   4.668  10.507   0.316 -0.3865  1.5597  0.2052
  745MOL0     C  492   3.524  10.279   0.321 -1.0152 -1.0257  0.5513
  745MOL0     C  493   3.388  10.284   0.312 -0.6436 -0.3315  0.2197
  745MOL0     C  494   2.994  10.515   0.199 -0.9755  0.2576  0.0470
  745MOL0     C  495   2.984  10.477   0.068  0.0386  1.0216  0.7724
  745MOL0     C  496   2.859  10.463   0.007  0.9215 -0.4820  0.1544
  745MOL0     C  497   2.744  10.494   0.081 -0.8883  0.2738 -0.4792
  745MOL0     O  498   2.626  10.486   0.021  0.2017 -0.4818  0.4322
  745MOL0     C  499   2.553  10.609   0.003 -0.8544  0.3789  0.5065
  745MOL0     C  500   2.414  10.597   0.057  0.1194 -0.4905  0.1138
  745MOL0     C  501   2.320  10.493  -0.013  0.2924  0.5718 -0.0129
  745MOL0     C  502   2.177  10.512   0.034 -0.6426 -0.3388  0.1686
  745MOL0     C  503   2.116  10.645  -0.005  0.6130 -0.6112  0.9056
  745MOL0     C  504   2.084  10.765  -0.027  0.8281  0.7169  0.5701
  745MOL0     C  505   2.752  10.542   0.217  0.3300 -0.0767  0.0332
  745MOL0     C  506   2.880  10.547   0.277  0.6086 -0.1537  0.1490
  745MOL0     C  507   2.882  10.587   0.431  0.0939  0.6390  0.1754
  745MOL0     H  508   3.357  10.582   0.150 -0.7996  3.0291  3.5446
  745MOL0     H  509   3.615  10.570   0.178 -3.3044  3.4380 -0.7995
  745MOL0     H  510   3.799  10.495   0.126 -1.3464  0.8449 -0.4039
  745MOL0     H  511   3.860  10.562   0.277  3.2561 -1.3969  1.7866
  745MOL0     H  512   3.954  10.291   0.179 -1.3498  0.7337 -2.7676
  745MOL0     H  513   4.013  10.401   0.312 -0.4049 -1.6831  1.4217
  745MOL0     H  514   3.994  10.495   0.018  1.0484  4.0652 -0.1520
  745MOL0     H  515   4.110  10.392   0.059  0.3428  1.3356 -1.3920
  745MOL0     H  516   4.052  10.675   0.172 -1.2953 -1.0796  3.9729
  745MOL0     H  517   4.171  10.575   0.251 -0.9300  2.7662  1.0086
  745MOL0     H  518   4.179  10.665  -0.042 -1.0615 -0.7426  0.3430
  745MOL0     H  519   4.276  10.722   0.104 -0.3936 -0.1561  2.5718
  745MOL0     H  520   4.287  10.443  -0.037  0.4245 -1.6884  1.9365
  745MOL0     H  521   4.401  10.568  -0.063  0.1729  1.3214  0.7052
  745MOL0     H  522   4.486  10.409   0.089 -1.8901 -1.5581 -1.4559
  745MOL0     H  523   4.335  10.411   0.184 -0.0122  1.2183 -0.7653
  745MOL0     H  524   4.508  10.663   0.161  0.1595  0.8731  0.3615
  745MOL0     H  525   4.380  10.632   0.277  1.8624 -0.3625  2.8827
  745MOL0     H  526   4.435  10.593   0.529 -0.2147 -0.8362 -1.2277
  745MOL0     H  527   4.794  10.567   0.682  0.0290  1.3520  0.2086
  745MOL0     H  528   4.645  10.646   0.711  1.4726  1.9453 -1.9370
  745MOL0     H  529   4.519  10.432   0.713  0.4997 -0.6566 -0.4373
  745MOL0     H  530   4.659  10.340   0.674  1.6423 -1.2444  3.3814
  745MOL0     H  531   4.618  10.506   0.931 -1.1655 -2.2470  1.0469
  745MOL0     H  532   4.775  10.449   0.878 -0.5495  1.3373  0.8548
  745MOL0     H  533   4.685  10.220   0.893 -3.0101 -1.2498 -2.1569
  745MOL0     H  534   4.524  10.295   0.919 -0.2285 -1.3797  1.8824
  745MOL0     H  535   4.850  10.388   1.210  1.6476  0.2019 -0.3177
  745MOL0     H  536   5.018  10.271   1.323  1.9620 -2.4333  1.7751
  745MOL0     H  537   5.356   9.852   1.227  0.5647 -4.5433 -2.9817
  745MOL0     H  538   5.502   9.719   1.358  0.0443  1.3485  0.3988
  745MOL0     H  539   5.591   9.688   1.579  1.0015 -0.1755  0.3257
  745MOL0     H  540   5.588   9.553   1.680 -1.3716  2.5930  0.9925
  745MOL0     H  541   5.630   9.385   1.512 -0.2900 -0.7610 -1.3792
  745MOL0     H  542   5.647   9.499   1.385 -1.2961  1.4572  0.6028
  745MOL0     H  543   5.833   9.603   1.475  1.2738 -1.7977 -1.4041
  745MOL0     H  544   5.841   9.518   1.631  3.2897 -1.7917 -0.0735
  745MOL0     H  545   5.920   9.380   1.378 -2.3126 -2.9419  0.5657
  745MOL0     H  546   5.854   9.306   1.526  3.0689 -1.7461  0.6393
  745MOL0     H  547   6.100   9.486   1.506  1.6282 -1.1540 -0.5119
  745MOL0     H  548   6.111   9.310   1.499 -0.7982 -1.2864  1.9076
  745MOL0     H  549   6.001   9.458   1.734 -0.8989  0.9591 -2.3551
  745MOL0     H  550   6.037   9.286   1.720  0.2418 -1.3283 -1.6968
  745MOL0     H  551   6.249   9.504   1.661  0.1564  1.1037  1.3182
  745MOL0     H  552   6.284   9.336   1.714 -1.4656 -1.4026 -0.4872
  745MOL0     H  553   6.164   9.561   1.874 -0.0115 -0.2778 -0.9439
  745MOL0     H  554   6.207   9.387   1.926  0.9427 -2.7221 -2.4583
  745MOL0     H  555   5.180   9.596   1.615  0.9560  0.0104  0.4207
  745MOL0     H  556   5.013   9.729   1.472  0.6373  0.1307  0.3678
  745MOL0     H  557   4.862   9.898   1.191  2.4954  0.9044  1.4841
  745MOL0     H  558   4.674  10.029   1.056  1.9673  0.4140 -1.2093
  745MOL0     H  559   3.555  10.196   0.383  1.1848  0.4653  1.5562
  745MOL0     H  560   3.334  10.196   0.344  1.2688 -0.6329  2.9196
  745MOL0     H  561   3.075  10.446   0.018 -0.0732 -1.8567  2.0813
  745MOL0     H  562   2.838  10.445  -0.098 -1.0846  0.4020  0.3512
  745MOL0     H  563   2.564  10.626  -0.105 -1.2792 -2.2898 -0.0195
  745MOL0     H  564   2.602  10.694   0.051 -0.5928  0.7821 -0.4535
  745MOL0     H  565   2.375  10.698   0.043 -0.8129 -0.8788 -0.1093
  745MOL0     H  566   2.424  10.575   0.164 -0.2243  1.4422  0.5801
  745MOL0     H  567   2.350  10.393   0.020  2.0204  1.6966  2.1215
  745MOL0     H  568   2.341  10.501  -0.120 -0.6028 -0.1891 -0.2595
  745MOL0     H  569   2.114  10.434  -0.009 -2.9847  0.9874  0.9802
  745MOL0     H  570   2.180  10.510   0.144 -0.3659 -0.5197  0.1573
  745MOL0     H  571   2.059  10.862  -0.063  2.2344 -0.0605 -2.8764
  745MOL0     H  572   2.660  10.562   0.271  0.6818  2.2063 -0.1115
  745MOL0     H  573   2.927  10.504   0.486  1.5699 -1.6734 -4.0617
  745MOL0     H  574   2.939  10.677   0.452 -0.1537  1.0985 -1.0438
  745MOL0     H  575   2.780  10.609   0.463  0.3344 -0.5268  1.8849
  746MOL0     O  576   2.897  10.595  11.169 -0.0796 -0.7713  0.2109
  746MOL0     C  577   2.927  10.642  11.059 -0.4988  0.6712 -0.3209
  746MOL0     O  578   3.050  10.603  11.001 -0.0478  0.0384 -0.3317
  746MOL0     C  579   3.120  10.505  11.067  0.3080  0.2463  0.7838
  746MOL0     C  580   3.229  10.527  11.154 -1.3817 -0.0588  0.8172
  746MOL0     C  581   3.270  10.422  11.239  0.1190 -0.4234  0.7940
  746MOL0     C  582   3.226  10.293  11.223 -0.5615  0.2745  0.3693
  746MOL0     O  583   3.282  10.200  11.306 -0.8084  0.0184 -1.2555
  746MOL0     C  584   3.202  10.084  11.352 -1.4668 -0.9116  0.3613
  746MOL0     C  585   3.277  10.035  11.479 -0.3211  0.1895 -0.4447
  746MOL0     C  586   3.204   9.913  11.539  0.0471 -0.3079 -0.8382
  746MOL0     C  587   3.167   9.916  11.695 -0.8445 -0.4848 -0.1065
  746MOL0     C  588   3.076  10.042  11.727  0.5992  0.4845  0.1348
  746MOL0     C  589   3.031  10.033  11.870  1.5434  0.6128 -0.4214
  746MOL0     C  590   2.930  10.144  11.902  0.8324 -0.3176 -0.3731
  746MOL0     C  591   2.797  10.094  11.969  0.1613  0.0420  1.2183
  746MOL0     N  592   2.728  10.207  12.029 -0.4449  0.2597  0.4936
  746MOL0     C  593   2.663  10.305  11.969  0.4834  1.1512  0.3947
  746MOL0     C  594   2.608  10.383  12.068  0.5285  0.4653 -0.0066
  746MOL0     C  595   2.504  10.494  12.063 -0.2468  0.4508  0.7447
  746MOL0     C  596   2.383  10.454  12.153  0.5045  0.1278 -1.2264
  746MOL0     C  597   2.295  10.566  12.189 -0.7739 -0.0096  0.2696
  746MOL0     C  598   2.249  10.568  12.331  0.5686  0.4391 -0.5428
  746MOL0     O  599   2.157  10.463  12.348  0.0818  0.0184 -0.1196
  746MOL0     C  600   2.111  10.451  12.478 -0.2586 -0.2061  0.0687
  746MOL0     C  601   2.082  10.565  12.567 -0.0868  1.0167  0.2197
  746MOL0     C  602   2.034  10.557  12.697 -0.2350 -0.8333 -0.0750
  746MOL0     C  603   2.002  10.429  12.750  0.5382 -0.3900 -0.3161
  746MOL0     C  604   1.917  10.414  12.871  0.1176 -1.2445 -0.9771
  746MOL0     O  605   1.857  10.296  12.889 -0.2316  0.1443  0.6097
  746MOL0     C  606   1.781  10.279  12.995  0.0611  0.4956 -0.3202
  746MOL0     C  607   1.690  10.369  13.058  0.1230  0.3205  0.2221
  746MOL0     C  608   1.603  10.322  13.159 -0.1277  0.9893  0.0041
  746MOL0     C  609   1.610  10.191  13.205  0.0445  0.3712  1.0524
  746MOL0     O  610   1.530  10.140  13.315 -0.3915 -0.1045  0.3473
  746MOL0     C  611   1.486  10.240  13.418  0.9926 -0.4094  0.3041
  746MOL0     C  612   1.425  10.178  13.536  0.1359  0.5914  0.2022
  746MOL0     C  613   1.517  10.063  13.592  0.6941 -0.6187  0.2046
  746MOL0     C  614   1.678  10.097  13.593 -0.1575  0.0229 -0.2155
  746MOL0     C  615   1.763   9.974  13.626  0.8743 -0.8832  0.3678
  746MOL0     C  616   1.908  10.013  13.633 -0.0811 -0.2760  1.0326
  746MOL0     C  617   1.980   9.889  13.582 -0.1173  0.4622  0.0163
  746MOL0     C  618   2.133   9.904  13.605 -0.2083  0.0828  0.0770
  746MOL0    Cl  619   2.169   9.868  13.784  0.4060  0.4435 -0.1144
  746MOL0     C  620   1.689  10.106  13.136 -0.1574  0.6238  0.0324
  746MOL0     C  621   1.774  10.149  13.040  0.4715  1.5180  0.4967
  746MOL0     O  622   1.897  10.510  12.949 -0.3453 -0.3760 -0.1460
  746MOL0     C  623   2.036  10.314  12.671 -0.4442 -0.0597 -0.2323
  746MOL0     C  624   2.085  10.326  12.535  0.5572  0.6838 -0.1539
  746MOL0     N  625   2.641  10.315  12.180 -0.2510  0.6000 -0.2367
  746MOL0     N  626   2.726  10.228  12.162 -0.4760  0.6898 -0.6112
  746MOL0     C  627   3.128  10.261  11.120  0.7915 -0.9033  1.0581
  746MOL0     C  628   3.075  10.370  11.043  0.1600 -0.0254 -1.2133
  746MOL0     C  629   2.827  10.727  10.980 -0.7349  0.5144 -0.6071
  746MOL0     C  630   2.876  10.769  10.860 -0.1116  0.1101 -0.7016
  746MOL0     C  631   2.795  10.863  10.793  0.8672 -0.0126  0.1898
  746MOL0     C  632   2.669  10.909  10.837  0.4187 -0.0248  0.2072
  746MOL0     O  633   2.593  10.995  10.767 -0.3258  0.1688 -1.0391
  746MOL0     C  634   2.631  11.038  10.643 -0.0005  0.3312  0.4067
  746MOL0     C  635   2.553  11.161  10.596 -0.9632  0.0095  0.5352
  746MOL0     C  636   2.652  11.244  10.506  0.3771 -0.2498  0.8762
  746MOL0     C  637   2.599  11.388  10.483 -0.0006  0.1107 -0.7522
  746MOL0     C  638   2.460  11.390  10.453 -0.4771 -0.6638  0.3436
  746MOL0     C  639   2.340  11.394  10.451  0.5375  0.1260 -0.2338
  746MOL0     C  640   2.624  10.858  10.953 -0.2509 -0.2504  0.9547
  746MOL0     C  641   2.699  10.762  11.028 -0.7015 -1.1581 -0.2168
  746MOL0     C  642   2.641  10.720  11.162 -1.0148 -0.1471  0.1047
  746MOL0     H  643   3.291  10.615  11.139  1.2120 -2.0538 -1.0519
  746MOL0     H  644   3.333  10.447  11.324 -1.3960 -3.1007  2.8713
  746MOL0     H  645   3.097  10.104  11.374 -2.4665 -1.2503 -3.4018
  746MOL0     H  646   3.205  10.002  11.280  0.7885  0.4710 -1.2535
  746MOL0     H  647   3.274  10.108  11.561 -4.7142 -0.6584  0.3616
  746MOL0     H  648   3.380  10.002  11.461 -0.8429 -0.3110 -2.8274
  746MOL0     H  649   3.259   9.824  11.508 -0.4470 -1.9362  2.5063
  746MOL0     H  650   3.111   9.895  11.485 -0.0229  0.2973 -0.9218
  746MOL0     H  651   3.104   9.828  11.706  0.7726 -1.6503  0.2253
  746MOL0     H  652   3.255   9.899  11.759  1.6070  2.2511 -2.4385
  746MOL0     H  653   3.130  10.131  11.695 -0.5478  1.5962  1.1577
  746MOL0     H  654   2.990  10.038  11.660 -1.4811  0.5842  2.6312
  746MOL0     H  655   2.975   9.941  11.884 -1.6144  2.7054  1.8381
  746MOL0     H  656   3.125  10.038  11.925  0.3466 -1.5014  2.0045
  746MOL0     H  657   2.906  10.202  11.813 -2.6470 -0.3295  0.4215
  746MOL0     H  658   2.979  10.219  11.964  1.2125  1.3704 -2.6045
  746MOL0     H  659   2.737  10.051  11.889 -1.6666 -0.8507  2.9933
  746MOL0     H  660   2.817  10.027  12.054  1.7908 -0.1084  0.7641
  746MOL0     H  661   2.658  10.322  11.862 -0.8543  2.3592  0.6055
  746MOL0     H  662   2.550  10.590  12.091  2.8940  0.5684 -3.6647
  746MOL0     H  663   2.455  10.516  11.968  0.6769  0.0337  0.1576
  746MOL0     H  664   2.325  10.386  12.090  0.1109  1.9253 -2.8850
  746MOL0     H  665   2.410  10.405  12.247 -0.4911 -1.5444 -1.7661
  746MOL0     H  666   2.208  10.562  12.122 -2.5007  0.3295  2.3722
  746MOL0     H  667   2.356  10.653  12.166  0.6997 -1.8977 -3.9717
  746MOL0     H  668   2.201  10.664  12.355 -1.9544 -0.8962  0.1128
  746MOL0     H  669   2.342  10.554  12.387 -0.1212 -0.0713  0.4911
  746MOL0     H  670   2.112  10.661  12.526  0.8391  1.5475  2.0358
  746MOL0     H  671   2.014  10.647  12.755 -1.9778 -0.9271 -0.4701
  746MOL0     H  672   1.697  10.475  13.033  3.9831  0.6695  1.9964
  746MOL0     H  673   1.524  10.391  13.185 -1.4648  0.7529 -2.9963
  746MOL0     H  674   1.570  10.302  13.450  0.1247  1.0455 -0.1475
  746MOL0     H  675   1.409  10.304  13.374 -1.9107 -3.4594  0.5741
  746MOL0     H  676   1.405  10.250  13.615 -2.0617  1.5373 -1.1095
  746MOL0     H  677   1.333  10.132  13.498  0.7932 -0.9952  0.4384
  746MOL0     H  678   1.494  10.038  13.696 -0.2051 -1.5197 -0.2040
  746MOL0     H  679   1.507   9.976  13.527 -0.2452 -1.0497  0.8973
  746MOL0     H  680   1.682  10.171  13.674 -2.1953 -0.9167  0.8103
  746MOL0     H  681   1.703  10.154  13.503 -0.6169 -0.5653 -0.7262
  746MOL0     H  682   1.748   9.919  13.533  2.1322  2.0317 -1.7237
  746MOL0     H  683   1.724   9.919  13.712  1.6371  0.7609  1.8471
  746MOL0     H  684   1.939  10.097  13.572  0.6444  0.1850  2.0120
  746MOL0     H  685   1.920  10.052  13.735  1.7586  1.2670  0.2812
  746MOL0     H  686   1.958   9.883  13.475 -0.3370  0.1099  0.0803
  746MOL0     H  687   1.945   9.797  13.629 -0.7868  0.6461 -0.1021
  746MOL0     H  688   2.173   9.831  13.533 -0.6339 -1.8349  1.7104
  746MOL0     H  689   2.162  10.007  13.583  1.4296 -1.0198 -3.8376
  746MOL0     H  690   1.695  10.001  13.164  3.8713  0.3492 -1.2814
  746MOL0     H  691   1.844  10.084  12.989  1.4450  1.7506  1.4919
  746MOL0     H  692   2.017  10.216  12.715  0.2361  1.1252  2.9590
  746MOL0     H  693   2.108  10.253  12.458  2.7065  0.9626  0.1446
  746MOL0     H  694   3.095  10.160  11.098  0.6971 -0.1945 -2.7483
  746MOL0     H  695   2.999  10.335  10.974  1.4715 -0.3648 -2.5474
  746MOL0     H  696   2.973  10.732  10.829  0.6991  2.7786 -1.6677
  746MOL0     H  697   2.838  10.901  10.701  0.1594  1.6051  0.4937
  746MOL0     H  698   2.616  10.957  10.571 -0.3946  1.1564 -0.4559
  746MOL0     H  699   2.737  11.065  10.642 -0.4148  2.1856  1.2665
  746MOL0     H  700   2.515  11.213  10.684  0.1575 -1.4557  1.9630
  746MOL0     H  701   2.472  11.125  10.532 -0.6507  1.3504 -0.6572
  746MOL0     H  702   2.647  11.195  10.409 -2.3261 -0.9952  1.3135
  746MOL0     H  703   2.758  11.252  10.530  0.7601 -2.3344  0.0445
  746MOL0     H  704   2.606  11.440  10.579 -2.7830 -1.1097  0.2128
  746MOL0     H  705   2.668  11.434  10.413  2.5536 -1.2950  0.6650
  746MOL0     H  706   2.235  11.401  10.430  0.6224 -0.8640 -1.0881
  746MOL0     H  707   2.526  10.891  10.985 -0.9903 -0.0672 -1.3228
  746MOL0     H  708   2.700  10.755  11.247 -0.3380 -4.8210  1.8695
  746MOL0     H  709   2.539  10.754  11.184 -0.2031  1.1251  2.1810
  746MOL0     H  710   2.639  10.610  11.164 -2.8128 -0.2484 -2.2830
  747MOL0     O  711   3.857  10.094   6.497  0.8775 -0.7749 -0.0350
  747MOL0     C  712   3.854  10.217   6.467 -1.5160 -0.1499  1.3757
  747MOL0     O  713   3.844  10.325   6.551 -0.2635  0.2695 -0.3161
  747MOL0     C  714   3.820  10.295   6.687  0.4970  0.0889  0.3455
  747MOL0     C  715   3.742  10.193   6.744  0.2353 -0.6745  0.1506
  747MOL0     C  716   3.720  10.185   6.876  0.6788  0.3382 -0.3526
  747MOL0     C  717   3.761  10.291   6.966  0.3143 -0.2756  0.3255
  747MOL0     O  718   3.739  10.284   7.102 -0.8136 -0.2939 -0.4459
  747MOL0     C  719   3.701  10.154   7.157 -0.2114  0.3905  0.7411
  747MOL0     C  720   3.707  10.156   7.305  0.0613  0.5964 -0.2331
  747MOL0     C  721   3.629  10.264   7.378  0.7135  0.8346  0.6552
  747MOL0     C  722   3.653  10.274   7.535  0.7467 -0.0253 -0.1882
  747MOL0     C  723   3.548  10.368   7.605 -0.0370  1.2163  0.1269
  747MOL0     C  724   3.410  10.295   7.610  0.2592  0.3055 -0.1820
  747MOL0     C  725   3.311  10.368   7.691 -0.0829 -0.5438 -0.4864
  747MOL0     C  726   3.183  10.292   7.717 -0.3767  0.2938  0.6465
  747MOL0     N  727   3.123  10.281   7.590  0.2760 -0.0793 -0.3106
  747MOL0     C  728   3.056  10.386   7.531  0.5789  0.9237  0.1023
  747MOL0     C  729   3.040  10.335   7.404  0.0242 -0.3959 -0.0205
  747MOL0     C  730   2.986  10.412   7.293 -0.1800 -0.0113 -0.1718
  747MOL0     C  731   3.099  10.465   7.195 -0.7494 -0.1876  0.4333
  747MOL0     C  732   3.209  10.551   7.265 -0.1164 -0.0916  0.5140
  747MOL0     C  733   3.311  10.611   7.162  0.4283  1.2575  0.1590
  747MOL0     O  734   3.332  10.509   7.052  0.6970  0.0503 -0.1393
  747MOL0     C  735   3.407  10.558   6.953 -0.4545 -0.2558 -0.5628
  747MOL0     C  736   3.514  10.654   6.975 -1.0149  0.4789 -0.1047
  747MOL0     C  737   3.570  10.716   6.868 -0.1915  0.5931 -0.0501
  747MOL0     C  738   3.558  10.677   6.740  0.2136  0.7799  0.1481
  747MOL0     C  739   3.648  10.737   6.642  0.7412 -0.3602  0.1934
  747MOL0     O  740   3.627  10.700   6.522 -0.0619  0.5978 -0.6544
  747MOL0     C  741   3.693  10.749   6.420 -0.0225 -0.2255 -0.2200
  747MOL0     C  742   3.630  10.855   6.353  0.0874 -0.5678  0.7636
  747MOL0     C  743   3.683  10.899   6.226 -0.2092 -0.3430 -0.3874
  747MOL0     C  744   3.803  10.837   6.178  1.0933  0.3870 -1.3077
  747MOL0     O  745   3.881  10.884   6.078  0.4253 -0.0777 -0.0144
  747MOL0     C  746   3.833  10.978   5.971  0.4364  0.0966  0.0984
  747MOL0     C  747   3.956  11.042   5.904 -0.0143 -0.5232 -0.0889
  747MOL0     C  748   4.040  10.933   5.845 -1.1898 -0.1282 -0.3560
  747MOL0     C  749   4.174  10.982   5.781  0.0237  0.5749 -0.7087
  747MOL0     C  750   4.242  10.861   5.706 -0.5199 -0.0025  0.3192
  747MOL0     C  751   4.385  10.877   5.664 -0.3569 -1.0318  0.4055
  747MOL0     C  752   4.475  10.948   5.758  0.5019  0.6832  0.8577
  747MOL0     C  753   4.625  10.947   5.715 -0.2503  0.1611 -0.4715
  747MOL0    Cl  754   4.704  11.053   5.833  0.2188 -0.0368  0.5489
  747MOL0     C  755   3.865  10.736   6.251 -0.2982  0.1900 -0.4859
  747MOL0     C  756   3.808  10.683   6.368  0.7442 -0.2534 -0.8996
  747MOL0     O  757   3.723  10.824   6.665 -0.1487  1.1043  0.1347
  747MOL0     C  758   3.466  10.577   6.715 -0.5466 -0.1051  0.3647
  747MOL0     C  759   3.388  10.529   6.823 -0.1406 -0.4141  0.0426
  747MOL0     N  760   3.076  10.203   7.397 -0.2381 -0.0117 -0.3595
  747MOL0     N  761   3.137  10.182   7.506 -0.0260  0.0729 -0.4466
  747MOL0     C  762   3.821  10.401   6.905  0.3457  0.2901 -0.2650
  747MOL0     C  763   3.845  10.403   6.769 -0.1609  0.4624  1.5361
  747MOL0     C  764   3.856  10.262   6.325 -0.7402  0.1766  0.4355
  747MOL0     C  765   3.763  10.355   6.290 -0.2149 -0.6726 -0.2250
  747MOL0     C  766   3.774  10.422   6.167 -0.4211 -1.0751 -0.4902
  747MOL0     C  767   3.848  10.376   6.065 -0.4507 -0.3867 -0.8590
  747MOL0     O  768   3.850  10.427   5.936  0.9927  0.2703 -0.5027
  747MOL0     C  769   3.849  10.572   5.920 -0.1809 -0.8877 -0.0930
  747MOL0     C  770   3.839  10.610   5.773  0.6283  0.4539 -0.0645
  747MOL0     C  771   3.975  10.560   5.697  1.0937 -0.7083 -0.5834
  747MOL0     C  772   3.960  10.572   5.545 -0.0654  0.1504  0.4707
  747MOL0     C  773   3.858  10.475   5.496 -0.4613  0.6114  0.0390
  747MOL0     C  774   3.773  10.406   5.447  0.7696 -0.1869 -0.2687
  747MOL0     C  775   3.937  10.265   6.089 -0.2279  0.4869 -0.6511
  747MOL0     C  776   3.944  10.208   6.222  0.3932  0.9599  0.0539
  747MOL0     C  777   4.028  10.081   6.246 -0.5658  0.0764 -0.1179
  747MOL0     H  778   3.704  10.118   6.675  0.2497  0.8474 -1.6037
  747MOL0     H  779   3.662  10.099   6.907  2.9104 -0.9988  0.3768
  747MOL0     H  780   3.599  10.132   7.124  0.1562 -1.5881  0.8292
  747MOL0     H  781   3.763  10.073   7.117 -0.1062  1.8127 -2.2766
  747MOL0     H  782   3.810  10.176   7.334 -1.2693  2.0420  4.5599
  747MOL0     H  783   3.676  10.060   7.349  1.3342  1.5539  3.0493
  747MOL0     H  784   3.522  10.258   7.353  0.8566 -2.1943  0.4653
  747MOL0     H  785   3.656  10.363   7.340  0.5641  0.5628 -0.1887
  747MOL0     H  786   3.664  10.177   7.583 -0.6120 -0.8102 -1.4110
  747MOL0     H  787   3.752  10.312   7.563  1.4317 -2.5548  1.1497
  747MOL0     H  788   3.601  10.393   7.697 -0.0084  1.2972  0.0889
  747MOL0     H  789   3.530  10.459   7.546  0.6909  2.5812  1.9288
  747MOL0     H  790   3.373  10.296   7.507  4.1385 -2.4286 -1.8246
  747MOL0     H  791   3.412  10.192   7.645 -0.3113  1.1089  2.5032
  747MOL0     H  792   3.298  10.465   7.642 -0.0290 -0.8700 -1.1733
  747MOL0     H  793   3.360  10.385   7.787 -1.8443  0.1850  0.3092
  747MOL0     H  794   3.196  10.204   7.780 -1.6185 -0.3389  0.0602
  747MOL0     H  795   3.123  10.366   7.772  2.0871  0.7655  2.9122
  747MOL0     H  796   3.045  10.485   7.574 -0.5604  0.5872  0.6190
  747MOL0     H  797   2.908  10.355   7.239 -0.2153  0.0575 -0.1935
  747MOL0     H  798   2.933  10.498   7.335 -1.3077  0.4701 -2.3966
  747MOL0     H  799   3.136  10.374   7.146  0.8155  0.7125 -0.1357
  747MOL0     H  800   3.066  10.530   7.114 -1.0370  0.3637  0.9900
  747MOL0     H  801   3.268  10.485   7.330 -0.8277 -1.8702 -0.5665
  747MOL0     H  802   3.168  10.619   7.341 -0.8538 -2.4013  2.3118
  747MOL0     H  803   3.392  10.627   7.233  0.9915  0.3627 -0.2575
  747MOL0     H  804   3.273  10.707   7.129 -2.0105  0.2135 -0.2939
  747MOL0     H  805   3.542  10.681   7.076  0.0869 -0.4756 -0.1278
  747MOL0     H  806   3.647  10.791   6.885  0.6532  0.3234 -2.2934
  747MOL0     H  807   3.547  10.903   6.404  0.3253  0.5752  0.1060
  747MOL0     H  808   3.648  10.995   6.189 -1.5701  1.4072  4.6318
  747MOL0     H  809   3.775  10.919   5.899  2.0163 -0.7602 -0.5209
  747MOL0     H  810   3.769  11.059   6.008  0.1085 -1.0439  2.1372
  747MOL0     H  811   3.937  11.105   5.817  1.8898  0.5697  0.2345
  747MOL0     H  812   4.021  11.103   5.967  3.5511 -2.7967 -1.2155
  747MOL0     H  813   4.052  10.851   5.916  2.1832 -1.5919 -2.3820
  747MOL0     H  814   3.981  10.904   5.757 -0.9004 -1.1379 -0.2319
  747MOL0     H  815   4.245  11.010   5.860  1.5687 -1.5521 -1.2494
  747MOL0     H  816   4.153  11.068   5.718  1.5361  0.2390 -1.7130
  747MOL0     H  817   4.175  10.847   5.621 -1.7292 -1.0971  1.3962
  747MOL0     H  818   4.234  10.772   5.769 -0.0955 -0.6150 -0.4891
  747MOL0     H  819   4.418  10.775   5.639 -1.1095 -0.6271 -2.5878
  747MOL0     H  820   4.391  10.938   5.573  1.4774 -0.3847  0.9229
  747MOL0     H  821   4.471  10.879   5.842  4.4123  0.7145  1.2759
  747MOL0     H  822   4.443  11.051   5.780 -0.0812  0.5348  0.7063
  747MOL0     H  823   4.678  10.852   5.708  2.8713  1.6521  0.8015
  747MOL0     H  824   4.639  10.988   5.615  0.0429 -2.3634 -1.5291
  747MOL0     H  825   3.954  10.694   6.205  0.0060  0.2416  0.0475
  747MOL0     H  826   3.844  10.591   6.412  0.1029 -1.7374 -3.3425
  747MOL0     H  827   3.455  10.540   6.613  1.8010 -0.9642  0.3547
  747MOL0     H  828   3.304  10.464   6.802  0.2448 -0.5658 -1.1003
  747MOL0     H  829   3.861  10.469   6.979  0.4503 -3.4855  3.5433
  747MOL0     H  830   3.887  10.494   6.728  3.8415 -2.4080 -1.6349
  747MOL0     H  831   3.681  10.389   6.352  0.2285  0.9433 -0.4781
  747MOL0     H  832   3.716  10.510   6.142  1.1589  0.4061  0.8326
  747MOL0     H  833   3.943  10.618   5.951  0.3999 -0.7862 -1.9075
  747MOL0     H  834   3.757  10.603   5.971 -1.2296 -1.2196 -1.7086
  747MOL0     H  835   3.819  10.714   5.745 -1.9213 -0.5160 -2.2780
  747MOL0     H  836   3.739  10.580   5.739 -0.1009  2.9780 -0.3646
  747MOL0     H  837   3.992  10.455   5.724 -0.7421 -1.2613 -1.3915
  747MOL0     H  838   4.056  10.623   5.735  0.5315 -1.3532  1.7994
  747MOL0     H  839   3.918  10.667   5.508  0.1517  0.0934  0.0792
  747MOL0     H  840   4.054  10.554   5.492 -1.4344  0.3339 -2.1609
  747MOL0     H  841   3.716  10.332   5.395  0.2366 -0.6810  0.9780
  747MOL0     H  842   3.995  10.230   6.004 -3.1034  0.1322 -2.5925
  747MOL0     H  843   4.115  10.070   6.181 -2.8331  0.0665 -3.4758
  747MOL0     H  844   4.063  10.080   6.349  1.9453 -2.6045 -0.8775
  747MOL0     H  845   3.963   9.993   6.244 -2.2513  1.2411  0.3969
  748MOL0     O  846  11.143   1.994   4.702  0.3762  0.0531 -0.2504
  748MOL0     C  847  11.020   2.035   4.706 -0.7198  1.2525 -0.2173
  748MOL0     O  848  10.926   2.000   4.803  1.0210 -0.0821  0.4713
  748MOL0     C  849  10.962   1.920   4.902  0.1829  0.3924  0.7286
  748MOL0     C  850  10.970   1.773   4.881  0.2313  0.3920  0.1182
  748MOL0     C  851  11.002   1.687   4.986 -0.1367  0.0399 -1.1378
  748MOL0     C  852  11.024   1.745   5.114 -0.5190  1.0332 -0.4894
  748MOL0     O  853  11.045   1.658   5.227 -0.1833 -0.3876  0.1735
  748MOL0     C  854  11.186   1.641   5.253 -0.4601  0.5272 -0.3424
  748MOL0     C  855  11.215   1.584   5.398  1.6367  0.6843  0.1764
  748MOL0     C  856  11.353   1.611   5.444  0.0626  0.5335 -0.2252
  748MOL0     C  857  11.382   1.544   5.578  1.1338  0.5279  0.0192
  748MOL0     C  858  11.536   1.572   5.612 -0.2333 -0.5613  0.5592
  748MOL0     C  859  11.568   1.502   5.747  0.0133 -0.3436  0.2872
  748MOL0     C  860  11.486   1.558   5.863  0.2304  0.0380 -0.4286
  748MOL0     C  861  11.566   1.538   5.988 -1.0816  0.8827  0.0006
  748MOL0     N  862  11.673   1.640   6.007  0.0671 -0.1039 -0.4439
  748MOL0     C  863  11.672   1.754   6.087  0.2442  0.5955 -0.4380
  748MOL0     C  864  11.797   1.784   6.098  0.3260 -0.4490 -1.1424
  748MOL0     C  865  11.842   1.896   6.190 -0.8133 -0.0944 -0.0578
  748MOL0     C  866  11.942   1.834   6.301  0.8646 -0.7673  0.0297
  748MOL0     C  867  12.054   1.923   6.364  0.8137 -0.9083  0.0411
  748MOL0     C  868  11.996   2.056   6.424 -0.0419 -0.9871  0.5324
  748MOL0     O  869  11.949   2.143   6.329  0.1110 -0.0143  0.2518
  748MOL0     C  870  11.865   2.247   6.361 -0.0374 -0.2123 -0.1492
  748MOL0     C  871  11.839   2.295   6.487 -0.4408 -0.1219  0.7625
  748MOL0     C  872  11.778   2.414   6.499  0.1295 -0.0746 -0.0867
  748MOL0     C  873  11.719   2.479   6.383 -0.2309  0.5436 -0.1442
  748MOL0     C  874  11.656   2.610   6.387 -0.5340 -0.8634 -0.3861
  748MOL0     O  875  11.612   2.671   6.268  0.5979  0.3328  0.0344
  748MOL0     C  876  11.558   2.798   6.289  0.0360  0.5879 -0.7866
  748MOL0     C  877  11.634   2.911   6.340  0.2511  0.2761 -0.2846
  748MOL0     C  878  11.582   3.037   6.350 -0.3013 -0.2566 -0.3599
  748MOL0     C  879  11.449   3.054   6.313  0.3257  0.2178 -0.1875
  748MOL0     O  880  11.396   3.181   6.317 -0.6208  0.6731 -0.0784
  748MOL0     C  881  11.257   3.199   6.279 -1.1671  0.6380 -0.0831
  748MOL0     C  882  11.239   3.349   6.260  0.3274  0.3667 -0.2366
  748MOL0     C  883  11.335   3.422   6.151 -0.1684 -0.7339 -0.2835
  748MOL0     C  884  11.329   3.572   6.153 -0.2928  0.0329 -0.0077
  748MOL0     C  885  11.422   3.647   6.054  0.2732 -1.0941  0.3785
  748MOL0     C  886  11.408   3.601   5.902  0.5758 -0.2788 -0.4648
  748MOL0     C  887  11.495   3.678   5.791  0.1892  0.2742  0.9113
  748MOL0     C  888  11.627   3.712   5.850  0.1277  0.2507  0.3792
  748MOL0    Cl  889  11.713   3.789   5.715 -0.1573  0.1014  0.2205
  748MOL0     C  890  11.368   2.943   6.276  0.2268 -0.4872  0.7522
  748MOL0     C  891  11.424   2.819   6.260  0.2027  0.6162 -0.3776
  748MOL0     O  892  11.649   2.666   6.502  0.0589  0.0331  0.5449
  748MOL0     C  893  11.734   2.420   6.260 -0.4335 -0.3308 -0.3989
  748MOL0     C  894  11.816   2.309   6.249 -0.1931 -1.0464 -0.5500
  748MOL0     N  895  11.885   1.707   6.032 -0.7199  0.1385  0.2982
  748MOL0     N  896  11.809   1.607   5.984  0.3460  0.0770  0.1192
  748MOL0     C  897  11.011   1.887   5.135 -0.0455  0.1021  0.5596
  748MOL0     C  898  10.997   1.968   5.025  0.2200  0.4594  0.0203
  748MOL0     C  899  10.984   2.128   4.599  0.3293  0.9360 -0.0764
  748MOL0     C  900  10.881   2.220   4.621 -0.1976 -0.2040  0.5364
  748MOL0     C  901  10.838   2.314   4.524 -0.3899 -0.0037  0.4561
  748MOL0     C  902  10.883   2.317   4.392 -0.0913  0.5979 -0.7667
  748MOL0     O  903  10.840   2.404   4.298 -0.1406 -0.6664  0.0312
  748MOL0     C  904  10.701   2.462   4.315 -0.3240 -0.1003 -0.5040
  748MOL0     C  905  10.676   2.557   4.201 -0.0255 -1.8382  0.2218
  748MOL0     C  906  10.679   2.487   4.056  0.3557  1.0099  0.1551
  748MOL0     C  907  10.819   2.504   3.994 -0.7265 -1.2782  0.4260
  748MOL0     C  908  10.802   2.466   3.851 -0.2249  0.1497 -0.4950
  748MOL0     C  909  10.784   2.414   3.743  0.1572  0.4509 -0.3627
  748MOL0     C  910  10.985   2.224   4.362 -0.2316 -0.2045 -0.3367
  748MOL0     C  911  11.036   2.133   4.468  0.4860 -0.6747 -0.5844
  748MOL0     C  912  11.141   2.038   4.420  0.3558 -0.7130 -0.4217
  748MOL0     H  913  10.944   1.728   4.786 -1.7794  0.2033  0.7122
  748MOL0     H  914  10.999   1.579   4.973  2.9667 -0.4664  1.2801
  748MOL0     H  915  11.241   1.580   5.181  0.0616 -0.7950  1.1191
  748MOL0     H  916  11.238   1.737   5.247  0.0879  0.1763 -4.1088
  748MOL0     H  917  11.191   1.478   5.387 -1.9833  1.1945  1.9060
  748MOL0     H  918  11.143   1.624   5.470 -1.1549 -1.2995 -1.3465
  748MOL0     H  919  11.367   1.718   5.459  1.7740  0.1089  1.6037
  748MOL0     H  920  11.428   1.565   5.378  1.9968 -0.0589  2.2225
  748MOL0     H  921  11.324   1.591   5.657  3.2069  1.1472  1.2638
  748MOL0     H  922  11.352   1.439   5.570  2.1754  0.3244 -2.2507
  748MOL0     H  923  11.603   1.544   5.530 -0.5340  0.7926 -0.1836
  748MOL0     H  924  11.551   1.680   5.621 -0.7586 -0.5697  1.6779
  748MOL0     H  925  11.555   1.394   5.738  2.4531 -0.5597 -1.9368
  748MOL0     H  926  11.672   1.517   5.778  0.5560  0.0409 -1.5869
  748MOL0     H  927  11.391   1.507   5.882  0.1030 -0.3575 -1.9623
  748MOL0     H  928  11.475   1.666   5.860  1.8499  0.4097  2.9744
  748MOL0     H  929  11.496   1.562   6.069  0.2599 -0.7316  1.7237
  748MOL0     H  930  11.587   1.431   5.983 -0.9266  0.9459 -0.8134
  748MOL0     H  931  11.581   1.797   6.128 -0.9516 -0.0954 -2.2566
  748MOL0     H  932  11.897   1.969   6.130 -0.5964 -0.0848  0.1506
  748MOL0     H  933  11.762   1.948   6.242  0.0560  1.8195 -0.5435
  748MOL0     H  934  11.890   1.778   6.379 -0.3443  2.4046  1.7231
  748MOL0     H  935  12.000   1.755   6.253 -0.9223 -1.1810 -1.5595
  748MOL0     H  936  12.134   1.940   6.290  0.9685  1.0794  0.6086
  748MOL0     H  937  12.110   1.872   6.443 -1.8317 -3.4153  0.4322
  748MOL0     H  938  12.066   2.106   6.491 -1.9857  2.7659  0.0072
  748MOL0     H  939  11.910   2.033   6.488  1.0033 -0.7869  2.0633
  748MOL0     H  940  11.884   2.246   6.573 -1.2402  1.1047  1.9188
  748MOL0     H  941  11.766   2.459   6.597  0.5816  1.6432 -0.7912
  748MOL0     H  942  11.738   2.903   6.371  0.5283 -0.5816 -1.3733
  748MOL0     H  943  11.635   3.124   6.386  0.1196 -0.2111 -1.0796
  748MOL0     H  944  11.233   3.147   6.186 -2.0555  2.9942 -1.2425
  748MOL0     H  945  11.187   3.163   6.355 -0.9568  1.7890  0.6746
  748MOL0     H  946  11.134   3.358   6.230 -0.1018 -0.4007  0.9647
  748MOL0     H  947  11.263   3.397   6.355  2.5788 -2.5306  0.8086
  748MOL0     H  948  11.439   3.399   6.174  0.4528  2.3020  0.3472
  748MOL0     H  949  11.311   3.382   6.052 -1.4034  2.5621 -1.4307
  748MOL0     H  950  11.346   3.608   6.255 -3.3883 -1.1222  1.0222
  748MOL0     H  951  11.228   3.602   6.126 -0.5598 -1.1671 -0.3881
  748MOL0     H  952  11.523   3.638   6.096 -0.3929 -1.3642  2.0044
  748MOL0     H  953  11.393   3.752   6.055  3.9240  0.1516  3.5270
  748MOL0     H  954  11.441   3.497   5.898 -1.0554 -0.9626  1.6057
  748MOL0     H  955  11.309   3.606   5.857  0.1112 -0.8980  0.4578
  748MOL0     H  956  11.444   3.763   5.744 -2.6824 -2.5473 -1.5239
  748MOL0     H  957  11.514   3.604   5.713  0.1877  1.9177 -0.7067
  748MOL0     H  958  11.611   3.785   5.931 -0.8363  2.1228 -1.3986
  748MOL0     H  959  11.679   3.620   5.877  0.8059  1.2267  2.6852
  748MOL0     H  960  11.265   2.950   6.243  0.9405 -0.8544 -1.7274
  748MOL0     H  961  11.366   2.733   6.229  0.1822 -0.9661  3.4128
  748MOL0     H  962  11.715   2.484   6.174 -3.4722 -1.0443 -0.3405
  748MOL0     H  963  11.837   2.269   6.150  0.5886 -2.3470  0.1270
  748MOL0     H  964  11.024   1.931   5.233  3.4217  0.1783  0.2003
  748MOL0     H  965  10.997   2.077   5.030 -1.5090  0.4678  0.8018
  748MOL0     H  966  10.827   2.209   4.715 -0.8905  0.2688  0.2076
  748MOL0     H  967  10.765   2.384   4.564 -0.2231 -0.5185  1.7124
  748MOL0     H  968  10.701   2.530   4.400  3.1827  1.4358 -1.5566
  748MOL0     H  969  10.625   2.387   4.341 -0.1070  0.1739  0.9753
  748MOL0     H  970  10.744   2.642   4.208 -0.8297 -0.9573 -1.6997
  748MOL0     H  971  10.576   2.600   4.209 -0.8321 -3.4775 -0.3973
  748MOL0     H  972  10.601   2.521   3.988 -0.0304 -0.8376 -0.3812
  748MOL0     H  973  10.662   2.380   4.069  0.3355  0.9908 -0.0298
  748MOL0     H  974  10.863   2.604   3.993  1.6620 -1.8799 -6.5692
  748MOL0     H  975  10.879   2.436   4.056 -0.4960 -1.6514 -0.1919
  748MOL0     H  976  10.764   2.389   3.641 -0.5204 -1.6362  0.2453
  748MOL0     H  977  11.047   2.225   4.273  1.5223  0.9127  0.8220
  748MOL0     H  978  11.240   2.056   4.463 -0.0106 -1.9357  1.0225
  748MOL0     H  979  11.100   1.941   4.449 -3.9830  0.9018 -0.3916
  748MOL0     H  980  11.139   2.028   4.311 -3.0926  0.3166 -0.5550
  749MOL0     O  981   9.342   4.105   6.974  0.6162  0.4455  0.3737
  749MOL0     C  982   9.458   4.085   6.938  0.3931 -0.0048  0.2518
  749MOL0     O  983   9.499   3.963   6.896 -0.2309  0.0361  0.3622
  749MOL0     C  984   9.407   3.868   6.876  1.6232  0.0434 -0.8195
  749MOL0     C  985   9.343   3.862   6.753  0.3662  0.3359  0.2619
  749MOL0     C  986   9.238   3.772   6.722  0.7656 -0.2721 -0.3200
  749MOL0     C  987   9.203   3.667   6.811  0.2354 -0.1288  0.6671
  749MOL0     O  988   9.112   3.573   6.759 -0.4886  0.2593 -0.6333
  749MOL0     C  989   9.114   3.447   6.826  0.3716  1.1087 -0.0406
  749MOL0     C  990   9.084   3.329   6.737 -0.2512 -0.3388  0.5617
  749MOL0     C  991   9.172   3.322   6.620 -0.6719  0.4413 -0.0701
  749MOL0     C  992   9.115   3.219   6.533 -0.0058  0.8708  0.5939
  749MOL0     C  993   9.113   3.079   6.590  0.1253 -0.9615  0.2717
  749MOL0     C  994   9.073   2.983   6.475 -0.6376 -0.0624 -0.5476
  749MOL0     C  995   9.020   2.854   6.525 -0.0426 -0.8283 -0.7030
  749MOL0     C  996   9.145   2.772   6.583  0.4342 -0.4300 -0.1367
  749MOL0     N  997   9.100   2.629   6.598 -0.1838 -0.3511 -0.4238
  749MOL0     C  998   9.009   2.592   6.695 -0.6647 -0.0611  0.2356
  749MOL0     C  999   8.998   2.462   6.658  0.4154  0.8832 -0.1575
  749MOL0     C 1000   8.893   2.367   6.690 -0.0985  0.1412 -0.4070
  749MOL0     C 1001   8.884   2.224   6.640 -0.1285  0.0015  0.0359
  749MOL0     C 1002   8.993   2.139   6.717  0.1506  0.1211 -0.8873
  749MOL0     C 1003   9.010   1.995   6.676  0.2844 -0.2273  0.7649
  749MOL0     O 1004   9.139   1.937   6.711 -0.1810  0.7346 -0.2541
  749MOL0     C 1005   9.162   1.921   6.841 -0.5965  0.0276  0.8021
  749MOL0     C 1006   9.284   1.964   6.886  0.0361 -0.7620  0.3879
  749MOL0     C 1007   9.318   1.964   7.030  0.6461  1.3866  0.2501
  749MOL0     C 1008   9.221   1.943   7.127  0.3454 -0.6635 -0.4117
  749MOL0     C 1009   9.252   1.932   7.274 -0.9395  0.4195 -1.0581
  749MOL0     O 1010   9.147   1.916   7.359 -1.4177  0.0696 -0.1236
  749MOL0     C 1011   9.167   1.916   7.495  0.7060 -0.0956  0.3811
  749MOL0     C 1012   9.066   1.846   7.571 -0.1922  0.4659 -0.1838
  749MOL0     C 1013   9.046   1.874   7.701 -0.3548  0.4534 -0.1827
  749MOL0     C 1014   9.152   1.942   7.770 -0.1551 -0.0289  0.7407
  749MOL0     O 1015   9.153   1.962   7.905 -0.5904 -0.0049  0.4415
  749MOL0     C 1016   9.030   2.028   7.945 -0.1778 -0.6903  0.4663
  749MOL0     C 1017   9.049   2.058   8.102  0.4738  1.0264  0.1296
  749MOL0     C 1018   9.034   2.210   8.127  0.3172 -0.0041  0.2768
  749MOL0     C 1019   9.033   2.224   8.282  0.3701  0.5678 -0.6212
  749MOL0     C 1020   9.019   2.367   8.337 -0.1557 -0.0460  0.1319
  749MOL0     C 1021   9.005   2.364   8.492  0.2337 -0.4795 -0.7814
  749MOL0     C 1022   9.125   2.417   8.564 -0.9267  0.5051 -0.7937
  749MOL0     C 1023   9.087   2.410   8.710  0.2549 -0.2453  1.1253
  749MOL0    Cl 1024   9.227   2.450   8.801  0.0627  0.5449 -0.1578
  749MOL0     C 1025   9.263   1.988   7.704 -0.3167  0.5201  1.4944
  749MOL0     C 1026   9.260   1.986   7.564 -0.4816 -0.2518 -0.3588
  749MOL0     O 1027   9.371   1.926   7.308 -1.1560 -0.2367  0.9095
  749MOL0     C 1028   9.095   1.916   7.073  0.0324 -0.0779  0.6134
  749MOL0     C 1029   9.069   1.895   6.941  0.1386  0.5420  0.1022
  749MOL0     N 1030   9.088   2.428   6.564  0.0473 -0.7895  0.1662
  749MOL0     N 1031   9.156   2.523   6.537 -0.1670  0.7997 -0.0958
  749MOL0     C 1032   9.257   3.678   6.941  0.6137 -0.8519  0.5590
  749MOL0     C 1033   9.355   3.781   6.968 -0.0751 -0.1911 -0.5032
  749MOL0     C 1034   9.555   4.203   6.924 -0.5262 -0.7144  0.3716
  749MOL0     C 1035   9.513   4.339   6.917 -0.2677 -0.0697  0.4815
  749MOL0     C 1036   9.601   4.438   6.870 -0.4726  0.1209 -0.2074
  749MOL0     C 1037   9.735   4.409   6.846  0.0984 -0.2473 -0.5302
  749MOL0     O 1038   9.833   4.501   6.818  0.8613 -0.3363  0.1780
  749MOL0     C 1039   9.796   4.638   6.797  0.3690 -0.8440  0.8978
  749MOL0     C 1040   9.916   4.727   6.836  0.9226 -1.0057 -0.0679
  749MOL0     C 1041   9.917   4.761   6.983 -0.1972 -0.3392 -0.7176
  749MOL0     C 1042  10.030   4.852   7.040 -0.7787 -0.0061  0.6312
  749MOL0     C 1043  10.031   4.975   6.963 -0.3377 -0.6202 -0.1430
  749MOL0     C 1044  10.009   5.083   6.925 -0.3486  0.6658  0.1457
  749MOL0     C 1045   9.773   4.283   6.848 -0.7029  0.0414 -0.7662
  749MOL0     C 1046   9.693   4.181   6.901  0.4958 -0.2066  0.2334
  749MOL0     C 1047   9.757   4.048   6.938  0.8086  0.7856  0.0951
  749MOL0     H 1048   9.367   3.941   6.683 -2.3692  0.6001 -0.4697
  749MOL0     H 1049   9.205   3.765   6.619  3.4012 -1.4704 -1.1714
  749MOL0     H 1050   9.208   3.421   6.875 -0.8085 -0.1676  1.6299
  749MOL0     H 1051   9.052   3.449   6.916 -1.3500  3.4473 -1.1489
  749MOL0     H 1052   8.981   3.341   6.701  0.3612  0.4786 -1.0265
  749MOL0     H 1053   9.088   3.236   6.794 -0.7467 -1.0379 -0.5155
  749MOL0     H 1054   9.273   3.288   6.645 -1.3307 -1.5701  0.0064
  749MOL0     H 1055   9.193   3.416   6.568  0.2407 -0.1138 -0.7393
  749MOL0     H 1056   9.014   3.242   6.497  0.6469 -2.2241 -4.1044
  749MOL0     H 1057   9.184   3.208   6.448  0.1226  1.5471  0.5993
  749MOL0     H 1058   9.209   3.056   6.636 -0.1754 -2.3074  0.2727
  749MOL0     H 1059   9.040   3.081   6.671  2.2609 -4.4624  2.5739
  749MOL0     H 1060   8.986   3.018   6.418 -1.4205 -1.3176 -0.1785
  749MOL0     H 1061   9.155   2.975   6.403 -2.4005 -1.2315 -2.5676
  749MOL0     H 1062   8.968   2.792   6.452  1.8109 -3.2279 -0.1226
  749MOL0     H 1063   8.947   2.881   6.601  1.1003  1.6589 -0.3755
  749MOL0     H 1064   9.237   2.788   6.527  1.2962  0.4962  1.4918
  749MOL0     H 1065   9.185   2.804   6.680  3.4212  2.1489 -2.0359
  749MOL0     H 1066   8.960   2.661   6.763 -0.4707 -0.9629  1.3045
  749MOL0     H 1067   8.887   2.361   6.799  3.1401 -2.7918 -0.2210
  749MOL0     H 1068   8.803   2.421   6.658  2.2128  2.1754 -4.2979
  749MOL0     H 1069   8.784   2.179   6.645 -0.9049  1.3656 -1.8464
  749MOL0     H 1070   8.912   2.233   6.535  1.8757  0.1236  0.5476
  749MOL0     H 1071   8.976   2.153   6.824  4.2477  1.3354 -0.2241
  749MOL0     H 1072   9.088   2.192   6.708 -0.0672  0.4368 -1.3170
  749MOL0     H 1073   9.002   1.989   6.567  1.6488 -0.8513  0.6750
  749MOL0     H 1074   8.924   1.935   6.707 -1.9287  0.5284 -3.2238
  749MOL0     H 1075   9.370   1.995   6.827  1.0640  0.1297  2.2490
  749MOL0     H 1076   9.414   2.002   7.063  0.7456 -0.8572  2.8557
  749MOL0     H 1077   8.997   1.778   7.520 -2.3310  0.9414  1.8788
  749MOL0     H 1078   8.970   1.811   7.746  0.2004 -0.2059 -0.1547
  749MOL0     H 1079   8.996   2.126   7.909  0.5952  0.6906  3.2195
  749MOL0     H 1080   8.954   1.950   7.932 -0.0893 -0.4712 -1.5997
  749MOL0     H 1081   8.971   2.010   8.162  1.0260 -0.3114 -0.1923
  749MOL0     H 1082   9.144   2.026   8.145 -0.3840 -2.5562 -0.3215
  749MOL0     H 1083   9.123   2.251   8.078  2.2736 -3.8487  0.1732
  749MOL0     H 1084   8.943   2.259   8.092  0.4094 -0.0193  0.0160
  749MOL0     H 1085   9.118   2.171   8.326 -1.9874 -2.6303  0.4341
  749MOL0     H 1086   8.950   2.163   8.318  0.4973  1.9851  2.4257
  749MOL0     H 1087   8.926   2.411   8.301 -1.1399 -2.7536 -0.8515
  749MOL0     H 1088   9.104   2.434   8.320  0.0101  1.3173  4.8573
  749MOL0     H 1089   8.914   2.420   8.516 -0.3954 -2.3497  1.5503
  749MOL0     H 1090   8.984   2.263   8.527 -0.9567  0.5283  1.6347
  749MOL0     H 1091   9.162   2.519   8.552 -0.5742  0.5806  0.7879
  749MOL0     H 1092   9.211   2.352   8.545 -1.6296 -0.0899 -2.1160
  749MOL0     H 1093   9.012   2.487   8.732  0.5850 -0.4577  3.1740
  749MOL0     H 1094   9.050   2.316   8.752 -1.9336  2.3471  5.9115
  749MOL0     H 1095   9.339   2.037   7.763 -1.2301 -0.3168  3.4667
  749MOL0     H 1096   9.331   2.041   7.503  0.4599 -0.4813  0.5100
  749MOL0     H 1097   9.007   1.898   7.133 -2.6225 -1.3278 -3.2483
  749MOL0     H 1098   8.969   1.868   6.909  0.8512  0.5360 -2.2887
  749MOL0     H 1099   9.229   3.616   7.026 -0.1147 -4.1618 -1.8725
  749MOL0     H 1100   9.383   3.787   7.073  1.1992 -2.8316 -0.5958
  749MOL0     H 1101   9.410   4.365   6.941 -0.8388  0.1586 -1.9540
  749MOL0     H 1102   9.564   4.539   6.881 -0.6786 -0.0788  1.1995
  749MOL0     H 1103   9.710   4.678   6.853 -0.5797 -0.1511 -0.9507
  749MOL0     H 1104   9.770   4.647   6.691 -0.5252  1.3630  1.2482
  749MOL0     H 1105   9.911   4.822   6.783 -0.5628  0.2008  2.0901
  749MOL0     H 1106  10.005   4.672   6.804  0.5237 -0.4053 -2.4102
  749MOL0     H 1107   9.905   4.670   7.044 -1.0606  1.6550  2.3577
  749MOL0     H 1108   9.827   4.816   7.012 -0.4309 -1.0105 -0.1310
  749MOL0     H 1109  10.016   4.872   7.147  1.9212 -2.2694  1.5035
  749MOL0     H 1110  10.125   4.801   7.028 -1.0058  0.0193 -1.5962
  749MOL0     H 1111   9.977   5.185   6.913 -1.4813  0.4072  0.7944
  749MOL0     H 1112   9.873   4.266   6.809 -1.1085 -1.6803 -1.1569
  749MOL0     H 1113   9.735   3.981   6.854  1.3646  0.5165  0.1634
  749MOL0     H 1114   9.866   4.047   6.937  0.8173 -1.3301 -0.1715
  749MOL0     H 1115   9.718   4.007   7.032 -0.0104  1.3515  0.0124
  750MOL0     O 1116   0.503   7.465   5.906  0.2915  0.6245 -0.2970
  750MOL0     C 1117   0.406   7.542   5.925  0.8990 -0.2661 -0.1113
  750MOL0     O 1118   0.362   7.581   6.050 -0.2624  0.0229 -0.2993
  750MOL0     C 1119   0.430   7.516   6.155 -0.6645 -0.1139 -0.2712
  750MOL0     C 1120   0.558   7.572   6.192  0.6106 -0.4779  0.3844
  750MOL0     C 1121   0.623   7.505   6.291 -1.1099 -0.4362  0.7619
  750MOL0     C 1122   0.576   7.387   6.350 -0.2737 -0.4487 -0.2073
  750MOL0     O 1123   0.658   7.341   6.442 -0.5543 -0.5095  0.4842
  750MOL0     C 1124   0.643   7.208   6.496 -0.4265 -0.4349  0.3254
  750MOL0     C 1125   0.736   7.183   6.615 -0.0649 -0.8295  0.1326
  750MOL0     C 1126   0.697   7.262   6.747 -0.7087  0.6251  0.0482
  750MOL0     C 1127   0.566   7.192   6.797  0.4889  0.3382  0.6195
  750MOL0     C 1128   0.514   7.253   6.936  0.9846  0.6613  0.8081
  750MOL0     C 1129   0.371   7.196   6.966  0.1693  1.3957  0.4262
  750MOL0     C 1130   0.295   7.282   7.064  0.2874  0.0370 -0.7951
  750MOL0     C 1131   0.156   7.223   7.100 -0.5696 -1.4092  0.9237
  750MOL0     N 1132   0.072   7.312   7.188  0.3478  0.1543 -1.1033
  750MOL0     C 1133   0.112   7.357   7.312  0.3954  0.1950 -0.0275
  750MOL0     C 1134   0.030   7.467   7.336  0.2362  0.2881 -0.2410
  750MOL0     C 1135   0.039   7.551   7.457  0.5997  0.3517  0.0574
  750MOL0     C 1136   0.175   7.623   7.481 -0.5028  0.5182  0.1168
  750MOL0     C 1137   0.135   7.754   7.557 -0.5439 -0.1122 -0.1832
  750MOL0     C 1138   0.089   7.726   7.698 -0.2761  0.3654 -0.0978
  750MOL0     O 1139   0.171   7.631   7.767 -0.3398 -0.3448 -0.3405
  750MOL0     C 1140   0.144   7.621   7.907  0.2680 -0.1982  1.2444
  750MOL0     C 1141   0.022   7.635   7.962 -0.2619  0.7945 -1.2043
  750MOL0     C 1142  -0.007   7.617   8.095  0.5073 -0.0931  0.3310
  750MOL0     C 1143   0.105   7.591   8.186  0.2780  0.3406  0.4665
  750MOL0     C 1144   0.088   7.588   8.331 -0.2874 -0.3174  0.4556
  750MOL0     O 1145  -0.029   7.636   8.383 -0.2139  0.1021  0.0517
  750MOL0     C 1146  -0.040   7.619   8.516  0.3646  0.2074 -0.1908
  750MOL0     C 1147  -0.057   7.491   8.571 -0.2144 -0.5642 -0.4259
  750MOL0     C 1148  -0.061   7.479   8.710  0.3436  0.0189  0.0943
  750MOL0     C 1149  -0.050   7.587   8.796  0.0036  0.0153  0.1687
  750MOL0     O 1150  -0.042   7.577   8.937  0.5644 -0.5158 -0.0113
  750MOL0     C 1151  -0.116   7.675   9.014  0.8490 -0.2462 -1.1920
  750MOL0     C 1152  -0.089   7.672   9.164  0.1552 -0.5146  0.3980
  750MOL0     C 1153  -0.188   7.762   9.231 -0.0152 -0.8151 -0.0635
  750MOL0     C 1154  -0.165   7.812   9.365 -0.5902 -0.2166 -0.3638
  750MOL0     C 1155  -0.269   7.912   9.409  1.2725  1.3087  0.1098
  750MOL0     C 1156  -0.251   7.943   9.560 -1.0260  1.1207  0.2883
  750MOL0     C 1157  -0.328   8.067   9.600 -0.7347 -0.1044  0.3336
  750MOL0     C 1158  -0.331   8.088   9.756  0.6879  0.1272 -0.2791
  750MOL0    Cl 1159  -0.166   8.064   9.833 -0.1682  0.3709 -0.6992
  750MOL0     C 1160  -0.035   7.714   8.734 -0.7635  0.5437  0.1901
  750MOL0     C 1161  -0.035   7.728   8.599  0.3740  0.0812  0.9123
  750MOL0     O 1162   0.186   7.551   8.396  0.1656 -0.5032  0.1516
  750MOL0     C 1163   0.234   7.573   8.128  0.4158 -0.4258 -0.4782
  750MOL0     C 1164   0.250   7.591   7.995 -0.7463  0.5066  0.6985
  750MOL0     N 1165  -0.048   7.485   7.226  0.1846  0.6080  0.3955
  750MOL0     N 1166  -0.027   7.399   7.143 -0.4676 -0.0695  1.1469
  750MOL0     C 1167   0.447   7.343   6.313 -0.2972 -0.3115 -0.2175
  750MOL0     C 1168   0.372   7.404   6.218 -0.2806 -0.9946  0.4900
  750MOL0     C 1169   0.357   7.603   5.803 -0.4514 -0.5881  0.3544
  750MOL0     C 1170   0.295   7.724   5.818 -0.5626 -1.1419  0.1433
  750MOL0     C 1171   0.248   7.800   5.715  0.7062  0.4658 -1.2169
  750MOL0     C 1172   0.267   7.761   5.586 -0.2601 -0.6274 -0.1750
  750MOL0     O 1173   0.206   7.835   5.484  0.5538  0.5388  0.3058
  750MOL0     C 1174   0.135   7.952   5.506  0.0527 -0.8305 -0.2918
  750MOL0     C 1175   0.103   8.023   5.371  0.3606 -0.2854  0.4839
  750MOL0     C 1176   0.217   8.024   5.271 -0.5338  0.3984 -0.0858
  750MOL0     C 1177   0.337   8.103   5.325  0.1930  0.6902  0.4985
  750MOL0     C 1178   0.430   8.114   5.214 -0.1168 -0.4929  0.3327
  750MOL0     C 1179   0.493   8.124   5.115 -0.3550  0.5463  0.0391
  750MOL0     C 1180   0.335   7.639   5.562  1.2070  0.3732 -0.1703
  750MOL0     C 1181   0.376   7.559   5.665  0.5318  0.7216  0.7696
  750MOL0     C 1182   0.436   7.426   5.628 -0.2161  0.0954  0.7587
  750MOL0     H 1183   0.575   7.670   6.147 -0.9900  0.3042  1.4029
  750MOL0     H 1184   0.723   7.543   6.309 -0.5248 -2.0453  1.0005
  750MOL0     H 1185   0.541   7.183   6.527 -0.2051  1.2561  2.6705
  750MOL0     H 1186   0.678   7.130   6.428  0.2472  0.5204 -0.4497
  750MOL0     H 1187   0.830   7.226   6.578 -1.1855  1.1219 -0.5833
  750MOL0     H 1188   0.750   7.078   6.641 -0.9774 -1.1720 -0.7039
  750MOL0     H 1189   0.705   7.368   6.723 -0.9373  0.9280  1.2359
  750MOL0     H 1190   0.775   7.245   6.822 -2.2556  1.5647  1.9846
  750MOL0     H 1191   0.489   7.214   6.723  1.6004  2.2443 -0.0420
  750MOL0     H 1192   0.586   7.085   6.810  0.0402  0.0108 -1.1531
  750MOL0     H 1193   0.580   7.240   7.022 -1.0997  2.8008  2.8427
  750MOL0     H 1194   0.510   7.361   6.926 -0.4501  0.5553 -0.0868
  750MOL0     H 1195   0.318   7.192   6.870  0.6952 -1.1495  0.1726
  750MOL0     H 1196   0.379   7.093   7.001  2.2688  1.6968  0.9806
  750MOL0     H 1197   0.287   7.384   7.026  1.4232 -0.3789 -2.2860
  750MOL0     H 1198   0.347   7.295   7.159 -0.2699  2.5282 -0.7737
  750MOL0     H 1199   0.106   7.211   7.003  0.9293  4.3286 -0.9436
  750MOL0     H 1200   0.168   7.123   7.143 -0.4650 -1.5677  0.5349
  750MOL0     H 1201   0.197   7.322   7.370 -1.0523 -0.9288  1.5137
  750MOL0     H 1202  -0.037   7.626   7.433 -1.0068 -0.5012  2.2208
  750MOL0     H 1203   0.003   7.511   7.552  0.7227  1.1669  0.4563
  750MOL0     H 1204   0.236   7.552   7.538 -2.0702 -1.5769 -0.7080
  750MOL0     H 1205   0.224   7.649   7.387 -0.1428 -1.5641 -0.3126
  750MOL0     H 1206   0.068   7.823   7.505 -2.9325 -1.4050  1.0172
  750MOL0     H 1207   0.234   7.800   7.568  0.7184 -2.7607  0.2451
  750MOL0     H 1208  -0.015   7.691   7.690 -0.2750  0.1733  0.6770
  750MOL0     H 1209   0.095   7.822   7.750 -0.0101  0.1699  0.2379
  750MOL0     H 1210  -0.070   7.646   7.906 -1.1266  0.4677  0.0912
  750MOL0     H 1211  -0.106   7.617   8.140  0.2193  1.2331 -0.2475
  750MOL0     H 1212  -0.055   7.407   8.503  0.7694  2.0655 -3.9800
  750MOL0     H 1213  -0.055   7.393   8.776  1.1970  0.3005  0.4095
  750MOL0     H 1214  -0.107   7.779   8.979 -0.8094  0.6119  0.7824
  750MOL0     H 1215  -0.221   7.653   8.991  0.9536 -0.8854 -1.0787
  750MOL0     H 1216  -0.100   7.568   9.196  2.8333 -1.6304 -1.8710
  750MOL0     H 1217   0.014   7.699   9.191  1.4463 -3.0807 -1.4665
  750MOL0     H 1218  -0.196   7.840   9.155 -0.1086 -0.2942  0.4702
  750MOL0     H 1219  -0.286   7.714   9.236 -1.0350  1.1002 -0.7700
  750MOL0     H 1220  -0.072   7.868   9.376 -1.4758  1.0852  0.8249
  750MOL0     H 1221  -0.163   7.727   9.433 -0.0915 -1.2328 -1.6027
  750MOL0     H 1222  -0.368   7.867   9.403  1.5457  0.5632  1.0756
  750MOL0     H 1223  -0.268   8.001   9.344  1.2791 -0.0073 -1.7881
  750MOL0     H 1224  -0.290   7.855   9.612 -1.8650  0.7900 -0.8381
  750MOL0     H 1225  -0.144   7.960   9.576 -1.0026 -0.1108  1.5924
  750MOL0     H 1226  -0.425   8.079   9.551 -0.0295 -0.8591 -1.3513
  750MOL0     H 1227  -0.275   8.155   9.561  1.0948 -1.2508  0.1139
  750MOL0     H 1228  -0.376   8.185   9.781  1.0002  0.0031  0.8095
  750MOL0     H 1229  -0.398   8.011   9.794 -4.4196  4.1144 -0.0562
  750MOL0     H 1230  -0.008   7.803   8.790  2.7293 -0.5847  0.4829
  750MOL0     H 1231  -0.025   7.823   8.548  1.8719 -1.0724 -1.0966
  750MOL0     H 1232   0.325   7.541   8.177  1.1392  0.8457 -0.9255
  750MOL0     H 1233   0.344   7.577   7.943 -2.2921  1.3658 -2.6373
  750MOL0     H 1234   0.413   7.255   6.366 -0.6748  0.5007  0.9247
  750MOL0     H 1235   0.269   7.383   6.190 -0.4564  0.5012 -0.0692
  750MOL0     H 1236   0.292   7.760   5.920  2.0331 -1.3626  0.3763
  750MOL0     H 1237   0.199   7.889   5.754 -0.5773 -2.0839  4.0073
  750MOL0     H 1238   0.195   8.024   5.561  0.0009  0.1200 -1.4582
  750MOL0     H 1239   0.040   7.935   5.559 -0.2031  0.3794 -0.3458
  750MOL0     H 1240   0.075   8.128   5.387 -0.7940 -0.3473 -0.8881
  750MOL0     H 1241   0.020   7.981   5.314  1.0678  2.3372 -2.7784
  750MOL0     H 1242   0.185   8.062   5.174 -1.8881  0.0239  0.1988
  750MOL0     H 1243   0.250   7.922   5.250  0.5418  0.4584  1.1469
  750MOL0     H 1244   0.306   8.207   5.341 -0.6891  0.4929  0.1631
  750MOL0     H 1245   0.388   8.049   5.405  1.2799  1.4584  0.3562
  750MOL0     H 1246   0.565   8.096   5.041  1.7340  3.3512  0.8462
  750MOL0     H 1247   0.335   7.614   5.456 -2.2277  2.4109 -0.7989
  750MOL0     H 1248   0.418   7.400   5.523  0.7734 -0.9585  0.8237
  750MOL0     H 1249   0.544   7.420   5.643 -0.1529 -0.8973  0.0424
  750MOL0     H 1250   0.380   7.357   5.692 -1.0728  2.8670  3.2014
  751MOL0     O 1251   3.918   0.650   5.807 -0.0878 -0.1123  0.7331
  751MOL0     C 1252   3.856   0.627   5.704  0.6457  0.5012 -0.4594
  751MOL0     O 1253   3.862   0.688   5.582  0.8477 -0.1452 -0.2000
  751MOL0     C 1254   3.945   0.793   5.561 -0.2587 -0.0182  0.8370
  751MOL0     C 1255   3.878   0.920   5.565  1.1016 -0.4479 -0.7011
  751MOL0     C 1256   3.950   1.036   5.538 -0.2314  0.5611 -0.5436
  751MOL0     C 1257   4.090   1.030   5.520 -0.4029 -0.2891 -0.4118
  751MOL0     O 1258   4.160   1.152   5.512  0.9584  0.1726 -0.3106
  751MOL0     C 1259   4.290   1.147   5.450  0.4797 -0.4903  0.1469
  751MOL0     C 1260   4.341   1.289   5.441 -0.4592 -0.2990 -0.3315
  751MOL0     C 1261   4.451   1.309   5.343 -0.4768 -0.2349 -0.1914
  751MOL0     C 1262   4.562   1.199   5.350 -0.5887  0.8571 -0.0387
  751MOL0     C 1263   4.693   1.214   5.270 -0.5270 -0.5683 -0.7824
  751MOL0     C 1264   4.678   1.231   5.121  1.2367 -0.0710  0.6844
  751MOL0     C 1265   4.588   1.123   5.045  0.3165  1.2641  0.8567
  751MOL0     C 1266   4.629   1.130   4.890  0.2390 -0.0265 -0.1407
  751MOL0     N 1267   4.551   1.032   4.818  0.1556  0.2657 -0.8683
  751MOL0     C 1268   4.413   1.039   4.808  1.9260 -0.9693  0.5732
  751MOL0     C 1269   4.375   0.921   4.759  0.4483 -0.1946  0.4645
  751MOL0     C 1270   4.231   0.892   4.738  0.0075  0.5599  0.6686
  751MOL0     C 1271   4.159   0.842   4.864  0.3740 -0.3961  0.0168
  751MOL0     C 1272   4.005   0.844   4.856  0.3178  0.1833  0.6061
  751MOL0     C 1273   3.940   0.743   4.756 -0.4637 -0.7764 -0.2366
  751MOL0     O 1274   3.864   0.811   4.650  0.6644 -0.0726  0.7529
  751MOL0     C 1275   3.803   0.740   4.557  0.1810  0.5500  0.9208
  751MOL0     C 1276   3.752   0.802   4.444 -0.0569  0.2137  0.5317
  751MOL0     C 1277   3.682   0.729   4.343 -0.3266  0.1627 -0.5329
  751MOL0     C 1278   3.652   0.593   4.364  0.7759  0.0932  0.4914
  751MOL0     C 1279   3.578   0.521   4.270  0.5808 -0.8844 -0.2116
  751MOL0     O 1280   3.596   0.537   4.137  0.1144  0.3150  0.7872
  751MOL0     C 1281   3.523   0.469   4.040  0.1309 -1.0309 -0.5323
  751MOL0     C 1282   3.392   0.507   4.005 -0.2454  0.9189 -0.8942
  751MOL0     C 1283   3.328   0.445   3.897  0.1311 -0.5369  0.4558
  751MOL0     C 1284   3.383   0.337   3.827  0.1146  0.0690  0.0341
  751MOL0     O 1285   3.303   0.275   3.727 -0.2561  0.2266 -0.5857
  751MOL0     C 1286   3.316   0.130   3.712 -0.4760 -0.0686 -0.7053
  751MOL0     C 1287   3.195   0.090   3.631  0.0721 -1.2424  0.5413
  751MOL0     C 1288   3.186  -0.051   3.592 -0.7891 -0.2555 -0.4135
  751MOL0     C 1289   3.108  -0.090   3.472  1.1377  0.0932 -0.2840
  751MOL0     C 1290   2.959  -0.074   3.471 -0.0934  0.0835  0.5477
  751MOL0     C 1291   2.909   0.068   3.440  0.4903 -0.1901 -0.2402
  751MOL0     C 1292   2.762   0.071   3.393  0.0180  0.3129  0.5723
  751MOL0     C 1293   2.699   0.209   3.391 -0.1794  0.0901 -0.3616
  751MOL0    Cl 1294   2.787   0.323   3.288  0.6577  0.1248 -0.3206
  751MOL0     C 1295   3.519   0.297   3.871 -0.0197 -1.1917  0.1091
  751MOL0     C 1296   3.588   0.361   3.971  0.6751 -0.1794 -0.6149
  751MOL0     O 1297   3.487   0.454   4.325  0.1798  0.7036 -0.0699
  751MOL0     C 1298   3.707   0.532   4.481 -0.0361  0.2352  0.1301
  751MOL0     C 1299   3.774   0.607   4.571 -0.5104 -0.2389 -0.1119
  751MOL0     N 1300   4.485   0.837   4.748  1.0610 -0.1458 -0.7799
  751MOL0     N 1301   4.590   0.905   4.786  0.0033 -0.5679 -0.3862
  751MOL0     C 1302   4.149   0.905   5.506  0.2978 -0.7785  0.4171
  751MOL0     C 1303   4.077   0.784   5.530 -0.6266 -0.5330  0.6361
  751MOL0     C 1304   3.740   0.539   5.724  0.2038  0.1854  0.1492
  751MOL0     C 1305   3.621   0.577   5.673  1.1418  0.1678 -0.4753
  751MOL0     C 1306   3.504   0.497   5.694  0.0896 -0.8325 -0.5178
  751MOL0     C 1307   3.513   0.380   5.775 -0.1536 -1.3029 -0.1764
  751MOL0     O 1308   3.403   0.307   5.809  0.4363  0.3622 -0.5362
  751MOL0     C 1309   3.309   0.361   5.906  1.0273 -0.3340 -0.5405
  751MOL0     C 1310   3.208   0.249   5.949  0.3622 -0.8415  0.0326
  751MOL0     C 1311   3.116   0.215   5.824 -0.5124  0.2088 -0.5128
  751MOL0     C 1312   3.006   0.319   5.802  0.7377  0.3205 -0.0081
  751MOL0     C 1313   2.925   0.278   5.687  0.3991 -1.2706  0.0236
  751MOL0     C 1314   2.876   0.250   5.578  0.7296 -0.7529  0.3279
  751MOL0     C 1315   3.636   0.337   5.821 -0.0143 -0.0178  0.3456
  751MOL0     C 1316   3.746   0.416   5.794 -0.5652  0.3215 -0.2505
  751MOL0     C 1317   3.868   0.353   5.839  0.0280  0.4894 -0.4913
  751MOL0     H 1318   3.771   0.932   5.579  1.1669  1.9766 -1.7924
  751MOL0     H 1319   3.898   1.127   5.567 -0.0875 -0.6246  4.3225
  751MOL0     H 1320   4.365   1.096   5.511 -0.2821  0.2323  1.7621
  751MOL0     H 1321   4.283   1.099   5.352 -0.3484 -0.1711  0.0406
  751MOL0     H 1322   4.383   1.328   5.535  0.2619  0.5821 -0.9980
  751MOL0     H 1323   4.262   1.360   5.419 -0.0526  0.5871  0.9268
  751MOL0     H 1324   4.501   1.406   5.350 -1.5220  0.4581 -1.7903
  751MOL0     H 1325   4.411   1.311   5.241  1.1369  2.8176 -0.8914
  751MOL0     H 1326   4.604   1.204   5.451 -0.2950  0.6434 -0.1476
  751MOL0     H 1327   4.535   1.095   5.331  1.1397  0.0963  1.3435
  751MOL0     H 1328   4.745   1.300   5.313  1.9604 -3.1177  1.7080
  751MOL0     H 1329   4.757   1.129   5.293 -1.5311 -1.6618 -1.8913
  751MOL0     H 1330   4.637   1.330   5.100 -0.6058 -0.7429  0.9521
  751MOL0     H 1331   4.778   1.222   5.077  0.2361 -0.8266 -1.6488
  751MOL0     H 1332   4.480   1.139   5.054  0.7243  3.4623  2.6617
  751MOL0     H 1333   4.601   1.022   5.084  0.9763  0.2103 -1.8770
  751MOL0     H 1334   4.603   1.225   4.845 -1.5241 -0.9911 -1.2816
  751MOL0     H 1335   4.735   1.105   4.879  0.6510  2.1848 -1.8231
  751MOL0     H 1336   4.343   1.116   4.837  2.9378 -0.1638  0.9285
  751MOL0     H 1337   4.178   0.981   4.703  0.4472  0.6994  0.3592
  751MOL0     H 1338   4.212   0.820   4.658 -0.3811 -0.9476  2.0583
  751MOL0     H 1339   4.198   0.740   4.872  0.6497 -0.3337 -0.4784
  751MOL0     H 1340   4.194   0.905   4.947  1.6454 -0.3430 -0.5305
  751MOL0     H 1341   3.979   0.949   4.840  1.8300  0.3424 -1.1632
  751MOL0     H 1342   3.956   0.830   4.953 -3.4463 -1.0981 -1.3045
  751MOL0     H 1343   3.880   0.681   4.822 -0.8502  1.4764  1.6753
  751MOL0     H 1344   4.027   0.682   4.730  1.5392  0.3862  3.1063
  751MOL0     H 1345   3.772   0.905   4.416  2.7736 -0.5004 -0.4261
  751MOL0     H 1346   3.633   0.772   4.256 -1.5220  0.4207  0.2407
  751MOL0     H 1347   3.339   0.579   4.067 -0.9914 -0.1369 -0.2795
  751MOL0     H 1348   3.228   0.486   3.887 -0.1723 -1.6919 -1.6952
  751MOL0     H 1349   3.409   0.112   3.658  1.6379  1.8125  2.0597
  751MOL0     H 1350   3.304   0.086   3.811  1.1371 -2.2536 -1.3994
  751MOL0     H 1351   3.114   0.129   3.694  1.1415  0.4680  0.9147
  751MOL0     H 1352   3.187   0.158   3.545 -3.1795 -1.3592  0.6007
  751MOL0     H 1353   3.282  -0.102   3.604 -1.7199 -1.6368  1.7658
  751MOL0     H 1354   3.134  -0.087   3.681  0.8321  1.4812  1.3481
  751MOL0     H 1355   3.141  -0.195   3.467 -0.7398 -0.7939  2.9905
  751MOL0     H 1356   3.154  -0.045   3.383  0.1646 -0.8629 -1.3085
  751MOL0     H 1357   2.915  -0.127   3.556 -0.7016 -0.9045 -0.3594
  751MOL0     H 1358   2.916  -0.138   3.394  2.4381  0.1023 -0.9916
  751MOL0     H 1359   2.913   0.137   3.524 -3.8849 -1.0323  0.9306
  751MOL0     H 1360   2.970   0.101   3.355  3.0774 -0.4123  1.4344
  751MOL0     H 1361   2.695   0.010   3.455 -0.8218  0.2269 -0.3908
  751MOL0     H 1362   2.769   0.028   3.292  1.6326  1.2011  0.2782
  751MOL0     H 1363   2.596   0.204   3.356 -0.6088  0.8290  0.7682
  751MOL0     H 1364   2.708   0.239   3.496 -0.0538 -0.4496 -0.2125
  751MOL0     H 1365   3.570   0.214   3.821  0.6678  1.5885 -4.4426
  751MOL0     H 1366   3.683   0.331   4.014 -0.2296  2.6522  4.0567
  751MOL0     H 1367   3.679   0.428   4.495 -0.7608  0.2916 -0.8395
  751MOL0     H 1368   3.807   0.546   4.654  0.5569  0.5754  0.0946
  751MOL0     H 1369   4.253   0.904   5.474 -0.0714  0.8747 -0.9495
  751MOL0     H 1370   4.121   0.685   5.518 -3.0167 -1.3693 -2.3146
  751MOL0     H 1371   3.610   0.673   5.623  1.6584  0.1686 -0.5834
  751MOL0     H 1372   3.410   0.525   5.647 -1.8401 -2.4784  2.0875
  751MOL0     H 1373   3.258   0.449   5.867 -0.8788 -0.5474  1.2999
  751MOL0     H 1374   3.370   0.395   5.991 -3.0344  1.4624  1.9309
  751MOL0     H 1375   3.142   0.280   6.030  2.2001 -1.1144  1.7034
  751MOL0     H 1376   3.268   0.162   5.977 -1.0452 -1.8164  0.1245
  751MOL0     H 1377   3.076   0.116   5.849 -1.8163  0.2285 -2.3284
  751MOL0     H 1378   3.175   0.209   5.733  2.0053  0.4454  1.0237
  751MOL0     H 1379   2.933   0.318   5.885  0.0308 -2.7435 -0.5592
  751MOL0     H 1380   3.045   0.421   5.791  0.4263  0.3377 -1.0250
  751MOL0     H 1381   2.841   0.231   5.479 -2.5001 -1.2893  1.4525
  751MOL0     H 1382   3.646   0.254   5.890 -1.2403 -1.6963 -1.3841
  751MOL0     H 1383   3.946   0.349   5.762  0.8027  1.7515  0.2046
  751MOL0     H 1384   3.913   0.409   5.922 -1.6032 -0.0975  0.8503
  751MOL0     H 1385   3.843   0.254   5.879 -4.4300  0.1118 -3.4978
  752MOL0     O 1386   1.964   8.649   2.360  0.8748  0.1383  0.3805
  752MOL0     C 1387   1.844   8.607   2.362 -0.1453  0.1443 -0.9166
  752MOL0     O 1388   1.794   8.513   2.448  0.4153  0.2771  0.5362
  752MOL0     C 1389   1.860   8.471   2.569  0.3683 -0.5078  0.1112
  752MOL0     C 1390   1.839   8.341   2.610  0.6231  0.8489  0.4845
  752MOL0     C 1391   1.915   8.280   2.707  0.0975  0.0218  0.0858
  752MOL0     C 1392   2.012   8.351   2.772  0.0484  0.5186  0.8114
  752MOL0     O 1393   2.082   8.286   2.878 -0.5297 -0.1395 -0.2662
  752MOL0     C 1394   2.098   8.343   3.012  0.3864  0.4268 -0.3891
  752MOL0     C 1395   2.098   8.245   3.126  0.7003  0.3267  0.8556
  752MOL0     C 1396   2.112   8.337   3.250  0.1733  0.4475  0.2737
  752MOL0     C 1397   2.137   8.258   3.380  0.0245 -0.2359  0.3029
  752MOL0     C 1398   2.117   8.333   3.513  0.7824 -0.2533  0.5336
  752MOL0     C 1399   2.143   8.248   3.637 -0.6314 -0.1000  0.6084
  752MOL0     C 1400   2.039   8.130   3.645 -0.8903 -0.3937 -0.2090
  752MOL0     C 1401   2.016   8.075   3.783 -0.3304 -0.2867 -0.5641
  752MOL0     N 1402   2.142   8.000   3.817 -0.1161  0.2017 -1.4620
  752MOL0     C 1403   2.255   8.064   3.872  0.1336  0.7372 -0.9349
  752MOL0     C 1404   2.349   7.958   3.882  2.0243  0.9981  0.5697
  752MOL0     C 1405   2.489   7.975   3.924  0.5498  1.0980 -0.3535
  752MOL0     C 1406   2.499   7.976   4.076  1.0142 -0.7928  0.5514
  752MOL0     C 1407   2.642   7.960   4.132 -0.3310 -0.2047  0.4877
  752MOL0     C 1408   2.641   7.957   4.285  0.2503  0.4599 -0.2783
  752MOL0     O 1409   2.768   7.912   4.315 -0.7465  0.2503  0.4249
  752MOL0     C 1410   2.862   7.980   4.380 -0.8536  0.0543 -0.0507
  752MOL0     C 1411   2.842   8.061   4.491 -0.2751 -0.3163  0.8464
  752MOL0     C 1412   2.942   8.133   4.554 -0.2936 -0.8253 -0.4936
  752MOL0     C 1413   3.074   8.124   4.508 -1.5285 -0.0541 -0.0092
  752MOL0     C 1414   3.169   8.218   4.573 -0.1525 -0.6242  0.7209
  752MOL0     O 1415   3.123   8.301   4.677 -1.2172 -0.5839  0.0890
  752MOL0     C 1416   3.209   8.379   4.756  0.1814 -0.0823  0.1817
  752MOL0     C 1417   3.339   8.332   4.792  0.5201 -0.7822 -0.2650
  752MOL0     C 1418   3.419   8.415   4.877 -0.1479  0.2015 -0.1272
  752MOL0     C 1419   3.375   8.541   4.922  0.2194 -0.7395  0.1333
  752MOL0     O 1420   3.455   8.614   5.004  0.3727 -0.6549 -0.7781
  752MOL0     C 1421   3.505   8.729   4.941 -0.2247 -0.3489  0.5326
  752MOL0     C 1422   3.616   8.800   5.021  0.5652  0.3049 -0.1760
  752MOL0     C 1423   3.580   8.905   5.130  0.0163  0.3269 -0.3715
  752MOL0     C 1424   3.703   8.913   5.216  0.4254  0.2008 -1.2709
  752MOL0     C 1425   3.683   8.997   5.346  0.3582 -0.2707  0.4444
  752MOL0     C 1426   3.699   9.144   5.308 -0.2239 -0.7861  0.0304
  752MOL0     C 1427   3.661   9.231   5.431  0.2126 -0.4434  0.1402
  752MOL0     C 1428   3.517   9.264   5.451  0.1481 -0.0797  0.6441
  752MOL0    Cl 1429   3.503   9.322   5.612 -0.2501  0.0010  0.4582
  752MOL0     C 1430   3.240   8.585   4.880  0.0470  0.3466  0.0658
  752MOL0     C 1431   3.157   8.503   4.802 -1.4263  0.4295  0.2002
  752MOL0     O 1432   3.285   8.210   4.530  0.1698 -0.2285 -0.0237
  752MOL0     C 1433   3.097   8.033   4.403  0.4623  0.7068  0.6522
  752MOL0     C 1434   2.995   7.964   4.340  0.8842 -0.6559  0.6099
  752MOL0     N 1435   2.286   7.840   3.829 -0.0743 -0.2292  0.1904
  752MOL0     N 1436   2.171   7.873   3.783  0.7666  0.5389  0.6469
  752MOL0     C 1437   2.024   8.494   2.744 -0.0437  0.8213 -0.3691
  752MOL0     C 1438   1.949   8.553   2.642 -0.0447 -0.1818 -0.0719
  752MOL0     C 1439   1.754   8.667   2.259 -0.3061 -0.4006  0.4768
  752MOL0     C 1440   1.811   8.672   2.127  0.7339  0.8360  0.0636
  752MOL0     C 1441   1.733   8.726   2.024  0.6283 -0.9052 -0.2025
  752MOL0     C 1442   1.601   8.772   2.041 -0.4035  0.6838  0.3182
  752MOL0     O 1443   1.529   8.841   1.945  0.2646  0.4280  0.1097
  752MOL0     C 1444   1.522   8.802   1.807 -0.5209 -0.4284 -0.5000
  752MOL0     C 1445   1.489   8.654   1.787  0.0133 -0.6683 -0.3444
  752MOL0     C 1446   1.348   8.630   1.834  0.4928 -0.1459 -0.7267
  752MOL0     C 1447   1.326   8.477   1.827  0.6963  0.0370  0.0302
  752MOL0     C 1448   1.181   8.447   1.845  1.0247  0.0408 -0.4773
  752MOL0     C 1449   1.064   8.439   1.865  0.2064  0.0829  0.1816
  752MOL0     C 1450   1.548   8.772   2.167 -0.9834  0.5737  0.0085
  752MOL0     C 1451   1.621   8.716   2.278  0.1166  0.0632 -0.0889
  752MOL0     C 1452   1.555   8.751   2.409 -0.4073  0.5063  0.3008
  752MOL0     H 1453   1.768   8.285   2.550  1.7170 -0.5782  0.4611
  752MOL0     H 1454   1.896   8.175   2.724  0.6256 -0.5272 -2.3643
  752MOL0     H 1455   2.180   8.415   3.009 -2.3163  3.7027 -1.3194
  752MOL0     H 1456   2.018   8.416   3.025 -0.4282 -0.6490  0.8867
  752MOL0     H 1457   2.181   8.174   3.124  0.1922 -0.2819  0.9592
  752MOL0     H 1458   2.004   8.190   3.127  1.0603 -0.2952  1.7678
  752MOL0     H 1459   2.017   8.389   3.261  1.5630  3.2614 -0.0708
  752MOL0     H 1460   2.185   8.419   3.257 -1.8978  2.2339  2.7039
  752MOL0     H 1461   2.061   8.180   3.368  0.8968 -1.1493  0.5417
  752MOL0     H 1462   2.235   8.210   3.384 -0.3691 -1.4692 -2.3621
  752MOL0     H 1463   2.187   8.417   3.511 -0.7323  1.0580  0.1916
  752MOL0     H 1464   2.019   8.381   3.521  1.2649  1.0824 -0.9060
  752MOL0     H 1465   2.248   8.220   3.652 -0.0090 -0.0515 -2.7887
  752MOL0     H 1466   2.122   8.306   3.727  1.5975  1.2864  0.3208
  752MOL0     H 1467   2.067   8.041   3.586  2.8707 -0.1006  0.8773
  752MOL0     H 1468   1.949   8.169   3.596 -1.0702  0.0396  0.4623
  752MOL0     H 1469   1.988   8.158   3.848 -2.4334 -0.4582 -1.1626
  752MOL0     H 1470   1.932   8.005   3.781  0.4713 -1.2703 -1.2387
  752MOL0     H 1471   2.271   8.152   3.933 -1.7841  0.1487  0.4994
  752MOL0     H 1472   2.550   7.893   3.885 -1.8258 -0.2868 -1.3829
  752MOL0     H 1473   2.527   8.072   3.893 -1.0502  1.7264 -0.4197
  752MOL0     H 1474   2.477   8.076   4.114 -0.7049 -0.2966 -1.5840
  752MOL0     H 1475   2.430   7.900   4.115 -1.1276  1.5992  1.7013
  752MOL0     H 1476   2.707   8.036   4.087  0.2725 -1.0232 -0.0628
  752MOL0     H 1477   2.678   7.859   4.106 -1.2280 -0.0663 -1.4725
  752MOL0     H 1478   2.569   7.892   4.335  1.7351 -0.4460  0.7962
  752MOL0     H 1479   2.630   8.057   4.328 -1.8917 -0.1116  0.6240
  752MOL0     H 1480   2.743   8.077   4.531 -0.2534 -1.5598  1.4448
  752MOL0     H 1481   2.925   8.190   4.645  2.5690 -0.1306 -0.3251
  752MOL0     H 1482   3.366   8.230   4.766  1.8689 -0.2988 -0.8466
  752MOL0     H 1483   3.504   8.359   4.917 -0.6032 -2.9409 -3.0796
  752MOL0     H 1484   3.537   8.706   4.839 -3.4030  0.3944 -0.7758
  752MOL0     H 1485   3.431   8.810   4.939  1.2189  1.0562  1.3954
  752MOL0     H 1486   3.679   8.718   5.056  0.9361 -1.0390 -3.6549
  752MOL0     H 1487   3.685   8.850   4.954  1.1708 -0.0207  0.1967
  752MOL0     H 1488   3.570   9.003   5.083 -3.4465 -1.5772 -4.3671
  752MOL0     H 1489   3.488   8.877   5.182  0.4037 -0.5639 -0.1454
  752MOL0     H 1490   3.781   8.966   5.159 -0.6359  2.0376 -1.0878
  752MOL0     H 1491   3.729   8.813   5.250 -1.3568 -0.0212 -0.4845
  752MOL0     H 1492   3.763   8.968   5.415  1.7683  2.2208 -0.0298
  752MOL0     H 1493   3.584   8.969   5.383 -0.9683  1.5575 -1.4747
  752MOL0     H 1494   3.804   9.171   5.294 -1.2486  5.9757  1.7801
  752MOL0     H 1495   3.639   9.179   5.224  0.2591 -1.2412 -0.5105
  752MOL0     H 1496   3.706   9.331   5.424  0.8494 -0.8331 -2.0629
  752MOL0     H 1497   3.697   9.182   5.522 -0.7354  1.6585  1.7444
  752MOL0     H 1498   3.484   9.332   5.372 -2.1513 -0.2771  1.3675
  752MOL0     H 1499   3.456   9.174   5.444 -0.9429  0.7724 -1.9101
  752MOL0     H 1500   3.201   8.680   4.914 -1.6481 -0.1076 -0.5154
  752MOL0     H 1501   3.062   8.549   4.778 -1.8445 -0.0301  0.9478
  752MOL0     H 1502   3.200   8.029   4.369  1.6153  0.4869  3.8555
  752MOL0     H 1503   3.003   7.903   4.251  0.4263 -0.0443  0.1390
  752MOL0     H 1504   2.097   8.541   2.809 -1.3888 -2.3719  3.8219
  752MOL0     H 1505   1.970   8.654   2.609 -2.8646  0.4541 -0.1048
  752MOL0     H 1506   1.909   8.633   2.104 -1.0916 -3.9733 -0.7590
  752MOL0     H 1507   1.778   8.742   1.927  1.7945  2.0175  0.7231
  752MOL0     H 1508   1.626   8.816   1.776 -0.1194 -1.3918  0.3530
  752MOL0     H 1509   1.459   8.869   1.747  0.5873 -1.0248 -2.4210
  752MOL0     H 1510   1.556   8.588   1.843 -1.6862 -2.0606  0.1493
  752MOL0     H 1511   1.492   8.627   1.682 -0.1632  1.2428 -0.8822
  752MOL0     H 1512   1.274   8.687   1.778 -0.0291 -0.5660 -0.4683
  752MOL0     H 1513   1.342   8.662   1.938  0.3462  1.7068 -1.2695
  752MOL0     H 1514   1.366   8.434   1.735  1.2568 -1.3102  0.8668
  752MOL0     H 1515   1.383   8.435   1.910  0.8148 -0.6344 -0.3911
  752MOL0     H 1516   0.962   8.420   1.890  0.9579 -0.6696  2.9095
  752MOL0     H 1517   1.443   8.794   2.176 -1.1178  0.2887 -0.8169
  752MOL0     H 1518   1.618   8.722   2.493 -1.5798 -2.3827  0.2954
  752MOL0     H 1519   1.532   8.858   2.410  0.4436  0.7017 -0.3977
  752MOL0     H 1520   1.458   8.700   2.415 -0.0575 -0.4158 -1.3612
  753MOL0     O 1521   0.625   6.838   2.589 -0.8702  0.2035 -1.2215
  753MOL0     C 1522   0.745   6.804   2.583  0.2680  0.8413 -0.3550
  753MOL0     O 1523   0.815   6.777   2.462  0.8433 -0.1001 -0.3130
  753MOL0     C 1524   0.728   6.763   2.359  0.2408 -0.0727  0.1881
  753MOL0     C 1525   0.694   6.646   2.297  0.1770 -0.1868 -0.2748
  753MOL0     C 1526   0.607   6.639   2.187  0.4268  0.3157 -0.1861
  753MOL0     C 1527   0.545   6.752   2.141 -0.2253  0.1984  0.8181
  753MOL0     O 1528   0.474   6.730   2.022  0.1346  0.0542 -0.3149
  753MOL0     C 1529   0.366   6.820   1.988  0.7935 -0.2257  0.5811
  753MOL0     C 1530   0.345   6.816   1.837 -0.0525 -0.1118 -0.4530
  753MOL0     C 1531   0.214   6.892   1.809  0.2270 -0.0405 -0.0921
  753MOL0     C 1532   0.199   7.040   1.846  0.3961 -0.3894 -0.0349
  753MOL0     C 1533   0.070   7.101   1.780 -0.0387  0.3153  0.9992
  753MOL0     C 1534   0.066   7.250   1.795 -0.5621  0.0953  0.8354
  753MOL0     C 1535  -0.058   7.303   1.737  0.3881 -1.0730  0.2809
  753MOL0     C 1536  -0.073   7.454   1.751  0.2013 -0.3325  0.5666
  753MOL0     N 1537  -0.020   7.511   1.873 -0.3864 -0.1432  0.4387
  753MOL0     C 1538  -0.077   7.553   1.991 -0.3113  0.4443 -0.5520
  753MOL0     C 1539   0.023   7.585   2.077 -0.8421 -0.2834 -0.2882
  753MOL0     C 1540   0.032   7.621   2.222  0.2031  0.5944 -0.3162
  753MOL0     C 1541  -0.025   7.497   2.298 -0.0381  0.2747  0.1736
  753MOL0     C 1542  -0.049   7.529   2.448  0.7758 -0.3163  0.7553
  753MOL0     C 1543  -0.073   7.398   2.532 -0.4181  1.4072 -0.3404
  753MOL0     O 1544  -0.164   7.318   2.462 -0.0640 -0.7098 -0.6980
  753MOL0     C 1545  -0.208   7.206   2.535 -0.4364  0.0392  0.5832
  753MOL0     C 1546  -0.338   7.201   2.571 -0.5256 -0.1193  0.6432
  753MOL0     C 1547  -0.391   7.099   2.646 -0.4475  0.1948 -0.6166
  753MOL0     C 1548  -0.300   7.001   2.701  0.3081  0.2019 -0.3137
  753MOL0     C 1549  -0.342   6.890   2.788 -0.9024  0.7325 -0.6972
  753MOL0     O 1550  -0.254   6.794   2.806  0.1699  0.2499 -0.4495
  753MOL0     C 1551  -0.288   6.672   2.863  0.6297  0.1797 -0.1849
  753MOL0     C 1552  -0.412   6.618   2.874  0.0884  0.1120  0.5129
  753MOL0     C 1553  -0.428   6.486   2.903  0.2140  1.4113 -0.1903
  753MOL0     C 1554  -0.328   6.397   2.934 -0.3798 -0.2582 -0.9292
  753MOL0     O 1555  -0.348   6.271   2.995  0.0882 -0.2840  0.5673
  753MOL0     C 1556  -0.442   6.184   2.938 -0.1485  0.5494  0.2003
  753MOL0     C 1557  -0.402   6.042   2.991  0.8209  0.0169  0.1501
  753MOL0     C 1558  -0.517   5.947   2.968 -0.1505  0.0629  0.3760
  753MOL0     C 1559  -0.526   5.837   3.060  0.1305 -0.2325  0.3678
  753MOL0     C 1560  -0.637   5.737   3.011 -0.1311  0.2298 -0.1913
  753MOL0     C 1561  -0.650   5.624   3.102 -0.3560 -0.0358 -0.6355
  753MOL0     C 1562  -0.699   5.493   3.030  0.7432 -0.6511 -0.0327
  753MOL0     C 1563  -0.763   5.403   3.126 -0.0268  0.9071 -0.5047
  753MOL0    Cl 1564  -0.914   5.466   3.193  0.2191  0.3807 -0.1956
  753MOL0     C 1565  -0.197   6.451   2.935  0.1379 -1.1154 -0.4831
  753MOL0     C 1566  -0.182   6.584   2.889  0.9837  0.4855  0.1982
  753MOL0     O 1567  -0.451   6.899   2.848 -0.0102 -0.0007  0.6558
  753MOL0     C 1568  -0.165   7.006   2.666 -0.5497  0.1837  0.6605
  753MOL0     C 1569  -0.115   7.115   2.589 -0.4024  1.5658  0.3512
  753MOL0     N 1570   0.145   7.568   2.010 -0.0090  0.0635  0.4359
  753MOL0     N 1571   0.115   7.528   1.894 -0.3810  0.4496  0.2718
  753MOL0     C 1572   0.564   6.867   2.204 -0.4246  0.1431  0.3163
  753MOL0     C 1573   0.653   6.872   2.308 -0.2942 -0.0362 -0.4581
  753MOL0     C 1574   0.805   6.756   2.708  0.3029  0.1476 -0.1751
  753MOL0     C 1575   0.773   6.826   2.827  0.0507  0.6594 -0.0707
  753MOL0     C 1576   0.817   6.785   2.953 -1.0782 -0.8039 -0.4829
  753MOL0     C 1577   0.919   6.686   2.964  0.3047 -0.0391  0.0132
  753MOL0     O 1578   0.968   6.653   3.084  0.1708 -0.1608 -0.7310
  753MOL0     C 1579   1.106   6.697   3.098 -1.2433 -0.2569 -0.1828
  753MOL0     C 1580   1.186   6.608   3.195  0.0164  0.2839  0.5470
  753MOL0     C 1581   1.160   6.461   3.174  0.5033  0.3399  0.2363
  753MOL0     C 1582   1.218   6.372   3.287 -0.1447  0.0647  0.0628
  753MOL0     C 1583   1.354   6.338   3.273 -0.8385 -0.4391  0.2870
  753MOL0     C 1584   1.458   6.280   3.254 -0.9413 -0.0492 -0.3697
  753MOL0     C 1585   0.946   6.606   2.850 -0.0438  0.0715 -0.7223
  753MOL0     C 1586   0.893   6.643   2.723 -0.2203 -0.2225  0.4899
  753MOL0     C 1587   0.942   6.566   2.602 -0.7396  0.9960 -0.0295
  753MOL0     H 1588   0.741   6.560   2.342 -1.1454 -0.3723  0.8462
  753MOL0     H 1589   0.598   6.544   2.136 -0.6724  1.5643 -2.4745
  753MOL0     H 1590   0.280   6.769   2.034  0.6722  1.5685  2.4789
  753MOL0     H 1591   0.377   6.920   2.030  2.4054 -1.0130  2.2297
  753MOL0     H 1592   0.359   6.716   1.795 -1.1438  0.0312 -1.1810
  753MOL0     H 1593   0.426   6.876   1.793 -2.1188  2.7938 -0.6016
  753MOL0     H 1594   0.126   6.841   1.849 -0.0093 -2.7055 -3.5152
  753MOL0     H 1595   0.200   6.884   1.701  1.7301  0.3035 -0.3326
  753MOL0     H 1596   0.181   7.042   1.954 -2.8680 -1.5171 -0.4503
  753MOL0     H 1597   0.287   7.099   1.817  0.8059 -1.6300 -1.4506
  753MOL0     H 1598   0.069   7.074   1.674 -2.9322 -1.0006  1.2507
  753MOL0     H 1599  -0.023   7.053   1.813 -1.4981  2.0481 -0.3610
  753MOL0     H 1600   0.076   7.255   1.904 -2.4855 -0.9488  1.1057
  753MOL0     H 1601   0.152   7.302   1.754 -1.6791  3.0103  1.9630
  753MOL0     H 1602  -0.140   7.261   1.794  1.9779 -1.6610  2.2563
  753MOL0     H 1603  -0.084   7.268   1.637 -0.5325 -3.0038  1.1441
  753MOL0     H 1604  -0.008   7.493   1.672  0.3946  1.5345  1.5951
  753MOL0     H 1605  -0.177   7.477   1.728  0.7039  0.3630 -1.2581
  753MOL0     H 1606  -0.180   7.563   2.023 -1.3974 -0.5301 -3.3905
  753MOL0     H 1607   0.135   7.641   2.252  0.3903  0.8319 -1.0990
  753MOL0     H 1608  -0.029   7.710   2.244 -1.0258 -0.7869  2.3740
  753MOL0     H 1609  -0.115   7.473   2.242  0.9335  0.4594 -1.5393
  753MOL0     H 1610   0.046   7.414   2.287 -0.2094  0.0121  0.9794
  753MOL0     H 1611  -0.142   7.586   2.459  0.7172 -0.3575  0.4791
  753MOL0     H 1612   0.032   7.588   2.491  1.3990 -0.0277 -0.7588
  753MOL0     H 1613  -0.115   7.419   2.631 -1.2518 -0.1096 -0.3403
  753MOL0     H 1614   0.023   7.350   2.554 -1.7846 -1.8215 -0.9440
  753MOL0     H 1615  -0.383   7.289   2.528  0.4353 -0.8258 -2.0734
  753MOL0     H 1616  -0.496   7.088   2.668 -0.0390 -0.4489  1.2565
  753MOL0     H 1617  -0.497   6.685   2.866 -1.6826 -1.9533  1.2287
  753MOL0     H 1618  -0.532   6.457   2.912  1.2058 -1.9032  3.6925
  753MOL0     H 1619  -0.544   6.217   2.962 -1.5155 -0.0985 -3.9108
  753MOL0     H 1620  -0.438   6.186   2.829 -0.7808  3.2390  0.1534
  753MOL0     H 1621  -0.315   5.998   2.942 -0.0654 -4.7042  2.3055
  753MOL0     H 1622  -0.394   6.055   3.099 -2.1406  0.9299  0.3501
  753MOL0     H 1623  -0.617   5.989   2.954  0.0435 -0.1850 -2.3191
  753MOL0     H 1624  -0.500   5.904   2.868  1.0747 -4.8056  2.3731
  753MOL0     H 1625  -0.548   5.881   3.158 -1.7731 -0.0801 -0.0880
  753MOL0     H 1626  -0.426   5.795   3.074  0.6516  1.2479  1.3991
  753MOL0     H 1627  -0.615   5.711   2.908 -0.2628 -0.4801 -0.0434
  753MOL0     H 1628  -0.734   5.787   3.014  0.2923  1.0478  0.9538
  753MOL0     H 1629  -0.552   5.601   3.145 -0.5902 -0.7707 -0.4827
  753MOL0     H 1630  -0.713   5.650   3.187  2.6703  2.4018  1.0760
  753MOL0     H 1631  -0.615   5.439   2.984 -0.1049 -0.2995 -2.1265
  753MOL0     H 1632  -0.766   5.527   2.950 -0.2671  2.8150  2.0967
  753MOL0     H 1633  -0.781   5.315   3.063 -0.1170 -0.9711  2.0068
  753MOL0     H 1634  -0.705   5.374   3.214 -2.0430  1.2033  0.9985
  753MOL0     H 1635  -0.113   6.391   2.968  2.3630  1.9551 -0.1343
  753MOL0     H 1636  -0.082   6.623   2.904  1.1163 -0.8275  3.5173
  753MOL0     H 1637  -0.096   6.933   2.709 -0.6371 -0.5615 -0.4139
  753MOL0     H 1638  -0.010   7.129   2.565  0.6562  1.9930  4.4382
  753MOL0     H 1639   0.513   6.961   2.186  0.2153  1.5884  4.6754
  753MOL0     H 1640   0.688   6.960   2.360  1.1460 -1.2417  0.7260
  753MOL0     H 1641   0.714   6.917   2.830  1.6586  1.7033  1.7349
  753MOL0     H 1642   0.795   6.837   3.046 -1.4697  2.3767 -2.2335
  753MOL0     H 1643   1.118   6.802   3.128  2.6481 -0.1595 -1.5545
  753MOL0     H 1644   1.152   6.703   2.999 -2.3543  0.3793 -0.6813
  753MOL0     H 1645   1.151   6.630   3.297 -1.7129  2.6111 -0.4481
  753MOL0     H 1646   1.292   6.634   3.193 -0.1786  1.1383  0.7640
  753MOL0     H 1647   1.206   6.439   3.077  1.7906 -1.0006  1.1048
  753MOL0     H 1648   1.056   6.431   3.158  0.1179  0.7774  1.7640
  753MOL0     H 1649   1.207   6.419   3.385  0.9616  2.2909 -0.8168
  753MOL0     H 1650   1.164   6.277   3.291  1.3786 -0.8128  1.6368
  753MOL0     H 1651   1.541   6.211   3.252 -1.0014 -0.1289 -0.0724
  753MOL0     H 1652   1.014   6.525   2.875  0.8072  1.0894  0.3661
  753MOL0     H 1653   0.861   6.536   2.534  1.7472 -2.3620 -1.8779
  753MOL0     H 1654   0.995   6.641   2.543 -0.6193  0.7656 -0.2175
  753MOL0     H 1655   0.992   6.475   2.638  1.4255  3.1973  2.9909
  754MOL0     O 1656   5.069   9.324   3.116 -0.0435 -0.6178 -0.8318
  754MOL0     C 1657   5.035   9.319   3.234 -0.4057  0.3386 -0.5222
  754MOL0     O 1658   5.098   9.390   3.333 -0.1621  0.6694 -0.8155
  754MOL0     C 1659   5.152   9.516   3.311 -0.1354 -0.0294  0.6215
  754MOL0     C 1660   5.238   9.551   3.406 -0.2104 -0.1721 -0.8052
  754MOL0     C 1661   5.295   9.675   3.405  0.1899  0.9497 -0.7198
  754MOL0     C 1662   5.279   9.754   3.298  0.1968 -0.8803  0.7096
  754MOL0     O 1663   5.352   9.876   3.306 -0.5388 -0.0939 -0.3948
  754MOL0     C 1664   5.319   9.991   3.218 -0.4150  0.5690 -0.1295
  754MOL0     C 1665   5.398  10.006   3.087  0.4867 -0.2968  0.9475
  754MOL0     C 1666   5.309  10.103   3.013 -0.3897  0.1483 -1.0884
  754MOL0     C 1667   5.379  10.146   2.882  0.2834 -0.9472  0.4912
  754MOL0     C 1668   5.308  10.261   2.796 -0.2425 -0.1918  0.6279
  754MOL0     C 1669   5.387  10.318   2.673 -0.3180 -0.3369 -0.6254
  754MOL0     C 1670   5.517  10.391   2.703  0.5592  1.5302  0.6827
  754MOL0     C 1671   5.515  10.530   2.771  0.4298  0.7852  0.8608
  754MOL0     N 1672   5.651  10.578   2.799 -0.2847  0.3276  0.1024
  754MOL0     C 1673   5.756  10.521   2.744 -0.2782 -0.6958  0.1845
  754MOL0     C 1674   5.861  10.587   2.810  0.1699 -0.1756  0.4485
  754MOL0     C 1675   6.006  10.557   2.796 -0.1780 -0.3423  0.0555
  754MOL0     C 1676   6.059  10.567   2.648 -0.7988 -0.9338 -0.2317
  754MOL0     C 1677   6.057  10.718   2.602  0.2860  0.5114  0.1712
  754MOL0     C 1678   6.138  10.811   2.690  0.8276 -0.3996 -0.8153
  754MOL0     O 1679   6.276  10.812   2.672 -0.1618 -0.3017  0.8356
  754MOL0     C 1680   6.357  10.875   2.752 -0.4747 -1.0427  0.5913
  754MOL0     C 1681   6.356  10.851   2.888 -0.2245 -0.4199  0.5261
  754MOL0     C 1682   6.434  10.914   2.980 -0.2263 -0.3656  0.5542
  754MOL0     C 1683   6.514  11.017   2.945 -0.5231  0.4157  0.6977
  754MOL0     C 1684   6.576  11.102   3.051  1.0353  0.6258 -0.4607
  754MOL0     O 1685   6.672  11.194   3.023  0.0210 -0.2181 -0.1443
  754MOL0     C 1686   6.741  11.251   3.129  0.5935 -0.3037 -0.2443
  754MOL0     C 1687   6.705  11.384   3.160  0.1622  0.8148 -0.1017
  754MOL0     C 1688   6.774  11.445   3.276  0.3999  0.6870  0.6408
  754MOL0     C 1689   6.886  11.378   3.330  1.2550 -0.2713  0.4164
  754MOL0     O 1690   6.957  11.421   3.436  0.4752 -0.3131  0.6126
  754MOL0     C 1691   6.937  11.555   3.487 -0.2711 -0.2418  0.3986
  754MOL0     C 1692   7.026  11.571   3.625 -0.0856  0.4176  0.8053
  754MOL0     C 1693   7.032  11.718   3.674 -0.5761  1.1458 -0.1824
  754MOL0     C 1694   6.890  11.772   3.684 -0.8618 -0.0233  0.2529
  754MOL0     C 1695   6.888  11.899   3.765 -0.3844  0.4143  0.4445
  754MOL0     C 1696   6.753  11.938   3.830  0.3027  0.1761 -0.7280
  754MOL0     C 1697   6.653  11.981   3.721 -0.0531 -0.1239 -0.6935
  754MOL0     C 1698   6.508  12.001   3.788  0.0672  0.1058  0.1855
  754MOL0    Cl 1699   6.522  12.131   3.905 -0.5532  0.3668  0.2795
  754MOL0     C 1700   6.913  11.247   3.291  0.6972 -0.5382  0.3346
  754MOL0     C 1701   6.842  11.182   3.195 -0.2417  0.1907  0.4061
  754MOL0     O 1702   6.530  11.086   3.169  0.0779 -0.0927 -0.2303
  754MOL0     C 1703   6.529  11.047   2.812 -1.2593  1.2327  0.0274
  754MOL0     C 1704   6.452  10.974   2.713  0.5712 -0.0574 -0.6453
  754MOL0     N 1705   5.815  10.676   2.894  0.1674 -0.2625 -0.2276
  754MOL0     N 1706   5.684  10.665   2.899  0.8594 -0.7430 -0.2258
  754MOL0     C 1707   5.181   9.726   3.199 -0.4802  0.5539 -0.1810
  754MOL0     C 1708   5.119   9.597   3.202 -0.8115  0.1709  0.3795
  754MOL0     C 1709   4.914   9.239   3.256  0.5066  0.6857  0.0193
  754MOL0     C 1710   4.842   9.179   3.146 -0.0608 -0.1701 -0.0688
  754MOL0     C 1711   4.729   9.102   3.148  0.8850  0.1623 -0.1453
  754MOL0     C 1712   4.680   9.081   3.285 -0.7308  0.4734 -0.0602
  754MOL0     O 1713   4.564   9.006   3.309  0.0496 -0.4758  0.0208
  754MOL0     C 1714   4.460   9.026   3.210  0.4283 -0.4186  0.2386
  754MOL0     C 1715   4.333   8.980   3.294  0.2819 -0.4212 -0.1713
  754MOL0     C 1716   4.275   9.072   3.407 -0.9151 -0.0143 -0.8482
  754MOL0     C 1717   4.344   9.038   3.554  1.0302  0.2435  0.7708
  754MOL0     C 1718   4.425   9.141   3.615 -0.2758 -0.1624  0.6837
  754MOL0     C 1719   4.470   9.232   3.689 -0.5150 -0.1059  0.5392
  754MOL0     C 1720   4.744   9.137   3.393  0.2482 -0.0556  0.5158
  754MOL0     C 1721   4.856   9.211   3.383 -0.0933 -0.6463  0.8128
  754MOL0     C 1722   4.906   9.264   3.516 -0.0092  0.4382 -1.2274
  754MOL0     H 1723   5.253   9.484   3.490 -1.4222 -0.1698 -0.5787
  754MOL0     H 1724   5.370   9.692   3.481  0.4300  0.7532 -0.9129
  754MOL0     H 1725   5.212   9.998   3.195  0.1789 -1.2134 -4.4144
  754MOL0     H 1726   5.341  10.076   3.283  2.8905 -0.9380  0.9597
  754MOL0     H 1727   5.404   9.911   3.034 -0.7713  0.5713 -0.8976
  754MOL0     H 1728   5.499  10.036   3.116  0.3232  1.5272 -0.2006
  754MOL0     H 1729   5.290  10.188   3.079 -0.8856 -1.4479  0.9645
  754MOL0     H 1730   5.212  10.058   2.989  0.8648 -4.4991  1.2716
  754MOL0     H 1731   5.480  10.179   2.911 -0.6757  1.4440  1.3534
  754MOL0     H 1732   5.385  10.059   2.816 -0.8916 -0.8099  0.1756
  754MOL0     H 1733   5.214  10.215   2.763 -0.8838  0.4767  1.4612
  754MOL0     H 1734   5.270  10.337   2.864  1.2882 -0.3550  1.7133
  754MOL0     H 1735   5.418  10.234   2.610  1.7452 -1.3413  1.5659
  754MOL0     H 1736   5.329  10.389   2.613  1.8174  2.6505  0.6044
  754MOL0     H 1737   5.559  10.397   2.602 -2.1764  0.4095 -0.6340
  754MOL0     H 1738   5.580  10.320   2.758 -1.9030 -1.4641 -0.0910
  754MOL0     H 1739   5.455  10.599   2.710  1.2103  1.0010  0.3294
  754MOL0     H 1740   5.458  10.506   2.861 -1.0024  2.0149  0.3280
  754MOL0     H 1741   5.771  10.447   2.666  2.3072 -0.3575  0.2792
  754MOL0     H 1742   6.067  10.622   2.860 -0.4407 -1.2743  1.2873
  754MOL0     H 1743   6.019  10.456   2.835 -0.2216  0.8908  3.5678
  754MOL0     H 1744   6.155  10.518   2.660 -0.2060  0.1085 -0.5701
  754MOL0     H 1745   5.998  10.511   2.576  0.0504 -0.4180 -1.3681
  754MOL0     H 1746   5.953  10.746   2.584  0.2291 -0.1361 -0.5909
  754MOL0     H 1747   6.099  10.733   2.502 -0.6518  0.4182 -0.2463
  754MOL0     H 1748   6.103  10.803   2.793 -1.1690  0.0210 -1.4224
  754MOL0     H 1749   6.100  10.910   2.663 -1.1202 -0.4231  1.5355
  754MOL0     H 1750   6.284  10.780   2.928  0.5337 -1.1419  0.6524
  754MOL0     H 1751   6.414  10.899   3.085  2.4949 -2.7130  0.8802
  754MOL0     H 1752   6.620  11.428   3.109  0.4342  0.6149 -0.7275
  754MOL0     H 1753   6.754  11.547   3.306 -0.7991  0.4217  0.8098
  754MOL0     H 1754   6.975  11.627   3.414 -0.1358 -1.5930 -0.9262
  754MOL0     H 1755   6.834  11.578   3.513 -1.0977 -0.4118 -2.3904
  754MOL0     H 1756   6.976  11.512   3.702 -2.5036  1.9695  0.5532
  754MOL0     H 1757   7.128  11.535   3.609 -0.2379 -2.0195  4.2332
  754MOL0     H 1758   7.090  11.711   3.766  1.1150  2.8746 -1.0559
  754MOL0     H 1759   7.088  11.776   3.600 -1.2386  2.0902  0.0306
  754MOL0     H 1760   6.841  11.692   3.741  1.1452 -2.0168 -0.7109
  754MOL0     H 1761   6.836  11.789   3.591 -0.1925 -2.6114 -0.6824
  754MOL0     H 1762   6.897  11.973   3.686 -0.0600 -2.5503 -2.4896
  754MOL0     H 1763   6.971  11.908   3.836 -0.7072 -0.9371  1.0383
  754MOL0     H 1764   6.712  11.859   3.894  1.2160  0.1115 -0.2042
  754MOL0     H 1765   6.774  12.026   3.892  3.3769 -1.5841  0.9252
  754MOL0     H 1766   6.635  11.900   3.649 -3.0106  1.1682 -1.5414
  754MOL0     H 1767   6.681  12.074   3.670 -1.2395 -0.4560 -2.0396
  754MOL0     H 1768   6.432  12.028   3.715 -0.8202 -3.4160 -0.3494
  754MOL0     H 1769   6.481  11.904   3.830  1.4893 -0.5479 -0.3698
  754MOL0     H 1770   6.992  11.203   3.351 -0.7653 -2.5074  0.9344
  754MOL0     H 1771   6.853  11.078   3.169 -1.8813 -0.1560  0.9738
  754MOL0     H 1772   6.583  11.134   2.776  1.3982  0.5755  2.0529
  754MOL0     H 1773   6.447  11.015   2.613 -0.1186 -1.3989 -1.1896
  754MOL0     H 1774   5.174   9.796   3.116 -0.5821 -1.1366 -1.6630
  754MOL0     H 1775   5.056   9.556   3.124 -0.0595 -3.1770  1.3479
  754MOL0     H 1776   4.880   9.188   3.044 -0.1961  1.7940  0.0097
  754MOL0     H 1777   4.684   9.042   3.069  1.1511  2.2583 -1.9777
  754MOL0     H 1778   4.470   8.960   3.124 -0.6074 -0.2931  0.0065
  754MOL0     H 1779   4.451   9.125   3.165  0.4912 -0.9608 -0.9793
  754MOL0     H 1780   4.355   8.885   3.343 -2.3241 -0.3840  1.2486
  754MOL0     H 1781   4.249   8.962   3.226 -2.0638  1.0100  2.1384
  754MOL0     H 1782   4.166   9.072   3.417 -0.7528 -1.3502  1.4087
  754MOL0     H 1783   4.304   9.176   3.389  2.2823 -0.4229  1.2061
  754MOL0     H 1784   4.261   9.011   3.620  0.4701 -0.0659 -0.0441
  754MOL0     H 1785   4.416   8.956   3.548 -0.3555 -0.9419 -2.0455
  754MOL0     H 1786   4.502   9.311   3.755  2.9588 -2.3014  1.7793
  754MOL0     H 1787   4.714   9.115   3.495 -0.9376  0.2118  0.2420
  754MOL0     H 1788   4.935   9.369   3.511 -3.4257  1.5081 -1.0651
  754MOL0     H 1789   4.836   9.257   3.599  0.3686  0.3817 -0.9060
  754MOL0     H 1790   4.994   9.200   3.527 -0.0649  0.7425  1.6263
  755MOL0     O 1791   6.215   8.556   4.186 -0.2071 -0.7739  0.6281
  755MOL0     C 1792   6.333   8.568   4.149  0.1207 -0.5315 -0.2258
  755MOL0     O 1793   6.401   8.681   4.115 -0.4479 -0.1203  0.1378
  755MOL0     C 1794   6.340   8.800   4.134 -0.4611  0.1751  0.2691
  755MOL0     C 1795   6.362   8.881   4.252  0.2773  0.1480  1.4287
  755MOL0     C 1796   6.291   9.001   4.270 -0.4553  0.4475 -0.3218
  755MOL0     C 1797   6.202   9.043   4.167  0.2799  0.1954  0.4267
  755MOL0     O 1798   6.124   9.154   4.168  0.1620  0.8664 -0.5928
  755MOL0     C 1799   6.160   9.256   4.258  0.1127  0.1515 -0.6544
  755MOL0     C 1800   6.080   9.385   4.212 -0.2937  0.9378 -0.2443
  755MOL0     C 1801   6.080   9.499   4.317  0.0708  0.3923  0.3040
  755MOL0     C 1802   6.213   9.546   4.361  1.1919  0.5974  0.5369
  755MOL0     C 1803   6.215   9.660   4.470  0.4323  0.3243  0.5712
  755MOL0     C 1804   6.357   9.689   4.521 -0.2859 -0.6181 -0.5295
  755MOL0     C 1805   6.407   9.832   4.536 -0.7762 -0.6855 -0.1433
  755MOL0     C 1806   6.561   9.828   4.566  0.7657 -0.5507 -0.1071
  755MOL0     N 1807   6.611   9.938   4.649 -0.7667  0.1552  0.4279
  755MOL0     C 1808   6.572   9.974   4.773 -0.5692  0.3772 -0.1560
  755MOL0     C 1809   6.624  10.097   4.793  0.3605  0.4917  0.3419
  755MOL0     C 1810   6.606  10.200   4.896 -0.5323 -0.4598  0.1564
  755MOL0     C 1811   6.736  10.236   4.971  0.2568 -1.5012 -0.3331
  755MOL0     C 1812   6.800  10.120   5.052  0.8812 -0.0946 -0.8972
  755MOL0     C 1813   6.705  10.069   5.166  0.5301  0.0652 -0.5965
  755MOL0     O 1814   6.767  10.072   5.296 -0.2570  0.1242  0.2570
  755MOL0     C 1815   6.750  10.178   5.386  1.6224 -1.1765 -0.2119
  755MOL0     C 1816   6.697  10.306   5.346 -0.7286  0.8537  0.0262
  755MOL0     C 1817   6.695  10.408   5.441 -0.8458  0.3273 -0.3042
  755MOL0     C 1818   6.734  10.386   5.576  0.4436 -0.2165  0.5737
  755MOL0     C 1819   6.728  10.492   5.671 -0.0566 -0.2674  0.4107
  755MOL0     O 1820   6.804  10.483   5.778  0.1240 -0.3510 -0.7943
  755MOL0     C 1821   6.807  10.597   5.848 -0.0431 -0.2645  0.1051
  755MOL0     C 1822   6.855  10.715   5.788  0.0624  0.1934  0.3654
  755MOL0     C 1823   6.878  10.827   5.864 -0.6829 -0.3621 -0.0197
  755MOL0     C 1824   6.849  10.827   6.002  1.0205  0.2471  0.8376
  755MOL0     O 1825   6.868  10.930   6.081 -0.2277  0.1684  0.3912
  755MOL0     C 1826   7.006  10.947   6.097 -0.2800 -0.2191  0.0128
  755MOL0     C 1827   7.041  10.987   6.236  0.1505  0.3688 -0.5756
  755MOL0     C 1828   7.192  10.990   6.262  0.1561  0.7061  0.1923
  755MOL0     C 1829   7.211  11.012   6.418  1.1504 -0.0812 -0.8123
  755MOL0     C 1830   7.360  11.022   6.447  0.8387 -0.3811 -0.8242
  755MOL0     C 1831   7.436  10.904   6.415 -0.1444  0.6955 -0.2528
  755MOL0     C 1832   7.555  10.910   6.509 -0.5563  0.4265 -0.8351
  755MOL0     C 1833   7.662  10.810   6.479 -0.8746  0.2179  0.1415
  755MOL0    Cl 1834   7.821  10.845   6.542  0.2424  0.0217  0.0375
  755MOL0     C 1835   6.797  10.708   6.067  1.3980  0.3430  0.0957
  755MOL0     C 1836   6.787  10.596   5.982  0.9409  1.1925  0.3934
  755MOL0     O 1837   6.650  10.590   5.647  0.2124 -0.1950  0.3927
  755MOL0     C 1838   6.776  10.254   5.612  0.2437  0.0740  0.6973
  755MOL0     C 1839   6.789  10.153   5.519  0.4274 -0.6775 -0.1922
  755MOL0     N 1840   6.704  10.134   4.688  0.1637 -0.5616  0.3953
  755MOL0     N 1841   6.697  10.035   4.600 -0.4543  1.2514  0.0433
  755MOL0     C 1842   6.187   8.963   4.049  0.6090  0.8598  0.4832
  755MOL0     C 1843   6.252   8.845   4.036 -0.2725  0.2020  0.6741
  755MOL0     C 1844   6.409   8.446   4.160  0.3309 -0.3238  0.6902
  755MOL0     C 1845   6.488   8.425   4.277  0.1359  0.4055 -0.6324
  755MOL0     C 1846   6.561   8.307   4.291  0.1557  0.1584 -0.1981
  755MOL0     C 1847   6.556   8.208   4.192  0.2546 -0.0518 -0.9834
  755MOL0     O 1848   6.611   8.081   4.205 -0.3365  0.8085 -0.4175
  755MOL0     C 1849   6.732   8.057   4.280 -0.0221  0.1342 -0.2126
  755MOL0     C 1850   6.703   8.020   4.427 -0.5713  0.0332 -0.0563
  755MOL0     C 1851   6.821   8.047   4.510  0.1254 -0.1751 -0.5746
  755MOL0     C 1852   6.799   8.008   4.657  0.2625 -0.7898  0.3654
  755MOL0     C 1853   6.813   7.861   4.677  0.1549 -0.4342  0.3827
  755MOL0     C 1854   6.835   7.743   4.679 -0.1817  0.1672 -0.3868
  755MOL0     C 1855   6.469   8.226   4.082  0.1311  0.3057 -0.3476
  755MOL0     C 1856   6.399   8.347   4.064 -0.5244 -0.1882 -0.7762
  755MOL0     C 1857   6.311   8.363   3.943 -0.0866  0.3491  0.0378
  755MOL0     H 1858   6.432   8.839   4.323  0.9219  0.3662  0.9313
  755MOL0     H 1859   6.297   9.046   4.369  1.5234  0.5263 -0.4282
  755MOL0     H 1860   6.132   9.228   4.360 -1.3728  2.5784 -0.3153
  755MOL0     H 1861   6.265   9.285   4.242  0.6485 -1.5727 -0.4358
  755MOL0     H 1862   5.976   9.366   4.186 -0.6050 -1.2515  2.2133
  755MOL0     H 1863   6.118   9.441   4.126  1.0609  1.2092  0.5058
  755MOL0     H 1864   6.017   9.481   4.405  0.0304 -0.3554  0.1263
  755MOL0     H 1865   6.031   9.583   4.266 -0.3372  0.1074  0.2219
  755MOL0     H 1866   6.268   9.460   4.400 -0.7915 -1.1565 -0.3079
  755MOL0     H 1867   6.258   9.595   4.274  1.1469  2.1209  1.3226
  755MOL0     H 1868   6.172   9.750   4.424  3.0107  1.0377 -0.6269
  755MOL0     H 1869   6.146   9.630   4.550 -2.0269  0.4057 -1.3764
  755MOL0     H 1870   6.362   9.641   4.619 -1.6702  1.7372  0.7929
  755MOL0     H 1871   6.422   9.640   4.448 -1.7333 -3.1329 -0.2458
  755MOL0     H 1872   6.352   9.886   4.613  0.6277  1.1148 -0.3502
  755MOL0     H 1873   6.390   9.875   4.436 -3.5373 -1.4216 -0.0648
  755MOL0     H 1874   6.587   9.729   4.605 -1.1261 -2.0178 -2.3101
  755MOL0     H 1875   6.618   9.827   4.473  0.1882  0.5366 -0.4997
  755MOL0     H 1876   6.499   9.932   4.842 -0.1486  2.0092  1.3370
  755MOL0     H 1877   6.577  10.294   4.849  1.0551 -0.5377 -1.0446
  755MOL0     H 1878   6.521  10.180   4.963  0.4040 -1.6829  1.0167
  755MOL0     H 1879   6.807  10.265   4.893 -1.3070  1.6531 -0.7628
  755MOL0     H 1880   6.714  10.323   5.033 -1.7916 -2.5038  0.4560
  755MOL0     H 1881   6.893  10.145   5.105  0.8234 -0.3047 -0.6953
  755MOL0     H 1882   6.818  10.032   4.989 -1.1701 -1.6818  0.5716
  755MOL0     H 1883   6.678   9.965   5.143 -0.3714 -0.3847  2.1254
  755MOL0     H 1884   6.615  10.132   5.167  1.2448  1.1018  0.0045
  755MOL0     H 1885   6.667  10.332   5.245 -0.7569 -0.1413 -0.2366
  755MOL0     H 1886   6.654  10.502   5.407 -0.0139  0.0828 -2.1313
  755MOL0     H 1887   6.868  10.720   5.681 -1.0460  2.7607  0.2848
  755MOL0     H 1888   6.922  10.919   5.828 -0.0547 -0.4668  0.4532
  755MOL0     H 1889   7.074  10.863   6.078  1.4663  0.2408  3.3947
  755MOL0     H 1890   7.035  11.027   6.028  0.9273  0.3119  1.0786
  755MOL0     H 1891   6.994  11.084   6.254 -0.4343  0.1600 -0.9346
  755MOL0     H 1892   6.989  10.914   6.298 -0.3799  0.6825 -0.6473
  755MOL0     H 1893   7.249  10.901   6.236 -1.8073 -0.5471 -0.0427
  755MOL0     H 1894   7.240  11.071   6.206  1.4955  0.4442  0.9128
  755MOL0     H 1895   7.164  10.926   6.468 -0.1990  0.0164 -1.8433
  755MOL0     H 1896   7.167  11.104   6.457 -1.4586 -2.1793  1.6955
  755MOL0     H 1897   7.363  11.041   6.555 -1.4031 -2.5035 -0.2804
  755MOL0     H 1898   7.416  11.105   6.404  1.4068  0.2858  1.0625
  755MOL0     H 1899   7.378  10.812   6.422  2.3700 -1.1941 -2.0164
  755MOL0     H 1900   7.489  10.904   6.319  2.5220 -0.2314  1.1138
  755MOL0     H 1901   7.536  10.897   6.616  1.5198 -2.0677 -0.6678
  755MOL0     H 1902   7.609  11.005   6.501 -0.1373  0.2155 -0.6020
  755MOL0     H 1903   7.623  10.713   6.513 -1.7068 -0.0526 -1.4974
  755MOL0     H 1904   7.663  10.792   6.371  0.6043 -1.3227  0.3625
  755MOL0     H 1905   6.769  10.717   6.172 -2.0642  0.0014 -0.6708
  755MOL0     H 1906   6.744  10.506   6.026  4.2707 -0.9488 -0.3841
  755MOL0     H 1907   6.810  10.237   5.713 -1.9084 -3.2670  1.0112
  755MOL0     H 1908   6.840  10.059   5.537  2.1489  0.3540  0.6177
  755MOL0     H 1909   6.114   8.987   3.973  2.1348  2.7565 -0.4794
  755MOL0     H 1910   6.237   8.779   3.951 -1.4935  0.8667  0.3406
  755MOL0     H 1911   6.501   8.508   4.345  0.2487 -0.9659  1.1159
  755MOL0     H 1912   6.620   8.299   4.381 -0.4720  1.2906  0.3457
  755MOL0     H 1913   6.799   8.143   4.267 -0.1077  0.4050  0.9780
  755MOL0     H 1914   6.793   7.973   4.246 -0.6429  1.0779 -4.0969
  755MOL0     H 1915   6.676   7.916   4.444 -1.1694  0.3161  0.7950
  755MOL0     H 1916   6.622   8.081   4.469 -0.2616 -0.1894  0.8827
  755MOL0     H 1917   6.845   8.153   4.519  2.5829 -0.6734 -0.3566
  755MOL0     H 1918   6.917   8.009   4.472  1.2461  0.2295  1.6453
  755MOL0     H 1919   6.875   8.063   4.713 -0.1649  0.7054 -0.4593
  755MOL0     H 1920   6.713   8.049   4.709  2.7011  0.5211  3.7253
  755MOL0     H 1921   6.824   7.637   4.681 -0.3244  0.1754  1.4365
  755MOL0     H 1922   6.447   8.150   4.007  0.7217  1.1719 -1.4276
  755MOL0     H 1923   6.229   8.429   3.972  0.8844  0.9200  1.6593
  755MOL0     H 1924   6.367   8.389   3.853 -2.1427 -0.9446 -1.7016
  755MOL0     H 1925   6.268   8.265   3.921  1.5246 -0.1422 -1.0871
  756MOL0     O 1926   2.624   1.675  11.087 -0.3176  0.0462  0.1216
  756MOL0     C 1927   2.636   1.662  11.206  0.0341 -0.8335  0.2633
  756MOL0     O 1928   2.603   1.542  11.279  0.5428 -0.1311 -0.6490
  756MOL0     C 1929   2.564   1.423  11.219  0.0492  0.5194  1.0214
  756MOL0     C 1930   2.562   1.314  11.301 -0.3612  1.3050 -0.5667
  756MOL0     C 1931   2.543   1.187  11.256 -0.6526 -0.2393  0.5907
  756MOL0     C 1932   2.521   1.167  11.120 -0.6763  0.2034  0.4747
  756MOL0     O 1933   2.501   1.039  11.072 -0.3318 -0.6830  0.1101
  756MOL0     C 1934   2.495   0.999  10.936 -1.1961 -0.3216  0.7067
  756MOL0     C 1935   2.454   0.853  10.926  0.5228  0.0005 -1.5038
  756MOL0     C 1936   2.308   0.846  10.865 -0.5497  1.0810 -0.4631
  756MOL0     C 1937   2.248   0.704  10.881  0.7781 -0.0319  0.8992
  756MOL0     C 1938   2.101   0.724  10.864  0.8498  0.1802 -0.3438
  756MOL0     C 1939   2.050   0.768  10.728  0.0057 -0.5467  0.1002
  756MOL0     C 1940   1.908   0.721  10.702  0.2134 -0.1174  0.4965
  756MOL0     C 1941   1.850   0.773  10.571  0.1703 -0.6848  0.4924
  756MOL0     N 1942   1.913   0.726  10.447 -0.7539 -0.0139  0.0012
  756MOL0     C 1943   1.914   0.589  10.413  0.1687 -0.9504  0.0541
  756MOL0     C 1944   1.965   0.589  10.288 -0.3652  0.2483  0.6556
  756MOL0     C 1945   1.986   0.478  10.192 -0.2878  0.2091  0.1307
  756MOL0     C 1946   1.887   0.477  10.075  0.0365 -0.3448 -0.2913
  756MOL0     C 1947   1.930   0.372   9.964 -1.0151  0.2073  1.1374
  756MOL0     C 1948   1.805   0.343   9.872  0.5877  0.2074 -0.5869
  756MOL0     O 1949   1.749   0.464   9.818 -0.7671  1.1538  0.0198
  756MOL0     C 1950   1.803   0.520   9.710  0.1050  0.9209  0.1045
  756MOL0     C 1951   1.752   0.650   9.679 -1.3362 -0.7266 -0.8686
  756MOL0     C 1952   1.801   0.731   9.581 -0.6337  0.4503 -0.0171
  756MOL0     C 1953   1.893   0.683   9.483  0.2100 -0.8670 -0.3962
  756MOL0     C 1954   1.950   0.762   9.366  0.1798  1.1569  0.3641
  756MOL0     O 1955   2.062   0.721   9.291  0.1224  0.4164 -0.7733
  756MOL0     C 1956   2.094   0.795   9.177 -0.3576 -0.7694  0.1909
  756MOL0     C 1957   2.133   0.720   9.074 -0.1830 -0.4279  0.5562
  756MOL0     C 1958   2.161   0.778   8.946 -0.1059  0.3957 -0.7838
  756MOL0     C 1959   2.167   0.918   8.941  0.3216  0.8009  0.2415
  756MOL0     O 1960   2.203   0.989   8.829 -0.1953  0.7833 -0.3482
  756MOL0     C 1961   2.211   0.921   8.708  0.8225  0.9427 -0.1912
  756MOL0     C 1962   2.247   1.015   8.585  0.6402 -0.1258 -0.0151
  756MOL0     C 1963   2.382   1.073   8.621  0.6688 -0.0044  0.1341
  756MOL0     C 1964   2.429   1.122   8.486 -0.2816  0.4789  0.7468
  756MOL0     C 1965   2.556   1.208   8.492  0.2339 -0.3855 -1.1120
  756MOL0     C 1966   2.563   1.312   8.382 -0.2372  0.3661 -0.2719
  756MOL0     C 1967   2.685   1.396   8.382 -0.3789 -0.7756  0.1113
  756MOL0     C 1968   2.689   1.495   8.269 -0.1742  0.4376  1.9192
  756MOL0    Cl 1969   2.624   1.659   8.312 -0.0942  0.0938  0.0845
  756MOL0     C 1970   2.155   0.998   9.059 -1.4475  0.4149  0.5044
  756MOL0     C 1971   2.105   0.928   9.174 -0.1582 -0.8829 -0.3075
  756MOL0     O 1972   1.883   0.862   9.345  0.7590 -0.1402  0.1054
  756MOL0     C 1973   1.940   0.549   9.503 -0.4077  0.2788 -0.8021
  756MOL0     C 1974   1.893   0.469   9.614 -0.1647  0.5670 -0.5266
  756MOL0     N 1975   2.017   0.715  10.257  0.2511 -0.0029  0.0223
  756MOL0     N 1976   1.980   0.796  10.347  0.0875  0.1951 -0.0706
  756MOL0     C 1977   2.512   1.279  11.030  0.3227 -0.0768  0.1998
  756MOL0     C 1978   2.529   1.409  11.082 -0.0732  0.5321  0.1710
  756MOL0     C 1979   2.695   1.763  11.287 -0.1748  0.3433  0.9474
  756MOL0     C 1980   2.721   1.742  11.428 -0.8493  0.1911  0.6113
  756MOL0     C 1981   2.790   1.837  11.506  0.8844  0.1581 -0.2389
  756MOL0     C 1982   2.816   1.964  11.457  0.1333 -0.3670  0.4931
  756MOL0     O 1983   2.866   2.079  11.512 -0.2098  0.3757 -0.0497
  756MOL0     C 1984   2.912   2.081  11.647 -0.1352  0.4349 -0.5662
  756MOL0     C 1985   2.940   2.236  11.687 -0.1566 -0.1027  0.1765
  756MOL0     C 1986   2.932   2.270  11.840 -0.2959  0.5924 -0.0015
  756MOL0     C 1987   2.794   2.224  11.901  0.7585 -0.0755  0.1256
  756MOL0     C 1988   2.799   2.095  11.970 -0.4647  0.9376 -0.3077
  756MOL0     C 1989   2.814   1.987  12.028  0.9804  0.5975  0.4691
  756MOL0     C 1990   2.776   1.993  11.329 -0.4387  0.3180  0.2459
  756MOL0     C 1991   2.728   1.893  11.238 -0.6047  0.4939  0.3759
  756MOL0     C 1992   2.713   1.939  11.095  0.6750  0.0942 -0.0333
  756MOL0     H 1993   2.582   1.306  11.407 -0.6435  0.4573 -0.5653
  756MOL0     H 1994   2.563   1.107  11.326  1.1086 -0.6855 -0.3617
  756MOL0     H 1995   2.435   1.056  10.865 -0.5062  3.5726  2.9575
  756MOL0     H 1996   2.600   1.004  10.904 -1.4145 -1.4935 -0.2289
  756MOL0     H 1997   2.468   0.809  11.026  1.6943  3.1445 -0.1501
  756MOL0     H 1998   2.520   0.790  10.866  1.9437 -2.5908  2.3504
  756MOL0     H 1999   2.312   0.882  10.762  2.0375  0.9509 -0.4745
  756MOL0     H 2000   2.249   0.905  10.935 -3.2294 -3.4737  1.6433
  756MOL0     H 2001   2.294   0.635  10.809 -0.7879 -0.8607  0.6388
  756MOL0     H 2002   2.279   0.663  10.977 -1.4425 -3.1830  0.4498
  756MOL0     H 2003   2.045   0.633  10.890  0.9128  0.0277 -0.7379
  756MOL0     H 2004   2.070   0.805  10.930  0.8408 -0.5169  0.5324
  756MOL0     H 2005   2.050   0.877  10.734  1.8927 -0.6146  3.1155
  756MOL0     H 2006   2.109   0.726  10.645 -1.6952  1.1620 -2.1085
  756MOL0     H 2007   1.847   0.746  10.788 -0.7612  2.1729 -0.7758
  756MOL0     H 2008   1.903   0.612  10.703 -0.3356 -0.1400 -1.1339
  756MOL0     H 2009   1.742   0.760  10.560  0.2416 -1.1094  0.2463
  756MOL0     H 2010   1.879   0.878  10.577 -1.2976 -0.2121 -0.3036
  756MOL0     H 2011   1.867   0.511  10.472  1.8277 -2.0296  0.0070
  756MOL0     H 2012   2.089   0.474  10.153 -1.0351 -0.7636 -1.8970
  756MOL0     H 2013   1.966   0.386  10.248  3.1391  0.4957  2.1054
  756MOL0     H 2014   1.790   0.466  10.125  0.0605  0.2009 -0.1133
  756MOL0     H 2015   1.875   0.574  10.026 -3.2497 -0.1237  0.7043
  756MOL0     H 2016   1.970   0.278  10.004  2.8961  0.3816 -1.8169
  756MOL0     H 2017   2.019   0.411   9.914 -1.1442  0.3595  1.0247
  756MOL0     H 2018   1.727   0.296   9.932  3.9752 -3.2295  1.5618
  756MOL0     H 2019   1.837   0.269   9.799 -1.4081 -2.4121  1.0177
  756MOL0     H 2020   1.671   0.689   9.740  0.0753 -0.8704  1.1915
  756MOL0     H 2021   1.769   0.835   9.583 -0.0783  0.6930  3.4115
  756MOL0     H 2022   2.150   0.613   9.079 -0.4392 -0.4083  3.5665
  756MOL0     H 2023   2.181   0.702   8.871  7.2534 -1.7457  2.4056
  756MOL0     H 2024   2.277   0.834   8.705  0.4096  0.6201  0.0319
  756MOL0     H 2025   2.108   0.890   8.687  0.0230  1.8999  2.0149
  756MOL0     H 2026   2.259   0.948   8.499  1.9008 -0.5341  0.4562
  756MOL0     H 2027   2.170   1.093   8.584  1.3380  0.5668  0.1390
  756MOL0     H 2028   2.367   1.153   8.694  1.9198 -0.0758  0.4846
  756MOL0     H 2029   2.448   0.996   8.660  0.2472 -1.9270 -2.6803
  756MOL0     H 2030   2.345   1.180   8.447 -0.4224 -0.8645 -1.0859
  756MOL0     H 2031   2.441   1.031   8.426 -0.3907  0.0750  1.3234
  756MOL0     H 2032   2.645   1.145   8.497 -0.2873 -1.0447  0.3039
  756MOL0     H 2033   2.548   1.261   8.588  0.3920 -5.0893  1.8219
  756MOL0     H 2034   2.548   1.261   8.286 -0.1638 -0.7240  0.2925
  756MOL0     H 2035   2.487   1.390   8.392  1.2941  2.4915 -3.3300
  756MOL0     H 2036   2.772   1.330   8.366  1.8987  0.5232  5.1719
  756MOL0     H 2037   2.698   1.445   8.479 -0.8630 -0.3660 -0.0273
  756MOL0     H 2038   2.795   1.514   8.246 -0.9732  1.9806 -0.9153
  756MOL0     H 2039   2.637   1.454   8.182  1.3560  0.1970  1.0794
  756MOL0     H 2040   2.176   1.104   9.052 -0.6429  0.3303  1.5105
  756MOL0     H 2041   2.099   1.002   9.253  0.8536  1.5952 -2.4178
  756MOL0     H 2042   2.017   0.516   9.434  0.1846  2.8975 -1.4854
  756MOL0     H 2043   1.919   0.369   9.644  0.1725  1.0003  0.6546
  756MOL0     H 2044   2.475   1.270  10.928  3.0222 -5.5869 -0.6616
  756MOL0     H 2045   2.511   1.495  11.019  0.6202  0.9625  0.5542
  756MOL0     H 2046   2.707   1.648  11.480  2.7011 -2.3700 -2.5578
  756MOL0     H 2047   2.823   1.809  11.606  1.0209  2.6422  0.4847
  756MOL0     H 2048   3.009   2.031  11.658 -0.1597 -0.0056 -2.1327
  756MOL0     H 2049   2.843   2.036  11.719  1.7962  0.6429  1.5444
  756MOL0     H 2050   2.872   2.311  11.644 -0.2182  0.0941  0.6086
  756MOL0     H 2051   3.038   2.248  11.641 -0.0414 -0.8586  0.2087
  756MOL0     H 2052   2.955   2.377  11.841  4.0570 -0.1337  3.0255
  756MOL0     H 2053   3.016   2.217  11.886  0.5459 -0.5742 -2.7001
  756MOL0     H 2054   2.776   2.298  11.980 -1.6630 -2.8168  2.3733
  756MOL0     H 2055   2.715   2.222  11.826  0.4896  0.3803  0.3916
  756MOL0     H 2056   2.807   1.890  12.073 -0.3743  1.0551  1.3067
  756MOL0     H 2057   2.795   2.091  11.286 -1.7459 -0.0490 -1.2930
  756MOL0     H 2058   2.805   1.913  11.040  1.0096 -1.7783  1.3375
  756MOL0     H 2059   2.630   1.901  11.035  1.2428 -0.4940 -0.4662
  756MOL0     H 2060   2.693   2.046  11.081 -3.3539 -0.5717 -0.2649
  757MOL0     O 2061   6.007   7.845   0.195 -0.1210 -0.6239  0.1980
  757MOL0     C 2062   6.093   7.828   0.105 -0.1518  0.0074  0.3654
  757MOL0     O 2063   6.228   7.812   0.119  0.2486 -0.1493 -0.4780
  757MOL0     C 2064   6.293   7.842   0.236 -0.4038 -0.4349 -0.6457
  757MOL0     C 2065   6.271   7.947   0.320  0.4914 -0.0775  0.6689
  757MOL0     C 2066   6.327   7.942   0.445  0.1519 -0.7451  0.0530
  757MOL0     C 2067   6.417   7.849   0.482 -0.1723 -1.2657 -0.3662
  757MOL0     O 2068   6.472   7.856   0.608  0.7627  0.0140  0.6020
  757MOL0     C 2069   6.504   7.734   0.678  0.1578  0.6087  0.1874
  757MOL0     C 2070   6.541   7.771   0.821 -0.5989 -0.1517 -0.2925
  757MOL0     C 2071   6.661   7.878   0.827 -1.0281  0.9638 -0.5122
  757MOL0     C 2072   6.721   7.864   0.968 -0.5451  0.1586  0.0948
  757MOL0     C 2073   6.849   7.956   0.980 -0.0667  0.4126  0.6753
  757MOL0     C 2074   6.907   7.969   1.116  0.4522  0.2920 -1.2523
  757MOL0     C 2075   7.023   8.066   1.131 -0.3797 -0.6179  0.4701
  757MOL0     C 2076   7.068   8.092   1.275 -0.1128 -0.5921 -0.0379
  757MOL0     N 2077   7.145   8.220   1.279 -0.4307 -1.2727  0.6829
  757MOL0     C 2078   7.140   8.310   1.388 -0.2706 -0.1230 -0.2524
  757MOL0     C 2079   7.239   8.398   1.370  0.7876 -0.1355 -0.3588
  757MOL0     C 2080   7.273   8.505   1.476  0.2546 -0.0331  0.4685
  757MOL0     C 2081   7.320   8.634   1.424  0.9619 -1.0321  0.3000
  757MOL0     C 2082   7.404   8.696   1.533 -0.0523  0.8770  0.2547
  757MOL0     C 2083   7.476   8.820   1.503 -0.6596 -0.8520  0.7707
  757MOL0     O 2084   7.562   8.864   1.612 -0.3494  0.0055 -0.6043
  757MOL0     C 2085   7.648   8.969   1.606  0.4964 -0.6497 -0.4587
  757MOL0     C 2086   7.746   8.974   1.707 -0.8786  0.4406  0.4029
  757MOL0     C 2087   7.831   9.077   1.728 -0.6976  0.0559  0.8649
  757MOL0     C 2088   7.815   9.198   1.651 -0.1673 -0.1996 -0.2410
  757MOL0     C 2089   7.919   9.307   1.658 -0.4193  0.7045  1.1311
  757MOL0     O 2090   7.928   9.398   1.553 -0.5549 -0.9032  0.2249
  757MOL0     C 2091   8.045   9.482   1.549 -0.0921  1.2395  0.3700
  757MOL0     C 2092   8.028   9.616   1.576 -0.4023 -0.0027  0.7815
  757MOL0     C 2093   8.135   9.702   1.554  0.1531 -0.6558 -0.2821
  757MOL0     C 2094   8.252   9.656   1.503 -0.8304 -0.5728 -0.5275
  757MOL0     O 2095   8.361   9.751   1.488 -0.1288  1.2292 -0.1303
  757MOL0     C 2096   8.434   9.741   1.361 -0.7357  0.6189  0.2578
  757MOL0     C 2097   8.426   9.866   1.268 -0.6752  0.3797 -0.6696
  757MOL0     C 2098   8.545   9.864   1.162  0.2864 -0.4574 -0.1923
  757MOL0     C 2099   8.546   9.741   1.074 -0.4489  0.1677 -0.3221
  757MOL0     C 2100   8.631   9.768   0.949 -0.0006 -0.1560  1.0472
  757MOL0     C 2101   8.687   9.653   0.869  0.3422  0.6331  0.0625
  757MOL0     C 2102   8.818   9.698   0.813 -0.8898 -0.1189  0.0666
  757MOL0     C 2103   8.886   9.600   0.713  1.1193 -0.2903 -0.8462
  757MOL0    Cl 2104   9.034   9.673   0.647  0.0969  0.7245  0.0834
  757MOL0     C 2105   8.264   9.523   1.467  0.2825  0.1795  0.1949
  757MOL0     C 2106   8.163   9.431   1.494 -0.5064 -0.0406 -0.8348
  757MOL0     O 2107   8.000   9.293   1.751  0.3996  0.8918 -0.0872
  757MOL0     C 2108   7.723   9.200   1.539  0.0287 -0.1055 -0.3377
  757MOL0     C 2109   7.637   9.085   1.519  0.2498 -0.2590 -0.4653
  757MOL0     N 2110   7.282   8.373   1.241 -0.0107 -0.9223  0.4144
  757MOL0     N 2111   7.228   8.269   1.182 -0.0500  0.3477 -0.3720
  757MOL0     C 2112   6.445   7.744   0.400  1.0535  0.2407 -0.4454
  757MOL0     C 2113   6.376   7.742   0.270  0.0091 -0.0229 -0.1821
  757MOL0     C 2114   6.035   7.815  -0.036 -0.0297  0.4046  0.6101
  757MOL0     C 2115   6.124   7.818  -0.141 -0.5919 -0.3442 -0.5050
  757MOL0     C 2116   6.089   7.794  -0.271  0.3951  0.8166 -0.2840
  757MOL0     C 2117   5.958   7.769  -0.299  1.2316  0.0490 -0.6594
  757MOL0     O 2118   5.915   7.733  -0.424  0.0127 -0.4265  0.1259
  757MOL0     C 2119   5.861   7.839  -0.516  0.0982  0.3561 -1.5690
  757MOL0     C 2120   5.959   7.922  -0.588  0.5221 -0.1354 -0.1837
  757MOL0     C 2121   6.084   7.854  -0.649  0.7318 -0.0477  0.1604
  757MOL0     C 2122   6.198   7.947  -0.634 -0.6970 -0.0297 -0.0031
  757MOL0     C 2123   6.222   8.036  -0.755  0.3657 -0.4358 -0.1145
  757MOL0     C 2124   6.230   8.120  -0.842  0.5392 -0.7760  0.5142
  757MOL0     C 2125   5.869   7.749  -0.198 -0.2283  0.1990  0.3259
  757MOL0     C 2126   5.900   7.774  -0.067  0.0627  1.1322 -0.1613
  757MOL0     C 2127   5.792   7.741   0.032  0.2059 -0.2279  0.7604
  757MOL0     H 2128   6.201   8.020   0.281  1.5165  0.8272  0.4888
  757MOL0     H 2129   6.316   8.024   0.516  3.9983 -1.6539  1.9794
  757MOL0     H 2130   6.408   7.682   0.684 -0.8550  2.4210  0.5621
  757MOL0     H 2131   6.584   7.681   0.626  1.7950  3.1796 -0.0988
  757MOL0     H 2132   6.564   7.678   0.874  0.8157  0.1770 -0.2925
  757MOL0     H 2133   6.456   7.815   0.876 -0.5629  0.0724 -0.4180
  757MOL0     H 2134   6.620   7.979   0.814 -2.1731  1.2311  3.7119
  757MOL0     H 2135   6.739   7.854   0.754 -0.0778  2.5050 -0.0527
  757MOL0     H 2136   6.647   7.899   1.041  0.0155 -0.0439  0.7677
  757MOL0     H 2137   6.749   7.763   0.996 -0.3768 -0.1433 -1.1252
  757MOL0     H 2138   6.922   7.911   0.912 -1.3992 -0.8107 -0.0181
  757MOL0     H 2139   6.808   8.048   0.939 -4.0623 -3.2762 -5.3440
  757MOL0     H 2140   6.833   8.000   1.191  1.1210 -0.7304 -0.1350
  757MOL0     H 2141   6.952   7.871   1.130  2.3530  1.3669  0.9061
  757MOL0     H 2142   6.998   8.155   1.073  1.5264 -0.1323  0.3226
  757MOL0     H 2143   7.113   8.020   1.090  0.1978  0.7102  0.2274
  757MOL0     H 2144   6.985   8.103   1.346  0.0524 -0.2758  0.1074
  757MOL0     H 2145   7.140   8.018   1.310  1.4577 -0.5782 -2.9383
  757MOL0     H 2146   7.076   8.310   1.476  2.0606  0.3631  1.5604
  757MOL0     H 2147   7.190   8.532   1.542 -2.1052  0.9139 -2.5952
  757MOL0     H 2148   7.351   8.463   1.539  2.9631 -0.2763 -2.7532
  757MOL0     H 2149   7.377   8.636   1.330  2.3883  1.4215  1.1281
  757MOL0     H 2150   7.228   8.693   1.418  2.8454  2.0608 -0.4224
  757MOL0     H 2151   7.480   8.621   1.555 -0.6584 -0.0558 -0.7047
  757MOL0     H 2152   7.345   8.722   1.622  0.5252  2.0335  0.3181
  757MOL0     H 2153   7.402   8.899   1.485 -0.5738 -0.7559  0.8453
  757MOL0     H 2154   7.538   8.811   1.413 -0.6100  0.2986  0.6731
  757MOL0     H 2155   7.742   8.888   1.774  1.9375  0.8306  1.1972
  757MOL0     H 2156   7.908   9.056   1.802 -1.1655 -0.6676  1.1544
  757MOL0     H 2157   7.935   9.651   1.621  0.1308 -1.1714  2.9129
  757MOL0     H 2158   8.134   9.802   1.598 -0.7938 -0.6404 -0.3200
  757MOL0     H 2159   8.540   9.728   1.388 -1.0228 -0.4562  0.9512
  757MOL0     H 2160   8.397   9.661   1.297  0.5868  2.5642 -3.1862
  757MOL0     H 2161   8.328   9.867   1.218  0.2654 -1.7381 -2.7346
  757MOL0     H 2162   8.442   9.962   1.319  3.8704  0.6523 -2.2233
  757MOL0     H 2163   8.514   9.947   1.097 -0.3248  1.1785  2.0462
  757MOL0     H 2164   8.640   9.880   1.212  0.1103  2.3623 -0.5753
  757MOL0     H 2165   8.448   9.703   1.042 -0.3367  0.1289 -0.6194
  757MOL0     H 2166   8.594   9.656   1.124  1.0955  1.1054 -0.1535
  757MOL0     H 2167   8.722   9.823   0.976  1.7318 -1.1982 -2.1539
  757MOL0     H 2168   8.572   9.830   0.881  0.6863  1.9870  2.2997
  757MOL0     H 2169   8.686   9.562   0.929 -0.0647 -0.7057 -1.8790
  757MOL0     H 2170   8.620   9.628   0.786 -0.3765  1.4693  0.3761
  757MOL0     H 2171   8.891   9.704   0.894  1.7785 -1.4540 -2.0276
  757MOL0     H 2172   8.811   9.788   0.751 -2.2071 -1.3734 -1.7294
  757MOL0     H 2173   8.893   9.499   0.753 -4.0051 -1.4608 -2.0762
  757MOL0     H 2174   8.823   9.588   0.624 -0.7461  2.2695  0.0188
  757MOL0     H 2175   8.361   9.491   1.432  0.3857  0.6710  0.0214
  757MOL0     H 2176   8.185   9.326   1.481  2.3960 -0.2399  3.4310
  757MOL0     H 2177   7.698   9.276   1.466  1.7730  2.5229  1.5741
  757MOL0     H 2178   7.564   9.089   1.439  0.0835 -1.3021 -0.3774
  757MOL0     H 2179   6.515   7.666   0.427  0.5380 -1.0956 -2.7863
  757MOL0     H 2180   6.396   7.660   0.202  1.5564 -1.6839  2.1128
  757MOL0     H 2181   6.227   7.848  -0.122 -0.8082 -0.4468  0.9919
  757MOL0     H 2182   6.163   7.799  -0.350  1.7141  1.1402  0.9334
  757MOL0     H 2183   5.772   7.890  -0.479  0.0138  0.4163 -1.8475
  757MOL0     H 2184   5.817   7.773  -0.592  0.6957 -1.0250 -0.7549
  757MOL0     H 2185   5.980   7.989  -0.504 -0.4581  1.8318 -1.4393
  757MOL0     H 2186   5.915   7.988  -0.663 -3.0945 -1.3121  0.7386
  757MOL0     H 2187   6.062   7.817  -0.750  0.2658 -1.7145  0.8276
  757MOL0     H 2188   6.110   7.760  -0.601 -0.4153 -0.1288  0.6650
  757MOL0     H 2189   6.206   8.017  -0.550  2.3349  1.8698 -1.6799
  757MOL0     H 2190   6.282   7.877  -0.642 -0.5487  0.3810 -5.1483
  757MOL0     H 2191   6.217   8.191  -0.921  1.6638 -1.7166 -0.5631
  757MOL0     H 2192   5.770   7.708  -0.218 -2.0595  2.6187  3.4136
  757MOL0     H 2193   5.855   7.707   0.115  1.8309 -1.0698 -0.7748
  757MOL0     H 2194   5.740   7.835   0.055  3.8914  2.3298 -0.4850
  757MOL0     H 2195   5.720   7.667  -0.002  0.8907 -0.0256 -1.2216
  758MOL0     O 2196   4.579   8.787   3.979 -0.5005 -0.5188 -0.4538
  758MOL0     C 2197   4.547   8.906   3.980  0.6622 -0.0088 -0.0284
  758MOL0     O 2198   4.630   9.018   3.964 -0.1810  0.8488  0.3573
  758MOL0     C 2199   4.768   8.990   3.962  0.0724  0.3180  0.5479
  758MOL0     C 2200   4.850   8.966   4.074 -0.2136 -0.6745  0.1659
  758MOL0     C 2201   4.982   8.952   4.054 -0.7722  0.3465 -0.3917
  758MOL0     C 2202   5.043   8.950   3.931  0.2361 -0.1918 -0.3675
  758MOL0     O 2203   5.177   8.919   3.921 -0.3759 -0.6473 -0.3159
  758MOL0     C 2204   5.230   8.890   3.791 -0.3396 -0.5461 -0.3854
  758MOL0     C 2205   5.376   8.877   3.805 -0.0440  0.5649  0.5278
  758MOL0     C 2206   5.434   8.865   3.653  0.3904 -0.1574 -0.8829
  758MOL0     C 2207   5.566   8.796   3.650  0.3652  0.1090 -0.9736
  758MOL0     C 2208   5.609   8.792   3.499  0.4873 -0.1204 -0.8733
  758MOL0     C 2209   5.750   8.734   3.493 -0.0641 -0.0646  0.0712
  758MOL0     C 2210   5.750   8.581   3.528  0.2619 -0.3546  0.1135
  758MOL0     C 2211   5.885   8.522   3.467 -0.3174 -0.1679 -0.1872
  758MOL0     N 2212   6.000   8.566   3.547 -0.3917  0.3366 -0.2643
  758MOL0     C 2213   6.093   8.663   3.515 -0.2425 -1.0208  0.2416
  758MOL0     C 2214   6.188   8.645   3.608 -0.0961 -0.6186 -0.3937
  758MOL0     C 2215   6.316   8.729   3.604  0.8412  0.6558 -0.5870
  758MOL0     C 2216   6.428   8.639   3.552  0.2396  0.4177 -0.2566
  758MOL0     C 2217   6.563   8.716   3.536  0.7615  0.5734 -0.4133
  758MOL0     C 2218   6.667   8.621   3.484  0.8109 -0.1370  0.8544
  758MOL0     O 2219   6.783   8.697   3.466  0.1905  0.2186  0.4685
  758MOL0     C 2220   6.897   8.643   3.415 -0.5646  0.7962  1.1629
  758MOL0     C 2221   6.901   8.520   3.354 -0.3847 -0.5677  0.1734
  758MOL0     C 2222   7.007   8.465   3.293 -0.2265 -0.5515 -0.6754
  758MOL0     C 2223   7.136   8.527   3.319  0.2696 -0.3325  0.0932
  758MOL0     C 2224   7.263   8.471   3.264 -0.2642 -0.2944  0.1192
  758MOL0     O 2225   7.373   8.539   3.294 -0.1650  0.2184 -0.3354
  758MOL0     C 2226   7.480   8.493   3.223 -0.2117  0.7973  0.3733
  758MOL0     C 2227   7.567   8.392   3.268 -0.1647  0.4445  0.3634
  758MOL0     C 2228   7.657   8.332   3.173 -0.0027  1.2435  0.2222
  758MOL0     C 2229   7.670   8.380   3.043 -0.7189 -0.5390  0.1013
  758MOL0     O 2230   7.778   8.316   2.977  1.1168  0.1378  0.2855
  758MOL0     C 2231   7.783   8.316   2.832 -0.9821  0.0194 -0.4330
  758MOL0     C 2232   7.926   8.274   2.790 -0.4423  0.1538  0.3773
  758MOL0     C 2233   7.981   8.355   2.675  0.2312 -0.0398 -0.2179
  758MOL0     C 2234   8.102   8.282   2.612 -0.0617 -0.0198  0.2659
  758MOL0     C 2235   8.149   8.360   2.495  0.7180  0.6118  0.2862
  758MOL0     C 2236   8.201   8.291   2.379 -0.3308  0.8108  0.2229
  758MOL0     C 2237   8.242   8.389   2.269 -0.1654 -1.1700  0.2999
  758MOL0     C 2238   8.286   8.327   2.139  0.1654 -0.6499  0.3358
  758MOL0    Cl 2239   8.279   8.455   2.010  0.2816  0.4968 -0.6723
  758MOL0     C 2240   7.589   8.491   2.998 -0.6159  0.8195 -0.3128
  758MOL0     C 2241   7.494   8.547   3.094 -0.1520  0.0165 -0.3406
  758MOL0     O 2242   7.254   8.363   3.206 -0.9187 -0.0292 -0.0351
  758MOL0     C 2243   7.138   8.660   3.373  0.2792  0.0343 -0.2316
  758MOL0     C 2244   7.017   8.717   3.416  0.1258 -0.6228 -0.8724
  758MOL0     N 2245   6.152   8.537   3.689  0.1994 -0.2984  0.1280
  758MOL0     N 2246   6.044   8.484   3.642 -0.0329  0.3205  0.0925
  758MOL0     C 2247   4.968   9.002   3.820  0.6951 -1.0728  0.4396
  758MOL0     C 2248   4.830   9.019   3.838  0.1448  0.1122  0.1017
  758MOL0     C 2249   4.401   8.922   3.991  0.3411  0.2790  0.1986
  758MOL0     C 2250   4.309   8.831   3.921 -0.9213 -0.3152  0.0601
  758MOL0     C 2251   4.172   8.842   3.944  0.5917  0.7139  0.6427
  758MOL0     C 2252   4.124   8.932   4.037 -0.6020 -0.2416  1.1262
  758MOL0     O 2253   3.988   8.938   4.064 -0.3858  0.2049 -0.0658
  758MOL0     C 2254   3.942   8.828   4.145  0.5744  0.6675 -0.4083
  758MOL0     C 2255   3.882   8.881   4.275 -0.7708 -0.2987 -1.4583
  758MOL0     C 2256   3.810   9.019   4.254 -0.0250 -0.0978  0.3006
  758MOL0     C 2257   3.699   8.998   4.149 -0.3925  0.2847 -0.3452
  758MOL0     C 2258   3.592   9.095   4.170 -0.4451  0.8184  0.2898
  758MOL0     C 2259   3.486   9.149   4.196 -0.3778 -0.1974  0.2570
  758MOL0     C 2260   4.208   9.038   4.083  0.6950  0.1123  0.2302
  758MOL0     C 2261   4.342   9.027   4.070  0.1722 -0.1855  0.4698
  758MOL0     C 2262   4.435   9.110   4.155 -0.2486  0.2962  1.1825
  758MOL0     H 2263   4.805   8.964   4.172 -2.0655 -1.0332 -0.6533
  758MOL0     H 2264   5.050   8.942   4.139 -1.4620  0.0769  0.1341
  758MOL0     H 2265   5.187   8.798   3.752  0.5615 -1.0943 -0.1203
  758MOL0     H 2266   5.219   8.976   3.724 -1.6894 -1.0313 -0.8186
  758MOL0     H 2267   5.407   8.783   3.852  2.1673 -0.2528 -2.3029
  758MOL0     H 2268   5.425   8.959   3.858  2.4071 -0.0188 -0.6840
  758MOL0     H 2269   5.441   8.967   3.614  1.6900 -1.1160 -3.4191
  758MOL0     H 2270   5.361   8.818   3.587  1.5324  0.5228 -2.6985
  758MOL0     H 2271   5.641   8.850   3.709 -0.0072  0.8930 -1.1915
  758MOL0     H 2272   5.552   8.694   3.686 -0.5349  0.9560  1.2763
  758MOL0     H 2273   5.540   8.721   3.452  1.2433  1.0817 -4.0489
  758MOL0     H 2274   5.606   8.890   3.449 -0.0901  1.7564  2.5172
  758MOL0     H 2275   5.795   8.746   3.394 -1.0908 -2.8379 -0.8200
  758MOL0     H 2276   5.816   8.785   3.564 -0.3806 -0.8423  0.9355
  758MOL0     H 2277   5.662   8.542   3.476  2.6665 -1.9501 -3.0741
  758MOL0     H 2278   5.744   8.559   3.635  2.3447  2.9824  1.0589
  758MOL0     H 2279   5.874   8.413   3.462  1.4929 -0.5451  2.1973
  758MOL0     H 2280   5.902   8.560   3.365  1.8562  4.7368  1.6745
  758MOL0     H 2281   6.083   8.744   3.442  2.4105  0.6805  1.6115
  758MOL0     H 2282   6.311   8.818   3.540  0.5540  0.4654 -0.8348
  758MOL0     H 2283   6.340   8.748   3.709 -0.7456 -1.2835  0.1937
  758MOL0     H 2284   6.449   8.556   3.622  0.0934 -0.0189 -0.7266
  758MOL0     H 2285   6.404   8.590   3.457 -0.8170 -0.8062  0.6002
  758MOL0     H 2286   6.589   8.760   3.633 -0.1213  0.0144  0.0957
  758MOL0     H 2287   6.557   8.806   3.474 -1.0420 -0.6932 -2.2258
  758MOL0     H 2288   6.638   8.573   3.390  3.4849  0.0750 -0.1803
  758MOL0     H 2289   6.676   8.538   3.555  2.2727 -2.5605 -1.9090
  758MOL0     H 2290   6.814   8.455   3.362 -0.4768 -0.2849  1.9925
  758MOL0     H 2291   7.010   8.379   3.228 -0.3642 -0.1464 -1.2303
  758MOL0     H 2292   7.547   8.355   3.368  0.3719  0.0305  0.3250
  758MOL0     H 2293   7.724   8.256   3.213  1.3313  1.6976 -1.0505
  758MOL0     H 2294   7.699   8.264   2.784 -0.8201  2.1712 -3.3720
  758MOL0     H 2295   7.771   8.415   2.787 -1.6625 -0.5959 -1.6551
  758MOL0     H 2296   7.995   8.291   2.873  0.9191 -1.8805 -0.2582
  758MOL0     H 2297   7.929   8.168   2.761  2.5089 -0.4969  2.5975
  758MOL0     H 2298   7.900   8.366   2.602 -1.1905  1.4740  1.4905
  758MOL0     H 2299   8.009   8.456   2.704 -0.3933  0.7248 -2.0541
  758MOL0     H 2300   8.079   8.178   2.585  1.2034 -0.2690  0.0848
  758MOL0     H 2301   8.175   8.273   2.693 -1.6111 -1.1737  1.6045
  758MOL0     H 2302   8.225   8.425   2.539 -0.9266  0.7858  3.1001
  758MOL0     H 2303   8.072   8.428   2.459  2.5217  3.0652  0.8211
  758MOL0     H 2304   8.282   8.226   2.413 -1.4684 -1.3535 -1.0142
  758MOL0     H 2305   8.118   8.227   2.347  0.6377 -0.0979 -0.5753
  758MOL0     H 2306   8.304   8.469   2.310 -2.7018  1.9465 -1.5129
  758MOL0     H 2307   8.151   8.444   2.247  1.3610  1.0856 -0.7935
  758MOL0     H 2308   8.388   8.289   2.145  0.5653  0.5857  1.9237
  758MOL0     H 2309   8.228   8.244   2.096  2.0706 -3.7647  3.2506
  758MOL0     H 2310   7.614   8.533   2.901 -2.6004  0.4607 -1.0274
  758MOL0     H 2311   7.433   8.634   3.072 -1.5177 -0.6616  0.6226
  758MOL0     H 2312   7.228   8.718   3.391  0.4400 -0.5600  0.9756
  758MOL0     H 2313   7.030   8.821   3.447  1.2722 -1.0775  0.2808
  758MOL0     H 2314   4.995   9.001   3.715 -1.6877  0.2521 -0.2449
  758MOL0     H 2315   4.782   9.047   3.745  3.1715 -1.0105 -1.9185
  758MOL0     H 2316   4.357   8.756   3.859  1.0760  0.8803  0.0455
  758MOL0     H 2317   4.103   8.770   3.899 -2.3089  2.8431  1.3609
  758MOL0     H 2318   4.026   8.766   4.177  0.3825  0.8337  0.4473
  758MOL0     H 2319   3.870   8.773   4.084  2.4303 -0.2177 -1.8830
  758MOL0     H 2320   3.956   8.907   4.351  0.8170 -0.1698 -2.9680
  758MOL0     H 2321   3.822   8.803   4.323  0.4787 -0.3477  0.0862
  758MOL0     H 2322   3.874   9.101   4.220 -2.8968  3.8739  3.4586
  758MOL0     H 2323   3.766   9.051   4.349  1.9843  1.7432  0.6819
  758MOL0     H 2324   3.736   9.018   4.048  0.3405  2.1351  0.2482
  758MOL0     H 2325   3.651   8.900   4.157 -3.4567  1.3131 -3.5767
  758MOL0     H 2326   3.388   9.182   4.225  0.2214  1.0465  0.9298
  758MOL0     H 2327   4.166   9.092   4.167  1.9385  0.3499  0.7143
  758MOL0     H 2328   4.523   9.048   4.178  0.3727  0.0092 -1.5285
  758MOL0     H 2329   4.477   9.200   4.108  1.8192  0.0350  2.3967
  758MOL0     H 2330   4.382   9.155   4.238  1.4646 -1.3650  3.3035
  759MOL0     O 2331   7.633   5.070   1.688 -0.7562  1.1681 -0.6823
  759MOL0     C 2332   7.629   5.113   1.572 -0.1031 -0.9520 -0.0833
  759MOL0     O 2333   7.627   5.245   1.542  0.4422  0.4582  0.1355
  759MOL0     C 2334   7.623   5.340   1.640 -0.4413  0.7304  0.2354
  759MOL0     C 2335   7.543   5.324   1.755 -0.0871  0.5623  0.3395
  759MOL0     C 2336   7.546   5.425   1.858  0.0640  0.2372  0.4904
  759MOL0     C 2337   7.639   5.524   1.853  0.3376  0.1151 -0.5374
  759MOL0     O 2338   7.648   5.602   1.967  0.1757 -0.6794  0.0527
  759MOL0     C 2339   7.654   5.746   1.936  0.5123  0.3131  1.2320
  759MOL0     C 2340   7.583   5.818   2.049  1.1523 -0.4653  0.1246
  759MOL0     C 2341   7.652   5.806   2.188  0.2339  0.8958 -0.5508
  759MOL0     C 2342   7.614   5.915   2.289 -0.2715 -0.1246  0.4131
  759MOL0     C 2343   7.666   5.902   2.433 -0.2551  0.1599 -0.6338
  759MOL0     C 2344   7.819   5.906   2.446 -0.5711  0.8932  0.7051
  759MOL0     C 2345   7.856   5.818   2.564  0.0875 -0.1203 -0.6005
  759MOL0     C 2346   7.853   5.662   2.539 -0.0589  0.4084 -0.1514
  759MOL0     N 2347   7.955   5.625   2.438  0.4277 -0.5683 -0.2009
  759MOL0     C 2348   8.092   5.645   2.468  0.9618 -0.5133 -0.8222
  759MOL0     C 2349   8.159   5.618   2.356  0.3325  0.3050  0.1035
  759MOL0     C 2350   8.304   5.621   2.323  0.5293  0.1705 -0.9073
  759MOL0     C 2351   8.347   5.720   2.213  1.3502  0.3435  0.3718
  759MOL0     C 2352   8.381   5.663   2.077  0.3284 -0.2465  0.1273
  759MOL0     C 2353   8.272   5.577   2.008 -0.0776  1.4296 -0.3304
  759MOL0     O 2354   8.323   5.554   1.875  0.3843 -0.8943  0.0721
  759MOL0     C 2355   8.252   5.493   1.780 -0.3651 -0.3692  0.0282
  759MOL0     C 2356   8.310   5.473   1.654  0.7248  0.1152  0.0299
  759MOL0     C 2357   8.249   5.395   1.560  0.8204 -0.8868 -0.2694
  759MOL0     C 2358   8.126   5.331   1.591 -0.3181  1.1707 -0.0968
  759MOL0     C 2359   8.056   5.242   1.500  0.0314  0.3648 -0.2439
  759MOL0     O 2360   8.139   5.177   1.417 -1.0141 -0.0625  0.5483
  759MOL0     C 2361   8.089   5.100   1.310 -1.0000  0.4850  0.0245
  759MOL0     C 2362   7.966   5.101   1.250  0.9329 -0.8533 -0.8775
  759MOL0     C 2363   7.936   5.026   1.138 -0.4403  0.2453  1.0341
  759MOL0     C 2364   8.020   4.929   1.080 -0.0463  0.4007  1.5260
  759MOL0     O 2365   7.987   4.837   0.980 -0.3345 -0.5430 -0.4864
  759MOL0     C 2366   8.013   4.881   0.847  0.0395  0.7466 -0.9519
  759MOL0     C 2367   7.954   4.760   0.768 -1.4359 -1.1946  0.9236
  759MOL0     C 2368   7.813   4.722   0.817 -0.4957 -0.6396 -0.1002
  759MOL0     C 2369   7.763   4.584   0.763 -0.7082 -0.0348 -0.2913
  759MOL0     C 2370   7.651   4.592   0.671 -0.3585 -0.2170  0.8168
  759MOL0     C 2371   7.602   4.450   0.618 -1.3987  0.4909  0.6391
  759MOL0     C 2372   7.453   4.441   0.650 -0.0665 -0.3368  0.3422
  759MOL0     C 2373   7.379   4.318   0.600  0.2537 -0.1246 -0.8199
  759MOL0    Cl 2374   7.475   4.169   0.674 -0.0125  0.0755 -0.1720
  759MOL0     C 2375   8.156   4.941   1.132  1.0045  0.9084 -0.2649
  759MOL0     C 2376   8.184   5.021   1.248 -0.1193 -0.1305  0.3123
  759MOL0     O 2377   7.931   5.226   1.504  0.4273 -0.7113 -0.2211
  759MOL0     C 2378   8.055   5.373   1.706 -0.7956  0.1492 -0.1939
  759MOL0     C 2379   8.119   5.457   1.797 -0.6890 -0.3513 -1.0580
  759MOL0     N 2380   8.064   5.592   2.257 -0.9276  0.2943  0.1288
  759MOL0     N 2381   7.948   5.598   2.304  0.7588  0.2612 -0.9584
  759MOL0     C 2382   7.719   5.542   1.738  0.2718 -0.4626 -0.8247
  759MOL0     C 2383   7.714   5.453   1.628 -0.2901  0.1842  1.4565
  759MOL0     C 2384   7.620   5.025   1.456 -0.6762  0.6799  0.3827
  759MOL0     C 2385   7.515   5.061   1.366 -0.0080  0.2369 -0.2553
  759MOL0     C 2386   7.496   4.975   1.255 -0.4388  0.5143  0.8753
  759MOL0     C 2387   7.576   4.861   1.230 -0.1465  0.2315 -0.8727
  759MOL0     O 2388   7.576   4.768   1.131  0.8071 -0.3511  0.4132
  759MOL0     C 2389   7.480   4.790   1.032 -0.0238 -0.4273  0.8978
  759MOL0     C 2390   7.352   4.742   1.074 -0.1169  0.7953 -0.1710
  759MOL0     C 2391   7.364   4.585   1.102 -0.2793  1.5275 -0.0305
  759MOL0     C 2392   7.227   4.526   1.115 -0.5335  0.2715  0.1742
  759MOL0     C 2393   7.181   4.497   0.980  0.5714  0.6202  0.4502
  759MOL0     C 2394   7.161   4.483   0.858 -0.1118  0.4159 -1.1273
  759MOL0     C 2395   7.673   4.835   1.323 -0.0817  0.2576 -0.7663
  759MOL0     C 2396   7.696   4.911   1.439 -0.0906  0.1973  0.0602
  759MOL0     C 2397   7.807   4.880   1.524  0.2019 -0.9720 -0.3926
  759MOL0     H 2398   7.461   5.252   1.756  0.9960 -0.7696 -1.2398
  759MOL0     H 2399   7.488   5.431   1.949 -0.5793  0.6665  0.0534
  759MOL0     H 2400   7.756   5.785   1.945  0.6793  1.5362 -3.4368
  759MOL0     H 2401   7.614   5.774   1.838 -2.6272 -1.8894  1.7421
  759MOL0     H 2402   7.478   5.788   2.057  0.1776  2.5448 -0.1678
  759MOL0     H 2403   7.574   5.922   2.015  0.1201 -1.0032 -1.3243
  759MOL0     H 2404   7.760   5.795   2.175  0.4104  0.9334  0.7236
  759MOL0     H 2405   7.620   5.714   2.237  0.5814  1.2671  0.3949
  759MOL0     H 2406   7.657   6.007   2.248  0.0838 -0.8052 -0.7869
  759MOL0     H 2407   7.505   5.926   2.291 -0.2558  1.0051 -1.7888
  759MOL0     H 2408   7.621   5.980   2.494  1.1611  0.5292 -0.0085
  759MOL0     H 2409   7.631   5.802   2.462 -1.5753  1.2242  1.6584
  759MOL0     H 2410   7.862   5.864   2.355 -2.0476  1.1471 -0.1352
  759MOL0     H 2411   7.865   6.004   2.463  2.0421 -0.3730  1.4309
  759MOL0     H 2412   7.798   5.857   2.649  3.0887  2.5821  0.3947
  759MOL0     H 2413   7.961   5.844   2.581  0.1858  1.4928 -3.1831
  759MOL0     H 2414   7.876   5.609   2.632  1.0965 -2.9075 -2.1635
  759MOL0     H 2415   7.754   5.625   2.510  0.8293 -0.4632 -2.2313
  759MOL0     H 2416   8.132   5.686   2.560  1.7294 -0.2088 -1.2864
  759MOL0     H 2417   8.368   5.620   2.412 -3.6294  1.3312  2.4024
  759MOL0     H 2418   8.311   5.519   2.282 -0.6841 -0.4470  0.3609
  759MOL0     H 2419   8.259   5.780   2.186  2.5619  1.7617 -0.5337
  759MOL0     H 2420   8.422   5.792   2.247  2.1059  0.1749 -0.8838
  759MOL0     H 2421   8.474   5.606   2.074  0.3205 -0.2462 -0.2414
  759MOL0     H 2422   8.391   5.747   2.007 -2.8482  0.1793  0.0183
  759MOL0     H 2423   8.184   5.641   2.021 -0.3337  0.9930  0.0746
  759MOL0     H 2424   8.249   5.487   2.065 -0.8329  0.5975 -1.8926
  759MOL0     H 2425   8.414   5.498   1.636  0.7098 -0.1762 -0.4498
  759MOL0     H 2426   8.307   5.367   1.473 -0.7616 -0.2341 -1.5774
  759MOL0     H 2427   7.888   5.169   1.282  2.8836  0.4585  1.4671
  759MOL0     H 2428   7.837   5.020   1.094 -0.1218 -0.6094  0.4158
  759MOL0     H 2429   7.964   4.978   0.833 -1.6173  0.5309  2.3093
  759MOL0     H 2430   8.121   4.898   0.841 -0.2578  2.6268 -2.1672
  759MOL0     H 2431   7.957   4.773   0.660  1.6517 -0.6541  1.0067
  759MOL0     H 2432   8.027   4.682   0.790  0.6104  0.1614 -0.7484
  759MOL0     H 2433   7.790   4.724   0.924  1.4680 -0.0514  0.3450
  759MOL0     H 2434   7.754   4.806   0.778 -0.4615 -0.7186 -0.3221
  759MOL0     H 2435   7.732   4.515   0.841 -1.1870  1.0553  0.5166
  759MOL0     H 2436   7.848   4.542   0.709 -1.6350 -2.1649 -0.1803
  759MOL0     H 2437   7.671   4.652   0.582 -3.5454 -1.0067 -0.5762
  759MOL0     H 2438   7.576   4.640   0.733  2.4763  3.2301  1.9072
  759MOL0     H 2439   7.630   4.454   0.513 -1.3499 -0.1025  0.6262
  759MOL0     H 2440   7.666   4.373   0.661 -0.9340  0.3735 -0.2534
  759MOL0     H 2441   7.401   4.523   0.601  1.1214  0.6887  0.7292
  759MOL0     H 2442   7.433   4.459   0.756  1.9681  3.3898  0.2687
  759MOL0     H 2443   7.273   4.319   0.627  0.4512  1.0839  0.0127
  759MOL0     H 2444   7.373   4.327   0.491 -1.1674  3.6287 -0.6022
  759MOL0     H 2445   8.232   4.883   1.080  0.8932  0.1134  0.4212
  759MOL0     H 2446   8.278   5.030   1.301 -1.3017  0.3459  2.4595
  759MOL0     H 2447   7.959   5.334   1.736 -0.0729 -3.6058 -2.2146
  759MOL0     H 2448   8.070   5.490   1.888  2.3451  0.8221  0.3170
  759MOL0     H 2449   7.791   5.623   1.742 -2.0269  2.0270 -4.3322
  759MOL0     H 2450   7.778   5.460   1.542 -1.0750 -2.5038  0.5260
  759MOL0     H 2451   7.452   5.148   1.381  0.4356  0.6633 -0.8224
  759MOL0     H 2452   7.404   4.998   1.203  0.0227 -0.9628 -0.6855
  759MOL0     H 2453   7.519   4.742   0.942  1.6901 -0.8438  1.8227
  759MOL0     H 2454   7.471   4.896   1.004 -1.3789 -0.1896  2.1114
  759MOL0     H 2455   7.293   4.777   0.988  0.5154  1.9039 -0.1836
  759MOL0     H 2456   7.317   4.791   1.165  3.3124 -0.1938  1.8451
  759MOL0     H 2457   7.404   4.576   1.204  0.9816 -2.5027 -0.7172
  759MOL0     H 2458   7.425   4.524   1.035  2.0784 -0.9148  3.9027
  759MOL0     H 2459   7.227   4.426   1.160  0.2797 -0.6079 -1.6776
  759MOL0     H 2460   7.148   4.587   1.160  0.3110 -0.1681  2.3687
  759MOL0     H 2461   7.148   4.471   0.752 -2.6924 -3.8744 -0.5801
  759MOL0     H 2462   7.741   4.754   1.299 -0.7540 -0.4429 -0.3365
  759MOL0     H 2463   7.887   4.952   1.508 -1.3123  0.6443 -0.9599
  759MOL0     H 2464   7.771   4.875   1.628 -0.0288  0.1769 -0.4085
  759MOL0     H 2465   7.849   4.782   1.499  0.8245 -0.0266 -3.3615
  760MOL0     O 2466   0.292   1.709   2.696  0.0215 -0.2342 -0.0598
  760MOL0     C 2467   0.245   1.666   2.598  1.6049 -0.0483  0.2628
  760MOL0     O 2468   0.146   1.567   2.593 -0.2782 -0.0814  0.2975
  760MOL0     C 2469   0.073   1.558   2.705 -0.0759  0.1174 -0.1232
  760MOL0     C 2470   0.028   1.647   2.799 -0.6045 -0.1497 -0.5917
  760MOL0     C 2471  -0.054   1.634   2.909  0.2370  0.0583 -1.0604
  760MOL0     C 2472  -0.122   1.515   2.920 -0.1627 -0.0790 -0.5422
  760MOL0     O 2473  -0.211   1.479   3.016 -0.2275 -0.0374 -0.4223
  760MOL0     C 2474  -0.245   1.574   3.113 -0.1892 -0.2787 -0.0375
  760MOL0     C 2475  -0.335   1.528   3.231 -0.0182  0.7365 -0.2933
  760MOL0     C 2476  -0.363   1.630   3.342 -0.2823  0.4379 -0.4296
  760MOL0     C 2477  -0.497   1.600   3.408 -0.0860 -0.2783 -0.5213
  760MOL0     C 2478  -0.536   1.703   3.527 -0.1465  0.4269  0.3774
  760MOL0     C 2479  -0.449   1.663   3.647 -0.4049  0.0596 -0.2236
  760MOL0     C 2480  -0.499   1.723   3.773 -0.2859 -0.2936  0.3968
  760MOL0     C 2481  -0.433   1.666   3.899  0.4089  1.1366 -0.5559
  760MOL0     N 2482  -0.305   1.726   3.938 -0.2233  0.3378 -0.3885
  760MOL0     C 2483  -0.272   1.860   3.924  0.5463 -0.6884 -0.2469
  760MOL0     C 2484  -0.148   1.879   3.966  0.9440  0.5166 -0.7099
  760MOL0     C 2485  -0.075   2.008   3.977  1.1049  0.2920  0.9831
  760MOL0     C 2486  -0.154   2.106   4.075 -0.2516  0.6466 -0.9865
  760MOL0     C 2487  -0.061   2.211   4.129 -0.6378  0.3290  0.0727
  760MOL0     C 2488  -0.020   2.189   4.274 -0.5181  0.7519  0.5919
  760MOL0     O 2489   0.044   2.062   4.294  0.8777  0.3775  0.3797
  760MOL0     C 2490   0.108   2.066   4.411 -0.3158  0.8622 -0.6691
  760MOL0     C 2491   0.243   2.106   4.418  0.0880  0.0948 -0.1774
  760MOL0     C 2492   0.316   2.122   4.530  0.0575  0.4867 -0.4520
  760MOL0     C 2493   0.262   2.074   4.656 -0.6553  0.5113 -0.6072
  760MOL0     C 2494   0.356   2.055   4.768 -0.6125  0.1058 -1.2953
  760MOL0     O 2495   0.490   2.082   4.750 -0.2515 -0.1988 -0.7627
  760MOL0     C 2496   0.584   2.071   4.857 -0.0698  0.1661  0.8977
  760MOL0     C 2497   0.710   2.035   4.808 -0.1842 -0.1539 -0.2975
  760MOL0     C 2498   0.811   2.016   4.904 -0.6392 -0.3386  0.0331
  760MOL0     C 2499   0.788   2.054   5.034  0.1020 -0.1384  0.6967
  760MOL0     O 2500   0.894   2.022   5.114  0.5183 -0.5472 -0.5652
  760MOL0     C 2501   0.929   2.124   5.208 -0.3123  0.1289 -0.5048
  760MOL0     C 2502   1.039   2.069   5.292  0.1266 -0.0995  0.9406
  760MOL0     C 2503   1.087   2.174   5.402 -0.0772 -0.0099  0.1040
  760MOL0     C 2504   1.004   2.164   5.534 -0.4348  0.2623 -0.1370
  760MOL0     C 2505   1.006   2.044   5.627 -0.0997  0.5069 -0.3166
  760MOL0     C 2506   1.146   2.046   5.703  1.2171 -0.0762 -0.5854
  760MOL0     C 2507   1.163   1.926   5.800  0.6366  0.4652  0.3956
  760MOL0     C 2508   1.300   1.917   5.855 -0.5553  0.0870  0.0882
  760MOL0    Cl 2509   1.305   1.823   5.999  0.3191  0.1437 -0.5629
  760MOL0     C 2510   0.662   2.100   5.076  0.1626  0.0778 -0.2374
  760MOL0     C 2511   0.565   2.113   4.984 -0.1943  0.0817 -0.2360
  760MOL0     O 2512   0.308   2.030   4.879  0.2859  0.8460  0.6184
  760MOL0     C 2513   0.132   2.035   4.661  0.2090  0.5699  0.5986
  760MOL0     C 2514   0.048   2.029   4.542 -0.1143 -0.1257  0.1786
  760MOL0     N 2515  -0.100   1.760   3.998  0.3919  0.8876 -0.0342
  760MOL0     N 2516  -0.192   1.663   3.980  0.1630 -0.7021 -0.6984
  760MOL0     C 2517  -0.092   1.416   2.820  0.2471  0.2394  0.3842
  760MOL0     C 2518   0.001   1.438   2.714  0.4306 -0.0765  0.2916
  760MOL0     C 2519   0.309   1.692   2.469 -0.4971 -0.6954 -0.0260
  760MOL0     C 2520   0.214   1.689   2.363 -0.2591 -0.1704  0.3061
  760MOL0     C 2521   0.258   1.721   2.226  0.9227  0.2896 -0.4854
  760MOL0     C 2522   0.393   1.737   2.190 -0.8304 -0.1532 -0.0652
  760MOL0     O 2523   0.427   1.778   2.058 -0.6686 -0.3362 -0.1064
  760MOL0     C 2524   0.520   1.884   2.033  0.6190  0.2945  0.9312
  760MOL0     C 2525   0.448   2.019   2.044  0.0536  0.5422 -0.4636
  760MOL0     C 2526   0.355   2.050   1.928 -0.6546 -1.0615  0.5934
  760MOL0     C 2527   0.430   2.020   1.797  0.1514 -0.3123 -0.2648
  760MOL0     C 2528   0.364   2.076   1.674 -0.0801 -0.0074 -0.1078
  760MOL0     C 2529   0.315   2.115   1.568  0.0471 -0.9856  0.1659
  760MOL0     C 2530   0.488   1.739   2.300 -0.2553 -0.1779  0.1290
  760MOL0     C 2531   0.444   1.723   2.437 -0.7454 -0.5134  0.3781
  760MOL0     C 2532   0.545   1.744   2.547  0.3842 -0.2451  0.3837
  760MOL0     H 2533   0.055   1.751   2.781  0.6705 -0.3603 -0.0316
  760MOL0     H 2534  -0.068   1.713   2.982 -0.2884 -0.0330 -1.0616
  760MOL0     H 2535  -0.150   1.610   3.154  0.8506 -1.1480 -1.6093
  760MOL0     H 2536  -0.297   1.652   3.057 -0.3153  0.9410  1.7082
  760MOL0     H 2537  -0.290   1.438   3.275 -1.2344 -0.6932 -1.8142
  760MOL0     H 2538  -0.432   1.497   3.190  1.4753 -1.2736 -2.6406
  760MOL0     H 2539  -0.365   1.734   3.308 -0.8216  0.3080 -0.8117
  760MOL0     H 2540  -0.284   1.621   3.417 -0.4406  2.5318  0.0515
  760MOL0     H 2541  -0.570   1.612   3.328 -1.6188 -2.1377  0.5173
  760MOL0     H 2542  -0.500   1.500   3.453  3.9474 -0.4401 -0.2937
  760MOL0     H 2543  -0.531   1.804   3.485  4.3005 -0.6495 -2.3355
  760MOL0     H 2544  -0.639   1.682   3.557 -1.0884  3.8810 -0.0161
  760MOL0     H 2545  -0.448   1.554   3.646 -0.9273  0.0176  1.2309
  760MOL0     H 2546  -0.350   1.709   3.643 -0.5020  0.2778 -4.3781
  760MOL0     H 2547  -0.607   1.705   3.779 -0.6484  1.6639  0.5196
  760MOL0     H 2548  -0.498   1.833   3.770 -0.9661  0.0939  5.3386
  760MOL0     H 2549  -0.503   1.681   3.981  0.8612  1.8855 -0.3073
  760MOL0     H 2550  -0.416   1.559   3.880 -1.4617  0.6232  0.4656
  760MOL0     H 2551  -0.325   1.940   3.874 -0.9339 -1.8674 -0.6297
  760MOL0     H 2552   0.028   1.996   4.010  1.5029 -0.2691 -0.3971
  760MOL0     H 2553  -0.077   2.060   3.881 -0.6480 -0.5363  0.5292
  760MOL0     H 2554  -0.239   2.149   4.022 -0.8034  0.7467 -0.0527
  760MOL0     H 2555  -0.209   2.058   4.157  0.4754  1.1525 -0.1765
  760MOL0     H 2556  -0.111   2.308   4.125  0.8273  1.1281  0.2045
  760MOL0     H 2557   0.024   2.222   4.061 -1.5407  1.2588 -0.9314
  760MOL0     H 2558  -0.111   2.188   4.336  0.0539 -1.9366  1.5219
  760MOL0     H 2559   0.049   2.271   4.297  2.1358 -1.6483  1.7422
  760MOL0     H 2560   0.302   2.136   4.333  4.0286  1.2043  2.6639
  760MOL0     H 2561   0.413   2.168   4.513 -0.8391  2.4402 -0.5329
  760MOL0     H 2562   0.719   2.016   4.701  0.2790 -0.6695 -0.1738
  760MOL0     H 2563   0.912   1.987   4.876  0.3303 -0.1633  2.9880
  760MOL0     H 2564   0.963   2.212   5.152 -4.5661  1.6574 -1.0732
  760MOL0     H 2565   0.848   2.151   5.277 -0.9385  1.7504 -1.8059
  760MOL0     H 2566   1.009   1.973   5.335  0.2145 -1.0390 -0.9981
  760MOL0     H 2567   1.117   2.036   5.222 -1.0118 -0.9181  0.0337
  760MOL0     H 2568   1.189   2.141   5.425  0.3278  0.4387 -0.9738
  760MOL0     H 2569   1.093   2.269   5.348  0.9269  1.2098  2.2032
  760MOL0     H 2570   0.902   2.190   5.504 -0.8827 -2.5382 -1.3637
  760MOL0     H 2571   1.039   2.244   5.600  1.1809 -1.8474  1.6828
  760MOL0     H 2572   0.978   1.957   5.567  1.0136  0.2237 -0.4442
  760MOL0     H 2573   0.921   2.055   5.696  0.5892 -0.9276  0.8233
  760MOL0     H 2574   1.230   2.047   5.633  2.6347 -0.4750  1.0411
  760MOL0     H 2575   1.136   2.138   5.762 -1.4644  0.0272 -1.0906
  760MOL0     H 2576   1.145   1.834   5.743  1.0959 -0.2191  1.3073
  760MOL0     H 2577   1.091   1.936   5.881 -1.0746  1.7191 -1.1995
  760MOL0     H 2578   1.374   1.879   5.783  2.5472 -0.8258  3.4882
  760MOL0     H 2579   1.324   2.016   5.894 -3.9823  0.0552  2.7213
  760MOL0     H 2580   0.646   2.123   5.181  1.6773  3.0080 -0.5541
  760MOL0     H 2581   0.473   2.165   5.013 -0.5035 -0.5363 -0.0967
  760MOL0     H 2582   0.096   1.976   4.745 -1.3875 -2.1403 -1.8495
  760MOL0     H 2583  -0.057   2.004   4.545  0.1860 -1.4234  0.7924
  760MOL0     H 2584  -0.162   1.333   2.818  0.9898 -0.4606  1.7353
  760MOL0     H 2585   0.028   1.362   2.641  0.2655 -0.9741  1.1434
  760MOL0     H 2586   0.106   1.678   2.371 -0.5318 -1.2274 -3.0838
  760MOL0     H 2587   0.180   1.691   2.157  0.4610 -4.0120  1.5723
  760MOL0     H 2588   0.570   1.854   1.940 -0.1437 -0.3789  0.7256
  760MOL0     H 2589   0.594   1.897   2.113  1.9262  0.1570 -0.2035
  760MOL0     H 2590   0.523   2.097   2.056  1.1180 -0.6543  1.0800
  760MOL0     H 2591   0.393   2.021   2.139  0.1467 -0.5997 -0.3682
  760MOL0     H 2592   0.329   2.156   1.927 -0.0283 -0.8224  3.0434
  760MOL0     H 2593   0.260   1.996   1.933 -1.3124 -0.2998 -2.0834
  760MOL0     H 2594   0.531   2.059   1.807  0.9840 -2.4398  0.2330
  760MOL0     H 2595   0.435   1.912   1.778 -0.8385 -0.3635 -0.2999
  760MOL0     H 2596   0.275   2.145   1.474  3.9259 -1.8046 -1.9314
  760MOL0     H 2597   0.592   1.759   2.273 -0.8796  0.2666 -2.1520
  760MOL0     H 2598   0.528   1.669   2.624  3.0331 -3.0712 -1.5544
  760MOL0     H 2599   0.650   1.741   2.517 -0.1465  1.2471 -1.8688
  760MOL0     H 2600   0.522   1.840   2.594  1.0707  0.2084 -0.1867
  761MOL0     O 2601   6.699   0.360   6.241  0.3427  0.1484 -0.2535
  761MOL0     C 2602   6.623   0.366   6.148  0.0439  0.3095  0.0562
  761MOL0     O 2603   6.540   0.268   6.107  0.1688 -0.1830  0.4357
  761MOL0     C 2604   6.564   0.145   6.156  0.1017 -0.5950 -0.3837
  761MOL0     C 2605   6.608   0.045   6.065 -0.7681 -0.1293  0.1014
  761MOL0     C 2606   6.632  -0.090   6.107 -0.3947 -0.0259 -0.2195
  761MOL0     C 2607   6.622  -0.120   6.249  0.1603 -0.4901  0.8218
  761MOL0     O 2608   6.669  -0.240   6.294 -0.5425  0.8821 -0.3227
  761MOL0     C 2609   6.739  -0.248   6.416 -0.2377 -0.1906  0.5407
  761MOL0     C 2610   6.739  -0.400   6.449  0.2288  0.1536 -0.2994
  761MOL0     C 2611   6.834  -0.445   6.572 -0.6045 -0.6612 -0.4165
  761MOL0     C 2612   6.785  -0.404   6.714 -0.9350 -0.3225  0.0795
  761MOL0     C 2613   6.861  -0.472   6.829  0.4782  1.2238 -0.6332
  761MOL0     C 2614   7.011  -0.431   6.832  0.1423  0.0967 -0.2550
  761MOL0     C 2615   7.074  -0.502   6.957  0.5248 -0.2274  0.0462
  761MOL0     C 2616   7.210  -0.448   6.985 -0.2054 -0.4485  0.3625
  761MOL0     N 2617   7.214  -0.303   7.010  0.4267 -0.5686  0.1186
  761MOL0     C 2618   7.140  -0.232   7.105  0.0728 -0.4776  0.4384
  761MOL0     C 2619   7.183  -0.099   7.097  0.9676 -0.0033 -0.9533
  761MOL0     C 2620   7.152   0.032   7.174 -0.7651  0.2120  0.2495
  761MOL0     C 2621   7.243   0.152   7.140  0.0848 -0.1707 -0.0618
  761MOL0     C 2622   7.377   0.147   7.217  0.0987  0.1452  0.5403
  761MOL0     C 2623   7.452   0.286   7.209  0.7117 -0.1210  0.6360
  761MOL0     O 2624   7.573   0.289   7.285 -1.2594  0.7286  0.4106
  761MOL0     C 2625   7.661   0.393   7.276  0.4599  0.3805 -0.1639
  761MOL0     C 2626   7.788   0.375   7.335  0.0095  0.9042  0.6622
  761MOL0     C 2627   7.874   0.486   7.367  0.2203  0.6237  0.6491
  761MOL0     C 2628   7.832   0.611   7.336 -0.4793 -0.0235  0.4248
  761MOL0     C 2629   7.910   0.734   7.359 -0.3471  0.5241  0.2025
  761MOL0     O 2630   7.835   0.852   7.366  0.4805 -0.0180  0.0363
  761MOL0     C 2631   7.891   0.975   7.389  0.1121  0.3890 -0.2288
  761MOL0     C 2632   7.897   1.069   7.290  0.3816  0.5280 -0.0614
  761MOL0     C 2633   7.940   1.194   7.309  1.1458  0.0803  0.6619
  761MOL0     C 2634   7.996   1.234   7.429  0.5005 -1.0711 -1.1000
  761MOL0     O 2635   8.062   1.357   7.445  0.6714  1.2107 -0.5523
  761MOL0     C 2636   8.058   1.438   7.330  0.1680  0.6866  0.4848
  761MOL0     C 2637   8.148   1.562   7.373  0.3461  0.9702  0.4666
  761MOL0     C 2638   8.189   1.648   7.250 -0.6698 -0.1040  1.6366
  761MOL0     C 2639   8.264   1.766   7.295 -0.8092  0.6149  0.0288
  761MOL0     C 2640   8.325   1.847   7.176  0.1244 -0.4168  0.7747
  761MOL0     C 2641   8.223   1.928   7.098 -0.4158  0.2586  0.4156
  761MOL0     C 2642   8.158   2.051   7.167 -0.3562  0.3620 -0.5854
  761MOL0     C 2643   8.250   2.153   7.228  0.4084 -0.1737 -0.5562
  761MOL0    Cl 2644   8.344   2.234   7.091 -0.5962 -0.0641 -0.2445
  761MOL0     C 2645   7.985   1.142   7.538 -0.4270  0.3067 -0.6963
  761MOL0     C 2646   7.932   1.016   7.516  1.1402  0.0693 -0.8334
  761MOL0     O 2647   8.033   0.725   7.373 -0.1031 -0.5016 -0.4934
  761MOL0     C 2648   7.710   0.625   7.267  0.8634  0.4009 -0.4774
  761MOL0     C 2649   7.623   0.518   7.241 -0.4180  0.4666 -0.5071
  761MOL0     N 2650   7.277  -0.098   6.999 -0.1362 -0.5274  0.1546
  761MOL0     N 2651   7.308  -0.217   6.954  0.4359 -0.1638  0.1125
  761MOL0     C 2652   6.571  -0.016   6.342 -0.5566  0.4169 -0.3982
  761MOL0     C 2653   6.536   0.111   6.291  0.2540 -0.1525 -0.2625
  761MOL0     C 2654   6.620   0.485   6.063 -0.2256 -0.7153  1.5281
  761MOL0     C 2655   6.528   0.503   5.961  1.1997 -0.3596 -0.4087
  761MOL0     C 2656   6.510   0.628   5.899 -0.3977  0.7953 -0.1389
  761MOL0     C 2657   6.591   0.736   5.926 -0.8587  0.4563 -0.1788
  761MOL0     O 2658   6.551   0.845   5.856 -0.4522 -0.9738  0.3608
  761MOL0     C 2659   6.570   0.977   5.913 -0.0904 -0.2758  0.4649
  761MOL0     C 2660   6.689   1.050   5.851 -0.0351 -0.5963 -0.6419
  761MOL0     C 2661   6.651   1.196   5.841 -0.6556  0.4605 -0.0811
  761MOL0     C 2662   6.761   1.289   5.781  0.6856  0.0734 -0.4687
  761MOL0     C 2663   6.788   1.252   5.644  0.8079  0.0928  0.4086
  761MOL0     C 2664   6.782   1.200   5.533 -1.0071  0.2176  0.3213
  761MOL0     C 2665   6.689   0.718   6.022 -0.2896 -1.7776  0.0872
  761MOL0     C 2666   6.712   0.594   6.086 -0.0327 -0.8774 -0.2592
  761MOL0     C 2667   6.828   0.600   6.183 -0.0025 -0.0270 -0.6307
  761MOL0     H 2668   6.622   0.070   5.960 -1.8051 -0.4315 -0.1183
  761MOL0     H 2669   6.663  -0.166   6.036  0.6322 -0.2244  0.4181
  761MOL0     H 2670   6.840  -0.215   6.392  0.0928 -1.2956  0.3507
  761MOL0     H 2671   6.698  -0.197   6.503  1.4074  1.0376  0.6313
  761MOL0     H 2672   6.774  -0.453   6.360  2.4905 -1.2384  1.3169
  761MOL0     H 2673   6.639  -0.443   6.464 -0.2472  0.2322 -2.7919
  761MOL0     H 2674   6.933  -0.399   6.561 -0.1031  0.3462  5.1802
  761MOL0     H 2675   6.843  -0.555   6.572 -3.5172 -0.9682 -1.3696
  761MOL0     H 2676   6.779  -0.296   6.727 -1.8417 -0.1447 -1.5915
  761MOL0     H 2677   6.687  -0.451   6.707 -0.7717 -0.6545 -0.0090
  761MOL0     H 2678   6.813  -0.435   6.920 -0.0804 -0.2217 -0.3089
  761MOL0     H 2679   6.855  -0.581   6.828 -2.1045  1.3095 -0.6699
  761MOL0     H 2680   7.066  -0.453   6.740  0.7114  2.0174 -0.4123
  761MOL0     H 2681   7.011  -0.321   6.834  2.2961  0.2041 -2.2604
  761MOL0     H 2682   7.081  -0.610   6.936 -0.6107 -0.6785  1.7687
  761MOL0     H 2683   7.012  -0.499   7.048 -1.8092 -0.0365 -1.4634
  761MOL0     H 2684   7.268  -0.494   7.066  3.1800  0.3381 -1.4107
  761MOL0     H 2685   7.278  -0.461   6.900  0.5590 -2.3298  1.2066
  761MOL0     H 2686   7.072  -0.282   7.172 -0.4696  0.3248  0.5005
  761MOL0     H 2687   7.049   0.063   7.154  0.0364  2.2873 -0.8740
  761MOL0     H 2688   7.165   0.021   7.282 -2.4776  1.0282  0.5627
  761MOL0     H 2689   7.251   0.165   7.032 -1.8816  0.4431 -0.1682
  761MOL0     H 2690   7.189   0.237   7.183  2.1596  1.1862  0.0044
  761MOL0     H 2691   7.434   0.060   7.183 -3.8580 -2.2486 -0.5123
  761MOL0     H 2692   7.359   0.144   7.325  0.5905 -0.6781  0.6038
  761MOL0     H 2693   7.391   0.369   7.245  2.1150  0.8540  0.8283
  761MOL0     H 2694   7.489   0.304   7.108 -3.7470  2.4288 -0.7825
  761MOL0     H 2695   7.817   0.270   7.335  0.4784  0.9862 -1.2433
  761MOL0     H 2696   7.977   0.472   7.398  0.7895  0.3371 -1.2653
  761MOL0     H 2697   7.860   1.029   7.196 -0.2156  0.8110  0.0471
  761MOL0     H 2698   7.932   1.264   7.226  0.5453  0.8981  1.3890
  761MOL0     H 2699   8.106   1.388   7.245  2.4675  3.0687  0.2600
  761MOL0     H 2700   7.958   1.478   7.307  0.6692  1.8562  0.2802
  761MOL0     H 2701   8.090   1.620   7.445  2.9615  0.7484  2.9325
  761MOL0     H 2702   8.246   1.534   7.413  0.3274 -0.3718 -0.3806
  761MOL0     H 2703   8.246   1.579   7.188 -0.7583  0.6583  0.6990
  761MOL0     H 2704   8.101   1.679   7.194 -0.8310  0.2365  2.0725
  761MOL0     H 2705   8.346   1.725   7.354 -1.7505  1.2633  1.8644
  761MOL0     H 2706   8.209   1.840   7.354  2.8554  4.6469 -1.0805
  761MOL0     H 2707   8.375   1.779   7.106 -1.8040 -0.4595 -0.6513
  761MOL0     H 2708   8.411   1.906   7.208  0.9445 -1.8733  1.3175
  761MOL0     H 2709   8.267   1.962   7.003  2.6532  3.1557  2.6167
  761MOL0     H 2710   8.141   1.860   7.075  0.9912 -2.0497  1.8269
  761MOL0     H 2711   8.092   2.016   7.247  1.6166  1.2491  1.5827
  761MOL0     H 2712   8.091   2.097   7.095 -3.1155 -1.8531  0.4037
  761MOL0     H 2713   8.186   2.220   7.287  2.5195 -0.2755  2.0289
  761MOL0     H 2714   8.324   2.107   7.294 -1.1312 -0.4245  1.0949
  761MOL0     H 2715   8.037   1.164   7.631 -2.2989  0.4321  0.3711
  761MOL0     H 2716   7.932   0.942   7.596  2.4350  1.4667  0.5221
  761MOL0     H 2717   7.661   0.718   7.240 -1.0979 -1.6208 -4.9246
  761MOL0     H 2718   7.527   0.530   7.193  0.9208  0.8710 -3.2633
  761MOL0     H 2719   6.564  -0.031   6.449 -2.8084  1.1105 -0.3861
  761MOL0     H 2720   6.491   0.174   6.367  3.6889 -1.6322  3.3091
  761MOL0     H 2721   6.462   0.421   5.934  3.5518 -1.5977 -2.7928
  761MOL0     H 2722   6.431   0.644   5.826  0.0227  0.3323 -0.7032
  761MOL0     H 2723   6.584   0.979   6.021  1.1611  2.9951  0.3498
  761MOL0     H 2724   6.473   1.022   5.888 -2.1836 -3.0089  2.9162
  761MOL0     H 2725   6.709   1.017   5.749 -2.4733  2.4083 -2.2442
  761MOL0     H 2726   6.780   1.048   5.913  0.4177 -3.2802 -1.2843
  761MOL0     H 2727   6.633   1.225   5.945  0.6056  0.7248  0.0926
  761MOL0     H 2728   6.560   1.201   5.782 -0.9688  1.4709  0.4582
  761MOL0     H 2729   6.716   1.388   5.764 -0.8994 -0.9169 -2.5926
  761MOL0     H 2730   6.852   1.291   5.842 -0.1851 -0.5024  0.9072
  761MOL0     H 2731   6.783   1.153   5.436 -2.3621  1.5139 -0.3482
  761MOL0     H 2732   6.747   0.809   6.031 -4.3654  1.3851 -2.0641
  761MOL0     H 2733   6.896   0.684   6.164  5.1414 -3.7100 -0.5718
  761MOL0     H 2734   6.789   0.598   6.285 -0.3909 -1.3813 -0.7849
  761MOL0     H 2735   6.896   0.515   6.173 -1.7912 -1.3922 -1.9868
  762MOL0     O 2736   5.224   8.177  11.215  0.1480 -0.2343  0.3035
  762MOL0     C 2737   5.215   8.286  11.255  0.6508  0.8280 -0.6827
  762MOL0     O 2738   5.307   8.381  11.250 -0.7577 -0.2397  0.2641
  762MOL0     C 2739   5.427   8.367  11.186 -0.3784 -0.5518 -0.4833
  762MOL0     C 2740   5.451   8.290  11.071 -0.6230 -0.0661 -0.4458
  762MOL0     C 2741   5.570   8.310  11.000  0.2077  1.0512 -0.3377
  762MOL0     C 2742   5.672   8.396  11.044  0.0231 -0.5971  0.1844
  762MOL0     O 2743   5.798   8.418  10.984 -0.4478  0.0150  0.1088
  762MOL0     C 2744   5.809   8.385  10.841  0.4967  0.5548 -0.2504
  762MOL0     C 2745   5.939   8.430  10.808 -0.3691  0.0377 -0.6225
  762MOL0     C 2746   5.979   8.415  10.659  0.0022  0.0418 -0.1467
  762MOL0     C 2747   6.104   8.502  10.607  0.6759 -0.4688 -1.3524
  762MOL0     C 2748   6.089   8.650  10.631  1.2356 -0.3759  0.4493
  762MOL0     C 2749   6.189   8.721  10.530 -0.1035 -0.6696 -0.0037
  762MOL0     C 2750   6.121   8.804  10.420 -0.5998  0.2552 -0.3631
  762MOL0     C 2751   6.187   8.934  10.396 -0.1238  0.3139  0.2114
  762MOL0     N 2752   6.339   8.932  10.375 -0.5715 -0.0179 -0.7380
  762MOL0     C 2753   6.404   8.832  10.298  0.6617 -0.3952 -0.7174
  762MOL0     C 2754   6.537   8.842  10.332 -0.9518  0.7656 -0.2855
  762MOL0     C 2755   6.651   8.754  10.261  0.5776 -0.3583 -0.9883
  762MOL0     C 2756   6.614   8.613  10.214  0.2058 -0.8146 -0.3612
  762MOL0     C 2757   6.711   8.538  10.123  0.3890 -0.3149  0.1311
  762MOL0     C 2758   6.675   8.396  10.076 -0.1389 -0.1808  0.9040
  762MOL0     O 2759   6.545   8.410  10.002 -0.4372 -1.3607  0.0752
  762MOL0     C 2760   6.510   8.307   9.921  0.1608  0.8907  0.0774
  762MOL0     C 2761   6.514   8.178   9.967  0.1187 -0.2676 -0.4831
  762MOL0     C 2762   6.466   8.078   9.886 -0.3195  0.1010 -0.1964
  762MOL0     C 2763   6.417   8.101   9.759  0.4214  0.2934 -0.0403
  762MOL0     C 2764   6.365   7.985   9.676  0.4144  1.7734  0.2760
  762MOL0     O 2765   6.383   7.862   9.744  0.2286  0.0761 -0.5752
  762MOL0     C 2766   6.338   7.737   9.701 -0.1274  0.1171 -0.0922
  762MOL0     C 2767   6.317   7.706   9.566  0.5661  0.9594  0.6324
  762MOL0     C 2768   6.269   7.578   9.527  0.6338  1.0074  0.2101
  762MOL0     C 2769   6.246   7.476   9.621  0.4446 -0.0280  0.0529
  762MOL0     O 2770   6.190   7.353   9.581 -0.3450  0.6121 -0.3460
  762MOL0     C 2771   6.210   7.309   9.441 -0.7025  0.0524 -0.5237
  762MOL0     C 2772   6.079   7.333   9.363  0.2689  0.0650 -0.0060
  762MOL0     C 2773   6.101   7.299   9.221  0.1374  0.6418 -0.0446
  762MOL0     C 2774   6.004   7.365   9.122  0.0269  0.1829  0.4358
  762MOL0     C 2775   6.009   7.520   9.118 -0.0525 -0.8566 -0.2776
  762MOL0     C 2776   5.925   7.578   9.007 -0.6302  0.2059  0.5668
  762MOL0     C 2777   5.950   7.734   9.000  0.0941 -0.2906 -0.1179
  762MOL0     C 2778   5.869   7.807   8.892  0.5253 -0.5221  0.1268
  762MOL0    Cl 2779   5.713   7.726   8.873  0.0453  0.5296  0.2141
  762MOL0     C 2780   6.288   7.505   9.754  0.4102 -0.8422 -0.3850
  762MOL0     C 2781   6.331   7.639   9.789  0.2189  0.4147 -0.0156
  762MOL0     O 2782   6.315   7.992   9.562 -0.5067  0.3424 -0.1195
  762MOL0     C 2783   6.415   8.234   9.709 -0.5271  0.1063  0.0679
  762MOL0     C 2784   6.465   8.335   9.794  0.6358  0.0279 -0.2250
  762MOL0     N 2785   6.549   8.947  10.423 -0.2152  0.0746 -0.7723
  762MOL0     N 2786   6.427   8.999  10.458 -0.5208 -0.0362 -0.7256
  762MOL0     C 2787   5.650   8.473  11.160  0.0978 -0.6416 -0.8747
  762MOL0     C 2788   5.525   8.464  11.230  0.7666  0.4799  0.1815
  762MOL0     C 2789   5.079   8.327  11.306 -0.3998 -0.0333 -0.4087
  762MOL0     C 2790   5.055   8.468  11.323 -0.2364  0.4581  0.0171
  762MOL0     C 2791   4.932   8.515  11.366 -0.3674 -0.4106  0.7977
  762MOL0     C 2792   4.832   8.426  11.399  0.3666  0.5670 -0.5500
  762MOL0     O 2793   4.710   8.483  11.444  0.0739  0.2158 -0.3786
  762MOL0     C 2794   4.585   8.411  11.465  0.1695  0.2672 -0.2523
  762MOL0     C 2795   4.514   8.365  11.332  0.3108 -0.4390  0.0010
  762MOL0     C 2796   4.380   8.302  11.352 -0.2779 -0.5052 -0.3292
  762MOL0     C 2797   4.268   8.397  11.387 -0.2769  0.5131  0.7867
  762MOL0     C 2798   4.138   8.332  11.400  0.2013  0.0675  0.4900
  762MOL0     C 2799   4.019   8.285  11.420 -0.3679 -0.3651 -0.1464
  762MOL0     C 2800   4.849   8.291  11.397  0.0745 -0.7870  0.0203
  762MOL0     C 2801   4.975   8.241  11.352 -0.6975 -0.0646  0.7364
  762MOL0     C 2802   4.989   8.093  11.375 -0.7397  0.7105  0.2790
  762MOL0     H 2803   5.394   8.203  11.039  0.2174 -2.1429  3.2027
  762MOL0     H 2804   5.575   8.270  10.899  1.5801  0.3305 -0.0108
  762MOL0     H 2805   5.801   8.279  10.817  0.3792  0.1545  1.4151
  762MOL0     H 2806   5.729   8.438  10.788  0.8093  0.1579 -1.1522
  762MOL0     H 2807   6.020   8.371  10.852  2.3034 -1.7261 -6.8435
  762MOL0     H 2808   5.958   8.534  10.836  1.9689  0.2436 -2.6602
  762MOL0     H 2809   5.889   8.440  10.602 -0.3689 -0.5336  0.1809
  762MOL0     H 2810   5.998   8.308  10.650  0.8110 -0.0074  1.6991
  762MOL0     H 2811   6.190   8.469  10.665 -0.3754 -0.4099  0.3276
  762MOL0     H 2812   6.121   8.480  10.501  0.9909  1.8213 -1.8305
  762MOL0     H 2813   5.986   8.669  10.601  1.3395 -1.8096 -0.9639
  762MOL0     H 2814   6.099   8.681  10.735  1.9647  2.1058 -0.2929
  762MOL0     H 2815   6.244   8.787  10.598 -2.8181 -2.2358  4.0509
  762MOL0     H 2816   6.263   8.653  10.487 -0.7516 -2.5718  1.7456
  762MOL0     H 2817   6.019   8.814  10.459 -0.6783 -0.8970 -0.2438
  762MOL0     H 2818   6.135   8.754  10.323  0.6653 -2.6123  1.1931
  762MOL0     H 2819   6.142   8.971  10.304 -1.0020  0.0107  0.5140
  762MOL0     H 2820   6.159   8.996  10.481  1.9913  1.3158  0.2597
  762MOL0     H 2821   6.360   8.751  10.240  1.8433 -5.1212  4.1758
  762MOL0     H 2822   6.667   8.818  10.173  1.1910 -1.0827 -1.4089
  762MOL0     H 2823   6.735   8.757  10.330 -1.6663  1.4978  1.9268
  762MOL0     H 2824   6.599   8.556  10.307  2.3854  1.4832  1.5328
  762MOL0     H 2825   6.520   8.616  10.157 -1.0244 -0.6281  1.5635
  762MOL0     H 2826   6.805   8.513  10.174  0.4401  0.5622  0.4870
  762MOL0     H 2827   6.736   8.596  10.033 -0.6809  0.7087  0.4724
  762MOL0     H 2828   6.649   8.331  10.160  0.7714 -1.4021  0.2819
  762MOL0     H 2829   6.758   8.352  10.019  1.1054  0.2500  2.3116
  762MOL0     H 2830   6.543   8.175  10.072 -1.2401  1.9024  0.0406
  762MOL0     H 2831   6.469   7.979   9.930  1.4550 -0.4247 -1.3828
  762MOL0     H 2832   6.342   7.779   9.491  0.3855  0.9149  0.5267
  762MOL0     H 2833   6.247   7.552   9.423  0.7712 -0.9629  0.6402
  762MOL0     H 2834   6.290   7.365   9.390 -0.7146  0.1669 -0.4177
  762MOL0     H 2835   6.225   7.202   9.427 -0.6523 -0.0778  0.4539
  762MOL0     H 2836   5.988   7.285   9.402  0.4140  1.1702  1.8019
  762MOL0     H 2837   6.055   7.439   9.351  4.3958  0.8694 -3.3972
  762MOL0     H 2838   6.202   7.329   9.191 -1.1646  2.3105 -3.2349
  762MOL0     H 2839   6.074   7.196   9.198 -1.5609  0.5365  2.1457
  762MOL0     H 2840   5.899   7.337   9.126 -0.4434  1.9664  2.5995
  762MOL0     H 2841   6.041   7.323   9.028 -0.8564 -2.1055  1.0504
  762MOL0     H 2842   6.116   7.545   9.119 -0.9055  3.7315 -0.4983
  762MOL0     H 2843   5.971   7.569   9.208  0.3435  3.4778 -2.2067
  762MOL0     H 2844   5.948   7.530   8.912 -1.7141  3.4012 -1.5056
  762MOL0     H 2845   5.821   7.559   9.035 -1.2681  0.5768 -1.3770
  762MOL0     H 2846   6.054   7.766   8.996 -0.4138  1.7784  1.6103
  762MOL0     H 2847   5.916   7.776   9.095 -2.1129 -0.1790 -0.9003
  762MOL0     H 2848   5.859   7.914   8.908  1.1811  0.1712 -3.2322
  762MOL0     H 2849   5.922   7.798   8.796  1.3676 -2.4423  0.7081
  762MOL0     H 2850   6.283   7.440   9.841  0.3457  1.4334  1.3842
  762MOL0     H 2851   6.369   7.654   9.890  1.6527 -1.0076 -0.2809
  762MOL0     H 2852   6.372   8.249   9.611 -2.7215  1.5709  1.1485
  762MOL0     H 2853   6.476   8.440   9.766  1.9504 -0.0225  0.0563
  762MOL0     H 2854   5.716   8.555  11.188 -0.8360 -0.4463  0.8627
  762MOL0     H 2855   5.493   8.536  11.304 -0.1601 -2.3545  2.7212
  762MOL0     H 2856   5.123   8.550  11.301 -0.0650  0.9282  2.1092
  762MOL0     H 2857   4.923   8.623  11.360  0.2617 -0.4262 -0.9246
  762MOL0     H 2858   4.514   8.477  11.515 -0.7973  0.2443 -1.5617
  762MOL0     H 2859   4.608   8.323  11.527  0.2748  0.4938  0.0351
  762MOL0     H 2860   4.581   8.304  11.271  1.3996  1.0816 -0.4031
  762MOL0     H 2861   4.514   8.457  11.273 -2.3677 -1.1412 -1.2589
  762MOL0     H 2862   4.382   8.239  11.441 -0.1038  2.8127  2.2053
  762MOL0     H 2863   4.353   8.253  11.257  1.3001 -0.4022 -0.8607
  762MOL0     H 2864   4.279   8.449  11.482 -0.1223  0.7563  0.6365
  762MOL0     H 2865   4.247   8.463  11.303 -2.3823  2.7132  2.8956
  762MOL0     H 2866   3.927   8.238  11.447  0.0726 -1.8979 -1.1664
  762MOL0     H 2867   4.777   8.221  11.438 -0.5655  0.1291  0.5172
  762MOL0     H 2868   5.071   8.058  11.438 -0.6590 -0.9647 -0.6950
  762MOL0     H 2869   4.899   8.042  11.409  0.7569 -1.4970  1.1686
  762MOL0     H 2870   5.004   8.043  11.279 -1.2439  0.6155  0.2481
  763MOL0     O 2871  10.639   2.555   8.756  0.3870 -0.1497 -0.1789
  763MOL0     C 2872  10.551   2.632   8.730  0.0450  0.5643  0.0955
  763MOL0     O 2873  10.546   2.771   8.734  0.2248 -0.2049  0.8033
  763MOL0     C 2874  10.655   2.843   8.712 -0.5350 -0.0410  1.8646
  763MOL0     C 2875  10.771   2.796   8.646 -0.3544  0.5225  1.0198
  763MOL0     C 2876  10.878   2.885   8.613  0.6450 -0.4569 -0.1110
  763MOL0     C 2877  10.867   3.023   8.645  0.0705  0.2419  0.6804
  763MOL0     O 2878  10.967   3.114   8.622 -0.0393  0.3380  0.9974
  763MOL0     C 2879  11.047   3.143   8.735 -0.9598  0.4040 -0.4984
  763MOL0     C 2880  11.085   3.292   8.771  0.0331 -0.5411 -0.0967
  763MOL0     C 2881  10.971   3.368   8.826 -0.2404 -0.3945 -1.0778
  763MOL0     C 2882  10.876   3.437   8.722  0.2203  0.0017 -0.2420
  763MOL0     C 2883  10.792   3.550   8.789 -0.3200 -0.9727 -0.1079
  763MOL0     C 2884  10.708   3.497   8.912  0.0322  0.1500  0.5719
  763MOL0     C 2885  10.643   3.610   8.980 -0.3320  0.0484 -0.2505
  763MOL0     C 2886  10.543   3.575   9.090  0.1871 -0.1006 -0.0486
  763MOL0     N 2887  10.441   3.676   9.112  0.5816 -0.2443  0.5061
  763MOL0     C 2888  10.455   3.807   9.161  1.2883  0.0572 -0.5177
  763MOL0     C 2889  10.331   3.859   9.143 -0.0762 -0.1016  0.0355
  763MOL0     C 2890  10.283   3.994   9.191  0.4693  0.1519  0.1206
  763MOL0     C 2891  10.316   4.017   9.337 -0.1900  0.1187  0.2528
  763MOL0     C 2892  10.243   4.147   9.376  0.3297 -0.6058 -0.8039
  763MOL0     C 2893  10.336   4.278   9.377 -0.8419  0.7960  0.0950
  763MOL0     O 2894  10.262   4.391   9.357 -0.0455 -0.1523  0.1010
  763MOL0     C 2895  10.194   4.446   9.467 -0.2501 -0.0611  0.3172
  763MOL0     C 2896  10.140   4.575   9.456 -0.2482  0.3594 -0.2217
  763MOL0     C 2897  10.062   4.634   9.559  0.3970 -0.1986  0.0741
  763MOL0     C 2898  10.072   4.592   9.689  0.2320 -0.7718 -0.2510
  763MOL0     C 2899  10.011   4.657   9.803 -0.0079 -0.2521 -0.2742
  763MOL0     O 2900   9.999   4.592   9.929 -0.0996 -0.1214 -0.1019
  763MOL0     C 2901   9.923   4.645  10.034  0.4579 -0.9164  0.3634
  763MOL0     C 2902   9.812   4.581  10.078  0.8748  0.2022  0.4517
  763MOL0     C 2903   9.749   4.603  10.195  0.0774  0.1078 -0.2017
  763MOL0     C 2904   9.776   4.713  10.277 -0.2432 -0.6390 -0.1178
  763MOL0     O 2905   9.687   4.738  10.382  0.5019 -0.6828  0.7890
  763MOL0     C 2906   9.676   4.878  10.434 -0.3494  0.9559  0.4482
  763MOL0     C 2907   9.612   4.962  10.331 -0.9045  0.5564 -0.4094
  763MOL0     C 2908   9.487   4.905  10.266 -0.1678  0.6600 -0.1065
  763MOL0     C 2909   9.400   5.009  10.184 -0.1988  0.7238  0.1255
  763MOL0     C 2910   9.348   5.132  10.256 -0.4252 -0.0451  1.3679
  763MOL0     C 2911   9.258   5.107  10.384 -0.0606 -0.2208 -0.1442
  763MOL0     C 2912   9.230   5.225  10.459  0.4933  1.2345 -0.7478
  763MOL0     C 2913   9.187   5.186  10.608 -0.8427  0.0810  0.3366
  763MOL0    Cl 2914   9.186   5.345  10.694 -0.7261  0.2559 -0.0644
  763MOL0     C 2915   9.890   4.789  10.231 -0.3187 -0.2529 -0.0350
  763MOL0     C 2916   9.967   4.751  10.113 -0.4332 -0.3380  0.3052
  763MOL0     O 2917   9.965   4.768   9.779  0.1746  0.5877  0.2852
  763MOL0     C 2918  10.143   4.471   9.702 -0.8170  0.3642 -0.3918
  763MOL0     C 2919  10.201   4.394   9.599  0.5991  0.4229 -0.1902
  763MOL0     N 2920  10.240   3.764   9.104  0.1415 -0.5197 -0.2005
  763MOL0     N 2921  10.309   3.655   9.083  1.0888 -0.0340  0.0158
  763MOL0     C 2922  10.749   3.072   8.711  0.7080  0.8673  1.6050
  763MOL0     C 2923  10.645   2.982   8.740  0.3089 -0.5185  0.2322
  763MOL0     C 2924  10.421   2.567   8.698 -0.2158  0.8648  0.5180
  763MOL0     C 2925  10.294   2.638   8.715  0.5280  0.3792  0.6167
  763MOL0     C 2926  10.172   2.579   8.680  0.0139  0.6519 -0.3931
  763MOL0     C 2927  10.167   2.453   8.639 -0.2419 -0.7725  0.1460
  763MOL0     O 2928  10.056   2.373   8.615  0.3871  0.1679 -0.4487
  763MOL0     C 2929   9.928   2.422   8.666  0.4671  0.2187  0.4514
  763MOL0     C 2930   9.809   2.338   8.631  0.1930  0.6471 -0.1813
  763MOL0     C 2931   9.791   2.219   8.719  0.5526 -0.4990 -0.3976
  763MOL0     C 2932   9.898   2.110   8.696  1.3085 -0.7970  0.6226
  763MOL0     C 2933   9.885   2.070   8.555 -0.1859 -0.2199 -1.1915
  763MOL0     C 2934   9.879   2.046   8.438 -0.0990  1.1484  0.3545
  763MOL0     C 2935  10.289   2.383   8.612  0.4959 -0.9157  0.3108
  763MOL0     C 2936  10.414   2.441   8.638 -0.1899  1.0319 -1.2900
  763MOL0     C 2937  10.531   2.352   8.604  0.2448  0.5799  1.1662
  763MOL0     H 2938  10.791   2.694   8.616  2.5673  0.9593  1.1685
  763MOL0     H 2939  10.958   2.842   8.553  0.3768  0.5712 -1.2413
  763MOL0     H 2940  11.010   3.107   8.832  1.6465  1.8763  1.1783
  763MOL0     H 2941  11.136   3.082   8.719 -2.1963 -1.7096  0.2362
  763MOL0     H 2942  11.126   3.342   8.683 -1.2599 -1.0324 -1.0096
  763MOL0     H 2943  11.169   3.285   8.841  0.8418 -0.0135 -0.9915
  763MOL0     H 2944  11.005   3.450   8.890  3.1981 -0.4215 -2.6534
  763MOL0     H 2945  10.901   3.302   8.878 -0.6509  0.9712  0.1963
  763MOL0     H 2946  10.936   3.477   8.640 -2.0305 -0.6249 -2.2930
  763MOL0     H 2947  10.809   3.368   8.671  0.6278  2.5821 -4.8191
  763MOL0     H 2948  10.849   3.636   8.826 -0.5219 -0.7900 -0.2184
  763MOL0     H 2949  10.717   3.591   8.722 -2.0814  0.9173  2.7647
  763MOL0     H 2950  10.642   3.422   8.867  0.4137  0.2509 -0.1820
  763MOL0     H 2951  10.775   3.451   8.984  0.3893  1.1150  0.8753
  763MOL0     H 2952  10.598   3.677   8.906  1.5550 -0.0532 -1.5439
  763MOL0     H 2953  10.724   3.666   9.026  0.2881 -1.8588  1.0976
  763MOL0     H 2954  10.487   3.485   9.066 -1.0395  0.3453  1.0379
  763MOL0     H 2955  10.605   3.551   9.177  1.8257  1.8874 -0.5756
  763MOL0     H 2956  10.540   3.861   9.201  0.7151 -0.1528  1.0307
  763MOL0     H 2957  10.339   4.074   9.142  1.3967  1.2690  2.8274
  763MOL0     H 2958  10.175   4.004   9.176 -0.2760  2.0935  5.0835
  763MOL0     H 2959  10.289   3.931   9.399  0.7517 -0.1508  0.3101
  763MOL0     H 2960  10.420   4.043   9.357 -1.0297  4.9368 -0.5222
  763MOL0     H 2961  10.189   4.147   9.472  0.0627 -0.3099 -0.9512
  763MOL0     H 2962  10.161   4.160   9.304 -0.9243 -1.1281  0.4757
  763MOL0     H 2963  10.422   4.277   9.310  0.6585  1.5416  1.9259
  763MOL0     H 2964  10.393   4.278   9.471 -0.0699 -1.6492 -0.3037
  763MOL0     H 2965  10.155   4.643   9.373  0.0231  1.3160  0.5975
  763MOL0     H 2966   9.999   4.718   9.530 -0.5754 -0.7043  0.6820
  763MOL0     H 2967   9.763   4.504  10.019 -0.5057 -2.6156  4.8161
  763MOL0     H 2968   9.662   4.538  10.198 -1.1619  1.3447 -3.8615
  763MOL0     H 2969   9.612   4.873  10.523  0.7788  0.5593  1.2649
  763MOL0     H 2970   9.778   4.904  10.463  0.0175 -2.3041  2.7257
  763MOL0     H 2971   9.592   5.067  10.355 -1.1372  0.2786  0.6827
  763MOL0     H 2972   9.692   4.982  10.259  0.1140 -1.4901  0.0614
  763MOL0     H 2973   9.508   4.822  10.198  0.7584  0.1439  0.7883
  763MOL0     H 2974   9.436   4.866  10.355  0.1954  2.4613  0.9366
  763MOL0     H 2975   9.317   4.956  10.135 -1.9006  2.0135  1.5136
  763MOL0     H 2976   9.463   5.049  10.104  3.7147  0.1463  2.6818
  763MOL0     H 2977   9.290   5.173  10.173  0.8425  0.1829  0.5693
  763MOL0     H 2978   9.425   5.203  10.289 -3.6127  3.4125  2.0061
  763MOL0     H 2979   9.164   5.068  10.345 -1.6248  2.5375  0.5647
  763MOL0     H 2980   9.310   5.035  10.448  3.5940  0.6169 -1.8781
  763MOL0     H 2981   9.144   5.279  10.418  0.0540  1.1764  0.0795
  763MOL0     H 2982   9.326   5.276  10.470  1.9269 -1.4226 -0.2864
  763MOL0     H 2983   9.095   5.126  10.607  0.2977 -1.7258 -0.5013
  763MOL0     H 2984   9.266   5.117  10.639  2.6206  1.3499 -4.4989
  763MOL0     H 2985   9.922   4.875  10.289 -0.3864 -0.8864  0.9653
  763MOL0     H 2986  10.062   4.797  10.091  0.2013 -0.0387  3.2453
  763MOL0     H 2987  10.153   4.439   9.805 -1.5187  1.7768  0.1481
  763MOL0     H 2988  10.248   4.299   9.623 -1.2962 -0.2507  1.1026
  763MOL0     H 2989  10.732   3.177   8.734  3.1544  2.5413 -2.9815
  763MOL0     H 2990  10.559   3.006   8.801  0.5971 -1.4439  1.0506
  763MOL0     H 2991  10.298   2.740   8.751 -3.6448  0.1067  2.4705
  763MOL0     H 2992  10.090   2.645   8.706  1.2152  1.1639  2.6311
  763MOL0     H 2993   9.916   2.525   8.629 -2.0065  0.0943  0.7150
  763MOL0     H 2994   9.930   2.445   8.773 -0.1347 -0.2842  0.5804
  763MOL0     H 2995   9.819   2.309   8.526 -4.8173 -0.5298 -0.5830
  763MOL0     H 2996   9.720   2.402   8.630  0.0932  0.5064 -0.9001
  763MOL0     H 2997   9.691   2.180   8.698  0.6937 -0.0845 -2.0487
  763MOL0     H 2998   9.795   2.263   8.819  2.3149  0.1783 -0.7285
  763MOL0     H 2999   9.989   2.169   8.711  0.5304  0.6033  0.0117
  763MOL0     H 3000   9.886   2.027   8.766 -1.4145  1.1628  2.7336
  763MOL0     H 3001   9.852   2.030   8.336 -2.9437  2.9091  0.7297
  763MOL0     H 3002  10.291   2.278   8.587  3.4539 -0.7606 -0.4677
  763MOL0     H 3003  10.558   2.309   8.701 -2.3856  1.4608  2.3854
  763MOL0     H 3004  10.495   2.286   8.525 -1.4758  2.9334 -0.1695
  763MOL0     H 3005  10.610   2.414   8.561 -1.1205  2.4231  1.1712
  764MOL0     O 3006   6.585   7.674   3.324 -0.4155  0.1592  0.3179
  764MOL0     C 3007   6.571   7.560   3.377 -0.0846  0.3723  1.2299
  764MOL0     O 3008   6.492   7.527   3.478  0.2838 -0.1373 -0.5775
  764MOL0     C 3009   6.427   7.633   3.533  0.3665  0.2008  0.1789
  764MOL0     C 3010   6.469   7.683   3.653  0.5022 -1.1012  0.4518
  764MOL0     C 3011   6.393   7.785   3.720  0.5544  0.8208  0.4461
  764MOL0     C 3012   6.266   7.846   3.660 -0.8356  0.2092  0.3882
  764MOL0     O 3013   6.205   7.952   3.714  0.1103  0.3364 -0.4519
  764MOL0     C 3014   6.084   8.003   3.648 -0.0792 -0.2445 -0.8479
  764MOL0     C 3015   6.031   8.128   3.711  0.8706  0.0824 -0.5405
  764MOL0     C 3016   5.876   8.153   3.693 -0.1757 -0.4865 -0.3975
  764MOL0     C 3017   5.793   8.132   3.828  0.3275  0.1448 -0.0170
  764MOL0     C 3018   5.821   8.246   3.926  0.3616 -0.0499  0.0950
  764MOL0     C 3019   5.723   8.359   3.909 -0.9681 -0.3625  0.2945
  764MOL0     C 3020   5.747   8.475   3.995  0.7583  0.2613  0.7406
  764MOL0     C 3021   5.882   8.552   3.965  0.3536 -0.4243  1.2986
  764MOL0     N 3022   5.876   8.682   4.032 -0.9119 -0.7941 -0.4067
  764MOL0     C 3023   5.915   8.707   4.161 -0.3315  0.3790 -0.0841
  764MOL0     C 3024   5.885   8.841   4.174 -0.0758  0.2442 -0.6531
  764MOL0     C 3025   5.917   8.911   4.305  0.6168  1.3262  0.3487
  764MOL0     C 3026   5.847   8.853   4.423 -0.1425  0.9103 -0.0369
  764MOL0     C 3027   5.689   8.885   4.422 -0.4105  0.4728 -0.1244
  764MOL0     C 3028   5.656   9.033   4.423 -0.4192 -0.6433  0.4576
  764MOL0     O 3029   5.705   9.115   4.534  0.7529  1.1979  0.1368
  764MOL0     C 3030   5.723   9.246   4.525 -1.3484 -0.0427 -0.0453
  764MOL0     C 3031   5.709   9.335   4.420 -0.2485  0.9715 -0.2835
  764MOL0     C 3032   5.712   9.477   4.435  0.6047 -0.8653  1.2412
  764MOL0     C 3033   5.755   9.527   4.553  0.2235 -0.1367 -0.2927
  764MOL0     C 3034   5.774   9.673   4.566  0.0731  0.1890 -0.4792
  764MOL0     O 3035   5.878   9.720   4.640 -0.0707  0.6180  0.4158
  764MOL0     C 3036   5.872   9.841   4.702  0.3077 -0.2240 -0.2260
  764MOL0     C 3037   5.773   9.878   4.786  0.5604  0.1412  0.2317
  764MOL0     C 3038   5.772  10.002   4.838 -0.4248 -0.2802 -0.4003
  764MOL0     C 3039   5.878  10.091   4.824  0.4959 -0.2787 -0.0687
  764MOL0     O 3040   5.880  10.222   4.872  0.1677 -0.2474  0.3731
  764MOL0     C 3041   5.779  10.263   4.967  0.6108 -1.4490 -0.3065
  764MOL0     C 3042   5.854  10.371   5.047 -0.1671  0.0728  0.4596
  764MOL0     C 3043   5.922  10.486   4.958  0.7137 -0.6817  0.1754
  764MOL0     C 3044   5.986  10.605   5.036  0.3487  0.6390  0.3775
  764MOL0     C 3045   6.062  10.714   4.954  0.3841 -1.5178  0.7154
  764MOL0     C 3046   5.983  10.781   4.837 -0.7817  0.3288  0.9952
  764MOL0     C 3047   5.845  10.839   4.870  0.4097 -0.7265  0.2837
  764MOL0     C 3048   5.775  10.910   4.749 -0.3063  0.1154 -1.1055
  764MOL0    Cl 3049   5.889  11.035   4.693  0.3027 -0.0860  0.5034
  764MOL0     C 3050   5.977  10.064   4.742  0.1010 -0.0575  0.0788
  764MOL0     C 3051   5.982   9.934   4.684 -0.3304  0.7710 -0.3477
  764MOL0     O 3052   5.684   9.739   4.520 -0.4048  0.2320 -0.0593
  764MOL0     C 3053   5.772   9.444   4.667  0.3063 -0.5100 -0.1242
  764MOL0     C 3054   5.770   9.304   4.647 -0.3023 -0.6056  0.0597
  764MOL0     N 3055   5.830   8.893   4.058  0.2432 -0.3387 -0.3459
  764MOL0     N 3056   5.821   8.794   3.977  0.2699  0.3961 -0.2161
  764MOL0     C 3057   6.228   7.786   3.540  0.0468  0.3316  1.2667
  764MOL0     C 3058   6.299   7.672   3.484  0.1902  1.3288 -0.0412
  764MOL0     C 3059   6.621   7.441   3.299  0.5621  0.1002  0.1227
  764MOL0     C 3060   6.527   7.341   3.281  0.3398 -0.1586  0.1108
  764MOL0     C 3061   6.557   7.229   3.207  0.5617 -1.3561 -0.8948
  764MOL0     C 3062   6.677   7.227   3.133  0.0613  0.2224 -0.0423
  764MOL0     O 3063   6.682   7.130   3.029  0.0790 -0.6567  0.9636
  764MOL0     C 3064   6.786   7.135   2.932 -0.0123  0.0661  0.1260
  764MOL0     C 3065   6.789   7.008   2.833 -0.5525 -0.0385  0.3939
  764MOL0     C 3066   6.702   7.022   2.699 -0.0826 -0.6013 -0.3162
  764MOL0     C 3067   6.553   7.039   2.739 -0.0949 -0.3737 -1.2094
  764MOL0     C 3068   6.472   7.046   2.618  0.7716  1.1161  0.3548
  764MOL0     C 3069   6.395   7.028   2.521  0.0674 -0.3517 -0.2307
  764MOL0     C 3070   6.769   7.331   3.149 -0.7329  0.2554 -0.2249
  764MOL0     C 3071   6.736   7.438   3.233 -1.2226 -0.3101  0.2242
  764MOL0     C 3072   6.840   7.540   3.248 -0.0807  0.6223  0.8138
  764MOL0     H 3073   6.558   7.644   3.700  3.5615  0.1559 -3.6318
  764MOL0     H 3074   6.435   7.820   3.813 -0.1601  2.1298  0.3045
  764MOL0     H 3075   6.115   8.034   3.547  0.7619 -1.4107 -0.9759
  764MOL0     H 3076   6.000   7.932   3.645 -1.4087  1.2629 -0.3536
  764MOL0     H 3077   6.085   8.214   3.669  1.8596  2.7103  5.1484
  764MOL0     H 3078   6.067   8.129   3.814  0.2766  2.6655 -0.2900
  764MOL0     H 3079   5.838   8.087   3.614 -1.7169  4.2495 -4.0514
  764MOL0     H 3080   5.853   8.250   3.649 -0.9273 -0.8160 -0.7515
  764MOL0     H 3081   5.685   8.134   3.809  0.4197  0.6431 -0.5087
  764MOL0     H 3082   5.821   8.035   3.870 -2.7323 -1.3762 -1.1323
  764MOL0     H 3083   5.811   8.193   4.021  1.0850  1.4142  1.0302
  764MOL0     H 3084   5.923   8.283   3.912  0.9974 -1.5750  0.5068
  764MOL0     H 3085   5.698   8.393   3.808 -0.1395 -1.3897 -0.2764
  764MOL0     H 3086   5.632   8.316   3.953 -0.3427 -0.9771  0.9945
  764MOL0     H 3087   5.745   8.445   4.100  2.9140  3.0288  1.6996
  764MOL0     H 3088   5.656   8.532   3.973  0.6145  0.1834  1.1151
  764MOL0     H 3089   5.961   8.491   4.010  0.8464  0.4073  1.5900
  764MOL0     H 3090   5.911   8.559   3.860 -1.9002  2.4441  0.7575
  764MOL0     H 3091   5.964   8.647   4.237  0.1390  1.9377  0.8813
  764MOL0     H 3092   6.023   8.901   4.329  0.5030  0.5393  0.5607
  764MOL0     H 3093   5.894   9.017   4.290 -0.2220  1.3842  1.8029
  764MOL0     H 3094   5.850   8.744   4.430  0.5212  0.9929  1.2358
  764MOL0     H 3095   5.891   8.893   4.515  1.2893 -2.0664  0.7068
  764MOL0     H 3096   5.651   8.836   4.512 -1.3113 -0.5547 -1.0371
  764MOL0     H 3097   5.649   8.834   4.335 -0.1319 -0.5997  0.3595
  764MOL0     H 3098   5.547   9.044   4.418 -0.2974  0.2853 -0.5143
  764MOL0     H 3099   5.693   9.062   4.324 -2.1661  2.6593  0.6253
  764MOL0     H 3100   5.686   9.304   4.318  0.4742  0.9033 -0.4350
  764MOL0     H 3101   5.693   9.538   4.347  1.9441 -1.6911  0.3372
  764MOL0     H 3102   5.689   9.820   4.823 -0.5192  2.9311  2.4505
  764MOL0     H 3103   5.688  10.035   4.899  0.2962  2.7872 -0.8954
  764MOL0     H 3104   5.696  10.303   4.909  0.9613  1.7407  1.1970
  764MOL0     H 3105   5.745  10.190   5.041 -3.2093  1.6728  1.3828
  764MOL0     H 3106   5.788  10.413   5.124  1.2082  0.2989  1.5643
  764MOL0     H 3107   5.931  10.322   5.108 -2.9453 -1.0603  3.3291
  764MOL0     H 3108   5.995  10.437   4.893  1.0416 -1.4603  1.0998
  764MOL0     H 3109   5.839  10.512   4.892  2.0792 -1.4542 -1.9721
  764MOL0     H 3110   6.055  10.552   5.101 -0.5076  0.1377  0.9013
  764MOL0     H 3111   5.913  10.648   5.106 -1.0160 -2.7403  1.2410
  764MOL0     H 3112   6.160  10.673   4.929  1.9085  1.1098  2.0078
  764MOL0     H 3113   6.077  10.797   5.024  1.9439  1.4022 -2.8030
  764MOL0     H 3114   6.047  10.855   4.790 -0.2709 -2.1612 -2.6060
  764MOL0     H 3115   5.975  10.706   4.758  1.3478 -0.8496  1.8209
  764MOL0     H 3116   5.866  10.920   4.940  2.3275  1.5368 -2.6704
  764MOL0     H 3117   5.774  10.760   4.895 -1.1054  0.4155 -0.2836
  764MOL0     H 3118   5.752  10.827   4.680  0.1693  0.4525 -1.6731
  764MOL0     H 3119   5.693  10.964   4.797 -0.6815 -1.3200 -0.0418
  764MOL0     H 3120   6.053  10.140   4.729 -1.1583  1.1968 -0.2808
  764MOL0     H 3121   6.058   9.907   4.612 -1.7175 -3.1299 -0.5791
  764MOL0     H 3122   5.797   9.486   4.764 -1.6376 -3.6615  1.9136
  764MOL0     H 3123   5.788   9.237   4.730  2.3963 -0.3949 -0.2778
  764MOL0     H 3124   6.141   7.818   3.485  0.8217  0.6994  0.2239
  764MOL0     H 3125   6.258   7.622   3.398 -1.5099  0.1526  1.3851
  764MOL0     H 3126   6.429   7.339   3.328  0.4710  0.7655  0.4415
  764MOL0     H 3127   6.469   7.166   3.197 -2.4136  2.4912 -1.1290
  764MOL0     H 3128   6.882   7.144   2.983 -0.4760  0.1819  1.0008
  764MOL0     H 3129   6.790   7.220   2.862  2.8641 -1.1731 -1.3615
  764MOL0     H 3130   6.745   6.920   2.879 -2.4345  0.7946  0.2678
  764MOL0     H 3131   6.893   6.987   2.804 -1.3385 -0.9326 -2.0630
  764MOL0     H 3132   6.728   6.936   2.637  1.4013  0.1657 -0.8102
  764MOL0     H 3133   6.736   7.112   2.647 -4.3722  2.9108  2.2197
  764MOL0     H 3134   6.520   6.960   2.807  1.0030  0.5510  0.4653
  764MOL0     H 3135   6.541   7.131   2.797 -0.7543 -1.2713  0.1244
  764MOL0     H 3136   6.331   6.996   2.441  1.4277  2.1138 -2.4046
  764MOL0     H 3137   6.849   7.330   3.076 -1.9833  1.1870 -1.6799
  764MOL0     H 3138   6.818   7.623   3.181 -3.0150 -1.7406 -1.3700
  764MOL0     H 3139   6.854   7.579   3.350 -0.5865 -0.4170  1.3018
  764MOL0     H 3140   6.933   7.490   3.220 -0.6937 -0.0519 -0.0450
  765MOL0     O 3141   4.805   1.108   9.646 -0.3728  0.8404  1.3207
  765MOL0     C 3142   4.798   1.223   9.688  0.1440 -0.2353 -0.8411
  765MOL0     O 3143   4.902   1.314   9.700 -0.5712 -0.2832 -0.3674
  765MOL0     C 3144   5.028   1.266   9.695  0.2681 -0.9563 -1.3151
  765MOL0     C 3145   5.092   1.157   9.755  0.7677 -0.1659 -0.0397
  765MOL0     C 3146   5.229   1.150   9.744 -0.1691  0.2657 -0.0885
  765MOL0     C 3147   5.311   1.248   9.694  0.2865  0.2689 -0.2975
  765MOL0     O 3148   5.444   1.217   9.698 -0.1098 -0.5138 -0.4364
  765MOL0     C 3149   5.542   1.317   9.672 -0.2165  0.6510  0.3933
  765MOL0     C 3150   5.677   1.258   9.664 -0.1302  0.1782  1.0114
  765MOL0     C 3151   5.692   1.147   9.558  1.4385  0.0185 -0.9474
  765MOL0     C 3152   5.838   1.132   9.515 -0.6005  0.0677 -0.8527
  765MOL0     C 3153   5.844   1.021   9.414 -0.6891  0.5502  0.1125
  765MOL0     C 3154   5.783   1.055   9.275 -0.7090  0.3555  0.5057
  765MOL0     C 3155   5.817   0.949   9.168  0.8563 -0.3583  0.7863
  765MOL0     C 3156   5.752   0.816   9.207  0.2627  0.0207 -0.1163
  765MOL0     N 3157   5.752   0.738   9.083 -0.9670  0.1501 -0.4387
  765MOL0     C 3158   5.860   0.674   9.033  0.3117  0.2473  0.0728
  765MOL0     C 3159   5.812   0.625   8.918 -0.5747  0.6289  1.0305
  765MOL0     C 3160   5.896   0.541   8.823  0.8355 -0.4600  0.4516
  765MOL0     C 3161   5.895   0.406   8.872 -1.1803  0.2330 -0.8898
  765MOL0     C 3162   5.997   0.376   8.980  1.2169  0.0400  0.7156
  765MOL0     C 3163   5.987   0.234   9.027  0.3661 -0.1859 -0.2600
  765MOL0     O 3164   5.861   0.204   9.086 -0.4413  0.0772 -0.4053
  765MOL0     C 3165   5.834   0.257   9.202 -0.0088 -0.0018  0.1895
  765MOL0     C 3166   5.887   0.205   9.315  0.1862 -0.1919 -0.2261
  765MOL0     C 3167   5.863   0.259   9.439  0.1069  0.2195 -0.1310
  765MOL0     C 3168   5.778   0.369   9.452 -0.0730 -0.3656 -0.3220
  765MOL0     C 3169   5.737   0.438   9.578  0.5812  0.1752 -0.4091
  765MOL0     O 3170   5.647   0.541   9.574  1.1791 -0.0514 -0.2440
  765MOL0     C 3171   5.638   0.615   9.686 -0.8011 -0.8280 -0.1159
  765MOL0     C 3172   5.542   0.585   9.777 -0.1985 -0.2136 -0.3183
  765MOL0     C 3173   5.514   0.671   9.892 -0.2718 -0.1624  0.2728
  765MOL0     C 3174   5.592   0.791   9.909  0.5910  1.5785  0.1508
  765MOL0     O 3175   5.576   0.879  10.015  0.1453 -0.0832 -0.5972
  765MOL0     C 3176   5.545   1.016   9.979  0.8371 -0.3411  0.2685
  765MOL0     C 3177   5.477   1.093  10.096 -0.9775  0.4446  0.2300
  765MOL0     C 3178   5.488   1.241  10.063 -0.1212  0.9997  0.5592
  765MOL0     C 3179   5.345   1.298  10.095  0.0704  0.0065 -0.2835
  765MOL0     C 3180   5.327   1.433  10.045 -0.4298  0.4230 -0.1450
  765MOL0     C 3181   5.209   1.505  10.107 -0.1761 -1.1046  0.3847
  765MOL0     C 3182   5.196   1.649  10.053  0.6198 -0.2483 -0.1708
  765MOL0     C 3183   5.061   1.708  10.089 -0.5636 -0.3767 -0.1510
  765MOL0    Cl 3184   5.037   1.887  10.047 -0.0079  0.3710  0.2959
  765MOL0     C 3185   5.677   0.827   9.797  0.1279 -0.3624  0.5507
  765MOL0     C 3186   5.710   0.735   9.691  0.1769  0.8766 -0.5946
  765MOL0     O 3187   5.801   0.401   9.679 -0.0427 -0.0398 -0.5342
  765MOL0     C 3188   5.741   0.442   9.329  0.3442  0.3705 -0.3526
  765MOL0     C 3189   5.759   0.376   9.210 -1.1413  0.4279  0.3697
  765MOL0     N 3190   5.681   0.668   8.886  0.0267  0.2375  0.1586
  765MOL0     N 3191   5.646   0.738   8.998 -0.1304 -0.3325  0.1100
  765MOL0     C 3192   5.247   1.361   9.639  0.0006  0.5925 -0.8902
  765MOL0     C 3193   5.106   1.368   9.646  0.2043 -0.2495 -0.2626
  765MOL0     C 3194   4.673   1.279   9.766 -0.0233 -0.5062 -0.5957
  765MOL0     C 3195   4.548   1.218   9.737  0.1352  0.6754 -0.4066
  765MOL0     C 3196   4.429   1.272   9.779 -0.7253 -0.7820 -0.5111
  765MOL0     C 3197   4.433   1.375   9.877  0.7050  0.2541 -0.6422
  765MOL0     O 3198   4.317   1.409   9.938  0.9659 -0.8028  0.8868
  765MOL0     C 3199   4.323   1.397  10.082  0.2802 -0.4888 -0.9195
  765MOL0     C 3200   4.250   1.269  10.127  0.8179 -0.6128  0.3440
  765MOL0     C 3201   4.342   1.143  10.106  0.3114 -0.3759  0.1618
  765MOL0     C 3202   4.277   1.016  10.176 -0.1379  0.0751 -0.3651
  765MOL0     C 3203   4.161   0.973  10.095  0.4653 -0.2482  0.6783
  765MOL0     C 3204   4.060   0.946  10.037  0.4995 -0.0860  0.5563
  765MOL0     C 3205   4.548   1.441   9.911 -0.5276  0.6901 -0.2089
  765MOL0     C 3206   4.671   1.380   9.868 -1.2143  0.2827  0.3435
  765MOL0     C 3207   4.788   1.441   9.933 -0.0627 -0.0904 -1.2223
  765MOL0     H 3208   5.039   1.075   9.803  1.0861 -2.2652 -3.0255
  765MOL0     H 3209   5.274   1.066   9.797  0.1378  0.4452 -0.0636
  765MOL0     H 3210   5.531   1.363   9.574  1.9976  0.7962  0.1584
  765MOL0     H 3211   5.533   1.402   9.741  0.0616  2.3662 -1.5660
  765MOL0     H 3212   5.701   1.207   9.758  0.9427  0.1653  0.7501
  765MOL0     H 3213   5.747   1.341   9.646 -2.5321  1.8980 -1.0331
  765MOL0     H 3214   5.642   1.197   9.474  2.1069  1.4097 -0.5462
  765MOL0     H 3215   5.646   1.051   9.583  2.3431 -0.4739 -1.1365
  765MOL0     H 3216   5.868   1.224   9.464  1.3326  0.4441  0.8177
  765MOL0     H 3217   5.899   1.113   9.604  0.1123  1.8795 -0.8968
  765MOL0     H 3218   5.949   0.991   9.405 -1.0568 -1.0423  0.6938
  765MOL0     H 3219   5.786   0.936   9.450 -1.0720 -0.6388 -2.9646
  765MOL0     H 3220   5.675   1.073   9.278 -1.3011 -1.9601 -2.5327
  765MOL0     H 3221   5.819   1.151   9.238 -0.0883 -0.2644 -0.5392
  765MOL0     H 3222   5.924   0.926   9.176  0.6286 -1.0993  1.8664
  765MOL0     H 3223   5.783   0.975   9.068  2.7420  0.0393  0.1961
  765MOL0     H 3224   5.817   0.770   9.282  1.1556  1.9912  0.3831
  765MOL0     H 3225   5.651   0.827   9.246 -1.0371 -1.2084 -2.8261
  765MOL0     H 3226   5.959   0.681   9.077  0.7433  2.1026 -1.1199
  765MOL0     H 3227   5.852   0.539   8.723  2.3248 -2.7106 -0.2365
  765MOL0     H 3228   5.995   0.583   8.801  1.1616 -1.4592 -0.0263
  765MOL0     H 3229   5.795   0.384   8.911 -0.3872 -0.7648  0.7008
  765MOL0     H 3230   5.918   0.337   8.791  1.3955 -1.9160  1.4465
  765MOL0     H 3231   5.999   0.445   9.065  0.3861 -2.7120  3.1407
  765MOL0     H 3232   6.097   0.379   8.937  0.6856 -0.1456 -0.5766
  765MOL0     H 3233   6.068   0.224   9.100  0.8411  2.2740 -0.3594
  765MOL0     H 3234   6.001   0.167   8.941 -0.8759 -0.1473 -0.5050
  765MOL0     H 3235   5.954   0.120   9.318 -1.8104 -1.8142  0.4590
  765MOL0     H 3236   5.893   0.205   9.528 -2.1807 -1.1646 -0.1326
  765MOL0     H 3237   5.486   0.492   9.780 -2.3656  0.9991 -0.9808
  765MOL0     H 3238   5.443   0.655   9.973 -0.5099 -0.3810  0.0204
  765MOL0     H 3239   5.634   1.072   9.949  0.2287  0.9818  0.8027
  765MOL0     H 3240   5.478   1.006   9.893  2.3617 -1.9766 -0.7765
  765MOL0     H 3241   5.374   1.055  10.088 -0.7506  0.0144 -0.7415
  765MOL0     H 3242   5.517   1.074  10.196 -3.7266 -2.7067  0.9449
  765MOL0     H 3243   5.564   1.294  10.120 -0.2639  0.5322  1.1945
  765MOL0     H 3244   5.511   1.248   9.956 -1.0488 -2.2611  0.0131
  765MOL0     H 3245   5.336   1.281  10.203 -1.1083  1.6098 -0.0812
  765MOL0     H 3246   5.273   1.234  10.043  1.2993 -1.9961  0.3391
  765MOL0     H 3247   5.330   1.417   9.936  1.2280 -0.6390  0.0094
  765MOL0     H 3248   5.417   1.490  10.069  0.8019 -0.5828 -2.0624
  765MOL0     H 3249   5.115   1.452  10.089 -0.2305 -1.1184  0.7008
  765MOL0     H 3250   5.225   1.513  10.215  1.7663 -0.1234  0.0722
  765MOL0     H 3251   5.203   1.661   9.945  0.7324 -1.8464 -0.3591
  765MOL0     H 3252   5.272   1.704  10.110 -0.8986  0.5238  1.1673
  765MOL0     H 3253   4.981   1.643  10.052 -1.5691  1.4417 -1.3049
  765MOL0     H 3254   5.048   1.707  10.198  1.2088 -0.6396  0.0936
  765MOL0     H 3255   5.715   0.928   9.799 -0.4147 -0.0913 -1.4213
  765MOL0     H 3256   5.775   0.766   9.610 -0.7102  1.8279 -0.9654
  765MOL0     H 3257   5.686   0.536   9.335  0.0741  0.1362  1.2728
  765MOL0     H 3258   5.712   0.396   9.114 -3.3220 -2.7401  0.6281
  765MOL0     H 3259   5.304   1.444   9.599  2.2672 -1.0127 -1.1428
  765MOL0     H 3260   5.059   1.454   9.599  2.4364  0.6999 -0.9141
  765MOL0     H 3261   4.536   1.140   9.662  3.8761  0.7670 -1.3022
  765MOL0     H 3262   4.339   1.225   9.740  0.0560 -1.3434 -1.6945
  765MOL0     H 3263   4.267   1.478  10.131  0.4968 -0.1770 -1.1882
  765MOL0     H 3264   4.424   1.386  10.123  0.8475 -3.3839 -2.8315
  765MOL0     H 3265   4.152   1.256  10.080  0.3577  3.5661 -0.2963
  765MOL0     H 3266   4.235   1.292  10.233 -2.6209  2.4403 -0.5976
  765MOL0     H 3267   4.441   1.163  10.149  0.1898  1.3013 -0.2610
  765MOL0     H 3268   4.360   1.114  10.002  2.3004 -1.2670  0.6977
  765MOL0     H 3269   4.346   0.931  10.174  4.3225  3.2475  1.4814
  765MOL0     H 3270   4.251   1.031  10.281 -3.1992 -2.5017 -0.6106
  765MOL0     H 3271   3.978   0.919   9.973  1.1095 -1.2374  0.2119
  765MOL0     H 3272   4.539   1.524   9.980  0.2809  0.9979 -0.4546
  765MOL0     H 3273   4.771   1.463  10.039  0.4862 -2.9240 -0.4708
  765MOL0     H 3274   4.881   1.385   9.921  0.5391  0.5270  0.2329
  765MOL0     H 3275   4.809   1.543   9.897 -0.5989  0.5093  0.0964
  766MOL0     O 3276  10.239   1.658   5.483 -0.2398 -0.9257 -0.6265
  766MOL0     C 3277  10.121   1.669   5.486 -0.0223 -0.5482 -0.2260
  766MOL0     O 3278  10.050   1.781   5.454  0.0556 -0.3269 -0.0184
  766MOL0     C 3279  10.103   1.888   5.387 -0.4537  0.4739  0.7089
  766MOL0     C 3280  10.046   2.015   5.392  0.1311  0.6718 -0.5684
  766MOL0     C 3281  10.099   2.121   5.332 -0.1497 -0.6540  0.8231
  766MOL0     C 3282  10.214   2.109   5.246 -0.5539  0.4301 -0.9612
  766MOL0     O 3283  10.277   2.199   5.166  0.9179  0.3283 -0.7872
  766MOL0     C 3284  10.228   2.336   5.157  0.2741  0.3013  0.3356
  766MOL0     C 3285  10.330   2.419   5.083 -0.2631  1.2059 -1.6238
  766MOL0     C 3286  10.311   2.439   4.936  0.8465  0.1406  0.6182
  766MOL0     C 3287  10.397   2.550   4.879 -0.3153 -0.5853 -1.1487
  766MOL0     C 3288  10.428   2.541   4.723 -0.0136 -0.2230  1.1191
  766MOL0     C 3289  10.309   2.569   4.632 -0.9126  0.6373 -0.3837
  766MOL0     C 3290  10.331   2.517   4.494  0.3157  0.5999  0.4636
  766MOL0     C 3291  10.219   2.544   4.398 -0.5506  0.2934  0.2211
  766MOL0     N 3292  10.263   2.521   4.261 -0.7601 -0.3261  0.0612
  766MOL0     C 3293  10.283   2.404   4.190  0.2336  0.2580 -0.1942
  766MOL0     C 3294  10.289   2.445   4.061 -0.1503  0.3049  0.4872
  766MOL0     C 3295  10.295   2.346   3.944  0.7371 -0.8921  0.5004
  766MOL0     C 3296  10.261   2.413   3.805 -0.4416 -0.1383  0.5600
  766MOL0     C 3297  10.228   2.307   3.703 -0.7091 -0.9902 -0.2054
  766MOL0     C 3298  10.196   2.377   3.566  0.8317 -0.9026  0.2218
  766MOL0     O 3299  10.235   2.271   3.469 -0.3197 -0.3991 -0.1991
  766MOL0     C 3300  10.349   2.286   3.392  0.0546 -1.4412  0.6517
  766MOL0     C 3301  10.366   2.217   3.277 -0.2142 -0.3497 -0.0286
  766MOL0     C 3302  10.488   2.225   3.205  0.2559 -0.3215 -0.7704
  766MOL0     C 3303  10.589   2.314   3.246 -0.8178  0.7175 -0.7072
  766MOL0     C 3304  10.719   2.329   3.179 -0.4936 -0.1119 -0.2811
  766MOL0     O 3305  10.801   2.431   3.208  0.1717  0.0314 -0.4187
  766MOL0     C 3306  10.925   2.439   3.148  0.1440  0.3775 -0.6903
  766MOL0     C 3307  11.048   2.412   3.210  0.4767  0.0511  0.3143
  766MOL0     C 3308  11.175   2.418   3.143 -0.1537 -0.0074  0.2439
  766MOL0     C 3309  11.182   2.448   3.009 -0.3035  0.8169  0.1203
  766MOL0     O 3310  11.299   2.479   2.941  0.1832  0.0699 -0.2841
  766MOL0     C 3311  11.343   2.374   2.851  0.2608  1.5462  0.6360
  766MOL0     C 3312  11.336   2.436   2.708 -1.2520  0.4729 -0.3232
  766MOL0     C 3313  11.477   2.512   2.688  0.1289  0.4292  0.9495
  766MOL0     C 3314  11.600   2.428   2.634  0.0475 -0.3148  0.0608
  766MOL0     C 3315  11.723   2.519   2.628  0.8424 -0.7312  0.5930
  766MOL0     C 3316  11.759   2.586   2.764  0.4624  1.0669 -0.5566
  766MOL0     C 3317  11.913   2.605   2.752  0.8256 -0.1865 -0.2952
  766MOL0     C 3318  11.971   2.702   2.857 -0.0374 -0.0163 -0.1314
  766MOL0    Cl 3319  12.000   2.629   3.016 -0.3830  0.0743  0.5402
  766MOL0     C 3320  11.054   2.464   2.945 -0.2713  0.1206 -0.2363
  766MOL0     C 3321  10.933   2.460   3.013  0.5925  0.7312 -0.6821
  766MOL0     O 3322  10.744   2.242   3.097 -0.3460 -0.2568  0.5708
  766MOL0     C 3323  10.569   2.394   3.359 -0.0538  0.1431 -0.0159
  766MOL0     C 3324  10.462   2.375   3.432  0.6533 -0.2600 -0.2674
  766MOL0     N 3325  10.282   2.584   4.054  0.5448  0.1476 -0.2331
  766MOL0     N 3326  10.278   2.624   4.176  0.5604 -1.1698  0.4424
  766MOL0     C 3327  10.268   1.974   5.250 -0.8811  0.0956 -0.6808
  766MOL0     C 3328  10.208   1.869   5.306  0.0113  0.3978 -0.4665
  766MOL0     C 3329  10.052   1.549   5.527 -0.8407 -0.0625  0.0973
  766MOL0     C 3330  10.095   1.423   5.481  0.1808 -0.6283  0.9201
  766MOL0     C 3331  10.019   1.312   5.494  1.0334  0.4198 -0.3032
  766MOL0     C 3332   9.889   1.327   5.539 -0.5950  0.3904 -0.0515
  766MOL0     O 3333   9.807   1.222   5.556  0.7662 -0.0615  0.4717
  766MOL0     C 3334   9.864   1.108   5.619 -0.1379 -0.1417 -0.2826
  766MOL0     C 3335   9.767   0.998   5.652 -0.9444 -0.8335 -1.1997
  766MOL0     C 3336   9.683   0.951   5.537 -1.4535  0.2374  0.5460
  766MOL0     C 3337   9.780   0.864   5.447 -0.2656 -1.3794  0.1003
  766MOL0     C 3338   9.714   0.763   5.380  0.4115  0.3808 -0.0662
  766MOL0     C 3339   9.679   0.665   5.324 -0.1155  0.1595 -0.0567
  766MOL0     C 3340   9.844   1.439   5.593 -0.3824 -0.2128  0.2419
  766MOL0     C 3341   9.928   1.554   5.595 -0.3190  0.0116  0.2813
  766MOL0     C 3342   9.892   1.679   5.680 -0.6262  0.3016  0.4331
  766MOL0     H 3343   9.963   2.025   5.462  0.3095  0.2884 -0.2978
  766MOL0     H 3344  10.050   2.217   5.340 -3.4654 -2.1377 -0.1258
  766MOL0     H 3345  10.125   2.341   5.119  0.3522 -2.4617 -0.4808
  766MOL0     H 3346  10.225   2.375   5.259 -2.0309 -1.7076  1.1272
  766MOL0     H 3347  10.422   2.362   5.097 -0.8082  0.3630 -1.3452
  766MOL0     H 3348  10.348   2.511   5.140 -0.1524  0.3442 -0.2103
  766MOL0     H 3349  10.208   2.435   4.900  1.2538 -1.0043 -0.5128
  766MOL0     H 3350  10.350   2.348   4.889  0.2666 -0.1994  0.7808
  766MOL0     H 3351  10.342   2.642   4.898  0.3774 -0.2856 -0.5557
  766MOL0     H 3352  10.492   2.557   4.932  0.0678 -0.3330 -1.8551
  766MOL0     H 3353  10.509   2.613   4.709  1.0301 -1.0421  2.6928
  766MOL0     H 3354  10.469   2.444   4.693 -0.3131 -0.0148 -0.0126
  766MOL0     H 3355  10.231   2.509   4.679  1.5632  0.0881  3.4953
  766MOL0     H 3356  10.282   2.674   4.625 -0.5460  0.7780  0.2119
  766MOL0     H 3357  10.352   2.410   4.505 -0.8506  0.4898  1.8577
  766MOL0     H 3358  10.428   2.559   4.464  0.4017  0.8301  1.0426
  766MOL0     H 3359  10.140   2.470   4.413  1.2506 -1.7116  0.2580
  766MOL0     H 3360  10.179   2.645   4.417  0.4506  0.2735  2.7513
  766MOL0     H 3361  10.264   2.303   4.225 -2.0280 -1.0559 -4.3781
  766MOL0     H 3362  10.388   2.288   3.940  2.2459  1.3801  0.2644
  766MOL0     H 3363  10.215   2.273   3.960 -1.5891  0.5767 -3.0656
  766MOL0     H 3364  10.182   2.485   3.827 -1.4022 -1.4537  1.6457
  766MOL0     H 3365  10.350   2.465   3.769 -0.7384 -0.0163 -0.0048
  766MOL0     H 3366  10.152   2.243   3.749 -0.5039  0.3606  2.1612
  766MOL0     H 3367  10.320   2.251   3.686 -0.3110 -0.5535  0.4572
  766MOL0     H 3368  10.248   2.471   3.547  1.1480 -1.6238 -3.1485
  766MOL0     H 3369  10.094   2.415   3.561  1.2985  0.6779  1.9791
  766MOL0     H 3370  10.290   2.149   3.241  1.8499 -1.6784 -2.1506
  766MOL0     H 3371  10.503   2.166   3.115 -1.7361  0.9063 -1.9945
  766MOL0     H 3372  11.053   2.382   3.314  2.7347 -1.9268 -0.2816
  766MOL0     H 3373  11.261   2.385   3.200  1.2918 -1.7851 -2.7498
  766MOL0     H 3374  11.442   2.329   2.849 -0.7888 -0.9197  0.2299
  766MOL0     H 3375  11.269   2.293   2.854 -1.1678  2.8178  1.7739
  766MOL0     H 3376  11.324   2.364   2.627  0.5061  2.1289 -2.1210
  766MOL0     H 3377  11.241   2.490   2.698 -1.3401  0.9512  2.3408
  766MOL0     H 3378  11.466   2.596   2.619  0.0437  0.1319  0.5993
  766MOL0     H 3379  11.504   2.559   2.783  0.9752  0.5329  0.6662
  766MOL0     H 3380  11.578   2.390   2.534  0.6002 -1.1904  0.2605
  766MOL0     H 3381  11.620   2.343   2.699  1.4559  1.0947  1.5688
  766MOL0     H 3382  11.702   2.594   2.552 -2.6918 -1.8203  0.3151
  766MOL0     H 3383  11.804   2.455   2.590  2.8843  0.1384  3.1786
  766MOL0     H 3384  11.709   2.683   2.776  1.7521  1.6192  0.5180
  766MOL0     H 3385  11.730   2.519   2.845 -4.1076 -1.9671 -4.0945
  766MOL0     H 3386  11.932   2.644   2.651 -4.3257  0.2357 -1.3754
  766MOL0     H 3387  11.959   2.506   2.761  1.5159 -0.0170 -1.5722
  766MOL0     H 3388  12.067   2.737   2.819  1.5116 -2.8177  0.9018
  766MOL0     H 3389  11.903   2.788   2.865  0.6191  0.8324 -2.7852
  766MOL0     H 3390  11.065   2.504   2.845 -0.3699  3.8543  1.0848
  766MOL0     H 3391  10.843   2.454   2.953  1.0979 -1.2320 -1.3005
  766MOL0     H 3392  10.629   2.474   3.402 -2.1226  1.0479  1.3177
  766MOL0     H 3393  10.457   2.445   3.516  2.1266 -0.0600 -0.3280
  766MOL0     H 3394  10.367   1.957   5.210  0.0064 -3.0208  2.4008
  766MOL0     H 3395  10.251   1.772   5.284 -3.3983 -1.5032  0.4207
  766MOL0     H 3396  10.184   1.423   5.419  0.6878  0.0565  1.6253
  766MOL0     H 3397  10.058   1.219   5.454  0.7799  0.4137 -0.5406
  766MOL0     H 3398   9.907   1.128   5.718 -1.0233 -2.4108  0.6346
  766MOL0     H 3399   9.948   1.068   5.561  1.2840 -0.6850  1.9814
  766MOL0     H 3400   9.693   1.031   5.725  1.0237  0.1523  0.4570
  766MOL0     H 3401   9.828   0.918   5.694  0.5721  0.6178 -0.5433
  766MOL0     H 3402   9.631   1.038   5.497 -0.6856  0.5922  0.3086
  766MOL0     H 3403   9.607   0.882   5.574 -0.9501 -0.6019  0.0508
  766MOL0     H 3404   9.832   0.941   5.389  1.2105 -1.5898  1.0725
  766MOL0     H 3405   9.869   0.829   5.501  0.8028  1.1462  0.1372
  766MOL0     H 3406   9.662   0.572   5.275 -1.2637  0.4572 -0.2515
  766MOL0     H 3407   9.751   1.450   5.647 -1.0259 -3.2076 -0.0516
  766MOL0     H 3408   9.827   1.751   5.629 -1.0392 -0.7252 -0.5452
  766MOL0     H 3409   9.850   1.661   5.779 -0.8678  3.1682  0.9308
  766MOL0     H 3410   9.981   1.734   5.713 -0.1699 -0.0084 -0.2525
  767MOL0     O 3411  11.165   4.687   6.395 -0.2843 -0.0022 -0.2910
  767MOL0     C 3412  11.121   4.728   6.507 -0.5869 -0.1166 -0.4509
  767MOL0     O 3413  10.991   4.697   6.557  0.0776  0.1214 -0.0113
  767MOL0     C 3414  10.928   4.587   6.513  0.5085 -0.0892  0.6009
  767MOL0     C 3415  10.926   4.458   6.584  0.0706  0.6574 -0.0869
  767MOL0     C 3416  10.873   4.351   6.518 -0.5204  0.1799 -0.0328
  767MOL0     C 3417  10.824   4.351   6.390  0.0836  0.7159 -0.3260
  767MOL0     O 3418  10.788   4.231   6.328 -0.8559  0.0581  0.0703
  767MOL0     C 3419  10.785   4.224   6.190  0.8680 -0.3142 -0.7559
  767MOL0     C 3420  10.726   4.082   6.165 -0.5692 -0.1646  0.7399
  767MOL0     C 3421  10.649   4.081   6.027 -0.6229 -0.4335  0.6299
  767MOL0     C 3422  10.682   3.960   5.950 -0.1956 -0.3410 -0.3327
  767MOL0     C 3423  10.664   3.975   5.798 -0.9734 -0.1486 -0.7190
  767MOL0     C 3424  10.519   3.975   5.763  0.5349  0.3284  0.1905
  767MOL0     C 3425  10.482   3.947   5.612 -0.0442 -0.2685  0.9577
  767MOL0     C 3426  10.345   4.004   5.576 -0.2366 -0.1746 -0.0236
  767MOL0     N 3427  10.237   3.925   5.641  0.4884 -0.0249 -0.7398
  767MOL0     C 3428  10.172   3.821   5.575  0.3464  0.4615  1.1683
  767MOL0     C 3429  10.053   3.805   5.640 -0.5254 -0.4328 -0.2151
  767MOL0     C 3430   9.949   3.704   5.599  0.1193  0.9051 -0.2146
  767MOL0     C 3431  10.005   3.558   5.618 -1.1587 -0.7243  0.2804
  767MOL0     C 3432   9.935   3.444   5.535  0.2205  0.4722 -0.6373
  767MOL0     C 3433   9.787   3.443   5.551 -0.4698 -0.3339 -0.6039
  767MOL0     O 3434   9.737   3.520   5.439  0.3923  1.1395  0.7360
  767MOL0     C 3435   9.602   3.539   5.443 -0.2308 -0.3101  0.6179
  767MOL0     C 3436   9.537   3.598   5.340 -0.7238  0.3320 -0.3842
  767MOL0     C 3437   9.411   3.649   5.342 -0.4925  0.1292  0.2061
  767MOL0     C 3438   9.330   3.637   5.455  0.2409  0.2384 -0.2557
  767MOL0     C 3439   9.199   3.701   5.466  0.0821 -0.3448  0.1217
  767MOL0     O 3440   9.133   3.695   5.588  0.7217  0.1664 -0.0649
  767MOL0     C 3441   9.011   3.742   5.580  0.5106  0.5986  0.1721
  767MOL0     C 3442   8.989   3.860   5.648 -0.1532 -0.2740 -0.5207
  767MOL0     C 3443   8.862   3.918   5.627 -0.4472 -0.7508  0.1846
  767MOL0     C 3444   8.769   3.869   5.550  0.4404  0.1381 -0.5396
  767MOL0     O 3445   8.652   3.939   5.533  0.1153 -0.1321 -0.1207
  767MOL0     C 3446   8.566   3.955   5.644 -0.6910 -0.1312  0.6420
  767MOL0     C 3447   8.493   3.821   5.679 -0.0477 -0.4181  0.7351
  767MOL0     C 3448   8.403   3.832   5.799  0.0639 -0.1684 -1.3893
  767MOL0     C 3449   8.328   3.693   5.828 -0.2672 -0.5299 -0.2481
  767MOL0     C 3450   8.283   3.686   5.974 -0.8876 -0.5520  0.5181
  767MOL0     C 3451   8.396   3.631   6.062 -0.0926 -0.2666  0.0523
  767MOL0     C 3452   8.345   3.571   6.194  0.2576  0.0854 -0.0765
  767MOL0     C 3453   8.299   3.674   6.305 -1.0844  0.2043  0.3703
  767MOL0    Cl 3454   8.454   3.770   6.332  0.0723  0.0121  0.3794
  767MOL0     C 3455   8.788   3.748   5.496  0.7214  0.1987  0.3432
  767MOL0     C 3456   8.907   3.679   5.506 -0.0194  0.5697 -1.1411
  767MOL0     O 3457   9.149   3.753   5.366  0.0689  0.5115 -0.0195
  767MOL0     C 3458   9.387   3.567   5.561 -0.1594 -0.3872  0.0775
  767MOL0     C 3459   9.522   3.527   5.562  0.0644  0.2087  0.8751
  767MOL0     N 3460  10.052   3.901   5.741  0.5004  0.1067 -0.1542
  767MOL0     N 3461  10.157   3.971   5.743 -0.6279 -0.0646  0.9882
  767MOL0     C 3462  10.831   4.479   6.326  1.0682  0.3973 -0.6024
  767MOL0     C 3463  10.880   4.593   6.381  0.3804  0.9105 -0.0172
  767MOL0     C 3464  11.215   4.787   6.613 -0.7262  0.0337  0.6700
  767MOL0     C 3465  11.175   4.766   6.746  0.0791 -0.5820 -0.4026
  767MOL0     C 3466  11.238   4.823   6.851 -0.4706 -0.6814  0.0837
  767MOL0     C 3467  11.362   4.893   6.830  0.3077 -0.1385  0.8824
  767MOL0     O 3468  11.436   4.942   6.938 -0.3938  0.3388 -0.6257
  767MOL0     C 3469  11.370   4.965   7.064  1.1344 -1.1946  0.1642
  767MOL0     C 3470  11.452   5.060   7.147  0.7404  0.3276 -0.0545
  767MOL0     C 3471  11.589   4.994   7.172 -0.5095  0.0934  1.1062
  767MOL0     C 3472  11.644   5.039   7.305 -0.4471  0.0677  0.5441
  767MOL0     C 3473  11.767   4.973   7.342 -0.1353 -0.2917 -0.2107
  767MOL0     C 3474  11.872   4.928   7.377  0.3189  0.0541 -0.4171
  767MOL0     C 3475  11.407   4.900   6.698 -0.4747  0.6250 -0.0537
  767MOL0     C 3476  11.336   4.854   6.590 -0.5528  0.0900  0.9858
  767MOL0     C 3477  11.392   4.872   6.445 -0.1961  0.2404 -0.7045
  767MOL0     H 3478  10.958   4.452   6.687 -0.9659  0.2558  0.2281
  767MOL0     H 3479  10.850   4.256   6.566 -0.5781  1.2357  2.1482
  767MOL0     H 3480  10.727   4.306   6.149 -0.2999  1.6662  4.1721
  767MOL0     H 3481  10.885   4.227   6.145  0.7725  0.5059 -0.9195
  767MOL0     H 3482  10.654   4.052   6.241 -1.3015 -0.2313  0.0370
  767MOL0     H 3483  10.809   4.015   6.186 -1.9731 -2.0612  0.4695
  767MOL0     H 3484  10.675   4.178   5.981 -0.3752 -0.0820  1.4885
  767MOL0     H 3485  10.542   4.096   6.043 -0.6093  4.9188 -1.9566
  767MOL0     H 3486  10.789   3.937   5.959 -0.7303 -4.0315 -1.9094
  767MOL0     H 3487  10.629   3.874   5.993  1.1428  0.5007  3.4437
  767MOL0     H 3488  10.710   4.068   5.765 -1.2139 -0.8941 -3.3164
  767MOL0     H 3489  10.711   3.895   5.741  0.1023 -0.1344  0.0968
  767MOL0     H 3490  10.468   3.891   5.811  0.9339  0.1513  0.3116
  767MOL0     H 3491  10.484   4.074   5.797 -1.0974  0.5031 -1.7996
  767MOL0     H 3492  10.478   3.838   5.604  1.8762 -0.9483  5.8729
  767MOL0     H 3493  10.563   3.982   5.548 -0.0610 -0.4243  0.8522
  767MOL0     H 3494  10.336   4.107   5.611  1.4567  0.1788 -0.5318
  767MOL0     H 3495  10.336   4.024   5.469  2.0834  1.7949  0.0541
  767MOL0     H 3496  10.206   3.754   5.497 -2.1069  1.0360 -0.4956
  767MOL0     H 3497   9.860   3.723   5.659  1.5132  3.1504  1.2876
  767MOL0     H 3498   9.925   3.711   5.492  1.5994 -1.1162 -0.7304
  767MOL0     H 3499  10.111   3.560   5.590 -1.0350 -0.2133  0.7767
  767MOL0     H 3500   9.999   3.531   5.724 -2.4266  0.6470  0.5869
  767MOL0     H 3501   9.973   3.349   5.572  0.5455 -0.1821 -2.5577
  767MOL0     H 3502   9.950   3.432   5.427 -1.3253 -1.0568 -0.7258
  767MOL0     H 3503   9.765   3.466   5.656  0.9584 -1.4193 -0.0395
  767MOL0     H 3504   9.754   3.339   5.544 -1.1051 -0.7114  4.3658
  767MOL0     H 3505   9.597   3.618   5.252  0.8823 -0.1385  0.5715
  767MOL0     H 3506   9.372   3.716   5.266 -0.1499  2.6277  2.1030
  767MOL0     H 3507   9.063   3.903   5.714 -0.2231  0.2169 -0.7595
  767MOL0     H 3508   8.841   4.015   5.670 -0.4334  0.8931 -3.1759
  767MOL0     H 3509   8.615   3.991   5.735  1.0286 -0.3331 -0.1614
  767MOL0     H 3510   8.497   4.031   5.604  3.5078  3.9700  0.3679
  767MOL0     H 3511   8.426   3.779   5.604 -0.2658 -1.5391  1.5382
  767MOL0     H 3512   8.582   3.760   5.697  1.6458  1.1941 -1.5993
  767MOL0     H 3513   8.472   3.852   5.881  0.6080 -3.3738 -0.9471
  767MOL0     H 3514   8.329   3.911   5.781  1.7838  1.2222 -2.7067
  767MOL0     H 3515   8.398   3.610   5.815 -0.7133 -0.7588 -1.2176
  767MOL0     H 3516   8.238   3.689   5.766 -0.4891  3.3188 -0.4306
  767MOL0     H 3517   8.191   3.627   5.972 -2.3582  1.5459 -2.5692
  767MOL0     H 3518   8.249   3.785   6.007  4.8512  2.2554 -0.5815
  767MOL0     H 3519   8.445   3.543   6.019  1.2780  0.7956 -0.6500
  767MOL0     H 3520   8.466   3.714   6.076 -1.3370  0.7314  0.5153
  767MOL0     H 3521   8.430   3.521   6.239  0.5203  1.1290  0.6290
  767MOL0     H 3522   8.270   3.495   6.171  1.9344 -2.3215  1.9981
  767MOL0     H 3523   8.217   3.738   6.271 -0.7997  0.2587 -0.2335
  767MOL0     H 3524   8.282   3.609   6.391  1.5639 -2.1545 -0.7013
  767MOL0     H 3525   8.720   3.706   5.423 -0.3688  4.7533 -1.6648
  767MOL0     H 3526   8.925   3.593   5.443 -1.0081  1.7079 -3.0994
  767MOL0     H 3527   9.324   3.548   5.647 -0.0538 -0.6341  0.0993
  767MOL0     H 3528   9.562   3.480   5.651  0.5136 -2.0308 -0.4185
  767MOL0     H 3529  10.828   4.486   6.218  0.8222 -5.0172 -1.2566
  767MOL0     H 3530  10.893   4.680   6.318 -1.8797  1.1320 -0.2665
  767MOL0     H 3531  11.082   4.713   6.762 -0.0213 -1.2586 -2.7468
  767MOL0     H 3532  11.213   4.791   6.951  2.0886 -1.9078  0.4184
  767MOL0     H 3533  11.355   4.870   7.116  2.2625 -2.3113 -1.4422
  767MOL0     H 3534  11.274   5.015   7.047 -0.5573 -4.3109 -0.1345
  767MOL0     H 3535  11.402   5.071   7.244  0.0731 -4.7051  0.4028
  767MOL0     H 3536  11.453   5.149   7.084 -1.3687  1.5950  1.5513
  767MOL0     H 3537  11.652   5.034   7.092  0.3733  0.3934  1.9294
  767MOL0     H 3538  11.596   4.887   7.147  0.2311  0.6987 -1.5855
  767MOL0     H 3539  11.641   5.149   7.312 -2.8990  0.0890  0.0662
  767MOL0     H 3540  11.584   5.010   7.391 -0.1507  0.5819  0.9349
  767MOL0     H 3541  11.971   4.894   7.399 -0.9209 -1.4467  3.6546
  767MOL0     H 3542  11.509   4.939   6.698 -0.9935  2.1869 -2.3901
  767MOL0     H 3543  11.408   4.771   6.405  1.2214  0.9732 -2.0710
  767MOL0     H 3544  11.322   4.927   6.381 -1.5346 -0.4093  0.1437
  767MOL0     H 3545  11.488   4.922   6.446  2.2024 -3.8627 -1.5705
  768MOL0     O 3546   9.422   7.061   0.128  0.0888 -0.0234  0.3664
  768MOL0     C 3547   9.351   7.146   0.173  0.3287  0.9083 -0.5331
  768MOL0     O 3548   9.384   7.266   0.210 -0.2141  0.1425 -0.4795
  768MOL0     C 3549   9.497   7.334   0.174 -0.3422  0.3188 -0.2441
  768MOL0     C 3550   9.551   7.325   0.040 -0.0185 -0.7229  0.8593
  768MOL0     C 3551   9.659   7.412   0.012  0.1049  0.6217  0.9772
  768MOL0     C 3552   9.708   7.507   0.108 -0.9298  0.2527 -0.0520
  768MOL0     O 3553   9.801   7.598   0.063 -0.4031 -0.1735  0.8777
  768MOL0     C 3554   9.837   7.697   0.156  0.2791  0.9100 -2.0467
  768MOL0     C 3555   9.939   7.796   0.108  0.1631 -0.6426 -0.9973
  768MOL0     C 3556   9.881   7.864  -0.024 -1.2993  0.5295 -0.4094
  768MOL0     C 3557   9.762   7.952  -0.003  0.9189 -0.1972 -0.2426
  768MOL0     C 3558   9.721   8.029  -0.131 -0.4402  0.1963  0.3403
  768MOL0     C 3559   9.600   8.116  -0.098  0.4587  0.1724  0.3641
  768MOL0     C 3560   9.473   8.029  -0.095  0.0933 -0.0173  0.8782
  768MOL0     C 3561   9.348   8.123  -0.075  0.1375  0.6212 -1.1303
  768MOL0     N 3562   9.234   8.038  -0.035 -0.1306  1.5841  0.0145
  768MOL0     C 3563   9.112   8.086  -0.006  0.6554 -0.3024 -0.6933
  768MOL0     C 3564   9.036   7.976  -0.014  0.4070  0.0186  0.0560
  768MOL0     C 3565   8.888   7.960   0.018 -0.1493  0.3881 -0.1652
  768MOL0     C 3566   8.842   8.003   0.156 -1.4482  1.1774  0.1690
  768MOL0     C 3567   8.700   7.980   0.166  1.0671 -0.2104 -1.0607
  768MOL0     C 3568   8.665   8.010   0.317 -0.1414  0.1411  0.5009
  768MOL0     O 3569   8.531   7.974   0.361  0.1078 -0.5048 -0.1350
  768MOL0     C 3570   8.428   8.054   0.309 -0.5608  0.8688 -0.1803
  768MOL0     C 3571   8.446   8.164   0.223  0.1118  0.7930 -0.8796
  768MOL0     C 3572   8.338   8.247   0.191 -0.0944  0.2440  0.1349
  768MOL0     C 3573   8.216   8.221   0.246  0.4179  0.0402  0.3467
  768MOL0     C 3574   8.100   8.315   0.240 -0.6628 -0.3032 -0.1541
  768MOL0     O 3575   8.131   8.420   0.163 -0.0154  0.1333 -0.6775
  768MOL0     C 3576   8.059   8.541   0.169  0.2854 -0.4787  1.1684
  768MOL0     C 3577   7.921   8.557   0.197 -0.2362 -0.1631  0.1520
  768MOL0     C 3578   7.857   8.688   0.186 -0.1294 -0.0566 -0.4867
  768MOL0     C 3579   7.929   8.802   0.153 -0.9633  0.2153  0.5046
  768MOL0     O 3580   7.883   8.930   0.151  0.0135 -0.1134  0.2655
  768MOL0     C 3581   7.747   8.945   0.202  0.6257  1.3780  0.0167
  768MOL0     C 3582   7.722   9.097   0.189  0.3215 -0.3064  0.6529
  768MOL0     C 3583   7.592   9.157   0.249 -0.7233  0.8114 -0.1963
  768MOL0     C 3584   7.459   9.082   0.223 -0.9705 -0.1489  0.0683
  768MOL0     C 3585   7.341   9.182   0.218  0.5035 -0.1626 -0.7010
  768MOL0     C 3586   7.329   9.268   0.351 -0.2962 -0.5576  0.9324
  768MOL0     C 3587   7.211   9.365   0.337  0.2042  0.2616 -0.1916
  768MOL0     C 3588   7.166   9.435   0.479  0.7217 -0.0016  0.8193
  768MOL0    Cl 3589   7.025   9.539   0.455 -0.4184 -0.2506  0.5269
  768MOL0     C 3590   8.060   8.775   0.116  0.3175 -0.3373 -0.2325
  768MOL0     C 3591   8.122   8.652   0.118 -1.1440  0.3839  0.1578
  768MOL0     O 3592   7.990   8.291   0.295 -0.6373 -0.6235  0.3629
  768MOL0     C 3593   8.195   8.100   0.319 -1.0453 -0.2370 -0.8770
  768MOL0     C 3594   8.298   8.021   0.357 -0.0819  0.4859  0.2440
  768MOL0     N 3595   9.108   7.867  -0.036  0.2665 -0.5326  0.3565
  768MOL0     N 3596   9.230   7.902  -0.055  0.7800  0.1586 -0.2010
  768MOL0     C 3597   9.649   7.514   0.235 -0.3595 -0.1942  0.9936
  768MOL0     C 3598   9.545   7.431   0.268 -0.2181  0.4122  0.5609
  768MOL0     C 3599   9.223   7.101   0.196 -0.8998 -0.4656 -0.4507
  768MOL0     C 3600   9.190   7.087   0.327 -1.1637  1.4956  0.7326
  768MOL0     C 3601   9.071   7.041   0.377 -1.3688 -0.1294  0.2289
  768MOL0     C 3602   8.970   7.013   0.285  0.2452  0.2052 -0.7048
  768MOL0     O 3603   8.847   6.959   0.327 -0.5140 -1.3867  0.9756
  768MOL0     C 3604   8.836   6.939   0.464  0.0656  0.0242 -0.8338
  768MOL0     C 3605   8.704   6.883   0.500 -0.7171  0.2994  0.1629
  768MOL0     C 3606   8.610   6.989   0.571  0.8595 -0.2308 -0.2613
  768MOL0     C 3607   8.604   6.976   0.722  0.9703 -0.2406 -0.2243
  768MOL0     C 3608   8.737   6.971   0.781  1.3106 -0.4298 -0.4747
  768MOL0     C 3609   8.837   6.981   0.846 -0.1263 -0.2165 -0.0312
  768MOL0     C 3610   8.995   7.029   0.149  0.2695  0.7384 -0.0289
  768MOL0     C 3611   9.120   7.072   0.106 -0.2991  0.9922  0.5114
  768MOL0     C 3612   9.149   7.093  -0.039  0.1237 -0.0067  0.1112
  768MOL0     H 3613   9.517   7.263  -0.043  1.5427 -0.8275  0.2481
  768MOL0     H 3614   9.685   7.430  -0.092  0.5715 -0.7309  0.8363
  768MOL0     H 3615   9.747   7.743   0.197 -1.1686 -1.2808 -2.6025
  768MOL0     H 3616   9.887   7.641   0.235  1.2798  3.2636 -0.9143
  768MOL0     H 3617  10.034   7.745   0.088  1.0768  1.5792 -2.6662
  768MOL0     H 3618   9.961   7.864   0.191 -2.8307 -0.2310 -0.4507
  768MOL0     H 3619   9.845   7.785  -0.089 -1.0516  0.6305 -0.6687
  768MOL0     H 3620   9.959   7.921  -0.074 -0.3448 -1.4156 -1.2505
  768MOL0     H 3621   9.679   7.882   0.016  1.9516 -1.7535 -1.1803
  768MOL0     H 3622   9.781   8.016   0.083  2.6401 -0.4240 -0.4186
  768MOL0     H 3623   9.802   8.097  -0.157 -1.0313  0.8277  0.1240
  768MOL0     H 3624   9.704   7.954  -0.209 -2.4770 -2.0270  2.7157
  768MOL0     H 3625   9.617   8.173  -0.006  1.4083  1.6699 -0.6877
  768MOL0     H 3626   9.601   8.194  -0.175  1.5888  1.5403  1.6924
  768MOL0     H 3627   9.466   7.960  -0.011 -3.6236 -1.5041 -0.4588
  768MOL0     H 3628   9.464   7.979  -0.192 -2.1462  0.5707  0.7401
  768MOL0     H 3629   9.378   8.191   0.006  3.4631 -0.1175 -1.6018
  768MOL0     H 3630   9.328   8.179  -0.167 -0.8651 -0.2921 -1.4903
  768MOL0     H 3631   9.092   8.185   0.033  2.5256  0.2951 -1.1631
  768MOL0     H 3632   8.848   8.033  -0.053  1.9188  2.4228  0.6059
  768MOL0     H 3633   8.838   7.867  -0.006 -2.6027  1.0374  1.9421
  768MOL0     H 3634   8.890   7.935   0.227 -2.1766  1.1188  0.6292
  768MOL0     H 3635   8.866   8.104   0.188  2.3500 -0.2779  2.5522
  768MOL0     H 3636   8.671   7.877   0.143 -5.1729  1.2544 -1.5310
  768MOL0     H 3637   8.648   8.050   0.100 -0.2303  1.1303  1.2244
  768MOL0     H 3638   8.674   8.119   0.318  2.2139  0.0122  1.6053
  768MOL0     H 3639   8.736   7.961   0.384 -3.1872 -1.6771  2.6721
  768MOL0     H 3640   8.542   8.191   0.179  1.0447  0.3876  0.8340
  768MOL0     H 3641   8.354   8.341   0.138  0.3752  1.2216  1.8977
  768MOL0     H 3642   7.859   8.469   0.213  1.3984 -1.9133 -2.2828
  768MOL0     H 3643   7.752   8.696   0.210  0.0856 -1.4991  1.1850
  768MOL0     H 3644   7.672   8.883   0.152  1.6567 -1.5931  1.8685
  768MOL0     H 3645   7.741   8.910   0.305 -0.0424 -0.3759 -0.5775
  768MOL0     H 3646   7.802   9.145   0.246 -0.3843  0.0058  1.3979
  768MOL0     H 3647   7.732   9.124   0.083  0.9515  1.3852  1.1116
  768MOL0     H 3648   7.610   9.145   0.356 -0.9344 -3.2532 -0.4522
  768MOL0     H 3649   7.583   9.262   0.220 -1.9075  1.3767  2.0226
  768MOL0     H 3650   7.433   9.011   0.301  1.8636 -1.6367 -0.2073
  768MOL0     H 3651   7.451   9.022   0.132  1.0037 -0.0124 -0.2328
  768MOL0     H 3652   7.249   9.125   0.205 -0.6686  0.7301  2.5332
  768MOL0     H 3653   7.347   9.254   0.135 -0.2780 -0.7676 -1.2937
  768MOL0     H 3654   7.297   9.206   0.435 -0.4861  0.0752  1.3350
  768MOL0     H 3655   7.418   9.330   0.365  1.1588 -2.4304  0.3274
  768MOL0     H 3656   7.119   9.316   0.305  0.0117 -1.1404  2.2475
  768MOL0     H 3657   7.238   9.452   0.275  0.4935 -1.1014 -2.0762
  768MOL0     H 3658   7.135   9.360   0.552  2.0090 -1.6978 -0.3122
  768MOL0     H 3659   7.259   9.481   0.514  1.0047 -2.0137  2.9251
  768MOL0     H 3660   8.121   8.859   0.085 -0.2576 -0.2876 -1.2784
  768MOL0     H 3661   8.226   8.637   0.090 -0.6799 -1.8717  2.6736
  768MOL0     H 3662   8.096   8.076   0.357 -0.8261 -0.9630 -0.7557
  768MOL0     H 3663   8.280   7.946   0.434 -1.1223  1.5309  1.0463
  768MOL0     H 3664   9.675   7.596   0.301 -0.1310  1.7953 -1.4455
  768MOL0     H 3665   9.509   7.444   0.369  1.6654  2.0551  1.0689
  768MOL0     H 3666   9.276   7.105   0.391 -1.8064 -1.3660  2.5824
  768MOL0     H 3667   9.074   7.026   0.484 -1.1563  2.6062  0.6857
  768MOL0     H 3668   8.834   7.035   0.518  2.2052 -0.8538  0.9727
  768MOL0     H 3669   8.917   6.877   0.504  0.1095  1.0244  0.7248
  768MOL0     H 3670   8.721   6.800   0.569 -1.4180 -0.1583 -0.2079
  768MOL0     H 3671   8.659   6.848   0.406 -2.8442  2.7920  0.1543
  768MOL0     H 3672   8.510   6.978   0.529  1.1582  1.3725 -1.4759
  768MOL0     H 3673   8.630   7.088   0.530  0.0802 -0.8532 -2.2734
  768MOL0     H 3674   8.559   7.067   0.762  3.4041 -0.1161  2.5438
  768MOL0     H 3675   8.543   6.887   0.741  2.2993 -0.9151  1.0479
  768MOL0     H 3676   8.927   6.977   0.903 -0.9439 -0.6075  1.2699
  768MOL0     H 3677   8.918   7.011   0.074 -0.1167  2.2454 -0.0218
  768MOL0     H 3678   9.165   6.994  -0.083  0.5453 -0.3181  0.9478
  768MOL0     H 3679   9.080   7.159  -0.091 -0.2361  0.4380  1.1227
  768MOL0     H 3680   9.244   7.145  -0.053  0.8050 -1.3182 -0.3000
  769MOL0     O 3681   6.904   1.172   4.731  0.0653 -0.2962  0.0565
  769MOL0     C 3682   6.835   1.152   4.639 -0.6354  0.4066 -0.0694
  769MOL0     O 3683   6.706   1.196   4.627  0.8452  0.3922  0.4805
  769MOL0     C 3684   6.683   1.325   4.667 -0.6331  0.6721 -0.7133
  769MOL0     C 3685   6.623   1.359   4.789 -0.3520  1.4609 -0.4839
  769MOL0     C 3686   6.602   1.484   4.823 -0.1018 -1.0031  0.5409
  769MOL0     C 3687   6.628   1.595   4.737 -0.4983 -0.0636  0.1647
  769MOL0     O 3688   6.583   1.718   4.773 -0.0329 -0.0185  0.4263
  769MOL0     C 3689   6.573   1.813   4.670 -0.4738  0.5768  0.0646
  769MOL0     C 3690   6.535   1.945   4.729  0.0501 -0.7550  0.9637
  769MOL0     C 3691   6.575   2.061   4.636 -0.7846 -0.4342 -0.6736
  769MOL0     C 3692   6.445   2.123   4.574 -0.6735  1.0216  0.1443
  769MOL0     C 3693   6.476   2.196   4.436  0.1447  0.3028 -0.6090
  769MOL0     C 3694   6.351   2.263   4.372  0.0714 -0.3713 -0.2281
  769MOL0     C 3695   6.391   2.372   4.260 -0.2634  0.3752  0.6348
  769MOL0     C 3696   6.272   2.434   4.191 -0.2461  0.2217 -0.7414
  769MOL0     N 3697   6.199   2.530   4.286  0.8302  1.3074 -0.6294
  769MOL0     C 3698   6.069   2.508   4.342  0.7236 -0.0568  0.1864
  769MOL0     C 3699   6.040   2.618   4.422  0.6181  1.4666 -0.3278
  769MOL0     C 3700   5.929   2.628   4.509  1.0835 -0.4553 -0.8773
  769MOL0     C 3701   5.968   2.671   4.650  0.0872  1.0409 -0.2933
  769MOL0     C 3702   5.834   2.681   4.736 -0.3972  0.0175  0.7679
  769MOL0     C 3703   5.742   2.788   4.696  0.8041 -0.1791  0.2393
  769MOL0     O 3704   5.657   2.800   4.811  0.3841 -0.1343 -0.1763
  769MOL0     C 3705   5.558   2.894   4.810  0.0389  0.5842 -0.3290
  769MOL0     C 3706   5.479   2.905   4.926  0.0672  0.6151 -0.3786
  769MOL0     C 3707   5.378   2.995   4.935  0.0616 -0.2959 -0.3536
  769MOL0     C 3708   5.345   3.080   4.821 -0.7567  0.9022 -0.1881
  769MOL0     C 3709   5.233   3.176   4.824 -0.2834 -1.0276 -0.0962
  769MOL0     O 3710   5.231   3.281   4.738 -0.2612 -0.3397  0.2290
  769MOL0     C 3711   5.134   3.378   4.750 -0.3653 -0.3254  0.7104
  769MOL0     C 3712   4.999   3.363   4.787  0.2023 -0.2484  0.4678
  769MOL0     C 3713   4.917   3.474   4.803 -0.0330  0.8044  0.3201
  769MOL0     C 3714   4.955   3.603   4.760 -0.8322 -0.0207 -0.4671
  769MOL0     O 3715   4.872   3.711   4.774  0.9877 -0.3044 -0.1722
  769MOL0     C 3716   4.758   3.695   4.870 -0.0763  1.4424 -0.8498
  769MOL0     C 3717   4.724   3.840   4.923  0.6762  0.4188  0.4929
  769MOL0     C 3718   4.850   3.901   4.990 -1.1426 -0.6876 -0.7792
  769MOL0     C 3719   4.811   4.052   5.028  0.2679 -0.2838 -1.0193
  769MOL0     C 3720   4.868   4.164   4.929  0.4168 -0.5794  0.0483
  769MOL0     C 3721   4.826   4.309   4.955 -0.2927 -0.0545 -0.3195
  769MOL0     C 3722   4.893   4.365   5.083 -0.1181 -0.5968 -0.0813
  769MOL0     C 3723   5.030   4.416   5.064 -0.1818 -1.3079  0.3985
  769MOL0    Cl 3724   5.145   4.303   5.131  0.1463  0.2241 -0.0481
  769MOL0     C 3725   5.088   3.623   4.714 -0.1290 -0.5806 -0.0326
  769MOL0     C 3726   5.172   3.508   4.710  0.3546  0.0221 -0.1349
  769MOL0     O 3727   5.156   3.167   4.918  1.5493  0.0855 -0.2536
  769MOL0     C 3728   5.412   3.061   4.703  0.3556 -0.2209  0.5412
  769MOL0     C 3729   5.519   2.979   4.698 -0.7351 -0.1686 -0.3120
  769MOL0     N 3730   6.144   2.708   4.392 -0.7249  0.2542  0.3693
  769MOL0     N 3731   6.238   2.650   4.320 -0.4185  0.3701 -0.4154
  769MOL0     C 3732   6.689   1.561   4.621 -0.3669  0.3182  0.1127
  769MOL0     C 3733   6.701   1.429   4.575  0.9724  0.5985 -0.6982
  769MOL0     C 3734   6.873   1.024   4.581 -0.6892 -0.0848 -0.5754
  769MOL0     C 3735   6.784   0.917   4.561 -0.5112 -0.1741 -0.1257
  769MOL0     C 3736   6.838   0.801   4.507  0.4681  0.7937  0.8316
  769MOL0     C 3737   6.977   0.786   4.479  0.1037 -0.2488  0.0089
  769MOL0     O 3738   7.024   0.664   4.436  0.5460  0.4777 -0.2646
  769MOL0     C 3739   7.153   0.618   4.495 -0.1274  0.4683  0.5383
  769MOL0     C 3740   7.198   0.476   4.464 -0.1052 -0.6138 -1.0308
  769MOL0     C 3741   7.112   0.367   4.537  0.2877  0.6490 -0.9407
  769MOL0     C 3742   6.959   0.373   4.510  0.6319 -0.1926 -0.0104
  769MOL0     C 3743   6.926   0.371   4.365  0.2181 -0.1864  0.0990
  769MOL0     C 3744   6.911   0.358   4.249  0.2452 -0.3641  0.7891
  769MOL0     C 3745   7.056   0.898   4.483  0.7346 -0.1620 -0.1470
  769MOL0     C 3746   7.010   1.017   4.530  0.0758  0.3434 -1.1267
  769MOL0     C 3747   7.101   1.136   4.524 -0.0905 -0.9516 -0.0781
  769MOL0     H 3748   6.594   1.278   4.855  2.8131 -1.0882 -1.9415
  769MOL0     H 3749   6.542   1.507   4.911 -2.0048  1.9167 -1.3627
  769MOL0     H 3750   6.666   1.817   4.614  0.1640  0.1601  1.0688
  769MOL0     H 3751   6.496   1.775   4.602  0.9715 -2.8776  0.2126
  769MOL0     H 3752   6.596   1.956   4.819  3.5456  0.4289 -1.3766
  769MOL0     H 3753   6.430   1.939   4.760  0.8146 -2.7856  3.6162
  769MOL0     H 3754   6.652   2.030   4.565  1.6071 -2.0422  2.3699
  769MOL0     H 3755   6.635   2.128   4.699  0.4663 -2.8230  0.8260
  769MOL0     H 3756   6.376   2.047   4.534  0.3568 -0.3317  0.8529
  769MOL0     H 3757   6.399   2.201   4.635 -3.3078  0.5173 -1.0587
  769MOL0     H 3758   6.548   2.277   4.452  2.1854 -0.5944 -4.3051
  769MOL0     H 3759   6.539   2.133   4.373 -2.8984  0.3887 -4.0573
  769MOL0     H 3760   6.281   2.189   4.331 -1.4465 -0.1065  1.7436
  769MOL0     H 3761   6.305   2.320   4.453  1.7873  1.7607 -0.6732
  769MOL0     H 3762   6.455   2.325   4.185  0.5593  1.4608  0.6373
  769MOL0     H 3763   6.446   2.455   4.305  0.7682  0.5516 -0.8739
  769MOL0     H 3764   6.311   2.488   4.105  2.4398  1.2218  0.9684
  769MOL0     H 3765   6.203   2.357   4.154  1.7723 -1.5169 -1.1114
  769MOL0     H 3766   6.004   2.422   4.327 -1.0575  1.2878 -0.0417
  769MOL0     H 3767   5.872   2.708   4.460  3.5926  0.8726 -1.8053
  769MOL0     H 3768   5.877   2.533   4.498  0.1810 -0.2042  0.8055
  769MOL0     H 3769   6.031   2.586   4.679 -2.0046 -1.4900 -2.6407
  769MOL0     H 3770   6.022   2.766   4.654  3.5551 -0.8091  2.1511
  769MOL0     H 3771   5.864   2.705   4.838 -1.4642  0.1694  1.0634
  769MOL0     H 3772   5.786   2.583   4.730  2.4209 -1.3721 -0.8193
  769MOL0     H 3773   5.676   2.765   4.612  0.8617  1.6283 -0.3451
  769MOL0     H 3774   5.803   2.878   4.686  1.2172  0.3477  4.9614
  769MOL0     H 3775   5.497   2.844   5.014  0.0339  4.3017  2.4267
  769MOL0     H 3776   5.334   3.010   5.034 -1.1632 -4.6005 -0.0532
  769MOL0     H 3777   4.949   3.272   4.818 -2.9131  1.1684  0.0545
  769MOL0     H 3778   4.817   3.458   4.842  0.0488  1.9575  1.0625
  769MOL0     H 3779   4.678   3.661   4.803 -0.8892  2.0585 -0.2124
  769MOL0     H 3780   4.782   3.621   4.946  2.6169 -1.0728 -3.8665
  769MOL0     H 3781   4.711   3.908   4.838  3.0819 -0.9828 -1.1217
  769MOL0     H 3782   4.640   3.834   4.993  0.7882  0.1356  0.6034
  769MOL0     H 3783   4.879   3.840   5.076  0.1414  2.2654  1.0240
  769MOL0     H 3784   4.943   3.918   4.933 -0.8983  1.9914  0.3024
  769MOL0     H 3785   4.839   4.056   5.134  0.3737 -2.5504 -0.8994
  769MOL0     H 3786   4.702   4.057   5.032  0.3640  3.5194  1.0874
  769MOL0     H 3787   4.827   4.156   4.828  1.7696  3.9695 -1.1092
  769MOL0     H 3788   4.976   4.147   4.928  1.1002  2.3865  3.2638
  769MOL0     H 3789   4.858   4.359   4.863 -1.3149  0.1980 -0.5549
  769MOL0     H 3790   4.718   4.323   4.953  0.0473  3.4983 -0.0164
  769MOL0     H 3791   4.888   4.294   5.167 -2.0711  0.6852  0.9657
  769MOL0     H 3792   4.830   4.442   5.129  1.1960 -1.6654  4.0130
  769MOL0     H 3793   5.053   4.415   4.957 -1.4654 -0.4388  0.0958
  769MOL0     H 3794   5.032   4.521   5.097  0.5546 -0.6237 -1.6165
  769MOL0     H 3795   5.126   3.717   4.677  0.0864 -1.2687 -1.6507
  769MOL0     H 3796   5.272   3.522   4.669  0.3730 -1.3236 -0.6017
  769MOL0     H 3797   5.388   3.117   4.613  1.9912  1.5008  1.0973
  769MOL0     H 3798   5.585   2.975   4.612 -1.9178  1.2259 -1.3303
  769MOL0     H 3799   6.736   1.630   4.552 -2.1691  3.7428  2.0436
  769MOL0     H 3800   6.734   1.409   4.473  0.4374 -0.4016 -0.6887
  769MOL0     H 3801   6.681   0.935   4.590 -1.0386 -1.1057 -1.3125
  769MOL0     H 3802   6.766   0.723   4.485 -0.9535  2.6359 -1.5986
  769MOL0     H 3803   7.144   0.618   4.604 -1.4709 -1.5109  0.4667
  769MOL0     H 3804   7.229   0.693   4.468 -1.9760  1.6083 -1.8887
  769MOL0     H 3805   7.304   0.478   4.493  0.3259 -0.0565 -2.5184
  769MOL0     H 3806   7.191   0.458   4.356 -2.3266  1.8499 -1.4017
  769MOL0     H 3807   7.135   0.366   4.644  1.7672 -0.1367 -1.2438
  769MOL0     H 3808   7.149   0.271   4.502  0.1754 -1.2463  3.4598
  769MOL0     H 3809   6.907   0.288   4.555 -2.0695  2.2076  1.7955
  769MOL0     H 3810   6.912   0.462   4.554  2.0764  0.9347 -0.6499
  769MOL0     H 3811   6.917   0.335   4.145  0.7486  1.4476  0.3874
  769MOL0     H 3812   7.159   0.894   4.449  0.0749 -0.1588 -2.2869
  769MOL0     H 3813   7.199   1.123   4.476  1.0194 -2.7575  2.4393
  769MOL0     H 3814   7.055   1.230   4.493 -0.4960 -0.3339  2.2287
  769MOL0     H 3815   7.125   1.168   4.625 -0.1953 -1.3314  0.0681
  770MOL0     O 3816   7.015   5.866   6.137  0.1647  0.5519 -0.2934
  770MOL0     C 3817   6.951   5.875   6.036  0.2181 -0.4910  0.2683
  770MOL0     O 3818   6.823   5.929   6.029  0.5847 -0.2340 -0.1399
  770MOL0     C 3819   6.783   6.018   6.132  0.3026  0.7257  0.0688
  770MOL0     C 3820   6.833   6.141   6.174  0.6878 -0.0831  0.7001
  770MOL0     C 3821   6.757   6.219   6.273 -0.1766  0.7373 -0.4098
  770MOL0     C 3822   6.625   6.175   6.318 -0.1462 -0.3115 -0.8146
  770MOL0     O 3823   6.532   6.250   6.392  0.0385 -0.2047 -0.1458
  770MOL0     C 3824   6.580   6.323   6.494  1.3096 -0.2948  0.0119
  770MOL0     C 3825   6.460   6.389   6.559 -0.0776  0.0815 -0.3645
  770MOL0     C 3826   6.509   6.449   6.684 -0.3767 -0.7890 -0.4950
  770MOL0     C 3827   6.582   6.585   6.660  0.1950  0.1356  0.7067
  770MOL0     C 3828   6.499   6.715   6.651  1.3916 -0.4067 -0.6707
  770MOL0     C 3829   6.486   6.765   6.789 -0.4071 -0.5812 -0.0271
  770MOL0     C 3830   6.401   6.900   6.781 -0.4059  0.1695  0.4371
  770MOL0     C 3831   6.369   6.956   6.923  0.4652 -0.7845  0.1892
  770MOL0     N 3832   6.342   7.098   6.920  0.2398 -0.6110 -0.6215
  770MOL0     C 3833   6.389   7.178   7.021  0.6024  0.6424  0.1552
  770MOL0     C 3834   6.306   7.283   7.037  0.6053  0.6495 -0.8139
  770MOL0     C 3835   6.313   7.394   7.137 -0.1020 -0.5611  0.8792
  770MOL0     C 3836   6.307   7.539   7.064  0.2291  0.9100 -0.3256
  770MOL0     C 3837   6.372   7.656   7.145 -0.1694 -0.9607 -0.3156
  770MOL0     C 3838   6.361   7.786   7.057 -0.7598 -0.2255  0.7972
  770MOL0     O 3839   6.222   7.835   7.067  0.2700  0.2628  0.2263
  770MOL0     C 3840   6.173   7.920   6.973  0.4795  0.5623 -0.2579
  770MOL0     C 3841   6.243   8.021   6.919 -0.4358 -0.0123  0.2282
  770MOL0     C 3842   6.189   8.123   6.847 -0.0494 -0.3972 -0.0196
  770MOL0     C 3843   6.050   8.130   6.812  0.8894 -0.3700 -0.6571
  770MOL0     C 3844   6.005   8.251   6.747  0.2944 -0.3032 -0.3186
  770MOL0     O 3845   5.868   8.271   6.749 -0.4289 -0.0672 -0.1599
  770MOL0     C 3846   5.814   8.386   6.694  0.7647 -0.5219 -0.2166
  770MOL0     C 3847   5.841   8.433   6.560  0.7313 -1.1296 -0.8653
  770MOL0     C 3848   5.794   8.560   6.520  0.0361  0.6291 -0.1946
  770MOL0     C 3849   5.695   8.634   6.597 -0.2217 -1.3979  0.4411
  770MOL0     O 3850   5.637   8.756   6.564 -0.0735  0.6357 -0.4325
  770MOL0     C 3851   5.620   8.772   6.422  0.8359  0.3877  0.1120
  770MOL0     C 3852   5.562   8.913   6.392  0.0192 -0.3365  0.6230
  770MOL0     C 3853   5.678   9.016   6.419  0.1604  0.0691  0.7778
  770MOL0     C 3854   5.624   9.146   6.374 -0.1468 -0.1448 -0.4920
  770MOL0     C 3855   5.730   9.255   6.372  0.6318  0.7855 -0.0731
  770MOL0     C 3856   5.665   9.383   6.323 -0.3481 -0.0500 -0.2373
  770MOL0     C 3857   5.752   9.500   6.318  0.1448 -0.7031 -0.0553
  770MOL0     C 3858   5.696   9.629   6.256  0.4018  0.3355 -0.1852
  770MOL0    Cl 3859   5.696   9.611   6.074 -0.0706 -0.4622 -0.1360
  770MOL0     C 3860   5.662   8.577   6.728 -0.2123  0.2037  0.9489
  770MOL0     C 3861   5.726   8.461   6.779  1.2802  0.0609  0.7086
  770MOL0     O 3862   6.094   8.328   6.698  0.3874 -0.1910  0.3773
  770MOL0     C 3863   5.969   8.026   6.865 -0.8287 -1.1327  0.8510
  770MOL0     C 3864   6.038   7.925   6.940  0.2539 -0.2702  0.7752
  770MOL0     N 3865   6.198   7.265   6.947 -0.0345  0.1152 -0.9127
  770MOL0     N 3866   6.226   7.162   6.881  0.5756 -0.4183 -0.4550
  770MOL0     C 3867   6.583   6.055   6.269  1.8055  0.4535  0.2866
  770MOL0     C 3868   6.651   5.981   6.174 -0.5462  0.3376  0.0921
  770MOL0     C 3869   7.000   5.810   5.911  1.1014 -0.8035 -0.7488
  770MOL0     C 3870   6.907   5.823   5.792 -0.0240  0.2902 -0.4165
  770MOL0     C 3871   6.933   5.739   5.686 -0.5057 -0.2986  0.4713
  770MOL0     C 3872   7.048   5.654   5.686 -0.2659 -0.3272  0.3225
  770MOL0     O 3873   7.068   5.577   5.568 -0.6763  0.1452  0.1752
  770MOL0     C 3874   7.028   5.634   5.444 -0.2197 -0.2660 -0.6331
  770MOL0     C 3875   7.105   5.582   5.329 -0.2210 -0.6950  0.3546
  770MOL0     C 3876   7.045   5.634   5.198  0.6134 -1.0669  0.0500
  770MOL0     C 3877   7.142   5.616   5.091 -0.6578 -0.1950  0.9391
  770MOL0     C 3878   7.067   5.586   4.969  1.6089  0.7052  0.0809
  770MOL0     C 3879   7.006   5.569   4.866 -0.0653  0.6402  0.1411
  770MOL0     C 3880   7.147   5.651   5.787  0.2118 -0.2619  0.2381
  770MOL0     C 3881   7.127   5.736   5.903  0.5549  0.4969 -0.7412
  770MOL0     C 3882   7.229   5.732   6.008  0.1296 -0.1395  0.6236
  770MOL0     H 3883   6.923   6.174   6.123 -0.0002 -0.6159 -0.9295
  770MOL0     H 3884   6.787   6.320   6.299 -2.5450  1.1293  1.1886
  770MOL0     H 3885   6.627   6.255   6.565  1.3799  2.0671  2.3658
  770MOL0     H 3886   6.651   6.396   6.452 -1.6834  2.0859 -1.3592
  770MOL0     H 3887   6.379   6.318   6.582 -0.0630  0.2571  0.2643
  770MOL0     H 3888   6.425   6.466   6.490 -1.9709 -0.5395 -0.1738
  770MOL0     H 3889   6.583   6.380   6.726  0.0175 -0.7558 -1.1148
  770MOL0     H 3890   6.419   6.457   6.747 -0.0272 -2.8016  0.3529
  770MOL0     H 3891   6.658   6.598   6.738  1.1462 -1.4580  0.0983
  770MOL0     H 3892   6.637   6.571   6.566 -3.2575  2.1549 -1.8617
  770MOL0     H 3893   6.547   6.796   6.595 -2.2167  2.8013  0.4364
  770MOL0     H 3894   6.408   6.691   6.596 -0.5126 -0.6876  2.3434
  770MOL0     H 3895   6.426   6.700   6.854  1.1328 -0.7224  1.3046
  770MOL0     H 3896   6.586   6.778   6.831  0.8657 -1.3869 -2.5827
  770MOL0     H 3897   6.306   6.868   6.737  1.3231 -2.1138 -1.9320
  770MOL0     H 3898   6.444   6.970   6.708 -1.8405  0.7754  0.1234
  770MOL0     H 3899   6.285   6.900   6.962 -2.3136  1.7344 -1.6955
  770MOL0     H 3900   6.453   6.940   6.991  0.6658  0.1463  0.1861
  770MOL0     H 3901   6.472   7.151   7.085  3.4579  2.5685 -2.4489
  770MOL0     H 3902   6.244   7.377   7.219  0.5658 -0.8345  1.3943
  770MOL0     H 3903   6.416   7.376   7.170  0.5514 -2.2171 -1.6814
  770MOL0     H 3904   6.373   7.532   6.977 -0.1690 -0.4871 -0.5474
  770MOL0     H 3905   6.206   7.553   7.024 -1.1897 -2.1466  1.7904
  770MOL0     H 3906   6.473   7.618   7.162 -0.5501 -1.4764  0.8727
  770MOL0     H 3907   6.323   7.657   7.243 -2.4642 -2.6129 -1.3842
  770MOL0     H 3908   6.395   7.765   6.955 -1.5500  0.7454  0.3079
  770MOL0     H 3909   6.426   7.861   7.103  0.5213 -0.4848 -0.5328
  770MOL0     H 3910   6.347   8.027   6.950 -0.1260 -3.0829  0.0748
  770MOL0     H 3911   6.247   8.213   6.831  0.0085 -0.8457 -2.8012
  770MOL0     H 3912   5.926   8.388   6.510  2.5688  0.7623  0.4169
  770MOL0     H 3913   5.824   8.608   6.427  0.3697 -0.9341 -0.9289
  770MOL0     H 3914   5.713   8.763   6.367 -0.5496 -2.8464 -2.0347
  770MOL0     H 3915   5.554   8.691   6.387  1.9663 -0.4191 -0.1882
  770MOL0     H 3916   5.531   8.916   6.287  1.0642  1.8551  0.3172
  770MOL0     H 3917   5.483   8.939   6.463  0.1948 -2.1330  1.5191
  770MOL0     H 3918   5.693   9.019   6.527 -0.4302  0.2395  0.8596
  770MOL0     H 3919   5.765   8.998   6.355  1.1488  3.7858  0.8296
  770MOL0     H 3920   5.539   9.180   6.434  0.1547 -0.5525  0.1823
  770MOL0     H 3921   5.601   9.130   6.268 -1.4424  3.1816 -0.8263
  770MOL0     H 3922   5.813   9.223   6.308 -0.3441 -1.5164 -0.3127
  770MOL0     H 3923   5.766   9.259   6.475  3.0409 -3.1636 -0.5274
  770MOL0     H 3924   5.623   9.372   6.223  2.2989 -2.5499 -1.2130
  770MOL0     H 3925   5.584   9.408   6.393  1.3539  0.3515  1.6777
  770MOL0     H 3926   5.845   9.483   6.264 -0.2238  1.7078 -1.6032
  770MOL0     H 3927   5.758   9.526   6.424 -3.3312  1.1177 -0.1506
  770MOL0     H 3928   5.591   9.645   6.284 -0.0619  0.4946 -1.8424
  770MOL0     H 3929   5.751   9.720   6.282  1.0593 -0.4758  1.3291
  770MOL0     H 3930   5.583   8.622   6.786 -0.7111  2.1129 -1.0551
  770MOL0     H 3931   5.691   8.411   6.869 -0.4048 -1.8778 -0.9189
  770MOL0     H 3932   5.863   8.024   6.846 -0.9576 -2.2350  1.5876
  770MOL0     H 3933   5.984   7.837   6.973 -1.1504  0.4052  0.3455
  770MOL0     H 3934   6.481   6.023   6.291  1.0399  0.9605 -2.1852
  770MOL0     H 3935   6.600   5.893   6.137 -0.0935  0.4792 -0.9134
  770MOL0     H 3936   6.808   5.866   5.804  0.3885  0.5185  3.6016
  770MOL0     H 3937   6.858   5.716   5.611 -2.3600 -1.5326  2.5789
  770MOL0     H 3938   7.043   5.742   5.437  3.3233 -0.7034 -1.4584
  770MOL0     H 3939   6.920   5.622   5.429 -0.4149  0.5973  0.0013
  770MOL0     H 3940   7.107   5.473   5.320  0.0427 -0.6153 -0.6985
  770MOL0     H 3941   7.210   5.611   5.338  0.3969 -2.8990  1.0823
  770MOL0     H 3942   7.025   5.741   5.211  2.8908 -0.8420  2.7786
  770MOL0     H 3943   6.953   5.576   5.183 -0.8504  0.2366  3.0528
  770MOL0     H 3944   7.193   5.713   5.082 -3.1246  0.9776 -2.1276
  770MOL0     H 3945   7.202   5.527   5.112  1.1866  1.0192  1.0798
  770MOL0     H 3946   6.959   5.541   4.774 -0.2508  1.7714 -0.1225
  770MOL0     H 3947   7.237   5.594   5.766  0.5425  0.9628 -2.0084
  770MOL0     H 3948   7.315   5.668   5.982  1.2176  1.1542  0.9489
  770MOL0     H 3949   7.268   5.831   6.034  0.5041 -0.4116  1.1287
  770MOL0     H 3950   7.197   5.691   6.104 -1.6821  2.4101  1.1904
  771MOL0     O 3951   3.703   4.986   2.699 -0.4373  0.1625 -0.7585
  771MOL0     C 3952   3.626   4.949   2.783  0.9294  0.8213 -0.4121
  771MOL0     O 3953   3.500   4.992   2.799  0.1354  0.4551 -0.2577
  771MOL0     C 3954   3.446   5.104   2.747  0.9171  0.4269  0.0451
  771MOL0     C 3955   3.305   5.105   2.752 -0.2388 -0.2464 -0.1393
  771MOL0     C 3956   3.217   5.203   2.694  0.1034  0.2786 -0.3658
  771MOL0     C 3957   3.279   5.317   2.648  0.4089  0.7360  0.4855
  771MOL0     O 3958   3.191   5.411   2.595 -0.2048  0.3287 -0.2888
  771MOL0     C 3959   3.245   5.534   2.554 -0.4720 -0.6489  0.1702
  771MOL0     C 3960   3.126   5.622   2.509 -0.1323 -0.2539 -0.2302
  771MOL0     C 3961   3.176   5.768   2.480 -0.5315 -0.8181  0.5751
  771MOL0     C 3962   3.056   5.825   2.381 -0.1605  0.5702 -0.9455
  771MOL0     C 3963   3.069   5.983   2.375 -0.6645  0.2356 -0.3175
  771MOL0     C 3964   2.959   6.037   2.290  0.7106  0.0571  0.5493
  771MOL0     C 3965   2.973   6.189   2.285  0.5084  0.3730  1.1731
  771MOL0     C 3966   2.847   6.256   2.252 -0.1572 -0.3128  0.5812
  771MOL0     N 3967   2.861   6.400   2.202  0.1054 -0.1973  0.6987
  771MOL0     C 3968   2.884   6.506   2.279  0.9401 -0.6685 -0.2613
  771MOL0     C 3969   2.925   6.603   2.195  0.0533 -0.1693  0.0500
  771MOL0     C 3970   2.974   6.743   2.217 -0.3342  0.1534  0.6194
  771MOL0     C 3971   2.876   6.847   2.162 -1.1683  0.4015  0.6677
  771MOL0     C 3972   2.847   6.845   2.011 -0.5330  0.1879  0.0219
  771MOL0     C 3973   2.769   6.968   1.976  0.6472  0.8790 -0.5644
  771MOL0     O 3974   2.648   6.978   2.061 -0.2131 -0.3579 -0.0115
  771MOL0     C 3975   2.573   7.091   2.040 -0.2645  0.2247  0.0362
  771MOL0     C 3976   2.599   7.198   1.954 -0.6867  0.2847  0.8011
  771MOL0     C 3977   2.512   7.314   1.932  0.6756  0.0745 -0.1757
  771MOL0     C 3978   2.394   7.321   2.016  0.8188  0.4595  0.7071
  771MOL0     C 3979   2.290   7.422   1.997 -0.1886 -1.2635 -0.0745
  771MOL0     O 3980   2.312   7.521   1.894 -0.0036 -0.3962 -0.2156
  771MOL0     C 3981   2.249   7.642   1.924  0.0492 -0.3412 -0.0238
  771MOL0     C 3982   2.118   7.672   1.880  0.1752  0.7987 -0.2044
  771MOL0     C 3983   2.059   7.797   1.910 -0.0446 -0.6038 -0.1075
  771MOL0     C 3984   2.134   7.888   1.986 -0.0440 -0.2900 -0.1665
  771MOL0     O 3985   2.070   8.001   2.013  0.4096 -0.2975 -0.0184
  771MOL0     C 3986   2.089   8.048   2.154  0.1758  0.2771  0.0223
  771MOL0     C 3987   1.988   8.142   2.209  0.3181  0.1011 -0.2383
  771MOL0     C 3988   1.850   8.073   2.209 -0.2888 -0.0357  0.0894
  771MOL0     C 3989   1.743   8.173   2.256 -0.1612  0.8176  0.1501
  771MOL0     C 3990   1.612   8.093   2.264  0.4371  0.5649 -0.7623
  771MOL0     C 3991   1.495   8.184   2.278  0.8738 -0.0868  0.0940
  771MOL0     C 3992   1.524   8.308   2.370  0.5363 -0.2502 -0.8486
  771MOL0     C 3993   1.399   8.398   2.376 -1.0259  0.1327  0.7802
  771MOL0    Cl 3994   1.356   8.502   2.235  0.0435  0.1259  0.2630
  771MOL0     C 3995   2.266   7.861   2.025  0.2276 -0.2241 -0.4709
  771MOL0     C 3996   2.316   7.738   1.994 -0.6618  0.1283  1.1421
  771MOL0     O 3997   2.181   7.408   2.052  0.1335  0.1419  0.3461
  771MOL0     C 3998   2.370   7.213   2.101  0.2286  0.3048 -0.5735
  771MOL0     C 3999   2.460   7.106   2.112  0.6371 -0.3774 -0.2587
  771MOL0     N 4000   2.922   6.557   2.070  0.6928 -0.7651  0.0490
  771MOL0     N 4001   2.885   6.433   2.074  0.3256  0.0608  0.1767
  771MOL0     C 4002   3.423   5.323   2.644 -0.2160  0.4129 -0.0270
  771MOL0     C 4003   3.508   5.224   2.694 -0.3412  0.6227 -1.1343
  771MOL0     C 4004   3.660   4.818   2.860 -0.3078 -0.7085  0.7616
  771MOL0     C 4005   3.555   4.732   2.874  0.6742 -0.2998 -0.6598
  771MOL0     C 4006   3.568   4.609   2.941 -1.0709  0.1494 -0.0542
  771MOL0     C 4007   3.690   4.559   2.978  0.0588  0.6522 -0.1773
  771MOL0     O 4008   3.692   4.428   3.030  0.6186  0.7206  0.4523
  771MOL0     C 4009   3.704   4.323   2.934 -0.5917 -0.7417 -0.7072
  771MOL0     C 4010   3.664   4.185   3.008 -0.9041  0.5920  0.2820
  771MOL0     C 4011   3.510   4.177   3.014 -1.0325  0.1450 -0.4962
  771MOL0     C 4012   3.452   4.254   3.135  0.5243 -0.0265  0.1105
  771MOL0     C 4013   3.304   4.220   3.145 -0.0642 -1.4308  0.7507
  771MOL0     C 4014   3.193   4.173   3.128 -0.4761  0.3374  0.4136
  771MOL0     C 4015   3.794   4.640   2.967  1.0576 -1.0687  0.0026
  771MOL0     C 4016   3.785   4.768   2.901 -0.1885 -0.1956 -0.0223
  771MOL0     C 4017   3.911   4.849   2.884  0.1305  0.1099  0.1533
  771MOL0     H 4018   3.248   5.016   2.775  1.4641 -2.2366 -3.0454
  771MOL0     H 4019   3.109   5.198   2.687  0.2779 -1.6420 -3.5658
  771MOL0     H 4020   3.308   5.581   2.631 -0.2658 -2.7999  1.3838
  771MOL0     H 4021   3.302   5.508   2.464 -1.0168  1.5597 -0.8826
  771MOL0     H 4022   3.058   5.648   2.590  1.8111 -2.3779  2.2662
  771MOL0     H 4023   3.082   5.579   2.418 -0.2557  1.6867 -1.1333
  771MOL0     H 4024   3.272   5.778   2.430  1.8436 -3.6568  4.0612
  771MOL0     H 4025   3.184   5.825   2.572  3.0642 -0.7595  0.3351
  771MOL0     H 4026   3.048   5.771   2.286 -1.3370 -1.0389  0.0239
  771MOL0     H 4027   2.956   5.813   2.423 -0.7225  1.9412 -1.8241
  771MOL0     H 4028   3.094   6.024   2.474  0.8115  2.0598 -1.3862
  771MOL0     H 4029   3.154   6.004   2.310  0.0356 -1.2245  0.0846
  771MOL0     H 4030   2.946   6.004   2.186 -0.8186 -0.1731  0.7872
  771MOL0     H 4031   2.862   6.010   2.333 -0.1148 -1.8213 -2.1600
  771MOL0     H 4032   3.049   6.206   2.208 -1.4868 -0.8907 -1.2119
  771MOL0     H 4033   3.006   6.226   2.383 -1.4840  1.0180  1.6436
  771MOL0     H 4034   2.798   6.195   2.175  1.1641 -0.9765  0.2455
  771MOL0     H 4035   2.771   6.255   2.331 -1.3037  3.4841 -0.2366
  771MOL0     H 4036   2.880   6.513   2.388  1.2160  0.9944 -0.3296
  771MOL0     H 4037   2.988   6.768   2.323  0.0900  0.2710  0.5378
  771MOL0     H 4038   3.069   6.755   2.165  0.1109 -3.0676  0.5402
  771MOL0     H 4039   2.787   6.846   2.227 -0.1485  1.1417  2.1239
  771MOL0     H 4040   2.927   6.937   2.196  0.1145  0.0428 -0.2322
  771MOL0     H 4041   2.778   6.764   1.982 -2.6264  1.0356  2.3208
  771MOL0     H 4042   2.933   6.824   1.946  1.5640 -1.7738  3.1321
  771MOL0     H 4043   2.734   6.975   1.872  0.4720 -4.1410 -1.0773
  771MOL0     H 4044   2.830   7.055   2.003  2.2967  0.0635 -1.4778
  771MOL0     H 4045   2.673   7.183   1.876 -1.7574  4.3542 -1.2683
  771MOL0     H 4046   2.530   7.384   1.851  0.0929  0.1378 -0.2562
  771MOL0     H 4047   2.058   7.604   1.821 -0.5161 -0.5403  1.9644
  771MOL0     H 4048   1.955   7.827   1.898 -0.2247 -0.2928  1.9250
  771MOL0     H 4049   2.086   7.961   2.219 -1.9216  1.6738  1.9792
  771MOL0     H 4050   2.190   8.085   2.170 -0.1996  0.8284  1.2493
  771MOL0     H 4051   2.018   8.171   2.310  1.4798  3.1186 -1.3186
  771MOL0     H 4052   1.982   8.230   2.143 -0.6477 -1.8782 -2.9828
  771MOL0     H 4053   1.825   8.034   2.110  1.6191 -2.9315  0.6400
  771MOL0     H 4054   1.857   7.996   2.286  0.1099  0.0469  0.1378
  771MOL0     H 4055   1.734   8.251   2.180 -3.1160 -1.2149 -1.7634
  771MOL0     H 4056   1.779   8.214   2.351  1.0464 -0.0186  0.0812
  771MOL0     H 4057   1.620   8.023   2.347 -0.8926  1.0363 -0.1995
  771MOL0     H 4058   1.588   8.027   2.180 -1.5700  0.2037  0.0271
  771MOL0     H 4059   1.472   8.222   2.178  1.2693 -0.3193 -0.0892
  771MOL0     H 4060   1.415   8.124   2.322 -0.7180  0.8863 -1.3653
  771MOL0     H 4061   1.612   8.360   2.332 -1.0742  1.4229 -2.4785
  771MOL0     H 4062   1.548   8.275   2.472 -3.2180  3.2649  1.4850
  771MOL0     H 4063   1.313   8.339   2.410 -0.5540 -0.8874  0.2416
  771MOL0     H 4064   1.432   8.481   2.439 -1.7517  2.4944 -1.7670
  771MOL0     H 4065   2.331   7.933   2.075 -2.5185  2.7196 -0.7838
  771MOL0     H 4066   2.410   7.713   2.042  0.9996  3.0292 -0.3320
  771MOL0     H 4067   2.282   7.220   2.164  0.9822  0.4310  0.5062
  771MOL0     H 4068   2.417   7.035   2.183 -1.1766  2.4375  1.6627
  771MOL0     H 4069   3.473   5.405   2.594  0.8708 -0.2391 -0.0375
  771MOL0     H 4070   3.616   5.236   2.699 -0.1540 -1.2550  0.4033
  771MOL0     H 4071   3.464   4.758   2.822  0.9468 -1.7664 -1.9296
  771MOL0     H 4072   3.477   4.552   2.958 -2.8009  1.8442 -2.8360
  771MOL0     H 4073   3.809   4.314   2.906  0.0718  0.0306  1.3543
  771MOL0     H 4074   3.636   4.329   2.849 -0.1215 -1.0362 -1.1130
  771MOL0     H 4075   3.723   4.181   3.100  1.9037  1.4549 -1.3602
  771MOL0     H 4076   3.709   4.109   2.944 -0.2748  1.8473 -0.8268
  771MOL0     H 4077   3.482   4.072   3.014 -1.9570  0.3259 -3.0900
  771MOL0     H 4078   3.471   4.229   2.925  0.3900  2.9126  0.3668
  771MOL0     H 4079   3.493   4.227   3.233 -0.4658  0.8253  0.7838
  771MOL0     H 4080   3.459   4.361   3.115  0.9752  0.6412  3.3391
  771MOL0     H 4081   3.096   4.131   3.112  0.4268 -1.7564  0.1727
  771MOL0     H 4082   3.882   4.581   2.992 -0.6425 -3.9703 -0.4516
  771MOL0     H 4083   3.916   4.886   2.782  0.2981  1.9293  0.7889
  771MOL0     H 4084   3.924   4.929   2.957 -0.9652  0.4627 -0.0222
  771MOL0     H 4085   3.987   4.773   2.906  0.6720  0.6471  0.1792
  772MOL0     O 4086   2.796  10.799   7.030 -0.4617 -0.2056 -0.1595
  772MOL0     C 4087   2.675  10.805   7.039 -0.1678 -0.1310 -0.1852
  772MOL0     O 4088   2.598  10.923   7.054 -0.4683 -0.5448  0.0088
  772MOL0     C 4089   2.661  11.041   7.084 -0.3284 -0.8865 -0.6959
  772MOL0     C 4090   2.687  11.065   7.218  0.2354 -0.5265  0.3623
  772MOL0     C 4091   2.767  11.173   7.263  0.1090 -0.1822  0.8991
  772MOL0     C 4092   2.811  11.274   7.176 -0.5877  0.5939 -0.4426
  772MOL0     O 4093   2.877  11.396   7.211  0.1466 -0.2842 -0.1465
  772MOL0     C 4094   2.874  11.429   7.356 -0.3953 -0.3438 -0.2259
  772MOL0     C 4095   2.902  11.569   7.378 -0.4668 -0.6727 -0.1973
  772MOL0     C 4096   3.050  11.596   7.340 -0.0460 -1.0899  0.8001
  772MOL0     C 4097   3.050  11.718   7.232  0.0404 -0.3738  0.3417
  772MOL0     C 4098   3.189  11.743   7.172  0.3593  0.8028 -0.1093
  772MOL0     C 4099   3.287  11.803   7.278  0.5908 -0.7777 -0.0497
  772MOL0     C 4100   3.424  11.831   7.219 -0.3037 -0.4987 -0.1743
  772MOL0     C 4101   3.503  11.695   7.207 -1.0607  0.5529  0.2132
  772MOL0     N 4102   3.649  11.720   7.180  0.7118  0.6261 -0.6229
  772MOL0     C 4103   3.701  11.793   7.076  0.5573 -0.4707 -0.4300
  772MOL0     C 4104   3.836  11.782   7.081 -0.0802 -0.8684 -0.1081
  772MOL0     C 4105   3.949  11.843   6.990  0.8735 -0.9850 -0.1899
  772MOL0     C 4106   3.987  11.986   7.044 -0.3071 -0.1812 -0.3352
  772MOL0     C 4107   3.878  12.095   7.046 -0.3922  0.8759  0.2966
  772MOL0     C 4108   3.842  12.147   6.905 -0.3436 -0.4260 -0.3547
  772MOL0     O 4109   3.739  12.241   6.898 -0.9261 -0.5745  0.4916
  772MOL0     C 4110   3.654  12.246   7.001 -0.0032  0.1130  0.0848
  772MOL0     C 4111   3.678  12.339   7.116  0.4879 -0.3693  0.5452
  772MOL0     C 4112   3.587  12.344   7.229 -0.1374  0.6618  0.2135
  772MOL0     C 4113   3.472  12.263   7.222  0.6871  0.2525  0.2767
  772MOL0     C 4114   3.386  12.265   7.328  1.1708 -0.2585 -0.9046
  772MOL0     O 4115   3.352  12.390   7.376  0.0680  0.1968 -0.2425
  772MOL0     C 4116   3.265  12.415   7.482  0.0275  0.6692 -0.9545
  772MOL0     C 4117   3.313  12.488   7.585 -0.5208  0.3707 -0.9395
  772MOL0     C 4118   3.222  12.532   7.678  0.7174 -0.2235  0.1688
  772MOL0     C 4119   3.084  12.510   7.671 -0.6700  0.8235  1.0299
  772MOL0     O 4120   2.994  12.566   7.760  0.2888 -0.3521 -0.2798
  772MOL0     C 4121   3.013  12.706   7.779  0.0212  0.4232  0.2989
  772MOL0     C 4122   2.877  12.755   7.838 -0.1902 -0.5447 -0.4075
  772MOL0     C 4123   2.884  12.909   7.867  0.1078  0.1342 -1.4540
  772MOL0     C 4124   2.961  12.937   7.999  0.1934  0.0290  0.4624
  772MOL0     C 4125   2.955  13.095   8.025 -0.2972  0.3943 -0.9520
  772MOL0     C 4126   3.038  13.185   7.935  0.4658 -0.5621 -0.6729
  772MOL0     C 4127   3.039  13.331   7.983 -0.2159  0.1379 -0.8194
  772MOL0     C 4128   3.078  13.364   8.125 -0.3896  0.1228  0.1865
  772MOL0    Cl 4129   3.250  13.322   8.136  0.0076  0.3446  0.0264
  772MOL0     C 4130   3.041  12.432   7.565  1.4272  0.2984 -0.7516
  772MOL0     C 4131   3.129  12.377   7.473  0.3838  0.4391 -0.8546
  772MOL0     O 4132   3.353  12.163   7.391 -0.0225 -0.2618 -0.0972
  772MOL0     C 4133   3.445  12.179   7.112 -0.1241 -0.1909 -0.7219
  772MOL0     C 4134   3.528  12.180   6.999 -0.5599 -0.8255  0.3448
  772MOL0     N 4135   3.860  11.707   7.196  0.3783  0.6486  0.6109
  772MOL0     N 4136   3.748  11.665   7.248 -0.5233 -0.6731 -0.7310
  772MOL0     C 4137   2.770  11.258   7.045  0.6662  0.2140 -0.9326
  772MOL0     C 4138   2.707  11.142   6.998  0.1577  0.2600  0.5658
  772MOL0     C 4139   2.595  10.679   7.026 -0.3864  0.2848  0.5833
  772MOL0     C 4140   2.458  10.693   7.034  0.3707 -0.1718 -0.3712
  772MOL0     C 4141   2.376  10.582   7.013 -0.6142  0.6724 -0.3581
  772MOL0     C 4142   2.421  10.454   7.014  0.2519  0.5678 -0.5674
  772MOL0     O 4143   2.351  10.333   7.007  0.2895 -0.3877 -0.5667
  772MOL0     C 4144   2.222  10.347   6.953  0.9553  0.2702 -0.0885
  772MOL0     C 4145   2.167  10.207   6.942  0.5274 -0.1055 -0.0386
  772MOL0     C 4146   2.189  10.155   6.799  0.2223  0.3298 -0.1495
  772MOL0     C 4147   2.141  10.008   6.776 -0.5685 -0.5564 -0.3602
  772MOL0     C 4148   2.217   9.922   6.873  0.1053 -0.6921 -0.0097
  772MOL0     C 4149   2.265   9.846   6.950 -0.1923 -0.6252  0.3888
  772MOL0     C 4150   2.556  10.448   7.012 -0.4441 -0.6025 -0.0552
  772MOL0     C 4151   2.647  10.554   7.010  0.1164  1.2349 -0.0963
  772MOL0     C 4152   2.796  10.510   7.004 -0.3464  0.4981  0.1154
  772MOL0     H 4153   2.646  10.992   7.286  0.9675 -1.6724 -0.3951
  772MOL0     H 4154   2.794  11.162   7.367 -2.2173 -0.6308  1.5055
  772MOL0     H 4155   2.775  11.405   7.395 -2.0862  5.4714 -0.0382
  772MOL0     H 4156   2.938  11.354   7.403 -0.8565 -1.5959 -1.5110
  772MOL0     H 4157   2.895  11.593   7.484 -0.5122 -1.5374  0.0095
  772MOL0     H 4158   2.831  11.627   7.319  0.4586 -2.3783 -3.2816
  772MOL0     H 4159   3.114  11.516   7.301  0.9370  0.9556 -2.2232
  772MOL0     H 4160   3.109  11.626   7.427 -0.6410 -0.5119  1.0122
  772MOL0     H 4161   2.985  11.671   7.157 -1.0912  0.5241  0.7273
  772MOL0     H 4162   2.996  11.801   7.279  2.3503  0.1851  2.1919
  772MOL0     H 4163   3.231  11.658   7.117  3.1153  1.8547  0.2244
  772MOL0     H 4164   3.185  11.816   7.091 -1.9366  1.1035  0.2073
  772MOL0     H 4165   3.249  11.900   7.310  0.3680  0.0508 -2.6003
  772MOL0     H 4166   3.292  11.724   7.354 -0.9510 -1.2951 -0.4555
  772MOL0     H 4167   3.478  11.903   7.281 -0.8002  0.4944 -0.8625
  772MOL0     H 4168   3.401  11.873   7.120 -3.7885  0.1644  0.7687
  772MOL0     H 4169   3.511  11.639   7.301  0.5311 -1.5710 -1.1134
  772MOL0     H 4170   3.464  11.628   7.130 -3.1277  0.3065  1.4053
  772MOL0     H 4171   3.646  11.863   7.013  1.3767 -0.0206 -0.6635
  772MOL0     H 4172   4.035  11.776   6.992 -1.5218 -4.3804 -0.9228
  772MOL0     H 4173   3.915  11.850   6.886  3.6501 -4.4353 -1.5248
  772MOL0     H 4174   4.025  11.982   7.146  0.5002  2.0191 -0.4806
  772MOL0     H 4175   4.066  12.025   6.979  1.7933  0.9825  2.6890
  772MOL0     H 4176   3.922  12.185   7.090 -2.5512  2.2434 -0.1992
  772MOL0     H 4177   3.790  12.061   7.100  0.2382 -0.8921  0.2589
  772MOL0     H 4178   3.817  12.060   6.844 -0.1286 -0.0911 -0.9310
  772MOL0     H 4179   3.928  12.205   6.868  2.7048 -3.1020  1.8963
  772MOL0     H 4180   3.751  12.419   7.116 -3.1520  3.2920 -0.4806
  772MOL0     H 4181   3.600  12.410   7.315  1.0172  0.3748  0.2783
  772MOL0     H 4182   3.420  12.502   7.594 -0.3220 -1.4024 -0.2507
  772MOL0     H 4183   3.262  12.588   7.763  2.6587  2.0536 -2.0633
  772MOL0     H 4184   3.087  12.726   7.858  0.6218  1.6298 -0.5475
  772MOL0     H 4185   3.037  12.762   7.689 -1.2692  2.0420  0.9123
  772MOL0     H 4186   2.803  12.732   7.761  0.4622 -0.1939 -1.1529
  772MOL0     H 4187   2.855  12.701   7.930  2.5457 -0.2167  0.5511
  772MOL0     H 4188   2.920  12.966   7.781  2.8974 -0.8173 -1.0078
  772MOL0     H 4189   2.782  12.948   7.875 -0.3500 -0.7752 -2.5474
  772MOL0     H 4190   3.064  12.904   7.982  1.4822  3.7483  0.1862
  772MOL0     H 4191   2.924  12.882   8.086 -0.3806  2.5316  1.8785
  772MOL0     H 4192   3.000  13.090   8.124  1.8702  0.3016 -1.8806
  772MOL0     H 4193   2.851  13.127   8.032 -1.0463 -1.9928 -0.0747
  772MOL0     H 4194   3.140  13.147   7.925  1.0004 -0.4461  2.9725
  772MOL0     H 4195   2.991  13.191   7.837  0.4614  1.6884 -0.5851
  772MOL0     H 4196   2.938  13.368   7.970 -1.4012 -2.5636 -0.0950
  772MOL0     H 4197   3.115  13.391   7.932 -0.4885 -1.4961 -3.3092
  772MOL0     H 4198   3.074  13.472   8.147 -0.1552 -0.0015  0.8488
  772MOL0     H 4199   3.008  13.324   8.199  0.5150  1.0129  1.5880
  772MOL0     H 4200   2.935  12.421   7.543  1.3706 -3.8126  0.6794
  772MOL0     H 4201   3.103  12.300   7.402 -0.5217 -0.0346 -0.0217
  772MOL0     H 4202   3.363  12.110   7.131 -0.9290  0.7580 -0.6834
  772MOL0     H 4203   3.511  12.126   6.906  2.1385  0.2986 -0.9055
  772MOL0     H 4204   2.780  11.339   6.975 -1.6487  0.4686 -1.0357
  772MOL0     H 4205   2.670  11.140   6.896  0.1128 -0.4618  0.5881
  772MOL0     H 4206   2.408  10.789   7.035  2.9556  1.3882 -3.1057
  772MOL0     H 4207   2.271  10.604   6.996 -0.5283 -0.5298 -2.9471
  772MOL0     H 4208   2.219  10.405   6.861 -2.1945 -1.1026 -0.9917
  772MOL0     H 4209   2.159  10.414   7.012  0.9767 -0.6756  1.0567
  772MOL0     H 4210   2.058  10.210   6.949  0.4821 -0.7766 -0.3270
  772MOL0     H 4211   2.211  10.138   7.014  0.7038  0.3716  0.3167
  772MOL0     H 4212   2.295  10.159   6.775  0.4181 -1.0365  0.4071
  772MOL0     H 4213   2.132  10.216   6.728  0.1122 -0.7918 -1.0534
  772MOL0     H 4214   2.034  10.011   6.797 -0.2764 -0.5708  1.2663
  772MOL0     H 4215   2.156   9.978   6.672 -0.0662 -0.2020 -0.3930
  772MOL0     H 4216   2.302   9.778   7.024 -0.0940 -0.3834  0.5612
  772MOL0     H 4217   2.595  10.347   7.023  0.5215 -0.1433  0.8046
  772MOL0     H 4218   2.831  10.502   6.901  0.8406  1.8164  0.3941
  772MOL0     H 4219   2.867  10.574   7.056 -0.5131  0.5392  0.2952
  772MOL0     H 4220   2.821  10.414   7.049  1.5673  0.7680 -0.2974
  773MOL0     O 4221   0.969   9.891   6.293  0.1955  0.0852 -0.4088
  773MOL0     C 4222   0.996   9.879   6.415 -0.2509  0.3640 -0.9198
  773MOL0     O 4223   1.101   9.798   6.457  0.4527 -0.2823 -0.4079
  773MOL0     C 4224   1.206   9.795   6.374 -0.8775  0.1195  0.5319
  773MOL0     C 4225   1.247   9.897   6.283 -0.4922  0.0125 -1.1293
  773MOL0     C 4226   1.362   9.872   6.197  0.9053  0.7004 -0.4604
  773MOL0     C 4227   1.437   9.753   6.220 -0.9076 -0.3824  0.1601
  773MOL0     O 4228   1.555   9.717   6.161  0.6427 -0.3252 -0.3107
  773MOL0     C 4229   1.627   9.808   6.075  0.4237 -0.0085  0.5857
  773MOL0     C 4230   1.753   9.767   6.011  0.1801 -0.6424  0.8754
  773MOL0     C 4231   1.750   9.633   5.941  0.1435 -0.0258 -0.2539
  773MOL0     C 4232   1.632   9.629   5.840 -0.2446  0.1112 -0.0349
  773MOL0     C 4233   1.633   9.502   5.748 -0.2063 -0.9568 -0.2319
  773MOL0     C 4234   1.751   9.471   5.666 -0.2765 -0.8148 -0.1365
  773MOL0     C 4235   1.764   9.564   5.542  0.3303  0.2931 -1.0589
  773MOL0     C 4236   1.903   9.559   5.482 -0.0342  0.3427 -0.0013
  773MOL0     N 4237   1.991   9.646   5.554  0.6555 -0.5743  0.1866
  773MOL0     C 4238   2.092   9.620   5.645  0.4381  0.8473  0.2277
  773MOL0     C 4239   2.138   9.739   5.683  1.7303 -0.1449  0.1900
  773MOL0     C 4240   2.243   9.763   5.778 -0.3430 -0.2305 -0.1319
  773MOL0     C 4241   2.183   9.805   5.906 -0.4572 -0.4623  0.7063
  773MOL0     C 4242   2.088   9.928   5.901 -0.5188  0.5411  1.0685
  773MOL0     C 4243   2.143  10.048   5.828  0.3429  0.5209  0.0495
  773MOL0     O 4244   2.278  10.065   5.881  0.0007  0.1758 -0.3627
  773MOL0     C 4245   2.367  10.136   5.801  0.0604  0.6314 -0.8459
  773MOL0     C 4246   2.482  10.140   5.866 -1.1155 -0.3228  0.0775
  773MOL0     C 4247   2.580  10.225   5.821  0.6310  0.6292 -0.2435
  773MOL0     C 4248   2.558  10.302   5.708 -0.4049 -1.0705  0.8108
  773MOL0     C 4249   2.657  10.399   5.666 -0.5326  0.1325 -0.2439
  773MOL0     O 4250   2.631  10.487   5.571  0.5275  0.1448 -0.4346
  773MOL0     C 4251   2.715  10.549   5.483  0.2166  1.1997  0.1422
  773MOL0     C 4252   2.692  10.686   5.439 -0.1375 -0.5538  0.2815
  773MOL0     C 4253   2.783  10.757   5.352  0.2209 -0.3083  0.5826
  773MOL0     C 4254   2.897  10.685   5.305  0.2740 -0.9231  0.1292
  773MOL0     O 4255   3.000  10.751   5.236  0.4296 -0.2397  0.4586
  773MOL0     C 4256   2.987  10.891   5.210  0.3880 -0.5045  0.1878
  773MOL0     C 4257   3.126  10.929   5.160 -0.4239  0.2090  0.4032
  773MOL0     C 4258   3.126  11.063   5.080 -0.4963  0.1732  0.4405
  773MOL0     C 4259   3.258  11.081   5.000 -0.4796 -0.3921  0.2100
  773MOL0     C 4260   3.384  11.093   5.087 -0.8008 -0.8912 -0.2354
  773MOL0     C 4261   3.419  11.244   5.117  0.3191  1.1162 -0.4010
  773MOL0     C 4262   3.474  11.314   5.002 -0.9552  0.5903  0.0001
  773MOL0     C 4263   3.511  11.454   5.044 -0.3814  0.3973 -0.2485
  773MOL0    Cl 4264   3.681  11.454   5.078 -0.0676  0.8334  0.2150
  773MOL0     C 4265   2.919  10.561   5.348  0.1751  1.3203  0.2650
  773MOL0     C 4266   2.839  10.495   5.443  0.4144  0.6051 -0.8242
  773MOL0     O 4267   2.769  10.397   5.726 -0.2314 -0.2473  0.3899
  773MOL0     C 4268   2.437  10.291   5.630  0.0877 -0.1292  0.2830
  773MOL0     C 4269   2.347  10.203   5.684 -0.7620  0.8861 -0.0805
  773MOL0     N 4270   2.070   9.834   5.610  0.0128 -0.6999 -0.1825
  773MOL0     N 4271   1.982   9.783   5.536  0.2043  0.2557  0.9143
  773MOL0     C 4272   1.399   9.663   6.315 -0.1741  0.2852  0.4874
  773MOL0     C 4273   1.285   9.688   6.397 -1.2366  1.3546 -0.4715
  773MOL0     C 4274   0.911   9.941   6.510 -0.4498 -1.0601 -0.2501
  773MOL0     C 4275   0.850  10.060   6.474 -0.4015  0.7674  0.0454
  773MOL0     C 4276   0.773  10.132   6.566 -0.8730 -0.1004 -0.2893
  773MOL0     C 4277   0.753  10.083   6.698 -0.2161 -0.6771  0.5368
  773MOL0     O 4278   0.697  10.173   6.788  0.6394  0.2271 -0.0359
  773MOL0     C 4279   0.780  10.183   6.905 -0.0312  0.2208 -0.9936
  773MOL0     C 4280   0.829  10.326   6.938 -0.3858 -0.3305  0.3920
  773MOL0     C 4281   0.734  10.406   7.027  0.2854  0.2161  0.5410
  773MOL0     C 4282   0.729  10.558   7.011 -0.1123  0.2376  1.3727
  773MOL0     C 4283   0.857  10.616   6.969 -0.2311  0.9499  0.2510
  773MOL0     C 4284   0.966  10.659   6.928  0.5032 -0.7045  0.6516
  773MOL0     C 4285   0.802   9.953   6.726 -1.1772  0.1028 -1.0233
  773MOL0     C 4286   0.881   9.885   6.636  0.0964 -0.5766  0.3216
  773MOL0     C 4287   0.913   9.741   6.653  0.2069 -0.1935  0.1866
  773MOL0     H 4288   1.197   9.993   6.274 -0.8106 -0.1659 -1.2823
  773MOL0     H 4289   1.410   9.946   6.135 -0.3175  2.0954  0.2058
  773MOL0     H 4290   1.552   9.839   6.002 -2.1473 -0.5680  2.7917
  773MOL0     H 4291   1.646   9.896   6.138 -0.1446  0.7450 -0.2625
  773MOL0     H 4292   1.826   9.779   6.092  1.3251 -1.0687 -0.0649
  773MOL0     H 4293   1.778   9.834   5.928  2.5579 -0.1360  1.9110
  773MOL0     H 4294   1.738   9.557   6.019 -1.8337 -0.1748 -0.6529
  773MOL0     H 4295   1.850   9.631   5.899 -0.6610  0.8718 -2.3609
  773MOL0     H 4296   1.543   9.624   5.903 -0.3890  0.7211 -0.1794
  773MOL0     H 4297   1.637   9.719   5.778  0.2589 -0.9936 -1.6531
  773MOL0     H 4298   1.605   9.416   5.810  2.1867  0.7243  3.5517
  773MOL0     H 4299   1.545   9.527   5.688 -1.6155  1.7563  2.6273
  773MOL0     H 4300   1.842   9.473   5.727  0.1980 -2.6721 -0.7120
  773MOL0     H 4301   1.747   9.370   5.624 -5.7357 -0.7489 -0.5032
  773MOL0     H 4302   1.732   9.668   5.556  1.0922  0.2839  1.2930
  773MOL0     H 4303   1.696   9.531   5.464 -0.1943  0.6803 -0.7728
  773MOL0     H 4304   1.930   9.455   5.499  0.3595  0.3766 -0.4083
  773MOL0     H 4305   1.906   9.595   5.379 -1.1879  2.1348  0.5352
  773MOL0     H 4306   2.121   9.523   5.684  1.5662  1.5390  1.1829
  773MOL0     H 4307   2.315   9.682   5.786 -1.6087 -1.3714  0.1823
  773MOL0     H 4308   2.309   9.845   5.749  2.6066 -1.9928  1.2447
  773MOL0     H 4309   2.108   9.729   5.932 -4.2297  1.7158 -2.6677
  773MOL0     H 4310   2.258   9.820   5.984  1.1619  2.5437 -1.2358
  773MOL0     H 4311   2.072   9.964   6.003  0.0227 -0.5019  1.5405
  773MOL0     H 4312   1.990   9.904   5.860 -0.9584 -0.1330  2.4728
  773MOL0     H 4313   2.082  10.134   5.858  0.5050 -0.4734  3.7949
  773MOL0     H 4314   2.131  10.030   5.721 -1.7763 -3.7328  0.7463
  773MOL0     H 4315   2.488  10.097   5.965 -0.2809  2.3816  1.2914
  773MOL0     H 4316   2.663  10.243   5.888 -1.7681  2.3844  2.4697
  773MOL0     H 4317   2.593  10.726   5.458  0.5967  1.6426 -0.2040
  773MOL0     H 4318   2.754  10.854   5.314 -0.3275 -1.0527 -0.9779
  773MOL0     H 4319   2.913  10.914   5.132 -1.1871  1.5131  2.1410
  773MOL0     H 4320   2.951  10.949   5.295 -0.1130  1.1848 -1.1277
  773MOL0     H 4321   3.184  10.945   5.251  0.4908  2.5518 -0.5243
  773MOL0     H 4322   3.159  10.846   5.096 -1.6974 -1.5813  1.9639
  773MOL0     H 4323   3.042  11.071   5.011  0.9907 -0.2805 -1.5163
  773MOL0     H 4324   3.114  11.138   5.159 -1.2802 -1.2235  1.6807
  773MOL0     H 4325   3.261  11.158   4.922  1.0736 -2.4732 -1.9071
  773MOL0     H 4326   3.276  10.986   4.949  0.1841  0.2749 -0.8380
  773MOL0     H 4327   3.468  11.041   5.039  0.3089  0.7725 -0.1461
  773MOL0     H 4328   3.371  11.038   5.181 -0.3726  2.0178  1.6229
  773MOL0     H 4329   3.331  11.292   5.161  0.4597  1.0207 -0.0154
  773MOL0     H 4330   3.502  11.246   5.189  2.3328 -1.4056 -2.4424
  773MOL0     H 4331   3.404  11.316   4.918  0.8485  0.5810 -1.5853
  773MOL0     H 4332   3.564  11.273   4.954 -2.7134 -1.4051 -1.7849
  773MOL0     H 4333   3.489  11.529   4.966  2.4946 -0.5631 -2.1625
  773MOL0     H 4334   3.440  11.474   5.125  0.1384 -0.1496  0.3422
  773MOL0     H 4335   3.005  10.502   5.318 -0.8428 -1.5594  2.5414
  773MOL0     H 4336   2.875  10.402   5.487 -1.1969  0.5029  0.3573
  773MOL0     H 4337   2.437  10.361   5.547  2.5359  1.8750  1.8208
  773MOL0     H 4338   2.248  10.190   5.643  0.0321 -3.4152 -1.1041
  773MOL0     H 4339   1.438   9.561   6.315 -0.0424  0.3256  1.2618
  773MOL0     H 4340   1.242   9.626   6.474 -2.6894  0.7857 -1.6791
  773MOL0     H 4341   0.874  10.111   6.381  0.2195 -1.8014 -1.3051
  773MOL0     H 4342   0.728  10.228   6.543 -1.4364 -0.6651 -1.6491
  773MOL0     H 4343   0.873  10.125   6.901  1.0793  1.9594 -1.1505
  773MOL0     H 4344   0.723  10.156   6.995  2.0337  0.3729  0.4485
  773MOL0     H 4345   0.843  10.381   6.845  0.9659  1.0985  1.4114
  773MOL0     H 4346   0.921  10.324   6.996 -0.4687  0.1974  0.5395
  773MOL0     H 4347   0.756  10.358   7.123  2.5317 -1.2140 -0.5872
  773MOL0     H 4348   0.631  10.375   7.009  0.1716  0.4653  0.7622
  773MOL0     H 4349   0.651  10.580   6.937 -0.8218 -1.1549  1.6849
  773MOL0     H 4350   0.700  10.597   7.109 -3.9286  3.1042 -0.6038
  773MOL0     H 4351   1.066  10.686   6.899  0.1415 -0.5836 -0.5203
  773MOL0     H 4352   0.801   9.921   6.830  2.1987 -1.9857 -1.4652
  773MOL0     H 4353   1.019   9.717   6.665  0.0336 -2.8220 -2.2986
  773MOL0     H 4354   0.861   9.708   6.743  1.0682 -1.4981  0.2441
  773MOL0     H 4355   0.889   9.684   6.563  0.6846  2.5752 -1.8523
  774MOL0     O 4356   4.648   6.045   4.564 -0.6656  0.0446 -1.2920
  774MOL0     C 4357   4.653   5.921   4.573  1.2377 -0.8772 -0.0636
  774MOL0     O 4358   4.625   5.835   4.472  0.2224 -0.0390  0.2464
  774MOL0     C 4359   4.578   5.865   4.345  0.9166 -0.3946 -0.8120
  774MOL0     C 4360   4.588   5.766   4.250 -0.0270  0.0865 -0.4761
  774MOL0     C 4361   4.547   5.773   4.124  0.0446  0.3036  0.2284
  774MOL0     C 4362   4.476   5.887   4.083 -0.1746  0.8456  0.0209
  774MOL0     O 4363   4.428   5.888   3.956 -0.0745 -0.6339 -0.2794
  774MOL0     C 4364   4.506   5.948   3.850 -0.1301  0.1667 -0.9152
  774MOL0     C 4365   4.448   5.891   3.715  0.1185  0.1211 -1.1694
  774MOL0     C 4366   4.383   5.999   3.609  1.0985 -0.7063 -0.2445
  774MOL0     C 4367   4.487   6.079   3.522 -0.2444 -0.0082 -0.2874
  774MOL0     C 4368   4.568   6.176   3.597  0.0658 -0.1740  0.2521
  774MOL0     C 4369   4.665   6.228   3.487 -0.6116 -0.3405  1.0534
  774MOL0     C 4370   4.718   6.373   3.527  0.4770 -0.1187 -0.1437
  774MOL0     C 4371   4.837   6.371   3.616 -0.7287 -0.8083 -0.7620
  774MOL0     N 4372   4.805   6.317   3.756  0.1820 -0.4648  0.5617
  774MOL0     C 4373   4.858   6.206   3.817 -0.7113  0.3904 -0.6916
  774MOL0     C 4374   4.777   6.178   3.927  0.1317  0.2636 -0.3846
  774MOL0     C 4375   4.796   6.068   4.033  0.0833  0.7161  0.5146
  774MOL0     C 4376   4.898   6.112   4.140 -1.2765  0.4642 -0.0624
  774MOL0     C 4377   4.914   6.264   4.174 -0.3983 -0.4244 -0.2424
  774MOL0     C 4378   4.811   6.308   4.277  0.2373  0.0393 -0.3633
  774MOL0     O 4379   4.830   6.441   4.319  0.6944 -0.4674 -0.4142
  774MOL0     C 4380   4.944   6.479   4.392 -0.1274 -0.1226  0.2783
  774MOL0     C 4381   5.027   6.389   4.463  0.3498 -0.1629 -0.1203
  774MOL0     C 4382   5.138   6.433   4.538  0.1558 -0.0673  0.0745
  774MOL0     C 4383   5.178   6.574   4.549  0.2919 -0.0937 -0.4970
  774MOL0     C 4384   5.293   6.632   4.622 -0.9143  0.3312 -0.0952
  774MOL0     O 4385   5.314   6.770   4.638 -0.1213  0.1959  0.0050
  774MOL0     C 4386   5.435   6.808   4.686  0.5343 -0.8552  0.3951
  774MOL0     C 4387   5.558   6.788   4.626  0.6975  0.7058  0.1325
  774MOL0     C 4388   5.682   6.833   4.687 -0.0257 -0.1491 -0.5125
  774MOL0     C 4389   5.673   6.906   4.809 -0.0695 -0.1922 -0.0654
  774MOL0     O 4390   5.781   6.916   4.897  0.0545 -0.0456  1.0576
  774MOL0     C 4391   5.822   7.047   4.903 -0.3398  0.5226 -0.1683
  774MOL0     C 4392   5.973   7.044   4.902 -0.4559  0.1409 -0.3253
  774MOL0     C 4393   6.041   7.185   4.900 -1.1224 -0.5578 -0.0495
  774MOL0     C 4394   6.138   7.206   4.775 -0.2767  0.4059 -0.3723
  774MOL0     C 4395   6.190   7.348   4.777 -0.2006  0.2803  1.1629
  774MOL0     C 4396   6.313   7.361   4.680  0.9286  0.1780 -0.7569
  774MOL0     C 4397   6.308   7.314   4.537  0.1784  0.6202 -0.1531
  774MOL0     C 4398   6.454   7.290   4.498 -0.8736 -0.6637  0.2075
  774MOL0    Cl 4399   6.446   7.205   4.345 -0.0935  0.1217  0.2597
  774MOL0     C 4400   5.548   6.929   4.862 -0.1723 -0.0766 -0.0788
  774MOL0     C 4401   5.428   6.878   4.806 -0.0860  0.7041  0.1798
  774MOL0     O 4402   5.365   6.546   4.672 -0.2198  0.0131  0.0185
  774MOL0     C 4403   5.097   6.661   4.475  0.4379  0.8014 -0.2846
  774MOL0     C 4404   4.984   6.612   4.404  0.7386  0.6523  1.0221
  774MOL0     N 4405   4.682   6.283   3.931  0.6401  0.2943  0.2103
  774MOL0     N 4406   4.696   6.359   3.828 -0.9130 -0.4702 -0.3348
  774MOL0     C 4407   4.452   5.990   4.181 -0.1438 -0.3080  0.2664
  774MOL0     C 4408   4.511   5.985   4.307  0.6920  0.7186 -0.2052
  774MOL0     C 4409   4.706   5.845   4.697 -0.1264 -0.6834  0.3654
  774MOL0     C 4410   4.676   5.702   4.705  0.1134 -0.6964 -0.7934
  774MOL0     C 4411   4.697   5.628   4.815 -1.2048 -0.5260 -0.0357
  774MOL0     C 4412   4.753   5.692   4.929  0.0139 -0.4494 -0.2674
  774MOL0     O 4413   4.781   5.615   5.035  0.3807  0.1260  0.0239
  774MOL0     C 4414   4.875   5.658   5.144  0.5662  0.3071 -0.4685
  774MOL0     C 4415   5.018   5.657   5.092 -0.4428 -1.0282  0.3460
  774MOL0     C 4416   5.106   5.730   5.190  0.7454 -0.6486  0.0455
  774MOL0     C 4417   5.083   5.881   5.178 -0.2566 -0.6978 -0.3795
  774MOL0     C 4418   5.014   5.930   5.298 -0.3179 -0.7331  0.1296
  774MOL0     C 4419   4.946   5.961   5.390 -0.1593  0.0256 -0.1529
  774MOL0     C 4420   4.771   5.827   4.923  0.1043 -0.3192  0.1472
  774MOL0     C 4421   4.756   5.911   4.811  0.2980 -0.7313  0.0448
  774MOL0     C 4422   4.796   6.055   4.820 -0.2286 -0.0652 -0.3802
  774MOL0     H 4423   4.646   5.676   4.265 -0.9190 -0.6963 -1.5744
  774MOL0     H 4424   4.558   5.679   4.070  0.4142 -2.9976  5.3286
  774MOL0     H 4425   4.490   6.055   3.858  1.7705  0.3474  1.8538
  774MOL0     H 4426   4.614   5.934   3.866 -0.2011  2.9103  3.6664
  774MOL0     H 4427   4.364   5.828   3.746 -1.7620  0.9786 -4.0937
  774MOL0     H 4428   4.531   5.830   3.678  0.9205 -2.3503  3.8322
  774MOL0     H 4429   4.322   6.067   3.670 -0.0344 -1.9691  0.0734
  774MOL0     H 4430   4.312   5.954   3.540 -1.5448 -0.6144  2.2321
  774MOL0     H 4431   4.564   6.013   3.482 -0.0408  0.4649 -0.6835
  774MOL0     H 4432   4.431   6.130   3.444 -1.2719  2.8553  2.1189
  774MOL0     H 4433   4.501   6.252   3.640 -2.1625 -1.6012 -0.5287
  774MOL0     H 4434   4.626   6.132   3.679  0.8785 -1.2410 -0.8503
  774MOL0     H 4435   4.740   6.152   3.464 -3.3281 -2.6722 -0.8304
  774MOL0     H 4436   4.606   6.234   3.396  0.7879 -0.2259  0.1283
  774MOL0     H 4437   4.637   6.430   3.572  1.4535  0.1087  1.4202
  774MOL0     H 4438   4.749   6.428   3.438 -3.0812 -1.4571 -2.4215
  774MOL0     H 4439   4.910   6.311   3.561 -1.4456  1.3864 -4.4219
  774MOL0     H 4440   4.880   6.472   3.621  0.9482 -1.5134 -0.0618
  774MOL0     H 4441   4.938   6.134   3.801 -0.8968 -1.6955  5.3171
  774MOL0     H 4442   4.697   6.048   4.074 -0.6413 -0.8001 -1.8005
  774MOL0     H 4443   4.825   5.977   3.980 -0.2796  0.0775  1.3846
  774MOL0     H 4444   4.896   6.059   4.235  3.7646  3.4360  2.0837
  774MOL0     H 4445   4.999   6.089   4.104 -0.9115  0.1388  1.1287
  774MOL0     H 4446   4.910   6.330   4.087  0.6076 -0.6958 -0.5111
  774MOL0     H 4447   5.015   6.273   4.217 -0.4281  2.4496 -0.6323
  774MOL0     H 4448   4.802   6.241   4.363 -1.6263 -0.3094 -0.7762
  774MOL0     H 4449   4.720   6.307   4.215 -0.7565  2.8759  0.8898
  774MOL0     H 4450   5.000   6.285   4.479 -0.5755  0.5799  4.7066
  774MOL0     H 4451   5.189   6.357   4.596  0.3806  2.0785  2.9389
  774MOL0     H 4452   5.564   6.729   4.535  3.3124  1.0617 -0.0127
  774MOL0     H 4453   5.777   6.815   4.637 -0.9284 -0.3396 -2.2551
  774MOL0     H 4454   5.782   7.120   4.831 -0.4640  3.3865  2.5702
  774MOL0     H 4455   5.788   7.089   4.998 -1.5773  0.8717 -0.7379
  774MOL0     H 4456   6.032   6.989   4.975  4.8731 -0.2665 -4.3342
  774MOL0     H 4457   6.005   6.991   4.812  3.4559  0.3672  0.7621
  774MOL0     H 4458   5.973   7.270   4.895  0.8289  1.1109  0.4222
  774MOL0     H 4459   6.112   7.198   4.982 -0.7421  2.2472 -0.7446
  774MOL0     H 4460   6.067   7.198   4.692 -0.9052 -0.4722  0.2371
  774MOL0     H 4461   6.221   7.134   4.775 -1.4765 -1.0338 -0.4240
  774MOL0     H 4462   6.223   7.367   4.879 -0.5009 -0.1832  1.3479
  774MOL0     H 4463   6.118   7.421   4.741  0.5630  1.5874  2.2119
  774MOL0     H 4464   6.338   7.467   4.683 -0.2115  0.5338 -2.3954
  774MOL0     H 4465   6.388   7.296   4.727 -0.4641 -0.1178  1.1788
  774MOL0     H 4466   6.274   7.407   4.491  2.5367  0.7963 -1.7188
  774MOL0     H 4467   6.244   7.231   4.507  3.2166 -1.0895 -2.5379
  774MOL0     H 4468   6.513   7.381   4.484 -0.9417  0.0592  3.6755
  774MOL0     H 4469   6.515   7.226   4.562  2.6454  0.6250 -1.5486
  774MOL0     H 4470   5.553   6.968   4.964  1.4622 -2.2415  0.7530
  774MOL0     H 4471   5.334   6.900   4.856 -0.8572  0.7309 -1.2351
  774MOL0     H 4472   5.105   6.769   4.465 -1.7927  1.3893  2.8411
  774MOL0     H 4473   4.922   6.689   4.360 -1.2074 -1.0376  0.6340
  774MOL0     H 4474   4.386   6.071   4.153 -2.8825 -2.1277  0.9688
  774MOL0     H 4475   4.502   6.072   4.370 -0.1838  0.1416  0.4911
  774MOL0     H 4476   4.620   5.656   4.623 -0.9539 -1.4061  0.3016
  774MOL0     H 4477   4.693   5.520   4.809 -0.2038 -0.5922  0.2505
  774MOL0     H 4478   4.872   5.587   5.227  1.4447 -0.3410 -0.9652
  774MOL0     H 4479   4.845   5.747   5.199 -0.9526 -1.2428  1.3826
  774MOL0     H 4480   5.020   5.708   4.996 -1.2759  0.5497  1.1254
  774MOL0     H 4481   5.052   5.553   5.082  0.2721 -1.1566  3.1223
  774MOL0     H 4482   5.212   5.700   5.191  0.8834 -0.3876  3.2088
  774MOL0     H 4483   5.091   5.687   5.289  3.2131  2.0097  1.7313
  774MOL0     H 4484   5.183   5.923   5.168 -0.5382  0.4371  1.2542
  774MOL0     H 4485   5.033   5.909   5.085  2.0641  1.3051 -1.1323
  774MOL0     H 4486   4.894   5.986   5.480 -1.6861  1.4019 -1.3536
  774MOL0     H 4487   4.814   5.869   5.013  0.5847 -0.1862 -0.1395
  774MOL0     H 4488   4.859   6.080   4.906  2.8534  2.0439 -2.9924
  774MOL0     H 4489   4.858   6.082   4.733  0.3781 -2.5771 -0.7908
  774MOL0     H 4490   4.697   6.103   4.815 -0.3167 -0.3404 -2.5323
  775MOL0     O 4491   2.063   2.857   6.059 -0.2580 -0.1131 -0.5865
  775MOL0     C 4492   1.986   2.789   5.990 -0.4286 -0.1603  1.0314
  775MOL0     O 4493   1.932   2.834   5.866  0.0606 -0.3740  0.1204
  775MOL0     C 4494   1.949   2.971   5.850 -0.3178  0.7120 -1.1759
  775MOL0     C 4495   2.054   2.996   5.766  0.1085  0.1325 -0.5573
  775MOL0     C 4496   2.077   3.133   5.744 -0.7538  0.2832  0.3459
  775MOL0     C 4497   2.015   3.242   5.804  0.5923 -0.4291 -0.4535
  775MOL0     O 4498   2.056   3.373   5.785  0.7328  0.0565  0.6327
  775MOL0     C 4499   2.066   3.461   5.897 -0.5790 -0.1189 -1.3601
  775MOL0     C 4500   2.184   3.420   5.992 -0.2052  0.3381 -0.2099
  775MOL0     C 4501   2.321   3.425   5.930  0.0291  0.8906  0.8981
  775MOL0     C 4502   2.426   3.436   6.038  0.2038  0.2635  0.1401
  775MOL0     C 4503   2.558   3.452   5.986  0.1402  0.4691  1.0070
  775MOL0     C 4504   2.618   3.333   5.910  0.5011  0.2539 -0.8658
  775MOL0     C 4505   2.768   3.345   5.873  0.8151  0.5584  0.3051
  775MOL0     C 4506   2.857   3.291   5.989 -0.2900 -0.3949  1.3352
  775MOL0     N 4507   2.875   3.149   5.971  0.6049 -0.4456 -1.0887
  775MOL0     C 4508   2.942   3.094   5.873  1.0424 -0.2477 -0.6653
  775MOL0     C 4509   2.924   2.964   5.884  0.3430  0.3707  0.2881
  775MOL0     C 4510   2.961   2.846   5.786 -0.8577 -0.0446 -0.3801
  775MOL0     C 4511   2.880   2.722   5.810 -0.1745  0.1676 -0.7132
  775MOL0     C 4512   2.926   2.636   5.933 -0.5573  0.3094 -1.1721
  775MOL0     C 4513   2.821   2.532   5.988  0.5739  0.4441 -0.5566
  775MOL0     O 4514   2.702   2.599   6.038 -0.2312 -0.2291 -0.0080
  775MOL0     C 4515   2.625   2.519   6.113  0.4816  0.5830 -0.2973
  775MOL0     C 4516   2.566   2.566   6.226  0.6187 -0.7735  1.9240
  775MOL0     C 4517   2.483   2.486   6.295  0.4851 -1.1071 -0.5539
  775MOL0     C 4518   2.458   2.350   6.264  0.1205 -0.3805 -0.5817
  775MOL0     C 4519   2.362   2.270   6.349  0.6533 -0.1902 -0.2494
  775MOL0     O 4520   2.342   2.143   6.304  0.4372 -1.1684 -0.5181
  775MOL0     C 4521   2.240   2.066   6.372 -1.0130  0.7429 -0.7715
  775MOL0     C 4522   2.272   1.933   6.420  0.1108  0.3548  0.1701
  775MOL0     C 4523   2.171   1.853   6.466  0.2551  0.1624  0.4557
  775MOL0     C 4524   2.042   1.912   6.497 -0.0007  0.2916 -0.0298
  775MOL0     O 4525   1.945   1.847   6.577 -0.2200 -0.8692 -0.1018
  775MOL0     C 4526   1.979   1.722   6.637  0.0622 -1.0220 -0.5087
  775MOL0     C 4527   1.852   1.658   6.667  0.4700  0.8403  0.4746
  775MOL0     C 4528   1.861   1.507   6.689  0.2932 -0.7721 -0.4144
  775MOL0     C 4529   1.933   1.421   6.585 -0.3862 -0.3791 -0.0711
  775MOL0     C 4530   1.884   1.280   6.596  0.5312  0.8616  0.3469
  775MOL0     C 4531   1.898   1.224   6.738  0.3892  0.7839 -0.7720
  775MOL0     C 4532   1.906   1.073   6.744 -0.5416 -0.2489  0.4782
  775MOL0     C 4533   1.797   1.004   6.656 -0.0826 -0.5497 -0.8215
  775MOL0    Cl 4534   1.652   0.998   6.767  0.4957 -0.1976 -0.5452
  775MOL0     C 4535   2.016   2.038   6.453 -0.5677 -0.9162  0.8886
  775MOL0     C 4536   2.110   2.113   6.390 -0.6949  0.8364  0.8416
  775MOL0     O 4537   2.311   2.318   6.452  0.5032 -0.2295  0.0152
  775MOL0     C 4538   2.509   2.301   6.147 -1.3795  0.5396  0.2314
  775MOL0     C 4539   2.590   2.385   6.074 -0.6087  0.0810  0.1745
  775MOL0     N 4540   2.838   2.952   5.995  1.1358 -0.0987  0.0357
  775MOL0     N 4541   2.806   3.058   6.047  0.3851 -0.4925 -0.6945
  775MOL0     C 4542   1.911   3.208   5.900  0.3350 -0.2328 -0.0450
  775MOL0     C 4543   1.883   3.074   5.926  0.2676  0.0394  1.2876
  775MOL0     C 4544   1.968   2.643   6.013  0.3233 -0.5028 -0.0923
  775MOL0     C 4545   1.846   2.588   5.991  0.5270  1.2460 -1.1559
  775MOL0     C 4546   1.825   2.455   6.039  0.0194  0.0467  0.6653
  775MOL0     C 4547   1.905   2.385   6.124 -0.2862  0.5959  0.8525
  775MOL0     O 4548   1.880   2.255   6.171 -0.5722  0.4200 -0.1710
  775MOL0     C 4549   1.753   2.210   6.200  0.7518 -0.5376 -0.7498
  775MOL0     C 4550   1.749   2.060   6.179  0.5895 -0.2123 -1.0638
  775MOL0     C 4551   1.621   2.009   6.236  0.3247  1.3416  0.1824
  775MOL0     C 4552   1.584   1.866   6.199  0.4640  0.7421 -0.0052
  775MOL0     C 4553   1.681   1.777   6.264 -0.6742  0.0433  0.7739
  775MOL0     C 4554   1.746   1.688   6.311 -0.4947  0.1151 -0.1531
  775MOL0     C 4555   2.028   2.443   6.143 -0.8955  1.0977 -0.9139
  775MOL0     C 4556   2.069   2.558   6.078 -0.0442 -0.4004 -0.9017
  775MOL0     C 4557   2.214   2.594   6.094 -0.9839  0.5003  0.0046
  775MOL0     H 4558   2.110   2.915   5.722  1.6400 -0.1755  1.8339
  775MOL0     H 4559   2.155   3.160   5.673 -1.5361  2.7078  0.3056
  775MOL0     H 4560   2.099   3.557   5.855  1.8628  0.0931  0.7461
  775MOL0     H 4561   1.972   3.478   5.950  0.9268  2.8005  0.7282
  775MOL0     H 4562   2.160   3.316   6.017 -0.8504  0.5728  0.1631
  775MOL0     H 4563   2.182   3.486   6.079  2.6980  0.2669  0.0059
  775MOL0     H 4564   2.324   3.509   5.860 -0.0992 -0.0125 -0.2012
  775MOL0     H 4565   2.318   3.333   5.873 -1.0506 -0.5281  3.0969
  775MOL0     H 4566   2.409   3.526   6.098 -0.1209  0.0267  0.4050
  775MOL0     H 4567   2.423   3.353   6.108  3.0511 -0.4244 -0.4418
  775MOL0     H 4568   2.571   3.528   5.909 -0.8501 -2.3990 -2.2907
  775MOL0     H 4569   2.631   3.472   6.065 -0.6210 -0.3344  1.9405
  775MOL0     H 4570   2.599   3.242   5.968  0.0748  1.4363  0.8994
  775MOL0     H 4571   2.562   3.330   5.816 -0.7812  2.3018 -0.2163
  775MOL0     H 4572   2.777   3.454   5.865  2.7167  0.3928 -0.3627
  775MOL0     H 4573   2.778   3.304   5.772  0.7483 -0.4060  0.6842
  775MOL0     H 4574   2.955   3.341   5.994  0.0655 -0.8489 -0.2273
  775MOL0     H 4575   2.816   3.295   6.090  0.1362  1.1645  1.4708
  775MOL0     H 4576   2.989   3.146   5.790  1.1281 -0.7724 -0.9447
  775MOL0     H 4577   2.930   2.886   5.689  0.8455  0.9782 -0.5330
  775MOL0     H 4578   3.066   2.817   5.777 -0.6472  0.0411  1.4050
  775MOL0     H 4579   2.782   2.763   5.836  0.6547  0.4351  2.2562
  775MOL0     H 4580   2.870   2.660   5.720  0.7972  0.7032 -1.2121
  775MOL0     H 4581   2.973   2.687   6.018 -0.1501 -3.2601  0.9506
  775MOL0     H 4582   3.014   2.582   5.897  1.7314  2.3609  0.9525
  775MOL0     H 4583   2.866   2.468   6.064  2.0252 -1.5675 -2.9800
  775MOL0     H 4584   2.795   2.466   5.905 -2.2620  0.2067  0.3910
  775MOL0     H 4585   2.590   2.670   6.245 -1.1905  0.4788 -1.6935
  775MOL0     H 4586   2.434   2.534   6.379  4.4860 -0.6904  1.7776
  775MOL0     H 4587   2.368   1.883   6.408  0.2004 -0.1426  2.5211
  775MOL0     H 4588   2.187   1.746   6.475 -0.9649  0.0460  1.4708
  775MOL0     H 4589   2.036   1.650   6.578 -0.7891 -3.7949  1.8014
  775MOL0     H 4590   2.028   1.745   6.732  3.1231  4.6071 -2.9787
  775MOL0     H 4591   1.792   1.708   6.743 -1.0146 -0.7641  0.4272
  775MOL0     H 4592   1.793   1.681   6.578  1.2688  0.4817 -0.1614
  775MOL0     H 4593   1.902   1.494   6.790  1.0517 -0.2913 -0.6494
  775MOL0     H 4594   1.758   1.471   6.685  0.7002 -1.9164 -0.9729
  775MOL0     H 4595   2.043   1.427   6.589 -0.2396 -2.3144 -0.4150
  775MOL0     H 4596   1.902   1.466   6.491 -0.1291 -0.0287  0.0069
  775MOL0     H 4597   1.940   1.224   6.521  1.9212  3.1933 -0.4440
  775MOL0     H 4598   1.780   1.279   6.561  1.3108  0.4428 -2.1397
  775MOL0     H 4599   1.997   1.257   6.771 -0.0841  1.3527  0.1393
  775MOL0     H 4600   1.822   1.256   6.810  0.8990 -2.6980  1.5520
  775MOL0     H 4601   1.905   1.034   6.846 -3.7509 -2.6614 -0.3189
  775MOL0     H 4602   1.999   1.047   6.694  0.0645  0.5718  1.1444
  775MOL0     H 4603   1.769   1.054   6.564  1.5079 -1.0801 -1.6306
  775MOL0     H 4604   1.820   0.899   6.632 -1.3035 -0.8282 -0.8460
  775MOL0     H 4605   1.917   2.076   6.477 -0.2599  0.3024  0.3113
  775MOL0     H 4606   2.097   2.216   6.357  0.2972 -0.0765 -2.9457
  775MOL0     H 4607   2.489   2.202   6.108  1.7611  1.3625 -4.2465
  775MOL0     H 4608   2.631   2.351   5.980  1.2008  3.8599 -0.5830
  775MOL0     H 4609   1.858   3.290   5.947  0.1782  0.3070 -1.1250
  775MOL0     H 4610   1.811   3.042   6.001 -2.1205 -0.9895 -1.2422
  775MOL0     H 4611   1.762   2.649   5.959 -0.4828 -0.1520 -1.2728
  775MOL0     H 4612   1.723   2.417   6.038 -0.6706  1.7094 -1.5095
  775MOL0     H 4613   1.682   2.255   6.129  0.5947  2.3614  1.0642
  775MOL0     H 4614   1.723   2.229   6.304  0.3062  0.5145 -1.0554
  775MOL0     H 4615   1.829   2.002   6.225 -1.8367 -1.0876  2.4254
  775MOL0     H 4616   1.761   2.046   6.072  2.2735 -1.0977 -0.7850
  775MOL0     H 4617   1.544   2.080   6.203 -0.5435 -0.4450 -1.9037
  775MOL0     H 4618   1.619   2.019   6.345  1.4521  0.4807  0.3026
  775MOL0     H 4619   1.487   1.829   6.234  1.5028  0.2717  2.6049
  775MOL0     H 4620   1.574   1.853   6.091 -2.7226 -3.4919  0.5151
  775MOL0     H 4621   1.806   1.605   6.343  1.7417  0.2734 -3.3910
  775MOL0     H 4622   2.091   2.384   6.209  1.8475  3.1619 -1.5084
  775MOL0     H 4623   2.247   2.597   6.199  0.3155  2.1523 -0.4049
  775MOL0     H 4624   2.273   2.520   6.040 -1.1543 -0.8603  1.5841
  775MOL0     H 4625   2.245   2.690   6.053  0.3277  1.0555  2.1258
  776MOL0     O 4626   9.767   8.096   9.512  0.2837  0.1322  0.3030
  776MOL0     C 4627   9.699   8.181   9.565  0.1907  0.2015 -0.6250
  776MOL0     O 4628   9.567   8.176   9.581 -0.3235 -0.3739 -0.3522
  776MOL0     C 4629   9.494   8.107   9.488  0.4570  0.3276 -0.3803
  776MOL0     C 4630   9.514   8.096   9.349 -1.0545 -0.5331 -0.0818
  776MOL0     C 4631   9.432   8.012   9.280  0.1615  0.4447  0.3067
  776MOL0     C 4632   9.326   7.944   9.342 -1.0879 -0.8476 -0.5080
  776MOL0     O 4633   9.248   7.864   9.264 -0.4053 -0.5469  0.0308
  776MOL0     C 4634   9.106   7.888   9.262  0.5053  0.6986 -0.0938
  776MOL0     C 4635   9.041   7.785   9.356  1.2162  0.6494  0.5217
  776MOL0     C 4636   8.995   7.663   9.274 -0.1127 -0.0271 -0.1474
  776MOL0     C 4637   8.912   7.578   9.361 -0.2605  0.1252 -0.6143
  776MOL0     C 4638   8.874   7.448   9.288  0.8816 -0.6023 -0.1094
  776MOL0     C 4639   8.780   7.363   9.371 -0.1991 -0.2680 -0.2860
  776MOL0     C 4640   8.819   7.212   9.372  0.2715  0.0588  0.5672
  776MOL0     C 4641   8.817   7.159   9.234  0.1989  0.4015  0.2805
  776MOL0     N 4642   8.680   7.181   9.182 -1.0235  0.6980 -0.0100
  776MOL0     C 4643   8.572   7.094   9.213  0.3559 -0.2652  0.8415
  776MOL0     C 4644   8.470   7.135   9.138 -0.1503 -0.6569 -0.5076
  776MOL0     C 4645   8.333   7.081   9.151  0.5938  0.0837 -0.0078
  776MOL0     C 4646   8.247   7.132   9.270 -0.0338 -0.0495  0.7454
  776MOL0     C 4647   8.212   7.280   9.249 -0.6415 -0.6043  0.5680
  776MOL0     C 4648   8.072   7.316   9.306 -0.0074  0.6997 -0.1014
  776MOL0     O 4649   8.081   7.277   9.449  0.8067 -0.0677  0.1553
  776MOL0     C 4650   7.989   7.208   9.517  0.0448 -0.6575  0.0412
  776MOL0     C 4651   7.860   7.160   9.470 -0.3586  0.4452 -1.0616
  776MOL0     C 4652   7.770   7.101   9.555  0.0333  0.6554 -0.5324
  776MOL0     C 4653   7.786   7.102   9.697 -0.1461  1.4859  0.0714
  776MOL0     C 4654   7.677   7.048   9.790 -0.0703  0.3434 -0.2332
  776MOL0     O 4655   7.566   6.988   9.720 -0.4349  0.6803 -0.0758
  776MOL0     C 4656   7.474   6.932   9.805  0.3715  0.5033 -0.0874
  776MOL0     C 4657   7.509   6.808   9.867 -0.1205  0.9897  0.2037
  776MOL0     C 4658   7.417   6.742   9.942 -0.6571  0.3213  0.2407
  776MOL0     C 4659   7.292   6.791   9.968  0.1823 -0.1988  0.5797
  776MOL0     O 4660   7.203   6.708  10.038 -0.1066 -0.2042  0.0518
  776MOL0     C 4661   7.105   6.762  10.125  0.1614 -0.6213  0.1397
  776MOL0     C 4662   7.055   6.649  10.204  0.2463 -0.2084 -0.8805
  776MOL0     C 4663   6.943   6.696  10.305 -0.0173 -0.4809 -0.4598
  776MOL0     C 4664   6.956   6.623  10.442  1.2079 -0.3228 -0.1223
  776MOL0     C 4665   6.852   6.687  10.535  0.6650  0.4042  1.0516
  776MOL0     C 4666   6.837   6.606  10.655  0.5339 -0.7104  0.4609
  776MOL0     C 4667   6.751   6.477  10.640  1.3431 -0.1559  0.6275
  776MOL0     C 4668   6.597   6.513  10.649 -0.6708  0.1044 -0.2621
  776MOL0    Cl 4669   6.489   6.386  10.683 -0.2012  0.3267 -0.0533
  776MOL0     C 4670   7.257   6.916   9.919 -0.3672 -0.8603 -0.1496
  776MOL0     C 4671   7.351   6.990   9.838  0.2492  0.2059 -0.9798
  776MOL0     O 4672   7.684   7.065   9.910  0.3900 -0.7006  0.7588
  776MOL0     C 4673   7.903   7.147   9.748 -0.8288 -0.1723  0.5505
  776MOL0     C 4674   8.000   7.209   9.665  0.4529  0.1006 -0.0100
  776MOL0     N 4675   8.504   7.252   9.067 -1.0574 -0.0495 -0.4947
  776MOL0     N 4676   8.630   7.272   9.091 -0.3340  0.3626  0.2676
  776MOL0     C 4677   9.305   7.963   9.483 -0.0975  0.3154 -0.5452
  776MOL0     C 4678   9.385   8.052   9.554 -0.7795 -0.6074 -0.5104
  776MOL0     C 4679   9.773   8.298   9.624 -0.3389 -0.2609 -0.1499
  776MOL0     C 4680   9.903   8.322   9.575  0.6014  0.3909 -0.0162
  776MOL0     C 4681   9.983   8.428   9.616  0.0011  1.0216  0.5181
  776MOL0     C 4682   9.937   8.519   9.713 -0.6427  0.9196  0.3523
  776MOL0     O 4683  10.022   8.620   9.754 -0.2240  0.5328  0.0104
  776MOL0     C 4684   9.980   8.715   9.858 -0.6459  0.5397  0.6102
  776MOL0     C 4685  10.107   8.790   9.903  0.1817 -0.4828  1.0634
  776MOL0     C 4686  10.067   8.862  10.025  0.1856  0.1480 -0.3384
  776MOL0     C 4687   9.978   8.989   9.993  0.7694 -0.1198  0.1429
  776MOL0     C 4688  10.054   9.069   9.893 -0.6250 -0.4350 -0.5754
  776MOL0     C 4689  10.101   9.134   9.801 -0.5371 -0.0908 -0.7021
  776MOL0     C 4690   9.802   8.496   9.758  0.0089  0.3039  0.3021
  776MOL0     C 4691   9.721   8.399   9.708  0.3453 -0.1067  0.1722
  776MOL0     C 4692   9.579   8.387   9.768  0.2871  0.0171  0.2955
  776MOL0     H 4693   9.588   8.149   9.290 -2.4938  0.4563 -1.0675
  776MOL0     H 4694   9.451   7.969   9.182 -0.2867  0.8113  0.0546
  776MOL0     H 4695   9.075   7.991   9.285  0.1562  0.5235  0.2284
  776MOL0     H 4696   9.064   7.865   9.164  2.8980 -0.1604 -0.9818
  776MOL0     H 4697   8.952   7.836   9.393  2.2831  2.9761  0.0605
  776MOL0     H 4698   9.084   7.761   9.453  0.7582  0.3205  0.6459
  776MOL0     H 4699   9.092   7.615   9.258  0.6162  0.6607  1.9650
  776MOL0     H 4700   8.935   7.681   9.183 -0.1903 -0.7618 -0.2464
  776MOL0     H 4701   8.967   7.552   9.451 -0.8100 -0.7646 -0.5326
  776MOL0     H 4702   8.815   7.618   9.392 -0.7550 -0.7900 -0.9500
  776MOL0     H 4703   8.825   7.467   9.192 -0.0354  1.8668  0.7540
  776MOL0     H 4704   8.968   7.394   9.278  0.7483 -1.3519  2.1241
  776MOL0     H 4705   8.787   7.402   9.472  3.2124 -1.6617  0.1506
  776MOL0     H 4706   8.677   7.381   9.339 -1.1921 -0.9611  2.2669
  776MOL0     H 4707   8.747   7.146   9.421 -0.0383  0.6237  0.8721
  776MOL0     H 4708   8.917   7.208   9.421  1.0978 -1.7623 -1.1048
  776MOL0     H 4709   8.900   7.203   9.178  0.1331  0.0447 -0.0979
  776MOL0     H 4710   8.835   7.051   9.237 -0.5675  0.0235 -3.7548
  776MOL0     H 4711   8.558   7.018   9.290 -1.2413 -0.6778  0.1879
  776MOL0     H 4712   8.272   7.093   9.062 -0.2133 -1.2688  0.3225
  776MOL0     H 4713   8.346   6.973   9.168  1.3112 -0.2467 -2.3944
  776MOL0     H 4714   8.157   7.076   9.298 -0.5267  1.6317  2.7704
  776MOL0     H 4715   8.302   7.116   9.363  0.3600 -3.1358  0.0763
  776MOL0     H 4716   8.183   7.287   9.144 -1.0526  0.8027  0.7544
  776MOL0     H 4717   8.287   7.353   9.283  0.6849 -1.8838  0.4987
  776MOL0     H 4718   7.989   7.266   9.257  0.2012 -1.7967  1.9149
  776MOL0     H 4719   8.068   7.425   9.304 -0.6897  0.6685 -0.7759
  776MOL0     H 4720   7.846   7.154   9.363  0.1536  0.7941 -1.1488
  776MOL0     H 4721   7.677   7.056   9.522 -0.4272  0.8154  0.5243
  776MOL0     H 4722   7.599   6.755   9.839  0.3971  0.5974  2.3966
  776MOL0     H 4723   7.446   6.644   9.979  0.8554 -0.5501 -2.8913
  776MOL0     H 4724   7.151   6.827  10.200 -2.1788  3.2875 -1.4897
  776MOL0     H 4725   7.025   6.813  10.070 -0.0829 -1.8875 -0.7145
  776MOL0     H 4726   7.005   6.580  10.136  0.5288  0.5015 -1.8316
  776MOL0     H 4727   7.141   6.591  10.240 -0.0972 -0.9019 -1.1576
  776MOL0     H 4728   6.953   6.802  10.333 -0.4767 -0.3612 -0.7470
  776MOL0     H 4729   6.842   6.679  10.267 -0.3577  4.1001 -2.2422
  776MOL0     H 4730   7.059   6.614  10.480 -0.5865  0.9702  6.3419
  776MOL0     H 4731   6.926   6.519  10.424 -1.2129  0.4207 -0.6654
  776MOL0     H 4732   6.762   6.699  10.475  0.5990 -0.8073  0.9003
  776MOL0     H 4733   6.901   6.779  10.571  0.4779  0.9206  0.0254
  776MOL0     H 4734   6.936   6.574  10.686 -0.4299 -1.1373  3.4373
  776MOL0     H 4735   6.808   6.672  10.738  1.9615 -0.9933  1.2098
  776MOL0     H 4736   6.766   6.414  10.728  0.2280 -0.2199  0.7772
  776MOL0     H 4737   6.765   6.419  10.548 -2.9728 -0.9440  0.2643
  776MOL0     H 4738   6.584   6.594  10.720 -3.0810 -0.1733 -0.3178
  776MOL0     H 4739   6.548   6.550  10.558  0.6245 -1.3787 -1.6555
  776MOL0     H 4740   7.162   6.959   9.947 -1.0012 -2.2364 -0.1177
  776MOL0     H 4741   7.325   7.093   9.816 -2.0491  0.1080  0.8921
  776MOL0     H 4742   7.907   7.153   9.856 -1.5063 -0.5597  0.6043
  776MOL0     H 4743   8.074   7.260   9.725  0.5397 -0.0450  0.0087
  776MOL0     H 4744   9.236   7.903   9.541  0.7364  0.0177  0.1650
  776MOL0     H 4745   9.377   8.069   9.660  1.6912  0.7187 -0.4488
  776MOL0     H 4746   9.938   8.250   9.502  1.0132 -0.7558  1.2863
  776MOL0     H 4747  10.081   8.435   9.570 -0.5671 -4.1039 -2.3218
  776MOL0     H 4748   9.950   8.665   9.950 -1.1135  1.9984  1.2906
  776MOL0     H 4749   9.892   8.774   9.832 -1.4015 -0.8138  0.0448
  776MOL0     H 4750  10.149   8.845   9.819 -0.9252 -0.3120  0.6040
  776MOL0     H 4751  10.181   8.713   9.926  0.1214 -0.5833  0.9256
  776MOL0     H 4752  10.157   8.896  10.077  0.6765 -0.6536 -0.6399
  776MOL0     H 4753  10.017   8.800  10.099  2.0966  0.4383  1.2800
  776MOL0     H 4754   9.876   8.966   9.961 -0.8991  3.9177  1.9177
  776MOL0     H 4755   9.970   9.055  10.080 -2.2972  0.3928 -0.4204
  776MOL0     H 4756  10.153   9.183   9.721 -2.6830 -0.7549 -2.6222
  776MOL0     H 4757   9.765   8.570   9.828 -0.4552 -0.4942  0.9216
  776MOL0     H 4758   9.495   8.401   9.701 -0.5677 -0.0904  1.3211
  776MOL0     H 4759   9.568   8.295   9.825  2.4238  0.2224  1.1556
  776MOL0     H 4760   9.571   8.469   9.841  2.4679  0.0727  0.5641
  777MOL0     O 4761  11.058   0.905   2.502  0.5625  0.6484 -0.1142
  777MOL0     C 4762  11.059   1.022   2.531 -0.0507  0.1275  0.0283
  777MOL0     O 4763  11.070   1.119   2.440 -0.0878 -0.2335 -0.4195
  777MOL0     C 4764  11.063   1.099   2.304  0.3370  0.4883  0.5627
  777MOL0     C 4765  11.165   1.162   2.225  0.4482 -0.7995  0.6646
  777MOL0     C 4766  11.145   1.171   2.090 -0.0470  0.2442  0.5864
  777MOL0     C 4767  11.026   1.126   2.035  0.6142 -0.9671 -0.1547
  777MOL0     O 4768  10.991   1.144   1.900 -0.6538  0.2183 -0.2525
  777MOL0     C 4769  11.025   1.271   1.835  0.0704 -0.3737 -0.0611
  777MOL0     C 4770  10.952   1.291   1.703 -0.2455 -0.0213  0.7368
  777MOL0     C 4771  10.951   1.170   1.610 -0.3274  0.5457 -0.8388
  777MOL0     C 4772  11.092   1.110   1.582 -0.1974  0.3958  0.7832
  777MOL0     C 4773  11.167   1.165   1.458  0.3685  0.8151  0.6689
  777MOL0     C 4774  11.235   1.047   1.388 -1.0095  0.3316  0.7606
  777MOL0     C 4775  11.305   1.097   1.266 -0.3974  0.3376 -0.1807
  777MOL0     C 4776  11.374   0.980   1.189 -0.6396 -0.8722  0.0946
  777MOL0     N 4777  11.281   0.890   1.121 -0.4341  0.0918 -0.4256
  777MOL0     C 4778  11.219   0.779   1.178 -0.1120 -0.2558 -0.9937
  777MOL0     C 4779  11.153   0.719   1.076  0.3916 -0.5463  0.3093
  777MOL0     C 4780  11.077   0.587   1.073  0.3694  0.1964 -0.1358
  777MOL0     C 4781  10.941   0.616   1.013  0.8373 -0.0348  1.0017
  777MOL0     C 4782  10.842   0.504   1.053  1.0639  0.6550 -0.0521
  777MOL0     C 4783  10.738   0.547   1.155  0.5591  0.3950  0.3626
  777MOL0     O 4784  10.812   0.602   1.262  0.0575  0.0757  0.0572
  777MOL0     C 4785  10.814   0.527   1.386 -0.0378  0.3259  0.5394
  777MOL0     C 4786  10.935   0.524   1.457 -0.2914 -0.7625  0.3501
  777MOL0     C 4787  10.943   0.477   1.587 -0.5060 -0.5764 -0.4871
  777MOL0     C 4788  10.836   0.416   1.651 -0.3544  0.1776  1.1663
  777MOL0     C 4789  10.853   0.343   1.779  0.1787  0.4348  0.5423
  777MOL0     O 4790  10.749   0.262   1.824  0.1874  0.3646  0.1314
  777MOL0     C 4791  10.778   0.149   1.906 -0.5938 -0.1718 -0.6060
  777MOL0     C 4792  10.672   0.087   1.976  0.4539 -0.6028  0.3403
  777MOL0     C 4793  10.688  -0.021   2.058  1.0186 -0.6651  0.9663
  777MOL0     C 4794  10.813  -0.070   2.078  0.3766  0.2874  0.3253
  777MOL0     O 4795  10.814  -0.165   2.181 -0.5113 -0.1240  0.2932
  777MOL0     C 4796  10.927  -0.257   2.186  0.2435 -0.4823  0.1840
  777MOL0     C 4797  10.888  -0.350   2.305  0.6853  0.0847  0.2110
  777MOL0     C 4798  10.998  -0.455   2.350  0.1637  0.6823 -0.8203
  777MOL0     C 4799  11.114  -0.390   2.417 -0.1391  0.0673 -0.1571
  777MOL0     C 4800  11.194  -0.501   2.477  0.6769 -0.0078  0.0105
  777MOL0     C 4801  11.319  -0.445   2.545 -0.7730 -1.0079  0.0404
  777MOL0     C 4802  11.279  -0.346   2.661 -0.4875  0.7922 -0.3437
  777MOL0     C 4803  11.365  -0.369   2.798 -0.4295 -0.7741 -0.2059
  777MOL0    Cl 4804  11.339  -0.224   2.900  0.0891  0.1325 -0.0425
  777MOL0     C 4805  10.919  -0.025   2.016  0.0458 -0.1025  0.2356
  777MOL0     C 4806  10.908   0.087   1.931  0.8808 -0.3563  0.0609
  777MOL0     O 4807  10.943   0.374   1.854  0.5359  1.0399  0.3551
  777MOL0     C 4808  10.724   0.404   1.569  0.3799  0.3811 -0.6409
  777MOL0     C 4809  10.705   0.454   1.443  0.2784  0.3428  0.2644
  777MOL0     N 4810  11.199   0.787   0.960 -0.2615 -0.1996  0.7932
  777MOL0     N 4811  11.264   0.897   0.987  0.2969  0.4225 -0.3762
  777MOL0     C 4812  10.939   1.042   2.105  1.0075 -0.7982 -0.0893
  777MOL0     C 4813  10.956   1.031   2.244 -0.0840  0.3201  1.3947
  777MOL0     C 4814  11.042   1.066   2.676 -0.9539  0.1622  0.1712
  777MOL0     C 4815  11.056   1.206   2.703  0.5391 -0.9121  0.1928
  777MOL0     C 4816  11.031   1.255   2.833 -0.6253  0.3775  0.1938
  777MOL0     C 4817  11.011   1.169   2.941  0.5419 -0.3008 -1.3821
  777MOL0     O 4818  10.978   1.214   3.064  0.0053 -0.0599 -0.1532
  777MOL0     C 4819  10.889   1.326   3.078 -0.5939  0.3088  0.6708
  777MOL0     C 4820  10.754   1.323   3.012  0.1249  0.4686 -0.5501
  777MOL0     C 4821  10.656   1.241   3.103 -0.0720 -0.0245  0.2742
  777MOL0     C 4822  10.526   1.220   3.035  0.3110 -0.5352 -0.2816
  777MOL0     C 4823  10.458   1.110   3.105  0.3101  0.2544 -0.2440
  777MOL0     C 4824  10.418   1.021   3.176 -0.4101  0.7499 -0.1038
  777MOL0     C 4825  10.996   1.029   2.914  0.6979  0.6540 -1.2696
  777MOL0     C 4826  11.004   0.973   2.783 -0.4663 -0.4078 -0.1195
  777MOL0     C 4827  10.976   0.827   2.762  0.3750  0.4359 -0.4485
  777MOL0     H 4828  11.236   1.223   2.281  0.1566  1.6059 -1.3918
  777MOL0     H 4829  11.197   1.247   2.034 -1.3136  1.3448  0.8528
  777MOL0     H 4830  10.989   1.356   1.894  1.1043  0.9246 -1.2359
  777MOL0     H 4831  11.131   1.288   1.817 -0.3764 -0.4021 -3.3395
  777MOL0     H 4832  10.998   1.371   1.645 -1.4790 -0.0375 -0.3110
  777MOL0     H 4833  10.849   1.317   1.732  0.0136  1.4783  0.3664
  777MOL0     H 4834  10.893   1.167   1.518  2.1621 -0.2022 -2.4897
  777MOL0     H 4835  10.895   1.091   1.662  1.8946 -0.6390 -0.1049
  777MOL0     H 4836  11.169   1.110   1.660  1.9418 -3.2000 -1.0923
  777MOL0     H 4837  11.068   1.005   1.569 -1.4642  0.6381  1.0683
  777MOL0     H 4838  11.097   1.221   1.395 -0.5135  3.1966  3.4919
  777MOL0     H 4839  11.241   1.237   1.494  1.0768 -0.5427  2.0633
  777MOL0     H 4840  11.309   0.997   1.452 -1.7762 -0.3743  1.1141
  777MOL0     H 4841  11.170   0.969   1.348 -0.2693  1.1277 -2.2356
  777MOL0     H 4842  11.365   1.186   1.290  2.6728 -1.8643  0.9260
  777MOL0     H 4843  11.242   1.130   1.183 -0.8717  0.1783  0.1151
  777MOL0     H 4844  11.448   1.020   1.120 -2.4070 -1.4659 -2.2602
  777MOL0     H 4845  11.427   0.915   1.259  3.9520  1.9918 -0.2641
  777MOL0     H 4846  11.210   0.751   1.282 -2.1301  0.9898 -0.7748
  777MOL0     H 4847  11.132   0.520   1.007 -2.0550  1.1572 -3.4145
  777MOL0     H 4848  11.063   0.549   1.175  0.2328 -2.9931 -1.2107
  777MOL0     H 4849  10.904   0.714   1.042  0.7115 -0.3715  2.0195
  777MOL0     H 4850  10.953   0.608   0.904  1.8293 -1.2112  1.1653
  777MOL0     H 4851  10.895   0.414   1.086 -3.9887 -1.7891  2.5205
  777MOL0     H 4852  10.784   0.476   0.965  0.1650  0.2965  0.6389
  777MOL0     H 4853  10.677   0.459   1.176 -0.3072  1.0644  0.7472
  777MOL0     H 4854  10.671   0.619   1.106 -2.4939 -3.4860 -1.7203
  777MOL0     H 4855  11.020   0.572   1.410 -0.3478  0.1887  1.1974
  777MOL0     H 4856  11.026   0.506   1.651 -0.8499 -1.0910  0.2052
  777MOL0     H 4857  10.571   0.125   1.969  0.8044  0.3175  0.2437
  777MOL0     H 4858  10.605  -0.071   2.108 -0.1270  0.1911 -0.0075
  777MOL0     H 4859  10.930  -0.313   2.092  2.0307 -2.1842  1.1731
  777MOL0     H 4860  11.019  -0.200   2.204 -0.0585  0.7960 -1.9634
  777MOL0     H 4861  10.863  -0.292   2.394 -1.4937 -0.9021  0.3147
  777MOL0     H 4862  10.793  -0.403   2.289  0.9101 -0.1240 -0.5004
  777MOL0     H 4863  10.946  -0.514   2.426  1.9594  3.3010  2.7542
  777MOL0     H 4864  11.027  -0.521   2.268  1.1255 -0.2861  0.2666
  777MOL0     H 4865  11.067  -0.326   2.493  0.2609 -0.5086  0.5897
  777MOL0     H 4866  11.180  -0.323   2.361  1.1456 -1.2932 -0.3337
  777MOL0     H 4867  11.223  -0.562   2.391 -1.3916 -2.6976  1.0476
  777MOL0     H 4868  11.131  -0.562   2.542 -0.1811 -1.5260 -2.1062
  777MOL0     H 4869  11.365  -0.530   2.597  0.5634  0.0613  0.6765
  777MOL0     H 4870  11.390  -0.400   2.475 -1.6959 -3.5384 -2.7320
  777MOL0     H 4871  11.173  -0.361   2.686 -0.4549  2.0462  0.6812
  777MOL0     H 4872  11.289  -0.246   2.617 -1.6024 -0.2513 -3.2339
  777MOL0     H 4873  11.334  -0.461   2.850 -3.4824 -0.0265 -0.4886
  777MOL0     H 4874  11.472  -0.371   2.780 -0.1502 -1.4555  1.3564
  777MOL0     H 4875  11.016  -0.071   2.028  0.2116 -0.6334 -2.5732
  777MOL0     H 4876  10.993   0.136   1.885 -0.9379  1.5310 -1.4691
  777MOL0     H 4877  10.639   0.345   1.602  0.0622 -0.8481 -3.4004
  777MOL0     H 4878  10.612   0.454   1.388  1.0770  1.3563 -1.1413
  777MOL0     H 4879  10.869   0.984   2.046 -1.8656  0.8257  1.4976
  777MOL0     H 4880  10.889   0.959   2.289 -0.6630  0.3889  0.6784
  777MOL0     H 4881  11.086   1.270   2.621  1.5107  0.3280  1.4661
  777MOL0     H 4882  11.049   1.361   2.848 -0.9707  0.1257  2.7516
  777MOL0     H 4883  10.933   1.415   3.032  3.3991 -0.1494  3.1719
  777MOL0     H 4884  10.881   1.363   3.181  0.8763  0.1390  0.8672
  777MOL0     H 4885  10.760   1.271   2.916  0.4230 -4.0776  1.6444
  777MOL0     H 4886  10.721   1.427   3.006  1.4725  1.0874  1.7129
  777MOL0     H 4887  10.652   1.283   3.204 -0.7973 -0.3530  0.3873
  777MOL0     H 4888  10.702   1.145   3.127  4.3187  1.5487 -0.8860
  777MOL0     H 4889  10.473   1.315   3.045  0.7291 -0.4441  1.2923
  777MOL0     H 4890  10.542   1.200   2.928 -2.0552 -0.9296 -0.6278
  777MOL0     H 4891  10.392   0.939   3.239 -2.3194 -0.5768 -2.4436
  777MOL0     H 4892  10.973   0.968   3.001 -0.8592  1.7678 -0.8614
  777MOL0     H 4893  11.062   0.767   2.731 -0.4912 -3.5856  3.7354
  777MOL0     H 4894  10.942   0.783   2.856  3.3190  2.9880  2.0304
  777MOL0     H 4895  10.898   0.815   2.686 -0.8884  0.0558  0.8632
  778MOL0     O 4896  10.093   1.997   6.742 -0.2644  0.4574  0.2976
  778MOL0     C 4897  10.102   1.972   6.864 -0.5319 -1.0027  0.2625
  778MOL0     O 4898  10.074   1.855   6.920 -0.6863  0.5364  0.4630
  778MOL0     C 4899  10.086   1.729   6.862 -0.6384  0.4297 -0.2396
  778MOL0     C 4900  10.007   1.631   6.908 -0.6418 -0.3701  1.2972
  778MOL0     C 4901  10.011   1.508   6.848  0.5627 -0.2648 -0.0609
  778MOL0     C 4902  10.107   1.470   6.753  0.3239 -0.7120 -0.3186
  778MOL0     O 4903  10.111   1.344   6.715  0.8085  0.6843  0.4418
  778MOL0     C 4904  10.190   1.263   6.804  0.1499  0.8196  0.3901
  778MOL0     C 4905  10.347   1.268   6.780 -0.4007 -0.1406 -0.1687
  778MOL0     C 4906  10.382   1.240   6.630  1.2261  0.5953  0.2873
  778MOL0     C 4907  10.528   1.262   6.593 -0.8101  0.3326 -0.2797
  778MOL0     C 4908  10.550   1.221   6.442  1.0366 -0.1267  0.8443
  778MOL0     C 4909  10.541   1.066   6.421 -0.5492 -0.4625  0.0611
  778MOL0     C 4910  10.549   1.057   6.257  0.7748  0.3022 -0.7669
  778MOL0     C 4911  10.508   0.919   6.211 -0.4154 -0.7946 -0.3137
  778MOL0     N 4912  10.552   0.883   6.076  0.9367 -0.0278  0.2655
  778MOL0     C 4913  10.518   0.772   6.006 -0.4453 -0.2036 -0.6464
  778MOL0     C 4914  10.563   0.793   5.880 -0.3339  0.0151  0.0590
  778MOL0     C 4915  10.562   0.690   5.772 -0.7732  0.1144 -1.0347
  778MOL0     C 4916  10.648   0.571   5.817  0.9200 -0.2636 -0.1016
  778MOL0     C 4917  10.668   0.489   5.685  0.9095  1.3451 -0.7122
  778MOL0     C 4918  10.548   0.419   5.625  0.7348  0.0989 -0.6567
  778MOL0     O 4919  10.452   0.510   5.564 -0.0924  0.1468 -0.6249
  778MOL0     C 4920  10.409   0.462   5.449  0.2773 -0.5811 -0.4114
  778MOL0     C 4921  10.330   0.344   5.443 -0.3280  0.4140 -0.1894
  778MOL0     C 4922  10.274   0.312   5.316 -0.0302  0.1608 -0.5509
  778MOL0     C 4923  10.316   0.383   5.200  0.0103  0.1377  0.2099
  778MOL0     C 4924  10.270   0.324   5.070  1.1608  0.9497 -0.6581
  778MOL0     O 4925  10.169   0.233   5.081 -0.6409  0.0895  0.2156
  778MOL0     C 4926  10.099   0.170   4.981 -0.2382  0.1855  1.0172
  778MOL0     C 4927  10.101   0.212   4.847  0.2838 -0.1306  0.7218
  778MOL0     C 4928  10.018   0.147   4.752 -0.7325  0.5353  0.4664
  778MOL0     C 4929   9.934   0.044   4.788 -0.8325 -0.2531 -0.6244
  778MOL0     O 4930   9.859  -0.005   4.689 -0.0697 -0.5671  0.4316
  778MOL0     C 4931   9.722  -0.033   4.725 -0.0020 -0.2609 -0.6343
  778MOL0     C 4932   9.637   0.028   4.628 -0.0374 -0.5249 -0.1387
  778MOL0     C 4933   9.667  -0.015   4.486 -0.4606  0.4378 -0.6636
  778MOL0     C 4934   9.530  -0.021   4.413  0.9704  0.2039  0.1077
  778MOL0     C 4935   9.528  -0.034   4.264 -0.3807  0.8060 -0.3188
  778MOL0     C 4936   9.379  -0.023   4.227  1.4069 -0.8322 -0.3608
  778MOL0     C 4937   9.367  -0.045   4.077 -0.4445 -0.0718  0.8328
  778MOL0     C 4938   9.328  -0.181   4.046  0.5829  0.3128  0.4553
  778MOL0    Cl 4939   9.165  -0.212   4.101 -0.1645 -0.0752 -0.3669
  778MOL0     C 4940   9.935  -0.001   4.926 -1.4080 -0.3429  1.2419
  778MOL0     C 4941  10.022   0.060   5.020  0.5877 -0.5461  0.7474
  778MOL0     O 4942  10.325   0.348   4.967 -0.2560  0.1401 -0.1453
  778MOL0     C 4943  10.390   0.502   5.211 -0.7631 -0.3758  0.1895
  778MOL0     C 4944  10.435   0.539   5.332 -0.4677  0.3120  0.3390
  778MOL0     N 4945  10.645   0.904   5.883  0.4406  0.1643 -0.2500
  778MOL0     N 4946  10.621   0.960   5.995 -1.2519  0.0161  0.1365
  778MOL0     C 4947  10.187   1.575   6.704 -1.0233  0.2825 -0.0658
  778MOL0     C 4948  10.171   1.699   6.763  0.4648  1.1426  0.9401
  778MOL0     C 4949  10.154   2.081   6.953  0.4084 -0.2799  0.7235
  778MOL0     C 4950  10.238   2.041   7.065 -0.5620 -0.2567  0.5330
  778MOL0     C 4951  10.293   2.131   7.159 -0.3103  0.2792 -0.2159
  778MOL0     C 4952  10.269   2.271   7.145  1.1404  1.1995 -0.5836
  778MOL0     O 4953  10.321   2.352   7.241  0.0603 -0.3890 -0.2138
  778MOL0     C 4954  10.281   2.495   7.228  0.6640  0.5839 -0.3739
  778MOL0     C 4955  10.136   2.521   7.275  0.7549 -0.1596  0.1846
  778MOL0     C 4956  10.079   2.654   7.208 -0.3060  0.8002 -0.2177
  778MOL0     C 4957  10.173   2.774   7.214 -0.3672 -0.8838 -0.2001
  778MOL0     C 4958  10.229   2.789   7.350 -0.9151  0.5606 -0.8200
  778MOL0     C 4959  10.280   2.790   7.456  0.2689  0.5549 -0.5992
  778MOL0     C 4960  10.190   2.312   7.032 -0.1250  0.3808  0.2049
  778MOL0     C 4961  10.141   2.224   6.939 -1.0565 -0.6364  0.4489
  778MOL0     C 4962  10.068   2.283   6.819  0.8032  1.0895  0.8766
  778MOL0     H 4963   9.928   1.644   6.982 -2.0714  1.1547 -0.3815
  778MOL0     H 4964   9.934   1.436   6.873 -0.5307  0.5001 -1.0869
  778MOL0     H 4965  10.188   1.286   6.911 -0.7783  0.3795  0.4827
  778MOL0     H 4966  10.160   1.158   6.797  0.8516  0.4673  2.1094
  778MOL0     H 4967  10.387   1.180   6.832 -0.6572  0.7973  1.6980
  778MOL0     H 4968  10.391   1.365   6.806 -0.0929  0.9346 -4.0788
  778MOL0     H 4969  10.316   1.301   6.566  0.5450 -3.4466 -3.2864
  778MOL0     H 4970  10.347   1.139   6.605 -0.8077  1.8093 -2.3777
  778MOL0     H 4971  10.547   1.369   6.601 -0.5251  0.2191  0.7129
  778MOL0     H 4972  10.590   1.207   6.665 -0.2035  0.2306 -0.8724
  778MOL0     H 4973  10.481   1.282   6.383  0.1699 -0.0515  1.8921
  778MOL0     H 4974  10.648   1.253   6.405  1.2207  1.2132  2.3999
  778MOL0     H 4975  10.607   0.999   6.476  2.6382  1.6999 -0.8728
  778MOL0     H 4976  10.438   1.037   6.444 -0.7753 -1.4866 -2.0228
  778MOL0     H 4977  10.649   1.089   6.226  1.1903 -1.1456 -1.0258
  778MOL0     H 4978  10.474   1.125   6.215 -1.4223 -0.8170  1.1160
  778MOL0     H 4979  10.553   0.844   6.276  0.9520  0.9598  0.8423
  778MOL0     H 4980  10.400   0.907   6.221 -0.5851  1.3645  0.8372
  778MOL0     H 4981  10.478   0.680   6.046 -0.9200 -0.6673 -2.1312
  778MOL0     H 4982  10.461   0.651   5.758 -0.4155 -1.6232  0.7024
  778MOL0     H 4983  10.612   0.719   5.679  1.5728  0.9548  0.4022
  778MOL0     H 4984  10.744   0.607   5.857  0.3049 -1.2247  2.4841
  778MOL0     H 4985  10.594   0.512   5.892 -1.3337  0.0871 -1.3547
  778MOL0     H 4986  10.733   0.409   5.718  0.9630  1.5497 -0.3222
  778MOL0     H 4987  10.719   0.552   5.611 -0.8604  4.4343  0.4810
  778MOL0     H 4988  10.500   0.348   5.693  3.1224 -0.8348  0.1634
  778MOL0     H 4989  10.588   0.350   5.550  1.8835 -0.1646  0.1592
  778MOL0     H 4990  10.317   0.294   5.538  2.6755  1.1555  0.7349
  778MOL0     H 4991  10.211   0.224   5.316  0.7577 -0.4238 -0.5161
  778MOL0     H 4992  10.150   0.303   4.814 -0.0536  0.1857  1.0690
  778MOL0     H 4993  10.034   0.172   4.648  2.5229  1.7299  1.1478
  778MOL0     H 4994   9.702  -0.140   4.737 -1.8758  0.1030 -0.1424
  778MOL0     H 4995   9.691   0.005   4.823  2.2353  1.7712 -0.6333
  778MOL0     H 4996   9.537  -0.003   4.661 -0.0913  0.2608  0.4561
  778MOL0     H 4997   9.649   0.136   4.643  2.8971 -0.4257 -2.3819
  778MOL0     H 4998   9.739   0.049   4.434 -1.7318 -0.4567 -3.6963
  778MOL0     H 4999   9.714  -0.114   4.492  1.8550  1.5132  0.2093
  778MOL0     H 5000   9.467   0.057   4.456  2.8653  0.8384  1.8909
  778MOL0     H 5001   9.482  -0.112   4.448  2.6303 -0.5246  0.5737
  778MOL0     H 5002   9.578  -0.129   4.246 -0.6000  0.5155  0.5415
  778MOL0     H 5003   9.591   0.036   4.208  0.6457 -0.9444 -1.4513
  778MOL0     H 5004   9.324  -0.094   4.289  1.9034 -0.7452  0.1911
  778MOL0     H 5005   9.349   0.076   4.263 -0.8081 -3.1993  5.5331
  778MOL0     H 5006   9.454  -0.029   4.012 -0.7392 -2.0592 -0.1298
  778MOL0     H 5007   9.290   0.026   4.044 -1.0065 -0.9335  0.2463
  778MOL0     H 5008   9.320  -0.186   3.937  0.5358 -1.3154  0.5070
  778MOL0     H 5009   9.406  -0.248   4.083 -0.4045 -1.6821 -0.8831
  778MOL0     H 5010   9.867  -0.077   4.962 -1.9949 -0.1632  0.5266
  778MOL0     H 5011  10.017   0.026   5.123 -1.0727 -2.2134  0.1853
  778MOL0     H 5012  10.407   0.556   5.117 -5.4558  1.3415  0.0933
  778MOL0     H 5013  10.500   0.625   5.344 -0.9868  0.7964 -0.2357
  778MOL0     H 5014  10.250   1.558   6.617  0.4292  1.1482  0.7818
  778MOL0     H 5015  10.226   1.785   6.725 -0.4746  2.0124  1.4880
  778MOL0     H 5016  10.262   1.937   7.085 -1.5731 -0.9437 -1.5476
  778MOL0     H 5017  10.355   2.089   7.238 -2.3513 -2.2932  0.1713
  778MOL0     H 5018  10.300   2.541   7.131 -1.2204  1.4471 -0.3734
  778MOL0     H 5019  10.348   2.550   7.295  1.1069 -0.5078  0.1065
  778MOL0     H 5020  10.145   2.535   7.383 -1.2536 -0.7207  0.4697
  778MOL0     H 5021  10.064   2.438   7.269 -0.6963  1.0651  0.1994
  778MOL0     H 5022   9.983   2.670   7.257 -2.1021 -1.2640 -2.7543
  778MOL0     H 5023  10.047   2.633   7.105 -1.0075 -0.4184  0.2142
  778MOL0     H 5024  10.265   2.776   7.154  0.1713  1.2772  0.6116
  778MOL0     H 5025  10.114   2.863   7.189  1.9020  0.4555 -1.1051
  778MOL0     H 5026  10.331   2.779   7.550  1.8692  2.7735 -1.1049
  778MOL0     H 5027  10.174   2.418   7.019  2.3187  0.6193 -1.4528
  778MOL0     H 5028   9.967   2.243   6.806  0.7412  1.6918 -0.8388
  778MOL0     H 5029  10.065   2.391   6.838  1.0432  0.6805  3.6649
  778MOL0     H 5030  10.124   2.275   6.725 -1.2130  1.5183 -0.4255
  779MOL0     O 5031   4.778   9.569   3.649 -0.4460 -0.4404  0.9946
  779MOL0     C 5032   4.742   9.655   3.564  0.6452 -0.9708  0.2538
  779MOL0     O 5033   4.718   9.790   3.587 -0.1190  0.1883 -0.1747
  779MOL0     C 5034   4.783   9.864   3.679 -0.4563  0.0487 -0.2741
  779MOL0     C 5035   4.885   9.814   3.765  0.4079 -1.3432  0.1567
  779MOL0     C 5036   4.917   9.896   3.872  0.1616 -0.6164 -0.4320
  779MOL0     C 5037   4.866  10.028   3.887  0.4610  0.6060  0.0593
  779MOL0     O 5038   4.907  10.096   3.995 -0.0344 -0.0250 -0.1500
  779MOL0     C 5039   4.802  10.087   4.103  0.3898 -0.4377 -0.2211
  779MOL0     C 5040   4.773  10.221   4.169  0.3040 -0.7510  0.0923
  779MOL0     C 5041   4.769  10.340   4.075  0.3110 -0.9042 -0.7234
  779MOL0     C 5042   4.726  10.471   4.141  0.1437 -0.5712 -0.4180
  779MOL0     C 5043   4.597  10.475   4.230 -0.2280  0.6967 -0.6587
  779MOL0     C 5044   4.465  10.441   4.160  0.6959  0.5274  0.2622
  779MOL0     C 5045   4.433  10.539   4.057  0.4646 -1.3984 -0.1395
  779MOL0     C 5046   4.294  10.493   4.003 -0.8327 -0.9967 -0.3341
  779MOL0     N 5047   4.224  10.608   3.950 -0.3591  0.3744 -0.8108
  779MOL0     C 5048   4.172  10.703   4.036 -0.2303 -0.3767  0.2906
  779MOL0     C 5049   4.087  10.775   3.959  0.7228  0.3742  0.1373
  779MOL0     C 5050   3.979  10.871   4.002 -0.0564  0.8213  0.7978
  779MOL0     C 5051   4.005  10.915   4.144 -0.2385 -0.3181  0.3852
  779MOL0     C 5052   3.918  11.045   4.188  0.0680 -0.1703  0.0357
  779MOL0     C 5053   3.928  11.104   4.336 -0.1531 -0.4058 -0.7885
  779MOL0     O 5054   4.067  11.077   4.375 -0.1248  0.5762  0.0701
  779MOL0     C 5055   4.097  11.100   4.506  0.3678  0.7391  0.2433
  779MOL0     C 5056   4.023  11.046   4.612  0.5912  0.6112 -0.4487
  779MOL0     C 5057   4.076  11.066   4.742 -0.1615 -0.4460 -0.1501
  779MOL0     C 5058   4.180  11.158   4.767 -0.6817  0.4626  0.1112
  779MOL0     C 5059   4.230  11.182   4.910  1.0551 -0.1853  1.1938
  779MOL0     O 5060   4.138  11.143   5.008  0.1610  0.2034 -0.3768
  779MOL0     C 5061   4.169  11.189   5.138 -0.7593  0.3651 -0.1924
  779MOL0     C 5062   4.147  11.110   5.251 -1.5488 -0.6972  0.3627
  779MOL0     C 5063   4.170  11.156   5.380 -0.0930 -0.1218 -0.2643
  779MOL0     C 5064   4.194  11.290   5.416 -0.1875  1.3151  0.7245
  779MOL0     O 5065   4.187  11.332   5.548  0.9070  0.3798  0.0653
  779MOL0     C 5066   4.225  11.463   5.576 -0.1587 -0.1081 -0.1053
  779MOL0     C 5067   4.198  11.505   5.721 -1.0703 -0.1712  0.0365
  779MOL0     C 5068   4.053  11.549   5.748 -0.3000  0.4539 -0.2298
  779MOL0     C 5069   3.959  11.425   5.743 -0.0791 -0.0841  0.3653
  779MOL0     C 5070   3.836  11.462   5.811  0.0742  0.4695  0.1562
  779MOL0     C 5071   3.729  11.341   5.813  0.6209  0.5335  0.4755
  779MOL0     C 5072   3.595  11.413   5.846 -0.0061  0.2924 -0.1928
  779MOL0     C 5073   3.469  11.325   5.827 -0.0260  0.5455  1.0498
  779MOL0    Cl 5074   3.456  11.184   5.939 -0.2755  0.4299 -0.0722
  779MOL0     C 5075   4.217  11.365   5.303 -0.0379  0.1608 -0.2131
  779MOL0     C 5076   4.194  11.323   5.173 -0.1387 -0.8657 -0.5290
  779MOL0     O 5077   4.349  11.224   4.926  0.8012  0.1333 -0.3133
  779MOL0     C 5078   4.254  11.216   4.655  0.2817  0.3537 -0.0697
  779MOL0     C 5079   4.206  11.187   4.530 -0.3833  0.1901 -0.3693
  779MOL0     N 5080   4.099  10.725   3.831 -0.7539 -0.3303  1.0763
  779MOL0     N 5081   4.185  10.630   3.823 -0.3461 -0.7411 -0.5302
  779MOL0     C 5082   4.767  10.074   3.798  0.6557 -0.2542  0.6895
  779MOL0     C 5083   4.738   9.997   3.684  0.6934  0.3458  0.1715
  779MOL0     C 5084   4.682   9.600   3.445 -0.1136 -0.6937  0.1448
  779MOL0     C 5085   4.627   9.476   3.445  0.4148  0.2833 -0.4040
  779MOL0     C 5086   4.562   9.421   3.333 -0.2445  0.2446  0.8266
  779MOL0     C 5087   4.575   9.489   3.208 -0.2035 -0.7360  0.0554
  779MOL0     O 5088   4.520   9.425   3.090  0.6156 -0.9344 -0.2428
  779MOL0     C 5089   4.549   9.473   2.961  0.3221 -1.0638  0.4534
  779MOL0     C 5090   4.546   9.372   2.856 -0.2282  0.2140  0.4311
  779MOL0     C 5091   4.424   9.281   2.847 -1.0727 -0.4912  0.8579
  779MOL0     C 5092   4.291   9.363   2.825 -0.1815 -0.3059 -1.7753
  779MOL0     C 5093   4.272   9.436   2.702  0.1073 -0.0952  0.7443
  779MOL0     C 5094   4.246   9.489   2.591  0.1117 -0.6865  0.5392
  779MOL0     C 5095   4.636   9.617   3.204 -0.6164 -0.0321 -0.5664
  779MOL0     C 5096   4.692   9.675   3.324  0.3465 -0.1834 -0.1336
  779MOL0     C 5097   4.752   9.817   3.315  0.2222 -0.1740  0.4611
  779MOL0     H 5098   4.948   9.727   3.751 -0.5496 -1.9226 -0.6780
  779MOL0     H 5099   4.984   9.857   3.948  1.5255 -1.3733 -1.9560
  779MOL0     H 5100   4.714  10.055   4.047  3.4842 -1.9710 -4.7619
  779MOL0     H 5101   4.829  10.018   4.183  5.6929  2.1025  0.6437
  779MOL0     H 5102   4.857  10.240   4.236 -0.1653 -0.2502  0.5412
  779MOL0     H 5103   4.679  10.224   4.223 -1.1755 -1.6381 -2.2709
  779MOL0     H 5104   4.706  10.314   3.990  0.3803 -0.7016 -0.8358
  779MOL0     H 5105   4.866  10.353   4.028  1.3527 -0.1155  1.5055
  779MOL0     H 5106   4.808  10.508   4.204 -1.4542  0.9323  0.9119
  779MOL0     H 5107   4.726  10.552   4.068  4.9465  1.8531  1.8352
  779MOL0     H 5108   4.626  10.416   4.317 -3.5441 -2.1626 -1.2873
  779MOL0     H 5109   4.589  10.579   4.264  1.4595  0.7568 -0.3423
  779MOL0     H 5110   4.483  10.340   4.121  0.4504  1.5674 -2.9072
  779MOL0     H 5111   4.378  10.444   4.226  0.9362  0.2225  0.5910
  779MOL0     H 5112   4.508  10.548   3.978 -0.4398 -0.9477 -0.9764
  779MOL0     H 5113   4.423  10.640   4.097 -0.9932 -2.9551  3.9640
  779MOL0     H 5114   4.306  10.422   3.921  3.0251  1.0450 -1.7508
  779MOL0     H 5115   4.229  10.435   4.070 -0.3254  0.4020  1.4640
  779MOL0     H 5116   4.177  10.710   4.144  2.5368 -0.0466  0.1981
  779MOL0     H 5117   3.996  10.956   3.934 -1.3479 -0.8192 -1.7534
  779MOL0     H 5118   3.878  10.837   3.976  0.6109 -0.5786 -0.0711
  779MOL0     H 5119   3.984  10.838   4.219 -1.1460 -3.0836 -2.4400
  779MOL0     H 5120   4.111  10.942   4.142  0.9770 -4.0159 -4.2360
  779MOL0     H 5121   3.814  11.012   4.185 -0.3111  0.9649  0.1398
  779MOL0     H 5122   3.925  11.126   4.114  1.1175  0.7511  1.0985
  779MOL0     H 5123   3.864  11.040   4.397  0.8803 -0.9202 -0.2061
  779MOL0     H 5124   3.908  11.212   4.342 -0.2648 -0.5115  0.9934
  779MOL0     H 5125   3.937  10.982   4.598  1.8237 -0.8772 -1.6243
  779MOL0     H 5126   4.036  11.015   4.829 -0.7510 -0.8733 -0.6629
  779MOL0     H 5127   4.120  11.008   5.227 -2.4893 -0.4259  0.2001
  779MOL0     H 5128   4.159  11.096   5.470 -2.6905  1.1590  0.3925
  779MOL0     H 5129   4.330  11.487   5.557  0.3110  0.9722  3.2214
  779MOL0     H 5130   4.166  11.524   5.506 -0.9556 -2.5043 -1.6497
  779MOL0     H 5131   4.218  11.422   5.790  2.6538  0.8470  0.4069
  779MOL0     H 5132   4.267  11.583   5.754  3.1666 -1.9672 -3.5397
  779MOL0     H 5133   4.041  11.597   5.845 -2.8407 -0.2802 -0.1000
  779MOL0     H 5134   4.025  11.616   5.666 -2.9289 -0.4339 -0.1650
  779MOL0     H 5135   3.989  11.332   5.792  2.3738  0.1202 -0.5850
  779MOL0     H 5136   3.929  11.395   5.642  2.5987  1.3859 -0.9662
  779MOL0     H 5137   3.801  11.543   5.746  0.3997 -0.2137 -0.9005
  779MOL0     H 5138   3.864  11.511   5.904  1.9738  0.2825 -0.2690
  779MOL0     H 5139   3.725  11.294   5.714 -0.7546 -0.4924  0.9705
  779MOL0     H 5140   3.755  11.263   5.885 -2.5728 -0.7819  0.3645
  779MOL0     H 5141   3.569  11.500   5.784  0.4466  1.3380  1.0534
  779MOL0     H 5142   3.602  11.445   5.950  2.2948 -0.1310 -0.1754
  779MOL0     H 5143   3.379  11.387   5.832  0.3154  1.3636 -1.6340
  779MOL0     H 5144   3.480  11.282   5.727  0.6791 -3.3107  2.5782
  779MOL0     H 5145   4.240  11.469   5.322  1.8348 -0.5371  1.9278
  779MOL0     H 5146   4.203  11.409   5.107 -0.5836  0.0528  0.5701
  779MOL0     H 5147   4.347  11.271   4.666  1.4943 -1.8513  1.3675
  779MOL0     H 5148   4.257  11.205   4.436 -1.9964 -1.8013 -1.7092
  779MOL0     H 5149   4.725  10.172   3.818 -3.0168 -1.0747 -1.9247
  779MOL0     H 5150   4.667  10.023   3.606  2.2226  1.0263 -1.0313
  779MOL0     H 5151   4.617   9.419   3.536 -0.7630  1.1047 -0.0014
  779MOL0     H 5152   4.513   9.325   3.347 -1.7484  1.0346  1.1708
  779MOL0     H 5153   4.655   9.499   2.959  0.3509 -1.2022 -0.0520
  779MOL0     H 5154   4.494   9.566   2.944 -1.3017 -1.8916  0.9169
  779MOL0     H 5155   4.630   9.304   2.866 -1.9166 -2.2229 -0.8667
  779MOL0     H 5156   4.563   9.414   2.757  0.0934  1.0841  0.8395
  779MOL0     H 5157   4.435   9.218   2.935  0.9840 -2.9305 -0.9842
  779MOL0     H 5158   4.439   9.210   2.765  3.0710 -0.5286  1.4472
  779MOL0     H 5159   4.205   9.296   2.835 -2.3650  2.5513  0.4052
  779MOL0     H 5160   4.287   9.432   2.910  3.3239  2.2322 -3.3988
  779MOL0     H 5161   4.217   9.556   2.512  1.9156 -1.3293 -0.7321
  779MOL0     H 5162   4.632   9.674   3.112 -6.0871  2.1442  0.6373
  779MOL0     H 5163   4.779   9.847   3.213 -1.6583  0.4943  0.1252
  779MOL0     H 5164   4.673   9.882   3.353 -0.5372 -0.0197 -1.2905
  779MOL0     H 5165   4.841   9.824   3.378 -0.4562  1.4325  1.2824
  780MOL0     O 5166   7.114   3.967   3.781  0.3890  0.0719  0.1522
  780MOL0     C 5167   7.157   3.948   3.666  0.3648 -0.0115 -0.1059
  780MOL0     O 5168   7.109   4.027   3.566 -0.6947 -0.1002  0.4476
  780MOL0     C 5169   7.025   4.128   3.605 -0.0664 -0.7666  0.3301
  780MOL0     C 5170   6.885   4.116   3.598  0.2546 -1.0403 -0.3988
  780MOL0     C 5171   6.807   4.223   3.638  0.8452 -0.5396 -0.6403
  780MOL0     C 5172   6.855   4.346   3.674  0.1321  0.1410 -0.1363
  780MOL0     O 5173   6.763   4.446   3.705 -0.2614 -0.3426 -0.6573
  780MOL0     C 5174   6.765   4.485   3.842  0.6360 -0.2674  0.0240
  780MOL0     C 5175   6.732   4.378   3.945  0.2044  0.7390  1.1407
  780MOL0     C 5176   6.583   4.332   3.934  0.7074 -0.0008  0.2051
  780MOL0     C 5177   6.554   4.238   4.053 -0.0300  0.5435 -1.1686
  780MOL0     C 5178   6.404   4.211   4.067  0.5060 -0.4968  0.6288
  780MOL0     C 5179   6.335   4.130   3.959  0.6212  1.6469 -0.2058
  780MOL0     C 5180   6.235   4.028   4.006 -0.4390  0.6856  0.8529
  780MOL0     C 5181   6.143   4.070   4.119  0.2419 -0.4919 -0.3031
  780MOL0     N 5182   6.070   4.196   4.087 -0.3494  0.4790  0.8143
  780MOL0     C 5183   6.009   4.280   4.179 -0.3413 -0.4220 -0.1772
  780MOL0     C 5184   5.934   4.374   4.112 -0.3794  0.6037  0.0756
  780MOL0     C 5185   5.836   4.471   4.174  0.7174  0.3044  0.1279
  780MOL0     C 5186   5.696   4.406   4.189  0.1213 -0.1900 -0.9214
  780MOL0     C 5187   5.596   4.518   4.222 -0.0505  0.7429 -1.0996
  780MOL0     C 5188   5.510   4.492   4.350  0.2899  0.3323  0.1841
  780MOL0     O 5189   5.393   4.411   4.321 -0.1383 -0.1129  0.1654
  780MOL0     C 5190   5.386   4.272   4.350 -0.1390 -0.5741 -0.9523
  780MOL0     C 5191   5.279   4.203   4.312  0.6148  0.0906  0.3559
  780MOL0     C 5192   5.264   4.060   4.317 -0.9233 -1.0246  0.4344
  780MOL0     C 5193   5.365   3.985   4.373 -0.3530 -0.5101 -0.6293
  780MOL0     C 5194   5.371   3.836   4.387  0.5016 -0.5452 -0.2033
  780MOL0     O 5195   5.495   3.777   4.407 -0.5814 -0.4656  0.4029
  780MOL0     C 5196   5.493   3.646   4.402  0.2453  0.6642  1.0622
  780MOL0     C 5197   5.493   3.566   4.517  0.3801 -0.6172  0.7892
  780MOL0     C 5198   5.496   3.428   4.507 -1.2528 -0.8642  0.3589
  780MOL0     C 5199   5.521   3.363   4.386 -0.6741  0.2766  1.2884
  780MOL0     O 5200   5.528   3.218   4.390 -1.0516  0.3298 -0.6239
  780MOL0     C 5201   5.518   3.152   4.262 -0.6545 -0.7471 -0.6747
  780MOL0     C 5202   5.484   3.004   4.277 -1.1627 -0.3902 -0.3030
  780MOL0     C 5203   5.335   3.000   4.314 -0.7403  0.5545  0.0789
  780MOL0     C 5204   5.300   2.853   4.338  0.2159 -0.1552 -0.4436
  780MOL0     C 5205   5.182   2.815   4.249  0.4537 -0.2162 -0.4080
  780MOL0     C 5206   5.056   2.899   4.281 -0.3697 -0.1497 -0.8440
  780MOL0     C 5207   4.942   2.808   4.273 -0.0063  0.0598 -0.2502
  780MOL0     C 5208   4.921   2.756   4.136  0.9583  0.0551 -0.8653
  780MOL0    Cl 5209   4.992   2.592   4.097  0.2054  0.0337  0.1361
  780MOL0     C 5210   5.519   3.442   4.270 -0.5517  0.3461  0.6068
  780MOL0     C 5211   5.505   3.580   4.274  0.0097  0.7270  0.4152
  780MOL0     O 5212   5.261   3.786   4.384 -0.1663  0.1852 -0.0832
  780MOL0     C 5213   5.474   4.062   4.433 -0.0818 -0.1641 -0.9901
  780MOL0     C 5214   5.489   4.198   4.413  0.2665  0.0037  0.4255
  780MOL0     N 5215   5.944   4.333   3.984 -0.9406  0.6250 -0.2401
  780MOL0     N 5216   6.022   4.229   3.967 -0.3367  0.6080 -0.1640
  780MOL0     C 5217   6.991   4.358   3.690 -0.2104  0.3864 -0.0672
  780MOL0     C 5218   7.074   4.256   3.639 -0.5468 -0.4214 -0.1859
  780MOL0     C 5219   7.257   3.844   3.635 -0.7434 -0.4930  0.4539
  780MOL0     C 5220   7.315   3.860   3.512  0.8430 -0.5339 -0.3244
  780MOL0     C 5221   7.423   3.775   3.487 -0.2113  0.4856 -0.3773
  780MOL0     C 5222   7.465   3.670   3.570 -0.6614 -0.4596 -0.6030
  780MOL0     O 5223   7.561   3.581   3.539 -0.1089  0.1891  0.2568
  780MOL0     C 5224   7.677   3.650   3.490  0.3058  0.7819 -0.1912
  780MOL0     C 5225   7.802   3.578   3.545 -0.2073 -0.0809 -0.3517
  780MOL0     C 5226   7.829   3.612   3.684  0.1492 -0.2650 -0.2614
  780MOL0     C 5227   7.959   3.558   3.749  0.0697 -0.6103 -0.1228
  780MOL0     C 5228   7.952   3.417   3.794 -0.7712 -0.3795  0.1466
  780MOL0     C 5229   7.915   3.309   3.819  0.4036  0.0358  0.5388
  780MOL0     C 5230   7.395   3.659   3.686  0.5261  0.8954  0.6186
  780MOL0     C 5231   7.284   3.741   3.721 -0.1889 -0.5320  0.1434
  780MOL0     C 5232   7.201   3.700   3.838 -0.1278 -0.0661  0.4499
  780MOL0     H 5233   6.839   4.022   3.566  0.1604 -0.0015 -3.6803
  780MOL0     H 5234   6.700   4.208   3.632  0.8480 -0.0768 -2.8954
  780MOL0     H 5235   6.864   4.529   3.859  0.3913  2.0756 -3.6083
  780MOL0     H 5236   6.698   4.570   3.860 -0.8704 -1.3097 -0.4686
  780MOL0     H 5237   6.761   4.418   4.043 -0.4027 -2.3432  2.7175
  780MOL0     H 5238   6.789   4.287   3.921 -0.8685  0.1007  0.9577
  780MOL0     H 5239   6.568   4.270   3.845  0.7533  2.1102 -1.3404
  780MOL0     H 5240   6.513   4.415   3.928  0.3489 -0.4204 -2.4465
  780MOL0     H 5241   6.611   4.145   4.048 -0.1768  0.1879  1.9716
  780MOL0     H 5242   6.593   4.290   4.141 -0.1415 -0.3671 -0.5667
  780MOL0     H 5243   6.397   4.172   4.169 -1.5094  3.3792  2.2036
  780MOL0     H 5244   6.354   4.309   4.067  0.8632 -0.3052 -0.2584
  780MOL0     H 5245   6.287   4.201   3.891 -2.5454  1.1382  1.3122
  780MOL0     H 5246   6.401   4.069   3.895 -0.6963 -0.8754  0.6926
  780MOL0     H 5247   6.284   3.937   4.044 -0.8771  1.3533  3.1528
  780MOL0     H 5248   6.172   3.987   3.926  1.5309 -3.2072  1.0442
  780MOL0     H 5249   6.073   3.994   4.155 -1.9340  1.9384  0.9827
  780MOL0     H 5250   6.201   4.089   4.210 -0.8494  1.0544  0.1196
  780MOL0     H 5251   6.017   4.272   4.287 -3.9901  0.4528  0.2635
  780MOL0     H 5252   5.867   4.489   4.278 -1.8113  0.2830  0.9433
  780MOL0     H 5253   5.839   4.563   4.114  0.2499  1.2796  1.5236
  780MOL0     H 5254   5.664   4.350   4.100  0.6288 -3.9937  1.0786
  780MOL0     H 5255   5.692   4.330   4.268  2.5280  1.0367  0.4914
  780MOL0     H 5256   5.529   4.549   4.141 -2.5491  1.3978  1.0827
  780MOL0     H 5257   5.647   4.606   4.260  0.6835  0.5518 -1.6241
  780MOL0     H 5258   5.479   4.592   4.380  0.3895  0.0482  1.2844
  780MOL0     H 5259   5.562   4.452   4.438  0.1083 -1.6273 -0.5535
  780MOL0     H 5260   5.205   4.248   4.246  0.8080  0.7340  0.5670
  780MOL0     H 5261   5.170   4.011   4.295 -1.8838  1.1054 -0.4709
  780MOL0     H 5262   5.495   3.617   4.613  3.0044 -1.0383  1.0286
  780MOL0     H 5263   5.486   3.378   4.603  0.7073  0.5415  1.3677
  780MOL0     H 5264   5.446   3.208   4.201 -1.5215  1.1048  1.8764
  780MOL0     H 5265   5.618   3.164   4.219 -1.5853 -0.6663 -2.9177
  780MOL0     H 5266   5.500   2.952   4.182  1.8368  1.5082 -0.9945
  780MOL0     H 5267   5.546   2.970   4.361  0.2940 -0.3871 -1.3393
  780MOL0     H 5268   5.303   3.068   4.393 -1.6123 -1.6722  1.7453
  780MOL0     H 5269   5.277   3.034   4.228 -0.8472  0.3893  0.0860
  780MOL0     H 5270   5.283   2.839   4.446  3.2711  1.6412  0.3842
  780MOL0     H 5271   5.383   2.783   4.326 -1.3946 -2.2288 -0.0938
  780MOL0     H 5272   5.167   2.709   4.271 -2.0448  0.2682  0.6005
  780MOL0     H 5273   5.209   2.830   4.144  3.0803 -0.1460  0.2031
  780MOL0     H 5274   5.055   2.928   4.387 -2.1321 -1.6083 -0.4056
  780MOL0     H 5275   5.046   2.993   4.226  0.6971 -0.0974 -0.9552
  780MOL0     H 5276   4.856   2.870   4.301  0.2259 -0.7640  2.5973
  780MOL0     H 5277   4.938   2.725   4.343  1.3540 -0.7553 -1.0898
  780MOL0     H 5278   4.817   2.734   4.109  1.7640 -3.0961 -1.9077
  780MOL0     H 5279   4.953   2.827   4.059 -1.8833  1.5086 -0.8461
  780MOL0     H 5280   5.547   3.391   4.178  1.0924  4.0573 -1.1581
  780MOL0     H 5281   5.505   3.643   4.186 -2.2542 -0.5949 -0.6036
  780MOL0     H 5282   5.558   4.016   4.485 -0.9956 -1.3883 -0.5493
  780MOL0     H 5283   5.572   4.249   4.461 -1.1412 -0.4966  3.6785
  780MOL0     H 5284   7.034   4.442   3.745 -2.6201  2.2211 -0.7869
  780MOL0     H 5285   7.182   4.259   3.652 -0.5036 -1.2546 -0.2551
  780MOL0     H 5286   7.274   3.934   3.444  1.0721  2.7092  2.7306
  780MOL0     H 5287   7.472   3.795   3.393  2.0637 -0.7125  0.4567
  780MOL0     H 5288   7.687   3.754   3.523 -2.2184  2.1364 -3.1329
  780MOL0     H 5289   7.674   3.652   3.380  1.0436  0.9173 -0.2149
  780MOL0     H 5290   7.887   3.595   3.479  0.9780  2.3662  1.6124
  780MOL0     H 5291   7.789   3.470   3.549  2.4120 -0.6192 -3.2412
  780MOL0     H 5292   7.752   3.575   3.751  1.9713 -1.4642  1.2481
  780MOL0     H 5293   7.824   3.722   3.688 -2.4327 -0.3117 -0.5612
  780MOL0     H 5294   8.036   3.549   3.672  0.6535 -3.6259  0.6810
  780MOL0     H 5295   7.991   3.623   3.831 -0.0415  0.6683 -1.0675
  780MOL0     H 5296   7.874   3.215   3.852 -1.2182  1.6280  3.4381
  780MOL0     H 5297   7.409   3.568   3.743  1.0207  1.7555  1.9175
  780MOL0     H 5298   7.096   3.707   3.808  0.7134  0.7412 -2.6331
  780MOL0     H 5299   7.228   3.600   3.872  1.9334  0.6204  0.9550
  780MOL0     H 5300   7.214   3.765   3.925  2.1118  1.2964 -0.8013
  781MOL0     O 5301   6.892   3.500   0.314  0.1056 -0.4296  0.1062
  781MOL0     C 5302   6.770   3.495   0.308  0.0403  0.2517  1.2757
  781MOL0     O 5303   6.688   3.483   0.419  0.3711  0.3406 -0.5169
  781MOL0     C 5304   6.729   3.528   0.539  0.0897 -0.4091  0.3661
  781MOL0     C 5305   6.681   3.472   0.659 -0.6092  0.2443 -0.3435
  781MOL0     C 5306   6.710   3.532   0.781 -0.4837  0.2012  0.2647
  781MOL0     C 5307   6.756   3.664   0.788 -0.6993  1.0920 -0.2583
  781MOL0     O 5308   6.764   3.739   0.900  0.1920 -0.1741  0.1183
  781MOL0     C 5309   6.633   3.782   0.941 -0.3388 -1.2676  0.1288
  781MOL0     C 5310   6.642   3.926   1.005 -0.0240 -0.1936  0.7827
  781MOL0     C 5311   6.696   3.933   1.151  0.6254 -0.8478 -0.0933
  781MOL0     C 5312   6.723   4.073   1.198 -0.3711 -0.5357  1.8379
  781MOL0     C 5313   6.788   4.076   1.335 -1.1899 -0.2305  0.5425
  781MOL0     C 5314   6.682   4.055   1.440  0.5509 -0.1266 -0.4092
  781MOL0     C 5315   6.748   4.069   1.584  0.0365 -0.3140  0.3531
  781MOL0     C 5316   6.639   4.062   1.681 -0.2275 -0.8059 -1.1246
  781MOL0     N 5317   6.677   4.118   1.814 -0.7648 -0.4499 -0.1239
  781MOL0     C 5318   6.763   4.045   1.893 -0.8635 -0.3758 -0.6914
  781MOL0     C 5319   6.752   4.101   2.016  0.1417 -0.2345  0.8655
  781MOL0     C 5320   6.832   4.066   2.133  0.2449  0.3142  0.0821
  781MOL0     C 5321   6.773   3.945   2.210 -0.0992 -0.3205 -0.2950
  781MOL0     C 5322   6.835   3.807   2.160  0.1764 -0.3457  0.3332
  781MOL0     C 5323   6.991   3.797   2.164 -0.3507  0.3898  0.0756
  781MOL0     O 5324   7.056   3.866   2.061 -0.4148 -0.9309  0.1511
  781MOL0     C 5325   7.083   3.804   1.940  0.7140  0.2675 -0.5748
  781MOL0     C 5326   7.170   3.857   1.852  0.6989 -0.0728  1.0890
  781MOL0     C 5327   7.191   3.804   1.726 -0.3816  0.1065  0.2005
  781MOL0     C 5328   7.112   3.702   1.676 -0.7516  0.0274 -0.8497
  781MOL0     C 5329   7.127   3.651   1.539 -0.5148  0.3438  0.1956
  781MOL0     O 5330   7.192   3.729   1.455  0.5848  0.5881  1.5632
  781MOL0     C 5331   7.202   3.682   1.325 -0.1071 -0.1465  0.6965
  781MOL0     C 5332   7.299   3.591   1.294 -0.1529  0.2094 -0.5040
  781MOL0     C 5333   7.308   3.539   1.162 -0.7291  1.2170 -1.1486
  781MOL0     C 5334   7.220   3.586   1.064  0.5930  1.3940 -0.0572
  781MOL0     O 5335   7.230   3.519   0.941 -0.2007  0.2887  0.8848
  781MOL0     C 5336   7.107   3.520   0.859 -0.7487 -0.0011  0.7529
  781MOL0     C 5337   7.130   3.427   0.731  0.9719 -0.5395 -0.0864
  781MOL0     C 5338   7.233   3.464   0.621 -0.0904 -0.1776 -0.0609
  781MOL0     C 5339   7.296   3.340   0.557  0.1227 -0.6837  0.1353
  781MOL0     C 5340   7.336   3.374   0.410  0.3633  0.0395  0.4865
  781MOL0     C 5341   7.389   3.256   0.317 -0.0559  0.2999  0.1393
  781MOL0     C 5342   7.280   3.165   0.268  0.5479  0.2881  0.0130
  781MOL0     C 5343   7.250   3.046   0.358 -0.8049  0.6169 -0.8517
  781MOL0    Cl 5344   7.403   2.943   0.370 -0.0425  0.2054 -0.2267
  781MOL0     C 5345   7.125   3.680   1.097 -0.9206 -0.1532  0.1726
  781MOL0     C 5346   7.121   3.729   1.227  0.6205  0.1599 -1.3951
  781MOL0     O 5347   7.063   3.544   1.512 -0.8673 -0.0382  0.1800
  781MOL0     C 5348   7.035   3.639   1.774  0.4099 -0.4219 -0.4345
  781MOL0     C 5349   7.010   3.694   1.900 -0.9438  1.0443  0.1873
  781MOL0     N 5350   6.674   4.213   2.010  0.7232  0.0148  0.5632
  781MOL0     N 5351   6.637   4.221   1.887  1.1276 -0.0084 -0.0232
  781MOL0     C 5352   6.821   3.716   0.677  0.4785 -0.1654  1.2808
  781MOL0     C 5353   6.816   3.647   0.552  0.9498 -0.0824  1.3799
  781MOL0     C 5354   6.708   3.502   0.169 -0.4472 -0.8837 -0.5536
  781MOL0     C 5355   6.586   3.431   0.160 -0.3672 -0.4803 -0.5601
  781MOL0     C 5356   6.528   3.420   0.035  0.1548 -0.0355  0.2104
  781MOL0     C 5357   6.584   3.499  -0.069 -0.8734  0.0741  1.0165
  781MOL0     O 5358   6.523   3.512  -0.187 -0.7134 -1.0402  0.1046
  781MOL0     C 5359   6.385   3.504  -0.196 -0.2866 -0.2037 -0.3324
  781MOL0     C 5360   6.353   3.524  -0.343  0.5177  0.1261 -0.8718
  781MOL0     C 5361   6.390   3.665  -0.391 -0.0633  0.0190 -0.2496
  781MOL0     C 5362   6.354   3.685  -0.542 -0.6964  0.3028 -0.2663
  781MOL0     C 5363   6.218   3.667  -0.596 -0.0103  1.3702  0.4264
  781MOL0     C 5364   6.114   3.641  -0.647 -1.4490 -0.1893  0.4067
  781MOL0     C 5365   6.690   3.584  -0.059 -0.6473 -0.1307 -0.2870
  781MOL0     C 5366   6.767   3.573   0.062  0.0033  0.2708 -0.9343
  781MOL0     C 5367   6.895   3.660   0.071  0.3540  0.4215 -0.5583
  781MOL0     H 5368   6.632   3.375   0.657  0.5019 -0.4901  2.5257
  781MOL0     H 5369   6.691   3.475   0.871  2.4033 -0.0751  0.7899
  781MOL0     H 5370   6.571   3.796   0.852  0.8384  2.7061 -0.2283
  781MOL0     H 5371   6.588   3.721   1.020 -1.0953  1.4096  1.8837
  781MOL0     H 5372   6.535   3.947   1.015  0.1839  0.7265  1.1694
  781MOL0     H 5373   6.685   3.993   0.929 -2.2134  0.9939  0.5054
  781MOL0     H 5374   6.794   3.883   1.155  0.9814 -0.0749  2.8419
  781MOL0     H 5375   6.630   3.875   1.215  1.0187 -2.4000 -1.0407
  781MOL0     H 5376   6.787   4.126   1.126 -1.7180 -1.2781  0.0141
  781MOL0     H 5377   6.629   4.129   1.204 -0.3604 -0.2207 -0.1531
  781MOL0     H 5378   6.864   3.997   1.337 -0.4934  0.3957 -0.3906
  781MOL0     H 5379   6.835   4.174   1.350  0.7729 -0.1867 -4.2889
  781MOL0     H 5380   6.593   4.117   1.430  0.6118  0.0391  0.0761
  781MOL0     H 5381   6.643   3.953   1.436 -1.1295  0.4958 -4.0741
  781MOL0     H 5382   6.797   4.167   1.579 -2.1485  0.9288  1.7034
  781MOL0     H 5383   6.828   3.999   1.610  0.3264 -0.7645 -1.5884
  781MOL0     H 5384   6.552   4.120   1.648 -2.7695 -3.1605  0.9918
  781MOL0     H 5385   6.612   3.956   1.682  2.8953 -1.6961 -2.0527
  781MOL0     H 5386   6.818   3.955   1.870  0.2020  0.2255 -0.5651
  781MOL0     H 5387   6.939   4.063   2.108  0.6782  1.1421  1.6913
  781MOL0     H 5388   6.816   4.149   2.203  0.2139 -0.4012  0.9378
  781MOL0     H 5389   6.783   3.970   2.315 -2.2677  1.1694 -0.3621
  781MOL0     H 5390   6.667   3.936   2.184  0.1413  1.5563 -2.2351
  781MOL0     H 5391   6.794   3.787   2.060 -0.5546  0.5148  0.4547
  781MOL0     H 5392   6.801   3.726   2.226  0.0592  1.5170  2.6622
  781MOL0     H 5393   7.019   3.692   2.151 -0.6491  0.3474 -0.2433
  781MOL0     H 5394   7.014   3.822   2.268  0.3571 -0.7945  0.2126
  781MOL0     H 5395   7.212   3.947   1.895  0.8012  0.0194  0.8018
  781MOL0     H 5396   7.263   3.839   1.652 -0.3664 -2.5689 -1.1413
  781MOL0     H 5397   7.367   3.548   1.367  0.3150  1.3645 -0.2393
  781MOL0     H 5398   7.382   3.462   1.142 -0.6917  1.3038 -1.3475
  781MOL0     H 5399   7.040   3.458   0.919 -0.0864 -1.9403 -0.4401
  781MOL0     H 5400   7.069   3.616   0.823 -1.2009 -0.4380  0.0527
  781MOL0     H 5401   7.167   3.338   0.783 -2.5428 -0.4035  3.1126
  781MOL0     H 5402   7.035   3.410   0.680  1.2922  0.8963 -1.2393
  781MOL0     H 5403   7.176   3.516   0.543  1.3050 -2.1937 -2.5756
  781MOL0     H 5404   7.308   3.534   0.659  0.1296 -1.0881  1.2270
  781MOL0     H 5405   7.237   3.248   0.561  2.6122 -2.3541  3.4693
  781MOL0     H 5406   7.383   3.306   0.613  0.0298  0.5522  1.0569
  781MOL0     H 5407   7.415   3.449   0.408  0.7122 -0.3352 -0.0797
  781MOL0     H 5408   7.247   3.412   0.359  0.6549 -1.2738 -1.0821
  781MOL0     H 5409   7.440   3.293   0.227  0.6960 -2.8443 -0.8449
  781MOL0     H 5410   7.458   3.192   0.372  0.7601  1.6978  0.8051
  781MOL0     H 5411   7.299   3.128   0.167 -0.1303 -0.0970  0.0234
  781MOL0     H 5412   7.195   3.234   0.263  1.0025  0.8900  0.4247
  781MOL0     H 5413   7.219   3.084   0.456  0.3158  1.0909 -0.6682
  781MOL0     H 5414   7.171   2.985   0.314  0.7862 -1.8770 -0.4787
  781MOL0     H 5415   7.053   3.712   1.022  0.0783 -3.1527 -2.2327
  781MOL0     H 5416   7.046   3.797   1.266 -1.9066 -2.5092 -1.2703
  781MOL0     H 5417   6.986   3.547   1.747  0.3212  0.0579 -2.0428
  781MOL0     H 5418   6.943   3.645   1.970  3.4381 -2.4045  2.3841
  781MOL0     H 5419   6.861   3.817   0.685  0.9036 -0.3758  1.8793
  781MOL0     H 5420   6.853   3.694   0.462 -0.2308 -2.0606 -0.2207
  781MOL0     H 5421   6.555   3.372   0.246  1.5492 -0.5537  0.1411
  781MOL0     H 5422   6.440   3.356   0.029  0.1551 -0.3189  2.4294
  781MOL0     H 5423   6.322   3.570  -0.135  0.9462 -0.9736  1.9000
  781MOL0     H 5424   6.351   3.405  -0.166 -0.8923  0.2243  0.4459
  781MOL0     H 5425   6.246   3.499  -0.340  1.2711 -3.5913 -0.9004
  781MOL0     H 5426   6.392   3.458  -0.420  1.5625 -1.7568  1.1627
  781MOL0     H 5427   6.499   3.659  -0.384 -0.0664 -0.5948 -0.6294
  781MOL0     H 5428   6.349   3.743  -0.327  3.3341  2.8531 -1.1853
  781MOL0     H 5429   6.387   3.788  -0.560  3.3126 -0.5266  1.2310
  781MOL0     H 5430   6.421   3.615  -0.594  1.3021  0.1007  2.3443
  781MOL0     H 5431   6.016   3.611  -0.677  0.1764 -2.0612 -3.6806
  781MOL0     H 5432   6.721   3.647  -0.141  2.8410 -2.5032 -1.0509
  781MOL0     H 5433   6.883   3.721   0.160  1.2636  1.2972 -1.0140
  781MOL0     H 5434   6.979   3.590   0.079 -0.6093 -1.1201 -2.7513
  781MOL0     H 5435   6.912   3.725  -0.015  0.4933 -0.2945 -1.0846
  782MOL0     O 5436  10.504   3.636   3.322 -0.1100 -0.0955  0.0434
  782MOL0     C 5437  10.586   3.589   3.400 -0.0640 -0.3107 -0.0735
  782MOL0     O 5438  10.701   3.533   3.362  0.2283  0.4539 -0.3634
  782MOL0     C 5439  10.759   3.545   3.237 -0.0023 -0.0966  0.3761
  782MOL0     C 5440  10.697   3.483   3.126 -0.4165 -0.6314 -0.0423
  782MOL0     C 5441  10.759   3.509   2.998  0.0782 -0.7004 -0.2905
  782MOL0     C 5442  10.869   3.584   2.976 -0.2705 -0.1154  0.6707
  782MOL0     O 5443  10.910   3.605   2.850  0.9735 -0.2431  0.2204
  782MOL0     C 5444  10.985   3.719   2.818 -0.0061 -0.3317 -0.3451
  782MOL0     C 5445  11.031   3.720   2.671 -0.0535 -0.6285  0.4674
  782MOL0     C 5446  11.150   3.827   2.661 -0.1525  0.0075 -1.2123
  782MOL0     C 5447  11.189   3.836   2.517 -0.1452  0.5532 -0.1159
  782MOL0     C 5448  11.323   3.913   2.498  0.8052 -0.8081  0.6692
  782MOL0     C 5449  11.446   3.826   2.517 -0.0750 -0.5619  0.8247
  782MOL0     C 5450  11.566   3.873   2.436 -0.4160 -0.5558 -0.7312
  782MOL0     C 5451  11.625   3.997   2.513 -0.4807  0.0317 -0.0073
  782MOL0     N 5452  11.729   4.065   2.435  0.3656 -0.7984  0.0123
  782MOL0     C 5453  11.704   4.156   2.333 -0.5512 -0.0934  0.4969
  782MOL0     C 5454  11.814   4.227   2.312 -0.4451  0.9944 -0.0427
  782MOL0     C 5455  11.826   4.352   2.226 -0.0696 -0.0842  0.4228
  782MOL0     C 5456  11.842   4.328   2.070 -0.9480  0.9986  0.4843
  782MOL0     C 5457  11.713   4.256   2.011  0.1454 -0.6592  0.0605
  782MOL0     C 5458  11.727   4.257   1.862 -0.6260  0.3775  0.5832
  782MOL0     O 5459  11.817   4.150   1.826 -0.4128 -0.5032  0.5081
  782MOL0     C 5460  11.865   4.134   1.695  0.0569 -0.3888 -0.4925
  782MOL0     C 5461  11.971   4.056   1.677  0.4082 -0.0341 -1.0838
  782MOL0     C 5462  12.015   4.030   1.549 -0.5366 -0.8883  0.3404
  782MOL0     C 5463  11.967   4.075   1.430  0.4362  0.5479  0.2887
  782MOL0     C 5464  12.012   4.040   1.297  0.0470  0.1687  0.9209
  782MOL0     O 5465  12.107   3.937   1.290 -0.0664  0.1514  0.8469
  782MOL0     C 5466  12.146   3.897   1.166 -0.2277 -0.0590  0.0743
  782MOL0     C 5467  12.280   3.918   1.118  0.1969  0.4536  0.6865
  782MOL0     C 5468  12.314   3.879   0.986  1.0087  0.4878  0.4123
  782MOL0     C 5469  12.221   3.808   0.910  0.4318 -0.7142 -0.5521
  782MOL0     O 5470  12.235   3.765   0.782  0.5215  0.5398 -0.6006
  782MOL0     C 5471  12.302   3.850   0.694  0.4021  0.9497  0.1062
  782MOL0     C 5472  12.355   3.769   0.567  0.5682 -0.2006 -1.4620
  782MOL0     C 5473  12.445   3.848   0.470  0.3120  0.4946  0.0407
  782MOL0     C 5474  12.552   3.931   0.542 -0.3586  0.8383  0.3272
  782MOL0     C 5475  12.609   4.050   0.447  0.0765  0.0690 -0.3924
  782MOL0     C 5476  12.698   4.160   0.512  0.7736 -0.0866 -0.7496
  782MOL0     C 5477  12.829   4.102   0.564 -0.6240  0.2757 -0.8449
  782MOL0     C 5478  12.914   4.222   0.592 -0.7610  0.7376  0.7727
  782MOL0    Cl 5479  13.077   4.158   0.649  0.4032 -0.0465  0.0216
  782MOL0     C 5480  12.084   3.787   0.953  0.0583 -0.7292 -0.1828
  782MOL0     C 5481  12.054   3.835   1.084 -0.0450  0.1671  0.2924
  782MOL0     O 5482  11.960   4.093   1.196  0.1110  0.2556  0.1385
  782MOL0     C 5483  11.866   4.163   1.444  0.2329 -0.2515 -0.0461
  782MOL0     C 5484  11.810   4.196   1.570 -0.8782 -0.4796 -0.1647
  782MOL0     N 5485  11.911   4.177   2.403  0.4893  0.5702 -0.5186
  782MOL0     N 5486  11.856   4.076   2.477 -0.3790 -0.2251  0.3032
  782MOL0     C 5487  10.936   3.633   3.093 -0.7562 -0.9401 -0.1546
  782MOL0     C 5488  10.880   3.620   3.226 -0.2754  0.0426 -0.8388
  782MOL0     C 5489  10.552   3.589   3.546  0.0520  0.7143  0.7794
  782MOL0     C 5490  10.417   3.615   3.581 -0.0951  0.9266  0.0463
  782MOL0     C 5491  10.379   3.618   3.720  0.6886  0.7982 -0.2153
  782MOL0     C 5492  10.464   3.592   3.824  0.0121  0.4632  0.4161
  782MOL0     O 5493  10.430   3.597   3.957 -0.5897  0.0259 -0.7244
  782MOL0     C 5494  10.331   3.505   4.004  0.2373  0.1328  0.6891
  782MOL0     C 5495  10.396   3.406   4.108  0.2366 -0.2280 -0.1199
  782MOL0     C 5496  10.293   3.297   4.144  0.2419  0.5294 -0.3860
  782MOL0     C 5497  10.335   3.182   4.240  0.6545 -0.5937  0.6115
  782MOL0     C 5498  10.371   3.233   4.373  0.2047  0.2465  0.3836
  782MOL0     C 5499  10.384   3.292   4.480  0.5677  0.7331  0.5499
  782MOL0     C 5500  10.597   3.556   3.779  0.9594  0.1792  0.7954
  782MOL0     C 5501  10.652   3.568   3.644  1.2015  0.5105  0.4173
  782MOL0     C 5502  10.798   3.556   3.622 -0.2969  0.0750 -0.3929
  782MOL0     H 5503  10.608   3.425   3.148 -1.8569  1.5161  0.0892
  782MOL0     H 5504  10.708   3.483   2.906  0.2025  2.4035 -1.3599
  782MOL0     H 5505  10.927   3.811   2.834 -1.5770 -1.5087  1.1698
  782MOL0     H 5506  11.070   3.726   2.887  1.8062  0.8326 -2.5829
  782MOL0     H 5507  10.948   3.747   2.605 -0.6148 -1.2606  0.8836
  782MOL0     H 5508  11.076   3.622   2.653  4.1222  0.9073  1.4776
  782MOL0     H 5509  11.232   3.792   2.724 -2.0317 -2.1702  0.2004
  782MOL0     H 5510  11.118   3.928   2.687  0.5929 -0.4563  1.8989
  782MOL0     H 5511  11.194   3.743   2.460 -1.5732  1.8583 -2.5620
  782MOL0     H 5512  11.118   3.898   2.460  2.7355  1.4538 -3.0857
  782MOL0     H 5513  11.323   3.943   2.393  1.3319 -0.4863  0.7592
  782MOL0     H 5514  11.327   4.003   2.558 -1.3616  0.3464 -0.7815
  782MOL0     H 5515  11.463   3.802   2.622  1.8480 -2.2081  0.1921
  782MOL0     H 5516  11.438   3.727   2.472  2.0336  0.3146 -1.7769
  782MOL0     H 5517  11.539   3.909   2.337 -1.7858  1.5702  0.3544
  782MOL0     H 5518  11.650   3.802   2.429  1.0578  1.2164 -2.1197
  782MOL0     H 5519  11.547   4.071   2.530 -1.6322 -0.7695 -1.4890
  782MOL0     H 5520  11.661   3.968   2.612 -0.3483  3.7889  1.2081
  782MOL0     H 5521  11.607   4.185   2.292  0.7349  1.2771 -1.8090
  782MOL0     H 5522  11.735   4.408   2.251 -0.6858 -1.0164  0.3509
  782MOL0     H 5523  11.912   4.408   2.262  0.0236 -1.0348  1.7405
  782MOL0     H 5524  11.859   4.424   2.020 -1.5889  1.5125  1.2239
  782MOL0     H 5525  11.931   4.266   2.064 -1.6763  0.1064 -2.1284
  782MOL0     H 5526  11.630   4.311   2.056  0.2070 -0.9297  0.5076
  782MOL0     H 5527  11.698   4.155   2.049  2.5792 -0.3681  2.0887
  782MOL0     H 5528  11.762   4.355   1.828 -0.0353  0.0488  0.2381
  782MOL0     H 5529  11.637   4.242   1.801 -2.0915  1.6926  2.2979
  782MOL0     H 5530  12.010   4.005   1.764 -3.2363 -0.8333  0.2955
  782MOL0     H 5531  12.098   3.960   1.550 -0.4603 -0.8017  1.6021
  782MOL0     H 5532  12.354   3.975   1.174  0.4932  1.3624 -0.5817
  782MOL0     H 5533  12.414   3.897   0.947  0.5718  1.1070 -0.4721
  782MOL0     H 5534  12.231   3.920   0.648  0.2077 -0.9356 -2.7009
  782MOL0     H 5535  12.390   3.891   0.743  1.9726  0.2508 -1.9778
  782MOL0     H 5536  12.418   3.689   0.607  2.1533  1.4726 -0.4854
  782MOL0     H 5537  12.273   3.729   0.506  0.1350 -0.9667 -0.4098
  782MOL0     H 5538  12.510   3.778   0.416  0.1462  1.5530 -1.6025
  782MOL0     H 5539  12.380   3.899   0.399 -2.3922  1.8549  3.2836
  782MOL0     H 5540  12.634   3.868   0.577 -0.7828  0.6956  1.1025
  782MOL0     H 5541  12.517   3.979   0.634  2.4222 -0.6565  2.3165
  782MOL0     H 5542  12.521   4.098   0.404 -0.5951 -1.3421 -0.6347
  782MOL0     H 5543  12.679   4.003   0.377  1.5994 -0.9032  1.6930
  782MOL0     H 5544  12.724   4.240   0.441  1.2086 -0.9176 -1.5394
  782MOL0     H 5545  12.642   4.204   0.595 -0.6556 -2.0160 -0.6199
  782MOL0     H 5546  12.883   4.043   0.489 -1.3577  0.1455 -1.2890
  782MOL0     H 5547  12.812   4.048   0.657  0.6333  1.0594 -0.1327
  782MOL0     H 5548  12.925   4.275   0.497  0.0703 -0.1589  0.3558
  782MOL0     H 5549  12.870   4.287   0.668 -1.7853  3.7620 -2.1640
  782MOL0     H 5550  12.003   3.747   0.892 -0.9615  0.0852  0.6057
  782MOL0     H 5551  11.955   3.825   1.128 -0.0161 -0.3916  0.2312
  782MOL0     H 5552  11.822   4.221   1.363  1.3161 -0.3618 -0.7370
  782MOL0     H 5553  11.724   4.261   1.581 -2.2601 -2.1725 -0.5628
  782MOL0     H 5554  11.035   3.677   3.085 -0.2724 -1.7234  1.1509
  782MOL0     H 5555  10.941   3.667   3.302 -0.7704 -0.8587  0.1431
  782MOL0     H 5556  10.346   3.662   3.513 -1.0129  2.3279  1.8982
  782MOL0     H 5557  10.274   3.641   3.734  0.3171 -2.3518  3.7985
  782MOL0     H 5558  10.284   3.456   3.919 -0.1866 -2.1352  2.1466
  782MOL0     H 5559  10.256   3.570   4.049  0.1419  1.7947 -1.6687
  782MOL0     H 5560  10.426   3.455   4.201  1.4923 -0.7248 -0.2440
  782MOL0     H 5561  10.479   3.359   4.054  2.8402  2.7676  0.9684
  782MOL0     H 5562  10.265   3.266   4.043 -3.9795  2.9553 -0.1888
  782MOL0     H 5563  10.214   3.348   4.200  0.4814 -1.2835  1.7676
  782MOL0     H 5564  10.258   3.104   4.239  0.1351 -0.2436  3.7170
  782MOL0     H 5565  10.432   3.140   4.210 -0.5783 -3.3345  0.1132
  782MOL0     H 5566  10.389   3.347   4.571  1.0910 -0.1582  1.0673
  782MOL0     H 5567  10.668   3.521   3.854  0.6031 -4.0885 -0.6131
  782MOL0     H 5568  10.853   3.553   3.716 -3.0347 -1.1382  1.2936
  782MOL0     H 5569  10.831   3.462   3.577 -1.3918 -1.1154  1.2012
  782MOL0     H 5570  10.839   3.632   3.555 -2.3456  0.2529 -1.5333
  783MOL0     O 5571   4.977   7.917   8.169 -0.2743  0.0699  1.0259
  783MOL0     C 5572   4.866   7.913   8.115 -0.7153  0.6246  0.5196
  783MOL0     O 5573   4.794   7.793   8.094  0.0472 -0.4351  0.2959
  783MOL0     C 5574   4.868   7.677   8.101 -1.0040 -0.4196 -0.7468
  783MOL0     C 5575   4.902   7.613   7.984 -0.6722  0.2018  0.5284
  783MOL0     C 5576   4.958   7.486   8.000 -0.1138  0.8608 -0.0586
  783MOL0     C 5577   4.987   7.425   8.122 -0.0799  0.8381 -0.0608
  783MOL0     O 5578   5.049   7.305   8.134  0.2780 -0.4927  0.1391
  783MOL0     C 5579   4.998   7.196   8.050 -0.2694 -0.4887 -0.2477
  783MOL0     C 5580   5.059   7.067   8.085  0.3796 -0.3258  0.4174
  783MOL0     C 5581   5.028   6.969   7.969  0.6105 -0.0788 -0.4657
  783MOL0     C 5582   5.043   6.816   8.012 -0.6800  0.1785 -0.4559
  783MOL0     C 5583   5.034   6.720   7.894  0.6056  0.1657 -0.4808
  783MOL0     C 5584   5.018   6.575   7.932 -0.4043 -0.4743 -0.2841
  783MOL0     C 5585   5.005   6.486   7.807 -0.2947 -0.7498  0.2499
  783MOL0     C 5586   4.995   6.340   7.849 -0.4454 -0.7731 -0.0431
  783MOL0     N 5587   4.930   6.254   7.740  0.4000 -0.4018  0.6200
  783MOL0     C 5588   4.952   6.265   7.604 -0.0998 -0.0145  0.0534
  783MOL0     C 5589   4.876   6.170   7.545 -0.2251  0.4498  0.9611
  783MOL0     C 5590   4.886   6.143   7.406  0.3216  0.1681 -0.5593
  783MOL0     C 5591   4.822   6.006   7.356 -0.0670  0.7677 -0.5417
  783MOL0     C 5592   4.907   5.891   7.411 -0.6063  0.5706  0.7907
  783MOL0     C 5593   4.865   5.758   7.343  1.0326 -0.2296 -0.1778
  783MOL0     O 5594   4.885   5.777   7.196  0.0268 -0.3126 -1.1092
  783MOL0     C 5595   4.835   5.695   7.101  0.5188 -0.0281 -0.0570
  783MOL0     C 5596   4.864   5.721   6.971  0.5764 -0.5393  0.2452
  783MOL0     C 5597   4.861   5.628   6.877  0.2882  0.0610  0.3488
  783MOL0     C 5598   4.820   5.497   6.904 -0.7927 -0.5903  0.9752
  783MOL0     C 5599   4.806   5.397   6.807 -0.1546  0.9724  1.1239
  783MOL0     O 5600   4.736   5.280   6.839 -0.1273 -0.5427 -0.3637
  783MOL0     C 5601   4.684   5.211   6.733  0.7356 -0.1940 -0.0313
  783MOL0     C 5602   4.542   5.212   6.723  0.3608  0.0443  0.7584
  783MOL0     C 5603   4.481   5.165   6.603  0.5081  0.7286  0.0355
  783MOL0     C 5604   4.566   5.107   6.498  0.5278 -0.4598 -0.2735
  783MOL0     O 5605   4.506   5.047   6.391  0.5749 -0.0228  0.7685
  783MOL0     C 5606   4.574   4.995   6.275 -0.3847 -0.2024  0.3100
  783MOL0     C 5607   4.500   5.004   6.142 -0.3794  0.2265  0.2120
  783MOL0     C 5608   4.358   4.942   6.149 -1.0708  0.0509 -0.0695
  783MOL0     C 5609   4.354   4.794   6.200 -0.1512 -0.9789 -0.5303
  783MOL0     C 5610   4.205   4.760   6.201  0.4193  0.2941 -0.5035
  783MOL0     C 5611   4.185   4.610   6.256  0.4550 -0.5445 -0.6426
  783MOL0     C 5612   4.266   4.564   6.382  0.1085  0.1480 -0.0491
  783MOL0     C 5613   4.216   4.435   6.445 -0.0752  1.7422 -0.1427
  783MOL0    Cl 5614   4.239   4.290   6.339  0.0922  0.4706 -0.1089
  783MOL0     C 5615   4.701   5.085   6.525 -0.4190 -0.3107  0.2291
  783MOL0     C 5616   4.761   5.146   6.642 -0.1826  0.3216  0.2370
  783MOL0     O 5617   4.849   5.423   6.695 -0.5447 -0.5274  0.2989
  783MOL0     C 5618   4.782   5.472   7.039  0.4459 -0.4377  0.7613
  783MOL0     C 5619   4.779   5.571   7.133 -0.6781 -0.4238  0.3874
  783MOL0     N 5620   4.808   6.102   7.650  1.3119 -1.5978  0.2559
  783MOL0     N 5621   4.825   6.165   7.761 -0.2601  0.0943  0.5727
  783MOL0     C 5622   4.943   7.488   8.239 -0.7292 -0.0009 -0.4129
  783MOL0     C 5623   4.886   7.614   8.222  0.0074 -0.0727  0.6714
  783MOL0     C 5624   4.805   8.044   8.082  0.1400  0.8536  0.2188
  783MOL0     C 5625   4.867   8.153   8.132 -0.7606 -0.6328  0.3732
  783MOL0     C 5626   4.823   8.282   8.114 -0.5720 -0.1004 -0.4090
  783MOL0     C 5627   4.731   8.315   8.023  0.0597  0.2503  0.7569
  783MOL0     O 5628   4.716   8.445   7.985  0.4482 -0.0735  0.2714
  783MOL0     C 5629   4.592   8.487   7.927 -1.1875 -0.0837  0.5931
  783MOL0     C 5630   4.598   8.642   7.911  0.2072 -0.8196 -0.1820
  783MOL0     C 5631   4.666   8.726   8.019 -0.2709 -0.3766  0.3261
  783MOL0     C 5632   4.823   8.727   8.001  0.2165 -0.3117 -0.1543
  783MOL0     C 5633   4.889   8.843   8.062 -0.0338  0.5766  0.6028
  783MOL0     C 5634   4.949   8.939   8.102 -0.6604  0.2968 -0.5177
  783MOL0     C 5635   4.653   8.207   7.976  0.7538  0.7510 -0.4984
  783MOL0     C 5636   4.684   8.070   8.009 -0.0118 -0.4203 -0.9048
  783MOL0     C 5637   4.590   7.969   7.957  1.0345  0.8331  0.4414
  783MOL0     H 5638   4.870   7.643   7.885  0.3533  1.1658  0.4742
  783MOL0     H 5639   4.990   7.434   7.910  1.5544 -0.6154  1.3024
  783MOL0     H 5640   4.892   7.180   8.071 -0.3679 -0.7186 -0.8976
  783MOL0     H 5641   5.027   7.212   7.945  0.3936  0.3316  0.0456
  783MOL0     H 5642   5.009   7.029   8.175  0.1941  1.3611  1.0647
  783MOL0     H 5643   5.168   7.070   8.086  0.4569 -0.9245  3.1193
  783MOL0     H 5644   5.109   6.993   7.899  2.2804  2.4633  2.0826
  783MOL0     H 5645   4.930   6.977   7.922  1.3267  2.6663 -1.7390
  783MOL0     H 5646   5.126   6.778   8.073 -1.4744 -0.6580  0.1313
  783MOL0     H 5647   4.949   6.800   8.066 -1.6158  2.5430 -1.2498
  783MOL0     H 5648   4.946   6.746   7.835 -1.5107 -3.6376  0.6692
  783MOL0     H 5649   5.125   6.725   7.833  1.1819 -0.6247  0.2829
  783MOL0     H 5650   5.109   6.540   7.983 -0.5313  1.7332  1.6127
  783MOL0     H 5651   4.938   6.561   8.006  0.9960 -1.0832  1.1940
  783MOL0     H 5652   5.090   6.504   7.740 -0.5948  1.3544  0.3578
  783MOL0     H 5653   4.912   6.504   7.753  0.5272  0.5356 -0.8010
  783MOL0     H 5654   5.096   6.310   7.876 -0.8134 -1.3360  0.7369
  783MOL0     H 5655   4.920   6.341   7.929 -0.4872 -1.3542 -0.0724
  783MOL0     H 5656   5.023   6.322   7.545  0.1101 -0.3653 -0.0371
  783MOL0     H 5657   4.837   6.232   7.366  3.0243  1.3900 -1.3832
  783MOL0     H 5658   4.993   6.146   7.385  1.0124 -0.4778  2.4123
  783MOL0     H 5659   4.722   6.001   7.402 -0.3175  2.5968 -0.7831
  783MOL0     H 5660   4.822   5.997   7.247  1.1327 -1.5979 -0.3983
  783MOL0     H 5661   4.877   5.883   7.516 -4.0784  0.2561 -0.0907
  783MOL0     H 5662   5.014   5.913   7.404 -0.7895  1.7636  1.4945
  783MOL0     H 5663   4.760   5.734   7.366  1.4542 -1.4881  0.5162
  783MOL0     H 5664   4.928   5.684   7.394 -0.8005  0.3043  3.1783
  783MOL0     H 5665   4.885   5.822   6.940  0.2535 -0.6099 -0.2098
  783MOL0     H 5666   4.885   5.656   6.775  1.7662 -0.3021  0.5786
  783MOL0     H 5667   4.484   5.247   6.808  0.4430 -0.8099  1.1721
  783MOL0     H 5668   4.372   5.162   6.596  0.0910  3.2652  3.0824
  783MOL0     H 5669   4.674   5.036   6.261 -1.4239  1.6725 -2.8508
  783MOL0     H 5670   4.576   4.887   6.293 -1.5428 -0.4375 -0.7998
  783MOL0     H 5671   4.477   5.110   6.132  2.1440  0.7611 -0.6750
  783MOL0     H 5672   4.540   4.949   6.057 -0.8921 -0.4099  0.3749
  783MOL0     H 5673   4.286   5.004   6.202 -0.0050  3.4300 -2.2436
  783MOL0     H 5674   4.327   4.938   6.044  1.5077  1.1580 -0.9656
  783MOL0     H 5675   4.394   4.781   6.301 -0.0067 -3.0829 -0.8293
  783MOL0     H 5676   4.414   4.735   6.131 -1.9118 -1.7149 -1.4957
  783MOL0     H 5677   4.157   4.762   6.102 -0.9641  1.5020  0.1532
  783MOL0     H 5678   4.148   4.826   6.267 -0.4908  1.1355 -2.0617
  783MOL0     H 5679   4.077   4.615   6.276  0.6208  3.6021  0.2671
  783MOL0     H 5680   4.214   4.547   6.172 -1.3384 -2.0814 -0.1818
  783MOL0     H 5681   4.246   4.645   6.452 -4.0843  0.3568 -1.2195
  783MOL0     H 5682   4.373   4.558   6.362  0.9220 -0.0859  3.6373
  783MOL0     H 5683   4.281   4.410   6.530  0.4024  1.7312 -0.5042
  783MOL0     H 5684   4.117   4.437   6.492 -2.6211 -1.9466 -4.5361
  783MOL0     H 5685   4.768   5.048   6.449 -0.5725 -3.0976  1.3470
  783MOL0     H 5686   4.869   5.145   6.643 -0.1207 -0.1903 -1.8481
  783MOL0     H 5687   4.747   5.371   7.061 -1.7349 -0.1494 -1.0944
  783MOL0     H 5688   4.751   5.573   7.238  1.5751  0.4162  1.0328
  783MOL0     H 5689   4.953   7.430   8.331 -1.2253 -2.2579 -1.7162
  783MOL0     H 5690   4.840   7.665   8.306 -0.7283 -0.9044  0.7869
  783MOL0     H 5691   4.963   8.150   8.182 -0.4372 -0.6992 -0.2415
  783MOL0     H 5692   4.870   8.373   8.150  0.5561 -1.7847  2.8517
  783MOL0     H 5693   4.518   8.448   7.997  1.3118 -2.6785  2.0042
  783MOL0     H 5694   4.589   8.433   7.832 -1.2102 -0.2723  0.7030
  783MOL0     H 5695   4.494   8.675   7.917  0.0714 -0.7818 -2.1583
  783MOL0     H 5696   4.632   8.657   7.809  0.6858  1.4385  0.2536
  783MOL0     H 5697   4.644   8.679   8.115 -1.2191 -1.1683 -0.2564
  783MOL0     H 5698   4.640   8.831   8.005  1.6107  0.0682 -0.1114
  783MOL0     H 5699   4.872   8.641   8.049  2.2479  0.0725 -1.4136
  783MOL0     H 5700   4.839   8.727   7.893  0.3551 -1.6453 -0.1550
  783MOL0     H 5701   4.996   9.030   8.132  0.3777  0.1509 -1.6147
  783MOL0     H 5702   4.560   8.225   7.922  0.9800 -1.8676 -1.9504
  783MOL0     H 5703   4.638   7.917   7.873 -0.8911 -1.6973  0.7998
  783MOL0     H 5704   4.558   7.898   8.033 -1.8667  2.6954  1.1073
  783MOL0     H 5705   4.505   8.012   7.904 -0.1232 -1.0378  0.6990
  784MOL0     O 5706   1.583   0.071   9.832  0.0646 -0.1435  0.0401
  784MOL0     C 5707   1.465   0.075   9.874  0.1983  0.1284  0.1739
  784MOL0     O 5708   1.366   0.178   9.860 -0.3296 -0.1821 -0.2624
  784MOL0     C 5709   1.387   0.297   9.797  0.5883 -0.0859  0.5717
  784MOL0     C 5710   1.337   0.411   9.861  0.6897 -0.7998  0.4307
  784MOL0     C 5711   1.362   0.532   9.788 -0.2355 -0.0215  0.1613
  784MOL0     C 5712   1.437   0.538   9.669 -0.2208  0.8059  1.0705
  784MOL0     O 5713   1.448   0.663   9.619  0.4513 -0.1574  0.3809
  784MOL0     C 5714   1.455   0.681   9.476 -0.4710  1.1753  0.7693
  784MOL0     C 5715   1.427   0.824   9.437  0.2401  0.7713 -1.2098
  784MOL0     C 5716   1.413   0.867   9.294 -0.3677  0.6970  0.0952
  784MOL0     C 5717   1.520   0.808   9.193  0.5120  0.5027  0.9817
  784MOL0     C 5718   1.506   0.866   9.062  0.8246 -0.0294  0.6054
  784MOL0     C 5719   1.646   0.858   8.996  0.7557 -0.3194  0.4362
  784MOL0     C 5720   1.652   0.929   8.859  0.2355 -0.2297  0.6379
  784MOL0     C 5721   1.786   0.918   8.794  0.0231  0.0025  1.0646
  784MOL0     N 5722   1.770   0.932   8.643  0.2900  0.1574 -0.4923
  784MOL0     C 5723   1.868   0.905   8.552 -0.2138  0.4043  0.4830
  784MOL0     C 5724   1.818   0.956   8.431  0.1799 -0.4982 -0.0695
  784MOL0     C 5725   1.889   0.941   8.297  0.0851  0.1517 -0.4215
  784MOL0     C 5726   2.040   0.920   8.305 -0.5795  0.3387  0.3121
  784MOL0     C 5727   2.090   0.889   8.162  0.0163  0.8875 -0.5505
  784MOL0     C 5728   2.228   0.824   8.157  0.1369 -0.4769  0.8279
  784MOL0     O 5729   2.213   0.703   8.234  0.3490 -0.3083  0.0018
  784MOL0     C 5730   2.160   0.590   8.178  0.1192 -0.3518 -0.5606
  784MOL0     C 5731   2.115   0.568   8.043  0.2809  0.6890  0.0532
  784MOL0     C 5732   2.081   0.440   7.997 -0.3663  1.0739  0.6095
  784MOL0     C 5733   2.070   0.326   8.083  0.1501  0.6852 -0.1768
  784MOL0     C 5734   2.059   0.189   8.035  0.0458  0.0071 -0.5010
  784MOL0     O 5735   2.072   0.159   7.901 -0.3994 -0.4909 -0.5557
  784MOL0     C 5736   2.057   0.030   7.857  0.9315  0.3162  0.0352
  784MOL0     C 5737   2.157  -0.030   7.781 -1.1740  0.5512 -0.1323
  784MOL0     C 5738   2.157  -0.165   7.728 -0.3651  0.4079  0.4328
  784MOL0     C 5739   2.041  -0.249   7.768  0.4668  0.0082 -0.1553
  784MOL0     O 5740   2.008  -0.379   7.728 -0.2856 -0.3481 -0.1289
  784MOL0     C 5741   2.110  -0.447   7.658  0.6231  0.8587  0.5357
  784MOL0     C 5742   2.046  -0.569   7.594  0.2041 -0.0418 -0.1437
  784MOL0     C 5743   1.950  -0.634   7.693 -0.7858 -0.1114  0.2547
  784MOL0     C 5744   1.899  -0.764   7.642  0.2203  0.3334 -0.2667
  784MOL0     C 5745   1.788  -0.808   7.744 -0.3698  0.4639  0.3305
  784MOL0     C 5746   1.714  -0.934   7.697 -0.2518 -0.1781  0.2464
  784MOL0     C 5747   1.566  -0.927   7.673 -0.0729  0.6451  1.3483
  784MOL0     C 5748   1.494  -1.050   7.714 -0.4049  0.2794 -0.3081
  784MOL0    Cl 5749   1.323  -1.043   7.683 -0.2279  0.1685  0.0051
  784MOL0     C 5750   1.933  -0.180   7.834  0.0756  0.3561 -0.6461
  784MOL0     C 5751   1.937  -0.048   7.870 -0.5106 -0.9009  0.6008
  784MOL0     O 5752   2.033   0.104   8.120  0.2719  0.1709  0.4264
  784MOL0     C 5753   2.112   0.350   8.217  0.8511  1.0199  1.9761
  784MOL0     C 5754   2.155   0.474   8.262  0.1389  0.0251 -0.4057
  784MOL0     N 5755   1.693   0.999   8.459  0.8987 -0.0814  0.1891
  784MOL0     N 5756   1.667   1.000   8.586  0.2497 -0.1893 -0.4481
  784MOL0     C 5757   1.485   0.424   9.606 -0.3029 -0.6493 -1.2975
  784MOL0     C 5758   1.451   0.299   9.672 -0.8480 -0.3453 -0.2377
  784MOL0     C 5759   1.430  -0.040   9.956 -0.4033 -0.1904 -0.8306
  784MOL0     C 5760   1.491  -0.167   9.931  0.2540  0.1706  0.2593
  784MOL0     C 5761   1.445  -0.285   9.993 -0.7342  0.3554 -0.1311
  784MOL0     C 5762   1.357  -0.281  10.100  0.0077  0.5378  0.8394
  784MOL0     O 5763   1.312  -0.404  10.152 -0.2842  0.3299  0.4083
  784MOL0     C 5764   1.206  -0.415  10.244  0.0919 -0.1145  0.0043
  784MOL0     C 5765   1.096  -0.480  10.176 -0.0052  0.6904  0.0261
  784MOL0     C 5766   1.121  -0.623  10.132 -0.2021 -0.0924  0.2811
  784MOL0     C 5767   1.002  -0.700  10.060 -0.4819 -0.1408 -0.0940
  784MOL0     C 5768   1.062  -0.793   9.967 -0.0644 -1.0325  1.4820
  784MOL0     C 5769   1.112  -0.846   9.872 -0.5013  0.3234  0.0207
  784MOL0     C 5770   1.310  -0.149  10.136  1.0481  0.1652  0.3044
  784MOL0     C 5771   1.343  -0.033  10.071  0.2893 -0.6058  1.0054
  784MOL0     C 5772   1.292   0.103  10.124 -0.5365 -0.3705  0.6155
  784MOL0     H 5773   1.297   0.409   9.961  0.4264  1.7856  0.4441
  784MOL0     H 5774   1.326   0.622   9.836 -1.3572  0.2358 -1.1014
  784MOL0     H 5775   1.552   0.650   9.435 -0.9759  1.5040 -0.7271
  784MOL0     H 5776   1.380   0.616   9.431 -0.7034  1.8362  0.1815
  784MOL0     H 5777   1.502   0.886   9.486  0.5347  0.7649 -1.6486
  784MOL0     H 5778   1.330   0.854   9.478  0.1522 -0.0945 -0.7595
  784MOL0     H 5779   1.415   0.976   9.285 -1.3921  0.7246  0.0557
  784MOL0     H 5780   1.312   0.850   9.257 -0.9821  2.1884  0.9874
  784MOL0     H 5781   1.615   0.842   9.237  1.2705  0.5732 -0.6349
  784MOL0     H 5782   1.505   0.700   9.191  0.6229  0.4913  0.7267
  784MOL0     H 5783   1.438   0.808   8.999  2.8469  0.7023 -2.4476
  784MOL0     H 5784   1.467   0.969   9.064 -0.4492 -0.4849  2.6269
  784MOL0     H 5785   1.723   0.904   9.059  2.6417 -0.8400 -1.3874
  784MOL0     H 5786   1.681   0.755   8.983 -0.6530 -0.6558 -0.9500
  784MOL0     H 5787   1.618   1.033   8.866  0.0533 -0.2411  0.0139
  784MOL0     H 5788   1.585   0.873   8.793  1.6973  1.3920 -2.4373
  784MOL0     H 5789   1.857   0.991   8.833  2.7099 -1.4971 -0.6910
  784MOL0     H 5790   1.824   0.818   8.819  1.4418  0.0816 -0.6045
  784MOL0     H 5791   1.964   0.854   8.558 -0.8573 -1.1301 -1.2957
  784MOL0     H 5792   1.837   0.856   8.252 -0.0644 -0.9875  1.8120
  784MOL0     H 5793   1.872   1.028   8.232  0.8590 -0.0603 -0.9147
  784MOL0     H 5794   2.092   1.002   8.354 -2.2185 -0.7956  4.3972
  784MOL0     H 5795   2.056   0.833   8.370 -2.0824 -0.1364  0.0856
  784MOL0     H 5796   2.097   0.975   8.095  0.9438  1.2451 -0.0094
  784MOL0     H 5797   2.016   0.819   8.122  2.4495 -1.5546 -1.0407
  784MOL0     H 5798   2.304   0.883   8.209 -0.9997 -0.5946  2.7169
  784MOL0     H 5799   2.260   0.808   8.053  2.5517  0.8078  1.2980
  784MOL0     H 5800   2.113   0.639   7.961  2.4927 -0.6226 -1.2337
  784MOL0     H 5801   2.041   0.436   7.897 -2.6596  3.5280  1.3221
  784MOL0     H 5802   2.245   0.029   7.758 -0.9104 -0.5955 -2.3550
  784MOL0     H 5803   2.252  -0.185   7.678  1.7910  4.1929  2.5563
  784MOL0     H 5804   2.147  -0.379   7.581  0.2329 -0.6770 -1.0722
  784MOL0     H 5805   2.187  -0.482   7.728  0.1491 -0.0560  0.6162
  784MOL0     H 5806   1.989  -0.548   7.504  0.5985 -0.4361 -0.4909
  784MOL0     H 5807   2.124  -0.644   7.576  0.9716 -0.0125  2.6183
  784MOL0     H 5808   1.987  -0.646   7.795  2.4027 -1.2158 -0.8926
  784MOL0     H 5809   1.863  -0.568   7.699 -2.8922 -2.7084  0.2775
  784MOL0     H 5810   1.981  -0.836   7.635 -2.5074 -3.0024 -0.7550
  784MOL0     H 5811   1.849  -0.745   7.547  0.9853  0.6236 -0.6157
  784MOL0     H 5812   1.708  -0.738   7.769 -2.0481 -0.3597 -2.3338
  784MOL0     H 5813   1.825  -0.835   7.843  0.2651 -0.9906 -0.2736
  784MOL0     H 5814   1.762  -0.976   7.608  1.4442 -0.3243  1.1838
  784MOL0     H 5815   1.726  -1.012   7.772 -1.0064  1.7682  2.5264
  784MOL0     H 5816   1.550  -0.911   7.566 -1.2771  3.3782  1.8454
  784MOL0     H 5817   1.522  -0.839   7.722  0.5972  2.5096 -1.1585
  784MOL0     H 5818   1.536  -1.131   7.655 -0.0005 -2.4709  3.3783
  784MOL0     H 5819   1.520  -1.070   7.819  3.1964  1.3925 -0.8469
  784MOL0     H 5820   1.843  -0.239   7.853  2.7920 -4.1888 -0.4561
  784MOL0     H 5821   1.851  -0.006   7.922 -1.0904  0.8194 -1.5884
  784MOL0     H 5822   2.108   0.262   8.280  0.2593  0.4302  1.1370
  784MOL0     H 5823   2.166   0.481   8.370 -1.0545 -1.8965 -0.0949
  784MOL0     H 5824   1.542   0.429   9.514 -0.0524  1.3913 -1.0926
  784MOL0     H 5825   1.482   0.209   9.620  0.6025 -0.6418  1.0627
  784MOL0     H 5826   1.553  -0.175   9.842 -2.4317  2.3580 -1.9737
  784MOL0     H 5827   1.497  -0.379   9.973  2.5019  1.6567  1.3910
  784MOL0     H 5828   1.174  -0.316  10.279 -0.2121 -0.0368 -0.4868
  784MOL0     H 5829   1.230  -0.476  10.332 -2.1930 -1.0634  0.0624
  784MOL0     H 5830   1.062  -0.420  10.091 -0.7284 -2.0182 -1.7282
  784MOL0     H 5831   1.011  -0.478  10.245 -0.7676 -1.2389 -0.7727
  784MOL0     H 5832   1.140  -0.677  10.225  1.7717 -2.3847 -1.3404
  784MOL0     H 5833   1.206  -0.615  10.063 -1.0269  1.1283 -0.6466
  784MOL0     H 5834   0.946  -0.749  10.139  0.6213  2.2179  2.2883
  784MOL0     H 5835   0.941  -0.628  10.006  1.3585  1.8883  0.3790
  784MOL0     H 5836   1.171  -0.871   9.786 -1.2515 -1.2772 -0.0482
  784MOL0     H 5837   1.236  -0.136  10.215  1.3961 -0.2366  0.7052
  784MOL0     H 5838   1.363   0.185  10.106  0.5172 -1.2043  0.9026
  784MOL0     H 5839   1.202   0.128  10.066 -0.1538  0.3342  0.3164
  784MOL0     H 5840   1.263   0.092  10.228 -0.4816  3.0429  1.1107
  785MOL0     O 5841  11.297  11.316  10.151 -0.9972 -0.3263 -1.2346
  785MOL0     C 5842  11.310  11.437  10.146  0.5779  0.4280  1.3903
  785MOL0     O 5843  11.379  11.522  10.231  0.3597 -1.1747  0.0299
  785MOL0     C 5844  11.469  11.467  10.320 -0.3746 -0.3084 -1.3282
  785MOL0     C 5845  11.546  11.349  10.310 -0.4174 -0.3419  0.5219
  785MOL0     C 5846  11.625  11.294  10.409 -1.0130 -1.0257 -0.4339
  785MOL0     C 5847  11.636  11.364  10.531 -0.8169  0.3544 -0.0292
  785MOL0     O 5848  11.705  11.308  10.633 -0.1865 -0.3604 -0.1943
  785MOL0     C 5849  11.667  11.347  10.769  0.3830 -0.6492  0.7109
  785MOL0     C 5850  11.728  11.239  10.859 -0.3391 -0.8450  1.0829
  785MOL0     C 5851  11.692  11.267  11.013  0.9860 -0.6860 -0.7316
  785MOL0     C 5852  11.763  11.386  11.085  0.2658  0.5060 -0.3044
  785MOL0     C 5853  11.912  11.411  11.079  1.0200 -0.7164 -0.8678
  785MOL0     C 5854  11.991  11.312  11.170 -0.8519  0.5333  0.5231
  785MOL0     C 5855  12.142  11.309  11.122 -0.1683  0.1588 -0.1640
  785MOL0     C 5856  12.233  11.264  11.235 -0.2122  0.7879  0.0959
  785MOL0     N 5857  12.297  11.387  11.286 -0.2351 -0.2864  0.9855
  785MOL0     C 5858  12.238  11.477  11.367 -0.0696 -0.9165  0.0530
  785MOL0     C 5859  12.322  11.592  11.373  0.4676  0.7177 -0.4701
  785MOL0     C 5860  12.267  11.726  11.429 -0.4080  0.8824 -0.7595
  785MOL0     C 5861  12.237  11.826  11.319  0.2757  0.2879  0.4191
  785MOL0     C 5862  12.124  11.768  11.228 -0.9416 -0.0331  0.4922
  785MOL0     C 5863  12.078  11.853  11.116 -0.2016  1.0429  0.2705
  785MOL0     O 5864  11.951  11.809  11.075  0.0024 -0.3349 -0.5513
  785MOL0     C 5865  11.908  11.857  10.958 -0.4052  0.4636 -0.2356
  785MOL0     C 5866  11.968  11.967  10.895  0.3197 -0.7845 -0.2799
  785MOL0     C 5867  11.918  12.020  10.768 -0.3323 -0.6558 -0.4397
  785MOL0     C 5868  11.805  11.957  10.710  0.2861 -0.3458 -0.3174
  785MOL0     C 5869  11.727  12.005  10.592  0.5320 -0.5114 -0.1773
  785MOL0     O 5870  11.616  11.932  10.557  1.0823  0.7463 -0.0643
  785MOL0     C 5871  11.534  11.995  10.466  0.1959 -1.9603 -0.7933
  785MOL0     C 5872  11.510  11.947  10.340 -0.2382  0.5202  0.2005
  785MOL0     C 5873  11.421  11.993  10.248 -0.8126 -0.5925 -0.3851
  785MOL0     C 5874  11.348  12.111  10.287  0.1026 -0.3024 -0.3336
  785MOL0     O 5875  11.251  12.180  10.202 -0.7118 -0.8825  0.3740
  785MOL0     C 5876  11.287  12.207  10.064 -0.5055 -0.0808  0.6788
  785MOL0     C 5877  11.336  12.361  10.060  0.6536  0.6955  0.4233
  785MOL0     C 5878  11.346  12.419   9.914 -0.2044  0.3653 -1.0357
  785MOL0     C 5879  11.211  12.477   9.867  0.1237  0.1546  0.2201
  785MOL0     C 5880  11.163  12.609   9.930 -1.2431  0.6575 -0.0546
  785MOL0     C 5881  11.279  12.702   9.939  1.1456  0.1682 -0.3249
  785MOL0     C 5882  11.237  12.847   9.944  0.0802 -0.1447  0.5711
  785MOL0     C 5883  11.351  12.941   9.937  0.0991 -0.7337 -0.1703
  785MOL0    Cl 5884  11.440  12.922  10.095  0.1956  0.2164  0.1948
  785MOL0     C 5885  11.370  12.161  10.418 -0.7338  0.3073  0.2277
  785MOL0     C 5886  11.452  12.096  10.516 -0.0487 -0.1894  0.4810
  785MOL0     O 5887  11.753  12.117  10.557  0.1982 -0.1252 -0.1374
  785MOL0     C 5888  11.752  11.841  10.773 -1.3997  1.5129  0.5472
  785MOL0     C 5889  11.813  11.783  10.886  0.5370 -0.5986  0.4242
  785MOL0     N 5890  12.437  11.561  11.310  0.3076 -0.1359  0.1658
  785MOL0     N 5891  12.422  11.440  11.262 -1.1453 -0.0863  0.2918
  785MOL0     C 5892  11.562  11.486  10.543 -0.4181 -0.0927 -0.5257
  785MOL0     C 5893  11.489  11.538  10.437  0.4784 -1.3666  0.2786
  785MOL0     C 5894  11.253  11.504  10.038  0.2776 -0.4913 -0.1663
  785MOL0     C 5895  11.332  11.597   9.965  0.1770  0.4339  0.0995
  785MOL0     C 5896  11.283  11.661   9.854 -0.0599  0.1798  0.0901
  785MOL0     C 5897  11.156  11.632   9.808  0.5806 -0.5353 -0.2384
  785MOL0     O 5898  11.117  11.693   9.690  0.6650  0.6668 -0.0028
  785MOL0     C 5899  10.988  11.675   9.620  0.0248  0.4149  0.4224
  785MOL0     C 5900  10.961  11.775   9.502  0.3625 -0.5403 -0.3919
  785MOL0     C 5901  10.828  11.735   9.433 -0.4605 -0.9337 -0.7908
  785MOL0     C 5902  10.700  11.782   9.499 -0.8029 -0.7572  0.9540
  785MOL0     C 5903  10.693  11.930   9.493 -0.5133  0.4866 -0.9320
  785MOL0     C 5904  10.683  12.054   9.494 -0.2281  0.3347 -0.3240
  785MOL0     C 5905  11.076  11.538   9.874 -0.7072  0.5647 -0.0979
  785MOL0     C 5906  11.125  11.466   9.987  1.2152 -0.5331 -0.0688
  785MOL0     C 5907  11.028  11.384  10.071  0.6026  0.2077  0.9130
  785MOL0     H 5908  11.537  11.297  10.215 -1.3289  2.0664 -0.7894
  785MOL0     H 5909  11.680  11.200  10.406  1.5015  0.3555 -1.5779
  785MOL0     H 5910  11.720  11.441  10.786  0.0618 -0.4317  0.5200
  785MOL0     H 5911  11.560  11.362  10.787 -0.4752 -1.5862 -2.7060
  785MOL0     H 5912  11.837  11.235  10.843 -0.1996  0.4898  1.5480
  785MOL0     H 5913  11.684  11.143  10.831  0.3110 -0.3028 -2.2647
  785MOL0     H 5914  11.706  11.176  11.072 -0.8146 -0.5181  0.0055
  785MOL0     H 5915  11.583  11.277  11.013  1.0193  0.5730 -3.2929
  785MOL0     H 5916  11.725  11.484  11.054  2.1477  3.1654  4.6161
  785MOL0     H 5917  11.727  11.394  11.188  0.2910 -2.1710 -0.0179
  785MOL0     H 5918  11.936  11.405  10.973 -2.0974  0.1651 -1.7114
  785MOL0     H 5919  11.943  11.510  11.111 -1.1935 -0.3907  0.4992
  785MOL0     H 5920  11.980  11.350  11.272  4.5499  2.5415  0.7023
  785MOL0     H 5921  11.961  11.207  11.159  2.0714 -0.2366 -1.1644
  785MOL0     H 5922  12.177  11.404  11.081 -2.3513  0.2641 -2.0057
  785MOL0     H 5923  12.148  11.227  11.049 -0.8442 -1.0789  1.1355
  785MOL0     H 5924  12.175  11.199  11.302 -0.5644 -4.6485 -4.6704
  785MOL0     H 5925  12.305  11.193  11.193 -1.5315 -0.5353 -0.0505
  785MOL0     H 5926  12.133  11.475  11.394 -0.2632 -1.7473 -0.7145
  785MOL0     H 5927  12.187  11.713  11.502  1.4790  0.1529  1.2912
  785MOL0     H 5928  12.349  11.765  11.491 -1.2271 -1.0778  1.7227
  785MOL0     H 5929  12.199  11.914  11.372  1.1839  1.4406 -0.7673
  785MOL0     H 5930  12.326  11.861  11.266 -0.7338  0.4504 -1.2404
  785MOL0     H 5931  12.032  11.752  11.286 -1.0806 -2.8514 -0.3624
  785MOL0     H 5932  12.151  11.669  11.191 -1.0072 -0.1988  0.8760
  785MOL0     H 5933  12.152  11.832  11.038 -2.1851 -3.9302 -0.6368
  785MOL0     H 5934  12.077  11.959  11.143  1.0968  1.7218 -2.0098
  785MOL0     H 5935  12.059  12.009  10.936 -1.2414  2.5458  0.0997
  785MOL0     H 5936  11.946  12.116  10.727 -2.1680  0.7495  1.3562
  785MOL0     H 5937  11.560  11.858  10.305 -1.5453 -0.5044  0.8438
  785MOL0     H 5938  11.396  11.953  10.150 -1.1891  2.3727 -1.6088
  785MOL0     H 5939  11.355  12.137  10.016  1.6718  2.6509 -0.5260
  785MOL0     H 5940  11.191  12.214  10.010 -0.2193 -0.2110  0.1468
  785MOL0     H 5941  11.259  12.412  10.118 -1.0723 -0.5637 -0.6797
  785MOL0     H 5942  11.435  12.354  10.106  0.4924  3.2853  1.3628
  785MOL0     H 5943  11.424  12.496   9.915 -1.6139  2.1035  3.9211
  785MOL0     H 5944  11.377  12.347   9.837  1.7840  2.9473 -2.8280
  785MOL0     H 5945  11.131  12.404   9.883 -1.3358  0.6391 -3.8391
  785MOL0     H 5946  11.212  12.493   9.759  0.2987  0.8638  0.3194
  785MOL0     H 5947  11.130  12.585  10.032 -0.7800 -1.7406 -0.4026
  785MOL0     H 5948  11.080  12.647   9.871 -1.1084  1.1406  0.0586
  785MOL0     H 5949  11.337  12.674  10.027 -2.4616 -0.0362  2.2398
  785MOL0     H 5950  11.340  12.698   9.848  1.4642  0.4982 -0.1278
  785MOL0     H 5951  11.168  12.873  10.026  3.5949 -0.7371  4.0142
  785MOL0     H 5952  11.174  12.862   9.856  3.1306  3.3716 -1.2827
  785MOL0     H 5953  11.426  12.920   9.860 -0.0183  0.8152 -0.7491
  785MOL0     H 5954  11.319  13.045   9.924  0.8673 -0.6123 -1.2232
  785MOL0     H 5955  11.327  12.257  10.443  1.5556  1.6211 -0.6559
  785MOL0     H 5956  11.479  12.140  10.612 -0.9633  3.4669 -0.7519
  785MOL0     H 5957  11.668  11.778  10.745 -0.5384  1.1321 -1.3216
  785MOL0     H 5958  11.776  11.688  10.923 -0.1228 -1.0383 -1.2414
  785MOL0     H 5959  11.570  11.551  10.630 -2.4830  2.4932 -2.0981
  785MOL0     H 5960  11.439  11.634  10.435  2.4409 -0.2750  0.3055
  785MOL0     H 5961  11.429  11.633   9.997  0.1781  3.7011 -2.9744
  785MOL0     H 5962  11.340  11.737   9.803 -1.5663  0.8873 -0.6146
  785MOL0     H 5963  10.901  11.670   9.687  0.4026 -2.7003  0.8199
  785MOL0     H 5964  10.987  11.577   9.571 -1.3319  0.4009  0.4529
  785MOL0     H 5965  11.041  11.770   9.428  0.8086 -0.5083  0.0829
  785MOL0     H 5966  10.960  11.880   9.534  1.0387  0.2697 -2.8131
  785MOL0     H 5967  10.815  11.626   9.429  1.3630 -1.1836 -0.5488
  785MOL0     H 5968  10.832  11.775   9.331  0.8693 -4.2521 -2.2059
  785MOL0     H 5969  10.615  11.743   9.442  0.3904 -1.2746 -0.5464
  785MOL0     H 5970  10.690  11.745   9.602  1.9223 -1.2877  1.0836
  785MOL0     H 5971  10.662  12.159   9.502 -1.5898 -0.0552  2.5474
  785MOL0     H 5972  10.976  11.521   9.835 -1.5418  2.6484  0.9767
  785MOL0     H 5973  10.924  11.414  10.057 -0.0568 -0.4804  3.6051
  785MOL0     H 5974  11.047  11.288  10.024  1.0358  0.3358  0.8203
  785MOL0     H 5975  11.050  11.381  10.179  3.2938  0.8307  0.4627
  786MOL0     O 5976  10.494   8.202   9.729  0.0488 -0.2567  0.1859
  786MOL0     C 5977  10.403   8.256   9.794 -0.1005 -0.0651 -0.3913
  786MOL0     O 5978  10.286   8.207   9.838 -0.0720 -0.9583 -0.4094
  786MOL0     C 5979  10.251   8.082   9.808 -0.4939 -0.3120  1.5607
  786MOL0     C 5980  10.294   7.968   9.884  0.0180 -0.0557  0.1684
  786MOL0     C 5981  10.233   7.841   9.864  0.4350  1.1085  0.1251
  786MOL0     C 5982  10.155   7.824   9.753  0.2251 -0.2098  0.1016
  786MOL0     O 5983  10.102   7.703   9.724  0.6711  0.4558 -0.7392
  786MOL0     C 5984  10.183   7.642   9.620 -0.5624 -0.0828  0.0481
  786MOL0     C 5985  10.099   7.521   9.584  0.1761 -0.2151 -0.2921
  786MOL0     C 5986  10.169   7.415   9.507 -0.2690  0.3912 -0.0123
  786MOL0     C 5987  10.239   7.311   9.594  0.4197  0.1983  0.3967
  786MOL0     C 5988  10.286   7.181   9.529  0.8334 -0.4708  0.1155
  786MOL0     C 5989  10.388   7.216   9.424  0.1329 -1.0292  0.0794
  786MOL0     C 5990  10.479   7.116   9.381 -0.7169  1.1560 -0.2864
  786MOL0     C 5991  10.425   6.976   9.365  0.0107  0.4204 -0.9255
  786MOL0     N 5992  10.520   6.899   9.291 -0.1382  0.5323 -0.4796
  786MOL0     C 5993  10.543   6.918   9.153 -0.3197  0.6123 -0.1031
  786MOL0     C 5994  10.651   6.846   9.133 -0.0531  0.6915 -0.1354
  786MOL0     C 5995  10.723   6.813   9.017 -0.3539  0.7207  0.0874
  786MOL0     C 5996  10.639   6.807   8.881 -0.1518  0.6293 -0.7825
  786MOL0     C 5997  10.739   6.771   8.768 -0.9320 -0.1183 -0.7983
  786MOL0     C 5998  10.673   6.774   8.632  0.0090 -1.0595 -1.7288
  786MOL0     O 5999  10.564   6.671   8.644  0.2156 -0.5091  0.2061
  786MOL0     C 6000  10.476   6.668   8.537 -0.2302 -0.9315  0.6950
  786MOL0     C 6001  10.397   6.561   8.546 -0.6532  0.4064  0.8491
  786MOL0     C 6002  10.306   6.523   8.439 -0.0234  0.6290 -0.0327
  786MOL0     C 6003  10.326   6.588   8.316  0.1009  0.4006  0.1959
  786MOL0     C 6004  10.256   6.540   8.193 -0.3269  0.1836  0.4963
  786MOL0     O 6005  10.279   6.607   8.073 -0.3555  0.7088 -0.1736
  786MOL0     C 6006  10.236   6.554   7.948  1.0315 -0.9425  0.1830
  786MOL0     C 6007  10.112   6.481   7.915 -0.0136 -0.2635 -0.5171
  786MOL0     C 6008  10.083   6.443   7.784 -0.9545  0.9907  0.8641
  786MOL0     C 6009  10.160   6.485   7.681 -0.3279 -0.1321  0.3599
  786MOL0     O 6010  10.132   6.437   7.550 -0.5029 -0.8455  0.0180
  786MOL0     C 6011  10.252   6.381   7.491 -0.9107 -0.2956 -0.4521
  786MOL0     C 6012  10.217   6.251   7.422  0.4693  0.5380 -0.3412
  786MOL0     C 6013  10.322   6.213   7.320 -0.0959  0.7041  0.8857
  786MOL0     C 6014  10.340   6.060   7.294 -0.2927 -0.5024  0.1134
  786MOL0     C 6015  10.438   6.015   7.194  0.1992 -0.0077 -1.3976
  786MOL0     C 6016  10.411   6.069   7.055 -0.5694 -0.2645  0.0334
  786MOL0     C 6017  10.276   6.011   6.989  0.8761  0.0643  0.1284
  786MOL0     C 6018  10.252   5.859   6.991 -0.7753 -1.1614 -0.3273
  786MOL0    Cl 6019  10.185   5.794   7.146 -0.0191  0.4391 -0.3221
  786MOL0     C 6020  10.273   6.551   7.710 -0.6564 -0.7831 -0.3614
  786MOL0     C 6021  10.311   6.597   7.840  0.6152  0.4753  0.5824
  786MOL0     O 6022  10.173   6.449   8.209 -0.2911 -0.7681  0.0907
  786MOL0     C 6023  10.413   6.694   8.306  0.4287 -0.0812 -0.0042
  786MOL0     C 6024  10.486   6.736   8.416 -0.1211  0.1146  0.6383
  786MOL0     N 6025  10.696   6.785   9.249 -0.3808 -0.7245  0.0942
  786MOL0     N 6026  10.618   6.817   9.345  0.2957 -0.1936  0.7601
  786MOL0     C 6027  10.127   7.929   9.668  1.3056  0.1268  0.0334
  786MOL0     C 6028  10.162   8.061   9.701 -0.1485 -0.5482 -1.1976
  786MOL0     C 6029  10.422   8.392   9.851 -0.0416 -0.1706  0.5551
  786MOL0     C 6030  10.355   8.440   9.971 -0.0209 -0.2893 -0.4978
  786MOL0     C 6031  10.377   8.566  10.042  0.9252  0.1934 -0.7705
  786MOL0     C 6032  10.484   8.644  10.001 -0.5738 -0.6368  1.5360
  786MOL0     O 6033  10.531   8.758  10.065 -0.5969 -0.4449  0.2551
  786MOL0     C 6034  10.468   8.790  10.192 -0.2988  0.0351  1.3192
  786MOL0     C 6035  10.516   8.703  10.301 -0.6848 -0.8566  0.0861
  786MOL0     C 6036  10.575   8.808  10.414 -0.5313  1.1271 -0.0835
  786MOL0     C 6037  10.621   8.736  10.530  0.4044 -0.3448 -0.5217
  786MOL0     C 6038  10.756   8.677  10.511  0.2448 -0.5832  0.3770
  786MOL0     C 6039  10.868   8.626  10.513  0.4499  1.0998 -0.3719
  786MOL0     C 6040  10.549   8.603   9.884 -0.1267 -0.7537 -0.6832
  786MOL0     C 6041  10.524   8.489   9.809  0.4942  0.5654  0.1947
  786MOL0     C 6042  10.606   8.464   9.687 -0.4401 -0.4459  0.6529
  786MOL0     H 6043  10.361   7.986   9.967  1.0469  1.4756 -0.9373
  786MOL0     H 6044  10.265   7.755   9.922 -0.3640  1.4623  1.1267
  786MOL0     H 6045  10.207   7.708   9.536 -0.5242 -2.1070 -1.6237
  786MOL0     H 6046  10.276   7.596   9.652 -0.7115 -2.2197 -2.2799
  786MOL0     H 6047  10.015   7.560   9.526  0.3536 -0.2159 -0.5514
  786MOL0     H 6048  10.058   7.479   9.677 -1.1822 -0.0648 -0.8064
  786MOL0     H 6049  10.246   7.466   9.450 -0.4487  0.7773  0.0884
  786MOL0     H 6050  10.099   7.366   9.439  1.2000 -0.1376 -1.1949
  786MOL0     H 6051  10.330   7.362   9.629  0.6278  0.2520 -0.2177
  786MOL0     H 6052  10.176   7.275   9.676 -2.7410  0.0647 -1.9420
  786MOL0     H 6053  10.336   7.112   9.598  0.4580 -1.0137 -0.1453
  786MOL0     H 6054  10.203   7.131   9.478  2.1740 -1.2899 -1.3230
  786MOL0     H 6055  10.327   7.251   9.340 -0.1905 -2.7470 -0.4513
  786MOL0     H 6056  10.446   7.301   9.460  0.0167 -0.6446 -0.6185
  786MOL0     H 6057  10.561   7.101   9.452 -1.0086  0.4289 -0.0910
  786MOL0     H 6058  10.523   7.147   9.286  0.3098  3.3053  0.8123
  786MOL0     H 6059  10.420   6.927   9.463  1.1193 -0.4024 -1.2606
  786MOL0     H 6060  10.324   6.974   9.324 -1.3974 -2.4368  2.1709
  786MOL0     H 6061  10.484   6.951   9.068  0.9999  1.4275 -0.7353
  786MOL0     H 6062  10.785   6.901   8.997  2.5245 -1.3240 -0.4788
  786MOL0     H 6063  10.787   6.725   9.019 -1.1597  0.0016  4.7304
  786MOL0     H 6064  10.576   6.717   8.888  0.9523 -0.0102  2.6995
  786MOL0     H 6065  10.580   6.894   8.851 -1.7786 -0.7300 -1.7420
  786MOL0     H 6066  10.798   6.679   8.775  0.9743  1.0009 -1.5601
  786MOL0     H 6067  10.811   6.853   8.767  1.2687 -1.7766  2.7876
  786MOL0     H 6068  10.737   6.744   8.548 -1.7508  0.0900 -3.5758
  786MOL0     H 6069  10.635   6.875   8.614  1.4720 -0.3506 -1.0173
  786MOL0     H 6070  10.392   6.512   8.643 -3.5846 -0.8002  0.1772
  786MOL0     H 6071  10.237   6.441   8.458  1.7026 -1.8738 -3.5226
  786MOL0     H 6072  10.043   6.453   7.994 -0.0610  2.4879  0.5224
  786MOL0     H 6073   9.999   6.377   7.764  0.2594 -0.1328 -0.7606
  786MOL0     H 6074  10.304   6.449   7.422  0.5104 -0.1615  0.6922
  786MOL0     H 6075  10.312   6.341   7.573 -2.3958  1.2475  1.4902
  786MOL0     H 6076  10.218   6.178   7.504  1.0506 -0.3925 -1.1567
  786MOL0     H 6077  10.122   6.270   7.371 -1.0127  1.2296  2.4878
  786MOL0     H 6078  10.297   6.272   7.231  1.5400  0.2701  0.0953
  786MOL0     H 6079  10.421   6.257   7.333  0.5034  1.2778 -3.8402
  786MOL0     H 6080  10.241   6.022   7.268 -0.2173 -0.6419  0.0324
  786MOL0     H 6081  10.375   6.019   7.389  1.4880  1.4058  0.3576
  786MOL0     H 6082  10.441   5.906   7.199 -0.5208  0.0165  0.7855
  786MOL0     H 6083  10.534   6.055   7.226 -1.0744  1.2700  1.1355
  786MOL0     H 6084  10.412   6.178   7.046 -0.0061 -0.1383  1.4597
  786MOL0     H 6085  10.497   6.035   6.997 -0.7872 -2.1564  0.7431
  786MOL0     H 6086  10.265   6.041   6.885 -1.5104  0.8170  0.5469
  786MOL0     H 6087  10.195   6.054   7.048  1.1443  0.7930 -0.0264
  786MOL0     H 6088  10.183   5.829   6.912 -1.4056 -3.5822  1.0383
  786MOL0     H 6089  10.346   5.804   6.982 -1.2892 -2.0664 -0.2730
  786MOL0     H 6090  10.343   6.593   7.638 -1.2847 -0.6815 -0.9160
  786MOL0     H 6091  10.408   6.644   7.852  0.7439 -0.3837  4.6847
  786MOL0     H 6092  10.424   6.746   8.212 -0.3083 -2.4636 -1.4875
  786MOL0     H 6093  10.552   6.819   8.394 -1.4151  1.8670  2.9133
  786MOL0     H 6094  10.065   7.913   9.580  1.4647 -2.8595  0.3846
  786MOL0     H 6095  10.126   8.145   9.642  0.1025  0.7720  0.4211
  786MOL0     H 6096  10.294   8.366  10.021  1.8920 -0.4645  1.7383
  786MOL0     H 6097  10.324   8.574  10.136  0.2777 -2.1199 -0.8599
  786MOL0     H 6098  10.360   8.777  10.189 -0.8010  3.3823  0.0147
  786MOL0     H 6099  10.474   8.896  10.220 -2.3117  0.0552  1.8354
  786MOL0     H 6100  10.594   8.639  10.261 -0.3563 -0.5484  0.2258
  786MOL0     H 6101  10.433   8.652  10.351  1.5451 -2.4427  2.3819
  786MOL0     H 6102  10.491   8.867  10.451 -3.2282 -3.4400  1.9181
  786MOL0     H 6103  10.654   8.866  10.364  3.4391 -2.8766  0.9545
  786MOL0     H 6104  10.617   8.815  10.606 -1.3502 -0.5899 -0.3102
  786MOL0     H 6105  10.545   8.663  10.560 -1.0320  0.7039 -1.4730
  786MOL0     H 6106  10.963   8.579  10.494  0.4124  1.0054 -0.3276
  786MOL0     H 6107  10.622   8.670   9.839  2.8098 -2.5344  1.1142
  786MOL0     H 6108  10.663   8.551   9.654 -2.7252 -0.0106 -2.6310
  786MOL0     H 6109  10.667   8.374   9.698 -0.2149 -0.9990 -3.6163
  786MOL0     H 6110  10.549   8.439   9.597  0.4665 -1.5407  0.3652
  787MOL0     O 6111   8.542  11.387   6.233  0.4099  0.3480 -0.6695
  787MOL0     C 6112   8.441  11.321   6.233  0.1252 -1.1703  0.4596
  787MOL0     O 6113   8.415  11.218   6.149  0.1832  0.5383  0.2570
  787MOL0     C 6114   8.489  11.190   6.035 -0.3092 -0.2059 -0.7891
  787MOL0     C 6115   8.595  11.102   6.061 -1.5778 -1.2032 -0.9082
  787MOL0     C 6116   8.683  11.071   5.961 -0.3638 -0.2110 -0.1305
  787MOL0     C 6117   8.682  11.135   5.833 -0.2930  0.7488  0.7100
  787MOL0     O 6118   8.777  11.100   5.737  0.2354 -0.0992 -0.7283
  787MOL0     C 6119   8.883  11.204   5.727  0.0583  0.2091  0.5804
  787MOL0     C 6120   8.981  11.174   5.617  0.0969 -0.5176 -0.4627
  787MOL0     C 6121   9.055  11.038   5.621 -0.2059  1.0325 -0.0942
  787MOL0     C 6122   9.136  11.007   5.752 -0.0784  0.6024  1.0153
  787MOL0     C 6123   9.256  11.109   5.750  0.5059  0.4865 -0.0188
  787MOL0     C 6124   9.357  11.081   5.860  0.0217 -0.0994  0.1710
  787MOL0     C 6125   9.353  11.193   5.964  0.0381  0.1515 -1.3590
  787MOL0     C 6126   9.474  11.186   6.061  0.0229  0.0845 -0.0766
  787MOL0     N 6127   9.483  11.062   6.148 -0.8858 -0.3024 -0.3173
  787MOL0     C 6128   9.587  10.971   6.159  0.9962 -0.3902 -0.3610
  787MOL0     C 6129   9.557  10.899   6.270  0.4289  0.9429 -0.0345
  787MOL0     C 6130   9.651  10.802   6.338 -0.8762 -0.2891  0.7193
  787MOL0     C 6131   9.684  10.847   6.480  0.5639  0.5562 -0.3729
  787MOL0     C 6132   9.778  10.956   6.488 -0.4349 -0.6402 -0.9073
  787MOL0     C 6133   9.710  11.091   6.516  0.2586 -0.2880 -0.4557
  787MOL0     O 6134   9.805  11.195   6.550 -0.0503 -0.5417 -0.1129
  787MOL0     C 6135   9.811  11.316   6.483  0.2610  0.7156  0.3338
  787MOL0     C 6136   9.712  11.416   6.474  1.9509 -0.6145 -0.6454
  787MOL0     C 6137   9.729  11.540   6.408 -0.1610 -0.1131  0.2275
  787MOL0     C 6138   9.853  11.561   6.341  0.6258  0.4697  0.0327
  787MOL0     C 6139   9.885  11.694   6.278  0.3818  0.5693 -0.2842
  787MOL0     O 6140   9.830  11.806   6.329  0.2365  0.0374  0.1694
  787MOL0     C 6141   9.839  11.925   6.263 -0.0244  0.0004 -0.7498
  787MOL0     C 6142   9.828  11.939   6.122 -0.1423  0.8935  0.1701
  787MOL0     C 6143   9.802  12.065   6.066 -0.1898  0.1715 -0.5847
  787MOL0     C 6144   9.800  12.184   6.139  0.8121 -0.6931  0.5030
  787MOL0     O 6145   9.749  12.297   6.078  0.2267  0.1921  0.6031
  787MOL0     C 6146   9.780  12.432   6.110  0.6795 -0.5956 -0.3499
  787MOL0     C 6147   9.929  12.472   6.125 -0.7360  0.4911  0.7839
  787MOL0     C 6148   9.947  12.602   6.209  0.4326 -0.4000  0.8217
  787MOL0     C 6149  10.092  12.618   6.251  0.2275 -0.8481  0.2880
  787MOL0     C 6150  10.154  12.757   6.242  0.7906  0.9083  0.0069
  787MOL0     C 6151  10.062  12.870   6.286 -0.7206  0.5587 -0.3859
  787MOL0     C 6152  10.126  12.993   6.344 -1.0270  0.9626 -1.0405
  787MOL0     C 6153  10.015  13.088   6.385  0.4376  0.6017  0.2527
  787MOL0    Cl 6154  10.096  13.236   6.430  0.0999 -0.2458  0.0256
  787MOL0     C 6155   9.821  12.176   6.274 -0.2127 -0.1778  0.1840
  787MOL0     C 6156   9.829  12.043   6.336  0.6869  0.0269  0.0560
  787MOL0     O 6157   9.965  11.693   6.191 -1.2533 -0.1205 -0.0847
  787MOL0     C 6158   9.950  11.461   6.342 -0.0850 -0.0157 -0.5076
  787MOL0     C 6159   9.930  11.342   6.414 -0.0160 -1.0452 -1.2568
  787MOL0     N 6160   9.437  10.948   6.323  0.2695 -0.3174  0.0010
  787MOL0     N 6161   9.390  11.047   6.248 -0.3003  0.1393 -0.3655
  787MOL0     C 6162   8.592  11.235   5.811  0.3115 -0.5019 -1.0439
  787MOL0     C 6163   8.484  11.266   5.913 -0.0662  0.3691  0.2276
  787MOL0     C 6164   8.338  11.368   6.334  0.5979 -0.5857 -0.5843
  787MOL0     C 6165   8.328  11.500   6.382 -0.0676 -0.7089 -0.7483
  787MOL0     C 6166   8.215  11.546   6.441  0.7035 -0.3863 -0.1682
  787MOL0     C 6167   8.107  11.466   6.461 -0.3085 -0.8230  0.1508
  787MOL0     O 6168   7.984  11.516   6.498  0.3893 -1.0462  0.0953
  787MOL0     C 6169   7.908  11.556   6.377  0.8753 -0.3590 -0.0180
  787MOL0     C 6170   7.800  11.660   6.423  0.2645  0.1043  0.3830
  787MOL0     C 6171   7.865  11.794   6.477 -0.0973  0.3066  1.0638
  787MOL0     C 6172   7.948  11.875   6.377  0.5630  0.1221 -0.5740
  787MOL0     C 6173   8.017  11.978   6.460  0.5420 -0.1661 -0.3057
  787MOL0     C 6174   8.065  12.060   6.538 -0.2836 -1.1836 -0.5071
  787MOL0     C 6175   8.117  11.323   6.430  0.0305 -0.0562  0.0433
  787MOL0     C 6176   8.234  11.279   6.378  0.6352  0.6411 -0.3542
  787MOL0     C 6177   8.231  11.133   6.364  0.1040  0.6237  0.3698
  787MOL0     H 6178   8.607  11.063   6.162  0.8605  2.2113  0.3087
  787MOL0     H 6179   8.768  11.008   5.984  2.6223  2.4724 -2.7174
  787MOL0     H 6180   8.833  11.298   5.705 -1.8396 -1.1851 -1.4313
  787MOL0     H 6181   8.938  11.222   5.820  1.8559 -0.6810 -0.2613
  787MOL0     H 6182   9.049  11.259   5.615 -3.8398  3.1076  2.3826
  787MOL0     H 6183   8.928  11.186   5.522 -0.1436  2.3480 -0.0584
  787MOL0     H 6184   9.115  11.018   5.532  3.2689 -1.0520  2.4428
  787MOL0     H 6185   8.974  10.966   5.621  0.1940  0.4123  3.4126
  787MOL0     H 6186   9.072  11.009   5.841 -1.8928  0.1280 -0.2469
  787MOL0     H 6187   9.183  10.908   5.759 -1.3330  0.0834  3.0482
  787MOL0     H 6188   9.312  11.114   5.656  0.4296  1.3200 -0.0250
  787MOL0     H 6189   9.211  11.207   5.766 -0.8260  0.0293 -0.7682
  787MOL0     H 6190   9.326  10.988   5.908 -1.8759  0.6939  0.5828
  787MOL0     H 6191   9.453  11.073   5.808 -1.3870  0.7220 -2.7993
  787MOL0     H 6192   9.259  11.198   6.020  1.5187  1.4067  1.1802
  787MOL0     H 6193   9.373  11.279   5.900  0.1344  1.2406  0.0979
  787MOL0     H 6194   9.564  11.193   6.000  0.5266  2.2227  0.8120
  787MOL0     H 6195   9.480  11.281   6.114 -3.1279  0.7769 -0.7532
  787MOL0     H 6196   9.680  10.959   6.104 -0.1615  1.1034 -2.8200
  787MOL0     H 6197   9.622  10.697   6.327  1.6599 -0.8774 -1.5188
  787MOL0     H 6198   9.749  10.802   6.288 -0.6214 -0.2598  1.2052
  787MOL0     H 6199   9.590  10.876   6.528 -0.3312  0.2663 -1.8899
  787MOL0     H 6200   9.722  10.764   6.541 -0.9503  0.6420  0.7575
  787MOL0     H 6201   9.841  10.961   6.399  0.1475 -0.9764 -0.5198
  787MOL0     H 6202   9.846  10.932   6.570 -0.9822 -0.3235 -0.3425
  787MOL0     H 6203   9.641  11.083   6.601 -0.0634  0.1245 -0.6705
  787MOL0     H 6204   9.650  11.116   6.428 -2.6688  0.1363  1.4992
  787MOL0     H 6205   9.617  11.398   6.525  1.1083  1.4861 -1.3825
  787MOL0     H 6206   9.654  11.619   6.409  1.4701  1.5198 -0.6803
  787MOL0     H 6207   9.826  11.845   6.068  1.7748  0.3959  0.8595
  787MOL0     H 6208   9.775  12.072   5.961 -1.0993  3.1143 -0.2476
  787MOL0     H 6209   9.739  12.495   6.030  1.2871 -1.6460 -1.5258
  787MOL0     H 6210   9.724  12.461   6.199  0.0500  5.1597 -2.2634
  787MOL0     H 6211   9.992  12.392   6.165 -0.8385  0.1746  0.3168
  787MOL0     H 6212   9.969  12.491   6.025  3.7412  0.9508  2.4192
  787MOL0     H 6213   9.917  12.680   6.138  0.9308 -0.9003  0.0430
  787MOL0     H 6214   9.882  12.612   6.296  1.7424  2.4989  1.5961
  787MOL0     H 6215  10.151  12.555   6.183 -0.4333  1.8484 -3.0698
  787MOL0     H 6216  10.092  12.583   6.355  0.3159  0.6107  0.7971
  787MOL0     H 6217  10.169  12.770   6.135 -1.4738 -1.3022 -0.6868
  787MOL0     H 6218  10.242  12.761   6.307 -0.1726 -1.3160  1.5643
  787MOL0     H 6219  10.006  12.900   6.197  0.2299 -2.1959 -2.0530
  787MOL0     H 6220  10.002  12.825   6.365  2.0316 -0.2959  1.3426
  787MOL0     H 6221  10.195  13.035   6.270  1.6586 -2.5596 -0.8305
  787MOL0     H 6222  10.171  12.976   6.442  0.6682  4.9299 -0.9415
  787MOL0     H 6223   9.962  13.117   6.294  4.6195  1.7924 -2.0920
  787MOL0     H 6224   9.940  13.054   6.456 -0.6664 -1.3750 -1.7488
  787MOL0     H 6225   9.811  12.263   6.339  1.3854 -2.5748  4.0060
  787MOL0     H 6226   9.828  12.048   6.445 -1.6099  0.7389  0.0585
  787MOL0     H 6227  10.044  11.481   6.293 -0.6819  0.9493 -1.2852
  787MOL0     H 6228  10.003  11.261   6.416  1.7444  0.4698 -0.1583
  787MOL0     H 6229   8.602  11.291   5.718 -0.1040  2.8524  0.7785
  787MOL0     H 6230   8.402  11.338   5.913  0.9606  1.5610 -0.1597
  787MOL0     H 6231   8.401  11.578   6.358 -0.4950  1.0210  2.8376
  787MOL0     H 6232   8.193  11.652   6.446 -0.5955 -0.6709  0.5495
  787MOL0     H 6233   7.860  11.479   6.317  0.7829 -0.4234  0.1382
  787MOL0     H 6234   7.973  11.598   6.300 -1.0373  2.1798 -0.3635
  787MOL0     H 6235   7.742  11.616   6.504  1.8363 -3.0153 -0.0254
  787MOL0     H 6236   7.724  11.679   6.346 -2.1725 -1.3547  2.2919
  787MOL0     H 6237   7.931  11.760   6.557 -0.8455  1.2410  2.1110
  787MOL0     H 6238   7.790  11.859   6.524 -1.6034 -1.2546  0.9504
  787MOL0     H 6239   8.022  11.825   6.314  0.9694  3.9512 -3.5407
  787MOL0     H 6240   7.879  11.921   6.306  0.4645 -0.4386 -0.8385
  787MOL0     H 6241   8.119  12.134   6.594  1.3370 -1.9486 -0.9840
  787MOL0     H 6242   8.026  11.268   6.454  0.8839 -1.6300 -0.1740
  787MOL0     H 6243   8.317  11.075   6.397 -0.2876 -1.6228 -2.1460
  787MOL0     H 6244   8.139  11.090   6.405  0.1422 -0.8347 -0.9811
  787MOL0     H 6245   8.220  11.115   6.257 -0.0876  1.8981  0.1561
  788MOL0     O 6246   6.612   6.643   8.052 -0.1998  0.1627  0.4052
  788MOL0     C 6247   6.535   6.657   7.951 -0.6621 -0.2379  0.3232
  788MOL0     O 6248   6.480   6.769   7.911  0.2734  0.0673 -0.3382
  788MOL0     C 6249   6.541   6.885   7.966  0.4383  0.7518 -0.1793
  788MOL0     C 6250   6.532   6.921   8.104 -0.8803 -0.0801 -0.3134
  788MOL0     C 6251   6.586   7.041   8.137  0.3376 -0.2808 -0.1723
  788MOL0     C 6252   6.653   7.127   8.042  0.8514 -0.9353 -0.1444
  788MOL0     O 6253   6.715   7.243   8.079 -0.5468 -0.2887 -0.4503
  788MOL0     C 6254   6.705   7.285   8.218  0.4150  0.7160 -1.4264
  788MOL0     C 6255   6.805   7.396   8.251  0.5416 -0.6780 -0.4915
  788MOL0     C 6256   6.754   7.536   8.222 -0.6465  0.2361  0.2006
  788MOL0     C 6257   6.706   7.540   8.087  0.4369  0.8364  0.4092
  788MOL0     C 6258   6.676   7.674   8.022 -1.7233  0.3518  0.6140
  788MOL0     C 6259   6.545   7.728   8.065  0.8704  0.2997 -0.6813
  788MOL0     C 6260   6.514   7.854   7.978 -0.1831 -0.1411 -0.1256
  788MOL0     C 6261   6.618   7.958   8.002  0.0785 -0.1101  0.8802
  788MOL0     N 6262   6.574   8.090   7.933  0.1656  1.7296  0.0813
  788MOL0     C 6263   6.489   8.187   7.981  0.6280  0.2566  0.0959
  788MOL0     C 6264   6.487   8.286   7.890 -0.8285 -0.5491  0.3417
  788MOL0     C 6265   6.401   8.404   7.877  0.0400 -0.2555 -0.4798
  788MOL0     C 6266   6.292   8.393   7.779  1.5716  0.0882  0.5978
  788MOL0     C 6267   6.178   8.291   7.822 -0.1358 -0.1891  0.1463
  788MOL0     C 6268   6.081   8.339   7.929  0.0380 -0.2768  0.4048
  788MOL0     O 6269   5.974   8.245   7.937 -0.0915 -0.0248 -0.3268
  788MOL0     C 6270   5.885   8.232   7.833 -0.3041  0.0839 -0.0953
  788MOL0     C 6271   5.876   8.318   7.716  0.2269 -0.4083 -0.9235
  788MOL0     C 6272   5.773   8.293   7.627  0.7545  0.0475  0.7474
  788MOL0     C 6273   5.685   8.185   7.632  0.4524  0.9108  0.5387
  788MOL0     C 6274   5.599   8.158   7.517 -0.1183 -1.1916  0.0873
  788MOL0     O 6275   5.606   8.247   7.420 -0.1442  0.3456  0.3177
  788MOL0     C 6276   5.541   8.216   7.302 -1.1310 -1.2017  0.6303
  788MOL0     C 6277   5.533   8.094   7.239  1.0113  0.2194 -0.0843
  788MOL0     C 6278   5.481   8.080   7.109 -0.0809  0.2752 -0.9123
  788MOL0     C 6279   5.446   8.183   7.036  0.4696  0.2832  0.4254
  788MOL0     O 6280   5.388   8.163   6.919 -0.4209  0.5148  0.0585
  788MOL0     C 6281   5.469   8.209   6.818 -0.4604 -0.5525  1.1126
  788MOL0     C 6282   5.395   8.157   6.691 -0.1907  0.0708 -0.3565
  788MOL0     C 6283   5.464   8.191   6.558  0.4702 -0.5990  0.1570
  788MOL0     C 6284   5.391   8.103   6.447 -0.4427 -1.1795 -0.5046
  788MOL0     C 6285   5.427   8.161   6.306  0.3027 -0.4015 -0.4437
  788MOL0     C 6286   5.364   8.086   6.195  0.5584 -0.8630 -0.2382
  788MOL0     C 6287   5.441   7.974   6.145 -0.4704 -0.3977  0.5009
  788MOL0     C 6288   5.353   7.914   6.031  0.5027 -0.6764 -0.1733
  788MOL0    Cl 6289   5.326   8.034   5.898 -0.3525  0.1249 -0.0662
  788MOL0     C 6290   5.453   8.313   7.091 -0.1139  0.1797  0.7393
  788MOL0     C 6291   5.503   8.329   7.222  0.1618 -0.5635  0.5735
  788MOL0     O 6292   5.537   8.058   7.528  0.5197  0.4410 -0.0910
  788MOL0     C 6293   5.696   8.108   7.748 -0.4355 -0.2209 -0.5088
  788MOL0     C 6294   5.781   8.142   7.848  0.0998  0.5174 -0.6603
  788MOL0     N 6295   6.582   8.259   7.796  0.3707  0.0811  0.3041
  788MOL0     N 6296   6.628   8.140   7.817  0.7184  0.1660  0.0700
  788MOL0     C 6297   6.663   7.081   7.908 -0.3355  1.0768  0.5818
  788MOL0     C 6298   6.595   6.964   7.873 -0.4680  0.2236  0.5429
  788MOL0     C 6299   6.511   6.535   7.862  0.3258 -0.4142  0.8567
  788MOL0     C 6300   6.404   6.552   7.768  0.0271  0.6401  0.6642
  788MOL0     C 6301   6.387   6.440   7.676 -0.3468 -0.8202 -0.4207
  788MOL0     C 6302   6.461   6.323   7.674 -0.5772  1.2404  0.8137
  788MOL0     O 6303   6.439   6.220   7.580  0.4314  0.2797 -0.3451
  788MOL0     C 6304   6.515   6.098   7.576  0.1477  0.9083 -0.3021
  788MOL0     C 6305   6.468   6.000   7.470 -0.3146  0.5332  0.0715
  788MOL0     C 6306   6.461   6.058   7.332  1.0953 -0.5299 -0.4051
  788MOL0     C 6307   6.598   6.092   7.271  0.5246  0.1031  0.2670
  788MOL0     C 6308   6.586   6.110   7.126 -0.3271 -0.3291  1.6049
  788MOL0     C 6309   6.601   6.123   7.006  0.2498  0.2433  0.3234
  788MOL0     C 6310   6.552   6.303   7.777  0.1967  0.4679 -0.2824
  788MOL0     C 6311   6.578   6.403   7.873  1.3470  0.7220  0.8803
  788MOL0     C 6312   6.684   6.381   7.976  0.6375  0.1142  0.2814
  788MOL0     H 6313   6.490   6.851   8.174 -1.1070 -0.2915 -0.6592
  788MOL0     H 6314   6.594   7.071   8.241 -2.4743 -1.1251  0.3622
  788MOL0     H 6315   6.603   7.323   8.235 -1.5999 -3.9407 -1.6560
  788MOL0     H 6316   6.733   7.205   8.287  3.1002  2.9840  0.3097
  788MOL0     H 6317   6.898   7.373   8.198 -0.4869 -1.0795 -2.1977
  788MOL0     H 6318   6.817   7.390   8.360 -2.5336  0.9242  0.0448
  788MOL0     H 6319   6.837   7.605   8.238 -1.3259  1.5655 -1.6990
  788MOL0     H 6320   6.669   7.568   8.282 -0.7116  0.4343  0.0040
  788MOL0     H 6321   6.782   7.492   8.024 -2.9085 -2.5626 -1.4219
  788MOL0     H 6322   6.620   7.476   8.067  0.5010 -0.0503  2.6676
  788MOL0     H 6323   6.757   7.745   8.039  0.6049 -1.5436 -1.7658
  788MOL0     H 6324   6.675   7.646   7.916 -2.2284  1.5515  0.2827
  788MOL0     H 6325   6.457   7.664   8.054  0.7452  0.0128  1.5424
  788MOL0     H 6326   6.542   7.757   8.170 -1.4488  0.5474 -0.7539
  788MOL0     H 6327   6.410   7.885   7.994 -0.5374  0.1080 -2.6148
  788MOL0     H 6328   6.515   7.832   7.871 -1.5908  1.8316 -0.5971
  788MOL0     H 6329   6.637   7.995   8.103 -2.2804  0.2825  1.2397
  788MOL0     H 6330   6.713   7.917   7.966 -3.1925 -6.2793 -2.3887
  788MOL0     H 6331   6.427   8.195   8.070 -1.5214  0.3765 -1.3213
  788MOL0     H 6332   6.363   8.421   7.978 -0.6268 -1.8184 -0.4389
  788MOL0     H 6333   6.455   8.495   7.850 -1.9700  0.4242 -2.5463
  788MOL0     H 6334   6.243   8.490   7.765 -1.6828 -1.4269  0.4488
  788MOL0     H 6335   6.309   8.368   7.674 -1.4123 -0.2497  0.1153
  788MOL0     H 6336   6.237   8.207   7.859 -0.3331 -0.5377 -0.3228
  788MOL0     H 6337   6.122   8.265   7.731  2.0409 -1.4767 -0.8987
  788MOL0     H 6338   6.029   8.432   7.903  1.0558  0.8277  2.1778
  788MOL0     H 6339   6.132   8.364   8.022  0.8467  2.3481 -0.6361
  788MOL0     H 6340   5.941   8.403   7.697  1.2178 -1.7450 -4.3780
  788MOL0     H 6341   5.764   8.354   7.537  2.5192 -0.0353  0.4766
  788MOL0     H 6342   5.577   8.016   7.300 -0.1380  0.5095  1.1720
  788MOL0     H 6343   5.479   7.981   7.066 -0.0119  0.0319 -0.3581
  788MOL0     H 6344   5.494   8.316   6.814  0.6961 -0.8404 -1.5143
  788MOL0     H 6345   5.556   8.143   6.816 -1.9666 -2.7186 -2.0850
  788MOL0     H 6346   5.393   8.047   6.697  1.0155  0.0941  1.4669
  788MOL0     H 6347   5.296   8.200   6.708  0.8901  1.8270  2.0470
  788MOL0     H 6348   5.462   8.293   6.519  3.3037 -1.2010 -1.9063
  788MOL0     H 6349   5.568   8.156   6.564 -0.0515 -2.1286  0.9771
  788MOL0     H 6350   5.282   8.113   6.451 -0.3981  0.0342  5.0105
  788MOL0     H 6351   5.422   7.999   6.465  5.4371  0.1917 -0.7063
  788MOL0     H 6352   5.534   8.183   6.296 -0.0734  1.5062 -0.6623
  788MOL0     H 6353   5.383   8.261   6.307  1.3914  0.1031  0.6554
  788MOL0     H 6354   5.258   8.065   6.213  0.3618 -1.2145 -1.6475
  788MOL0     H 6355   5.365   8.165   6.120  1.4690  0.5035  1.1570
  788MOL0     H 6356   5.455   7.891   6.215 -0.0625  0.2229  1.1618
  788MOL0     H 6357   5.533   8.013   6.101 -2.6350  2.8477 -1.5570
  788MOL0     H 6358   5.399   7.820   6.000  1.0388 -0.3056 -0.5224
  788MOL0     H 6359   5.255   7.880   6.067  1.7406 -1.2494  3.0487
  788MOL0     H 6360   5.422   8.398   7.031  0.4223 -1.0007 -1.3143
  788MOL0     H 6361   5.527   8.431   7.248  0.0878 -0.1854 -0.7726
  788MOL0     H 6362   5.617   8.033   7.759  0.0379 -0.4402  2.0899
  788MOL0     H 6363   5.769   8.079   7.935  1.1798  0.4336 -0.5570
  788MOL0     H 6364   6.727   7.134   7.838  2.8063 -0.3865  2.1490
  788MOL0     H 6365   6.588   6.948   7.766 -2.1354  0.6912  0.5591
  788MOL0     H 6366   6.347   6.644   7.767 -0.4188  0.3832  1.5067
  788MOL0     H 6367   6.307   6.461   7.605 -0.0102  0.1812 -0.5337
  788MOL0     H 6368   6.503   6.047   7.672  3.4058  0.1402 -0.2000
  788MOL0     H 6369   6.623   6.110   7.570 -0.0452  3.5929  0.6554
  788MOL0     H 6370   6.371   5.956   7.497  0.1563 -0.6460 -0.0831
  788MOL0     H 6371   6.538   5.916   7.464 -2.0315 -0.9888  0.3658
  788MOL0     H 6372   6.395   6.145   7.336 -1.2794 -2.2367  1.2100
  788MOL0     H 6373   6.406   5.984   7.272 -0.9191 -1.4143  2.3344
  788MOL0     H 6374   6.634   6.185   7.316  1.0564  0.1825 -0.3110
  788MOL0     H 6375   6.668   6.014   7.303  0.8513  1.3839  2.9388
  788MOL0     H 6376   6.597   6.134   6.900  0.4628 -1.2114  0.1394
  788MOL0     H 6377   6.605   6.211   7.797  0.9603  0.7348 -0.9791
  788MOL0     H 6378   6.720   6.277   7.979  0.2522 -0.0990  5.6615
  788MOL0     H 6379   6.765   6.454   7.973 -2.0456  3.4458  2.5870
  788MOL0     H 6380   6.636   6.394   8.073  1.1440 -0.1601  0.5751
  789MOL0     O 6381   0.901   5.645   7.230  0.0112 -0.0304 -0.6112
  789MOL0     C 6382   0.792   5.642   7.293 -0.1461  0.2731  0.3583
  789MOL0     O 6383   0.696   5.545   7.270  0.1563 -0.0877 -0.3861
  789MOL0     C 6384   0.693   5.460   7.169  0.2108  0.1530  0.4889
  789MOL0     C 6385   0.645   5.337   7.195  0.5574 -0.1159  0.1861
  789MOL0     C 6386   0.652   5.237   7.099  0.1971  0.4104 -0.2086
  789MOL0     C 6387   0.726   5.257   6.983  0.4168  0.0308 -0.3536
  789MOL0     O 6388   0.760   5.167   6.893 -1.0408 -0.5507  0.6752
  789MOL0     C 6389   0.662   5.116   6.801 -0.2651 -0.3759 -0.1388
  789MOL0     C 6390   0.581   4.992   6.845 -0.4857  1.2495  0.0307
  789MOL0     C 6391   0.480   4.939   6.735 -0.0393  0.1899 -0.2585
  789MOL0     C 6392   0.412   4.815   6.786  0.0670 -0.9284 -0.9953
  789MOL0     C 6393   0.330   4.773   6.670 -0.0730  0.6092 -0.3501
  789MOL0     C 6394   0.287   4.624   6.691  0.1120 -0.2968  0.2954
  789MOL0     C 6395   0.203   4.567   6.576  0.2237  0.2709  0.4935
  789MOL0     C 6396   0.135   4.437   6.621  0.0594 -0.3634 -0.0201
  789MOL0     N 6397   0.038   4.385   6.522  0.2001  0.0411 -0.4651
  789MOL0     C 6398  -0.061   4.442   6.459  0.0017 -0.0148 -0.4078
  789MOL0     C 6399  -0.126   4.343   6.391  1.1402  0.3094  0.1696
  789MOL0     C 6400  -0.258   4.375   6.319 -0.2564  0.2298 -0.5279
  789MOL0     C 6401  -0.264   4.339   6.161 -0.6125  0.0613  0.0086
  789MOL0     C 6402  -0.137   4.391   6.096 -0.4441 -0.6581 -0.4452
  789MOL0     C 6403  -0.162   4.375   5.954  0.1228  1.0419 -0.0585
  789MOL0     O 6404  -0.064   4.425   5.863  1.0056 -0.6363  0.5070
  789MOL0     C 6405  -0.103   4.429   5.732 -0.0885  0.4820  0.7211
  789MOL0     C 6406  -0.024   4.502   5.641 -0.4746 -0.4014 -0.0337
  789MOL0     C 6407  -0.062   4.515   5.506 -0.2676  0.3589 -0.0084
  789MOL0     C 6408  -0.168   4.449   5.453 -1.6741  0.4265  0.0611
  789MOL0     C 6409  -0.193   4.472   5.310 -0.0107  0.7055 -0.0947
  789MOL0     O 6410  -0.318   4.494   5.280  0.2772  0.7536  0.0968
  789MOL0     C 6411  -0.337   4.510   5.143  0.7475 -0.9285 -0.8496
  789MOL0     C 6412  -0.359   4.642   5.098 -0.0313  0.4469 -0.3413
  789MOL0     C 6413  -0.354   4.669   4.961  0.2409 -0.0849 -0.5492
  789MOL0     C 6414  -0.362   4.548   4.881  0.0710 -0.1335 -0.7588
  789MOL0     O 6415  -0.375   4.557   4.746  0.1515  0.2106  0.5065
  789MOL0     C 6416  -0.510   4.596   4.716 -0.6273  0.7591 -0.0128
  789MOL0     C 6417  -0.534   4.562   4.570  0.6648 -0.1263 -0.3075
  789MOL0     C 6418  -0.517   4.417   4.553 -0.2073  0.1347  0.7399
  789MOL0     C 6419  -0.527   4.396   4.407 -0.3700 -0.3832  0.2290
  789MOL0     C 6420  -0.572   4.260   4.378 -0.5113  0.8339  0.3786
  789MOL0     C 6421  -0.483   4.142   4.430  0.0367  0.0494 -0.0565
  789MOL0     C 6422  -0.532   4.006   4.389  0.4333 -0.6859  1.0730
  789MOL0     C 6423  -0.439   3.905   4.457  0.0886  0.5114 -0.9640
  789MOL0    Cl 6424  -0.464   3.739   4.396  0.2043  0.0153  0.4209
  789MOL0     C 6425  -0.355   4.416   4.922 -0.9447 -0.0242  0.2416
  789MOL0     C 6426  -0.353   4.394   5.060  0.2770  0.0996 -0.9277
  789MOL0     O 6427  -0.101   4.462   5.231  0.0711 -0.2344 -0.5179
  789MOL0     C 6428  -0.243   4.372   5.536 -0.8897 -0.4981 -0.8389
  789MOL0     C 6429  -0.210   4.362   5.675  0.5853  0.5349 -0.0271
  789MOL0     N 6430  -0.062   4.225   6.416  1.2269  0.3694  0.2156
  789MOL0     N 6431   0.037   4.249   6.496  0.8778  0.0232 -0.1774
  789MOL0     C 6432   0.774   5.386   6.952 -0.8557 -0.5896  0.1518
  789MOL0     C 6433   0.747   5.492   7.042  0.0166  0.3296 -0.0676
  789MOL0     C 6434   0.758   5.714   7.408 -0.6098 -0.6377 -0.3271
  789MOL0     C 6435   0.652   5.665   7.491  0.9677  0.0338 -0.1885
  789MOL0     C 6436   0.619   5.745   7.602 -0.5421  0.9061  0.1364
  789MOL0     C 6437   0.691   5.856   7.651 -0.0333 -0.3948  0.1131
  789MOL0     O 6438   0.667   5.944   7.752 -0.9238 -0.3367 -0.2863
  789MOL0     C 6439   0.573   5.917   7.851  0.6780  1.0158  0.0308
  789MOL0     C 6440   0.570   6.025   7.952 -0.3849  0.5695 -1.3543
  789MOL0     C 6441   0.438   6.011   8.048  0.4912  1.3403  0.4813
  789MOL0     C 6442   0.456   6.081   8.182 -0.3635  0.3785 -0.0805
  789MOL0     C 6443   0.441   6.220   8.141 -0.2716 -0.8209  0.1685
  789MOL0     C 6444   0.425   6.339   8.131 -0.5988  0.4240 -0.5890
  789MOL0     C 6445   0.804   5.893   7.581 -0.7795  0.3141 -0.5912
  789MOL0     C 6446   0.837   5.829   7.458  0.4834  0.0138 -0.1890
  789MOL0     C 6447   0.970   5.864   7.389  0.0187  0.1893 -0.4240
  789MOL0     H 6448   0.613   5.315   7.297  1.5978  0.7194  0.7066
  789MOL0     H 6449   0.598   5.150   7.137 -0.9067  1.9061  1.8765
  789MOL0     H 6450   0.603   5.195   6.754  3.0936  2.2548 -0.3363
  789MOL0     H 6451   0.723   5.085   6.716  0.2533 -0.6109  0.3126
  789MOL0     H 6452   0.519   5.012   6.932 -3.5911 -1.4205 -1.3230
  789MOL0     H 6453   0.650   4.909   6.864 -0.9093  0.2348 -2.4426
  789MOL0     H 6454   0.548   4.919   6.651  2.7930  1.0854  1.6644
  789MOL0     H 6455   0.411   5.014   6.695  0.4162  0.3001 -0.8546
  789MOL0     H 6456   0.481   4.738   6.820  1.9613  1.0023 -0.2249
  789MOL0     H 6457   0.358   4.836   6.879  0.5023 -0.5816 -0.8142
  789MOL0     H 6458   0.244   4.838   6.653 -1.8386 -1.8425 -1.2775
  789MOL0     H 6459   0.380   4.768   6.573  0.0557 -1.3804 -0.2239
  789MOL0     H 6460   0.373   4.557   6.695  2.1378  2.1081 -0.3245
  789MOL0     H 6461   0.239   4.626   6.789  2.4815  4.7664  1.7024
  789MOL0     H 6462   0.264   4.540   6.489 -0.1945  0.5483  0.1101
  789MOL0     H 6463   0.139   4.646   6.537  3.2438  3.7169  1.9617
  789MOL0     H 6464   0.219   4.368   6.612  0.6833  0.5463 -1.5039
  789MOL0     H 6465   0.092   4.444   6.721 -2.2357 -0.6914 -0.9085
  789MOL0     H 6466  -0.088   4.546   6.470  4.0951  1.3028 -1.2925
  789MOL0     H 6467  -0.340   4.320   6.366 -1.9932  0.8526 -2.6768
  789MOL0     H 6468  -0.293   4.478   6.325 -1.0647 -0.1146  1.6164
  789MOL0     H 6469  -0.282   4.233   6.142 -1.9065  0.5997 -2.0760
  789MOL0     H 6470  -0.353   4.382   6.115  1.0510  2.3536 -1.2639
  789MOL0     H 6471  -0.042   4.340   6.115 -0.2708 -0.3198 -0.3897
  789MOL0     H 6472  -0.117   4.494   6.128  2.0420 -0.9134 -0.9335
  789MOL0     H 6473  -0.246   4.439   5.924  1.0313  2.4417  0.2814
  789MOL0     H 6474  -0.182   4.270   5.933  0.3232  1.4195 -2.5541
  789MOL0     H 6475   0.058   4.560   5.685 -0.4440  0.4036 -1.1058
  789MOL0     H 6476  -0.009   4.588   5.445 -3.1471  1.4145 -1.4669
  789MOL0     H 6477  -0.354   4.732   5.159 -1.2639 -0.1880  0.7667
  789MOL0     H 6478  -0.359   4.769   4.919 -1.3848  0.4880  0.8990
  789MOL0     H 6479  -0.591   4.550   4.772  0.1089  0.4529  0.8287
  789MOL0     H 6480  -0.514   4.705   4.721 -2.1119  0.6750  1.1938
  789MOL0     H 6481  -0.641   4.583   4.557  0.2382  0.9512  3.5283
  789MOL0     H 6482  -0.467   4.619   4.506  1.3715 -1.1412 -0.4959
  789MOL0     H 6483  -0.426   4.367   4.586  1.6596  2.5286 -0.5275
  789MOL0     H 6484  -0.599   4.367   4.606 -0.3362 -6.4362 -4.3859
  789MOL0     H 6485  -0.431   4.417   4.359  0.2990 -1.2460  1.1631
  789MOL0     H 6486  -0.606   4.463   4.371  2.1651  2.4913 -0.4350
  789MOL0     H 6487  -0.576   4.260   4.269  0.3801  2.0272  0.3240
  789MOL0     H 6488  -0.669   4.249   4.428  1.0911  2.8565  4.4069
  789MOL0     H 6489  -0.383   4.165   4.393 -0.2286  3.2222  0.8882
  789MOL0     H 6490  -0.472   4.143   4.539  0.5850  0.0715 -0.1104
  789MOL0     H 6491  -0.533   3.995   4.280 -1.4874  1.2254  0.8454
  789MOL0     H 6492  -0.640   4.002   4.406  0.3032  1.9241  1.2994
  789MOL0     H 6493  -0.332   3.928   4.451  1.1062 -3.3961 -0.4392
  789MOL0     H 6494  -0.460   3.900   4.565 -0.2532 -0.8573 -1.0792
  789MOL0     H 6495  -0.372   4.335   4.851  2.9135 -0.5849 -0.2700
  789MOL0     H 6496  -0.361   4.289   5.088 -2.2881  0.8074  1.4320
  789MOL0     H 6497  -0.303   4.292   5.495 -0.7977 -1.0594  0.0994
  789MOL0     H 6498  -0.279   4.310   5.741 -1.0129 -2.2267 -3.5452
  789MOL0     H 6499   0.824   5.414   6.860 -2.4042 -0.0694 -0.5729
  789MOL0     H 6500   0.780   5.591   7.013 -2.6382  1.1994 -0.4520
  789MOL0     H 6501   0.596   5.574   7.470 -0.6855  0.6317  1.3656
  789MOL0     H 6502   0.531   5.719   7.659 -0.2155  0.2160  0.3383
  789MOL0     H 6503   0.574   5.820   7.902 -4.9465  0.6598  0.0388
  789MOL0     H 6504   0.471   5.925   7.813  1.2485 -0.6602 -2.0328
  789MOL0     H 6505   0.588   6.126   7.915  2.3557  0.4831 -0.4290
  789MOL0     H 6506   0.655   6.011   8.018 -0.9121 -2.0889 -1.1227
  789MOL0     H 6507   0.429   5.906   8.077 -0.3429  1.5524  0.9926
  789MOL0     H 6508   0.348   6.051   8.001 -2.8898 -2.3758  3.1519
  789MOL0     H 6509   0.387   6.063   8.265  0.4376  2.0243  0.9987
  789MOL0     H 6510   0.558   6.064   8.219 -0.3072  1.3364  0.2446
  789MOL0     H 6511   0.420   6.446   8.119 -0.7226  0.1105 -4.7008
  789MOL0     H 6512   0.869   5.973   7.616  2.5989 -1.8219 -1.4985
  789MOL0     H 6513   1.036   5.777   7.385  2.0661  1.6803 -2.9241
  789MOL0     H 6514   0.956   5.903   7.287 -0.7044 -1.7925 -1.1301
  789MOL0     H 6515   1.009   5.947   7.448  1.5641  0.4206 -1.6925
  790MOL0     O 6516   5.015   2.509   5.921 -0.5503  0.8015  0.0210
  790MOL0     C 6517   5.075   2.524   6.022 -0.2173 -0.8112  0.4415
  790MOL0     O 6518   5.131   2.423   6.105 -0.0242 -0.1607  0.1128
  790MOL0     C 6519   5.133   2.294   6.055  0.3088 -0.2114 -0.3700
  790MOL0     C 6520   5.197   2.205   6.137 -0.9179 -0.4797 -0.6661
  790MOL0     C 6521   5.193   2.063   6.124  1.5135  0.4791 -0.1461
  790MOL0     C 6522   5.111   2.007   6.022 -0.4710 -1.1160 -0.2426
  790MOL0     O 6523   5.085   1.870   6.009 -0.1843 -0.1363  0.4584
  790MOL0     C 6524   5.096   1.786   6.122 -0.5567 -0.1821 -0.7078
  790MOL0     C 6525   5.050   1.658   6.076  1.3476  0.5249  1.3541
  790MOL0     C 6526   5.151   1.574   6.003 -1.6660 -1.0699 -0.0683
  790MOL0     C 6527   5.137   1.582   5.848 -0.1766 -0.1940 -0.2685
  790MOL0     C 6528   5.023   1.501   5.803 -0.1314  0.2696  0.2142
  790MOL0     C 6529   5.018   1.449   5.647 -0.2428 -0.4299 -0.2647
  790MOL0     C 6530   5.121   1.335   5.605  0.2680 -0.7738 -0.7270
  790MOL0     C 6531   5.160   1.361   5.454  0.4918 -1.1199 -0.1440
  790MOL0     N 6532   5.248   1.261   5.392 -0.5567  0.6042  0.6003
  790MOL0     C 6533   5.379   1.226   5.428 -0.4421  0.3620 -0.4061
  790MOL0     C 6534   5.404   1.103   5.376 -0.1507  0.4257 -1.2238
  790MOL0     C 6535   5.528   1.025   5.379 -0.2424 -0.3352  0.8402
  790MOL0     C 6536   5.595   1.036   5.246 -0.7841  1.4019  0.8934
  790MOL0     C 6537   5.513   0.950   5.147 -0.2850 -0.1403  0.8555
  790MOL0     C 6538   5.459   0.811   5.169  0.9184 -0.2335  0.2863
  790MOL0     O 6539   5.580   0.732   5.171 -0.4118  0.0517  0.5496
  790MOL0     C 6540   5.608   0.661   5.282  0.5297  0.6890  1.1601
  790MOL0     C 6541   5.513   0.570   5.329 -0.6540  0.0586 -0.2035
  790MOL0     C 6542   5.532   0.500   5.456 -0.1515 -0.4102 -0.3712
  790MOL0     C 6543   5.642   0.526   5.531 -0.2929  0.9564 -0.0247
  790MOL0     C 6544   5.668   0.453   5.658 -0.7920 -0.1290  0.0329
  790MOL0     O 6545   5.800   0.454   5.710  0.0873  0.2712  0.3179
  790MOL0     C 6546   5.843   0.383   5.826  0.0573 -0.0586  0.5867
  790MOL0     C 6547   5.772   0.372   5.948 -0.7147 -0.0587  1.1705
  790MOL0     C 6548   5.836   0.328   6.063 -0.2725 -0.1158 -0.5683
  790MOL0     C 6549   5.961   0.277   6.053  0.9146  0.9746  0.4293
  790MOL0     O 6550   6.030   0.220   6.153 -0.7680  0.3367 -0.1331
  790MOL0     C 6551   5.959   0.178   6.275  0.9437  0.6778  0.3934
  790MOL0     C 6552   6.059   0.087   6.346 -0.2634 -1.2302 -0.1533
  790MOL0     C 6553   6.004  -0.008   6.447 -0.0482 -0.7361  0.7519
  790MOL0     C 6554   6.109  -0.093   6.517  0.6323  0.4578  0.6159
  790MOL0     C 6555   6.039  -0.175   6.632  0.3985 -0.6441  0.5577
  790MOL0     C 6556   6.137  -0.269   6.708  0.4365 -0.3394  0.0721
  790MOL0     C 6557   6.081  -0.367   6.801  0.6770 -0.5260 -0.0856
  790MOL0     C 6558   6.183  -0.471   6.862  0.1822 -1.2485 -0.7951
  790MOL0    Cl 6559   6.314  -0.384   6.953 -0.0734  0.5568 -0.2884
  790MOL0     C 6560   6.038   0.292   5.934 -0.3659  0.0697 -0.5170
  790MOL0     C 6561   5.979   0.347   5.814 -0.6373  1.4223 -0.8611
  790MOL0     O 6562   5.569   0.421   5.727  0.1026  0.8508 -0.4327
  790MOL0     C 6563   5.732   0.622   5.479 -0.2279 -1.4335  0.9649
  790MOL0     C 6564   5.718   0.687   5.357  0.2361  0.9719  0.6442
  790MOL0     N 6565   5.283   1.062   5.326  0.2789  0.2921  0.2982
  790MOL0     N 6566   5.196   1.151   5.325  0.4467  0.0275 -0.0915
  790MOL0     C 6567   5.056   2.097   5.932  0.3062  0.2983  0.2606
  790MOL0     C 6568   5.055   2.235   5.953  0.1399  0.1963 -0.1481
  790MOL0     C 6569   5.111   2.665   6.054 -0.3167  0.1106 -0.6282
  790MOL0     C 6570   5.009   2.751   6.079 -0.1803  0.0111  0.0332
  790MOL0     C 6571   5.030   2.886   6.088 -0.8939 -0.0033  0.1113
  790MOL0     C 6572   5.163   2.942   6.100 -0.7782 -0.9436 -0.5392
  790MOL0     O 6573   5.179   3.077   6.120  0.3744 -0.3894 -1.3200
  790MOL0     C 6574   5.107   3.154   6.219 -0.5088  0.6294  0.4575
  790MOL0     C 6575   5.200   3.164   6.342  0.1324 -0.6805 -0.3415
  790MOL0     C 6576   5.121   3.249   6.440  0.1191 -0.3994 -1.2709
  790MOL0     C 6577   4.991   3.195   6.501 -0.3490  0.4260 -0.0281
  790MOL0     C 6578   5.033   3.092   6.598 -0.5931 -0.6496  0.7053
  790MOL0     C 6579   5.079   3.004   6.667  0.5541  0.2973 -0.8501
  790MOL0     C 6580   5.271   2.853   6.093 -0.6444  0.0735  0.1188
  790MOL0     C 6581   5.244   2.715   6.073 -0.2387  0.2201 -0.0870
  790MOL0     C 6582   5.367   2.622   6.066  0.2213  0.0913  0.1416
  790MOL0     H 6583   5.257   2.238   6.220 -0.6824  1.8302 -1.6840
  790MOL0     H 6584   5.232   2.001   6.204 -0.6771 -0.1381  0.5343
  790MOL0     H 6585   5.198   1.789   6.162 -0.4196  0.8124 -1.1123
  790MOL0     H 6586   5.033   1.811   6.208  1.7061  0.4807  0.8789
  790MOL0     H 6587   4.957   1.653   6.019  0.6548 -2.4014  2.5450
  790MOL0     H 6588   5.023   1.605   6.168  0.9098 -1.5601  0.0932
  790MOL0     H 6589   5.147   1.468   6.030 -1.1950 -1.5853 -1.8575
  790MOL0     H 6590   5.254   1.610   6.017 -1.8729 -0.4375 -0.1477
  790MOL0     H 6591   5.121   1.685   5.816  0.9359  0.0427 -0.0878
  790MOL0     H 6592   5.231   1.539   5.812 -0.6469 -3.1284  1.6081
  790MOL0     H 6593   5.014   1.407   5.858  0.7834 -2.3148 -3.6135
  790MOL0     H 6594   4.935   1.566   5.796 -0.4860 -0.3377 -5.3664
  790MOL0     H 6595   4.919   1.413   5.619  0.2155 -1.2288 -0.9083
  790MOL0     H 6596   5.042   1.532   5.580  4.8367 -2.1403 -1.0888
  790MOL0     H 6597   5.072   1.239   5.622  0.7763 -0.6927  1.3941
  790MOL0     H 6598   5.209   1.329   5.668 -0.5358  2.2234  0.8882
  790MOL0     H 6599   5.078   1.381   5.384  1.1145 -3.6585 -1.7038
  790MOL0     H 6600   5.232   1.444   5.451  0.9987 -1.5754 -1.0351
  790MOL0     H 6601   5.461   1.288   5.462  1.4798 -0.9944 -2.3394
  790MOL0     H 6602   5.584   1.079   5.456 -2.8902  1.9939  1.3252
  790MOL0     H 6603   5.516   0.919   5.404  3.4125 -2.0432 -3.2921
  790MOL0     H 6604   5.602   1.134   5.199  0.9538  0.5856 -0.7047
  790MOL0     H 6605   5.695   0.994   5.256 -0.6063  1.9392  1.3578
  790MOL0     H 6606   5.571   0.943   5.055  0.7849  0.7442  1.4383
  790MOL0     H 6607   5.434   1.020   5.122  0.2673  0.2770  0.2469
  790MOL0     H 6608   5.394   0.781   5.086  0.0142  0.5467  0.6925
  790MOL0     H 6609   5.408   0.807   5.266  0.4430  0.1675  0.0584
  790MOL0     H 6610   5.415   0.563   5.284 -1.4352 -1.3665  1.6036
  790MOL0     H 6611   5.450   0.440   5.493 -1.9753  1.9142 -0.4054
  790MOL0     H 6612   5.667   0.400   5.953 -0.5904  2.1365 -3.4493
  790MOL0     H 6613   5.778   0.316   6.154  1.4477 -1.0590  0.4691
  790MOL0     H 6614   5.913   0.246   6.347 -3.1262 -1.4208  0.0700
  790MOL0     H 6615   5.872   0.126   6.232  2.8487  0.7933 -4.1600
  790MOL0     H 6616   6.121   0.042   6.267  1.0148  1.5382 -0.8436
  790MOL0     H 6617   6.119   0.154   6.408 -0.6047 -4.4381  4.0212
  790MOL0     H 6618   5.945   0.047   6.521  0.0371  3.6536 -2.0577
  790MOL0     H 6619   5.943  -0.077   6.389 -2.9877  0.3601  2.3428
  790MOL0     H 6620   6.183  -0.025   6.561 -1.1058  1.6135  1.8802
  790MOL0     H 6621   6.161  -0.168   6.458 -0.7867 -1.9715  2.2943
  790MOL0     H 6622   5.958  -0.228   6.580  0.5713  0.9223 -1.4207
  790MOL0     H 6623   5.990  -0.113   6.707 -2.1147 -1.1897 -0.5004
  790MOL0     H 6624   6.195  -0.333   6.640 -1.1858 -1.8057  0.0019
  790MOL0     H 6625   6.201  -0.210   6.773  1.0685 -1.8312  0.8650
  790MOL0     H 6626   5.991  -0.416   6.763  0.0568 -1.8898  2.8448
  790MOL0     H 6627   6.042  -0.313   6.888 -0.2753 -2.5878  0.8098
  790MOL0     H 6628   6.136  -0.535   6.936 -1.0503  1.3974  0.8656
  790MOL0     H 6629   6.221  -0.535   6.782 -2.4276 -3.4082 -0.4428
  790MOL0     H 6630   6.144   0.272   5.929 -0.5805 -1.4798  0.4301
  790MOL0     H 6631   6.034   0.363   5.722  0.3407  0.3220 -0.4907
  790MOL0     H 6632   5.824   0.637   5.535  0.3070 -0.0135 -0.2272
  790MOL0     H 6633   5.793   0.758   5.324  0.9944  1.0384  2.3865
  790MOL0     H 6634   5.007   2.050   5.848 -2.7385 -0.2629  2.1668
  790MOL0     H 6635   5.004   2.288   5.873 -0.5207  1.5697  1.1302
  790MOL0     H 6636   4.913   2.702   6.083 -0.8323  1.0472 -1.6305
  790MOL0     H 6637   4.943   2.949   6.076 -1.4463 -0.5131  1.2048
  790MOL0     H 6638   5.011   3.104   6.233 -2.2283  4.0522  2.2179
  790MOL0     H 6639   5.088   3.256   6.183  1.1403  0.5815 -0.6644
  790MOL0     H 6640   5.292   3.216   6.315 -0.2740  1.2290  1.6778
  790MOL0     H 6641   5.239   3.075   6.392  4.3427  1.8431  1.4193
  790MOL0     H 6642   5.094   3.342   6.389 -1.1954 -0.0876 -0.0857
  790MOL0     H 6643   5.188   3.275   6.522 -0.0954 -1.5218 -0.7166
  790MOL0     H 6644   4.947   3.277   6.558 -0.1667  0.1664  0.4947
  790MOL0     H 6645   4.917   3.164   6.428  0.6002 -1.0583 -0.4093
  790MOL0     H 6646   5.117   2.929   6.734 -0.8033  1.2787  1.1149
  790MOL0     H 6647   5.376   2.879   6.104 -0.4766 -0.7083  0.4417
  790MOL0     H 6648   5.459   2.680   6.076  0.8067 -0.8469  0.3220
  790MOL0     H 6649   5.372   2.566   6.160  1.0900  0.4257  0.3062
  790MOL0     H 6650   5.365   2.556   5.979 -1.1216  0.2915  0.0021
  791MOL0     O 6651   6.481   0.560   7.570 -0.0369  0.3453  0.0515
  791MOL0     C 6652   6.539   0.545   7.467  0.0732  0.5364 -0.0075
  791MOL0     O 6653   6.501   0.477   7.358 -0.0733 -0.3930 -0.7363
  791MOL0     C 6654   6.371   0.447   7.353  0.3695 -0.4487  0.7219
  791MOL0     C 6655   6.353   0.309   7.381 -0.0473 -0.1650 -0.6506
  791MOL0     C 6656   6.226   0.258   7.371  1.2211 -0.0474 -0.9371
  791MOL0     C 6657   6.115   0.343   7.355 -0.4148 -0.0969 -0.6201
  791MOL0     O 6658   5.990   0.291   7.382 -0.0141 -0.1318 -1.2440
  791MOL0     C 6659   5.871   0.370   7.401  0.1864  0.7977  0.1379
  791MOL0     C 6660   5.818   0.401   7.267  0.5039  0.0336  0.4847
  791MOL0     C 6661   5.692   0.497   7.262  0.2556  0.4375  0.6565
  791MOL0     C 6662   5.707   0.627   7.338  0.4956 -0.6118 -1.0746
  791MOL0     C 6663   5.586   0.716   7.320  0.4144  0.2006 -0.3661
  791MOL0     C 6664   5.609   0.849   7.370 -0.8829 -0.1228 -0.2627
  791MOL0     C 6665   5.487   0.935   7.371  0.4990 -0.5782  0.0177
  791MOL0     C 6666   5.386   0.905   7.478 -0.3612  0.0662 -0.7685
  791MOL0     N 6667   5.437   0.936   7.612  0.0045 -0.1236  0.6662
  791MOL0     C 6668   5.436   1.064   7.661  0.3935  0.2199  0.1205
  791MOL0     C 6669   5.502   1.060   7.783  0.3295 -0.0663  0.5673
  791MOL0     C 6670   5.495   1.165   7.893  0.9404  0.4706  0.6431
  791MOL0     C 6671   5.566   1.288   7.846  0.6355 -0.0158 -0.0094
  791MOL0     C 6672   5.627   1.380   7.957 -1.7226 -0.3481  0.1378
  791MOL0     C 6673   5.535   1.470   8.048  0.1493  1.0841 -0.5389
  791MOL0     O 6674   5.491   1.580   7.964  0.1733 -0.0789  0.0475
  791MOL0     C 6675   5.573   1.692   7.955 -1.1903 -0.9862 -1.0594
  791MOL0     C 6676   5.716   1.698   7.990  0.7463 -0.8850 -0.0198
  791MOL0     C 6677   5.798   1.807   7.947 -0.5988 -0.2190 -0.2028
  791MOL0     C 6678   5.740   1.914   7.878  0.2590 -0.5455  0.1414
  791MOL0     C 6679   5.827   2.009   7.802  1.3568  0.2803 -0.5275
  791MOL0     O 6680   5.953   1.975   7.794  0.0535  0.0668 -0.6028
  791MOL0     C 6681   6.044   2.052   7.721  0.6632 -0.3536  0.2352
  791MOL0     C 6682   6.011   2.112   7.598 -0.5140 -0.1633 -0.4901
  791MOL0     C 6683   6.105   2.203   7.542 -0.4759 -0.4325  0.2395
  791MOL0     C 6684   6.236   2.231   7.600  0.2079 -0.5202 -0.5144
  791MOL0     O 6685   6.318   2.327   7.528 -0.2432  0.4216 -0.8893
  791MOL0     C 6686   6.420   2.382   7.611 -0.9806  0.0826 -0.3141
  791MOL0     C 6687   6.488   2.504   7.546 -0.1354 -0.3509 -0.1538
  791MOL0     C 6688   6.402   2.623   7.532  0.3595 -0.2604 -0.2199
  791MOL0     C 6689   6.470   2.753   7.516 -0.0930 -0.4232 -0.7265
  791MOL0     C 6690   6.398   2.867   7.455  0.0597  0.4441  0.8695
  791MOL0     C 6691   6.275   2.906   7.519  1.8896  0.4509 -0.7719
  791MOL0     C 6692   6.212   3.033   7.462 -0.0645  0.0404  1.1788
  791MOL0     C 6693   6.182   3.046   7.311  0.9948  0.8628  0.0654
  791MOL0    Cl 6694   6.066   2.898   7.292  0.3790  0.3147 -0.0070
  791MOL0     C 6695   6.267   2.146   7.713  0.5138  0.2462  0.4229
  791MOL0     C 6696   6.173   2.067   7.769 -0.4585  0.3315  0.9722
  791MOL0     O 6697   5.773   2.109   7.747 -0.3840  1.0082  0.0846
  791MOL0     C 6698   5.605   1.928   7.872  0.1976  0.9923 -0.6073
  791MOL0     C 6699   5.525   1.819   7.909 -0.2245  0.2952 -0.1419
  791MOL0     N 6700   5.561   0.937   7.792  0.0181  0.4816  0.4538
  791MOL0     N 6701   5.521   0.859   7.693 -0.6425 -0.1697 -0.2035
  791MOL0     C 6702   6.142   0.487   7.347  0.5982 -0.5702  0.3926
  791MOL0     C 6703   6.268   0.535   7.335 -0.0907  0.0094  0.3375
  791MOL0     C 6704   6.683   0.591   7.466 -1.0152  0.6594 -0.3503
  791MOL0     C 6705   6.710   0.696   7.547  0.1982 -0.1787 -0.9109
  791MOL0     C 6706   6.835   0.749   7.555  0.3302  0.6935 -0.5464
  791MOL0     C 6707   6.940   0.698   7.477 -0.3240 -0.0110 -0.7936
  791MOL0     O 6708   7.068   0.743   7.465  0.4201 -0.0066  0.0525
  791MOL0     C 6709   7.107   0.853   7.554  0.3791 -0.7708 -0.0030
  791MOL0     C 6710   7.255   0.887   7.529  0.0992  0.2111  0.4967
  791MOL0     C 6711   7.294   0.880   7.377  0.5475 -0.3239 -0.6480
  791MOL0     C 6712   7.434   0.951   7.357  0.3009  0.5718 -0.5112
  791MOL0     C 6713   7.462   0.997   7.216  0.1733  0.1139 -0.3627
  791MOL0     C 6714   7.513   0.993   7.110 -0.2390 -0.7343 -0.7531
  791MOL0     C 6715   6.922   0.586   7.399 -0.3661  0.1992  1.0668
  791MOL0     C 6716   6.793   0.523   7.392  0.1714 -0.5663 -0.9302
  791MOL0     C 6717   6.776   0.407   7.301  0.3982 -0.6241 -0.1583
  791MOL0     H 6718   6.442   0.253   7.409 -0.4527 -0.5367 -0.0908
  791MOL0     H 6719   6.204   0.156   7.401 -3.5000  1.0474  0.2265
  791MOL0     H 6720   5.786   0.321   7.451  0.7707 -0.8129 -0.4123
  791MOL0     H 6721   5.880   0.458   7.465 -2.5517  0.8506  0.6000
  791MOL0     H 6722   5.785   0.310   7.218  0.7570  0.9441 -1.4740
  791MOL0     H 6723   5.900   0.443   7.208 -0.2681 -0.7651 -1.2189
  791MOL0     H 6724   5.598   0.443   7.279  1.2335 -1.3302  0.7041
  791MOL0     H 6725   5.674   0.526   7.158 -1.1105 -0.7463  0.5235
  791MOL0     H 6726   5.728   0.606   7.443 -0.3990 -1.4641 -1.0506
  791MOL0     H 6727   5.799   0.679   7.309  0.7910 -0.9577 -0.7798
  791MOL0     H 6728   5.554   0.715   7.216  0.7275 -2.4082 -0.5140
  791MOL0     H 6729   5.497   0.673   7.367  0.4973  0.9483  0.5140
  791MOL0     H 6730   5.651   0.841   7.471 -0.4873 -0.6920 -0.4742
  791MOL0     H 6731   5.683   0.895   7.304  1.3143  1.5265  3.0408
  791MOL0     H 6732   5.428   0.917   7.281 -0.0568 -2.9329  0.7842
  791MOL0     H 6733   5.507   1.042   7.366 -1.8106 -0.1660 -2.0315
  791MOL0     H 6734   5.299   0.967   7.455 -1.0971  0.0845  1.7118
  791MOL0     H 6735   5.353   0.801   7.471  0.0490  0.0568 -3.2810
  791MOL0     H 6736   5.374   1.150   7.637  0.3138  1.1595  3.2686
  791MOL0     H 6737   5.393   1.195   7.916  0.1580  0.7829 -2.7136
  791MOL0     H 6738   5.541   1.106   7.973  0.2411 -0.6909  0.2080
  791MOL0     H 6739   5.658   1.259   7.795  1.6512  2.0322  0.5626
  791MOL0     H 6740   5.495   1.337   7.779  0.5761 -1.9930 -1.5037
  791MOL0     H 6741   5.703   1.440   7.906 -3.5713 -1.0164 -3.7165
  791MOL0     H 6742   5.679   1.311   8.024 -1.0122 -0.9057 -0.9560
  791MOL0     H 6743   5.576   1.500   8.144 -1.2041 -0.0943  0.4555
  791MOL0     H 6744   5.456   1.403   8.085  1.3157  1.2909  2.6010
  791MOL0     H 6745   5.776   1.611   8.014 -0.2861 -1.3325  1.0293
  791MOL0     H 6746   5.905   1.788   7.956 -0.7638 -1.4818 -0.7527
  791MOL0     H 6747   5.909   2.106   7.564 -0.4344 -2.6456 -0.4209
  791MOL0     H 6748   6.065   2.253   7.454 -2.8666 -1.5746  0.6037
  791MOL0     H 6749   6.387   2.398   7.714 -1.6685 -0.9521 -0.3623
  791MOL0     H 6750   6.487   2.301   7.642 -2.2527 -0.0631  2.3858
  791MOL0     H 6751   6.577   2.530   7.604 -1.0498 -2.0004  2.1461
  791MOL0     H 6752   6.525   2.471   7.448  1.2947  1.6447 -0.3506
  791MOL0     H 6753   6.324   2.604   7.458 -0.6740 -1.8352  1.1987
  791MOL0     H 6754   6.349   2.638   7.627  1.3628 -2.9219  0.8402
  791MOL0     H 6755   6.559   2.730   7.457  0.5790  2.2314 -0.8931
  791MOL0     H 6756   6.498   2.780   7.618 -2.6365  0.7372 -0.2495
  791MOL0     H 6757   6.369   2.845   7.351 -1.3707  4.3066  0.2974
  791MOL0     H 6758   6.464   2.954   7.455  1.0619 -0.2960  1.1517
  791MOL0     H 6759   6.203   2.824   7.520  0.9511  1.2385  1.2443
  791MOL0     H 6760   6.302   2.923   7.624  3.0939  1.9980 -1.2995
  791MOL0     H 6761   6.289   3.109   7.478  0.1941 -0.3340  1.7410
  791MOL0     H 6762   6.125   3.067   7.520 -2.0052 -2.8352  0.1355
  791MOL0     H 6763   6.140   3.145   7.287  1.3511  1.1643  0.6588
  791MOL0     H 6764   6.270   3.020   7.253  1.3781 -2.3193  1.8678
  791MOL0     H 6765   6.368   2.165   7.748  0.3840  3.2684 -0.4773
  791MOL0     H 6766   6.187   1.997   7.851  1.3180 -1.8991 -1.0949
  791MOL0     H 6767   5.566   2.016   7.822 -3.3275 -0.1017 -0.0424
  791MOL0     H 6768   5.422   1.818   7.875  0.3465  0.6969 -2.0339
  791MOL0     H 6769   6.052   0.547   7.331 -0.2309 -1.4879  1.4144
  791MOL0     H 6770   6.294   0.639   7.323  2.6695 -0.6861 -0.4349
  791MOL0     H 6771   6.628   0.733   7.609 -0.2953  1.1685 -2.3020
  791MOL0     H 6772   6.848   0.823   7.634  0.7070  0.4321 -0.3580
  791MOL0     H 6773   7.083   0.824   7.657  1.1860 -3.1310 -0.4155
  791MOL0     H 6774   7.046   0.939   7.525  1.6493  0.2790  0.3213
  791MOL0     H 6775   7.310   0.816   7.593  2.1820  0.3345 -1.0544
  791MOL0     H 6776   7.286   0.985   7.567  1.2128  0.7399 -1.5982
  791MOL0     H 6777   7.205   0.910   7.321 -1.8234 -3.5804  1.0606
  791MOL0     H 6778   7.308   0.778   7.341 -0.9133 -1.0161  0.6501
  791MOL0     H 6779   7.439   1.035   7.427  0.7208 -0.6927  1.0277
  791MOL0     H 6780   7.516   0.884   7.386  2.0767  0.6455 -4.6805
  791MOL0     H 6781   7.565   0.993   7.016  2.0581 -2.1818  0.4313
  791MOL0     H 6782   6.997   0.539   7.336 -0.1899  3.2496 -1.2153
  791MOL0     H 6783   6.871   0.387   7.252  1.9057  2.3644  1.2739
  791MOL0     H 6784   6.733   0.321   7.353 -1.5537 -1.8406 -3.4327
  791MOL0     H 6785   6.709   0.434   7.218  1.4312 -0.7591 -1.0551
  792MOL0     O 6786   7.339   7.322   3.744  0.2836  0.2816 -0.5150
  792MOL0     C 6787   7.399   7.411   3.810  0.3354  0.6759  0.5012
  792MOL0     O 6788   7.339   7.522   3.855  0.4125 -0.4158 -0.1295
  792MOL0     C 6789   7.227   7.567   3.788 -0.1882  0.2209 -1.1572
  792MOL0     C 6790   7.102   7.540   3.844 -0.3010  0.2047  0.9248
  792MOL0     C 6791   6.984   7.593   3.785 -0.5934  0.5137 -0.1442
  792MOL0     C 6792   6.988   7.665   3.666 -0.3926 -0.0025  0.9683
  792MOL0     O 6793   6.879   7.707   3.609  0.0557  0.0609 -0.5993
  792MOL0     C 6794   6.886   7.843   3.553  0.7572 -0.2228  0.4738
  792MOL0     C 6795   6.748   7.904   3.591 -0.2638  0.6772 -0.1171
  792MOL0     C 6796   6.735   8.054   3.544  0.2727  0.2365  0.8715
  792MOL0     C 6797   6.592   8.089   3.556 -0.0104 -0.5674 -0.2223
  792MOL0     C 6798   6.573   8.223   3.486  0.5791  0.0540  0.4640
  792MOL0     C 6799   6.421   8.267   3.483  0.2951 -0.5044 -0.2171
  792MOL0     C 6800   6.328   8.175   3.396 -0.0138 -0.0635  0.0373
  792MOL0     C 6801   6.376   8.143   3.258  0.6300  0.5934 -0.3501
  792MOL0     N 6802   6.282   8.048   3.196  0.0067 -0.0551  0.1147
  792MOL0     C 6803   6.309   7.918   3.154 -0.1953  0.0759  0.1731
  792MOL0     C 6804   6.188   7.875   3.098 -0.1777 -0.7745 -0.2189
  792MOL0     C 6805   6.160   7.741   3.048  1.0104  0.5604  0.4949
  792MOL0     C 6806   6.261   7.681   2.950 -0.0049 -0.5817 -0.6151
  792MOL0     C 6807   6.377   7.610   3.034  0.4121  0.2107 -0.1692
  792MOL0     C 6808   6.446   7.507   2.935 -0.7958 -0.3545 -0.8396
  792MOL0     O 6809   6.481   7.577   2.817 -0.1061 -0.3102 -0.0900
  792MOL0     C 6810   6.508   7.502   2.709  0.3459  0.4943 -0.3927
  792MOL0     C 6811   6.399   7.445   2.639 -0.1890  0.4155 -0.2456
  792MOL0     C 6812   6.418   7.399   2.504 -0.4920 -0.5890 -0.1157
  792MOL0     C 6813   6.537   7.415   2.435 -1.1561 -0.7903  0.2887
  792MOL0     C 6814   6.551   7.378   2.291 -1.1426 -0.9940  0.1141
  792MOL0     O 6815   6.647   7.438   2.211 -0.1298 -0.2546 -0.4607
  792MOL0     C 6816   6.659   7.396   2.080 -0.6820 -0.7680 -0.3496
  792MOL0     C 6817   6.659   7.493   1.973 -0.2150 -0.4900  0.7626
  792MOL0     C 6818   6.668   7.454   1.839 -0.0523  0.1403  0.1664
  792MOL0     C 6819   6.682   7.320   1.803 -1.1920  1.2144  0.0846
  792MOL0     O 6820   6.679   7.270   1.677 -0.7426 -0.7254 -0.5652
  792MOL0     C 6821   6.616   7.352   1.581 -0.0776  0.3228 -0.0384
  792MOL0     C 6822   6.585   7.272   1.456 -1.2407  0.8804  0.5687
  792MOL0     C 6823   6.521   7.131   1.489 -0.0126 -0.1165  0.1646
  792MOL0     C 6824   6.479   7.056   1.363  0.8464  0.7295 -1.0645
  792MOL0     C 6825   6.391   7.135   1.263 -0.1367  0.8193  0.1980
  792MOL0     C 6826   6.334   7.056   1.147 -0.0905  0.0280 -0.0361
  792MOL0     C 6827   6.434   6.989   1.069  0.8951 -0.4573 -0.2553
  792MOL0     C 6828   6.493   7.085   0.968  0.4135 -0.5409  0.7201
  792MOL0    Cl 6829   6.653   7.012   0.931 -0.4494 -0.2429  0.3409
  792MOL0     C 6830   6.688   7.224   1.907  0.6904  0.4643 -0.3940
  792MOL0     C 6831   6.675   7.266   2.042  0.0939 -0.7601  0.3182
  792MOL0     O 6832   6.466   7.298   2.249 -0.0772 -0.2724 -0.4371
  792MOL0     C 6833   6.647   7.473   2.499 -1.9230  0.4702  0.3064
  792MOL0     C 6834   6.629   7.502   2.640  0.0813 -0.0288 -0.1092
  792MOL0     N 6835   6.094   7.972   3.130  0.9809 -0.5417  0.6751
  792MOL0     N 6836   6.149   8.084   3.178  1.8686  0.4440  0.7512
  792MOL0     C 6837   7.121   7.687   3.613  0.7999  0.1394  0.3828
  792MOL0     C 6838   7.241   7.647   3.671  0.6266 -0.8174 -0.1268
  792MOL0     C 6839   7.541   7.382   3.852  0.0725 -0.4103 -0.6636
  792MOL0     C 6840   7.587   7.452   3.963  0.0362  0.7521  0.0077
  792MOL0     C 6841   7.713   7.428   4.021  0.3209 -0.1896  0.1299
  792MOL0     C 6842   7.809   7.344   3.976  0.4895  0.7146  0.3618
  792MOL0     O 6843   7.938   7.353   4.036 -0.1026 -0.3094  0.5116
  792MOL0     C 6844   8.058   7.305   3.963 -0.1194  0.8840 -0.4028
  792MOL0     C 6845   8.167   7.239   4.058  0.5413  0.3155  0.8042
  792MOL0     C 6846   8.274   7.156   3.995 -0.5133 -1.4869  0.4212
  792MOL0     C 6847   8.332   7.224   3.866 -0.6333  0.1480  0.3403
  792MOL0     C 6848   8.370   7.126   3.768 -0.0450  0.1797  0.2862
  792MOL0     C 6849   8.405   7.054   3.687 -0.2768 -0.2850  0.4397
  792MOL0     C 6850   7.758   7.261   3.873 -0.1688 -0.9414 -0.3931
  792MOL0     C 6851   7.630   7.271   3.814  0.2326 -0.2775 -0.3550
  792MOL0     C 6852   7.582   7.167   3.707  0.3323 -0.7708 -0.4767
  792MOL0     H 6853   7.110   7.486   3.938  2.4795 -0.8188  0.1966
  792MOL0     H 6854   6.886   7.562   3.822 -2.1646 -0.9421 -4.7845
  792MOL0     H 6855   6.968   7.905   3.592 -0.7449  3.2491 -1.4355
  792MOL0     H 6856   6.889   7.850   3.444  0.8777 -0.4208  0.4644
  792MOL0     H 6857   6.750   7.904   3.700  2.5158 -1.4219 -0.0471
  792MOL0     H 6858   6.668   7.839   3.554  2.3944 -2.1349 -1.3646
  792MOL0     H 6859   6.767   8.072   3.441  0.9378  2.5230  1.4151
  792MOL0     H 6860   6.810   8.119   3.590  2.9534 -2.0691  0.0742
  792MOL0     H 6861   6.539   8.014   3.497 -0.7566  2.8596 -4.3738
  792MOL0     H 6862   6.553   8.090   3.659  0.9344  0.0663  0.1458
  792MOL0     H 6863   6.639   8.293   3.538  1.6795 -2.4033  2.5973
  792MOL0     H 6864   6.614   8.214   3.385 -2.2096  1.7739 -0.9575
  792MOL0     H 6865   6.366   8.281   3.576 -3.6057 -1.0973 -2.1903
  792MOL0     H 6866   6.423   8.369   3.443 -0.9640  0.4544  1.9893
  792MOL0     H 6867   6.227   8.217   3.398  0.4433  1.0898  1.3990
  792MOL0     H 6868   6.324   8.080   3.449 -0.1411 -1.1188 -1.8034
  792MOL0     H 6869   6.378   8.235   3.198  4.9209  0.7641 -0.2985
  792MOL0     H 6870   6.479   8.105   3.254 -0.2043 -1.7495 -3.1201
  792MOL0     H 6871   6.404   7.869   3.173  0.0413  0.0813 -0.9569
  792MOL0     H 6872   6.136   7.673   3.130  2.3319 -0.3906  0.1179
  792MOL0     H 6873   6.064   7.745   2.996  1.0942 -0.0168  0.2877
  792MOL0     H 6874   6.206   7.601   2.900 -2.6902  1.6726 -1.5309
  792MOL0     H 6875   6.301   7.759   2.885  1.6895 -2.8101 -2.4007
  792MOL0     H 6876   6.343   7.562   3.126 -0.2963 -0.0835 -0.5773
  792MOL0     H 6877   6.448   7.689   3.059  0.4027  0.1154  0.1655
  792MOL0     H 6878   6.372   7.431   2.910 -4.1856  3.1416 -2.3906
  792MOL0     H 6879   6.540   7.461   2.969 -0.8583  0.3867  0.3892
  792MOL0     H 6880   6.301   7.433   2.686 -0.7465 -1.6056 -1.7675
  792MOL0     H 6881   6.340   7.342   2.454 -1.7381  2.5424 -2.0571
  792MOL0     H 6882   6.652   7.600   1.994 -1.5689  0.0171 -1.8246
  792MOL0     H 6883   6.653   7.533   1.767 -0.9004 -0.1552  0.0110
  792MOL0     H 6884   6.523   7.392   1.623  0.2298  2.2737 -1.1175
  792MOL0     H 6885   6.682   7.435   1.556 -0.8994  1.4635  1.4042
  792MOL0     H 6886   6.509   7.336   1.410 -0.2199  1.5660 -0.2158
  792MOL0     H 6887   6.681   7.263   1.404 -0.8344  2.4824  0.9750
  792MOL0     H 6888   6.586   7.067   1.550 -0.5525 -1.4640 -0.6328
  792MOL0     H 6889   6.426   7.137   1.543 -0.2054  1.4804 -0.3132
  792MOL0     H 6890   6.428   6.965   1.395  0.4154  1.1062 -0.6583
  792MOL0     H 6891   6.569   7.022   1.312 -0.4419 -1.7520 -1.8395
  792MOL0     H 6892   6.439   7.220   1.215 -0.0938  0.0209 -1.2519
  792MOL0     H 6893   6.306   7.167   1.323 -0.5835 -0.4455  0.2717
  792MOL0     H 6894   6.266   6.980   1.187 -0.1304  1.5093  2.9780
  792MOL0     H 6895   6.265   7.108   1.079  0.4233  1.0453  0.2005
  792MOL0     H 6896   6.400   6.899   1.018  1.2572 -1.0160  0.4627
  792MOL0     H 6897   6.511   6.951   1.137  4.3285  4.3719 -0.9347
  792MOL0     H 6898   6.432   7.104   0.879 -3.5139 -1.8453  2.8672
  792MOL0     H 6899   6.509   7.181   1.017  0.5344  1.5905 -3.1407
  792MOL0     H 6900   6.698   7.118   1.887  1.6344  0.7766 -1.7272
  792MOL0     H 6901   6.673   7.191   2.120 -1.7817  0.3796  1.4489
  792MOL0     H 6902   6.744   7.487   2.452 -2.6268 -0.8650 -1.6830
  792MOL0     H 6903   6.716   7.545   2.688  1.9894  1.0287 -4.0514
  792MOL0     H 6904   7.142   7.751   3.528  1.8143  1.5126  1.6158
  792MOL0     H 6905   7.339   7.685   3.642  1.2907 -1.4527  1.1553
  792MOL0     H 6906   7.526   7.529   4.008 -0.3994 -1.2919  3.1954
  792MOL0     H 6907   7.743   7.477   4.113  0.3569 -1.4059  0.7826
  792MOL0     H 6908   8.095   7.376   3.888  0.8093 -1.0172 -1.7979
  792MOL0     H 6909   8.026   7.217   3.907 -4.0871  2.7230 -1.3787
  792MOL0     H 6910   8.112   7.169   4.121 -1.5888  2.0518  1.0101
  792MOL0     H 6911   8.206   7.320   4.122  0.0522 -0.4237  2.0802
  792MOL0     H 6912   8.231   7.060   3.964 -0.9679 -0.4190 -2.6553
  792MOL0     H 6913   8.355   7.154   4.069  0.9663 -1.5483 -1.1151
  792MOL0     H 6914   8.270   7.303   3.824 -0.6724 -0.9907 -1.9206
  792MOL0     H 6915   8.429   7.269   3.889 -2.4374  2.5568  4.1504
  792MOL0     H 6916   8.431   6.980   3.615  3.0071 -1.8560  2.9914
  792MOL0     H 6917   7.822   7.178   3.845  1.4234  0.8148 -2.2402
  792MOL0     H 6918   7.664   7.134   3.643 -0.1414 -0.6199 -1.1867
  792MOL0     H 6919   7.536   7.075   3.745  0.8561 -1.2100 -0.8905
  792MOL0     H 6920   7.510   7.216   3.639 -2.9079 -1.0898  2.4360
  793MOL0     O 6921   5.149   0.030   2.066  0.3240 -0.0699 -0.0772
  793MOL0     C 6922   5.207  -0.074   2.082 -0.8131  0.0781  0.3193
  793MOL0     O 6923   5.156  -0.200   2.047  0.3926 -0.4670  0.2997
  793MOL0     C 6924   5.053  -0.217   1.958 -0.3991 -0.1994 -0.0446
  793MOL0     C 6925   4.992  -0.129   1.871  0.7783 -0.4351 -1.6730
  793MOL0     C 6926   4.893  -0.171   1.794 -1.0734 -1.2780 -0.3139
  793MOL0     C 6927   4.846  -0.303   1.790 -0.8458 -0.1008  0.2079
  793MOL0     O 6928   4.775  -0.349   1.689 -1.0156  0.1926 -0.5625
  793MOL0     C 6929   4.850  -0.412   1.586 -0.2411  0.7364 -0.5817
  793MOL0     C 6930   4.784  -0.552   1.580 -0.0442 -0.3639  0.7804
  793MOL0     C 6931   4.866  -0.664   1.526  0.2747 -0.0577  0.3759
  793MOL0     C 6932   4.777  -0.790   1.492 -0.1071 -0.7913 -0.2328
  793MOL0     C 6933   4.873  -0.901   1.480  1.6893  0.5745  0.7444
  793MOL0     C 6934   4.883  -0.975   1.623  0.5110  0.3426  0.2783
  793MOL0     C 6935   4.975  -1.095   1.624 -0.2959  0.4052  0.0576
  793MOL0     C 6936   4.953  -1.165   1.758  0.6532  0.5706 -0.2995
  793MOL0     N 6937   5.069  -1.230   1.803 -0.6086  0.5136  0.5550
  793MOL0     C 6938   5.144  -1.328   1.738 -0.3740 -0.4480  0.1143
  793MOL0     C 6939   5.240  -1.369   1.830 -0.8345  0.9921  0.5330
  793MOL0     C 6940   5.345  -1.478   1.815  0.2091  0.4327  0.8363
  793MOL0     C 6941   5.403  -1.480   1.673  0.0147  0.2361  0.6410
  793MOL0     C 6942   5.532  -1.403   1.645  0.8807 -0.6271  0.3473
  793MOL0     C 6943   5.565  -1.423   1.491  0.8228 -0.2769 -0.2852
  793MOL0     O 6944   5.678  -1.339   1.460 -0.3569 -0.6453  0.4775
  793MOL0     C 6945   5.799  -1.360   1.526  0.3146  0.5524 -0.6669
  793MOL0     C 6946   5.840  -1.488   1.594  0.4715 -0.2510  0.2926
  793MOL0     C 6947   5.958  -1.504   1.664  0.1833  0.4155  0.0073
  793MOL0     C 6948   6.036  -1.384   1.690  0.0059 -0.3419  0.5918
  793MOL0     C 6949   6.151  -1.381   1.785  0.3625  0.6481  0.3016
  793MOL0     O 6950   6.159  -1.503   1.848 -1.1949  0.0752  0.2860
  793MOL0     C 6951   6.264  -1.534   1.924 -0.4512  0.7001 -1.0096
  793MOL0     C 6952   6.348  -1.639   1.904 -0.1428  0.2221  0.5340
  793MOL0     C 6953   6.463  -1.660   1.971 -0.3427 -0.5634  0.0507
  793MOL0     C 6954   6.496  -1.586   2.086  0.8914  0.0892  0.5819
  793MOL0     O 6955   6.602  -1.614   2.162 -0.2143 -0.7219 -0.2224
  793MOL0     C 6956   6.684  -1.512   2.215  0.3591 -1.2511  0.1405
  793MOL0     C 6957   6.830  -1.548   2.214  0.0798  0.8169  0.1701
  793MOL0     C 6958   6.912  -1.520   2.082 -0.3407 -0.3358 -0.2285
  793MOL0     C 6959   7.027  -1.620   2.068  0.7492  0.0772 -0.1860
  793MOL0     C 6960   7.162  -1.550   2.100  0.2890 -1.4564  0.0814
  793MOL0     C 6961   7.273  -1.633   2.047  0.4987  0.9716  0.7828
  793MOL0     C 6962   7.408  -1.585   2.104 -0.5159  0.3169  0.1731
  793MOL0     C 6963   7.513  -1.692   2.106  0.4611  0.7390 -0.1019
  793MOL0    Cl 6964   7.474  -1.790   2.252 -0.1734 -0.6167 -1.0615
  793MOL0     C 6965   6.402  -1.480   2.115  0.1657  0.8291 -0.2188
  793MOL0     C 6966   6.289  -1.456   2.033 -0.1898 -0.9121  0.0847
  793MOL0     O 6967   6.226  -1.286   1.798 -0.0793  1.0116 -0.3610
  793MOL0     C 6968   5.995  -1.256   1.637 -0.3013  0.1519 -0.4727
  793MOL0     C 6969   5.890  -1.252   1.541  0.1647  0.3411  1.3012
  793MOL0     N 6970   5.227  -1.290   1.948 -0.2265  0.1310  0.2203
  793MOL0     N 6971   5.120  -1.222   1.928  0.0096  0.0703 -0.0551
  793MOL0     C 6972   4.907  -0.393   1.880 -0.0274 -0.1005 -0.5677
  793MOL0     C 6973   5.003  -0.346   1.963 -0.3260 -1.0370 -0.1761
  793MOL0     C 6974   5.325  -0.073   2.171  0.2615  0.4287 -0.5245
  793MOL0     C 6975   5.417  -0.167   2.128  0.3147 -0.6792  0.1139
  793MOL0     C 6976   5.544  -0.173   2.192  0.0129  0.2815  0.0146
  793MOL0     C 6977   5.579  -0.091   2.297 -0.2329 -0.3166  0.1866
  793MOL0     O 6978   5.709  -0.098   2.334  0.1047  1.2974 -0.3758
  793MOL0     C 6979   5.760  -0.011   2.441  0.5007  0.8584  0.3495
  793MOL0     C 6980   5.860  -0.096   2.525  0.0680  0.6019  0.3567
  793MOL0     C 6981   5.976  -0.164   2.453 -1.5291  0.3584  1.0589
  793MOL0     C 6982   6.078  -0.244   2.537  0.1128 -0.2759  0.3147
  793MOL0     C 6983   6.213  -0.262   2.490 -0.3631  0.4559  0.0357
  793MOL0     C 6984   6.334  -0.277   2.466 -0.1281 -0.5539  0.3678
  793MOL0     C 6985   5.478   0.003   2.347 -1.3931 -0.4438  0.2351
  793MOL0     C 6986   5.356   0.014   2.285 -0.5680 -0.1715  0.4392
  793MOL0     C 6987   5.248   0.103   2.346  0.0015  0.0231 -0.0937
  793MOL0     H 6988   5.019  -0.024   1.862 -1.0303  0.0290 -2.0878
  793MOL0     H 6989   4.853  -0.092   1.733  1.7199  2.2390  1.9985
  793MOL0     H 6990   4.826  -0.350   1.499 -1.4899  2.9047  1.2197
  793MOL0     H 6991   4.958  -0.411   1.604 -0.1960 -1.0932 -0.5490
  793MOL0     H 6992   4.696  -0.552   1.515 -1.5060 -2.1851  2.6382
  793MOL0     H 6993   4.757  -0.575   1.684 -0.8425 -1.7254  0.2940
  793MOL0     H 6994   4.947  -0.696   1.591  1.9076 -3.4476 -2.9206
  793MOL0     H 6995   4.912  -0.636   1.430  1.6221  2.8875  1.7566
  793MOL0     H 6996   4.695  -0.810   1.561 -0.9308 -2.0357 -1.5167
  793MOL0     H 6997   4.720  -0.771   1.400 -0.5198  0.7530  0.3017
  793MOL0     H 6998   4.832  -0.977   1.413  2.7504  2.4776 -2.2542
  793MOL0     H 6999   4.969  -0.865   1.441  2.4865 -2.1928 -0.1067
  793MOL0     H 7000   4.915  -0.907   1.702  0.6752  0.3598  0.1969
  793MOL0     H 7001   4.779  -1.003   1.645  0.1302  2.1265  0.9618
  793MOL0     H 7002   5.081  -1.078   1.607  0.1432 -1.4185  0.7764
  793MOL0     H 7003   4.945  -1.154   1.537  1.3190  0.6327 -0.6909
  793MOL0     H 7004   4.911  -1.104   1.839  2.5690  0.9070  0.4943
  793MOL0     H 7005   4.886  -1.250   1.744  0.1627  1.1045 -1.2677
  793MOL0     H 7006   5.132  -1.369   1.639 -2.3959  2.6889 -1.0993
  793MOL0     H 7007   5.411  -1.467   1.901  0.7365  1.3089  0.3380
  793MOL0     H 7008   5.305  -1.579   1.826  0.7223  0.1631  0.2958
  793MOL0     H 7009   5.414  -1.584   1.643  0.4443  0.3867  0.2617
  793MOL0     H 7010   5.320  -1.448   1.609  0.2314 -0.2772  0.1008
  793MOL0     H 7011   5.615  -1.432   1.710  1.0546 -1.0720 -0.0642
  793MOL0     H 7012   5.500  -1.299   1.658 -4.3211 -2.0795  1.5959
  793MOL0     H 7013   5.472  -1.390   1.444  1.3363  1.9072  0.1340
  793MOL0     H 7014   5.587  -1.528   1.467 -2.6383 -1.4229  0.9821
  793MOL0     H 7015   5.766  -1.568   1.599 -2.8754  2.5371 -0.3093
  793MOL0     H 7016   5.978  -1.605   1.700 -1.1450 -0.5574 -1.7860
  793MOL0     H 7017   6.323  -1.705   1.821  0.2904  0.8171 -0.0737
  793MOL0     H 7018   6.522  -1.749   1.948 -0.4198 -1.3981  2.7181
  793MOL0     H 7019   6.691  -1.422   2.153  1.5839 -2.1496 -1.0821
  793MOL0     H 7020   6.650  -1.486   2.316 -3.8577 -1.9860 -0.8856
  793MOL0     H 7021   6.881  -1.484   2.287  1.0333  2.5201 -1.8784
  793MOL0     H 7022   6.832  -1.653   2.244 -1.1295  0.5527 -0.6282
  793MOL0     H 7023   6.845  -1.522   1.995 -2.6036  2.0005  1.3048
  793MOL0     H 7024   6.961  -1.422   2.083  1.2641 -1.0784 -1.4631
  793MOL0     H 7025   7.018  -1.657   1.966 -1.1293  0.8502 -0.3358
  793MOL0     H 7026   7.021  -1.707   2.134 -0.8634 -2.3245 -3.2682
  793MOL0     H 7027   7.154  -1.538   2.209 -5.2118 -1.9752  0.0124
  793MOL0     H 7028   7.170  -1.447   2.062 -0.9376 -0.0754  3.2027
  793MOL0     H 7029   7.258  -1.738   2.073 -0.4882  1.0369  0.5174
  793MOL0     H 7030   7.275  -1.631   1.937 -2.2210 -4.6527  0.2818
  793MOL0     H 7031   7.390  -1.532   2.198 -1.0438 -1.3676  1.0620
  793MOL0     H 7032   7.450  -1.502   2.047  0.0726 -2.0355 -3.1384
  793MOL0     H 7033   7.511  -1.754   2.016  2.7218 -0.8880  0.8745
  793MOL0     H 7034   7.617  -1.659   2.109  1.3311 -1.8889  1.5040
  793MOL0     H 7035   6.420  -1.414   2.199 -0.2426  1.7164 -0.8158
  793MOL0     H 7036   6.232  -1.368   2.060 -1.3229 -1.8453  0.8582
  793MOL0     H 7037   6.034  -1.160   1.669 -2.0794  0.4693  0.9082
  793MOL0     H 7038   5.855  -1.162   1.492  1.4665 -2.1843 -5.3477
  793MOL0     H 7039   4.871  -0.496   1.874 -1.0862  0.3604 -3.6787
  793MOL0     H 7040   5.052  -0.416   2.030 -1.6358  0.6135  2.6970
  793MOL0     H 7041   5.402  -0.220   2.035 -3.6241 -0.1594  0.2979
  793MOL0     H 7042   5.617  -0.246   2.155 -1.2488 -1.4535  0.8102
  793MOL0     H 7043   5.683   0.039   2.502 -2.4435 -0.4892 -2.0038
  793MOL0     H 7044   5.808   0.078   2.399  0.7614  0.6779  0.2616
  793MOL0     H 7045   5.805  -0.183   2.564  0.9704  0.4403  1.3000
  793MOL0     H 7046   5.899  -0.041   2.611 -1.3058  2.7027 -0.2918
  793MOL0     H 7047   6.020  -0.091   2.384 -3.8628  0.3809 -0.5392
  793MOL0     H 7048   5.936  -0.247   2.393 -0.8370  0.4806  0.3982
  793MOL0     H 7049   6.068  -0.189   2.631 -3.0178  0.1981 -0.1796
  793MOL0     H 7050   6.036  -0.343   2.558 -1.2178  0.2126  0.0563
  793MOL0     H 7051   6.432  -0.288   2.423 -0.8159  0.2323 -1.4727
  793MOL0     H 7052   5.502   0.080   2.420  0.9127 -0.7206 -0.1724
  793MOL0     H 7053   5.293   0.187   2.399 -0.9586  0.8719 -0.5769
  793MOL0     H 7054   5.179   0.140   2.269 -1.3639 -0.9536  0.6166
  793MOL0     H 7055   5.203   0.035   2.419 -1.0925  0.1658 -0.6132
  794MOL0     O 7056   9.003  11.167   8.566  0.7605 -0.2398 -0.8540
  794MOL0     C 7057   9.083  11.255   8.590 -0.5506 -0.3877  0.1949
  794MOL0     O 7058   9.204  11.260   8.530 -0.5147  0.1289  0.3881
  794MOL0     C 7059   9.253  11.187   8.418 -0.1480 -0.2851 -0.4554
  794MOL0     C 7060   9.334  11.260   8.327 -0.0887 -0.4316  0.3893
  794MOL0     C 7061   9.391  11.194   8.214 -0.0385  0.4810  0.4203
  794MOL0     C 7062   9.358  11.054   8.187 -0.6334 -1.0907 -0.4631
  794MOL0     O 7063   9.414  10.988   8.078 -0.1029 -0.7169  0.0921
  794MOL0     C 7064   9.527  11.037   7.998  0.6074 -0.4145 -0.8651
  794MOL0     C 7065   9.570  10.963   7.877  0.8873  0.1332  0.0962
  794MOL0     C 7066   9.699  11.017   7.815 -0.3642  0.1906 -0.4710
  794MOL0     C 7067   9.736  10.910   7.701  0.3789 -0.9241  0.2334
  794MOL0     C 7068   9.817  10.982   7.588 -0.2794 -0.1442 -0.2161
  794MOL0     C 7069   9.739  11.040   7.469 -0.4780  0.2771  0.1225
  794MOL0     C 7070   9.636  11.148   7.491  1.1206  0.2887  0.2020
  794MOL0     C 7071   9.556  11.182   7.373  0.6241  0.6555 -0.1266
  794MOL0     N 7072   9.493  11.059   7.317  0.1344  0.0931  0.0202
  794MOL0     C 7073   9.390  10.975   7.373 -0.7538  1.1638  0.5986
  794MOL0     C 7074   9.369  10.873   7.283  0.5044  1.5201 -0.6179
  794MOL0     C 7075   9.292  10.750   7.302 -0.6522  0.0451 -0.7037
  794MOL0     C 7076   9.185  10.713   7.198  0.2421 -0.5179  0.1234
  794MOL0     C 7077   9.082  10.608   7.239 -0.1187 -0.0585  0.6271
  794MOL0     C 7078   9.149  10.469   7.240  0.3052  0.8125  0.5156
  794MOL0     O 7079   9.222  10.446   7.118 -0.0603  0.8361 -0.6408
  794MOL0     C 7080   9.347  10.410   7.122  0.3264 -0.0994  0.0771
  794MOL0     C 7081   9.439  10.463   7.035 -0.5566  0.9846 -1.2514
  794MOL0     C 7082   9.577  10.426   7.036  0.2118 -0.5860  0.2618
  794MOL0     C 7083   9.628  10.321   7.116 -1.1918 -0.0046  0.7671
  794MOL0     C 7084   9.770  10.264   7.098  0.3873 -1.4090  0.3520
  794MOL0     O 7085   9.869  10.348   7.050 -0.1315 -0.4728 -0.2439
  794MOL0     C 7086   9.988  10.299   7.013  0.2144  0.7265 -0.2472
  794MOL0     C 7087  10.017  10.306   6.883 -0.3909  0.2488 -0.4610
  794MOL0     C 7088  10.147  10.282   6.846  0.1050 -0.1701 -0.2891
  794MOL0     C 7089  10.253  10.224   6.924 -0.0930 -0.2554 -0.9474
  794MOL0     O 7090  10.375  10.179   6.877 -0.0910 -0.5487  0.4625
  794MOL0     C 7091  10.485  10.196   6.965  0.2900 -0.4500 -0.0772
  794MOL0     C 7092  10.620  10.155   6.907 -0.2627  0.6287  0.0823
  794MOL0     C 7093  10.634   9.999   6.920 -0.1528 -0.8119 -0.2168
  794MOL0     C 7094  10.759   9.951   6.848 -0.1683  0.2284 -0.8701
  794MOL0     C 7095  10.795   9.819   6.907 -0.0570 -0.4176 -0.0266
  794MOL0     C 7096  10.888   9.732   6.807  0.2449 -0.9134 -0.7059
  794MOL0     C 7097  10.812   9.658   6.693 -0.4253  0.2990 -0.5038
  794MOL0     C 7098  10.719   9.559   6.750  0.8831  0.0033 -0.9942
  794MOL0    Cl 7099  10.625   9.452   6.639  0.8154  0.0929 -0.3521
  794MOL0     C 7100  10.217  10.210   7.058  0.4418 -0.8590  0.0402
  794MOL0     C 7101  10.081  10.245   7.102 -0.5146 -0.0082 -0.5977
  794MOL0     O 7102   9.781  10.144   7.096 -0.1376  0.1699 -0.2826
  794MOL0     C 7103   9.534  10.257   7.191  0.1261  0.1300 -0.4947
  794MOL0     C 7104   9.395  10.299   7.195 -0.3377 -0.5583  0.0529
  794MOL0     N 7105   9.457  10.885   7.177  0.5590  0.2093  0.6492
  794MOL0     N 7106   9.532  10.988   7.203 -0.0893  0.0408 -0.0169
  794MOL0     C 7107   9.279  10.987   8.275  0.2886  0.5408  0.3765
  794MOL0     C 7108   9.230  11.053   8.388  0.2860 -0.1169  0.1926
  794MOL0     C 7109   9.060  11.343   8.699  0.7841 -0.8538  0.3229
  794MOL0     C 7110   9.164  11.413   8.752  0.1633 -0.0771 -0.0194
  794MOL0     C 7111   9.152  11.495   8.865  0.1783  0.1011 -0.3782
  794MOL0     C 7112   9.034  11.505   8.940  0.2352  0.0963  0.5622
  794MOL0     O 7113   9.040  11.572   9.062  0.3014  0.3808 -0.2662
  794MOL0     C 7114   8.932  11.531   9.154 -0.6166  0.0575  0.0235
  794MOL0     C 7115   8.961  11.404   9.223  0.3107 -0.5909 -0.7252
  794MOL0     C 7116   9.095  11.412   9.295 -0.3879  0.7119 -0.4984
  794MOL0     C 7117   9.121  11.288   9.389 -1.3530  0.9075  0.2494
  794MOL0     C 7118   9.039  11.290   9.506  0.5452  0.3303 -0.6726
  794MOL0     C 7119   8.993  11.282   9.618 -0.3761 -0.3334 -0.4383
  794MOL0     C 7120   8.922  11.457   8.868  0.6141 -0.5025  0.1271
  794MOL0     C 7121   8.932  11.382   8.756  0.5135 -0.0089 -0.4122
  794MOL0     C 7122   8.803  11.337   8.709  0.1947  0.3746 -0.3586
  794MOL0     H 7123   9.352  11.366   8.347  1.8213 -0.3503 -1.4794
  794MOL0     H 7124   9.440  11.260   8.143  0.1879 -0.3376 -0.2059
  794MOL0     H 7125   9.497  11.139   7.972 -3.7883 -1.7268 -1.8600
  794MOL0     H 7126   9.619  11.054   8.055  0.0540  3.9834 -0.9336
  794MOL0     H 7127   9.488  10.979   7.806  1.6162  0.0382 -0.7840
  794MOL0     H 7128   9.580  10.857   7.899  1.9948 -0.0616 -1.2011
  794MOL0     H 7129   9.778  11.027   7.889 -1.4468  1.6588  0.5509
  794MOL0     H 7130   9.695  11.119   7.775  3.0481  0.5010 -0.2404
  794MOL0     H 7131   9.797  10.835   7.752  1.5514 -1.6339 -2.1016
  794MOL0     H 7132   9.643  10.879   7.653  0.8556 -2.3420  0.1856
  794MOL0     H 7133   9.869  11.068   7.631  1.2040 -0.8901 -0.4674
  794MOL0     H 7134   9.898  10.916   7.557 -1.4189 -1.1943 -1.0770
  794MOL0     H 7135   9.813  11.079   7.399 -0.6618  1.4902  0.5735
  794MOL0     H 7136   9.690  10.953   7.426 -2.6912  1.3968  0.2003
  794MOL0     H 7137   9.689  11.239   7.519 -0.4966  1.7584 -1.2574
  794MOL0     H 7138   9.576  11.105   7.572 -0.6208  2.3328  0.0802
  794MOL0     H 7139   9.468  11.245   7.389 -0.1454  0.6799 -3.7002
  794MOL0     H 7140   9.620  11.229   7.299  1.1698  2.8633  1.6404
  794MOL0     H 7141   9.343  10.992   7.469 -2.3596  0.4471 -0.0156
  794MOL0     H 7142   9.365  10.677   7.337  0.3487  2.3724  2.5195
  794MOL0     H 7143   9.245  10.759   7.401  2.6553  1.2796  0.9060
  794MOL0     H 7144   9.123  10.802   7.180  0.2201  0.3265  3.5122
  794MOL0     H 7145   9.229  10.681   7.104  3.0927 -0.7773  1.4530
  794MOL0     H 7146   8.994  10.620   7.175  0.3803  1.9478  0.2285
  794MOL0     H 7147   9.051  10.642   7.338 -2.2131  0.5979 -0.2020
  794MOL0     H 7148   9.072  10.392   7.252 -2.0534  2.7041 -1.5658
  794MOL0     H 7149   9.208  10.460   7.331 -0.2246  1.8073  0.9746
  794MOL0     H 7150   9.398  10.538   6.969 -0.7957  1.0623 -1.0164
  794MOL0     H 7151   9.630  10.493   6.969 -1.1120  0.1998 -0.0406
  794MOL0     H 7152   9.953  10.343   6.803 -0.7279  1.6439  0.4206
  794MOL0     H 7153  10.177  10.314   6.747 -1.6248 -1.9080 -1.4306
  794MOL0     H 7154  10.505  10.302   6.981  1.7473 -0.6975 -0.0901
  794MOL0     H 7155  10.471  10.138   7.057 -2.7599 -0.2225 -0.3197
  794MOL0     H 7156  10.610  10.187   6.803  0.2988  0.1166 -0.1397
  794MOL0     H 7157  10.709  10.207   6.944 -0.0735  0.7788 -0.5654
  794MOL0     H 7158  10.630   9.966   7.024  2.7341 -1.7631 -0.3088
  794MOL0     H 7159  10.548   9.950   6.872 -0.1314 -2.1408  1.0433
  794MOL0     H 7160  10.844  10.015   6.870 -0.5907  0.5589 -0.1402
  794MOL0     H 7161  10.749   9.943   6.739  0.6809  3.0238 -1.2125
  794MOL0     H 7162  10.707   9.760   6.933  1.8472 -3.0113  0.9649
  794MOL0     H 7163  10.852   9.842   6.998  0.8591 -3.0232  0.1404
  794MOL0     H 7164  10.974   9.791   6.775 -0.0773  1.5422  2.4837
  794MOL0     H 7165  10.937   9.661   6.875  0.2470  1.1285  1.5215
  794MOL0     H 7166  10.885   9.610   6.628 -1.2910  1.6296 -2.5398
  794MOL0     H 7167  10.760   9.730   6.629  0.7978  0.0454 -1.8373
  794MOL0     H 7168  10.773   9.503   6.827  4.5996  3.7544 -0.5751
  794MOL0     H 7169  10.646   9.612   6.812  1.2645 -0.5009 -0.0969
  794MOL0     H 7170  10.297  10.179   7.125  0.9507  0.7815  0.2502
  794MOL0     H 7171  10.053  10.224   7.204 -0.6594 -0.4400 -0.7236
  794MOL0     H 7172   9.576  10.179   7.254 -2.7971 -2.5771 -1.6379
  794MOL0     H 7173   9.332  10.247   7.267 -1.2627 -0.6759 -0.8274
  794MOL0     H 7174   9.234  10.892   8.248  0.3880  0.0144  1.9526
  794MOL0     H 7175   9.152  11.009   8.449  0.2428  2.1204  1.8706
  794MOL0     H 7176   9.264  11.414   8.709  2.2704  1.9845  4.2876
  794MOL0     H 7177   9.230  11.558   8.906  0.4730 -1.2125  1.2167
  794MOL0     H 7178   8.829  11.532   9.119 -0.4264  0.2408 -0.5419
  794MOL0     H 7179   8.930  11.618   9.221 -1.9548  1.2310 -1.4820
  794MOL0     H 7180   8.966  11.328   9.145  3.2741  1.0115 -2.2675
  794MOL0     H 7181   8.883  11.384   9.297  0.4213  2.6109  0.4018
  794MOL0     H 7182   9.103  11.503   9.355  0.0199 -0.5002  1.3813
  794MOL0     H 7183   9.177  11.418   9.222 -0.8556  0.6570 -1.0383
  794MOL0     H 7184   9.095  11.198   9.332 -0.8022  1.7203 -1.3327
  794MOL0     H 7185   9.224  11.288   9.426 -0.5215  4.1919 -1.7097
  794MOL0     H 7186   8.932  11.253   9.701 -2.7881 -0.5075 -2.1619
  794MOL0     H 7187   8.829  11.486   8.916  1.9230 -0.3989  2.7467
  794MOL0     H 7188   8.801  11.297   8.607  0.7244  1.2472 -0.7191
  794MOL0     H 7189   8.778  11.250   8.772 -1.4301  0.5091 -0.7523
  794MOL0     H 7190   8.724  11.413   8.717 -0.3785 -0.3911  2.2825
  795MOL0     O 7191   4.686   9.235  11.281  0.2823 -0.1467 -0.5512
  795MOL0     C 7192   4.681   9.173  11.174  1.4926  0.2276  0.1362
  795MOL0     O 7193   4.769   9.188  11.071  0.4126  0.4441 -0.2756
  795MOL0     C 7194   4.842   9.303  11.057  0.4028  0.2849  0.7527
  795MOL0     C 7195   4.828   9.365  10.934 -0.4348 -0.8923  0.1198
  795MOL0     C 7196   4.870   9.499  10.924 -0.3365 -0.6734  0.0030
  795MOL0     C 7197   4.945   9.560  11.036  0.4292  0.4115 -0.1126
  795MOL0     O 7198   5.020   9.680  11.043 -0.6234  0.3324 -0.2712
  795MOL0     C 7199   5.002   9.763  10.926 -0.9567  0.4575 -0.8722
  795MOL0     C 7200   5.053   9.894  10.988  0.5325 -0.2942 -0.8664
  795MOL0     C 7201   5.060  10.008  10.898 -1.5145 -0.4526 -0.0408
  795MOL0     C 7202   5.111  10.130  10.971  0.2831 -0.0635 -0.4616
  795MOL0     C 7203   5.114  10.256  10.885 -0.0693 -0.0310  0.3982
  795MOL0     C 7204   5.241  10.259  10.799 -1.1985  1.0842  0.4315
  795MOL0     C 7205   5.241  10.381  10.709  0.3212 -0.1619  0.4365
  795MOL0     C 7206   5.357  10.369  10.625 -0.1358  0.2966 -1.0774
  795MOL0     N 7207   5.372  10.482  10.541 -0.4635  0.2131  1.1185
  795MOL0     C 7208   5.420  10.610  10.576 -0.6308 -1.6425 -0.3730
  795MOL0     C 7209   5.424  10.679  10.453 -0.6029  0.4799  0.8397
  795MOL0     C 7210   5.473  10.821  10.441 -0.1495  0.1215 -0.1461
  795MOL0     C 7211   5.614  10.815  10.385 -0.7332  0.5115 -0.2955
  795MOL0     C 7212   5.722  10.793  10.494  0.6408 -0.1230 -0.1978
  795MOL0     C 7213   5.856  10.731  10.447 -0.5497 -0.5247 -0.1048
  795MOL0     O 7214   5.827  10.625  10.374 -0.0925  0.8144  0.7889
  795MOL0     C 7215   5.797  10.495  10.416 -0.2811 -0.3099  0.8140
  795MOL0     C 7216   5.781  10.391  10.327 -0.4128  0.1729 -0.6751
  795MOL0     C 7217   5.756  10.255  10.359 -0.5948 -1.2291 -1.5833
  795MOL0     C 7218   5.742  10.225  10.493  0.6730 -0.3287  0.6371
  795MOL0     C 7219   5.720  10.086  10.524 -0.9787 -0.3170 -0.6622
  795MOL0     O 7220   5.610  10.052  10.600 -0.1811  0.4632  0.1319
  795MOL0     C 7221   5.583   9.920  10.638  0.0505  0.8215  0.7964
  795MOL0     C 7222   5.496   9.906  10.745 -0.5633 -0.2904  0.7477
  795MOL0     C 7223   5.451   9.785  10.812  0.3323 -0.7165  0.3475
  795MOL0     C 7224   5.498   9.665  10.758  0.1999 -1.0623  1.1413
  795MOL0     O 7225   5.469   9.541  10.810  0.5506 -0.3219 -1.0138
  795MOL0     C 7226   5.394   9.529  10.942 -0.6714 -0.4137 -0.4432
  795MOL0     C 7227   5.487   9.552  11.062 -0.9637 -0.9306 -1.2844
  795MOL0     C 7228   5.392   9.531  11.182 -0.6733  1.0461  0.2207
  795MOL0     C 7229   5.337   9.386  11.204  0.8047 -0.6490 -0.5391
  795MOL0     C 7230   5.286   9.367  11.348 -0.3713 -0.3370 -0.7988
  795MOL0     C 7231   5.394   9.340  11.447  0.1694  0.0807 -0.4188
  795MOL0     C 7232   5.347   9.347  11.590  0.1873  0.2700 -0.2446
  795MOL0     C 7233   5.382   9.491  11.653 -0.1638 -0.2690 -0.6174
  795MOL0    Cl 7234   5.558   9.522  11.689  0.6795 -0.1758 -0.3552
  795MOL0     C 7235   5.584   9.671  10.648  1.1692  0.2933 -0.4838
  795MOL0     C 7236   5.620   9.789  10.589 -0.0925 -1.0700 -0.0537
  795MOL0     O 7237   5.798  10.009  10.475  0.7066 -0.6738 -0.1473
  795MOL0     C 7238   5.760  10.322  10.594 -0.3309  0.6723 -0.4964
  795MOL0     C 7239   5.774  10.461  10.555 -0.1907 -0.6863  0.0449
  795MOL0     N 7240   5.396  10.584  10.346  0.7773 -1.1731 -0.2848
  795MOL0     N 7241   5.351  10.475  10.406 -0.6204  0.6596  0.4360
  795MOL0     C 7242   4.956   9.490  11.153  0.0152 -0.7354  0.1204
  795MOL0     C 7243   4.906   9.362  11.158  0.5699  0.1480  0.1552
  795MOL0     C 7244   4.573   9.074  11.148 -0.1974  0.1667  0.1252
  795MOL0     C 7245   4.617   8.959  11.080  0.5974  1.3975  0.8866
  795MOL0     C 7246   4.524   8.854  11.044 -0.3069 -0.2170  0.7407
  795MOL0     C 7247   4.388   8.872  11.084 -0.2410 -0.2259  0.2889
  795MOL0     O 7248   4.294   8.779  11.073 -0.6564 -0.0041  0.8938
  795MOL0     C 7249   4.310   8.663  10.989  0.2436 -0.4828  0.8226
  795MOL0     C 7250   4.238   8.679  10.856 -0.0197  0.4586 -0.3472
  795MOL0     C 7251   4.329   8.740  10.757 -0.0679 -0.6337  0.6322
  795MOL0     C 7252   4.245   8.797  10.634  0.3065 -0.5023  0.0637
  795MOL0     C 7253   4.197   8.710  10.534  0.2857  0.6899  0.2362
  795MOL0     C 7254   4.164   8.632  10.444  0.9887  1.1197  0.7504
  795MOL0     C 7255   4.344   8.986  11.136  0.6028  0.2740 -0.4393
  795MOL0     C 7256   4.433   9.089  11.166  0.0975  0.2384  0.3460
  795MOL0     C 7257   4.371   9.221  11.217 -0.0771  0.0463  0.2491
  795MOL0     H 7258   4.795   9.307  10.848 -2.7680 -1.1947  1.1384
  795MOL0     H 7259   4.844   9.567  10.844  0.3326  0.9505  1.1136
  795MOL0     H 7260   5.062   9.743  10.837 -0.6760  0.0037 -0.5872
  795MOL0     H 7261   4.899   9.788  10.899 -1.3198  0.3096  0.2930
  795MOL0     H 7262   5.148   9.879  11.040  0.0223  1.1196  0.5713
  795MOL0     H 7263   4.974   9.926  11.056 -0.3408  0.7079 -2.2954
  795MOL0     H 7264   4.966  10.019  10.845 -0.3614 -0.5878 -2.2164
  795MOL0     H 7265   5.128   9.981  10.817 -1.6691 -1.1301  0.0444
  795MOL0     H 7266   5.048  10.135  11.060  0.2468 -2.2878 -0.2941
  795MOL0     H 7267   5.214  10.111  11.003  0.3800  0.1753 -0.6299
  795MOL0     H 7268   5.030  10.250  10.816  0.7060  0.2194 -0.5910
  795MOL0     H 7269   5.115  10.344  10.950 -1.4965  0.0292  0.3731
  795MOL0     H 7270   5.338  10.267  10.850 -0.1521  0.3198 -1.3504
  795MOL0     H 7271   5.240  10.172  10.733 -2.8172  0.2493  1.4945
  795MOL0     H 7272   5.217  10.476  10.758 -2.8799 -0.6119 -0.0360
  795MOL0     H 7273   5.163  10.374  10.631  1.1871 -0.7377 -0.3989
  795MOL0     H 7274   5.449  10.357  10.683  0.0481  1.1487 -1.1817
  795MOL0     H 7275   5.364  10.276  10.567  2.2204 -0.0704 -0.3410
  795MOL0     H 7276   5.447  10.657  10.670  1.8440  3.3806 -3.1441
  795MOL0     H 7277   5.420  10.882  10.368  2.6093  4.1539  0.8776
  795MOL0     H 7278   5.474  10.872  10.538 -0.0027  1.0293 -0.6140
  795MOL0     H 7279   5.605  10.735  10.311 -1.8199 -0.2099  0.5904
  795MOL0     H 7280   5.637  10.905  10.327  1.9228  0.8157  1.0660
  795MOL0     H 7281   5.675  10.732  10.572 -0.3194  2.9086  1.8330
  795MOL0     H 7282   5.739  10.881  10.558 -0.0513 -0.7425  0.8779
  795MOL0     H 7283   5.920  10.699  10.530  1.1257 -1.6232 -1.7396
  795MOL0     H 7284   5.915  10.806  10.393 -2.1267  1.4600  0.7971
  795MOL0     H 7285   5.796  10.418  10.223  0.6378  0.3307 -0.4897
  795MOL0     H 7286   5.737  10.179  10.284 -2.2174 -1.3441 -1.0989
  795MOL0     H 7287   5.451   9.992  10.795 -2.1713 -1.7617  1.9453
  795MOL0     H 7288   5.376   9.795  10.890 -2.7528  3.4895 -2.6770
  795MOL0     H 7289   5.305   9.592  10.950  0.3024  0.7920  3.0614
  795MOL0     H 7290   5.359   9.426  10.955  0.2914 -0.4601  2.9250
  795MOL0     H 7291   5.573   9.485  11.057  0.0797  0.3827 -1.4193
  795MOL0     H 7292   5.531   9.650  11.079 -3.2243 -0.3832  2.9680
  795MOL0     H 7293   5.446   9.555  11.274 -1.4594 -0.4533  1.1060
  795MOL0     H 7294   5.311   9.604  11.170 -0.9230  0.9413  1.1236
  795MOL0     H 7295   5.420   9.316  11.191 -0.7440 -2.6435 -0.1180
  795MOL0     H 7296   5.249   9.377  11.141  0.3675 -1.5926  0.1833
  795MOL0     H 7297   5.227   9.275  11.359 -2.0249  0.8874  1.3936
  795MOL0     H 7298   5.218   9.449  11.375  0.6331  0.4619 -0.6380
  795MOL0     H 7299   5.434   9.244  11.414 -3.8051 -1.0491 -2.5608
  795MOL0     H 7300   5.473   9.417  11.444 -0.1488  0.4353  0.0894
  795MOL0     H 7301   5.406   9.281  11.653  1.3001  3.3843  2.2715
  795MOL0     H 7302   5.240   9.328  11.605 -1.0464  5.1010 -1.1605
  795MOL0     H 7303   5.332   9.575  11.603 -5.1580 -2.9185 -0.7530
  795MOL0     H 7304   5.324   9.488  11.746 -0.4346  2.1039 -0.6368
  795MOL0     H 7305   5.609   9.575  10.604  0.4923  0.5495 -1.4653
  795MOL0     H 7306   5.690   9.786  10.506  0.9350 -2.7188  0.8302
  795MOL0     H 7307   5.777  10.287  10.695 -0.4522 -3.0326 -1.6152
  795MOL0     H 7308   5.775  10.536  10.633  0.6380 -1.2564  0.6063
  795MOL0     H 7309   5.003   9.534  11.240  0.8245 -4.6485  1.9027
  795MOL0     H 7310   4.918   9.300  11.247 -0.4449 -1.1808 -0.5960
  795MOL0     H 7311   4.721   8.938  11.058 -0.0811 -2.2898  0.6624
  795MOL0     H 7312   4.559   8.763  10.998 -0.8417 -0.0695  0.0140
  795MOL0     H 7313   4.268   8.581  11.048 -0.3443 -0.7416  0.0564
  795MOL0     H 7314   4.413   8.634  10.966 -0.5188 -1.2101 -1.9824
  795MOL0     H 7315   4.147   8.739  10.863 -0.8679 -0.3872 -2.9714
  795MOL0     H 7316   4.195   8.580  10.837 -1.2373  0.6521  1.1828
  795MOL0     H 7317   4.406   8.670  10.722 -0.1448  0.3934 -1.7958
  795MOL0     H 7318   4.367   8.838  10.786  1.1333 -1.1746  0.9204
  795MOL0     H 7319   4.157   8.842  10.682  2.5424  0.8207  3.2533
  795MOL0     H 7320   4.296   8.884  10.592  0.1565  0.7361  2.2805
  795MOL0     H 7321   4.126   8.577  10.360 -2.7809  3.8185  0.3742
  795MOL0     H 7322   4.238   8.999  11.153  0.7974 -2.0340  3.7627
  795MOL0     H 7323   4.356   9.289  11.132 -0.7712 -3.3102 -2.5792
  795MOL0     H 7324   4.272   9.205  11.262 -0.2638 -1.2880 -0.5622
  795MOL0     H 7325   4.430   9.269  11.295 -0.8051  1.6356 -0.1430
  796MOL0     O 7326   3.106   7.504   0.169 -0.7603 -0.8117  0.1928
  796MOL0     C 7327   3.214   7.530   0.104 -0.5767  1.0300 -0.1705
  796MOL0     O 7328   3.241   7.645   0.038  0.1126  1.2449 -0.7084
  796MOL0     C 7329   3.168   7.761   0.061  0.4788  0.1280 -0.6607
  796MOL0     C 7330   3.130   7.806   0.189 -0.1486 -0.1618 -0.6171
  796MOL0     C 7331   3.061   7.925   0.206  1.1563  0.3748 -0.4121
  796MOL0     C 7332   3.029   8.007   0.091  0.5316 -0.1612  0.0726
  796MOL0     O 7333   2.958   8.128   0.097  0.2302  0.1715 -0.0639
  796MOL0     C 7334   2.886   8.152   0.222 -1.3431  0.1636  0.5031
  796MOL0     C 7335   2.788   8.274   0.204 -0.0366  0.5609  0.5964
  796MOL0     C 7336   2.667   8.263   0.109 -1.0080  0.0766  0.2215
  796MOL0     C 7337   2.567   8.161   0.176 -0.3176  0.0035 -0.4318
  796MOL0     C 7338   2.437   8.151   0.089 -0.0046  0.4147  0.5254
  796MOL0     C 7339   2.370   8.008   0.085 -0.5050 -0.8677 -0.7122
  796MOL0     C 7340   2.247   7.988  -0.007  0.0679  0.8009  0.4676
  796MOL0     C 7341   2.192   7.845   0.003 -0.8637  0.3670  0.6998
  796MOL0     N 7342   2.081   7.844   0.096 -0.5177  0.4440 -0.9769
  796MOL0     C 7343   1.948   7.821   0.070  0.7703  0.1567  0.0685
  796MOL0     C 7344   1.893   7.830   0.193 -0.4424  0.9749  0.1842
  796MOL0     C 7345   1.742   7.836   0.218 -0.5627 -0.9546 -0.6263
  796MOL0     C 7346   1.698   7.908   0.356  0.0406  1.5473  1.2986
  796MOL0     C 7347   1.547   7.876   0.367 -0.1034  0.9351  0.2238
  796MOL0     C 7348   1.490   7.864   0.514 -0.3423 -1.0025 -0.2096
  796MOL0     O 7349   1.540   7.742   0.570 -0.0354 -0.4876  0.0508
  796MOL0     C 7350   1.498   7.695   0.694  0.6381 -0.5065 -0.3309
  796MOL0     C 7351   1.393   7.760   0.770  0.9337  0.1205 -0.3462
  796MOL0     C 7352   1.354   7.686   0.885 -0.2285  1.1019  0.4245
  796MOL0     C 7353   1.405   7.561   0.922  0.8680 -0.4534 -0.0614
  796MOL0     C 7354   1.339   7.482   1.031  1.2592 -0.3243  1.4905
  796MOL0     O 7355   1.228   7.525   1.088  0.3751 -0.6310 -0.1218
  796MOL0     C 7356   1.165   7.450   1.186 -0.3138  0.5408  0.4877
  796MOL0     C 7357   1.117   7.531   1.294  0.6646  0.9945 -0.1600
  796MOL0     C 7358   1.056   7.458   1.401 -0.5602 -0.0760 -1.1211
  796MOL0     C 7359   1.046   7.317   1.397  0.9801  0.1484 -0.6302
  796MOL0     O 7360   0.978   7.269   1.508 -0.0134  0.3236  0.4775
  796MOL0     C 7361   0.969   7.122   1.526  0.0613  0.0204 -0.3114
  796MOL0     C 7362   1.103   7.067   1.562 -0.1758  0.5249  0.5186
  796MOL0     C 7363   1.080   6.919   1.593 -0.0263  0.3616  0.3981
  796MOL0     C 7364   1.129   6.831   1.477 -0.2279  0.2174 -0.0599
  796MOL0     C 7365   1.282   6.803   1.497  0.9896 -0.8394 -0.7649
  796MOL0     C 7366   1.328   6.681   1.411 -0.2979  0.3013 -0.1058
  796MOL0     C 7367   1.483   6.685   1.407  0.6766  0.3621  1.0534
  796MOL0     C 7368   1.548   6.554   1.445 -1.7972  0.0194  0.4196
  796MOL0    Cl 7369   1.728   6.543   1.477 -0.5863 -0.2339  0.6108
  796MOL0     C 7370   1.088   7.246   1.289 -0.7795  0.9113  0.1403
  796MOL0     C 7371   1.147   7.308   1.181  0.2355 -0.6831  0.3192
  796MOL0     O 7372   1.391   7.377   1.058 -0.2578 -0.8150 -0.3257
  796MOL0     C 7373   1.506   7.501   0.839  0.3342  0.1108 -0.4379
  796MOL0     C 7374   1.550   7.573   0.732 -0.9599  0.1003 -0.1202
  796MOL0     N 7375   1.991   7.852   0.284 -0.4343 -0.9279  0.5974
  796MOL0     N 7376   2.110   7.849   0.233  0.0320 -1.0314 -0.5820
  796MOL0     C 7377   3.077   7.964  -0.033  0.5216  0.2965 -0.2238
  796MOL0     C 7378   3.126   7.840  -0.052 -0.2283 -0.3733  0.2989
  796MOL0     C 7379   3.294   7.397   0.088  0.1313 -0.8953  0.0534
  796MOL0     C 7380   3.275   7.287   0.165 -0.2527  0.3812 -0.2402
  796MOL0     C 7381   3.337   7.162   0.127 -0.4133  0.4694 -0.0199
  796MOL0     C 7382   3.427   7.144   0.024  0.7180  0.8333  0.5133
  796MOL0     O 7383   3.496   7.023   0.007 -0.0797 -0.1179  0.4249
  796MOL0     C 7384   3.591   7.011  -0.103 -0.0282  0.3452 -0.5949
  796MOL0     C 7385   3.529   7.007  -0.241  0.0392  0.1483 -0.4330
  796MOL0     C 7386   3.628   6.963  -0.352  1.0595  0.1015 -0.3210
  796MOL0     C 7387   3.708   6.836  -0.324  0.4986  0.2988  0.2670
  796MOL0     C 7388   3.759   6.783  -0.454 -0.1499 -0.2324 -0.3187
  796MOL0     C 7389   3.804   6.746  -0.560 -0.6881 -0.1863  0.0000
  796MOL0     C 7390   3.463   7.271  -0.033 -1.3654  0.2301 -0.2857
  796MOL0     C 7391   3.396   7.388  -0.012  0.3016 -0.7549  0.0585
  796MOL0     C 7392   3.438   7.502  -0.109  0.0526  0.5118 -0.0277
  796MOL0     H 7393   3.134   7.745   0.278  2.3054 -3.1328 -2.5589
  796MOL0     H 7394   3.028   7.952   0.306  0.7739 -1.5138  0.0096
  796MOL0     H 7395   2.831   8.059   0.239 -0.1467 -0.0447  3.9336
  796MOL0     H 7396   2.955   8.173   0.304 -0.6401  4.8532 -0.9838
  796MOL0     H 7397   2.845   8.356   0.160 -2.6659  1.2575 -1.7876
  796MOL0     H 7398   2.751   8.314   0.299 -2.1767  0.0320  0.0498
  796MOL0     H 7399   2.709   8.223   0.016  1.0391  0.6787  0.8277
  796MOL0     H 7400   2.625   8.361   0.085  0.9967  0.7072 -0.9360
  796MOL0     H 7401   2.624   8.071   0.200  2.2665  2.1118  2.0641
  796MOL0     H 7402   2.547   8.201   0.275 -2.8702 -1.1573 -0.3929
  796MOL0     H 7403   2.362   8.231   0.096 -1.4300 -0.4948 -2.4201
  796MOL0     H 7404   2.487   8.150  -0.008 -3.1800  1.1760 -1.2549
  796MOL0     H 7405   2.449   7.933   0.072  1.4478  0.9821 -0.0346
  796MOL0     H 7406   2.329   7.993   0.186 -1.9819 -0.3811 -1.2107
  796MOL0     H 7407   2.255   8.011  -0.113 -1.4407  1.1545  0.4084
  796MOL0     H 7408   2.166   8.048   0.036 -0.0678  0.7965  0.2170
  796MOL0     H 7409   2.164   7.802  -0.094 -0.1114  0.2092  0.5525
  796MOL0     H 7410   2.265   7.778   0.049 -1.2733 -0.1597  0.5934
  796MOL0     H 7411   1.894   7.795  -0.020 -1.9246  1.1060  1.2910
  796MOL0     H 7412   1.678   7.882   0.143 -0.9110  0.7066  0.6400
  796MOL0     H 7413   1.719   7.729   0.227  0.2778 -1.0190  1.0841
  796MOL0     H 7414   1.760   7.872   0.438  0.7362  0.0234  0.1397
  796MOL0     H 7415   1.710   8.017   0.366 -1.2273  1.5064  4.1571
  796MOL0     H 7416   1.510   7.788   0.314  2.5308  0.6709 -1.3785
  796MOL0     H 7417   1.493   7.968   0.341 -0.7511  1.0782  1.9392
  796MOL0     H 7418   1.381   7.860   0.524 -0.2734 -1.1204  0.5213
  796MOL0     H 7419   1.523   7.957   0.562 -2.0070  0.6592 -2.0954
  796MOL0     H 7420   1.344   7.856   0.758 -2.5134 -1.4477  0.1000
  796MOL0     H 7421   1.270   7.731   0.937  0.7157 -1.5578  4.7318
  796MOL0     H 7422   1.144   7.636   1.294  3.4852  0.4658  3.6344
  796MOL0     H 7423   1.010   7.500   1.490  1.8509 -1.5758  0.9779
  796MOL0     H 7424   0.905   7.103   1.612  0.3845 -1.9382 -0.4640
  796MOL0     H 7425   0.923   7.074   1.439 -1.4819 -2.0904  1.5680
  796MOL0     H 7426   1.179   7.082   1.485 -1.1585 -1.1907 -0.8747
  796MOL0     H 7427   1.137   7.122   1.650  1.1096 -0.6925  0.8197
  796MOL0     H 7428   1.143   6.904   1.681  1.5172 -1.2076 -0.9098
  796MOL0     H 7429   0.976   6.891   1.613  0.0849 -0.3135  0.0346
  796MOL0     H 7430   1.115   6.882   1.381  1.6428 -3.7267 -2.7387
  796MOL0     H 7431   1.062   6.745   1.468 -4.4250  3.0939  0.7231
  796MOL0     H 7432   1.299   6.787   1.604 -0.6057 -2.4607 -0.6984
  796MOL0     H 7433   1.341   6.887   1.460  0.9322 -0.7695 -0.6966
  796MOL0     H 7434   1.302   6.583   1.453 -1.9229  1.6484  2.3223
  796MOL0     H 7435   1.288   6.691   1.310 -0.6040 -0.2064 -0.0404
  796MOL0     H 7436   1.519   6.771   1.465 -0.0744 -0.7441  3.2770
  796MOL0     H 7437   1.506   6.708   1.302 -3.2256  1.5030  0.2691
  796MOL0     H 7438   1.502   6.516   1.536  0.2091 -3.3386  0.2086
  796MOL0     H 7439   1.522   6.485   1.365 -0.6303  0.1590 -0.1136
  796MOL0     H 7440   1.074   7.138   1.289 -1.3530  0.9781  0.7747
  796MOL0     H 7441   1.187   7.242   1.104 -1.5265 -0.4536 -0.8581
  796MOL0     H 7442   1.546   7.400   0.846 -0.1938 -0.1932 -1.5461
  796MOL0     H 7443   1.618   7.529   0.660  0.0621  0.8338  0.3714
  796MOL0     H 7444   3.072   8.031  -0.119  3.0917 -0.6059 -1.1610
  796MOL0     H 7445   3.151   7.817  -0.155  0.6711  2.6273 -0.2586
  796MOL0     H 7446   3.196   7.303   0.238  0.5787  3.2297  0.1945
  796MOL0     H 7447   3.304   7.081   0.191 -0.9272  1.5526  1.1526
  796MOL0     H 7448   3.656   6.926  -0.077 -2.3611 -1.1546  0.7187
  796MOL0     H 7449   3.662   7.094  -0.103  3.6162 -2.4714  0.0117
  796MOL0     H 7450   3.477   7.100  -0.263 -1.6828 -0.1235  2.0504
  796MOL0     H 7451   3.452   6.929  -0.242  2.4854 -2.4196 -0.8345
  796MOL0     H 7452   3.696   7.047  -0.370  0.2356  1.4345  2.3182
  796MOL0     H 7453   3.570   6.955  -0.444 -2.3051 -0.5063  1.7123
  796MOL0     H 7454   3.790   6.840  -0.252  0.3008  3.1163  0.4406
  796MOL0     H 7455   3.633   6.765  -0.286 -0.5512  1.2386  0.0141
  796MOL0     H 7456   3.852   6.715  -0.651  1.9988 -0.0990  1.3183
  796MOL0     H 7457   3.542   7.276  -0.107  0.1338  2.0836  1.2973
  796MOL0     H 7458   3.526   7.554  -0.070  0.4311 -0.1643  0.0196
  796MOL0     H 7459   3.477   7.457  -0.201 -0.1095 -3.4537  1.6514
  796MOL0     H 7460   3.357   7.573  -0.127  0.3832  2.0539  3.6831
  797MOL0     O 7461   4.267   3.168   3.056 -0.2389  0.3010 -1.0354
  797MOL0     C 7462   4.195   3.092   3.123 -0.2821 -0.2374 -0.8314
  797MOL0     O 7463   4.080   3.042   3.082  0.4508  0.0517  0.6790
  797MOL0     C 7464   4.042   3.080   2.956  0.7323 -0.1735  0.3639
  797MOL0     C 7465   3.996   3.218   2.931 -1.1359  0.2985 -0.1379
  797MOL0     C 7466   3.950   3.265   2.809 -0.5059  1.3721 -0.4451
  797MOL0     C 7467   3.935   3.165   2.709 -0.2964  0.0163  0.3229
  797MOL0     O 7468   3.888   3.210   2.592  0.5374  0.8218 -0.1886
  797MOL0     C 7469   3.915   3.152   2.467 -0.4838 -0.0280  0.4924
  797MOL0     C 7470   3.802   3.164   2.361  0.1853 -0.4783  0.6512
  797MOL0     C 7471   3.840   3.125   2.218  0.6125 -0.1032  0.9702
  797MOL0     C 7472   3.899   3.246   2.147 -0.6264  0.8069  0.1445
  797MOL0     C 7473   3.948   3.214   2.000 -0.6428  0.6041  1.4036
  797MOL0     C 7474   3.838   3.187   1.897 -0.3083 -0.1581  0.0949
  797MOL0     C 7475   3.755   3.312   1.857  0.6221 -0.5360 -0.1327
  797MOL0     C 7476   3.659   3.290   1.742  0.8857 -1.6894 -0.5475
  797MOL0     N 7477   3.536   3.217   1.776  0.2397 -0.8466 -1.0706
  797MOL0     C 7478   3.466   3.232   1.901  0.2419  0.1528 -0.6264
  797MOL0     C 7479   3.355   3.157   1.888 -0.1366 -0.9831 -0.0766
  797MOL0     C 7480   3.241   3.147   1.996 -0.0421  0.7727 -0.5168
  797MOL0     C 7481   3.298   3.087   2.124 -0.3204  0.2894  0.0813
  797MOL0     C 7482   3.185   3.085   2.229  0.4931 -0.2900 -0.0760
  797MOL0     C 7483   3.225   3.013   2.354  0.2492 -0.1972  0.1807
  797MOL0     O 7484   3.287   3.100   2.455 -0.2512  0.3032  0.8352
  797MOL0     C 7485   3.343   3.034   2.564  0.3562  0.3630 -0.1562
  797MOL0     C 7486   3.278   3.040   2.688  0.6153 -0.4825  0.1073
  797MOL0     C 7487   3.319   2.965   2.798 -1.2515 -0.5644 -0.7530
  797MOL0     C 7488   3.437   2.887   2.800  0.3066  0.0288  0.7765
  797MOL0     C 7489   3.484   2.808   2.915  0.5192 -0.0294 -0.2181
  797MOL0     O 7490   3.613   2.764   2.922  0.2699 -0.6873  0.8511
  797MOL0     C 7491   3.649   2.704   3.031 -0.1748 -0.0417 -0.2425
  797MOL0     C 7492   3.772   2.747   3.098 -0.0105 -0.7594 -0.1197
  797MOL0     C 7493   3.850   2.678   3.180  0.6767  0.0086 -0.3263
  797MOL0     C 7494   3.819   2.543   3.199  0.1906  0.4499 -0.3303
  797MOL0     O 7495   3.894   2.452   3.274 -0.6491  0.0518  0.0285
  797MOL0     C 7496   3.984   2.506   3.371  1.0388  0.3072 -0.2881
  797MOL0     C 7497   4.003   2.394   3.479  0.5399  0.0988 -0.8311
  797MOL0     C 7498   4.132   2.407   3.553 -0.5155 -0.0937  0.8183
  797MOL0     C 7499   4.151   2.287   3.652  0.5572  0.5184  0.0680
  797MOL0     C 7500   4.291   2.280   3.719 -0.6411  0.3228  0.0667
  797MOL0     C 7501   4.406   2.247   3.616 -0.5717  0.6335  0.4872
  797MOL0     C 7502   4.527   2.196   3.692  0.1554 -0.4008  1.2330
  797MOL0     C 7503   4.570   2.285   3.812  1.1529 -0.4143  0.7684
  797MOL0    Cl 7504   4.642   2.424   3.751 -0.0207 -0.0320  0.0824
  797MOL0     C 7505   3.698   2.495   3.140 -0.3049  0.8357 -0.4097
  797MOL0     C 7506   3.618   2.577   3.056 -0.1588  0.8870  0.2916
  797MOL0     O 7507   3.391   2.780   2.997 -0.2116  0.1002  0.2243
  797MOL0     C 7508   3.499   2.879   2.668  0.3759 -1.2813 -0.1338
  797MOL0     C 7509   3.464   2.957   2.558 -0.2517 -0.3898  0.9619
  797MOL0     N 7510   3.363   3.094   1.761  1.1616  0.1207 -0.2202
  797MOL0     N 7511   3.464   3.135   1.697  0.1194 -0.3554 -0.5682
  797MOL0     C 7512   3.975   3.028   2.730  0.3741  0.0456  0.2027
  797MOL0     C 7513   4.024   2.980   2.857 -1.1170  0.2183  1.0039
  797MOL0     C 7514   4.246   3.028   3.249 -0.6019 -0.2803  0.7508
  797MOL0     C 7515   4.261   2.887   3.252  0.4804  0.5915  0.1599
  797MOL0     C 7516   4.311   2.817   3.366  0.8901 -0.3605 -0.4029
  797MOL0     C 7517   4.340   2.902   3.480 -0.0803 -0.3683  0.0149
  797MOL0     O 7518   4.387   2.835   3.588  0.5775  0.6453  0.4103
  797MOL0     C 7519   4.469   2.907   3.681 -0.6003 -0.6439 -0.6845
  797MOL0     C 7520   4.526   2.796   3.773  0.1808  0.3574 -0.1050
  797MOL0     C 7521   4.450   2.774   3.899 -0.3835  0.5733  0.8761
  797MOL0     C 7522   4.488   2.653   3.989  0.9799  0.1677 -0.6306
  797MOL0     C 7523   4.399   2.638   4.106 -0.1461  0.6050  0.9705
  797MOL0     C 7524   4.329   2.611   4.204 -0.6958  0.1270  0.3146
  797MOL0     C 7525   4.342   3.038   3.472 -0.5659  0.0697 -0.8796
  797MOL0     C 7526   4.290   3.101   3.362 -0.5297 -0.7881  0.0098
  797MOL0     C 7527   4.280   3.251   3.363  0.0894 -0.8070  0.9017
  797MOL0     H 7528   3.978   3.289   3.011 -1.0640 -1.3508  1.4002
  797MOL0     H 7529   3.935   3.372   2.793  4.6271  2.6128  1.0159
  797MOL0     H 7530   3.993   3.210   2.416 -2.4830  1.6252 -0.8376
  797MOL0     H 7531   3.941   3.046   2.473 -0.5745 -0.0827 -0.0371
  797MOL0     H 7532   3.757   3.264   2.362 -0.4961 -0.7730 -0.0288
  797MOL0     H 7533   3.720   3.110   2.409  0.8255 -0.8103  1.4011
  797MOL0     H 7534   3.750   3.090   2.165  3.6454 -3.8914 -2.3697
  797MOL0     H 7535   3.913   3.043   2.221 -0.7797 -1.5410 -0.9361
  797MOL0     H 7536   3.825   3.327   2.146  0.7882  2.1524 -1.3860
  797MOL0     H 7537   3.989   3.288   2.193  1.6763 -1.2836 -2.0980
  797MOL0     H 7538   4.006   3.299   1.964 -1.1100 -0.6018 -2.7031
  797MOL0     H 7539   4.011   3.125   2.011  0.7221  1.3536 -0.0608
  797MOL0     H 7540   3.884   3.152   1.804 -0.1296 -0.7509  0.4047
  797MOL0     H 7541   3.778   3.104   1.934 -0.3211  1.0890  3.1976
  797MOL0     H 7542   3.824   3.388   1.821 -2.6431  1.6987 -2.2023
  797MOL0     H 7543   3.711   3.357   1.946  2.5687 -1.0164  1.1533
  797MOL0     H 7544   3.620   3.389   1.718  1.6483 -1.0394  0.7966
  797MOL0     H 7545   3.711   3.241   1.659 -0.1132 -2.9729 -0.4523
  797MOL0     H 7546   3.495   3.285   1.991  3.0291 -2.2493  0.0527
  797MOL0     H 7547   3.184   3.239   2.015 -0.4802  0.5607 -0.7999
  797MOL0     H 7548   3.168   3.075   1.959  1.4075 -0.6394 -0.7414
  797MOL0     H 7549   3.315   2.982   2.098 -1.6602  0.5253 -2.0313
  797MOL0     H 7550   3.382   3.144   2.165 -0.1382 -1.0941  1.7869
  797MOL0     H 7551   3.096   3.041   2.183  0.8295 -1.0614 -0.0074
  797MOL0     H 7552   3.164   3.186   2.266  2.7651 -0.7540  2.9044
  797MOL0     H 7553   3.289   2.928   2.330  2.6734  1.3570  0.8523
  797MOL0     H 7554   3.131   2.979   2.399  0.4580  0.5257  1.1912
  797MOL0     H 7555   3.202   3.115   2.709  1.7642  0.3584  1.5061
  797MOL0     H 7556   3.270   2.975   2.895 -0.9460  0.7253 -0.7069
  797MOL0     H 7557   3.815   2.837   3.056  0.1917 -0.3077  0.9992
  797MOL0     H 7558   3.943   2.720   3.216  0.4638  0.7761 -0.6557
  797MOL0     H 7559   4.075   2.550   3.331  1.5521 -0.4984 -0.0358
  797MOL0     H 7560   3.943   2.594   3.421 -1.2536 -1.4061  1.0368
  797MOL0     H 7561   3.929   2.407   3.558 -0.4652 -0.1838 -1.6963
  797MOL0     H 7562   3.996   2.296   3.431  3.8207 -0.9150  0.4619
  797MOL0     H 7563   4.212   2.402   3.479 -1.2972 -2.2587  0.0303
  797MOL0     H 7564   4.137   2.501   3.609  1.8944  0.9331 -0.9522
  797MOL0     H 7565   4.138   2.186   3.613 -0.8856 -0.0661  1.8819
  797MOL0     H 7566   4.067   2.294   3.722 -0.6659  1.5710 -1.4323
  797MOL0     H 7567   4.291   2.201   3.794  0.2003  0.5630  0.3301
  797MOL0     H 7568   4.311   2.378   3.764 -3.3185 -0.3427  3.0671
  797MOL0     H 7569   4.383   2.173   3.538  0.3805  0.1392  0.6558
  797MOL0     H 7570   4.431   2.337   3.559  1.5352 -0.0929  0.1588
  797MOL0     H 7571   4.609   2.189   3.621  0.0387  0.8952  0.9427
  797MOL0     H 7572   4.496   2.097   3.728 -2.1391 -0.0049  0.4981
  797MOL0     H 7573   4.483   2.305   3.874 -0.7481  3.9089 -2.7267
  797MOL0     H 7574   4.642   2.228   3.870 -0.3750 -0.8474  2.3156
  797MOL0     H 7575   3.675   2.389   3.147  1.8273  0.3606  0.1395
  797MOL0     H 7576   3.539   2.532   2.996 -1.4222 -0.5236  2.8197
  797MOL0     H 7577   3.579   2.806   2.659 -0.4744 -2.3564  0.6906
  797MOL0     H 7578   3.518   2.964   2.464 -0.7257 -0.6012  0.6693
  797MOL0     H 7579   3.963   2.946   2.661 -2.5727  1.4989 -1.1905
  797MOL0     H 7580   4.046   2.875   2.872  2.9150  0.4073 -2.0125
  797MOL0     H 7581   4.236   2.831   3.162 -0.3509  1.9830 -0.5027
  797MOL0     H 7582   4.319   2.708   3.366  0.7668 -0.4169 -2.9176
  797MOL0     H 7583   4.410   2.979   3.738  2.6681  1.9097 -0.2969
  797MOL0     H 7584   4.554   2.959   3.638  1.1591 -0.7078  2.4260
  797MOL0     H 7585   4.628   2.812   3.809  0.1761 -0.5348  0.3225
  797MOL0     H 7586   4.536   2.701   3.719  0.4878 -1.3569  2.7849
  797MOL0     H 7587   4.350   2.763   3.858  0.4334  2.4862 -1.9248
  797MOL0     H 7588   4.454   2.863   3.963 -2.1412  0.7272  0.8114
  797MOL0     H 7589   4.486   2.560   3.933 -1.4831 -0.7783  0.8630
  797MOL0     H 7590   4.588   2.668   4.030  1.6271  3.9992 -3.0986
  797MOL0     H 7591   4.264   2.572   4.280  0.0473  0.1257  0.9540
  797MOL0     H 7592   4.370   3.107   3.551  2.2150 -0.9973 -0.7839
  797MOL0     H 7593   4.385   3.283   3.360 -0.5246  1.2965 -1.7533
  797MOL0     H 7594   4.226   3.295   3.279 -1.8989 -3.0598  0.8953
  797MOL0     H 7595   4.224   3.284   3.451  0.4610 -3.2595  2.1442
  798MOL0     O 7596   0.004   4.282   1.012  0.6556 -0.2076 -0.6441
  798MOL0     C 7597  -0.043   4.392   0.983 -0.1427  0.1925 -0.7963
  798MOL0     O 7598  -0.109   4.467   1.073  0.1364  0.4855 -0.0326
  798MOL0     C 7599  -0.131   4.418   1.198 -0.5373  0.3534 -0.7629
  798MOL0     C 7600  -0.248   4.441   1.263 -0.0525  0.1326 -0.1360
  798MOL0     C 7601  -0.274   4.390   1.393 -0.6478  0.3668 -1.0433
  798MOL0     C 7602  -0.195   4.292   1.454  0.9076  0.1772 -0.4956
  798MOL0     O 7603  -0.233   4.229   1.567  0.2068 -0.9954 -0.1186
  798MOL0     C 7604  -0.374   4.251   1.603  0.8546 -0.0886 -0.0265
  798MOL0     C 7605  -0.400   4.362   1.706 -0.1681  0.5049 -0.3125
  798MOL0     C 7606  -0.545   4.378   1.735  0.6182  0.0489  0.5824
  798MOL0     C 7607  -0.571   4.461   1.861 -0.1950  0.2625 -0.4029
  798MOL0     C 7608  -0.722   4.461   1.917 -0.0084 -0.1661  0.0680
  798MOL0     C 7609  -0.741   4.574   2.019 -0.3428  0.1581  0.6335
  798MOL0     C 7610  -0.885   4.554   2.079  0.2592 -0.3136  0.2256
  798MOL0     C 7611  -0.939   4.663   2.178 -1.0154  0.8556 -0.3489
  798MOL0     N 7612  -0.925   4.801   2.129 -0.0241 -0.5854  0.3440
  798MOL0     C 7613  -0.816   4.876   2.166  0.2381 -0.2052 -0.2579
  798MOL0     C 7614  -0.849   5.002   2.158 -0.2143 -1.4586 -0.2833
  798MOL0     C 7615  -0.755   5.118   2.170  0.2512  0.2510 -0.7840
  798MOL0     C 7616  -0.818   5.251   2.165 -0.0572 -0.4709  0.8921
  798MOL0     C 7617  -0.910   5.266   2.285  0.3162 -0.7020 -0.2974
  798MOL0     C 7618  -0.948   5.407   2.298 -0.8023  0.0119 -0.1785
  798MOL0     O 7619  -1.043   5.441   2.197  0.0502 -0.0296 -0.7728
  798MOL0     C 7620  -1.061   5.566   2.144  0.3076  0.6495 -0.1230
  798MOL0     C 7621  -0.995   5.683   2.180 -0.1287 -0.3766  0.0707
  798MOL0     C 7622  -1.047   5.809   2.132 -0.6757  0.5265 -1.1510
  798MOL0     C 7623  -1.151   5.816   2.043  1.0051  1.5229  0.4989
  798MOL0     C 7624  -1.189   5.949   1.996 -0.4634 -0.2891 -0.9845
  798MOL0     O 7625  -1.160   6.062   2.073 -0.3451 -0.1490 -0.1456
  798MOL0     C 7626  -1.218   6.182   2.053  0.1709 -0.5259 -0.1179
  798MOL0     C 7627  -1.281   6.249   2.159 -0.2671  0.5153  0.0683
  798MOL0     C 7628  -1.351   6.369   2.140 -0.0412  1.1413  0.3140
  798MOL0     C 7629  -1.340   6.431   2.017  0.0006  0.2838  0.2229
  798MOL0     O 7630  -1.413   6.544   1.978 -0.7341 -0.6449  0.1808
  798MOL0     C 7631  -1.333   6.666   1.954  0.6306  0.4133 -1.1853
  798MOL0     C 7632  -1.390   6.763   2.058  0.1203  0.3775  0.6874
  798MOL0     C 7633  -1.536   6.815   2.020 -0.2355  0.7657 -1.5803
  798MOL0     C 7634  -1.603   6.884   2.150  0.1646  0.2563  0.1538
  798MOL0     C 7635  -1.546   7.021   2.186 -0.6347  0.4630  0.2846
  798MOL0     C 7636  -1.608   7.082   2.315  0.3604  0.4622  0.7286
  798MOL0     C 7637  -1.538   7.204   2.360  0.4335  0.5279 -0.4593
  798MOL0     C 7638  -1.611   7.251   2.486 -1.2187  0.0769  0.0156
  798MOL0    Cl 7639  -1.774   7.322   2.432 -0.2769  0.2901  0.2386
  798MOL0     C 7640  -1.264   6.369   1.918 -0.4019 -0.8287 -0.1240
  798MOL0     C 7641  -1.199   6.253   1.940 -0.8667  0.3002 -0.4821
  798MOL0     O 7642  -1.238   5.956   1.887  0.3516  0.1873  0.0325
  798MOL0     C 7643  -1.210   5.694   2.007 -0.8110 -1.2415  0.6066
  798MOL0     C 7644  -1.167   5.578   2.051  0.3745 -0.9554 -0.0870
  798MOL0     N 7645  -0.976   5.013   2.106  0.7976 -0.6211 -0.3872
  798MOL0     N 7646  -1.023   4.894   2.090  0.0736  0.3198 -0.5245
  798MOL0     C 7647  -0.074   4.271   1.401 -0.8226 -0.2840  0.4148
  798MOL0     C 7648  -0.038   4.336   1.278  0.2674 -0.4546  0.7668
  798MOL0     C 7649  -0.024   4.448   0.846 -0.1117 -0.1869 -0.1367
  798MOL0     C 7650  -0.003   4.589   0.830 -0.1084 -0.8657  0.2186
  798MOL0     C 7651   0.030   4.642   0.702  0.1620  0.5239  0.1547
  798MOL0     C 7652   0.029   4.564   0.599 -0.2202 -0.4957  0.1774
  798MOL0     O 7653   0.084   4.608   0.484 -0.2526  0.2240  1.0774
  798MOL0     C 7654   0.182   4.524   0.426 -1.0560 -0.2831 -0.2931
  798MOL0     C 7655   0.262   4.606   0.318  0.3217  0.3727 -0.4608
  798MOL0     C 7656   0.378   4.539   0.266 -1.0060  1.1600 -0.0129
  798MOL0     C 7657   0.424   4.584   0.128 -1.1096  0.0208  0.2760
  798MOL0     C 7658   0.498   4.484   0.057  0.1676 -0.2777 -0.8275
  798MOL0     C 7659   0.550   4.398  -0.003 -0.1119  0.8061 -0.6669
  798MOL0     C 7660  -0.025   4.433   0.599  0.2308 -0.4588  0.0781
  798MOL0     C 7661  -0.044   4.375   0.729  0.6981 -0.2401  0.9435
  798MOL0     C 7662  -0.065   4.220   0.719 -0.4725  0.9805 -0.9063
  798MOL0     H 7663  -0.327   4.505   1.227 -2.1911 -0.6298  2.7954
  798MOL0     H 7664  -0.371   4.421   1.431 -1.4971 -0.0769 -2.7706
  798MOL0     H 7665  -0.443   4.266   1.520  1.1685  0.2256 -0.2330
  798MOL0     H 7666  -0.426   4.170   1.655 -2.4159 -0.1651 -3.0799
  798MOL0     H 7667  -0.354   4.456   1.673  0.5194  0.1270 -0.4342
  798MOL0     H 7668  -0.345   4.322   1.792 -1.2746 -1.4185 -0.4404
  798MOL0     H 7669  -0.589   4.280   1.753  1.0520 -0.5170 -1.2538
  798MOL0     H 7670  -0.599   4.413   1.646 -0.0548 -3.0000 -0.3017
  798MOL0     H 7671  -0.501   4.426   1.938  0.3894  1.2538 -0.4597
  798MOL0     H 7672  -0.538   4.564   1.841  0.9603  0.0959  0.5330
  798MOL0     H 7673  -0.784   4.480   1.829  0.4644 -0.3940 -0.3215
  798MOL0     H 7674  -0.741   4.358   1.947  0.0155 -0.7742 -1.8802
  798MOL0     H 7675  -0.661   4.571   2.094  1.7226 -0.8151 -1.4624
  798MOL0     H 7676  -0.750   4.671   1.968  0.9257  0.1781  0.3995
  798MOL0     H 7677  -0.893   4.450   2.113 -1.7453 -0.8908 -1.7513
  798MOL0     H 7678  -0.949   4.544   1.991  2.5293 -4.7419 -1.2224
  798MOL0     H 7679  -1.044   4.637   2.192 -1.1993  1.5941 -0.3453
  798MOL0     H 7680  -0.892   4.642   2.275  1.9714 -0.1130 -1.8898
  798MOL0     H 7681  -0.735   4.828   2.221  0.6326 -0.4241 -1.0207
  798MOL0     H 7682  -0.701   5.109   2.265  1.2281 -1.0749 -1.4350
  798MOL0     H 7683  -0.686   5.100   2.087  0.6731 -1.4369 -0.1140
  798MOL0     H 7684  -0.743   5.330   2.160 -1.0345  0.4145 -2.3720
  798MOL0     H 7685  -0.880   5.263   2.076  2.5859  2.0991 -0.7625
  798MOL0     H 7686  -0.854   5.243   2.376  2.0039  1.4183 -0.7050
  798MOL0     H 7687  -1.001   5.208   2.292 -1.3852  2.0175  2.4468
  798MOL0     H 7688  -0.859   5.472   2.301  1.7890 -3.3085  0.6296
  798MOL0     H 7689  -1.001   5.425   2.391  0.4377 -2.7132  1.1511
  798MOL0     H 7690  -0.915   5.676   2.253  0.1801  0.5438 -0.1652
  798MOL0     H 7691  -0.988   5.896   2.159  2.5712 -0.5736 -4.0646
  798MOL0     H 7692  -1.289   6.206   2.258  1.3890 -0.8359 -0.3451
  798MOL0     H 7693  -1.394   6.426   2.222  1.7666  3.1136 -0.0098
  798MOL0     H 7694  -1.227   6.642   1.970  0.2528 -1.1059 -0.7396
  798MOL0     H 7695  -1.351   6.708   1.855  1.1167  2.5627 -0.4058
  798MOL0     H 7696  -1.384   6.723   2.160 -3.4350 -0.7484  0.5807
  798MOL0     H 7697  -1.326   6.852   2.052 -0.5139  0.7555 -1.5549
  798MOL0     H 7698  -1.537   6.867   1.924 -2.8655 -0.6475 -2.4089
  798MOL0     H 7699  -1.588   6.719   2.009  2.1713 -1.2484  2.2273
  798MOL0     H 7700  -1.599   6.811   2.231  1.0819  1.3554  1.1337
  798MOL0     H 7701  -1.710   6.899   2.130  0.0337  0.3997  0.9067
  798MOL0     H 7702  -1.568   7.093   2.107 -1.5139 -0.3895 -0.2639
  798MOL0     H 7703  -1.438   7.003   2.194 -0.6414 -0.8780 -1.8040
  798MOL0     H 7704  -1.714   7.104   2.300  0.4633 -0.0457 -0.8826
  798MOL0     H 7705  -1.609   7.017   2.403 -1.7550  2.4832  2.3653
  798MOL0     H 7706  -1.536   7.295   2.300 -1.3233  0.8845 -0.0559
  798MOL0     H 7707  -1.438   7.170   2.386  1.3289  2.2387 -1.5110
  798MOL0     H 7708  -1.618   7.166   2.554  1.8118 -1.4759 -1.3939
  798MOL0     H 7709  -1.555   7.329   2.538 -1.3626 -0.0048  0.2915
  798MOL0     H 7710  -1.255   6.407   1.817  1.4529 -0.8420  0.0030
  798MOL0     H 7711  -1.161   6.194   1.857 -3.4192 -1.9668 -0.1783
  798MOL0     H 7712  -1.295   5.692   1.939 -1.8148 -0.0053  1.7754
  798MOL0     H 7713  -1.208   5.485   2.012  0.4031 -0.1541 -2.1911
  798MOL0     H 7714  -0.010   4.204   1.457  0.2928  1.6977  1.6401
  798MOL0     H 7715   0.057   4.318   1.229  0.5782 -0.0967  1.2347
  798MOL0     H 7716  -0.005   4.661   0.911  1.3125  0.2556 -0.6879
  798MOL0     H 7717   0.048   4.748   0.690  3.5804 -0.1726 -1.8802
  798MOL0     H 7718   0.119   4.449   0.378 -2.6230  0.4232  0.5721
  798MOL0     H 7719   0.251   4.486   0.502  0.7050  2.8392 -0.1595
  798MOL0     H 7720   0.284   4.700   0.370  3.3939 -0.6402  0.2863
  798MOL0     H 7721   0.187   4.614   0.239 -1.7309  0.9649  1.4575
  798MOL0     H 7722   0.352   4.434   0.259  2.7268 -0.0710  1.6238
  798MOL0     H 7723   0.457   4.553   0.341 -1.7284  3.9845  0.3474
  798MOL0     H 7724   0.333   4.609   0.074  0.1079  3.2751 -0.5318
  798MOL0     H 7725   0.483   4.676   0.122  1.4022 -1.5769 -2.4984
  798MOL0     H 7726   0.614   4.321  -0.039  2.3423  1.4122  2.0275
  798MOL0     H 7727  -0.031   4.369   0.512  0.5039 -1.7525  0.9916
  798MOL0     H 7728  -0.102   4.167   0.807 -0.6507  4.8358  1.6154
  798MOL0     H 7729  -0.144   4.204   0.646 -0.8677  1.0839 -0.5078
  798MOL0     H 7730   0.020   4.164   0.679  0.5100  0.7030  1.3749
  799MOL0     O 7731  10.175   5.070   0.338 -0.0177  0.7188 -0.0549
  799MOL0     C 7732  10.202   5.139   0.437 -0.6255 -0.0077  1.1502
  799MOL0     O 7733  10.212   5.278   0.425  0.6607  0.7458 -0.2786
  799MOL0     C 7734  10.202   5.327   0.305  0.4611  0.4332  1.0457
  799MOL0     C 7735  10.311   5.324   0.215 -0.2270 -1.4906 -0.8097
  799MOL0     C 7736  10.294   5.373   0.084  0.1172  0.5705 -1.1264
  799MOL0     C 7737  10.174   5.424   0.044 -0.0040  0.2224  0.6590
  799MOL0     O 7738  10.174   5.456  -0.095  0.2846 -0.5660 -0.8485
  799MOL0     C 7739  10.058   5.531  -0.127  0.3482  0.2162  0.2158
  799MOL0     C 7740  10.078   5.590  -0.263  0.7060  0.4549  0.3695
  799MOL0     C 7741   9.963   5.560  -0.361  0.8382  0.1199 -0.9762
  799MOL0     C 7742   9.954   5.617  -0.501 -0.4034 -0.4634  0.4520
  799MOL0     C 7743   9.879   5.538  -0.603  0.5647 -0.1570  0.3135
  799MOL0     C 7744   9.723   5.549  -0.583  1.2188  0.0445 -0.0888
  799MOL0     C 7745   9.637   5.421  -0.599  0.0897 -0.4871  1.1528
  799MOL0     C 7746   9.621   5.370  -0.749 -0.4918 -0.1091 -0.7208
  799MOL0     N 7747   9.557   5.237  -0.740  0.7798 -0.8078 -0.1290
  799MOL0     C 7748   9.440   5.206  -0.657 -1.3696 -0.7007 -0.2868
  799MOL0     C 7749   9.436   5.072  -0.670 -0.5070 -0.6557  0.1533
  799MOL0     C 7750   9.342   4.978  -0.612  0.1634 -0.5772 -0.3200
  799MOL0     C 7751   9.376   4.934  -0.473 -0.5003 -0.0254  0.4706
  799MOL0     C 7752   9.292   4.815  -0.412 -0.5498 -0.0201  0.2592
  799MOL0     C 7753   9.341   4.675  -0.466 -0.2049  1.3162  0.0545
  799MOL0     O 7754   9.303   4.633  -0.603 -0.8902  0.1048 -0.0049
  799MOL0     C 7755   9.175   4.597  -0.631 -0.2057 -0.0200  0.0700
  799MOL0     C 7756   9.152   4.568  -0.768  0.5105 -0.8830 -0.6766
  799MOL0     C 7757   9.026   4.530  -0.815  0.2122 -0.1343  0.5536
  799MOL0     C 7758   8.921   4.528  -0.723 -0.0410  0.0252  0.4427
  799MOL0     C 7759   8.787   4.491  -0.774  0.4445 -0.1970 -0.1329
  799MOL0     O 7760   8.761   4.465  -0.903 -0.2858 -0.3386  0.3416
  799MOL0     C 7761   8.631   4.445  -0.951  0.1355 -0.2871 -0.4453
  799MOL0     C 7762   8.582   4.314  -0.975 -0.1116 -0.0608  0.4959
  799MOL0     C 7763   8.457   4.289  -1.018  0.2163  0.0226  0.2212
  799MOL0     C 7764   8.374   4.401  -1.050  0.2502  0.2448 -0.5316
  799MOL0     O 7765   8.243   4.400  -1.099  0.6911 -0.2889 -0.5494
  799MOL0     C 7766   8.160   4.298  -1.032  1.0285 -0.4319 -0.7514
  799MOL0     C 7767   8.054   4.252  -1.136  0.4183  0.8544  0.6736
  799MOL0     C 7768   7.975   4.130  -1.069 -0.1186  0.5315 -0.2323
  799MOL0     C 7769   7.879   4.052  -1.171  0.5311  0.6194  0.8412
  799MOL0     C 7770   7.827   3.929  -1.092 -0.2507 -0.7400 -0.0954
  799MOL0     C 7771   7.744   3.831  -1.187  0.0342 -0.2747 -0.7885
  799MOL0     C 7772   7.637   3.909  -1.275 -0.0948  0.6881  0.0636
  799MOL0     C 7773   7.538   4.003  -1.200 -0.4683  0.3263 -0.6829
  799MOL0    Cl 7774   7.469   4.122  -1.312 -0.1016  0.3963 -0.1847
  799MOL0     C 7775   8.414   4.530  -1.022 -0.5252 -0.5676  0.3330
  799MOL0     C 7776   8.552   4.558  -0.982  1.2707 -0.8724  0.0901
  799MOL0     O 7777   8.696   4.501  -0.692  0.1655  1.1478 -0.0091
  799MOL0     C 7778   8.937   4.561  -0.592  0.1938 -0.8008 -0.5223
  799MOL0     C 7779   9.066   4.595  -0.543  0.1261 -2.0824 -0.2684
  799MOL0     N 7780   9.555   5.027  -0.737 -0.0488  0.1053 -0.0472
  799MOL0     N 7781   9.617   5.121  -0.781  0.4498 -0.2902  0.6110
  799MOL0     C 7782  10.064   5.415   0.121 -0.1022 -0.0906  0.1386
  799MOL0     C 7783  10.072   5.370   0.256 -0.0930 -0.2260 -0.5225
  799MOL0     C 7784  10.206   5.088   0.580  0.2346  0.8302 -0.2624
  799MOL0     C 7785  10.162   5.171   0.683  0.3196 -0.6142 -0.5111
  799MOL0     C 7786  10.171   5.134   0.818 -0.8168 -0.6407  0.2095
  799MOL0     C 7787  10.197   5.006   0.852  0.2851 -0.0272  0.6881
  799MOL0     O 7788  10.203   4.989   0.984 -0.0170 -0.0315  0.5004
  799MOL0     C 7789  10.232   4.866   1.046 -0.7670 -0.5472 -0.2607
  799MOL0     C 7790  10.113   4.769   1.052  0.7806  0.1102  0.0697
  799MOL0     C 7791   9.983   4.840   1.058  0.8474 -0.5486 -0.6275
  799MOL0     C 7792   9.859   4.763   1.106  0.4529 -0.1614  0.6030
  799MOL0     C 7793   9.883   4.741   1.248 -0.3414  0.7438 -0.8919
  799MOL0     C 7794   9.907   4.713   1.361 -0.2616  0.2231 -0.1304
  799MOL0     C 7795  10.229   4.913   0.751  0.3691  0.0501  0.1564
  799MOL0     C 7796  10.237   4.955   0.616 -0.9029  0.8666 -0.4934
  799MOL0     C 7797  10.250   4.837   0.519  1.4800 -0.6557  1.2188
  799MOL0     H 7798  10.405   5.284   0.253  0.7338 -0.5758 -2.1404
  799MOL0     H 7799  10.375   5.360   0.012 -0.7955 -0.2169 -2.0449
  799MOL0     H 7800   9.980   5.455  -0.135 -1.0666  1.6989 -0.6667
  799MOL0     H 7801  10.031   5.610  -0.055  0.8778  1.3204 -0.7574
  799MOL0     H 7802  10.173   5.551  -0.300  1.0974 -0.2258  2.0072
  799MOL0     H 7803  10.081   5.699  -0.257  1.3139  1.2173 -6.2221
  799MOL0     H 7804   9.867   5.581  -0.313  1.8176  3.0512 -0.0859
  799MOL0     H 7805   9.975   5.451  -0.368  4.6353  0.1319  1.8280
  799MOL0     H 7806   9.906   5.715  -0.497 -0.5408 -0.5635  1.8884
  799MOL0     H 7807  10.056   5.627  -0.540 -0.7443 -2.0523 -0.9604
  799MOL0     H 7808   9.904   5.573  -0.704  0.8974 -3.1638 -0.7269
  799MOL0     H 7809   9.905   5.433  -0.595 -2.1057 -0.7631  2.9334
  799MOL0     H 7810   9.700   5.581  -0.481  2.1842  0.5613 -0.0267
  799MOL0     H 7811   9.691   5.630  -0.649  1.9927  0.2837 -0.1799
  799MOL0     H 7812   9.533   5.441  -0.570  0.2227  2.8305 -0.2306
  799MOL0     H 7813   9.699   5.357  -0.535  1.5535  0.9438  1.2147
  799MOL0     H 7814   9.552   5.429  -0.811 -0.4239  1.0528  0.2764
  799MOL0     H 7815   9.720   5.360  -0.794  1.1269  2.5025  1.9026
  799MOL0     H 7816   9.376   5.268  -0.596 -1.9364 -2.3861  0.8989
  799MOL0     H 7817   9.244   5.026  -0.612  1.9893  3.6759  1.2943
  799MOL0     H 7818   9.342   4.885  -0.670 -0.0721 -1.8236  1.5630
  799MOL0     H 7819   9.481   4.904  -0.476 -0.3567  0.1537  2.4576
  799MOL0     H 7820   9.372   5.022  -0.409  3.2985  1.8061 -1.4905
  799MOL0     H 7821   9.187   4.834  -0.434  0.0927  1.0780 -2.2693
  799MOL0     H 7822   9.310   4.805  -0.305  2.5503  2.0822  0.0592
  799MOL0     H 7823   9.314   4.598  -0.394  2.0431  0.4725  0.0906
  799MOL0     H 7824   9.450   4.666  -0.460 -0.1181  2.0650 -0.2278
  799MOL0     H 7825   9.231   4.573  -0.842  0.6891 -0.2570 -0.4543
  799MOL0     H 7826   9.011   4.503  -0.919  1.2400 -0.3832  0.4585
  799MOL0     H 7827   8.632   4.228  -0.931 -0.3933  0.4600  1.9088
  799MOL0     H 7828   8.423   4.195  -1.059  1.3023 -0.1466 -0.3378
  799MOL0     H 7829   8.208   4.208  -0.991 -4.3419 -2.7180  1.4762
  799MOL0     H 7830   8.110   4.343  -0.946 -0.6569  0.4388 -2.1177
  799MOL0     H 7831   7.992   4.340  -1.155 -1.5867 -1.2070 -3.9461
  799MOL0     H 7832   8.105   4.218  -1.227 -0.2537 -3.1852  1.5982
  799MOL0     H 7833   8.043   4.065  -1.013 -0.2738  1.6175  1.2655
  799MOL0     H 7834   7.919   4.181  -0.990  1.8706  3.3633 -0.5255
  799MOL0     H 7835   7.930   4.023  -1.263 -5.2050 -1.3388 -2.2085
  799MOL0     H 7836   7.791   4.107  -1.204 -0.7391 -1.2467  1.0047
  799MOL0     H 7837   7.759   3.969  -1.016  0.8610  1.8737 -0.3776
  799MOL0     H 7838   7.904   3.876  -1.034  0.4691  1.3048  0.9009
  799MOL0     H 7839   7.805   3.764  -1.248  1.3253  0.5570 -0.4379
  799MOL0     H 7840   7.683   3.767  -1.122  0.0078  2.6865  2.3449
  799MOL0     H 7841   7.579   3.823  -1.310  1.1581 -1.8146  3.5959
  799MOL0     H 7842   7.693   3.958  -1.356  0.9328  0.7145  0.7649
  799MOL0     H 7843   7.459   3.943  -1.154 -0.5977  0.7397 -0.3604
  799MOL0     H 7844   7.592   4.047  -1.116 -0.0556 -2.6067  0.7148
  799MOL0     H 7845   8.344   4.609  -1.046 -0.7645 -0.0280  2.6269
  799MOL0     H 7846   8.579   4.659  -0.952 -1.4489 -0.1532  0.3921
  799MOL0     H 7847   8.857   4.557  -0.520 -0.2466 -0.7131 -0.9990
  799MOL0     H 7848   9.084   4.629  -0.442 -6.1067 -0.9410  0.8934
  799MOL0     H 7849   9.962   5.432   0.086 -0.1994  1.1085  0.9394
  799MOL0     H 7850   9.994   5.353   0.330 -0.8145 -1.9343 -1.6222
  799MOL0     H 7851  10.118   5.269   0.667  2.8685  0.5304 -0.9183
  799MOL0     H 7852  10.138   5.202   0.895 -2.7554 -0.6459 -0.5544
  799MOL0     H 7853  10.250   4.894   1.150 -0.9848 -2.4027  0.3190
  799MOL0     H 7854  10.323   4.816   1.013 -0.7126 -3.4909  3.6156
  799MOL0     H 7855  10.123   4.692   1.130 -3.7085 -2.3141 -1.4014
  799MOL0     H 7856  10.105   4.713   0.958  4.0824 -1.4459  0.5484
  799MOL0     H 7857   9.959   4.881   0.959 -2.6253 -1.8870 -0.5014
  799MOL0     H 7858   9.989   4.933   1.116 -2.1401  0.1902 -1.2988
  799MOL0     H 7859   9.769   4.822   1.087  1.3187  1.9490  2.6359
  799MOL0     H 7860   9.841   4.662   1.067 -1.2743  0.5824 -0.6519
  799MOL0     H 7861   9.915   4.680   1.463  3.4900 -1.1678 -0.6944
  799MOL0     H 7862  10.260   4.816   0.787  1.4288  0.8201  1.4107
  799MOL0     H 7863  10.319   4.768   0.569  1.5835 -0.8515  0.8026
  799MOL0     H 7864  10.156   4.781   0.513  0.1828  1.4170  1.0805
  799MOL0     H 7865  10.280   4.871   0.420 -2.5218 -2.2697 -0.7913
  800MOL0     O 7866   8.073   4.559  10.686 -0.1919  0.6527 -0.1776
  800MOL0     C 7867   8.174   4.571  10.757 -0.8043 -0.0006  0.6019
  800MOL0     O 7868   8.240   4.464  10.822 -0.5889  0.0937  0.1486
  800MOL0     C 7869   8.184   4.345  10.816  0.2266 -0.6115  0.0065
  800MOL0     C 7870   8.051   4.309  10.846 -0.2548  0.3092 -0.3282
  800MOL0     C 7871   8.015   4.179  10.864 -0.0094 -0.4157  1.1102
  800MOL0     C 7872   8.091   4.073  10.822  0.1528 -0.4972 -0.3609
  800MOL0     O 7873   8.042   3.946  10.834  0.1939 -0.1103  0.3671
  800MOL0     C 7874   8.130   3.844  10.809 -0.0073  0.3337  0.2881
  800MOL0     C 7875   8.046   3.711  10.822  0.2726 -0.8557  0.1473
  800MOL0     C 7876   7.962   3.684  10.692 -0.6937  0.8077 -0.2132
  800MOL0     C 7877   7.861   3.576  10.719 -0.1048  0.7043 -0.8097
  800MOL0     C 7878   7.800   3.507  10.599 -0.2798  0.5174  0.3839
  800MOL0     C 7879   7.745   3.367  10.634  0.1039 -0.4714  0.2932
  800MOL0     C 7880   7.635   3.373  10.743  0.2233  0.0367 -0.7047
  800MOL0     C 7881   7.573   3.236  10.787  0.5499  0.0362 -0.6137
  800MOL0     N 7882   7.497   3.182  10.673 -0.0124 -0.7028  0.2454
  800MOL0     C 7883   7.368   3.223  10.645 -0.0231 -0.5224 -0.1068
  800MOL0     C 7884   7.325   3.132  10.561 -0.4258  0.5359  0.0869
  800MOL0     C 7885   7.196   3.132  10.489 -0.4930  0.0039  0.0458
  800MOL0     C 7886   7.154   2.984  10.475  1.0364 -0.5800  0.3302
  800MOL0     C 7887   7.027   2.977  10.390  0.0785  0.2635 -0.2768
  800MOL0     C 7888   7.058   2.944  10.240 -0.0921 -1.2189  0.9029
  800MOL0     O 7889   7.129   3.052  10.179 -0.0179 -0.2624  0.7607
  800MOL0     C 7890   7.061   3.168  10.145  1.0861 -0.1684  0.5039
  800MOL0     C 7891   7.140   3.273  10.110  1.1263 -1.0187 -0.4129
  800MOL0     C 7892   7.076   3.396  10.083  0.3185 -0.1732 -0.0014
  800MOL0     C 7893   6.936   3.414  10.074 -0.5032 -0.0893  0.4420
  800MOL0     C 7894   6.872   3.549  10.040 -0.2684 -0.3099  0.8148
  800MOL0     O 7895   6.740   3.539  10.016 -0.4703 -0.1008  0.6098
  800MOL0     C 7896   6.672   3.653   9.987  0.0709  0.3151 -0.2082
  800MOL0     C 7897   6.637   3.756  10.079 -0.0057  0.1932  0.4470
  800MOL0     C 7898   6.523   3.845  10.058 -0.5506  0.0110 -0.7537
  800MOL0     C 7899   6.443   3.836   9.945 -0.1103  0.9109  0.3918
  800MOL0     O 7900   6.338   3.914   9.897 -0.2027  0.7464 -0.9479
  800MOL0     C 7901   6.268   3.993   9.995 -0.2437  1.0933  0.9589
  800MOL0     C 7902   6.141   4.058   9.944  0.1384  1.2127  0.1578
  800MOL0     C 7903   6.175   4.171   9.840 -0.2026  0.3699  0.4287
  800MOL0     C 7904   6.054   4.273   9.819 -0.2168 -0.2783 -0.7275
  800MOL0     C 7905   6.105   4.360   9.697  0.5732 -0.0008 -0.3133
  800MOL0     C 7906   6.005   4.480   9.685 -0.5038  0.4356  0.0103
  800MOL0     C 7907   6.045   4.591   9.577 -0.4882 -0.4030  0.3722
  800MOL0     C 7908   5.924   4.681   9.562  0.0382 -0.5832 -0.0259
  800MOL0    Cl 7909   5.786   4.583   9.501 -0.2899 -0.0576 -0.1748
  800MOL0     C 7910   6.492   3.739   9.853  0.8953 -0.1690  0.6882
  800MOL0     C 7911   6.592   3.651   9.878  0.4106  0.5229 -0.4050
  800MOL0     O 7912   6.937   3.653  10.035 -0.2878 -0.1209  0.1862
  800MOL0     C 7913   6.860   3.297  10.110  0.3206  1.3154  0.0703
  800MOL0     C 7914   6.924   3.170  10.138  0.0054  0.1861  0.9348
  800MOL0     N 7915   7.430   3.043  10.535  0.0592  0.3155  0.2556
  800MOL0     N 7916   7.526   3.067  10.609  0.0970 -1.0352  0.6138
  800MOL0     C 7917   8.229   4.106  10.799 -0.6315 -0.2488  0.0439
  800MOL0     C 7918   8.274   4.242  10.788 -0.3840  0.4149 -0.9229
  800MOL0     C 7919   8.234   4.704  10.770  1.2736 -0.5224 -0.2597
  800MOL0     C 7920   8.373   4.716  10.798 -0.5453 -0.7033 -0.2353
  800MOL0     C 7921   8.436   4.841  10.815  0.5955  0.3398 -1.1449
  800MOL0     C 7922   8.366   4.955  10.796 -1.1327 -0.5235  0.4037
  800MOL0     O 7923   8.445   5.069  10.811  0.6115 -0.0685  0.4288
  800MOL0     C 7924   8.374   5.196  10.800 -0.4986  0.8103  0.1179
  800MOL0     C 7925   8.281   5.228  10.919 -0.0437  0.3151 -0.4247
  800MOL0     C 7926   8.215   5.361  10.899 -0.0588  0.3347 -0.6869
  800MOL0     C 7927   8.152   5.407  11.028  0.1519 -0.4444 -0.4028
  800MOL0     C 7928   8.043   5.328  11.083 -0.3189  0.2391 -0.7371
  800MOL0     C 7929   7.960   5.250  11.115 -0.3616  0.5482 -0.0340
  800MOL0     C 7930   8.238   4.952  10.758  0.6765 -0.3407  0.6309
  800MOL0     C 7931   8.165   4.827  10.751 -0.0989  0.3358  0.0228
  800MOL0     C 7932   8.022   4.833  10.739  0.1457  0.1176  0.5331
  800MOL0     H 7933   7.984   4.391  10.870 -2.5573 -1.3427 -0.7781
  800MOL0     H 7934   7.919   4.151  10.906 -1.3994 -0.1071 -1.6346
  800MOL0     H 7935   8.172   3.840  10.708 -1.5795  1.3127 -0.4637
  800MOL0     H 7936   8.211   3.844  10.882 -1.5987  1.2101  2.1658
  800MOL0     H 7937   7.977   3.721  10.906  2.3605 -0.1736  1.8740
  800MOL0     H 7938   8.110   3.623  10.837  3.0453  1.0344  0.1545
  800MOL0     H 7939   8.024   3.655  10.607 -0.0710  4.1352 -1.0089
  800MOL0     H 7940   7.907   3.776  10.669  0.9885  1.3721 -2.2653
  800MOL0     H 7941   7.923   3.504  10.772 -1.2883 -0.8207 -1.4364
  800MOL0     H 7942   7.775   3.601  10.781  1.5602 -2.1166  3.0226
  800MOL0     H 7943   7.730   3.580  10.559  1.5057  1.4549 -1.1620
  800MOL0     H 7944   7.877   3.486  10.525 -0.1338 -1.0988  0.9508
  800MOL0     H 7945   7.692   3.325  10.548 -0.4343  1.4056 -0.3234
  800MOL0     H 7946   7.822   3.293  10.659  0.3756 -0.2637  0.0780
  800MOL0     H 7947   7.552   3.440  10.717 -1.3106 -0.7274  1.8105
  800MOL0     H 7948   7.676   3.421  10.833 -1.5348  2.6537 -1.1674
  800MOL0     H 7949   7.653   3.165  10.811  1.4861  0.7222 -1.5979
  800MOL0     H 7950   7.508   3.253  10.873  0.2856 -1.4506 -0.4777
  800MOL0     H 7951   7.321   3.311  10.687 -1.4453 -1.0242 -0.5849
  800MOL0     H 7952   7.123   3.195  10.539  1.3279  1.1434  1.4225
  800MOL0     H 7953   7.216   3.166  10.387 -1.3035  1.0899  0.2416
  800MOL0     H 7954   7.231   2.918  10.435 -2.4988 -4.8400 -0.3159
  800MOL0     H 7955   7.120   2.948  10.573 -0.3326 -4.4673 -1.3727
  800MOL0     H 7956   6.967   3.068  10.400 -4.0905 -1.9808 -2.1069
  800MOL0     H 7957   6.969   2.898  10.439  1.0665 -0.4655 -0.2446
  800MOL0     H 7958   6.976   2.913  10.175 -0.0794  0.2183  0.1611
  800MOL0     H 7959   7.123   2.857  10.234  1.9414  0.3222 -2.5321
  800MOL0     H 7960   7.248   3.266  10.118  1.2538  1.8833  1.9743
  800MOL0     H 7961   7.143   3.478  10.059  1.7525 -1.4640 -0.5904
  800MOL0     H 7962   6.698   3.752  10.169 -0.5552 -2.9671  0.7926
  800MOL0     H 7963   6.504   3.924  10.131 -2.7540 -1.2533  0.1431
  800MOL0     H 7964   6.245   3.920  10.074 -1.0037 -0.6871 -0.8366
  800MOL0     H 7965   6.342   4.062  10.038  1.4742 -1.6102  2.7142
  800MOL0     H 7966   6.076   3.979   9.906 -0.9990  0.4505  3.4050
  800MOL0     H 7967   6.078   4.096  10.025  1.3823 -2.4180  3.1337
  800MOL0     H 7968   6.268   4.225   9.862  0.1128  0.7255 -1.6005
  800MOL0     H 7969   6.182   4.113   9.748  0.7642  2.1061 -0.6583
  800MOL0     H 7970   6.027   4.331   9.907 -2.6359  1.1099 -2.2780
  800MOL0     H 7971   5.964   4.220   9.787 -1.5297  2.3302 -1.5735
  800MOL0     H 7972   6.104   4.294   9.609 -1.5782  1.8328 -1.7734
  800MOL0     H 7973   6.210   4.385   9.708  1.5885 -3.9413  0.3767
  800MOL0     H 7974   5.915   4.425   9.654 -0.1795 -0.7989  1.1724
  800MOL0     H 7975   5.988   4.535   9.778  0.2698  1.4450 -0.4289
  800MOL0     H 7976   6.077   4.533   9.490  0.0677 -1.9963  1.5909
  800MOL0     H 7977   6.137   4.647   9.596  0.1960 -0.9709 -1.1343
  800MOL0     H 7978   5.910   4.727   9.661 -1.0064  0.5649 -0.6726
  800MOL0     H 7979   5.941   4.769   9.499 -0.3103  0.9850  1.9507
  800MOL0     H 7980   6.452   3.733   9.752  2.0836 -1.1067  0.2427
  800MOL0     H 7981   6.608   3.583   9.794  2.2782  3.7869 -2.9256
  800MOL0     H 7982   6.752   3.294  10.118  0.0038 -0.1379 -3.1504
  800MOL0     H 7983   6.851   3.097  10.171 -0.3379  1.2562  2.6566
  800MOL0     H 7984   8.300   4.027  10.774 -1.7260 -0.2114 -3.7708
  800MOL0     H 7985   8.376   4.266  10.760  1.3015 -2.8923  1.7261
  800MOL0     H 7986   8.435   4.627  10.798 -0.1934 -0.4638 -0.7077
  800MOL0     H 7987   8.539   4.850  10.848 -0.1992  0.6038  1.5363
  800MOL0     H 7988   8.319   5.200  10.705 -0.7979  2.4960  0.3202
  800MOL0     H 7989   8.448   5.276  10.800  0.3884  0.0063  0.4925
  800MOL0     H 7990   8.342   5.241  11.009 -0.9758 -1.0765  0.4537
  800MOL0     H 7991   8.218   5.140  10.938  0.9118 -0.1873  0.5122
  800MOL0     H 7992   8.137   5.350  10.824 -3.4893 -1.9467  2.8062
  800MOL0     H 7993   8.290   5.435  10.870  0.2768 -0.1049 -0.9568
  800MOL0     H 7994   8.227   5.422  11.106  0.9072  2.2378 -1.5297
  800MOL0     H 7995   8.100   5.502  11.013  0.8003 -0.2547 -1.6116
  800MOL0     H 7996   7.897   5.168  11.144 -0.6664 -0.4774 -3.2110
  800MOL0     H 7997   8.177   5.038  10.734  0.5822 -0.6273 -0.1648
  800MOL0     H 7998   7.998   4.803  10.636 -2.7898  1.3026  0.7845
  800MOL0     H 7999   7.964   4.785  10.818 -0.0995 -0.3399  0.0787
  800MOL0     H 8000   7.988   4.936  10.756 -1.1339 -0.1041 -0.5185
  801MOL0     O 8001   3.853   0.255   3.464 -0.8375 -0.1122  0.2142
  801MOL0     C 8002   3.788   0.225   3.566 -0.5391 -0.1907 -0.0291
  801MOL0     O 8003   3.688   0.126   3.573 -0.4245 -0.1541  0.4009
  801MOL0     C 8004   3.599   0.121   3.464 -0.1762  0.6689 -0.5533
  801MOL0     C 8005   3.539   0.231   3.410 -0.2561  0.1467  0.8663
  801MOL0     C 8006   3.440   0.221   3.310 -1.2595 -0.6278 -0.0443
  801MOL0     C 8007   3.406   0.092   3.257  0.0714  0.1713  0.7712
  801MOL0     O 8008   3.323   0.080   3.149 -0.0739  0.8109  0.2439
  801MOL0     C 8009   3.242   0.189   3.123  0.4057 -0.1688  0.8466
  801MOL0     C 8010   3.133   0.155   3.019 -0.0091 -0.1662 -0.1560
  801MOL0     C 8011   3.064   0.283   2.961  0.5930 -0.3581  0.1545
  801MOL0     C 8012   2.938   0.244   2.874 -0.4983 -0.7673 -0.0668
  801MOL0     C 8013   2.826   0.346   2.872  0.0624 -0.3951  0.7203
  801MOL0     C 8014   2.701   0.276   2.911 -1.0531  0.9535 -0.2592
  801MOL0     C 8015   2.585   0.371   2.952 -0.9830 -0.0924 -0.2206
  801MOL0     C 8016   2.447   0.330   2.889 -0.2791 -0.1842 -0.1490
  801MOL0     N 8017   2.339   0.414   2.944  0.6206  0.0600 -0.5915
  801MOL0     C 8018   2.292   0.403   3.072  0.4251 -0.8241 -0.4397
  801MOL0     C 8019   2.231   0.524   3.098 -0.8513  0.4864 -0.1123
  801MOL0     C 8020   2.194   0.579   3.232 -0.0714 -0.1084 -0.8123
  801MOL0     C 8021   2.312   0.562   3.327 -0.6897 -0.3708  0.2363
  801MOL0     C 8022   2.451   0.631   3.296  0.7330  0.0455 -0.0614
  801MOL0     C 8023   2.454   0.781   3.324  0.2138 -0.4744 -0.1166
  801MOL0     O 8024   2.593   0.829   3.337 -0.3802  0.0795 -0.1136
  801MOL0     C 8025   2.653   0.833   3.460 -0.0691 -0.0889 -0.4351
  801MOL0     C 8026   2.787   0.841   3.461  0.2146 -0.0979  0.5692
  801MOL0     C 8027   2.855   0.875   3.586 -0.4928  0.3565  0.5799
  801MOL0     C 8028   2.786   0.872   3.710  0.3213 -0.1969 -0.4788
  801MOL0     C 8029   2.873   0.851   3.828  0.4924 -1.1779  0.5164
  801MOL0     O 8030   3.005   0.841   3.810 -0.9137 -0.7008 -0.0111
  801MOL0     C 8031   3.080   0.869   3.918 -0.2485 -0.0375  0.8999
  801MOL0     C 8032   3.090   0.806   4.041  0.2620  1.1733 -0.1736
  801MOL0     C 8033   3.165   0.866   4.152  0.1151 -0.2268  0.3487
  801MOL0     C 8034   3.249   0.979   4.131  0.8061 -1.3336  0.5583
  801MOL0     O 8035   3.307   1.055   4.229  0.0737 -0.7365  0.0414
  801MOL0     C 8036   3.416   0.995   4.302 -0.3604 -0.1573 -0.5619
  801MOL0     C 8037   3.427   0.993   4.453 -0.4779  0.3421 -0.1871
  801MOL0     C 8038   3.303   0.963   4.532  0.1287 -1.4828  0.4119
  801MOL0     C 8039   3.222   1.093   4.567 -0.0735 -0.1833 -0.0780
  801MOL0     C 8040   3.079   1.062   4.606  0.9380 -0.4570  0.0453
  801MOL0     C 8041   3.025   1.172   4.689 -0.3035  0.9036 -0.0446
  801MOL0     C 8042   2.880   1.120   4.736 -0.1138 -0.0797  0.1753
  801MOL0     C 8043   2.811   1.243   4.810 -0.3300  0.8513 -0.2776
  801MOL0    Cl 8044   2.791   1.368   4.688  0.0865  0.4680 -0.3376
  801MOL0     C 8045   3.250   1.030   3.999  0.2564 -0.8479 -1.2856
  801MOL0     C 8046   3.156   0.987   3.905 -0.0399  0.1279  0.5847
  801MOL0     O 8047   2.812   0.875   3.938 -0.2634  0.2449  0.3849
  801MOL0     C 8048   2.649   0.854   3.709  0.0092 -0.1028 -0.2936
  801MOL0     C 8049   2.580   0.842   3.587 -0.7471 -0.1498  0.6135
  801MOL0     N 8050   2.247   0.599   2.984  0.5235 -0.1343  0.5770
  801MOL0     N 8051   2.308   0.534   2.890  1.2866  0.0093 -0.7894
  801MOL0     C 8052   3.457  -0.026   3.326  0.5668 -1.1796 -0.4104
  801MOL0     C 8053   3.553  -0.003   3.424 -0.1297  0.4813 -0.0843
  801MOL0     C 8054   3.841   0.261   3.698  0.2232 -0.1068 -0.2742
  801MOL0     C 8055   3.865   0.160   3.796 -0.6880 -0.2447 -0.6887
  801MOL0     C 8056   3.915   0.195   3.918 -0.4643 -0.6129  0.3954
  801MOL0     C 8057   3.950   0.321   3.947 -0.7969  0.1686  0.0774
  801MOL0     O 8058   4.001   0.343   4.077  0.3404  0.4383  0.6515
  801MOL0     C 8059   3.985   0.463   4.142 -0.2703 -0.8202 -1.0322
  801MOL0     C 8060   4.072   0.459   4.263  0.7068 -0.1519  0.1198
  801MOL0     C 8061   4.091   0.609   4.321  0.5245  1.3688  0.5246
  801MOL0     C 8062   4.220   0.620   4.398 -0.3021 -0.3982  0.3969
  801MOL0     C 8063   4.240   0.527   4.509 -0.2373 -0.4628  0.4757
  801MOL0     C 8064   4.277   0.449   4.596  1.0353  1.1268  0.0517
  801MOL0     C 8065   3.928   0.421   3.858 -0.6548 -0.4171  0.2736
  801MOL0     C 8066   3.873   0.396   3.738  0.4756 -0.2452 -0.2173
  801MOL0     C 8067   3.836   0.515   3.645  0.4063  0.6878 -0.8838
  801MOL0     H 8068   3.561   0.326   3.457 -1.2494 -0.1838  2.0309
  801MOL0     H 8069   3.392   0.315   3.283  1.7600  0.7745 -1.0171
  801MOL0     H 8070   3.174   0.202   3.208 -2.6683 -1.8478 -1.1434
  801MOL0     H 8071   3.297   0.280   3.096  0.4432  0.2606  2.2673
  801MOL0     H 8072   3.068   0.086   3.073 -2.3791  2.2047  0.2561
  801MOL0     H 8073   3.193   0.097   2.948 -1.3215  0.0662 -1.4880
  801MOL0     H 8074   3.134   0.354   2.915 -1.8889  2.0066 -0.2161
  801MOL0     H 8075   3.029   0.338   3.049  1.4990  2.7976 -1.3053
  801MOL0     H 8076   2.947   0.223   2.767 -1.5785 -3.2104  0.2580
  801MOL0     H 8077   2.899   0.147   2.907 -2.4242  0.4919  1.6308
  801MOL0     H 8078   2.844   0.438   2.928 -0.3480  1.2474 -1.6922
  801MOL0     H 8079   2.793   0.385   2.776 -0.0002 -2.7384 -0.2717
  801MOL0     H 8080   2.666   0.212   2.830 -1.4601 -1.0250  1.3911
  801MOL0     H 8081   2.715   0.209   2.996 -2.6557  0.4278 -0.3743
  801MOL0     H 8082   2.599   0.478   2.933  1.9594 -0.7034 -2.2357
  801MOL0     H 8083   2.592   0.356   3.060  0.1895 -1.1131 -0.4198
  801MOL0     H 8084   2.446   0.332   2.780 -0.8258 -1.2324 -0.1765
  801MOL0     H 8085   2.439   0.224   2.913  0.4825 -0.2399 -0.1348
  801MOL0     H 8086   2.315   0.324   3.142  0.9890  1.1686  1.7524
  801MOL0     H 8087   2.141   0.675   3.235  0.0284 -0.0624 -0.4786
  801MOL0     H 8088   2.130   0.501   3.274  3.1018 -1.9578  0.9679
  801MOL0     H 8089   2.287   0.580   3.432  0.8776 -1.0301  0.7577
  801MOL0     H 8090   2.339   0.456   3.318 -1.9306 -0.5522 -2.3599
  801MOL0     H 8091   2.462   0.617   3.188 -0.6325  0.0830 -0.2231
  801MOL0     H 8092   2.538   0.587   3.346  2.7728  1.9640 -1.7090
  801MOL0     H 8093   2.394   0.820   3.406 -2.1013 -1.4824 -1.2291
  801MOL0     H 8094   2.421   0.830   3.232 -2.3107 -2.8981 -0.6187
  801MOL0     H 8095   2.849   0.839   3.372  0.9677 -1.6997  1.0869
  801MOL0     H 8096   2.959   0.904   3.583 -1.5965  5.0534 -1.2274
  801MOL0     H 8097   3.042   0.709   4.054 -0.6121  0.2596 -6.6869
  801MOL0     H 8098   3.154   0.818   4.248  0.1396  0.7255  0.8438
  801MOL0     H 8099   3.422   0.889   4.273  2.6660 -1.0132  2.5726
  801MOL0     H 8100   3.509   1.041   4.267 -0.2217 -0.0356 -0.0427
  801MOL0     H 8101   3.495   0.911   4.481  1.7868  1.7318 -1.3298
  801MOL0     H 8102   3.473   1.089   4.478  1.0989 -0.9019  2.0893
  801MOL0     H 8103   3.238   0.903   4.468 -1.1265  0.2801 -0.0344
  801MOL0     H 8104   3.317   0.910   4.627 -1.8515  0.8408  2.1261
  801MOL0     H 8105   3.214   1.154   4.476  1.2908 -3.7688 -2.8432
  801MOL0     H 8106   3.276   1.147   4.644 -0.2221  2.6380 -1.8116
  801MOL0     H 8107   3.094   0.960   4.645  3.9030 -0.6392 -1.2429
  801MOL0     H 8108   3.016   1.053   4.518  1.8325 -0.2187 -0.6380
  801MOL0     H 8109   3.086   1.189   4.778  2.1444 -0.0586 -1.4451
  801MOL0     H 8110   3.022   1.264   4.629  1.4175  0.8885 -0.2052
  801MOL0     H 8111   2.891   1.035   4.804 -1.2243 -0.4293 -0.0493
  801MOL0     H 8112   2.821   1.093   4.647 -3.3248  2.6994  1.2198
  801MOL0     H 8113   2.707   1.218   4.832 -0.9398 -0.3074 -3.8223
  801MOL0     H 8114   2.870   1.283   4.893 -2.2013  0.2417  1.4180
  801MOL0     H 8115   3.306   1.123   4.002 -2.7829  1.1339  1.8074
  801MOL0     H 8116   3.151   1.040   3.811  0.8230 -1.4621 -0.4069
  801MOL0     H 8117   2.585   0.835   3.795 -1.4547 -1.8529 -1.7042
  801MOL0     H 8118   2.472   0.839   3.599 -1.3311  6.5597  1.0837
  801MOL0     H 8119   3.436  -0.127   3.292  1.8644 -1.2369 -1.1240
  801MOL0     H 8120   3.599  -0.092   3.465 -1.0505  0.0978  0.1315
  801MOL0     H 8121   3.867   0.055   3.770 -0.4330 -0.5674  0.5903
  801MOL0     H 8122   3.930   0.111   3.984  0.7929 -1.8204 -1.3210
  801MOL0     H 8123   3.880   0.470   4.172  0.0154  1.1344 -0.3644
  801MOL0     H 8124   4.015   0.543   4.075 -1.2452 -0.5130 -1.1226
  801MOL0     H 8125   4.175   0.443   4.228  1.1863  0.8433  1.0154
  801MOL0     H 8126   4.027   0.386   4.330 -4.4020  3.2082  0.9079
  801MOL0     H 8127   3.998   0.638   4.370 -1.3902 -1.6021 -1.0786
  801MOL0     H 8128   4.102   0.671   4.231  0.7375  1.6184  0.7206
  801MOL0     H 8129   4.309   0.600   4.339 -1.0258  0.8161 -1.1773
  801MOL0     H 8130   4.229   0.725   4.429 -2.4386  0.1740 -0.6736
  801MOL0     H 8131   4.312   0.382   4.672  0.3433  1.0664  0.3203
  801MOL0     H 8132   3.942   0.522   3.895 -0.6201 -1.3744  3.1498
  801MOL0     H 8133   3.785   0.510   3.549 -5.4406 -0.2856  1.8206
  801MOL0     H 8134   3.765   0.574   3.703  0.9505  2.1117 -1.6263
  801MOL0     H 8135   3.921   0.576   3.614  1.2732  0.3834  0.7339
  802MOL0     O 8136   9.735   5.958  10.955 -0.5439 -0.2007 -0.5624
  802MOL0     C 8137   9.813   6.046  10.999 -0.6351 -0.2957 -0.8065
  802MOL0     O 8138   9.863   6.048  11.123  0.3102 -0.4308  0.1116
  802MOL0     C 8139   9.822   5.960  11.224 -0.5795  0.3552  0.1228
  802MOL0     C 8140   9.714   5.866  11.241  0.0980  0.0761  0.0120
  802MOL0     C 8141   9.704   5.771  11.348 -0.3457 -0.5780  0.3873
  802MOL0     C 8142   9.801   5.766  11.445 -0.2739  0.3628 -0.1493
  802MOL0     O 8143   9.781   5.691  11.556 -0.2891 -0.0922  0.5418
  802MOL0     C 8144   9.655   5.693  11.626  0.6248 -0.0373 -0.1385
  802MOL0     C 8145   9.667   5.660  11.774  0.2798  0.1471  0.3064
  802MOL0     C 8146   9.760   5.751  11.849  0.8496  0.8321  0.5927
  802MOL0     C 8147   9.745   5.733  11.994 -0.0224  0.2209 -0.6192
  802MOL0     C 8148   9.845   5.817  12.089  0.1285 -0.5331 -0.7753
  802MOL0     C 8149   9.903   5.756  12.225  0.1535 -0.4326  0.1647
  802MOL0     C 8150   9.959   5.621  12.194  0.4229  1.2166 -0.2257
  802MOL0     C 8151  10.075   5.569  12.276  0.2337 -0.3704 -0.2008
  802MOL0     N 8152  10.052   5.583  12.422  0.1648 -0.0816 -0.0974
  802MOL0     C 8153  10.111   5.677  12.499 -0.2059  0.3314 -0.5352
  802MOL0     C 8154  10.085   5.639  12.626  0.4179  0.5267 -0.4192
  802MOL0     C 8155  10.125   5.710  12.754  0.9785 -0.1313 -0.7030
  802MOL0     C 8156  10.062   5.848  12.788 -0.0574  0.1043  0.5873
  802MOL0     C 8157   9.901   5.849  12.790  0.0261 -0.2623 -0.3579
  802MOL0     C 8158   9.853   5.984  12.855  0.1132 -0.7108  0.1908
  802MOL0     O 8159   9.711   5.976  12.845  0.7151  0.2019 -0.1075
  802MOL0     C 8160   9.636   6.064  12.915 -0.1270 -0.4831 -0.6101
  802MOL0     C 8161   9.690   6.195  12.947 -0.3609  0.1545 -0.4775
  802MOL0     C 8162   9.619   6.281  13.030  0.7695 -0.0900 -0.0923
  802MOL0     C 8163   9.482   6.253  13.072 -0.2687  0.4088  0.1913
  802MOL0     C 8164   9.405   6.345  13.153 -0.0882  0.2210  0.4402
  802MOL0     O 8165   9.270   6.366  13.114 -1.0229 -0.1770 -0.1235
  802MOL0     C 8166   9.211   6.467  13.181  0.2037  0.0119  0.8823
  802MOL0     C 8167   9.153   6.449  13.306 -0.0602  0.1119 -0.6825
  802MOL0     C 8168   9.080   6.557  13.351 -0.1021 -0.3008 -0.0141
  802MOL0     C 8169   9.056   6.678  13.277  0.0723  0.6888 -0.2143
  802MOL0     O 8170   8.970   6.768  13.330 -0.2854  0.9869  0.8945
  802MOL0     C 8171   8.886   6.835  13.227  0.2685 -0.1162  0.5334
  802MOL0     C 8172   8.752   6.880  13.296  0.5274 -0.0643  0.4579
  802MOL0     C 8173   8.702   6.768  13.386 -0.5437 -0.7012  0.0180
  802MOL0     C 8174   8.553   6.782  13.431 -0.9369  0.0717  0.7407
  802MOL0     C 8175   8.520   6.694  13.553  0.6078  0.1630 -0.4292
  802MOL0     C 8176   8.374   6.723  13.597 -0.1942 -0.0461  1.0723
  802MOL0     C 8177   8.321   6.644  13.722 -0.9554 -0.2116  0.8926
  802MOL0     C 8178   8.200   6.688  13.793 -1.1779  0.3042  0.0575
  802MOL0    Cl 8179   8.072   6.723  13.683 -0.0662 -0.4553 -0.0703
  802MOL0     C 8180   9.131   6.692  13.162 -0.3095 -0.2626  0.3423
  802MOL0     C 8181   9.217   6.590  13.120 -0.6093 -0.3951  0.4409
  802MOL0     O 8182   9.458   6.379  13.254  0.3093 -0.0398 -0.1324
  802MOL0     C 8183   9.429   6.123  13.040  0.1551  0.1855  0.1637
  802MOL0     C 8184   9.508   6.034  12.966  0.4809  0.4837 -0.0861
  802MOL0     N 8185  10.011   5.524  12.623 -0.4641  0.6558  0.5764
  802MOL0     N 8186   9.997   5.491  12.507 -0.1980  0.2915  0.4974
  802MOL0     C 8187   9.916   5.851  11.424  0.0653  1.0853  0.2523
  802MOL0     C 8188   9.919   5.935  11.314 -0.0795 -0.5475 -0.5962
  802MOL0     C 8189   9.850   6.158  10.907 -0.4419 -0.4957 -0.2747
  802MOL0     C 8190   9.984   6.201  10.928  1.0593 -0.7907 -0.3642
  802MOL0     C 8191  10.036   6.299  10.850 -0.2402 -0.5337  0.3416
  802MOL0     C 8192   9.959   6.351  10.743  0.2406  0.0708  0.3700
  802MOL0     O 8193  10.002   6.439  10.647 -1.0008 -0.5498  0.2849
  802MOL0     C 8194  10.087   6.372  10.543  0.0940  0.0587  0.8045
  802MOL0     C 8195  10.193   6.464  10.473  0.7647  0.2621 -0.3403
  802MOL0     C 8196  10.297   6.524  10.570  0.1730  0.5416  0.2835
  802MOL0     C 8197  10.254   6.631  10.676 -0.0031  0.7196  0.3488
  802MOL0     C 8198  10.214   6.755  10.603 -0.5261 -0.0275 -0.3432
  802MOL0     C 8199  10.192   6.866  10.552 -0.9648  0.1374 -0.0629
  802MOL0     C 8200   9.820   6.312  10.719 -0.8386  0.4259  0.0518
  802MOL0     C 8201   9.772   6.218  10.805  1.1820 -0.4663  0.0833
  802MOL0     C 8202   9.623   6.187  10.791 -0.3649  1.1488  0.5745
  802MOL0     H 8203   9.643   5.848  11.161  1.4680  2.4943 -1.8775
  802MOL0     H 8204   9.610   5.719  11.360  0.3523 -1.7406  1.1415
  802MOL0     H 8205   9.600   5.787  11.621 -0.5980 -0.7618 -0.9823
  802MOL0     H 8206   9.586   5.618  11.586  1.1151 -1.7440  1.9859
  802MOL0     H 8207   9.700   5.556  11.786 -0.6620 -0.5585 -2.5848
  802MOL0     H 8208   9.567   5.674  11.816 -1.1811 -3.5156 -1.5698
  802MOL0     H 8209   9.739   5.854  11.816 -3.6088  0.1085  0.5316
  802MOL0     H 8210   9.864   5.724  11.830  0.5113 -0.2619  0.2581
  802MOL0     H 8211   9.641   5.752  12.021  0.5313  0.7082  1.3247
  802MOL0     H 8212   9.748   5.625  12.016 -0.3901  0.4216  0.4530
  802MOL0     H 8213   9.924   5.862  12.028 -1.0165  1.4932 -0.8612
  802MOL0     H 8214   9.791   5.906  12.122  1.4716  0.4749 -1.2028
  802MOL0     H 8215   9.985   5.813  12.268 -0.4259 -1.8677  3.4629
  802MOL0     H 8216   9.823   5.747  12.299  0.3034  0.6602  0.4802
  802MOL0     H 8217   9.983   5.620  12.087  0.5878  2.8558 -0.2192
  802MOL0     H 8218   9.879   5.549  12.212 -2.0379  4.0796  1.1711
  802MOL0     H 8219  10.083   5.463  12.247  1.3453 -0.3300 -0.0763
  802MOL0     H 8220  10.165   5.616  12.238  0.1100 -1.8639 -2.5612
  802MOL0     H 8221  10.169   5.762  12.466  0.6832  0.0587  0.2827
  802MOL0     H 8222  10.128   5.633  12.831  0.0371  0.5086 -0.0074
  802MOL0     H 8223  10.233   5.728  12.754  0.6699  2.0718  0.0299
  802MOL0     H 8224  10.101   5.882  12.884  0.4499 -0.7097  0.6732
  802MOL0     H 8225  10.095   5.922  12.714  2.3056 -2.7343 -1.4168
  802MOL0     H 8226   9.864   5.765  12.850  0.5332  0.2583  0.7042
  802MOL0     H 8227   9.862   5.837  12.688  0.7938 -2.2798 -0.4740
  802MOL0     H 8228   9.899   6.062  12.794 -2.3370  1.3350  0.7534
  802MOL0     H 8229   9.891   5.995  12.957  0.4566 -0.9679  0.0930
  802MOL0     H 8230   9.777   6.248  12.908 -0.3963  2.4179  2.1983
  802MOL0     H 8231   9.660   6.379  13.052 -0.7435  0.9141 -1.5375
  802MOL0     H 8232   9.168   6.349  13.346  0.8919  0.8237  0.8271
  802MOL0     H 8233   9.014   6.546  13.436 -0.0195 -2.0044 -0.1411
  802MOL0     H 8234   8.941   6.918  13.183  2.0448 -0.7240  1.5179
  802MOL0     H 8235   8.855   6.774  13.141  1.5785 -0.0010 -0.0460
  802MOL0     H 8236   8.764   6.965  13.364  1.3097  1.5271 -1.5453
  802MOL0     H 8237   8.689   6.902  13.209  2.1445 -1.5442 -1.1630
  802MOL0     H 8238   8.699   6.674  13.331 -2.3750  0.8478 -2.7461
  802MOL0     H 8239   8.764   6.754  13.475  0.9284 -1.2413 -1.0394
  802MOL0     H 8240   8.495   6.749  13.344  0.1026  0.5939 -0.1704
  802MOL0     H 8241   8.532   6.888  13.447 -1.2863  0.1838 -0.3322
  802MOL0     H 8242   8.578   6.711  13.643  1.8755 -0.0641 -1.1838
  802MOL0     H 8243   8.538   6.586  13.541  0.8724 -0.0504  1.5449
  802MOL0     H 8244   8.366   6.831  13.617 -0.6041 -0.0665  1.0233
  802MOL0     H 8245   8.308   6.694  13.514  0.8594  0.9868 -0.1852
  802MOL0     H 8246   8.402   6.628  13.795 -1.7070 -1.4590  1.4866
  802MOL0     H 8247   8.305   6.541  13.689  1.7396 -0.9136  1.4979
  802MOL0     H 8248   8.174   6.609  13.864 -0.3272 -2.7334 -2.7230
  802MOL0     H 8249   8.222   6.780  13.847  0.6084  1.4601 -2.4551
  802MOL0     H 8250   9.107   6.775  13.096 -1.0128 -0.2051  0.6601
  802MOL0     H 8251   9.269   6.608  13.026 -1.4277  0.1759  0.0898
  802MOL0     H 8252   9.331   6.090  13.073  0.0046 -1.5056 -1.7667
  802MOL0     H 8253   9.454   5.947  12.930 -2.5488  2.1196  0.1173
  802MOL0     H 8254  10.010   5.862  11.478 -0.4265 -2.5546  2.1853
  802MOL0     H 8255  10.008   5.994  11.294 -0.9684  0.7568 -0.8374
  802MOL0     H 8256  10.050   6.167  11.007  0.0832 -1.1898  0.3003
  802MOL0     H 8257  10.135   6.339  10.871 -0.5340  1.2360 -1.2793
  802MOL0     H 8258  10.023   6.328  10.464 -0.0714 -0.6299  1.3086
  802MOL0     H 8259  10.143   6.289  10.588 -1.1316 -1.0161  0.4374
  802MOL0     H 8260  10.134   6.538  10.419  0.7551  0.9928  0.6336
  802MOL0     H 8261  10.240   6.413  10.389 -1.2615  3.2207 -3.5251
  802MOL0     H 8262  10.376   6.566  10.508  1.7342 -2.4745  0.0061
  802MOL0     H 8263  10.343   6.444  10.630 -0.7968  0.7050  1.2887
  802MOL0     H 8264  10.163   6.594  10.724  1.8078 -1.7763  2.1237
  802MOL0     H 8265  10.332   6.645  10.751  1.5958  2.5908 -1.5341
  802MOL0     H 8266  10.178   6.964  10.511 -1.7666 -1.5168 -4.1751
  802MOL0     H 8267   9.762   6.364  10.644 -2.7441  0.2065  1.3037
  802MOL0     H 8268   9.576   6.231  10.703 -0.0504 -1.1881 -0.8360
  802MOL0     H 8269   9.616   6.079  10.772 -0.1789  1.1990  0.2156
  802MOL0     H 8270   9.572   6.222  10.881 -0.4497  0.2034  0.9110
  803MOL0     O 8271   1.667   5.804  10.892  0.1398  0.0290 -0.0010
  803MOL0     C 8272   1.582   5.795  10.981 -0.9276 -0.6083 -0.2502
  803MOL0     O 8273   1.473   5.716  10.990  0.6191  0.0845  0.0944
  803MOL0     C 8274   1.446   5.615  10.895 -0.1460 -0.0336 -0.4573
  803MOL0     C 8275   1.314   5.585  10.844 -0.1671 -0.1845 -0.4632
  803MOL0     C 8276   1.290   5.497  10.740 -0.6601  0.3578  0.5975
  803MOL0     C 8277   1.397   5.435  10.667 -1.1669  0.6194 -0.7152
  803MOL0     O 8278   1.369   5.354  10.564 -0.2786 -0.0109  0.2787
  803MOL0     C 8279   1.297   5.416  10.462  0.6002 -0.1501 -0.3170
  803MOL0     C 8280   1.307   5.337  10.333 -0.4300 -0.2619  1.0483
  803MOL0     C 8281   1.217   5.394  10.226  0.2542  0.6311 -0.7999
  803MOL0     C 8282   1.257   5.330  10.083 -1.2255  0.8124  1.1595
  803MOL0     C 8283   1.154   5.396   9.988 -0.3657  0.0052  0.7387
  803MOL0     C 8284   1.209   5.384   9.844 -0.8287  0.4043 -0.0599
  803MOL0     C 8285   1.134   5.473   9.736  0.9765 -0.1141  0.3648
  803MOL0     C 8286   1.182   5.420   9.603  0.6204  0.2320 -0.2022
  803MOL0     N 8287   1.126   5.498   9.500  0.5249  0.0497  0.0565
  803MOL0     C 8288   1.156   5.487   9.369 -0.5385 -0.7511  0.5265
  803MOL0     C 8289   1.095   5.590   9.303 -0.2098 -0.5635  1.2571
  803MOL0     C 8290   1.089   5.616   9.159 -0.2629 -0.9119 -0.2673
  803MOL0     C 8291   1.226   5.577   9.094 -0.6283 -1.0925  0.5333
  803MOL0     C 8292   1.252   5.652   8.963 -0.2110  0.6698 -0.9228
  803MOL0     C 8293   1.132   5.634   8.872  0.1630 -0.1696  0.1217
  803MOL0     O 8294   1.168   5.642   8.727  0.0196  0.2994 -0.0279
  803MOL0     C 8295   1.213   5.531   8.651 -0.1375  0.0700 -0.7275
  803MOL0     C 8296   1.274   5.415   8.695  0.1811  0.0418 -0.6752
  803MOL0     C 8297   1.308   5.309   8.615 -0.1082  0.5999 -0.0423
  803MOL0     C 8298   1.305   5.318   8.473 -0.2941 -1.0137  0.7267
  803MOL0     C 8299   1.357   5.216   8.374 -0.0408 -0.0156 -0.2114
  803MOL0     O 8300   1.347   5.249   8.240  0.7974  0.3241 -0.6048
  803MOL0     C 8301   1.388   5.149   8.151  0.2953 -0.0791  1.1661
  803MOL0     C 8302   1.315   5.029   8.113  0.5564  0.2943 -0.2966
  803MOL0     C 8303   1.349   4.939   8.019 -0.0100 -0.3305  0.1552
  803MOL0     C 8304   1.476   4.952   7.967 -0.9623  0.8505  1.2351
  803MOL0     O 8305   1.508   4.851   7.871  0.3567 -0.0135  0.1374
  803MOL0     C 8306   1.620   4.860   7.788 -1.1846  0.5989  0.0735
  803MOL0     C 8307   1.601   4.746   7.681  0.5748 -0.0194 -0.2402
  803MOL0     C 8308   1.685   4.736   7.553 -0.0466  0.0815 -0.3449
  803MOL0     C 8309   1.598   4.723   7.427  1.3166 -0.0990 -0.3179
  803MOL0     C 8310   1.674   4.779   7.296  0.4266  0.4547 -0.4755
  803MOL0     C 8311   1.685   4.933   7.283  0.1953 -0.0453  0.6679
  803MOL0     C 8312   1.561   5.008   7.228 -0.1736  1.2942 -0.2377
  803MOL0     C 8313   1.588   5.153   7.189  0.0390  0.2507  0.1997
  803MOL0    Cl 8314   1.677   5.148   7.031  0.4121 -0.3690  0.1891
  803MOL0     C 8315   1.564   5.061   8.007 -1.4151 -0.4019  0.2287
  803MOL0     C 8316   1.512   5.165   8.093 -0.9236  0.4007  0.1085
  803MOL0     O 8317   1.389   5.109   8.423 -0.1822  0.7055  0.2094
  803MOL0     C 8318   1.253   5.444   8.422  1.0218  0.1874  0.2397
  803MOL0     C 8319   1.204   5.539   8.513 -0.1660 -0.0281  0.0543
  803MOL0     N 8320   1.037   5.665   9.398 -0.4762 -0.5909 -0.1307
  803MOL0     N 8321   1.054   5.614   9.516  0.6208 -0.1600 -0.0613
  803MOL0     C 8322   1.520   5.454  10.723 -0.5808 -0.1813  0.0518
  803MOL0     C 8323   1.547   5.541  10.835 -1.1972  0.2813 -0.0557
  803MOL0     C 8324   1.621   5.885  11.101  0.5565  0.0430  1.2122
  803MOL0     C 8325   1.516   5.930  11.177 -0.8272 -0.2796 -0.0928
  803MOL0     C 8326   1.548   5.995  11.294  0.1355 -0.8301  0.1444
  803MOL0     C 8327   1.675   6.025  11.343  0.6317  0.6558 -0.2439
  803MOL0     O 8328   1.703   6.083  11.460  0.2384 -0.0602 -0.5842
  803MOL0     C 8329   1.597   6.147  11.534 -1.0638 -0.2051  0.0389
  803MOL0     C 8330   1.577   6.286  11.487  0.8609  0.1361 -0.4772
  803MOL0     C 8331   1.501   6.374  11.596 -0.1646  0.0571 -0.0845
  803MOL0     C 8332   1.375   6.310  11.658  0.9046 -0.0571  0.2195
  803MOL0     C 8333   1.260   6.296  11.559 -0.6335  1.3528  0.0476
  803MOL0     C 8334   1.178   6.273  11.476 -0.5473 -0.8123 -0.0450
  803MOL0     C 8335   1.775   5.994  11.257 -0.5303  0.1391 -0.6503
  803MOL0     C 8336   1.758   5.926  11.136  0.0925 -0.4585  0.2330
  803MOL0     C 8337   1.889   5.922  11.058  0.3675  0.4956 -0.0454
  803MOL0     H 8338   1.241   5.647  10.895  0.8691  1.8533 -1.3869
  803MOL0     H 8339   1.187   5.491  10.705  0.5478 -0.3447 -3.3213
  803MOL0     H 8340   1.191   5.417  10.487  0.3209 -1.3286 -1.3238
  803MOL0     H 8341   1.332   5.517  10.437  0.9128 -0.6231 -1.8896
  803MOL0     H 8342   1.289   5.231  10.356  1.9320 -0.6473  1.3868
  803MOL0     H 8343   1.409   5.357  10.299 -0.5038  0.1592  1.0721
  803MOL0     H 8344   1.230   5.502  10.222  1.0613  0.5098 -3.4980
  803MOL0     H 8345   1.117   5.374  10.266  1.5568 -0.8682  2.0076
  803MOL0     H 8346   1.357   5.358  10.051 -2.2439  1.9627 -1.2317
  803MOL0     H 8347   1.240   5.223  10.071 -1.4371  1.0312 -0.7290
  803MOL0     H 8348   1.049   5.366   9.995 -0.9764  0.7770 -3.0062
  803MOL0     H 8349   1.141   5.501  10.016 -5.2747  0.9163 -3.3820
  803MOL0     H 8350   1.311   5.423   9.852 -1.1040  1.2568 -0.6343
  803MOL0     H 8351   1.221   5.277   9.824  3.6892 -0.0637  3.4704
  803MOL0     H 8352   1.143   5.581   9.748  0.6149  0.2362 -2.0602
  803MOL0     H 8353   1.028   5.448   9.738  1.1081 -0.9254 -1.2998
  803MOL0     H 8354   1.291   5.425   9.597  0.7642 -1.4532  0.5265
  803MOL0     H 8355   1.141   5.319   9.595 -3.2152  1.3532  2.3773
  803MOL0     H 8356   1.212   5.409   9.317 -2.8096 -1.4652 -0.9997
  803MOL0     H 8357   1.016   5.549   9.113 -0.2665 -3.7321  3.4514
  803MOL0     H 8358   1.075   5.720   9.126  2.6203 -0.4092 -0.1205
  803MOL0     H 8359   1.305   5.581   9.169  0.2361  3.0814 -0.3605
  803MOL0     H 8360   1.210   5.479   9.049  0.1257 -0.5251 -1.0501
  803MOL0     H 8361   1.328   5.604   8.901 -0.8960 -1.4942 -0.1816
  803MOL0     H 8362   1.280   5.754   8.990 -2.2375  0.8292  0.8258
  803MOL0     H 8363   1.049   5.706   8.883  2.6679  2.8245  0.8146
  803MOL0     H 8364   1.078   5.541   8.895 -0.0638 -0.5350 -1.7636
  803MOL0     H 8365   1.287   5.402   8.802 -1.3306  0.3901 -0.4213
  803MOL0     H 8366   1.362   5.220   8.648 -1.8091 -0.3984  0.1429
  803MOL0     H 8367   1.216   5.018   8.155 -0.4734  1.1953 -2.3525
  803MOL0     H 8368   1.293   4.854   7.982  1.8311 -1.7634  0.4923
  803MOL0     H 8369   1.638   4.956   7.739  3.8243 -0.5007 -0.6794
  803MOL0     H 8370   1.711   4.838   7.844 -1.3948  0.6559  0.4496
  803MOL0     H 8371   1.607   4.646   7.726 -2.0058 -0.8430 -1.4975
  803MOL0     H 8372   1.500   4.764   7.644  0.4882 -1.2620 -0.6418
  803MOL0     H 8373   1.743   4.827   7.536  1.4140 -0.4277  1.5599
  803MOL0     H 8374   1.757   4.654   7.560  0.0946  0.2688  0.4395
  803MOL0     H 8375   1.507   4.784   7.432  1.4045  0.0001  4.1661
  803MOL0     H 8376   1.574   4.617   7.430 -3.2768  0.7515  2.1784
  803MOL0     H 8377   1.613   4.743   7.213 -1.6518 -0.8922  1.4976
  803MOL0     H 8378   1.771   4.729   7.286 -0.5859 -1.9525  0.7819
  803MOL0     H 8379   1.716   4.965   7.383  1.7059  0.4485  0.0790
  803MOL0     H 8380   1.769   4.951   7.215 -3.0548  3.3835 -2.8921
  803MOL0     H 8381   1.482   4.998   7.303 -0.4650  5.2377  0.1671
  803MOL0     H 8382   1.527   4.971   7.130  1.4156  1.2509 -0.7946
  803MOL0     H 8383   1.489   5.194   7.167 -0.9844  0.4566  4.3660
  803MOL0     H 8384   1.637   5.218   7.262  1.5262 -1.2168  0.5663
  803MOL0     H 8385   1.659   5.081   7.960 -2.0976  0.6754 -0.7392
  803MOL0     H 8386   1.566   5.255   8.119 -4.5175  2.0421  2.7876
  803MOL0     H 8387   1.218   5.457   8.320 -2.8891  0.5388  1.4481
  803MOL0     H 8388   1.150   5.625   8.474  0.1517 -0.4064 -1.2616
  803MOL0     H 8389   1.607   5.401  10.686  0.6136 -0.1723  2.6294
  803MOL0     H 8390   1.646   5.550  10.879 -2.3431 -0.0838  2.8519
  803MOL0     H 8391   1.411   5.923  11.148 -0.1895  0.7368 -3.0238
  803MOL0     H 8392   1.456   6.021  11.347  0.6536  2.5178 -0.4096
  803MOL0     H 8393   1.614   6.151  11.642 -1.2723 -2.6846  0.2159
  803MOL0     H 8394   1.499   6.098  11.524 -1.3860  0.7686 -2.0607
  803MOL0     H 8395   1.517   6.281  11.395 -4.9464  1.1586  2.7836
  803MOL0     H 8396   1.671   6.334  11.457  2.8897 -3.4845 -0.4457
  803MOL0     H 8397   1.469   6.471  11.557  1.0438  0.5867  0.1974
  803MOL0     H 8398   1.575   6.387  11.675  1.2525 -1.1258 -1.1655
  803MOL0     H 8399   1.409   6.210  11.687 -0.2623 -0.1414  1.3957
  803MOL0     H 8400   1.345   6.366  11.747  0.4618  0.0633 -0.0013
  803MOL0     H 8401   1.099   6.248  11.408 -0.8190  0.4594 -0.2152
  803MOL0     H 8402   1.874   6.026  11.289  0.3671 -4.0924  1.5277
  803MOL0     H 8403   1.964   5.859  11.106  0.2756 -0.9712 -1.6871
  803MOL0     H 8404   1.874   5.873  10.961 -1.0476  1.1896 -0.2040
  803MOL0     H 8405   1.922   6.023  11.036 -0.1708  0.1720 -2.6867
  804MOL0     O 8406   6.905   5.087   3.211 -0.0899  0.3642  0.1547
  804MOL0     C 8407   6.817   5.059   3.124  0.7904  0.5004 -1.0476
  804MOL0     O 8408   6.688   5.095   3.138  0.7144  0.4016 -0.2691
  804MOL0     C 8409   6.668   5.185   3.238 -0.0014  0.2248  0.6882
  804MOL0     C 8410   6.580   5.149   3.343 -0.2521  0.1922  0.4726
  804MOL0     C 8411   6.544   5.244   3.437 -1.1638  0.2078 -0.2795
  804MOL0     C 8412   6.588   5.376   3.418  0.1038 -0.0347  0.1619
  804MOL0     O 8413   6.537   5.483   3.491  0.8530  1.5767 -0.3883
  804MOL0     C 8414   6.454   5.450   3.608 -0.1968 -0.5306  0.0249
  804MOL0     C 8415   6.428   5.571   3.696  0.3515 -0.4045  0.4158
  804MOL0     C 8416   6.365   5.531   3.833 -1.2353  0.6047  0.8755
  804MOL0     C 8417   6.375   5.643   3.928  0.6441  0.9785  0.9293
  804MOL0     C 8418   6.268   5.634   4.032 -0.2107  0.4120  1.2366
  804MOL0     C 8419   6.306   5.719   4.150 -0.6637 -0.3178  0.1776
  804MOL0     C 8420   6.187   5.747   4.246 -0.3026 -0.1235  0.5214
  804MOL0     C 8421   6.211   5.876   4.331 -0.9286 -0.1061 -0.9190
  804MOL0     N 8422   6.094   5.886   4.424  0.4443 -0.4391  0.3305
  804MOL0     C 8423   6.091   5.839   4.562  0.0732  0.6450  0.0508
  804MOL0     C 8424   5.975   5.889   4.616 -0.4447 -0.0771 -0.4326
  804MOL0     C 8425   5.919   5.860   4.752 -0.1461  0.7362 -0.5399
  804MOL0     C 8426   5.819   5.749   4.742  0.4976  0.2160 -0.5392
  804MOL0     C 8427   5.686   5.796   4.693  0.2750  0.0333  0.0517
  804MOL0     C 8428   5.567   5.705   4.705  0.2184  0.2911  0.0571
  804MOL0     O 8429   5.521   5.694   4.841 -0.0194  0.2141 -0.1026
  804MOL0     C 8430   5.438   5.587   4.871  0.1797 -1.3419  0.2077
  804MOL0     C 8431   5.354   5.516   4.778  0.0184 -0.1152  0.0340
  804MOL0     C 8432   5.258   5.426   4.831 -0.4552  0.0315  0.1734
  804MOL0     C 8433   5.259   5.389   4.971 -1.2163 -0.2324 -0.7063
  804MOL0     C 8434   5.156   5.297   5.017 -1.2713 -0.2426 -0.1247
  804MOL0     O 8435   5.197   5.191   5.099 -0.5432  0.6158  0.3797
  804MOL0     C 8436   5.103   5.114   5.164 -0.8442  0.0575 -0.2035
  804MOL0     C 8437   4.971   5.164   5.197  0.6711  0.2883 -0.0770
  804MOL0     C 8438   4.868   5.080   5.241 -0.2008  1.3363  0.8288
  804MOL0     C 8439   4.893   4.948   5.269  0.8307 -0.1535  0.0603
  804MOL0     O 8440   4.794   4.856   5.304  0.1276  1.3885 -0.2448
  804MOL0     C 8441   4.655   4.878   5.246 -0.6574 -0.2290  0.5669
  804MOL0     C 8442   4.564   4.771   5.308 -0.1202 -0.0795  0.0734
  804MOL0     C 8443   4.579   4.634   5.227  0.2773 -0.1673 -1.0701
  804MOL0     C 8444   4.456   4.542   5.260  0.7706  0.5086  0.0186
  804MOL0     C 8445   4.413   4.446   5.143  0.2340 -0.3518 -0.3914
  804MOL0     C 8446   4.278   4.373   5.185  0.3234 -0.3354 -0.3401
  804MOL0     C 8447   4.231   4.290   5.067  0.1673  1.2014 -0.1529
  804MOL0     C 8448   4.144   4.166   5.124  0.0143 -0.3420 -0.3361
  804MOL0    Cl 8449   4.234   4.060   5.236  0.7964  0.0724  0.0236
  804MOL0     C 8450   5.030   4.910   5.265  0.0848  0.3699  0.1192
  804MOL0     C 8451   5.125   4.982   5.202  0.0778 -0.6983 -0.7404
  804MOL0     O 8452   5.045   5.312   4.973  0.2446 -0.0111 -0.1921
  804MOL0     C 8453   5.342   5.460   5.063 -0.2799 -1.0410 -0.2889
  804MOL0     C 8454   5.436   5.552   5.003  0.4626  0.2243 -0.7185
  804MOL0     N 8455   5.921   5.971   4.517 -0.3615  0.4820 -0.5595
  804MOL0     N 8456   5.983   5.960   4.411 -0.4341 -0.5954 -0.2247
  804MOL0     C 8457   6.667   5.409   3.314 -0.7698  0.4613  0.5288
  804MOL0     C 8458   6.727   5.315   3.229  0.6799  0.5771 -0.2016
  804MOL0     C 8459   6.857   4.962   3.020  0.6051  0.1513 -0.8063
  804MOL0     C 8460   6.932   4.851   3.063  0.5752 -0.1611  0.5514
  804MOL0     C 8461   6.956   4.746   2.967  0.0511 -0.0474 -0.6914
  804MOL0     C 8462   6.910   4.754   2.831 -0.6866  0.1436  0.0293
  804MOL0     O 8463   6.921   4.648   2.747 -0.3323 -0.8949 -0.3184
  804MOL0     C 8464   6.950   4.680   2.605  1.0316 -0.1177 -0.4382
  804MOL0     C 8465   7.009   4.562   2.540  0.5212  1.1520  0.2714
  804MOL0     C 8466   6.917   4.433   2.567 -0.7058  0.1235 -0.8516
  804MOL0     C 8467   6.770   4.457   2.516 -0.7225  0.3661 -0.5449
  804MOL0     C 8468   6.767   4.454   2.369  0.6427 -0.3006 -0.1018
  804MOL0     C 8469   6.748   4.444   2.246  0.1178 -0.1645 -0.0013
  804MOL0     C 8470   6.845   4.872   2.794  1.3091 -0.0738  0.5750
  804MOL0     C 8471   6.815   4.978   2.888 -0.0170  0.5021  0.3628
  804MOL0     C 8472   6.734   5.092   2.838 -0.8076 -0.2020  0.5042
  804MOL0     H 8473   6.544   5.046   3.343 -1.8111  0.7086  0.9744
  804MOL0     H 8474   6.505   5.210   3.533 -2.1214  0.9200 -0.4006
  804MOL0     H 8475   6.356   5.413   3.578 -1.2862  1.7723  0.5265
  804MOL0     H 8476   6.500   5.374   3.672 -0.6677 -1.0063 -0.1986
  804MOL0     H 8477   6.348   5.630   3.650 -0.9845 -0.1098  2.9484
  804MOL0     H 8478   6.522   5.627   3.710  0.2780  0.2043 -1.2256
  804MOL0     H 8479   6.417   5.451   3.886  1.1317  1.6186  0.2175
  804MOL0     H 8480   6.259   5.508   3.818 -0.9027  0.2172 -1.2564
  804MOL0     H 8481   6.469   5.637   3.984  0.3754  0.8829  1.3754
  804MOL0     H 8482   6.379   5.737   3.872 -0.8276  1.2477  1.2213
  804MOL0     H 8483   6.173   5.668   3.990 -1.5147 -2.9863  1.1418
  804MOL0     H 8484   6.249   5.529   4.056 -1.4112  0.5949  1.1413
  804MOL0     H 8485   6.392   5.676   4.202 -0.4324 -0.8018 -0.5920
  804MOL0     H 8486   6.341   5.815   4.111 -2.1694  1.6376  3.2804
  804MOL0     H 8487   6.160   5.666   4.315  0.4841 -1.0091 -0.1786
  804MOL0     H 8488   6.098   5.777   4.191  0.9070 -2.3344 -3.0005
  804MOL0     H 8489   6.304   5.873   4.387 -2.5870  0.7549  2.0708
  804MOL0     H 8490   6.216   5.968   4.272  0.1974  0.3455 -0.1394
  804MOL0     H 8491   6.158   5.775   4.617 -2.2555 -2.1243 -0.1174
  804MOL0     H 8492   6.007   5.844   4.815 -0.3961 -3.1771 -0.9311
  804MOL0     H 8493   5.872   5.947   4.798  1.5443 -0.0081  2.9200
  804MOL0     H 8494   5.867   5.672   4.681  0.2635  0.8011 -1.4731
  804MOL0     H 8495   5.804   5.707   4.842  4.5307  1.7557  0.9058
  804MOL0     H 8496   5.711   5.812   4.588  0.7256 -3.1818 -0.4265
  804MOL0     H 8497   5.666   5.885   4.753 -2.6381  0.1741 -0.9634
  804MOL0     H 8498   5.612   5.609   4.681  0.3075 -0.1030  1.6714
  804MOL0     H 8499   5.479   5.722   4.643  0.5953  1.7577 -0.1183
  804MOL0     H 8500   5.360   5.534   4.671  0.7709  0.4638  0.1664
  804MOL0     H 8501   5.179   5.381   4.771 -2.1314  1.5186  1.1504
  804MOL0     H 8502   4.933   5.261   5.168  0.1194 -0.5100 -2.1985
  804MOL0     H 8503   4.772   5.127   5.259 -0.1321  0.6922  3.2544
  804MOL0     H 8504   4.611   4.977   5.262 -0.6462  0.0711 -1.0590
  804MOL0     H 8505   4.637   4.874   5.138 -1.3210 -0.7016  0.6899
  804MOL0     H 8506   4.568   4.766   5.417 -0.9315  3.0421  0.3347
  804MOL0     H 8507   4.466   4.815   5.285  0.3724  1.1146  0.2171
  804MOL0     H 8508   4.586   4.648   5.119  4.9299 -1.7965 -1.2205
  804MOL0     H 8509   4.677   4.600   5.263 -0.2224 -1.4527 -0.8668
  804MOL0     H 8510   4.374   4.605   5.296 -2.1645 -3.5587  1.2372
  804MOL0     H 8511   4.480   4.484   5.350  0.4594 -0.8332 -0.7427
  804MOL0     H 8512   4.502   4.385   5.124  0.8596  0.1799  0.7319
  804MOL0     H 8513   4.391   4.501   5.051 -2.7979 -1.0082 -0.1695
  804MOL0     H 8514   4.300   4.310   5.271  1.6134  0.9262  0.2974
  804MOL0     H 8515   4.206   4.455   5.196  0.8089  0.5389 -2.8460
  804MOL0     H 8516   4.315   4.253   5.007  0.4987  2.0464 -0.2170
  804MOL0     H 8517   4.162   4.345   5.003 -0.7903 -0.7624 -0.8881
  804MOL0     H 8518   4.070   4.227   5.176  1.0697  0.3472  0.3975
  804MOL0     H 8519   4.097   4.095   5.056  1.1584 -0.4072 -1.0793
  804MOL0     H 8520   5.054   4.811   5.303  0.6545 -0.0420 -1.2401
  804MOL0     H 8521   5.227   4.950   5.185  0.3416 -1.3485  1.7132
  804MOL0     H 8522   5.323   5.436   5.167 -1.0762 -1.1543 -0.4469
  804MOL0     H 8523   5.511   5.595   5.069 -1.6645  1.2732  1.1262
  804MOL0     H 8524   6.685   5.516   3.307 -1.3397  0.9216  3.9995
  804MOL0     H 8525   6.786   5.349   3.145  1.6646  3.2815  1.4498
  804MOL0     H 8526   6.976   4.843   3.162  2.0140 -1.2263 -0.1330
  804MOL0     H 8527   7.004   4.655   3.004  0.7782  0.2826 -0.7944
  804MOL0     H 8528   7.019   4.763   2.592  0.5172  0.1815 -1.3950
  804MOL0     H 8529   6.860   4.702   2.547  3.3867  0.0298 -4.3744
  804MOL0     H 8530   7.113   4.542   2.568  0.3765  1.6915  1.2431
  804MOL0     H 8531   7.016   4.584   2.434 -0.1803  0.4859  0.0766
  804MOL0     H 8532   6.935   4.406   2.671  0.6093 -0.2424 -1.1572
  804MOL0     H 8533   6.964   4.347   2.518 -3.1316 -2.0882  0.4580
  804MOL0     H 8534   6.712   4.368   2.543  2.0994 -2.4304 -2.7674
  804MOL0     H 8535   6.729   4.553   2.545  1.7995  1.3803 -0.0250
  804MOL0     H 8536   6.734   4.444   2.140  1.1133 -1.4013 -0.1574
  804MOL0     H 8537   6.795   4.883   2.699 -2.3608  0.2005  2.3425
  804MOL0     H 8538   6.722   5.175   2.909  1.2781 -0.8668  1.7184
  804MOL0     H 8539   6.778   5.132   2.746  1.4477 -0.1865  1.5385
  804MOL0     H 8540   6.635   5.053   2.811 -0.6049 -0.6753  0.4458
  805MOL0     O 8541   7.607   3.225   5.988 -0.6288 -0.2378  0.3374
  805MOL0     C 8542   7.531   3.128   5.961  1.0626 -0.4858  1.5041
  805MOL0     O 8543   7.477   3.042   6.061 -0.6906  0.3273  0.2281
  805MOL0     C 8544   7.530   3.052   6.191 -0.5157 -0.4394 -0.2339
  805MOL0     C 8545   7.665   3.035   6.223 -0.0403  0.6872 -0.1542
  805MOL0     C 8546   7.711   3.049   6.357 -0.1298 -0.1838  0.4065
  805MOL0     C 8547   7.616   3.074   6.459  0.3985 -0.0601  1.0898
  805MOL0     O 8548   7.643   3.078   6.596 -0.4155  0.2433 -0.0289
  805MOL0     C 8549   7.775   3.103   6.642  0.1000  0.0396  0.6330
  805MOL0     C 8550   7.790   3.239   6.718 -0.0693  0.2557  0.0932
  805MOL0     C 8551   7.742   3.240   6.865  0.6731 -0.0363  0.3114
  805MOL0     C 8552   7.604   3.313   6.874 -1.2002  0.0772  0.2738
  805MOL0     C 8553   7.539   3.263   7.005 -0.7145  0.0059 -0.6671
  805MOL0     C 8554   7.394   3.309   7.018 -0.6116 -0.1687  0.4473
  805MOL0     C 8555   7.307   3.243   6.905  0.5980  0.4938  0.1766
  805MOL0     C 8556   7.214   3.134   6.963  0.5003 -0.1814 -0.6560
  805MOL0     N 8557   7.120   3.080   6.867  0.2032 -0.0521 -0.7086
  805MOL0     C 8558   7.138   2.956   6.803  0.3080  0.0057  1.4356
  805MOL0     C 8559   7.050   2.953   6.703 -0.2379  0.4253  0.4037
  805MOL0     C 8560   7.040   2.855   6.587 -0.4397 -0.7461 -0.0749
  805MOL0     C 8561   7.142   2.883   6.467 -0.1311 -0.5338 -0.7120
  805MOL0     C 8562   7.120   2.800   6.339  1.3333  0.5065 -0.6502
  805MOL0     C 8563   7.228   2.818   6.232  0.2889 -0.3737 -0.0378
  805MOL0     O 8564   7.240   2.701   6.143  0.1161 -0.3749  0.0841
  805MOL0     C 8565   7.356   2.630   6.145  0.6428  0.1587 -0.3621
  805MOL0     C 8566   7.436   2.615   6.259  0.0350  0.1161  0.3948
  805MOL0     C 8567   7.547   2.529   6.251  0.0177  0.7629 -0.0845
  805MOL0     C 8568   7.574   2.458   6.130 -0.5650 -0.4503  0.0671
  805MOL0     C 8569   7.692   2.374   6.127  0.0289 -0.1301 -0.6416
  805MOL0     O 8570   7.730   2.336   6.003 -0.7798 -0.0321  0.3218
  805MOL0     C 8571   7.851   2.274   5.990 -0.8896 -0.0774 -0.1610
  805MOL0     C 8572   7.851   2.157   5.907  0.1979 -0.2832 -0.4221
  805MOL0     C 8573   7.973   2.092   5.881  0.0671 -0.1666 -0.7216
  805MOL0     C 8574   8.094   2.145   5.929 -0.2708 -1.0114  0.3612
  805MOL0     O 8575   8.226   2.092   5.910 -0.4042  0.1776  0.1243
  805MOL0     C 8576   8.239   1.954   5.867  0.5479 -0.0024  0.5406
  805MOL0     C 8577   8.390   1.934   5.859  0.5774  0.9758  0.9766
  805MOL0     C 8578   8.443   1.824   5.760  0.7023 -0.2075  0.7214
  805MOL0     C 8579   8.408   1.864   5.612 -0.6456  0.0869  0.1919
  805MOL0     C 8580   8.496   1.796   5.504 -0.1512  0.2252  0.4457
  805MOL0     C 8581   8.422   1.796   5.366  0.1576  0.5623  0.5031
  805MOL0     C 8582   8.503   1.725   5.253  0.2640 -0.1845 -0.9707
  805MOL0     C 8583   8.431   1.710   5.124  0.6317 -0.3326 -0.1152
  805MOL0    Cl 8584   8.410   1.858   5.032  0.3751  0.2600  0.0999
  805MOL0     C 8585   8.092   2.262   6.004  0.1802 -0.2855  0.0698
  805MOL0     C 8586   7.973   2.328   6.037 -0.2472 -0.2152 -0.7919
  805MOL0     O 8587   7.752   2.343   6.233 -0.3284  0.2351  0.6004
  805MOL0     C 8588   7.497   2.479   6.013  0.1880  1.0519  0.0974
  805MOL0     C 8589   7.395   2.566   6.024  0.2381  0.7213  0.1832
  805MOL0     N 8590   6.971   3.065   6.718  0.4652 -0.1448 -0.8799
  805MOL0     N 8591   7.010   3.137   6.811 -0.6002 -0.1388 -0.5075
  805MOL0     C 8592   7.478   3.075   6.426  0.4209 -0.7640  0.4336
  805MOL0     C 8593   7.436   3.072   6.292  0.4179 -1.3188 -0.2298
  805MOL0     C 8594   7.475   3.099   5.823 -0.1480 -0.7727 -0.8986
  805MOL0     C 8595   7.358   3.014   5.808 -0.4827  0.6876  0.3081
  805MOL0     C 8596   7.288   2.996   5.685  0.7007 -0.3259 -1.3197
  805MOL0     C 8597   7.345   3.041   5.563  0.1514  0.2678  0.0465
  805MOL0     O 8598   7.304   3.017   5.434 -0.5198 -0.0151  0.3673
  805MOL0     C 8599   7.222   2.896   5.420 -0.2885 -0.0052 -0.3530
  805MOL0     C 8600   7.189   2.875   5.261 -0.1190 -0.7254 -0.3504
  805MOL0     C 8601   7.106   2.988   5.205 -0.2130 -0.0687  1.1243
  805MOL0     C 8602   7.087   2.987   5.051 -0.2451 -0.2580  0.7448
  805MOL0     C 8603   6.982   3.072   5.008 -0.3476  0.7054  0.4748
  805MOL0     C 8604   6.907   3.158   4.967  0.5758 -0.2825 -0.3940
  805MOL0     C 8605   7.449   3.126   5.577 -0.8182 -0.5924 -0.1809
  805MOL0     C 8606   7.508   3.166   5.701  0.7006 -0.6160 -1.1910
  805MOL0     C 8607   7.611   3.279   5.693 -0.0593  0.1894  0.2398
  805MOL0     H 8608   7.735   3.018   6.142  0.1897  0.0297  0.1753
  805MOL0     H 8609   7.817   3.034   6.373 -0.2100 -0.9759  0.2464
  805MOL0     H 8610   7.810   3.024   6.708 -0.6236 -1.0329 -0.2281
  805MOL0     H 8611   7.847   3.106   6.559 -0.7239 -2.9738 -0.3265
  805MOL0     H 8612   7.760   3.321   6.652 -0.4632  0.9441  1.1003
  805MOL0     H 8613   7.897   3.255   6.729 -0.3072  3.2065 -0.9191
  805MOL0     H 8614   7.818   3.278   6.934 -0.7559  0.0669  1.8967
  805MOL0     H 8615   7.723   3.137   6.899 -1.6009  1.0610  2.7134
  805MOL0     H 8616   7.629   3.418   6.893  0.8769  0.2983 -2.8881
  805MOL0     H 8617   7.538   3.317   6.787  0.5096  1.1873 -1.0669
  805MOL0     H 8618   7.543   3.155   7.020  0.8100 -0.2013 -2.2835
  805MOL0     H 8619   7.583   3.305   7.096 -0.4393 -2.9293  0.6637
  805MOL0     H 8620   7.363   3.267   7.115  3.7541 -2.1496  1.2168
  805MOL0     H 8621   7.393   3.418   7.024  2.5594  0.0768 -1.3443
  805MOL0     H 8622   7.366   3.181   6.837 -0.7891 -1.1898  0.4586
  805MOL0     H 8623   7.250   3.325   6.859  0.9420  0.7605  0.2226
  805MOL0     H 8624   7.281   3.062   7.009  1.6832  1.9441  1.1392
  805MOL0     H 8625   7.148   3.168   7.044 -0.5148 -2.4727 -0.4441
  805MOL0     H 8626   7.216   2.887   6.835  0.2415 -0.2001  1.1636
  805MOL0     H 8627   7.053   2.754   6.626 -0.0579 -0.3871  0.7621
  805MOL0     H 8628   6.941   2.857   6.538  0.5879  1.2389 -2.2975
  805MOL0     H 8629   7.135   2.988   6.438  0.8218 -0.2694 -0.0647
  805MOL0     H 8630   7.246   2.878   6.500 -0.3159  3.2803  1.0744
  805MOL0     H 8631   7.024   2.838   6.304  0.1620 -1.3433  0.4254
  805MOL0     H 8632   7.114   2.694   6.366  1.6072  0.5584 -0.3801
  805MOL0     H 8633   7.324   2.848   6.275 -0.0428  1.2194 -0.3350
  805MOL0     H 8634   7.213   2.902   6.164  0.6240 -1.1790 -1.1348
  805MOL0     H 8635   7.429   2.671   6.352  1.8546 -0.1746  0.7543
  805MOL0     H 8636   7.617   2.512   6.332  0.3195 -1.4035 -0.7351
  805MOL0     H 8637   7.759   2.113   5.872 -0.2129  1.1647 -1.2530
  805MOL0     H 8638   7.965   2.005   5.816  1.0658  0.8096 -2.2075
  805MOL0     H 8639   8.176   1.887   5.926 -2.2944  0.9420 -1.1815
  805MOL0     H 8640   8.200   1.948   5.764 -2.9334  1.5204  1.6052
  805MOL0     H 8641   8.438   2.026   5.824  1.1351 -0.2652 -1.7390
  805MOL0     H 8642   8.436   1.908   5.955 -0.3725 -2.0300  0.7023
  805MOL0     H 8643   8.551   1.824   5.774  0.9217  0.2658 -0.8441
  805MOL0     H 8644   8.406   1.723   5.777  2.6568 -1.7506 -3.1072
  805MOL0     H 8645   8.432   1.967   5.583  0.3282 -0.6559 -1.8468
  805MOL0     H 8646   8.300   1.851   5.602 -0.6106 -0.6271  0.6487
  805MOL0     H 8647   8.547   1.700   5.517 -1.6881 -0.8958 -1.3468
  805MOL0     H 8648   8.584   1.860   5.495  0.8157 -1.2119 -0.7503
  805MOL0     H 8649   8.322   1.750   5.372  0.4614 -0.0421  1.0325
  805MOL0     H 8650   8.417   1.902   5.339  1.1985  0.3929 -0.4148
  805MOL0     H 8651   8.539   1.627   5.284  1.2315  0.1020 -1.1660
  805MOL0     H 8652   8.598   1.779   5.251  2.4399 -2.9707  4.4792
  805MOL0     H 8653   8.484   1.637   5.063  1.2783  0.7724 -0.9025
  805MOL0     H 8654   8.331   1.666   5.137 -0.0675  1.1298 -0.3220
  805MOL0     H 8655   8.182   2.310   6.043 -1.6928  2.1553  1.6943
  805MOL0     H 8656   7.971   2.413   6.105  1.0093 -1.2365  0.5881
  805MOL0     H 8657   7.509   2.425   5.920 -1.3034  0.5314  0.1724
  805MOL0     H 8658   7.328   2.562   5.938 -0.7119 -1.5614  0.9311
  805MOL0     H 8659   7.397   3.084   6.498  0.0472  2.8369 -0.2440
  805MOL0     H 8660   7.333   3.092   6.263 -0.2485 -1.3511  1.9013
  805MOL0     H 8661   7.318   2.962   5.894  1.5498 -0.8059  0.4256
  805MOL0     H 8662   7.199   2.935   5.671 -0.3413  1.1440 -1.3078
  805MOL0     H 8663   7.124   2.908   5.468 -0.0073 -0.4122  0.3205
  805MOL0     H 8664   7.276   2.809   5.457 -0.6014  0.3949  1.1101
  805MOL0     H 8665   7.132   2.784   5.241 -3.8590  1.7379 -1.9487
  805MOL0     H 8666   7.287   2.864   5.214 -0.9334 -1.3870 -1.9319
  805MOL0     H 8667   7.144   3.087   5.233  1.0475 -0.9725  2.8388
  805MOL0     H 8668   7.002   2.979   5.238 -1.7284  2.3644 -2.3839
  805MOL0     H 8669   7.180   3.014   5.001 -0.4219 -1.7676 -0.4885
  805MOL0     H 8670   7.051   2.890   5.014  0.3564 -0.3427  0.3783
  805MOL0     H 8671   6.855   3.245   4.935  1.3782 -0.0038 -0.9618
  805MOL0     H 8672   7.483   3.169   5.483 -1.5002 -0.0885 -0.2061
  805MOL0     H 8673   7.577   3.370   5.743  1.2484  0.2347  1.1057
  805MOL0     H 8674   7.697   3.244   5.751 -0.0929 -1.7129 -0.7763
  805MOL0     H 8675   7.650   3.296   5.592  3.5479  0.2792  1.4963
  806MOL0     O 8676  10.127   2.788  10.555  0.1616  0.7104 -0.6551
  806MOL0     C 8677  10.088   2.900  10.535  0.5283 -0.4012  0.0897
  806MOL0     O 8678   9.960   2.938  10.492 -0.1550 -0.6599 -0.4123
  806MOL0     C 8679   9.859   2.850  10.505  0.1432 -0.3703 -0.0522
  806MOL0     C 8680   9.739   2.877  10.572  0.0681  0.7847  0.0647
  806MOL0     C 8681   9.642   2.775  10.580  0.7173 -1.2112 -0.1170
  806MOL0     C 8682   9.656   2.646  10.532  0.3983  0.2543 -0.5337
  806MOL0     O 8683   9.553   2.553  10.542 -0.1336 -0.5440  0.2170
  806MOL0     C 8684   9.451   2.562  10.652 -0.7363 -0.3728  0.0698
  806MOL0     C 8685   9.372   2.429  10.643 -0.2045 -0.4735 -0.5227
  806MOL0     C 8686   9.300   2.377  10.765  0.4498  0.4957 -0.0853
  806MOL0     C 8687   9.183   2.276  10.738  0.7381  1.0157  0.2265
  806MOL0     C 8688   9.178   2.170  10.845  0.1667  1.0936 -0.1766
  806MOL0     C 8689   9.154   2.214  10.992 -0.0170 -0.1860  0.1944
  806MOL0     C 8690   9.065   2.113  11.062 -0.0852  0.8489 -0.9625
  806MOL0     C 8691   9.152   2.000  11.135 -0.8912  0.0768 -0.6654
  806MOL0     N 8692   9.073   1.894  11.203 -0.3978  0.5698 -0.0907
  806MOL0     C 8693   8.976   1.936  11.299  0.5190  0.0220  0.3311
  806MOL0     C 8694   8.895   1.837  11.290  1.6324  0.7927 -0.5361
  806MOL0     C 8695   8.757   1.842  11.374  1.1332 -0.2323  1.4748
  806MOL0     C 8696   8.778   1.895  11.518 -0.5065  0.3523 -0.0379
  806MOL0     C 8697   8.641   1.887  11.605  0.0262 -0.1501 -0.7886
  806MOL0     C 8698   8.590   1.740  11.648  0.7201  0.0713  0.3456
  806MOL0     O 8699   8.450   1.761  11.701  0.3192 -0.7185  0.3595
  806MOL0     C 8700   8.346   1.752  11.610 -0.2565  0.3052 -0.1726
  806MOL0     C 8701   8.355   1.739  11.471  0.7019  0.1297 -0.1984
  806MOL0     C 8702   8.238   1.735  11.396 -0.1286  0.1458  0.2039
  806MOL0     C 8703   8.108   1.733  11.456 -0.0161 -0.4562  0.0548
  806MOL0     C 8704   7.989   1.721  11.382  0.2716  0.0123 -0.5789
  806MOL0     O 8705   7.877   1.688  11.446  1.2785 -0.2432  0.0794
  806MOL0     C 8706   7.767   1.721  11.369  0.8356 -0.6233 -0.0171
  806MOL0     C 8707   7.674   1.808  11.433  0.1744  0.6696 -0.6874
  806MOL0     C 8708   7.540   1.822  11.386 -0.5114  0.6708  0.7857
  806MOL0     C 8709   7.510   1.770  11.254 -0.5669 -0.3707 -0.1529
  806MOL0     O 8710   7.391   1.778  11.195  0.6599  1.0234 -0.6044
  806MOL0     C 8711   7.314   1.899  11.212  0.0787  0.3516 -0.1332
  806MOL0     C 8712   7.192   1.864  11.299  0.4764  0.6492  0.1445
  806MOL0     C 8713   7.085   1.774  11.231  1.5023 -0.1739 -0.3240
  806MOL0     C 8714   6.958   1.789  11.318  0.3097 -0.7837  0.1570
  806MOL0     C 8715   6.858   1.670  11.294  0.0335 -0.9292 -0.8936
  806MOL0     C 8716   6.726   1.696  11.343 -0.8667 -0.7475  0.6540
  806MOL0     C 8717   6.637   1.570  11.336  0.8487  0.0998  0.0686
  806MOL0     C 8718   6.594   1.534  11.188  0.7746  0.0107  0.1185
  806MOL0    Cl 8719   6.498   1.384  11.198  0.0975 -0.8011  0.3242
  806MOL0     C 8720   7.601   1.674  11.199 -0.1619 -0.2142 -0.7203
  806MOL0     C 8721   7.732   1.654  11.253  0.1380  0.7214  1.6740
  806MOL0     O 8722   8.002   1.743  11.263 -1.2214  0.2794 -0.2252
  806MOL0     C 8723   8.101   1.757  11.590 -0.1134  0.2451  0.6842
  806MOL0     C 8724   8.220   1.766  11.667 -0.3211  0.8264 -0.1758
  806MOL0     N 8725   8.936   1.739  11.206  0.1689  0.7511  0.5432
  806MOL0     N 8726   9.047   1.775  11.152 -0.3592  0.0501  0.5132
  806MOL0     C 8727   9.778   2.619  10.472 -0.0667 -0.2631 -0.8223
  806MOL0     C 8728   9.874   2.721  10.456 -0.0821  0.7944  0.6970
  806MOL0     C 8729  10.181   3.015  10.557  0.0733 -0.1479  0.0970
  806MOL0     C 8730  10.137   3.144  10.559 -1.1154 -0.9272  0.0154
  806MOL0     C 8731  10.215   3.255  10.567  0.2072 -0.3647  0.6106
  806MOL0     C 8732  10.352   3.237  10.567  0.6839 -0.4499  0.4189
  806MOL0     O 8733  10.448   3.343  10.574  0.5108  0.7146  0.1995
  806MOL0     C 8734  10.407   3.482  10.569  0.3232 -0.0645  0.1059
  806MOL0     C 8735  10.486   3.560  10.671 -0.7240 -0.3026  0.2153
  806MOL0     C 8736  10.627   3.592  10.616 -0.8771  0.4875 -0.8260
  806MOL0     C 8737  10.627   3.725  10.539  0.1888  0.0545  0.3728
  806MOL0     C 8738  10.614   3.839  10.626  0.2059 -0.2781 -0.6725
  806MOL0     C 8739  10.595   3.926  10.708 -0.4646  0.5994 -0.1328
  806MOL0     C 8740  10.405   3.109  10.587 -1.3895  0.5204  1.2693
  806MOL0     C 8741  10.324   2.994  10.574 -1.2301 -0.4591 -0.3671
  806MOL0     C 8742  10.393   2.856  10.568 -0.5824 -0.1029 -0.2577
  806MOL0     H 8743   9.722   2.981  10.600  2.0718  1.1038  0.2875
  806MOL0     H 8744   9.555   2.796  10.642  0.7875 -2.4819  0.4389
  806MOL0     H 8745   9.495   2.563  10.752  1.4001 -0.2738 -0.8181
  806MOL0     H 8746   9.393   2.653  10.635 -1.1399 -0.2278  2.0272
  806MOL0     H 8747   9.449   2.353  10.628 -1.0337 -1.8151  1.5445
  806MOL0     H 8748   9.299   2.425  10.561  0.6622  0.8281 -1.4042
  806MOL0     H 8749   9.259   2.463  10.818  2.5152 -0.0068  2.5638
  806MOL0     H 8750   9.366   2.335  10.842 -1.0516 -1.4141  0.2265
  806MOL0     H 8751   9.090   2.331  10.726 -0.5124 -1.0588 -0.1271
  806MOL0     H 8752   9.198   2.221  10.644 -1.1086 -0.6683  0.8283
  806MOL0     H 8753   9.088   2.110  10.823 -0.2963  0.6177  2.6432
  806MOL0     H 8754   9.264   2.104  10.835 -2.0046 -1.7522 -1.7551
  806MOL0     H 8755   9.243   2.257  11.039 -0.4227  0.5239  0.3286
  806MOL0     H 8756   9.083   2.296  10.978 -0.4572 -0.7822 -1.2301
  806MOL0     H 8757   8.995   2.060  10.997 -2.2887  1.3012  0.9518
  806MOL0     H 8758   9.019   2.170  11.143  0.7391 -1.4544  1.2311
  806MOL0     H 8759   9.212   1.959  11.053 -3.1697 -2.0259 -1.3926
  806MOL0     H 8760   9.218   2.047  11.209  1.1010  0.0783 -2.3501
  806MOL0     H 8761   8.972   2.031  11.352 -1.5509 -0.9117  1.9263
  806MOL0     H 8762   8.691   1.914  11.324  2.5298  0.9873  1.3123
  806MOL0     H 8763   8.710   1.744  11.369  0.3962  0.1690  0.1063
  806MOL0     H 8764   8.856   1.829  11.557  0.6807  0.7607 -1.6270
  806MOL0     H 8765   8.830   1.992  11.522 -0.7640  0.5395 -1.0659
  806MOL0     H 8766   8.568   1.939  11.542 -0.8124  2.4259  2.0736
  806MOL0     H 8767   8.660   1.943  11.697 -2.7006 -0.5599  0.1207
  806MOL0     H 8768   8.653   1.690  11.723  0.1249  0.5628  1.1892
  806MOL0     H 8769   8.605   1.662  11.574 -0.9044 -0.4088  0.4915
  806MOL0     H 8770   8.451   1.735  11.420 -0.2456 -2.2317 -1.9904
  806MOL0     H 8771   8.240   1.727  11.288 -2.0544  3.0626 -0.1803
  806MOL0     H 8772   7.696   1.855  11.529 -2.6895 -0.8228  0.8586
  806MOL0     H 8773   7.472   1.874  11.452  0.9193  1.0441  2.0160
  806MOL0     H 8774   7.365   1.982  11.262 -0.9386  0.2460  1.1097
  806MOL0     H 8775   7.283   1.941  11.115 -0.1593  0.6096  0.0543
  806MOL0     H 8776   7.234   1.818  11.389  1.1777 -0.6384 -0.8226
  806MOL0     H 8777   7.152   1.957  11.341  2.0147  1.6637 -0.5642
  806MOL0     H 8778   7.067   1.811  11.130 -0.5303 -0.7939 -0.2340
  806MOL0     H 8779   7.117   1.669  11.229 -0.7658 -0.9154 -0.4079
  806MOL0     H 8780   6.921   1.890  11.296  1.1116 -0.7545 -1.2375
  806MOL0     H 8781   6.993   1.779  11.421  1.2597 -0.4505 -0.1181
  806MOL0     H 8782   6.893   1.585  11.353 -0.2137  1.3721  2.8343
  806MOL0     H 8783   6.857   1.632  11.191 -1.8401 -2.7798 -0.2754
  806MOL0     H 8784   6.724   1.734  11.446  0.3979  1.5225 -0.1035
  806MOL0     H 8785   6.676   1.776  11.289  1.3592  1.1664  1.2952
  806MOL0     H 8786   6.546   1.585  11.395  0.0905 -0.9759 -0.7821
  806MOL0     H 8787   6.688   1.486  11.383 -0.9294 -0.9288  0.2370
  806MOL0     H 8788   6.531   1.610  11.141  1.3224  0.8452  0.7219
  806MOL0     H 8789   6.686   1.516  11.131  1.1486 -1.6892  1.1625
  806MOL0     H 8790   7.593   1.621  11.105  1.7044 -1.1433 -0.3938
  806MOL0     H 8791   7.794   1.595  11.186 -2.5966  1.5550 -1.8494
  806MOL0     H 8792   8.006   1.748  11.640  0.3225  2.0575  1.9441
  806MOL0     H 8793   8.212   1.786  11.774 -0.5345  3.2278 -0.5815
  806MOL0     H 8794   9.796   2.521  10.428  1.0586 -0.8549  0.8421
  806MOL0     H 8795   9.962   2.690  10.400  0.6714  0.4918  2.0238
  806MOL0     H 8796  10.032   3.171  10.546 -1.2026 -0.3429  1.7216
  806MOL0     H 8797  10.179   3.357  10.575  1.5873  0.2262 -0.3175
  806MOL0     H 8798  10.302   3.510  10.584 -0.3504  0.5862 -4.3795
  806MOL0     H 8799  10.433   3.523  10.471  2.5774 -1.0472  0.2322
  806MOL0     H 8800  10.492   3.512  10.769 -0.1108 -0.1864  0.2407
  806MOL0     H 8801  10.422   3.646  10.689 -4.3162 -2.8479  0.6222
  806MOL0     H 8802  10.674   3.507  10.566 -0.2807 -0.6619  1.4929
  806MOL0     H 8803  10.694   3.602  10.702 -0.9694  0.8113 -0.7907
  806MOL0     H 8804  10.725   3.749  10.496  0.8205 -0.4748  1.4970
  806MOL0     H 8805  10.561   3.714  10.452  2.9007 -3.1152 -1.5423
  806MOL0     H 8806  10.570   4.000  10.781  0.5522  0.0176  0.8206
  806MOL0     H 8807  10.513   3.101  10.597 -1.3650 -0.0431  0.6069
  806MOL0     H 8808  10.363   2.800  10.479 -0.0860 -0.7099 -0.0503
  806MOL0     H 8809  10.501   2.865  10.582 -0.6141  0.4979 -0.3945
  806MOL0     H 8810  10.368   2.786  10.648  3.4921  0.2329  1.5835
  807MOL0     O 8811   4.583  10.782   6.130 -0.1161  0.0379  0.2527
  807MOL0     C 8812   4.680  10.809   6.200  0.1461  0.3996 -0.3482
  807MOL0     O 8813   4.695  10.925   6.274 -0.4467 -0.3150 -0.7096
  807MOL0     C 8814   4.596  11.018   6.286  0.0295 -0.0439 -0.9329
  807MOL0     C 8815   4.549  11.091   6.171 -0.7050  0.4980 -0.5363
  807MOL0     C 8816   4.436  11.173   6.168 -0.2787 -0.8005  0.0442
  807MOL0     C 8817   4.360  11.189   6.294 -0.1944  0.7594  0.5795
  807MOL0     O 8818   4.243  11.252   6.301  0.4278  0.6310 -0.4860
  807MOL0     C 8819   4.160  11.228   6.191 -0.6688  0.8102 -0.4305
  807MOL0     C 8820   4.035  11.313   6.199 -1.6719  0.4530  0.3422
  807MOL0     C 8821   3.950  11.271   6.318 -0.2869  0.2062 -0.4732
  807MOL0     C 8822   3.806  11.315   6.294 -0.4886  1.1989  0.7083
  807MOL0     C 8823   3.696  11.240   6.381  0.1519 -0.6000  0.8545
  807MOL0     C 8824   3.697  11.280   6.525 -0.6960  0.2727  0.8311
  807MOL0     C 8825   3.562  11.274   6.597 -0.6668  0.0763 -0.0875
  807MOL0     C 8826   3.484  11.141   6.589 -0.3792 -0.1170 -0.0486
  807MOL0     N 8827   3.375  11.129   6.696  0.5889 -0.8665  1.4657
  807MOL0     C 8828   3.331  11.011   6.757 -0.3746 -0.3146  0.0687
  807MOL0     C 8829   3.204  11.044   6.805  0.4953  0.4236  0.1865
  807MOL0     C 8830   3.115  10.935   6.871  0.4511  0.2052  0.0899
  807MOL0     C 8831   3.056  10.817   6.788  1.0274  0.1682 -0.0822
  807MOL0     C 8832   2.964  10.862   6.673 -1.5712 -1.0713  0.2911
  807MOL0     C 8833   2.826  10.891   6.713  0.5974  0.9787 -0.4818
  807MOL0     O 8834   2.740  10.908   6.599  0.3246 -0.5793 -0.2108
  807MOL0     C 8835   2.718  11.038   6.567 -1.1793  0.6957  0.2113
  807MOL0     C 8836   2.596  11.074   6.517  0.2368  0.0230  0.6797
  807MOL0     C 8837   2.568  11.204   6.476  0.4259  0.1769  0.7463
  807MOL0     C 8838   2.667  11.304   6.477 -0.1301  0.5464 -0.4675
  807MOL0     C 8839   2.653  11.441   6.414  0.7305 -0.4256 -0.5682
  807MOL0     O 8840   2.728  11.552   6.460 -0.3105  0.0481  0.1593
  807MOL0     C 8841   2.695  11.681   6.428  0.7567 -1.4602  0.0006
  807MOL0     C 8842   2.800  11.768   6.422 -0.7523 -0.6666  0.0549
  807MOL0     C 8843   2.784  11.904   6.405  0.0597  0.6377 -0.9186
  807MOL0     C 8844   2.658  11.961   6.381 -1.6150  0.9559 -0.0613
  807MOL0     O 8845   2.655  12.096   6.358 -0.0860 -0.3944  0.0334
  807MOL0     C 8846   2.526  12.159   6.363  0.2740 -0.4652  0.3946
  807MOL0     C 8847   2.545  12.313   6.353  0.3074 -0.4596 -0.4183
  807MOL0     C 8848   2.589  12.366   6.224 -0.4853  0.2245 -0.1920
  807MOL0     C 8849   2.593  12.521   6.230  0.6952 -0.0020  0.3332
  807MOL0     C 8850   2.625  12.595   6.096 -0.4718 -0.4975 -0.9838
  807MOL0     C 8851   2.514  12.591   5.983 -0.3147 -0.1360  0.4763
  807MOL0     C 8852   2.575  12.622   5.839 -0.4827 -0.8884 -0.3518
  807MOL0     C 8853   2.572  12.781   5.827 -0.1229  0.7129 -0.4261
  807MOL0    Cl 8854   2.393  12.830   5.833  0.3386  0.1128  0.3155
  807MOL0     C 8855   2.548  11.876   6.376  0.1126  0.6045 -0.7597
  807MOL0     C 8856   2.563  11.732   6.402  0.3657  0.8098 -0.2272
  807MOL0     O 8857   2.581  11.449   6.314 -0.6221 -0.1399 -0.3335
  807MOL0     C 8858   2.790  11.263   6.537  0.1815  0.4848  0.0380
  807MOL0     C 8859   2.814  11.135   6.579 -0.3808  0.1464 -0.7076
  807MOL0     N 8860   3.182  11.179   6.787  0.3207 -0.5857 -0.4337
  807MOL0     N 8861   3.276  11.224   6.713  0.1303 -0.3775 -0.1130
  807MOL0     C 8862   4.422  11.132   6.409 -0.4938  0.7462 -0.2854
  807MOL0     C 8863   4.541  11.052   6.408  0.8218 -0.0688  0.1844
  807MOL0     C 8864   4.797  10.711   6.182  0.9186  0.6139  0.8453
  807MOL0     C 8865   4.907  10.742   6.263 -0.7137  0.0210  0.0241
  807MOL0     C 8866   5.020  10.655   6.272  1.1976 -0.2880 -0.0938
  807MOL0     C 8867   5.020  10.536   6.203 -0.3846 -0.7570 -1.6440
  807MOL0     O 8868   5.125  10.450   6.217 -0.1234  0.5056 -0.0794
  807MOL0     C 8869   5.089  10.325   6.270  0.1893 -1.1275  0.8407
  807MOL0     C 8870   5.034  10.334   6.416 -0.4054 -0.5098  0.0975
  807MOL0     C 8871   5.081  10.208   6.496  0.1086 -0.1109 -0.9590
  807MOL0     C 8872   4.985  10.157   6.604 -1.1179 -0.0198 -0.4384
  807MOL0     C 8873   4.847  10.133   6.563  0.6826  0.0630 -0.0520
  807MOL0     C 8874   4.738  10.111   6.524 -0.7793 -1.2078  0.5683
  807MOL0     C 8875   4.898  10.499   6.136 -0.6561  0.9166 -0.1775
  807MOL0     C 8876   4.794  10.585   6.119  0.8795  0.3393 -0.1316
  807MOL0     C 8877   4.683  10.545   6.027  0.6787  0.5562  0.6218
  807MOL0     H 8878   4.603  11.071   6.079  2.1520  3.0543  0.3813
  807MOL0     H 8879   4.408  11.228   6.079  2.4230 -2.2233 -1.8020
  807MOL0     H 8880   4.202  11.252   6.092  0.4528 -2.5479 -0.8929
  807MOL0     H 8881   4.132  11.123   6.186  1.7003  0.0195  1.4785
  807MOL0     H 8882   3.969  11.295   6.114 -0.8744  0.5746 -0.3159
  807MOL0     H 8883   4.052  11.421   6.193 -1.1441  0.3162 -4.1614
  807MOL0     H 8884   3.977  11.324   6.410 -2.4269 -2.0978  1.6094
  807MOL0     H 8885   3.957  11.166   6.348  0.4526  0.2343 -0.5202
  807MOL0     H 8886   3.804  11.424   6.296 -0.1732  1.3241 -2.1565
  807MOL0     H 8887   3.779  11.284   6.192 -1.5155 -1.3386  1.6555
  807MOL0     H 8888   3.597  11.259   6.340  0.4563  2.8694  1.4396
  807MOL0     H 8889   3.712  11.134   6.362 -1.3015 -0.3084 -2.7348
  807MOL0     H 8890   3.775  11.225   6.578  0.3631  0.8385 -0.1089
  807MOL0     H 8891   3.728  11.384   6.527  0.6755 -0.0219 -1.4840
  807MOL0     H 8892   3.491  11.348   6.561 -0.0913  0.7543  0.1406
  807MOL0     H 8893   3.575  11.284   6.706 -2.6961 -4.8847  0.9147
  807MOL0     H 8894   3.440  11.121   6.490  1.5407  1.6032 -1.3310
  807MOL0     H 8895   3.555  11.064   6.619 -0.4165 -0.0734  0.1543
  807MOL0     H 8896   3.388  10.919   6.760 -1.3831 -1.0784 -2.0263
  807MOL0     H 8897   3.174  10.891   6.952  0.7484  1.4449  0.5630
  807MOL0     H 8898   3.035  10.992   6.919 -2.2480 -2.0669 -1.4502
  807MOL0     H 8899   3.133  10.749   6.751  0.4365  0.1235 -1.2534
  807MOL0     H 8900   2.997  10.753   6.855  1.3864 -0.1618 -0.0776
  807MOL0     H 8901   2.964  10.774   6.608  3.0867  0.6966 -2.6313
  807MOL0     H 8902   3.002  10.941   6.607 -4.1063 -1.3938 -1.7261
  807MOL0     H 8903   2.818  10.973   6.785 -1.2790  0.7788 -0.4104
  807MOL0     H 8904   2.783  10.806   6.768 -0.4022  2.3634  0.9511
  807MOL0     H 8905   2.527  10.990   6.510  0.3770  0.0002 -0.6889
  807MOL0     H 8906   2.469  11.223   6.438 -0.6441 -2.5443  1.9417
  807MOL0     H 8907   2.902  11.733   6.430 -1.3982 -2.6369  0.2177
  807MOL0     H 8908   2.870  11.970   6.417 -0.0175  0.4869  0.5675
  807MOL0     H 8909   2.462  12.131   6.279  0.6493 -0.2035  0.0179
  807MOL0     H 8910   2.476  12.124   6.454 -0.3238 -0.2972  0.1321
  807MOL0     H 8911   2.449  12.362   6.372 -1.0579 -2.2796 -2.1240
  807MOL0     H 8912   2.617  12.343   6.429  3.1865 -1.8532 -2.4110
  807MOL0     H 8913   2.686  12.320   6.202  0.6540  1.1437  2.5729
  807MOL0     H 8914   2.525  12.333   6.142  1.4251 -0.4131 -1.5032
  807MOL0     H 8915   2.654  12.566   6.309 -1.9046  1.4192  1.6851
  807MOL0     H 8916   2.490  12.546   6.256  0.5990 -1.3028  1.3320
  807MOL0     H 8917   2.718  12.551   6.059  0.2874  0.0234  0.2254
  807MOL0     H 8918   2.646  12.701   6.111 -1.1548 -0.7254  2.6575
  807MOL0     H 8919   2.467  12.492   5.978 -3.6902  1.2635  1.7146
  807MOL0     H 8920   2.430  12.657   6.007 -1.7063 -0.3963 -2.9813
  807MOL0     H 8921   2.535  12.570   5.752  4.5673 -2.8380 -1.8746
  807MOL0     H 8922   2.680  12.593   5.829  0.1189  1.1131 -0.3901
  807MOL0     H 8923   2.628  12.810   5.916  0.7900 -0.6304 -0.5394
  807MOL0     H 8924   2.622  12.831   5.743 -1.8132  3.5353  0.0867
  807MOL0     H 8925   2.448  11.915   6.356  0.1962  0.1151 -2.2563
  807MOL0     H 8926   2.479  11.666   6.384  0.6790  0.4762 -0.4583
  807MOL0     H 8927   2.878  11.327   6.533  0.3714  0.1734 -1.4887
  807MOL0     H 8928   2.908  11.108   6.627 -0.1737  2.5980  0.4189
  807MOL0     H 8929   4.373  11.147   6.505 -1.5514  1.9396 -0.9816
  807MOL0     H 8930   4.568  11.027   6.510 -3.0437  0.6532  1.5530
  807MOL0     H 8931   4.919  10.834   6.319  0.8702 -0.4336  0.4953
  807MOL0     H 8932   5.110  10.694   6.318  0.1123  0.2905  1.6785
  807MOL0     H 8933   5.178  10.263   6.253  0.5048  0.0191 -2.4040
  807MOL0     H 8934   5.019  10.278   6.200  0.2638  0.1009 -0.0925
  807MOL0     H 8935   4.926  10.347   6.406 -0.2289  3.2703  1.6765
  807MOL0     H 8936   5.070  10.426   6.463  1.1507 -2.1861  2.4281
  807MOL0     H 8937   5.175  10.221   6.551  0.1660 -0.0721 -1.0651
  807MOL0     H 8938   5.105  10.121   6.434 -0.1205 -1.1690  0.3796
  807MOL0     H 8939   5.029  10.068   6.651 -2.3361  0.5039  1.8722
  807MOL0     H 8940   4.990  10.234   6.681 -0.5132 -0.0233 -0.4712
  807MOL0     H 8941   4.640  10.079   6.494 -2.1941  1.4247  2.0029
  807MOL0     H 8942   4.899  10.398   6.097 -0.2734  1.2052 -0.9257
  807MOL0     H 8943   4.667  10.630   5.960  1.1039  0.6304  0.6150
  807MOL0     H 8944   4.722  10.475   5.952 -0.9609  0.6030 -0.3148
  807MOL0     H 8945   4.599  10.494   6.074  0.0673  0.3079 -0.6754
  808MOL0     O 8946   7.492   0.935   7.828  0.1053 -0.5051 -0.1354
  808MOL0     C 8947   7.582   0.952   7.907 -0.0613 -0.3101  0.2862
  808MOL0     O 8948   7.592   0.886   8.025 -0.3455 -0.0821 -0.2518
  808MOL0     C 8949   7.549   0.755   8.029 -0.1548  0.2300  0.8710
  808MOL0     C 8950   7.413   0.719   8.019 -0.6608  0.1922 -0.0791
  808MOL0     C 8951   7.373   0.589   8.033 -0.0665 -0.1323  0.2722
  808MOL0     C 8952   7.465   0.487   8.056  0.2811  0.2143 -0.0402
  808MOL0     O 8953   7.436   0.357   8.063  0.0235 -0.8291  0.1880
  808MOL0     C 8954   7.297   0.311   8.053 -0.1899  0.1161  0.4345
  808MOL0     C 8955   7.287   0.154   8.051 -0.1141 -0.4574  0.0546
  808MOL0     C 8956   7.331   0.063   8.167 -0.4832 -0.1171  0.2386
  808MOL0     C 8957   7.251   0.093   8.293  1.1282  0.9350  0.4350
  808MOL0     C 8958   7.276  -0.017   8.408 -0.0958  0.0666  1.0086
  808MOL0     C 8959   7.411  -0.001   8.475 -0.0099  0.2627  0.4361
  808MOL0     C 8960   7.428  -0.060   8.611  0.1814 -0.0476 -0.6973
  808MOL0     C 8961   7.424  -0.209   8.587  0.2531 -0.0041 -0.6626
  808MOL0     N 8962   7.386  -0.271   8.717  0.6177  0.4356  0.0638
  808MOL0     C 8963   7.481  -0.336   8.799 -0.0033  0.7417  0.1853
  808MOL0     C 8964   7.417  -0.368   8.910  0.3030 -0.2033 -0.8638
  808MOL0     C 8965   7.460  -0.440   9.032  0.0215  0.0890  1.1984
  808MOL0     C 8966   7.515  -0.573   8.982 -0.3831  0.9209 -0.7273
  808MOL0     C 8967   7.560  -0.649   9.103  0.0063 -0.5339  0.1853
  808MOL0     C 8968   7.590  -0.788   9.055 -0.2482  0.8485 -0.9746
  808MOL0     O 8969   7.475  -0.873   9.045 -0.2601  0.0563 -0.0996
  808MOL0     C 8970   7.452  -0.941   9.156  0.1174 -0.2757 -0.6246
  808MOL0     C 8971   7.360  -0.895   9.251 -0.6647 -0.5244  1.0193
  808MOL0     C 8972   7.325  -0.977   9.356 -0.1992  0.1899  0.2557
  808MOL0     C 8973   7.384  -1.104   9.365  0.2536 -0.6051 -0.0332
  808MOL0     C 8974   7.336  -1.189   9.478 -0.2016 -1.2998 -0.1206
  808MOL0     O 8975   7.423  -1.287   9.509 -0.4218  0.1440  0.0897
  808MOL0     C 8976   7.392  -1.394   9.586  0.0716 -0.7898 -0.4618
  808MOL0     C 8977   7.450  -1.521   9.568 -1.3828 -0.0066  0.7327
  808MOL0     C 8978   7.430  -1.622   9.655 -0.7167 -0.8848  0.7253
  808MOL0     C 8979   7.345  -1.621   9.761  0.1492  0.6467 -0.2578
  808MOL0     O 8980   7.329  -1.724   9.844 -0.1919 -0.2742 -0.1170
  808MOL0     C 8981   7.443  -1.809   9.861 -0.1378 -0.6813  0.4654
  808MOL0     C 8982   7.415  -1.884  10.003 -0.6893  0.1222  0.4144
  808MOL0     C 8983   7.539  -1.981  10.041 -0.0360  0.0144  0.1089
  808MOL0     C 8984   7.536  -2.108   9.951  0.3172  0.2358 -0.8405
  808MOL0     C 8985   7.628  -2.223   9.991 -0.4222  1.1136 -0.6548
  808MOL0     C 8986   7.571  -2.281  10.115  0.3762  0.0713  0.1928
  808MOL0     C 8987   7.664  -2.305  10.232 -0.7605  0.4594 -0.4746
  808MOL0     C 8988   7.592  -2.336  10.347  0.3406 -0.1885 -1.4965
  808MOL0    Cl 8989   7.533  -2.494  10.338 -0.1279  0.6238  0.0628
  808MOL0     C 8990   7.278  -1.503   9.780  0.3111  0.1624  0.8030
  808MOL0     C 8991   7.309  -1.389   9.712 -0.0027 -0.5934 -0.1877
  808MOL0     O 8992   7.219  -1.178   9.520  0.7795  0.0819 -0.5117
  808MOL0     C 8993   7.466  -1.152   9.260  0.3300 -0.3468 -0.4805
  808MOL0     C 8994   7.507  -1.064   9.160  0.1330  0.1651 -0.1277
  808MOL0     N 8995   7.284  -0.313   8.894 -0.6879  0.3940  0.0620
  808MOL0     N 8996   7.268  -0.270   8.772  0.2307  0.1312 -0.3003
  808MOL0     C 8997   7.598   0.526   8.056 -1.0242 -0.3205 -0.2789
  808MOL0     C 8998   7.644   0.659   8.048 -0.0468  0.3491  0.0901
  808MOL0     C 8999   7.676   1.060   7.893  0.3596 -1.0687 -0.0457
  808MOL0     C 9000   7.749   1.100   8.011  0.1099 -0.0556  0.5483
  808MOL0     C 9001   7.828   1.215   8.012 -0.5353 -1.2179 -0.1954
  808MOL0     C 9002   7.845   1.295   7.901  0.2715  0.6330 -0.2083
  808MOL0     O 9003   7.935   1.397   7.922 -0.1456 -0.4954 -0.6789
  808MOL0     C 9004   8.002   1.444   7.801  0.1518 -0.1054 -0.2711
  808MOL0     C 9005   8.082   1.567   7.834  0.4316 -0.0518  0.2893
  808MOL0     C 9006   8.140   1.638   7.712 -0.2497 -0.1123  0.0862
  808MOL0     C 9007   8.245   1.733   7.761  0.2198 -0.1761  0.4004
  808MOL0     C 9008   8.260   1.853   7.679 -0.1493  0.4744 -0.2747
  808MOL0     C 9009   8.249   1.966   7.639 -0.2408  0.7154  0.4151
  808MOL0     C 9010   7.769   1.269   7.783 -0.9842  0.2229 -0.2451
  808MOL0     C 9011   7.693   1.148   7.781 -0.3641  0.6405 -0.7212
  808MOL0     C 9012   7.622   1.123   7.654 -0.3249 -0.0258 -0.0441
  808MOL0     H 9013   7.348   0.806   8.018  0.0634  0.7517  0.1655
  808MOL0     H 9014   7.267   0.570   8.044 -0.3661  2.0827  1.8685
  808MOL0     H 9015   7.253   0.345   8.147 -1.1840 -2.9074  1.1813
  808MOL0     H 9016   7.254   0.364   7.967  1.1138 -2.9482 -2.3178
  808MOL0     H 9017   7.340   0.129   7.959 -1.7803 -1.8638 -0.5835
  808MOL0     H 9018   7.181   0.127   8.038 -0.2966  0.6725 -1.0242
  808MOL0     H 9019   7.434   0.086   8.197  0.2576 -0.5442 -1.8433
  808MOL0     H 9020   7.318  -0.042   8.140  0.6586 -0.0231 -0.7739
  808MOL0     H 9021   7.275   0.197   8.318  1.5515  1.2231 -1.0650
  808MOL0     H 9022   7.145   0.097   8.267  1.4847  1.3548 -1.0242
  808MOL0     H 9023   7.203  -0.011   8.491 -0.5280  2.4743  0.5345
  808MOL0     H 9024   7.269  -0.114   8.359  0.2935  0.8668 -0.6917
  808MOL0     H 9025   7.489  -0.048   8.415 -2.1945 -1.7462 -1.0258
  808MOL0     H 9026   7.430   0.106   8.487 -0.9333  0.2167  2.9672
  808MOL0     H 9027   7.353  -0.019   8.680  0.8738 -1.4740  0.9991
  808MOL0     H 9028   7.523  -0.032   8.656  0.2326 -0.5558 -0.4806
  808MOL0     H 9029   7.354  -0.242   8.509  0.8265  0.9127 -1.5961
  808MOL0     H 9030   7.520  -0.243   8.547  1.2990 -1.2168  2.5523
  808MOL0     H 9031   7.579  -0.375   8.774 -0.8010 -0.4012 -1.2745
  808MOL0     H 9032   7.532  -0.382   9.090 -0.4900  1.7259  0.2463
  808MOL0     H 9033   7.379  -0.462   9.103 -0.2880 -1.1336  0.4933
  808MOL0     H 9034   7.427  -0.626   8.945  0.0992 -0.7190  0.3925
  808MOL0     H 9035   7.598  -0.565   8.911 -0.7844 -1.6875 -1.5912
  808MOL0     H 9036   7.481  -0.640   9.178 -1.0739  2.2642 -1.1254
  808MOL0     H 9037   7.647  -0.597   9.143  0.4099  1.6904 -3.1885
  808MOL0     H 9038   7.661  -0.815   9.133 -1.8898  0.5021  0.4560
  808MOL0     H 9039   7.644  -0.783   8.960  1.7713  3.5544  0.1855
  808MOL0     H 9040   7.324  -0.793   9.242  0.5263 -0.2570 -1.4040
  808MOL0     H 9041   7.260  -0.949   9.438  0.5965 -4.7838  3.0128
  808MOL0     H 9042   7.515  -1.544   9.485 -2.7222 -1.0973 -0.0647
  808MOL0     H 9043   7.488  -1.711   9.629 -3.0354 -2.8248  1.7808
  808MOL0     H 9044   7.440  -1.887   9.785 -2.3839 -0.6364  0.4539
  808MOL0     H 9045   7.540  -1.760   9.877 -1.0831  1.8116 -0.8984
  808MOL0     H 9046   7.406  -1.813  10.085 -1.9367  1.5263 -0.8694
  808MOL0     H 9047   7.319  -1.933   9.986 -0.1352 -0.4566 -1.3342
  808MOL0     H 9048   7.627  -1.919  10.024 -0.8283  1.9692  2.4409
  808MOL0     H 9049   7.539  -1.996  10.150  1.1558 -0.1404  0.1000
  808MOL0     H 9050   7.580  -2.079   9.854  1.1363  1.9904  0.0125
  808MOL0     H 9051   7.436  -2.149   9.936  0.7235 -1.1304 -0.0160
  808MOL0     H 9052   7.735  -2.197   9.996  0.7284 -2.6184 -2.5050
  808MOL0     H 9053   7.619  -2.293   9.907 -3.5772 -1.0196  1.2600
  808MOL0     H 9054   7.502  -2.210  10.161 -2.3570 -4.3930  3.8548
  808MOL0     H 9055   7.516  -2.368  10.079  1.2324 -0.4268  0.0537
  808MOL0     H 9056   7.720  -2.214  10.252  0.3634  0.1516 -2.0833
  808MOL0     H 9057   7.731  -2.387  10.203 -1.9007 -0.7227  0.1170
  808MOL0     H 9058   7.662  -2.335  10.432 -0.9936 -0.8631 -0.3566
  808MOL0     H 9059   7.516  -2.261  10.368  1.6803  0.7520  0.3669
  808MOL0     H 9060   7.194  -1.495   9.849 -0.0493 -0.6513  0.4761
  808MOL0     H 9061   7.279  -1.289   9.741  2.4665 -0.6376  3.1491
  808MOL0     H 9062   7.499  -1.255   9.263  2.7216  0.3478 -0.7207
  808MOL0     H 9063   7.589  -1.095   9.096  0.0966  1.6883 -0.9641
  808MOL0     H 9064   7.672   0.448   8.067  0.0101  0.6878  0.0914
  808MOL0     H 9065   7.752   0.673   8.053  0.4115 -2.6587  0.1881
  808MOL0     H 9066   7.721   1.056   8.106 -1.9812  0.7164  0.3287
  808MOL0     H 9067   7.884   1.253   8.097 -2.1621 -3.6347  2.0828
  808MOL0     H 9068   7.922   1.472   7.732 -0.4336  0.5360  0.6606
  808MOL0     H 9069   8.081   1.375   7.768  0.0571 -1.3458  1.9208
  808MOL0     H 9070   8.162   1.546   7.906 -0.3268  2.3042  1.9650
  808MOL0     H 9071   8.016   1.635   7.889  2.4371  1.3152  1.1391
  808MOL0     H 9072   8.063   1.693   7.657 -2.9663  0.0400  3.6501
  808MOL0     H 9073   8.186   1.568   7.642 -2.3680 -2.5041  0.9533
  808MOL0     H 9074   8.230   1.750   7.868 -1.5877 -0.6517  0.2495
  808MOL0     H 9075   8.331   1.665   7.756 -1.7283 -2.8210  0.4119
  808MOL0     H 9076   8.231   2.066   7.606  1.2565  1.2967  1.2586
  808MOL0     H 9077   7.780   1.323   7.689 -0.1967 -3.2182 -2.3092
  808MOL0     H 9078   7.679   1.177   7.578 -0.1782 -2.3288 -1.6449
  808MOL0     H 9079   7.629   1.017   7.629  0.3391 -0.5671  2.1466
  808MOL0     H 9080   7.522   1.167   7.651  0.2357  1.4267  1.1223
  809MOL0     O 9081   4.924   1.692   6.464 -0.5994  0.0714 -0.0299
  809MOL0     C 9082   4.829   1.660   6.538  0.4542 -0.4994  0.2256
  809MOL0     O 9083   4.789   1.532   6.550  0.5431  0.0768  0.7323
  809MOL0     C 9084   4.812   1.450   6.442 -1.3633  0.1109  0.5697
  809MOL0     C 9085   4.799   1.311   6.479 -0.0442 -0.0170  1.1703
  809MOL0     C 9086   4.796   1.212   6.375  0.5108 -0.2819  0.3351
  809MOL0     C 9087   4.835   1.249   6.245 -0.1747  0.5780  0.3441
  809MOL0     O 9088   4.861   1.149   6.151  0.1602  0.5182 -0.2779
  809MOL0     C 9089   4.779   1.157   6.032 -0.9561  0.3818  0.6096
  809MOL0     C 9090   4.767   1.021   5.964 -0.3392 -0.1497  0.2601
  809MOL0     C 9091   4.854   1.003   5.835  0.2823 -0.0930 -1.0162
  809MOL0     C 9092   4.784   1.071   5.710  0.2788  0.3644 -0.0862
  809MOL0     C 9093   4.851   1.049   5.576  1.0385 -0.3573 -0.1724
  809MOL0     C 9094   4.844   0.908   5.513  0.0507 -1.2526  0.2984
  809MOL0     C 9095   4.938   0.882   5.389  1.2137 -0.3891 -0.9334
  809MOL0     C 9096   5.084   0.838   5.418 -0.1463  0.3178 -0.9352
  809MOL0     N 9097   5.066   0.706   5.474 -0.0986  0.5266 -0.5072
  809MOL0     C 9098   5.098   0.669   5.603 -0.7811  0.0270 -0.1377
  809MOL0     C 9099   5.087   0.528   5.600 -0.3990 -0.5212 -0.0327
  809MOL0     C 9100   5.084   0.432   5.714  0.7208 -0.1101  0.4237
  809MOL0     C 9101   5.220   0.355   5.739  0.3222  0.1859 -0.2269
  809MOL0     C 9102   5.208   0.260   5.845  0.1144 -0.2149 -0.2393
  809MOL0     C 9103   5.329   0.169   5.839 -0.1085 -0.1231  0.0109
  809MOL0     O 9104   5.290   0.035   5.807 -0.6890  0.3307  0.4354
  809MOL0     C 9105   5.370  -0.081   5.823 -0.4738 -0.2728  0.0018
  809MOL0     C 9106   5.476  -0.075   5.914 -0.2533  0.3628 -0.6915
  809MOL0     C 9107   5.569  -0.179   5.906 -0.3510 -0.0855 -0.3730
  809MOL0     C 9108   5.553  -0.276   5.810  0.3439  0.7278  0.6902
  809MOL0     C 9109   5.654  -0.386   5.797  1.0997 -0.5951  0.7073
  809MOL0     O 9110   5.723  -0.399   5.906  0.2628  0.8884 -0.4820
  809MOL0     C 9111   5.782  -0.515   5.929 -0.2324  0.6627  0.0587
  809MOL0     C 9112   5.901  -0.566   5.866 -0.3879 -0.2766 -0.2219
  809MOL0     C 9113   5.973  -0.674   5.916  0.0674  1.3767  0.3085
  809MOL0     C 9114   5.923  -0.748   6.023  0.3493 -0.0677 -0.9913
  809MOL0     O 9115   5.977  -0.875   6.062 -0.9836 -0.3486  0.1616
  809MOL0     C 9116   5.902  -0.950   6.168 -0.5502  0.7623  0.7080
  809MOL0     C 9117   5.977  -1.077   6.214  0.6995  0.4791  0.1060
  809MOL0     C 9118   5.909  -1.172   6.315  0.0037  0.2072 -0.0577
  809MOL0     C 9119   6.001  -1.282   6.370  0.5703  0.1708 -0.7953
  809MOL0     C 9120   5.919  -1.371   6.463  0.2499 -0.9774 -0.3951
  809MOL0     C 9121   6.002  -1.493   6.509  0.6988 -0.4727 -0.5070
  809MOL0     C 9122   5.910  -1.602   6.568 -0.5095 -0.0747  0.4839
  809MOL0     C 9123   5.988  -1.676   6.677  0.2812 -0.0528 -0.3171
  809MOL0    Cl 9124   5.868  -1.795   6.766 -0.1414  0.1275 -0.1029
  809MOL0     C 9125   5.802  -0.705   6.078  0.2786  0.0024  0.9012
  809MOL0     C 9126   5.734  -0.596   6.038  0.1573 -0.0635 -0.7933
  809MOL0     O 9127   5.680  -0.453   5.695  0.7169 -0.4701  0.3516
  809MOL0     C 9128   5.438  -0.286   5.737  0.9615  0.2281  0.3348
  809MOL0     C 9129   5.344  -0.192   5.744 -1.0416 -0.9099  0.1867
  809MOL0     N 9130   5.049   0.497   5.466  0.5556  0.7819 -0.2784
  809MOL0     N 9131   5.041   0.600   5.391 -0.4824  0.4835 -0.6229
  809MOL0     C 9132   4.851   1.382   6.216 -0.6768 -0.7250  0.0229
  809MOL0     C 9133   4.826   1.485   6.307 -0.9915 -0.0136  0.3055
  809MOL0     C 9134   4.775   1.769   6.629 -0.7155  1.3606  0.2324
  809MOL0     C 9135   4.745   1.890   6.572  0.9903 -0.7058  0.6757
  809MOL0     C 9136   4.675   1.992   6.647  0.7762  0.3596  0.7418
  809MOL0     C 9137   4.657   1.983   6.784  1.2154  0.9688 -0.4432
  809MOL0     O 9138   4.610   2.073   6.866  0.6820  0.9276  0.0740
  809MOL0     C 9139   4.630   2.207   6.824  0.3262 -0.5302  0.3308
  809MOL0     C 9140   4.646   2.300   6.950  0.4951 -0.3585  0.2204
  809MOL0     C 9141   4.749   2.241   7.051 -0.0292 -0.9468 -0.8359
  809MOL0     C 9142   4.770   2.327   7.177  0.0039  0.3041  0.3336
  809MOL0     C 9143   4.785   2.468   7.157 -0.7874 -0.1570 -0.9592
  809MOL0     C 9144   4.817   2.587   7.155  0.0345  1.7446 -0.4298
  809MOL0     C 9145   4.668   1.856   6.841 -0.5634 -0.0381 -0.3023
  809MOL0     C 9146   4.741   1.759   6.765  0.2070  0.6880 -0.1176
  809MOL0     C 9147   4.771   1.632   6.842  0.1192 -0.5563 -0.3447
  809MOL0     H 9148   4.785   1.281   6.582  1.9995 -0.8986  1.2291
  809MOL0     H 9149   4.781   1.107   6.400  3.3551 -1.0743 -0.9362
  809MOL0     H 9150   4.682   1.205   6.045 -1.0925  0.7993 -1.6173
  809MOL0     H 9151   4.825   1.222   5.958 -0.7089 -1.3572 -0.8296
  809MOL0     H 9152   4.660   1.009   5.946 -1.3317  4.6125  1.5927
  809MOL0     H 9153   4.790   0.950   6.044 -0.9847 -1.1690 -0.4399
  809MOL0     H 9154   4.875   0.897   5.818 -0.6180 -0.5352  0.4350
  809MOL0     H 9155   4.953   1.051   5.839 -0.3420  1.1762  0.5948
  809MOL0     H 9156   4.677   1.049   5.698 -0.4539  2.1423  2.4007
  809MOL0     H 9157   4.788   1.179   5.725  1.5485  0.4690 -0.9710
  809MOL0     H 9158   4.816   1.130   5.513 -0.9561 -1.9564 -1.2331
  809MOL0     H 9159   4.954   1.061   5.613  0.7794  1.0248  0.1516
  809MOL0     H 9160   4.864   0.823   5.579 -1.3036 -0.5365  1.7104
  809MOL0     H 9161   4.739   0.904   5.482 -0.4781  2.2784  1.1543
  809MOL0     H 9162   4.936   0.971   5.326  4.0080  1.1784  0.9543
  809MOL0     H 9163   4.893   0.809   5.322  2.1505  0.9088 -3.0927
  809MOL0     H 9164   5.143   0.824   5.327 -0.1396 -1.1065 -0.7446
  809MOL0     H 9165   5.138   0.892   5.496 -0.0549 -3.0815  1.6203
  809MOL0     H 9166   5.128   0.742   5.678  0.4691  1.1660 -1.6773
  809MOL0     H 9167   5.075   0.492   5.804  0.3489  3.1328 -1.6375
  809MOL0     H 9168   4.993   0.374   5.700 -0.6182  1.4168  2.3574
  809MOL0     H 9169   5.237   0.289   5.653  2.3299  1.6955 -1.0591
  809MOL0     H 9170   5.302   0.423   5.765  0.8478  0.0113 -1.3518
  809MOL0     H 9171   5.112   0.211   5.825 -0.8783  1.6307 -0.1784
  809MOL0     H 9172   5.204   0.300   5.947 -1.6477  0.5635 -0.5834
  809MOL0     H 9173   5.377   0.182   5.937 -0.0885 -1.0026  0.1284
  809MOL0     H 9174   5.405   0.202   5.768  0.0157  0.2671  0.3188
  809MOL0     H 9175   5.527  -0.000   5.974  2.7635 -0.2556 -2.2742
  809MOL0     H 9176   5.657  -0.183   5.969 -0.0019  3.4374 -0.4703
  809MOL0     H 9177   5.947  -0.504   5.789 -2.5395  1.8968  0.0755
  809MOL0     H 9178   6.062  -0.719   5.872 -1.3023 -0.1662 -1.0057
  809MOL0     H 9179   5.892  -0.888   6.257 -0.8105  0.3313  0.9864
  809MOL0     H 9180   5.799  -0.969   6.135 -1.4978  0.5644  3.5304
  809MOL0     H 9181   5.981  -1.140   6.124  0.7301  0.9274 -0.2124
  809MOL0     H 9182   6.078  -1.050   6.246  1.0132 -1.6327  1.0578
  809MOL0     H 9183   5.876  -1.108   6.398 -2.3443 -0.5799 -0.3016
  809MOL0     H 9184   5.817  -1.214   6.274 -1.1927 -0.0372  2.6671
  809MOL0     H 9185   6.094  -1.251   6.419  0.3971 -0.6861  0.1054
  809MOL0     H 9186   6.039  -1.341   6.287  5.4385 -0.4849  1.5432
  809MOL0     H 9187   5.826  -1.400   6.415  0.0864 -1.5862  0.2703
  809MOL0     H 9188   5.886  -1.303   6.542 -4.0589 -0.6214 -2.2033
  809MOL0     H 9189   6.059  -1.537   6.426 -0.2136  0.7504 -1.8138
  809MOL0     H 9190   6.084  -1.463   6.576  3.3609 -1.7574 -2.9613
  809MOL0     H 9191   5.874  -1.664   6.486  1.6743 -1.1841  0.2812
  809MOL0     H 9192   5.825  -1.554   6.618 -0.6804 -0.1163  0.2348
  809MOL0     H 9193   6.073  -1.730   6.633 -1.9282 -2.0793 -2.3938
  809MOL0     H 9194   6.010  -1.605   6.758  0.9573  1.0052 -1.3973
  809MOL0     H 9195   5.755  -0.749   6.166 -2.9978  1.9852  0.2798
  809MOL0     H 9196   5.640  -0.575   6.089 -0.3870  0.4922 -1.9795
  809MOL0     H 9197   5.436  -0.360   5.658  0.8016  0.0392  0.5150
  809MOL0     H 9198   5.252  -0.201   5.687 -1.1508 -2.9859  0.6122
  809MOL0     H 9199   4.847   1.410   6.111 -4.4374  4.0258  1.0420
  809MOL0     H 9200   4.825   1.587   6.269 -3.3014  0.3975  1.3609
  809MOL0     H 9201   4.771   1.910   6.468  0.2463 -1.3322  0.3562
  809MOL0     H 9202   4.648   2.084   6.595 -2.6859 -0.2569  1.1813
  809MOL0     H 9203   4.555   2.233   6.749  0.8697 -1.4073 -0.5302
  809MOL0     H 9204   4.726   2.211   6.771  0.2634  0.3898  0.2705
  809MOL0     H 9205   4.549   2.320   6.995 -0.1398  0.3028 -1.3568
  809MOL0     H 9206   4.697   2.392   6.920  0.3563 -0.8526 -1.7247
  809MOL0     H 9207   4.850   2.216   7.016  0.5777 -0.3493  0.4120
  809MOL0     H 9208   4.700   2.149   7.083 -1.0292 -1.0920 -2.6380
  809MOL0     H 9209   4.677   2.311   7.232  1.2347  0.1138  2.4682
  809MOL0     H 9210   4.856   2.288   7.233  0.4741 -2.3543 -2.0428
  809MOL0     H 9211   4.848   2.690   7.156  1.4401  1.3861  2.6095
  809MOL0     H 9212   4.633   1.837   6.942 -1.5481 -1.3351 -0.8565
  809MOL0     H 9213   4.880   1.626   6.856  0.1632 -3.0170 -1.2720
  809MOL0     H 9214   4.734   1.637   6.944 -0.6375 -0.8594 -0.6005
  809MOL0     H 9215   4.726   1.548   6.789 -2.2585  0.4753 -0.0572
  810MOL0     O 9216   9.205   5.273   8.674 -0.4485 -0.6060  0.4426
  810MOL0     C 9217   9.167   5.377   8.723 -0.0128 -0.1795 -0.5672
  810MOL0     O 9218   9.083   5.466   8.668 -0.2734 -0.0242  0.5943
  810MOL0     C 9219   9.038   5.445   8.542 -0.4350  0.1609 -0.0918
  810MOL0     C 9220   8.905   5.451   8.510 -0.3779  0.7036 -0.5090
  810MOL0     C 9221   8.862   5.464   8.374 -0.0167 -0.4199  0.3452
  810MOL0     C 9222   8.955   5.456   8.265  0.2196  0.4456  0.7501
  810MOL0     O 9223   8.905   5.449   8.137  0.6406  0.1360  0.0994
  810MOL0     C 9224   8.996   5.443   8.021 -0.5720 -0.1120  0.2759
  810MOL0     C 9225   9.042   5.581   7.972 -0.2660 -0.9309 -0.8246
  810MOL0     C 9226   8.924   5.666   7.909 -0.0400  0.0213 -0.2239
  810MOL0     C 9227   8.915   5.633   7.754 -0.3720  0.2616  0.3336
  810MOL0     C 9228   8.816   5.733   7.676 -0.4853 -0.3117 -0.1945
  810MOL0     C 9229   8.860   5.880   7.693 -0.6504  0.5399 -0.9941
  810MOL0     C 9230   8.766   5.985   7.617  1.2992  0.7447  0.5839
  810MOL0     C 9231   8.774   5.982   7.466 -0.0447  0.5103 -0.6647
  810MOL0     N 9232   8.919   5.974   7.414 -0.0641 -0.3033 -1.4937
  810MOL0     C 9233   8.992   5.856   7.391  0.8031 -0.1042  0.2206
  810MOL0     C 9234   9.115   5.909   7.366  0.5220  0.9998 -0.7214
  810MOL0     C 9235   9.216   5.823   7.311 -0.1288  0.2408 -0.0064
  810MOL0     C 9236   9.312   5.764   7.429  0.5966 -0.1650  1.3270
  810MOL0     C 9237   9.395   5.882   7.488 -0.1597 -0.3306  0.1050
  810MOL0     C 9238   9.457   5.822   7.616 -0.2626  0.2128  0.5703
  810MOL0     O 9239   9.546   5.712   7.597 -0.3729 -0.0632 -0.0196
  810MOL0     C 9240   9.609   5.662   7.713  0.4683 -0.1151 -0.7129
  810MOL0     C 9241   9.690   5.744   7.788  0.2937  0.2691 -0.5637
  810MOL0     C 9242   9.763   5.686   7.890  0.6674 -0.1003  0.2704
  810MOL0     C 9243   9.766   5.550   7.921  0.4628 -0.2365 -0.5599
  810MOL0     C 9244   9.811   5.495   8.045  0.5526  0.4890 -0.6825
  810MOL0     O 9245   9.809   5.359   8.043  0.0117 -0.1945  0.2697
  810MOL0     C 9246   9.865   5.275   8.131 -0.2960 -0.0857 -0.8314
  810MOL0     C 9247   9.796   5.164   8.171 -0.5200  0.1341  0.2614
  810MOL0     C 9248   9.841   5.075   8.274 -1.1135  0.4067 -0.0432
  810MOL0     C 9249   9.972   5.091   8.329 -0.9795 -0.6619  0.4916
  810MOL0     O 9250  10.029   5.017   8.432  1.1576 -0.3062 -0.4908
  810MOL0     C 9251   9.939   4.931   8.503 -0.2068  0.5198 -0.1157
  810MOL0     C 9252  10.001   4.850   8.624  0.3648 -0.0176 -0.1772
  810MOL0     C 9253   9.892   4.753   8.669 -0.1526 -1.2267 -0.0878
  810MOL0     C 9254   9.900   4.698   8.808  0.7478  0.3805 -0.3451
  810MOL0     C 9255   9.877   4.804   8.919 -0.3513 -0.8591  0.9658
  810MOL0     C 9256   9.833   4.759   9.055  0.8286  0.4112 -0.4446
  810MOL0     C 9257   9.784   4.873   9.144 -0.7164 -0.2684 -0.0342
  810MOL0     C 9258   9.830   4.860   9.283  0.4988  0.3145 -0.1220
  810MOL0    Cl 9259   9.725   4.718   9.338 -0.2592 -0.3344  0.2316
  810MOL0     C 9260  10.060   5.196   8.278  0.3086 -0.5812 -1.1067
  810MOL0     C 9261   9.999   5.284   8.186 -0.1916 -0.7940 -0.3264
  810MOL0     O 9262   9.858   5.562   8.138 -0.2871 -0.8637 -0.0119
  810MOL0     C 9263   9.691   5.464   7.837  1.0882 -0.7623  0.3815
  810MOL0     C 9264   9.608   5.523   7.734 -0.0920 -0.4910 -0.5870
  810MOL0     N 9265   9.117   6.041   7.367  0.0259  0.6090 -0.2786
  810MOL0     N 9266   8.993   6.085   7.408  0.1301  0.4480  1.1377
  810MOL0     C 9267   9.091   5.447   8.306  0.5212 -0.2773  0.1447
  810MOL0     C 9268   9.126   5.454   8.439 -0.4485 -0.6612  0.4821
  810MOL0     C 9269   9.203   5.415   8.861  0.2906  0.8405  0.5742
  810MOL0     C 9270   9.111   5.500   8.944 -0.4542  0.1085  0.4793
  810MOL0     C 9271   9.148   5.536   9.073 -0.7002 -0.1568 -0.2055
  810MOL0     C 9272   9.265   5.484   9.127  0.7830  0.2553 -0.1615
  810MOL0     O 9273   9.304   5.521   9.253 -0.6982  0.6482 -0.7067
  810MOL0     C 9274   9.199   5.526   9.356 -0.9579 -1.1172 -0.7222
  810MOL0     C 9275   9.274   5.580   9.481  0.2962  0.8224 -0.6212
  810MOL0     C 9276   9.185   5.561   9.594  0.1742  0.4749  0.2606
  810MOL0     C 9277   9.239   5.588   9.738  0.7697  0.2740  0.9540
  810MOL0     C 9278   9.239   5.728   9.768  0.7843  0.2827  0.2097
  810MOL0     C 9279   9.221   5.846   9.794 -0.1649  0.3936 -0.0405
  810MOL0     C 9280   9.347   5.407   9.051 -0.2093  0.1820  0.6023
  810MOL0     C 9281   9.323   5.371   8.923  0.2357 -0.0192 -0.0709
  810MOL0     C 9282   9.429   5.302   8.848  0.6233 -0.0177  0.5868
  810MOL0     H 9283   8.835   5.467   8.592  1.1843 -1.1345  1.2814
  810MOL0     H 9284   8.755   5.463   8.356 -0.4599 -0.0846  2.6637
  810MOL0     H 9285   9.083   5.386   8.052  0.8928  1.7732 -0.1501
  810MOL0     H 9286   8.952   5.387   7.939  2.5213 -0.7819 -1.0551
  810MOL0     H 9287   9.126   5.573   7.902  1.5843  0.5941  1.0725
  810MOL0     H 9288   9.082   5.632   8.060 -1.1021 -1.5259 -0.0793
  810MOL0     H 9289   8.960   5.769   7.920  0.8244 -0.3105  0.1486
  810MOL0     H 9290   8.826   5.653   7.957  0.7236  0.2498  1.4461
  810MOL0     H 9291   9.009   5.641   7.699 -1.6045  0.6605 -1.8472
  810MOL0     H 9292   8.891   5.527   7.741  3.0115 -0.5361 -0.2804
  810MOL0     H 9293   8.824   5.700   7.572  0.6699 -2.4151  0.5102
  810MOL0     H 9294   8.720   5.711   7.724 -0.4742 -1.0839 -0.5109
  810MOL0     H 9295   8.863   5.924   7.793 -3.1750  2.3828 -1.6389
  810MOL0     H 9296   8.962   5.888   7.653 -0.0107  0.4041  0.5522
  810MOL0     H 9297   8.795   6.081   7.661  0.3351  1.5487 -0.4845
  810MOL0     H 9298   8.664   5.968   7.653  1.9896 -1.3299  1.7804
  810MOL0     H 9299   8.710   5.903   7.426 -0.9555  1.7046 -1.6578
  810MOL0     H 9300   8.740   6.078   7.424  0.9814  1.6655  1.0326
  810MOL0     H 9301   8.949   5.757   7.379 -2.8036  1.2478  0.8730
  810MOL0     H 9302   9.175   5.732   7.266 -0.2735  0.0442  0.5152
  810MOL0     H 9303   9.273   5.873   7.232 -0.6215 -0.3797 -0.7762
  810MOL0     H 9304   9.239   5.720   7.499  1.0391  1.4014  2.8585
  810MOL0     H 9305   9.366   5.683   7.380 -1.8440 -1.5352  0.7098
  810MOL0     H 9306   9.328   5.963   7.518  0.6496  0.4472 -0.1422
  810MOL0     H 9307   9.474   5.912   7.418 -0.7218  1.6662  0.2810
  810MOL0     H 9308   9.373   5.794   7.681  1.5702 -1.3163  2.4520
  810MOL0     H 9309   9.512   5.904   7.663  1.1862  0.0290 -0.7711
  810MOL0     H 9310   9.688   5.852   7.781  0.2094  0.1908 -2.0969
  810MOL0     H 9311   9.820   5.752   7.955  1.6712  1.4369 -2.0347
  810MOL0     H 9312   9.701   5.159   8.119 -0.1810  5.8158 -1.5991
  810MOL0     H 9313   9.777   4.995   8.310 -0.4866  0.7665  1.9760
  810MOL0     H 9314   9.858   4.990   8.546  0.6690  1.5304  0.1945
  810MOL0     H 9315   9.899   4.873   8.420  0.0179  1.0607 -0.6128
  810MOL0     H 9316  10.085   4.786   8.596  0.4176  0.2307 -0.5880
  810MOL0     H 9317  10.034   4.919   8.703 -0.7275  4.2801 -3.0833
  810MOL0     H 9318   9.789   4.790   8.657  0.2702 -0.0100 -0.1269
  810MOL0     H 9319   9.893   4.663   8.608  4.7357 -0.5264 -1.4143
  810MOL0     H 9320  10.003   4.666   8.829  0.9715  2.1446  1.5795
  810MOL0     H 9321   9.835   4.612   8.824  2.3075 -1.6383 -3.7614
  810MOL0     H 9322   9.797   4.866   8.878  1.7557  2.7984  1.9842
  810MOL0     H 9323   9.958   4.875   8.931  0.8449 -1.6126 -1.8176
  810MOL0     H 9324   9.754   4.685   9.041  1.6064 -0.3856 -0.7311
  810MOL0     H 9325   9.907   4.691   9.098  0.1741 -1.6183 -2.3193
  810MOL0     H 9326   9.675   4.877   9.143 -0.6968  0.5920 -0.1887
  810MOL0     H 9327   9.833   4.965   9.110  0.2123 -1.5109 -2.2181
  810MOL0     H 9328   9.935   4.828   9.284  0.5142 -0.0803  4.4724
  810MOL0     H 9329   9.830   4.945   9.351  2.0986 -1.9203  2.8932
  810MOL0     H 9330  10.159   5.212   8.318 -0.5314  1.9256  0.1941
  810MOL0     H 9331  10.061   5.365   8.149 -0.7341  0.9039  2.2181
  810MOL0     H 9332   9.688   5.358   7.860 -4.5094 -0.6477  1.8296
  810MOL0     H 9333   9.548   5.455   7.673  0.8631  0.0541 -2.2053
  810MOL0     H 9334   9.170   5.433   8.233 -3.9294 -3.7559 -4.8275
  810MOL0     H 9335   9.232   5.444   8.458  0.1111 -3.0641 -2.9806
  810MOL0     H 9336   9.015   5.533   8.907  0.3406  0.4397 -1.4304
  810MOL0     H 9337   9.075   5.587   9.134 -0.0903 -1.0325  1.3130
  810MOL0     H 9338   9.138   5.436   9.368 -1.0599 -0.7955  1.4395
  810MOL0     H 9339   9.119   5.599   9.338 -1.3792 -1.2389  0.5680
  810MOL0     H 9340   9.308   5.684   9.479  1.3581  0.4690 -1.3552
  810MOL0     H 9341   9.365   5.522   9.497 -0.3168 -1.0621 -3.3162
  810MOL0     H 9342   9.157   5.456   9.597  4.0355 -0.6800  2.4631
  810MOL0     H 9343   9.097   5.622   9.573 -3.0754 -2.9340  2.6819
  810MOL0     H 9344   9.173   5.530   9.802 -2.6488  0.2574 -2.2282
  810MOL0     H 9345   9.339   5.545   9.752  0.5894 -0.4626  0.0770
  810MOL0     H 9346   9.188   5.946   9.814 -2.1617  0.4826 -3.0491
  810MOL0     H 9347   9.437   5.381   9.105 -1.9434 -1.1502  3.0844
  810MOL0     H 9348   9.417   5.193   8.857 -1.3922 -0.0820 -1.7959
  810MOL0     H 9349   9.419   5.326   8.741 -3.1204  0.2748  0.8766
  810MOL0     H 9350   9.528   5.322   8.888  0.8302 -0.6982  0.4429
  811MOL0     O 9351   0.894   7.855   3.624 -0.8055  0.6599 -0.3958
  811MOL0     C 9352   0.826   7.853   3.520  0.0521 -0.9807 -0.9847
  811MOL0     O 9353   0.793   7.966   3.445 -0.2651 -0.5614 -0.2631
  811MOL0     C 9354   0.830   8.091   3.494 -0.0109  1.0316  0.8411
  811MOL0     C 9355   0.788   8.134   3.620  0.0804  0.9090  0.7178
  811MOL0     C 9356   0.799   8.277   3.658  0.3477  1.1524  0.3745
  811MOL0     C 9357   0.861   8.367   3.566  1.0904 -1.0404 -0.9835
  811MOL0     O 9358   0.881   8.494   3.618 -0.5944 -1.4082  0.0725
  811MOL0     C 9359   0.879   8.606   3.520 -0.9794  1.1792 -0.2843
  811MOL0     C 9360   0.894   8.745   3.595 -0.4425  0.4362 -0.6541
  811MOL0     C 9361   0.766   8.784   3.658  0.0782  0.3074  0.3529
  811MOL0     C 9362   0.745   8.941   3.685 -0.0084  0.7478  1.0190
  811MOL0     C 9363   0.603   8.979   3.730 -0.0932 -0.3319  0.2606
  811MOL0     C 9364   0.540   8.899   3.849 -0.0514  0.6739  0.2535
  811MOL0     C 9365   0.408   8.960   3.897  0.0510 -0.4642  0.0313
  811MOL0     C 9366   0.286   8.938   3.795  0.0588 -0.8757  0.1376
  811MOL0     N 9367   0.282   8.805   3.728 -0.6618 -0.2248 -0.2535
  811MOL0     C 9368   0.295   8.790   3.594  0.4228 -0.1309 -0.4075
  811MOL0     C 9369   0.284   8.654   3.573  0.1994  0.4199 -0.2607
  811MOL0     C 9370   0.308   8.596   3.438  0.8801  0.1075 -0.7108
  811MOL0     C 9371   0.437   8.520   3.420  0.2263 -0.2252  0.3492
  811MOL0     C 9372   0.438   8.395   3.329  0.1488  0.5668 -0.9899
  811MOL0     C 9373   0.574   8.324   3.301  0.2334  0.5636 -0.3533
  811MOL0     O 9374   0.666   8.433   3.271  0.1312  0.0107  0.7933
  811MOL0     C 9375   0.668   8.486   3.142  0.8597  0.0554  0.2421
  811MOL0     C 9376   0.747   8.602   3.120  0.0438 -0.5512 -1.1975
  811MOL0     C 9377   0.790   8.647   2.994 -0.9392  1.0696  0.2686
  811MOL0     C 9378   0.744   8.571   2.878 -0.1637  0.5422 -0.7712
  811MOL0     C 9379   0.803   8.603   2.746 -0.0247 -0.1465 -0.3784
  811MOL0     O 9380   0.899   8.692   2.739  1.3199 -0.1690 -0.0343
  811MOL0     C 9381   0.951   8.719   2.615  0.0889 -0.2849  0.4040
  811MOL0     C 9382   0.957   8.852   2.580 -0.2035  0.1152 -0.4942
  811MOL0     C 9383   0.995   8.893   2.454 -0.7595  0.1172 -1.4760
  811MOL0     C 9384   1.040   8.800   2.363  0.2422  0.2911  0.0028
  811MOL0     O 9385   1.069   8.862   2.243  0.3377  0.6086 -0.0218
  811MOL0     C 9386   1.103   8.776   2.132  0.3853 -0.3341  0.3268
  811MOL0     C 9387   1.135   8.846   1.994 -0.3187 -0.2577  0.1607
  811MOL0     C 9388   1.035   8.970   1.971 -0.7305 -0.5644 -0.2451
  811MOL0     C 9389   1.103   9.068   1.881 -0.3347  0.8963  0.2386
  811MOL0     C 9390   1.019   9.194   1.847  0.0472 -0.1122 -0.5777
  811MOL0     C 9391   1.027   9.309   1.947  0.7229 -0.1008 -0.5229
  811MOL0     C 9392   0.938   9.430   1.908  0.1270  0.0184  0.1185
  811MOL0     C 9393   0.797   9.386   1.901  0.6614 -0.9244  0.5084
  811MOL0    Cl 9394   0.704   9.523   1.948  0.4712 -0.1438  0.3460
  811MOL0     C 9395   1.042   8.661   2.393  0.0878 -0.2645 -0.8298
  811MOL0     C 9396   1.001   8.616   2.517 -0.0559  0.0344 -0.5876
  811MOL0     O 9397   0.761   8.540   2.653 -0.0595  0.0360 -0.4161
  811MOL0     C 9398   0.646   8.472   2.894 -0.8588 -0.0387 -0.7411
  811MOL0     C 9399   0.616   8.425   3.028  0.0590  0.6888  1.1934
  811MOL0     N 9400   0.263   8.596   3.696 -0.2199  0.7146 -0.0486
  811MOL0     N 9401   0.267   8.686   3.788 -0.6836  0.8355  0.2841
  811MOL0     C 9402   0.900   8.323   3.441  0.0320  0.1914 -0.1166
  811MOL0     C 9403   0.885   8.186   3.406  0.1336  0.3393  0.1054
  811MOL0     C 9404   0.778   7.714   3.495  0.2441  0.7124 -0.2941
  811MOL0     C 9405   0.878   7.617   3.479 -0.1425 -0.4292  0.3265
  811MOL0     C 9406   0.849   7.491   3.435  0.9112  0.0846 -0.5519
  811MOL0     C 9407   0.710   7.454   3.423 -0.2293 -0.2050 -0.3760
  811MOL0     O 9408   0.676   7.328   3.398  0.4647 -0.0609 -0.0294
  811MOL0     C 9409   0.711   7.224   3.492 -0.1515  1.1707  0.2753
  811MOL0     C 9410   0.729   7.086   3.426  0.5343  0.1904  0.2353
  811MOL0     C 9411   0.857   7.084   3.346 -0.3146 -0.4041  0.7486
  811MOL0     C 9412   0.929   6.945   3.356  0.3884  0.5477  0.6326
  811MOL0     C 9413   1.072   6.957   3.341 -0.1032  0.8372 -0.1568
  811MOL0     C 9414   1.198   6.955   3.343  0.7510 -0.6247  0.2685
  811MOL0     C 9415   0.613   7.547   3.444  0.4246  0.1604  0.5533
  811MOL0     C 9416   0.646   7.680   3.474  1.2917 -0.5846 -0.4952
  811MOL0     C 9417   0.546   7.793   3.516  0.1247 -0.0048  0.2574
  811MOL0     H 9418   0.749   8.060   3.689  1.4919  0.4913  1.1087
  811MOL0     H 9419   0.749   8.307   3.749 -0.0803 -0.1774  0.5988
  811MOL0     H 9420   0.959   8.594   3.447 -0.4834 -0.6107  0.4961
  811MOL0     H 9421   0.793   8.595   3.454  0.3041  0.8488 -1.9623
  811MOL0     H 9422   0.918   8.822   3.521  4.0940 -0.4473 -0.3653
  811MOL0     H 9423   0.981   8.749   3.660 -1.0962 -0.3921  0.2953
  811MOL0     H 9424   0.752   8.731   3.752 -1.3033  0.0441  0.0275
  811MOL0     H 9425   0.687   8.753   3.589  0.7576 -0.2004 -0.2100
  811MOL0     H 9426   0.827   8.976   3.749 -1.2935  3.3691  1.3677
  811MOL0     H 9427   0.759   8.985   3.586 -0.2410 -2.8446 -0.7975
  811MOL0     H 9428   0.594   9.087   3.746 -2.0859 -0.4432  0.0970
  811MOL0     H 9429   0.542   8.962   3.641  0.8316 -0.2323 -0.4066
  811MOL0     H 9430   0.523   8.795   3.820 -2.3828  1.1336 -0.2034
  811MOL0     H 9431   0.610   8.911   3.932  1.0975  1.9573 -0.8497
  811MOL0     H 9432   0.437   9.063   3.921  1.4624 -0.6964 -0.5423
  811MOL0     H 9433   0.374   8.907   3.986  0.3896 -0.6267  0.0677
  811MOL0     H 9434   0.188   8.936   3.845  0.5449 -1.3512  1.0918
  811MOL0     H 9435   0.287   9.028   3.732 -1.1158 -1.3149 -0.5360
  811MOL0     H 9436   0.319   8.864   3.518 -3.0687 -1.7014 -3.3174
  811MOL0     H 9437   0.227   8.524   3.422  0.4589  0.5928 -0.7547
  811MOL0     H 9438   0.299   8.671   3.360 -0.0385 -0.7751 -1.4715
  811MOL0     H 9439   0.514   8.589   3.384 -2.9506  3.5972  0.1750
  811MOL0     H 9440   0.455   8.483   3.521 -2.5918 -0.2708  0.8961
  811MOL0     H 9441   0.397   8.430   3.234 -0.3209  3.1598  0.0762
  811MOL0     H 9442   0.372   8.325   3.380 -1.6819  2.5686 -0.4530
  811MOL0     H 9443   0.564   8.246   3.225  1.2986  0.3918 -0.3231
  811MOL0     H 9444   0.604   8.278   3.396 -0.2788  1.3322  0.2049
  811MOL0     H 9445   0.786   8.652   3.208  0.9644 -4.6383  0.9674
  811MOL0     H 9446   0.864   8.726   2.994 -1.3270  1.4431  0.4552
  811MOL0     H 9447   0.916   8.934   2.638 -0.6431 -0.6779  0.3362
  811MOL0     H 9448   0.999   9.000   2.440  1.6430  0.5440  1.4125
  811MOL0     H 9449   1.186   8.718   2.173  0.4696 -0.3928  0.0804
  811MOL0     H 9450   1.023   8.701   2.125  1.4982 -2.1933  4.5397
  811MOL0     H 9451   1.237   8.885   2.001 -0.2803  0.7863 -3.6776
  811MOL0     H 9452   1.123   8.773   1.914  0.2056  1.0191 -1.1258
  811MOL0     H 9453   0.930   8.949   1.948 -2.2954  1.6345  3.8433
  811MOL0     H 9454   1.014   9.012   2.070  1.4002 -1.0446  0.4685
  811MOL0     H 9455   1.137   9.023   1.787  0.8731  1.0339  0.5898
  811MOL0     H 9456   1.191   9.101   1.938  0.3883 -0.6478  0.0701
  811MOL0     H 9457   0.916   9.158   1.833 -0.0249  0.8106 -2.7803
  811MOL0     H 9458   1.043   9.234   1.748  2.1089  1.3887  0.4585
  811MOL0     H 9459   1.005   9.270   2.047 -0.1480  0.4852 -0.4712
  811MOL0     H 9460   1.132   9.338   1.938  1.6903 -3.7377 -3.5902
  811MOL0     H 9461   0.969   9.486   1.819  1.3426 -1.0602 -0.1765
  811MOL0     H 9462   0.952   9.495   1.994 -1.1395  1.1246 -0.4717
  811MOL0     H 9463   0.763   9.353   1.802  3.1114 -0.9084 -0.4197
  811MOL0     H 9464   0.774   9.309   1.974  3.6667 -1.8827  0.6018
  811MOL0     H 9465   1.086   8.591   2.323 -0.5981  0.4804 -2.0425
  811MOL0     H 9466   1.000   8.511   2.548  0.9147  0.5801  1.4954
  811MOL0     H 9467   0.603   8.417   2.811  1.3749  1.6427 -3.1510
  811MOL0     H 9468   0.550   8.340   3.033 -3.8166  3.0583 -2.2215
  811MOL0     H 9469   0.955   8.388   3.373 -0.8140 -0.7801 -1.7957
  811MOL0     H 9470   0.914   8.153   3.307 -1.7262  0.0924 -0.3961
  811MOL0     H 9471   0.985   7.637   3.482  0.0933 -1.6567  0.5313
  811MOL0     H 9472   0.928   7.419   3.416  1.8706  1.1564 -0.7514
  811MOL0     H 9473   0.628   7.217   3.562 -0.0466  2.3865  0.5337
  811MOL0     H 9474   0.796   7.249   3.557  0.1628 -0.3650  0.5047
  811MOL0     H 9475   0.648   7.050   3.362 -0.6759  5.1387 -1.4987
  811MOL0     H 9476   0.730   7.007   3.502  0.2478 -0.8060 -0.7669
  811MOL0     H 9477   0.928   7.157   3.385 -1.0147  2.2798 -2.5882
  811MOL0     H 9478   0.842   7.100   3.239  1.7594  1.1122  0.6323
  811MOL0     H 9479   0.928   6.895   3.453  1.0685 -2.1329 -0.6561
  811MOL0     H 9480   0.881   6.869   3.294 -0.8021  1.3229  0.5463
  811MOL0     H 9481   1.304   6.942   3.333  0.6466 -1.4938  0.1860
  811MOL0     H 9482   0.506   7.529   3.435  0.3800  0.2122  0.9600
  811MOL0     H 9483   0.574   7.845   3.608 -1.5063 -1.0133  1.3787
  811MOL0     H 9484   0.523   7.864   3.435  0.7388  0.7274  0.7116
  811MOL0     H 9485   0.445   7.754   3.531  0.5882 -0.8068  1.3679
  812MOL0     O 9486   7.044   6.417   2.137 -0.1802  0.5684 -0.6391
  812MOL0     C 9487   6.922   6.433   2.123  1.2090  0.3523 -0.2225
  812MOL0     O 9488   6.849   6.501   2.218 -0.4174  0.0422  0.1032
  812MOL0     C 9489   6.904   6.543   2.337 -0.2152  0.6279  0.1434
  812MOL0     C 9490   6.891   6.679   2.365  1.1362  0.4587 -0.6330
  812MOL0     C 9491   6.941   6.723   2.488  0.3677  0.3056 -0.0097
  812MOL0     C 9492   6.997   6.637   2.576 -0.7401 -0.0126  0.2584
  812MOL0     O 9493   7.040   6.679   2.698  0.0611  0.1939 -0.4032
  812MOL0     C 9494   6.993   6.599   2.806 -0.3135  0.7839  0.6183
  812MOL0     C 9495   6.936   6.698   2.913 -0.2905  0.5535  0.4051
  812MOL0     C 9496   6.967   6.659   3.065 -0.7404  0.5833 -0.2349
  812MOL0     C 9497   6.845   6.628   3.151 -0.1901 -0.2821 -0.4061
  812MOL0     C 9498   6.756   6.754   3.185 -0.9752 -0.1748  0.5510
  812MOL0     C 9499   6.612   6.738   3.238  0.3582  0.5107  0.6388
  812MOL0     C 9500   6.531   6.864   3.218  0.1383  0.0230  0.0101
  812MOL0     C 9501   6.387   6.844   3.266  0.0728  0.3414  0.1111
  812MOL0     N 9502   6.365   6.801   3.404 -0.0224  0.0303  0.0555
  812MOL0     C 9503   6.331   6.675   3.443 -0.4782 -0.3086 -0.3381
  812MOL0     C 9504   6.276   6.700   3.564  0.4799  0.1205 -0.0349
  812MOL0     C 9505   6.201   6.599   3.654 -0.8050 -1.3114 -0.0916
  812MOL0     C 9506   6.297   6.543   3.752  0.7364  0.1478 -0.2794
  812MOL0     C 9507   6.334   6.638   3.861 -0.5213 -0.2430 -0.5436
  812MOL0     C 9508   6.219   6.709   3.929 -0.6506 -0.3047  0.1175
  812MOL0     O 9509   6.132   6.608   3.995 -0.0164  0.2750 -0.2128
  812MOL0     C 9510   6.036   6.663   4.067  0.0772 -0.1992 -1.2242
  812MOL0     C 9511   5.998   6.807   4.050  0.4960  0.2926 -0.0764
  812MOL0     C 9512   5.872   6.842   4.099 -0.1203  0.5395 -0.0492
  812MOL0     C 9513   5.785   6.758   4.181 -0.2355  0.1998 -0.4966
  812MOL0     C 9514   5.651   6.809   4.214  0.6817 -0.5939  0.3357
  812MOL0     O 9515   5.593   6.903   4.140  0.1921  0.9330  0.0988
  812MOL0     C 9516   5.469   6.959   4.171 -0.2808  0.5249 -0.1345
  812MOL0     C 9517   5.455   7.096   4.207 -0.5130 -0.5757  0.4384
  812MOL0     C 9518   5.328   7.157   4.232 -0.6393 -0.0691  0.4837
  812MOL0     C 9519   5.216   7.075   4.225 -0.6695  0.0164 -1.4299
  812MOL0     O 9520   5.099   7.129   4.266 -0.2798  0.2134  0.0338
  812MOL0     C 9521   5.016   7.206   4.172 -0.5253  0.2376 -0.6176
  812MOL0     C 9522   4.874   7.217   4.223  0.3198 -0.2813 -0.2071
  812MOL0     C 9523   4.785   7.321   4.155 -0.4671 -1.2755  1.2198
  812MOL0     C 9524   4.629   7.284   4.158 -0.1810  0.1404  0.3337
  812MOL0     C 9525   4.538   7.352   4.053 -0.1820  0.8137  0.4767
  812MOL0     C 9526   4.390   7.305   4.049  1.0095 -1.2533 -0.8582
  812MOL0     C 9527   4.369   7.153   4.039 -0.1344 -0.2609 -0.1762
  812MOL0     C 9528   4.224   7.111   4.037 -0.8988 -0.2179  0.3325
  812MOL0    Cl 9529   4.198   6.938   4.018 -0.4202  0.2288  0.1214
  812MOL0     C 9530   5.220   6.942   4.196  1.1497  0.5068 -0.6830
  812MOL0     C 9531   5.350   6.884   4.173  0.1119 -0.4763  0.5507
  812MOL0     O 9532   5.588   6.744   4.299 -0.1027  0.5865 -0.2985
  812MOL0     C 9533   5.834   6.628   4.206  0.5331  0.1750  0.1034
  812MOL0     C 9534   5.950   6.580   4.142 -0.8874  0.1642 -0.0248
  812MOL0     N 9535   6.279   6.829   3.600 -0.5726 -0.5163 -0.1533
  812MOL0     N 9536   6.328   6.893   3.500 -0.6485 -0.0457  0.6590
  812MOL0     C 9537   7.020   6.506   2.544  0.0265 -0.3763 -0.5505
  812MOL0     C 9538   6.959   6.461   2.432  0.0723  0.7676 -0.8163
  812MOL0     C 9539   6.851   6.347   2.022 -0.4322 -0.0482  1.0981
  812MOL0     C 9540   6.931   6.269   1.936 -0.5389 -1.0937 -0.3590
  812MOL0     C 9541   6.882   6.204   1.830 -0.1236  0.5665 -0.1251
  812MOL0     C 9542   6.744   6.206   1.815 -0.3896 -0.7167  0.8842
  812MOL0     O 9543   6.681   6.154   1.703  0.7293  0.6953  0.0713
  812MOL0     C 9544   6.742   6.082   1.586  0.0470  0.3001  0.0641
  812MOL0     C 9545   6.804   6.186   1.491  0.6637 -0.3911  0.0836
  812MOL0     C 9546   6.754   6.184   1.354  0.0822 -0.4306 -0.4712
  812MOL0     C 9547   6.812   6.310   1.284  0.0426 -0.1457 -0.2568
  812MOL0     C 9548   6.956   6.278   1.260  0.3464  0.5817 -0.6428
  812MOL0     C 9549   7.076   6.266   1.250 -0.0901  0.8728 -0.7826
  812MOL0     C 9550   6.660   6.269   1.907 -1.3675 -0.5811  0.3359
  812MOL0     C 9551   6.708   6.337   2.009 -0.1486  0.1901 -0.3861
  812MOL0     C 9552   6.611   6.408   2.095  0.8648  0.1578  0.3552
  812MOL0     H 9553   6.842   6.741   2.292 -2.2738 -0.3875  0.7142
  812MOL0     H 9554   6.927   6.824   2.527  0.2832  0.0162  0.7398
  812MOL0     H 9555   6.903   6.541   2.783 -0.5278  0.8703  1.2201
  812MOL0     H 9556   7.066   6.525   2.840  0.4500  1.8412  1.3451
  812MOL0     H 9557   6.834   6.727   2.886 -0.0419  0.9093 -0.1837
  812MOL0     H 9558   6.992   6.789   2.889 -1.4728  0.7546 -1.8198
  812MOL0     H 9559   7.029   6.734   3.114  1.5700  0.0893 -2.2480
  812MOL0     H 9560   7.020   6.563   3.065 -0.4687  0.5849  3.3572
  812MOL0     H 9561   6.783   6.560   3.090  0.9424  0.3033 -2.3128
  812MOL0     H 9562   6.871   6.579   3.245  3.0144  3.4255  0.8975
  812MOL0     H 9563   6.808   6.807   3.265 -0.8927  0.1730  0.2712
  812MOL0     H 9564   6.758   6.821   3.098  0.1360  0.1692  0.8178
  812MOL0     H 9565   6.570   6.657   3.177 -0.3152  2.7525 -2.1179
  812MOL0     H 9566   6.605   6.709   3.343  0.1134  1.8331  0.9955
  812MOL0     H 9567   6.520   6.889   3.112 -1.0595  3.3494  0.8012
  812MOL0     H 9568   6.578   6.949   3.268  1.3108 -1.4414  1.5131
  812MOL0     H 9569   6.338   6.938   3.241 -0.6672 -0.6393 -2.5260
  812MOL0     H 9570   6.341   6.758   3.215 -0.3289 -0.2959  1.5012
  812MOL0     H 9571   6.322   6.591   3.374 -1.6580  3.1234 -4.7873
  812MOL0     H 9572   6.107   6.635   3.697 -3.6518 -3.5682 -3.7672
  812MOL0     H 9573   6.175   6.514   3.590  0.8255 -2.7695  1.0771
  812MOL0     H 9574   6.270   6.446   3.796  2.4461 -0.0330  0.4380
  812MOL0     H 9575   6.387   6.507   3.703  0.8880  1.0027 -0.6293
  812MOL0     H 9576   6.420   6.695   3.824  0.4084 -2.0223 -1.2769
  812MOL0     H 9577   6.385   6.570   3.929  1.9428  1.3483 -0.6852
  812MOL0     H 9578   6.159   6.768   3.859 -3.6528 -0.5588  2.3306
  812MOL0     H 9579   6.259   6.775   4.006 -1.8850 -0.0515  0.5550
  812MOL0     H 9580   6.037   6.883   3.983 -2.3613  1.4472 -0.5832
  812MOL0     H 9581   5.843   6.942   4.066  0.4722  0.5581 -0.5189
  812MOL0     H 9582   5.542   7.161   4.211 -0.5650 -0.5008  0.3650
  812MOL0     H 9583   5.325   7.264   4.248 -4.8673  0.1665 -0.6644
  812MOL0     H 9584   5.066   7.302   4.154 -1.5339  1.8366  3.7335
  812MOL0     H 9585   5.003   7.159   4.075 -5.2590  0.2818 -0.2021
  812MOL0     H 9586   4.834   7.117   4.205  0.6754 -0.8514  1.9461
  812MOL0     H 9587   4.873   7.231   4.331  0.7776 -1.3042 -0.0491
  812MOL0     H 9588   4.790   7.417   4.208 -1.6659  0.3262 -1.3515
  812MOL0     H 9589   4.822   7.338   4.053 -0.0173  1.4572  1.7611
  812MOL0     H 9590   4.588   7.316   4.254 -0.0225  0.5510  0.2670
  812MOL0     H 9591   4.614   7.177   4.142 -2.2375  0.5551 -0.9872
  812MOL0     H 9592   4.566   7.329   3.950 -0.3862 -3.6023  1.2113
  812MOL0     H 9593   4.542   7.461   4.068  0.7422  1.6318 -4.1891
  812MOL0     H 9594   4.345   7.328   4.146 -0.1957  2.0267 -2.0649
  812MOL0     H 9595   4.339   7.364   3.973  2.3450  1.3200  0.1095
  812MOL0     H 9596   4.401   7.097   4.128  1.5549 -0.1551 -0.6877
  812MOL0     H 9597   4.420   7.128   3.946  0.0713  1.9504 -0.7068
  812MOL0     H 9598   4.191   7.141   4.136  2.3421  0.2270  1.4018
  812MOL0     H 9599   4.169   7.175   3.967  0.9269  1.2467  0.1657
  812MOL0     H 9600   5.122   6.895   4.192  1.6279 -0.4722 -1.0201
  812MOL0     H 9601   5.375   6.780   4.154 -1.7667 -0.5131 -2.1428
  812MOL0     H 9602   5.779   6.555   4.264 -0.5395  0.0695 -1.0138
  812MOL0     H 9603   5.988   6.479   4.154  0.6189  0.6366 -0.4679
  812MOL0     H 9604   7.070   6.437   2.611  2.3344  1.6777  0.0084
  812MOL0     H 9605   6.969   6.356   2.406  2.4251  0.8610 -0.5363
  812MOL0     H 9606   7.039   6.270   1.950 -0.7276  1.3553  1.6637
  812MOL0     H 9607   6.946   6.156   1.757 -0.0211 -3.5692  2.3602
  812MOL0     H 9608   6.670   6.020   1.532  0.6099  1.1779 -1.7856
  812MOL0     H 9609   6.814   6.007   1.619  0.7935  0.8827 -0.1987
  812MOL0     H 9610   6.912   6.171   1.492  1.4748  2.6926 -5.0873
  812MOL0     H 9611   6.804   6.285   1.537  2.3839 -0.2708 -0.0940
  812MOL0     H 9612   6.645   6.185   1.365  0.1617  0.0628  0.3847
  812MOL0     H 9613   6.773   6.089   1.305  3.8891 -0.1658  0.2026
  812MOL0     H 9614   6.760   6.335   1.191  0.9377  2.1684 -0.1902
  812MOL0     H 9615   6.814   6.400   1.346  0.8451  0.6329 -1.3811
  812MOL0     H 9616   7.181   6.260   1.231 -0.1561 -1.1862 -0.7565
  812MOL0     H 9617   6.557   6.260   1.875 -0.5990 -2.6276 -1.8110
  812MOL0     H 9618   6.629   6.370   2.197 -3.6990 -1.9930  0.6195
  812MOL0     H 9619   6.623   6.516   2.086  0.7610  0.0116 -2.0831
  812MOL0     H 9620   6.505   6.387   2.078  1.3074 -0.9192 -1.2360
  813MOL0     O 9621   2.051  11.043   2.711 -0.2714 -0.3794 -0.5553
  813MOL0     C 9622   2.169  11.053   2.678  0.6311 -0.2731  0.1365
  813MOL0     O 9623   2.261  10.948   2.673 -0.3846 -0.2122  0.9645
  813MOL0     C 9624   2.237  10.822   2.709  0.9174  0.3885 -1.1634
  813MOL0     C 9625   2.304  10.729   2.636  0.2905  1.1335  0.2633
  813MOL0     C 9626   2.283  10.591   2.665  0.1970  0.4510  0.6349
  813MOL0     C 9627   2.198  10.540   2.767  0.4401  0.4876 -0.9185
  813MOL0     O 9628   2.141  10.414   2.783  0.1922 -0.1471 -0.6738
  813MOL0     C 9629   2.115  10.340   2.666  0.0007 -0.3757  0.1306
  813MOL0     C 9630   1.967  10.327   2.670 -1.0457  1.3164 -0.1044
  813MOL0     C 9631   1.913  10.236   2.563  0.1725  0.9067  0.1373
  813MOL0     C 9632   1.787  10.158   2.603 -0.4030 -0.2316  0.3661
  813MOL0     C 9633   1.744  10.071   2.488  0.0440 -1.1496 -0.2661
  813MOL0     C 9634   1.591  10.034   2.506  0.2803  0.7804 -0.3429
  813MOL0     C 9635   1.496  10.156   2.508  0.0962 -0.1891 -0.2932
  813MOL0     C 9636   1.355  10.095   2.524 -0.0862 -0.0240 -0.6135
  813MOL0     N 9637   1.266  10.210   2.557 -0.4626  0.1847  1.2517
  813MOL0     C 9638   1.213  10.311   2.472 -0.0171  0.1335  0.8547
  813MOL0     C 9639   1.139  10.400   2.555  0.1512  0.6145 -0.5138
  813MOL0     C 9640   1.054  10.504   2.509  0.9312 -0.2921  0.5849
  813MOL0     C 9641   0.918  10.507   2.573 -0.8682 -0.0102 -0.4939
  813MOL0     C 9642   0.814  10.576   2.495 -1.1162 -0.2729  0.3809
  813MOL0     C 9643   0.827  10.724   2.442  1.0221 -0.2645  1.0851
  813MOL0     O 9644   0.682  10.761   2.433 -0.2708  0.1867  0.2143
  813MOL0     C 9645   0.650  10.795   2.303  0.5406 -0.5151 -0.1495
  813MOL0     C 9646   0.605  10.918   2.275 -1.1019 -0.6092  0.1077
  813MOL0     C 9647   0.556  10.949   2.143 -0.3225 -0.3094 -0.5189
  813MOL0     C 9648   0.551  10.851   2.044 -0.1100  0.6549 -0.1622
  813MOL0     C 9649   0.493  10.882   1.902  0.2574 -0.6625 -1.0931
  813MOL0     O 9650   0.478  11.018   1.870 -0.1202  0.3191  0.3311
  813MOL0     C 9651   0.416  11.031   1.751 -0.5422 -0.8325 -0.4322
  813MOL0     C 9652   0.499  11.029   1.637 -0.0849 -1.1263  0.4496
  813MOL0     C 9653   0.436  11.051   1.506  0.0550 -0.1072  0.0645
  813MOL0     C 9654   0.304  11.082   1.497  0.6320  0.2107 -0.0518
  813MOL0     O 9655   0.248  11.131   1.379  0.4032 -0.2055 -0.6085
  813MOL0     C 9656   0.143  11.050   1.322 -0.1381  0.5527 -0.3086
  813MOL0     C 9657   0.164  11.067   1.177  0.1530  0.1942 -1.4564
  813MOL0     C 9658   0.287  10.994   1.125  0.6511 -0.0488 -0.4054
  813MOL0     C 9659   0.282  10.980   0.973  0.7233 -0.3892 -0.9542
  813MOL0     C 9660   0.346  10.851   0.922 -0.1966  0.2664  0.0055
  813MOL0     C 9661   0.365  10.855   0.770 -0.2421  0.7313  0.6052
  813MOL0     C 9662   0.427  10.728   0.716  0.4286 -0.7951 -0.5143
  813MOL0     C 9663   0.433  10.724   0.565  0.8751  0.1002  0.4815
  813MOL0    Cl 9664   0.555  10.841   0.504 -0.2688 -0.0616 -0.2864
  813MOL0     C 9665   0.219  11.072   1.614  1.1136  0.1946  0.2574
  813MOL0     C 9666   0.276  11.048   1.740  0.2089 -0.0927  0.1609
  813MOL0     O 9667   0.439  10.782   1.849  0.1416 -0.3768 -0.2543
  813MOL0     C 9668   0.589  10.717   2.079  0.7512 -0.1847  0.2836
  813MOL0     C 9669   0.637  10.694   2.206  0.1910  0.5681 -0.3373
  813MOL0     N 9670   1.146  10.347   2.680  0.4404  0.1542 -0.3776
  813MOL0     N 9671   1.223  10.240   2.681  0.7035  0.1239  0.1238
  813MOL0     C 9672   2.147  10.643   2.852 -0.1870  0.9534  0.1486
  813MOL0     C 9673   2.160  10.778   2.824 -0.6043  0.0217  0.0026
  813MOL0     C 9674   2.220  11.182   2.641 -0.2302  0.8379  0.2342
  813MOL0     C 9675   2.322  11.237   2.722 -1.0569  0.0873 -0.3225
  813MOL0     C 9676   2.358  11.369   2.695  0.0710 -0.6467 -0.0406
  813MOL0     C 9677   2.295  11.444   2.589  0.2309  0.2996  1.0126
  813MOL0     O 9678   2.334  11.578   2.587 -0.0139 -0.6225  0.1723
  813MOL0     C 9679   2.279  11.655   2.481 -0.1030 -0.3051 -0.7280
  813MOL0     C 9680   2.339  11.794   2.484 -0.1510  0.2611 -0.3110
  813MOL0     C 9681   2.477  11.786   2.420  0.2065  0.4467 -0.1980
  813MOL0     C 9682   2.522  11.924   2.366  0.1158 -0.2231 -0.1843
  813MOL0     C 9683   2.490  12.041   2.445  0.2418  0.2103 -0.5205
  813MOL0     C 9684   2.478  12.129   2.530  0.1341  0.9457  0.4725
  813MOL0     C 9685   2.194  11.379   2.505 -0.3871  0.7547 -0.8737
  813MOL0     C 9686   2.156  11.247   2.531 -0.4038  0.9097  0.5669
  813MOL0     C 9687   2.058  11.181   2.446 -0.6491  0.2418 -0.5100
  813MOL0     H 9688   2.380  10.772   2.571  2.5196  3.3391  3.9588
  813MOL0     H 9689   2.337  10.520   2.603 -0.1430  2.7914 -2.5881
  813MOL0     H 9690   2.160  10.383   2.576  0.3920  0.3240  0.6529
  813MOL0     H 9691   2.168  10.247   2.689  3.0491  1.1815 -0.0722
  813MOL0     H 9692   1.920  10.425   2.657 -1.6059  1.2731  1.4389
  813MOL0     H 9693   1.944  10.289   2.770 -0.5096  1.9426  0.2688
  813MOL0     H 9694   1.988  10.165   2.530  1.8340  2.5786  0.1255
  813MOL0     H 9695   1.901  10.286   2.466 -0.3885  0.7716  0.1325
  813MOL0     H 9696   1.818  10.086   2.679  2.5304 -1.0586 -1.4091
  813MOL0     H 9697   1.714  10.225   2.648  2.3843  3.0891  0.3721
  813MOL0     H 9698   1.750  10.141   2.404  1.1000 -0.5834  0.2619
  813MOL0     H 9699   1.805   9.981   2.476 -1.5534 -2.0969 -1.5802
  813MOL0     H 9700   1.575   9.967   2.421  2.5293 -1.2938  0.7309
  813MOL0     H 9701   1.573   9.967   2.591 -0.2028  1.6862  0.2865
  813MOL0     H 9702   1.490  10.215   2.416  1.7227 -0.6370 -0.7100
  813MOL0     H 9703   1.512  10.216   2.598  4.4136 -1.2725 -0.1436
  813MOL0     H 9704   1.333  10.033   2.436  0.3985 -0.3051 -0.5431
  813MOL0     H 9705   1.349  10.034   2.614 -2.1769 -0.3902 -0.9509
  813MOL0     H 9706   1.221  10.319   2.364 -1.5219 -3.8631  0.2920
  813MOL0     H 9707   1.097  10.601   2.537 -1.0252  1.2684 -1.3614
  813MOL0     H 9708   1.054  10.497   2.400 -0.6440  0.6420  0.4822
  813MOL0     H 9709   0.886  10.403   2.587 -0.0405 -0.0310  1.6613
  813MOL0     H 9710   0.921  10.548   2.675 -1.1180  1.0855 -0.9149
  813MOL0     H 9711   0.728  10.586   2.562  0.1403  1.2206  1.8635
  813MOL0     H 9712   0.797  10.519   2.403  1.7555 -0.1373 -0.3092
  813MOL0     H 9713   0.876  10.745   2.347 -1.8197  2.3637  0.0390
  813MOL0     H 9714   0.883  10.770   2.524  0.8250 -1.2616  1.8092
  813MOL0     H 9715   0.610  10.997   2.350 -0.5116  1.2567 -1.8099
  813MOL0     H 9716   0.525  11.051   2.126 -0.3346 -0.1462  0.4327
  813MOL0     H 9717   0.606  11.014   1.646  0.6457  3.3450  1.6178
  813MOL0     H 9718   0.495  11.061   1.415  2.1203 -0.3115  1.3058
  813MOL0     H 9719   0.145  10.942   1.340  0.0539  0.6735  0.4180
  813MOL0     H 9720   0.042  11.086   1.343 -0.0590  0.3798  0.4050
  813MOL0     H 9721   0.072  11.023   1.135  0.7498 -1.2817 -1.3051
  813MOL0     H 9722   0.166  11.172   1.147  1.3631  1.5555  2.7846
  813MOL0     H 9723   0.379  11.041   1.162 -0.0412  1.3465 -0.4135
  813MOL0     H 9724   0.281  10.893   1.167 -1.5154 -1.2854 -3.2919
  813MOL0     H 9725   0.335  11.063   0.925 -1.0078  0.0121 -2.2484
  813MOL0     H 9726   0.179  10.992   0.940 -0.8911  3.9999  4.2887
  813MOL0     H 9727   0.294  10.762   0.958  0.7232 -0.1539  0.3271
  813MOL0     H 9728   0.450  10.838   0.952 -0.5839 -2.4896  0.4242
  813MOL0     H 9729   0.273  10.882   0.719  0.8795  0.7797 -1.4793
  813MOL0     H 9730   0.441  10.931   0.750  1.7716 -1.3616 -0.1076
  813MOL0     H 9731   0.372  10.637   0.741 -0.0288 -0.3784  0.0334
  813MOL0     H 9732   0.520  10.705   0.770 -1.1001 -1.7426  1.8509
  813MOL0     H 9733   0.455  10.621   0.533 -2.4642 -0.3069 -0.8532
  813MOL0     H 9734   0.338  10.754   0.521  1.5820  2.6684  0.5555
  813MOL0     H 9735   0.117  11.109   1.618  1.1614  0.2544  1.0791
  813MOL0     H 9736   0.229  11.044   1.837 -3.7564  2.6063 -1.3636
  813MOL0     H 9737   0.573  10.643   2.001 -0.1635 -1.0103  1.2308
  813MOL0     H 9738   0.659  10.591   2.235  0.7658  0.8071  0.1088
  813MOL0     H 9739   2.097  10.603   2.940  1.5540  1.6812  1.5442
  813MOL0     H 9740   2.113  10.848   2.892 -0.1966 -2.0606  2.5732
  813MOL0     H 9741   2.362  11.179   2.805 -4.2227 -2.4331 -0.3823
  813MOL0     H 9742   2.434  11.418   2.754 -1.2056 -2.0056  2.9546
  813MOL0     H 9743   2.170  11.663   2.480 -0.2709 -2.1889 -2.1166
  813MOL0     H 9744   2.294  11.616   2.380  1.9287 -1.1750 -0.1360
  813MOL0     H 9745   2.341  11.824   2.589  2.0807 -0.0539 -0.2220
  813MOL0     H 9746   2.276  11.859   2.423 -0.0917 -0.7319 -1.4751
  813MOL0     H 9747   2.482  11.712   2.340 -1.6462  1.8702 -1.7279
  813MOL0     H 9748   2.543  11.763   2.504 -2.1439 -0.4932  1.4805
  813MOL0     H 9749   2.629  11.925   2.345  0.3079 -0.3408  0.7375
  813MOL0     H 9750   2.468  11.948   2.274  1.5196  1.2294 -0.6728
  813MOL0     H 9751   2.469  12.202   2.608  3.1160  0.2459  1.6022
  813MOL0     H 9752   2.149  11.422   2.416  0.0521 -0.9975 -2.0001
  813MOL0     H 9753   1.961  11.174   2.497 -0.1144  1.1079  0.6585
  813MOL0     H 9754   2.042  11.229   2.348  3.5448 -1.0824 -2.0540
  813MOL0     H 9755   2.091  11.080   2.420  0.3972  1.2541 -3.6276
  814MOL0     O 9756   9.994   8.739   6.821 -0.2844 -0.1408  0.4374
  814MOL0     C 9757   9.905   8.789   6.752 -0.3069  0.1221 -0.7703
  814MOL0     O 9758   9.933   8.890   6.662 -0.3416 -0.0122 -0.3112
  814MOL0     C 9759  10.055   8.942   6.653  0.2324 -0.2778  0.2236
  814MOL0     C 9760  10.100   9.019   6.758 -0.2015  1.0313 -0.0411
  814MOL0     C 9761  10.224   9.078   6.758 -0.2007  0.1117  0.5304
  814MOL0     C 9762  10.317   9.069   6.656 -0.0603 -0.0221  0.7663
  814MOL0     O 9763  10.447   9.132   6.672  0.0845 -0.0013  1.1789
  814MOL0     C 9764  10.553   9.095   6.582 -0.0765  0.2082  0.2179
  814MOL0     C 9765  10.688   9.108   6.661  0.0654 -0.5607  0.4225
  814MOL0     C 9766  10.822   9.099   6.582 -0.4373 -0.5497  0.8395
  814MOL0     C 9767  10.934   9.170   6.652 -0.5413  0.0746  0.6779
  814MOL0     C 9768  11.066   9.124   6.582 -0.0733 -0.5616 -0.2279
  814MOL0     C 9769  11.172   9.228   6.621  0.6007  0.4511 -0.2555
  814MOL0     C 9770  11.315   9.189   6.567  0.2124  0.8606 -0.0384
  814MOL0     C 9771  11.428   9.262   6.636 -0.3402 -0.0591  0.2034
  814MOL0     N 9772  11.566   9.223   6.585 -0.0657  0.0678 -0.1340
  814MOL0     C 9773  11.606   9.108   6.532 -0.5438 -0.1698  0.8353
  814MOL0     C 9774  11.742   9.121   6.509  0.0001 -0.5528 -0.6816
  814MOL0     C 9775  11.826   9.015   6.441 -0.2537 -0.1504 -0.5152
  814MOL0     C 9776  11.904   8.926   6.539 -0.4436  0.2842 -0.3142
  814MOL0     C 9777  11.970   8.795   6.500 -0.3915  0.1917 -0.9718
  814MOL0     C 9778  12.025   8.803   6.363 -0.2057  1.1168  0.0089
  814MOL0     O 9779  12.123   8.903   6.346  0.6599 -0.8824 -0.1464
  814MOL0     C 9780  12.244   8.865   6.302  0.5103 -0.3599 -0.4603
  814MOL0     C 9781  12.277   8.891   6.166  0.6086 -1.0792 -0.7053
  814MOL0     C 9782  12.400   8.872   6.121  0.7001  0.0513  0.1936
  814MOL0     C 9783  12.503   8.812   6.203  0.2534 -0.1862 -0.5893
  814MOL0     C 9784  12.637   8.796   6.142 -0.0856 -0.0822 -0.1539
  814MOL0     O 9785  12.653   8.810   6.012  0.3651 -0.4711 -0.6597
  814MOL0     C 9786  12.777   8.802   5.948  0.2091  0.5109  0.0192
  814MOL0     C 9787  12.866   8.694   5.975  0.1148  1.0061 -0.9776
  814MOL0     C 9788  12.996   8.690   5.919  0.7488 -0.3890  0.6761
  814MOL0     C 9789  13.037   8.796   5.831 -0.1573  0.7576 -0.1819
  814MOL0     O 9790  13.167   8.827   5.790 -0.0288 -0.2343  0.0806
  814MOL0     C 9791  13.266   8.724   5.781  0.3711 -0.4319  0.5114
  814MOL0     C 9792  13.368   8.759   5.891  0.2923  1.1627 -0.3224
  814MOL0     C 9793  13.474   8.852   5.848 -0.1208  0.4568  0.2600
  814MOL0     C 9794  13.606   8.804   5.769 -0.2838 -0.3744 -0.1327
  814MOL0     C 9795  13.682   8.709   5.860  0.1549  0.8864 -0.4213
  814MOL0     C 9796  13.827   8.682   5.813  0.5576  0.4076  0.3552
  814MOL0     C 9797  13.845   8.661   5.666  0.0123 -0.1296  0.3089
  814MOL0     C 9798  13.995   8.655   5.635  0.4013 -0.6421 -0.0000
  814MOL0    Cl 9799  14.087   8.787   5.701  0.5027 -0.4159 -0.4821
  814MOL0     C 9800  12.941   8.904   5.810  0.2203  0.6303  0.1751
  814MOL0     C 9801  12.808   8.911   5.867 -0.7797 -0.8047  0.3754
  814MOL0     O 9802  12.730   8.776   6.222 -0.1158  0.0160 -0.7548
  814MOL0     C 9803  12.470   8.786   6.339 -0.0216 -0.3612  0.1879
  814MOL0     C 9804  12.343   8.810   6.390  0.2621  1.2017  0.3469
  814MOL0     N 9805  11.787   9.241   6.573  0.0649 -0.7821  0.2220
  814MOL0     N 9806  11.674   9.300   6.602 -0.5581  1.4664 -0.6511
  814MOL0     C 9807  10.276   8.981   6.545  0.0861 -0.0625  0.1754
  814MOL0     C 9808  10.144   8.926   6.548  0.7884  0.1524  0.7225
  814MOL0     C 9809   9.761   8.753   6.775 -1.5487 -1.1162 -0.4451
  814MOL0     C 9810   9.671   8.851   6.735 -0.3447 -0.0839 -0.2255
  814MOL0     C 9811   9.535   8.835   6.784  0.4673 -0.8487  0.6691
  814MOL0     C 9812   9.497   8.743   6.881  0.9489  0.0238  0.4264
  814MOL0     O 9813   9.370   8.707   6.921 -0.1096 -0.5886 -0.2007
  814MOL0     C 9814   9.273   8.815   6.922 -0.0504 -0.6469 -0.4077
  814MOL0     C 9815   9.163   8.794   6.807  0.3121 -0.2946 -0.2141
  814MOL0     C 9816   9.219   8.768   6.654 -0.4130  0.6575 -0.0527
  814MOL0     C 9817   9.113   8.727   6.561 -0.3255  0.2508 -0.1108
  814MOL0     C 9818   9.035   8.849   6.511  0.7910 -0.2889 -0.5534
  814MOL0     C 9819   8.959   8.927   6.459  0.0871 -0.6408 -0.1829
  814MOL0     C 9820   9.594   8.661   6.929  0.7134  0.9485  0.9164
  814MOL0     C 9821   9.722   8.655   6.862  0.2217  0.3778 -0.4149
  814MOL0     C 9822   9.819   8.563   6.923 -0.3291  0.1829  0.0316
  814MOL0     H 9823  10.043   9.027   6.850 -1.6143  4.1451 -1.0556
  814MOL0     H 9824  10.258   9.130   6.847  1.7518 -1.3338  0.6795
  814MOL0     H 9825  10.554   8.993   6.542  0.1827  1.1163 -2.2280
  814MOL0     H 9826  10.541   9.163   6.497  1.6443  0.4884  0.1605
  814MOL0     H 9827  10.688   9.031   6.739 -0.8416  0.0540  1.0536
  814MOL0     H 9828  10.687   9.206   6.710 -1.1901  1.5885 -3.5213
  814MOL0     H 9829  10.800   9.152   6.489  1.2452 -0.9916  0.1420
  814MOL0     H 9830  10.844   8.993   6.569 -0.9929 -0.8206  1.9468
  814MOL0     H 9831  10.925   9.278   6.639 -0.4653 -0.1557 -1.5282
  814MOL0     H 9832  10.936   9.144   6.759 -0.2653 -0.5967  0.5175
  814MOL0     H 9833  11.101   9.023   6.604 -1.3963 -0.5602  2.3038
  814MOL0     H 9834  11.054   9.137   6.474  3.4040  2.3865 -0.4559
  814MOL0     H 9835  11.139   9.328   6.594 -0.6713 -0.7055 -3.5233
  814MOL0     H 9836  11.165   9.229   6.730  0.5626 -2.6660 -0.1361
  814MOL0     H 9837  11.305   9.192   6.458 -2.3351 -2.4747 -0.0763
  814MOL0     H 9838  11.324   9.083   6.592 -0.8229  0.4634 -1.2643
  814MOL0     H 9839  11.417   9.370   6.625  0.8053  0.1499  0.9597
  814MOL0     H 9840  11.422   9.232   6.741  0.3305  0.9153  0.5407
  814MOL0     H 9841  11.556   9.014   6.510 -2.6313  1.7615 -4.0286
  814MOL0     H 9842  11.754   8.954   6.387 -2.3183  0.6021  1.2350
  814MOL0     H 9843  11.900   9.063   6.376 -1.1138  2.7464  0.4675
  814MOL0     H 9844  11.990   8.983   6.576  0.0221  0.3763 -1.4888
  814MOL0     H 9845  11.855   8.897   6.632 -0.5208 -2.7038 -1.1779
  814MOL0     H 9846  11.904   8.708   6.502  3.4275 -2.9636 -0.8060
  814MOL0     H 9847  12.063   8.779   6.555  2.0293 -1.9576 -5.2520
  814MOL0     H 9848  11.940   8.829   6.298 -0.5822 -1.5935 -0.6901
  814MOL0     H 9849  12.062   8.708   6.325  3.2064  1.2397  2.5554
  814MOL0     H 9850  12.201   8.940   6.106 -0.5771 -2.8742 -0.7348
  814MOL0     H 9851  12.432   8.891   6.019  0.7931  2.5027  0.6320
  814MOL0     H 9852  12.835   8.623   6.050  3.0654  2.5866  2.0107
  814MOL0     H 9853  13.062   8.620   5.967 -0.4886 -1.8317  0.3474
  814MOL0     H 9854  13.230   8.623   5.801 -1.2461  0.5363  2.8244
  814MOL0     H 9855  13.310   8.717   5.681 -0.1971 -0.2306  0.2424
  814MOL0     H 9856  13.320   8.789   5.985  1.5558 -3.7537  2.2728
  814MOL0     H 9857  13.408   8.662   5.923  0.9008  1.4848 -0.0721
  814MOL0     H 9858  13.418   8.930   5.795  0.2234 -0.4905 -1.5517
  814MOL0     H 9859  13.506   8.899   5.942 -2.7829  2.9262  0.0972
  814MOL0     H 9860  13.674   8.887   5.754 -1.5053  0.9521  1.3474
  814MOL0     H 9861  13.568   8.756   5.677  0.7952 -1.3313 -0.1006
  814MOL0     H 9862  13.631   8.612   5.849 -1.7714  2.1152 -4.4008
  814MOL0     H 9863  13.680   8.745   5.963 -1.6654 -1.9262  0.6436
  814MOL0     H 9864  13.889   8.769   5.839  1.7840 -0.7285  1.4157
  814MOL0     H 9865  13.861   8.592   5.864 -1.3859 -0.3502  0.3848
  814MOL0     H 9866  13.794   8.741   5.610 -0.2248 -1.6641 -1.7761
  814MOL0     H 9867  13.795   8.569   5.634 -0.6106 -0.4462  2.0363
  814MOL0     H 9868  14.038   8.558   5.662 -0.8640 -1.8839 -2.1495
  814MOL0     H 9869  13.998   8.673   5.527  1.5764  1.7313  0.3677
  814MOL0     H 9870  12.972   8.990   5.751  1.4937  1.4185  1.9005
  814MOL0     H 9871  12.744   8.996   5.851  1.1016  0.4179 -1.0624
  814MOL0     H 9872  12.549   8.730   6.388 -1.4532 -3.3446 -0.7129
  814MOL0     H 9873  12.326   8.792   6.496  1.9529 -1.1929  0.2747
  814MOL0     H 9874  10.345   8.955   6.466  2.1556  1.3828  1.3772
  814MOL0     H 9875  10.125   8.858   6.465 -0.5542 -2.1882  2.8087
  814MOL0     H 9876   9.712   8.929   6.672  1.4402 -0.8384 -0.0436
  814MOL0     H 9877   9.465   8.911   6.752  2.0740  0.1539 -0.6045
  814MOL0     H 9878   9.314   8.916   6.914 -4.7057  1.6813  1.1612
  814MOL0     H 9879   9.228   8.812   7.022  0.6786 -2.1200 -0.0810
  814MOL0     H 9880   9.115   8.891   6.794  1.8795  0.4761 -0.5167
  814MOL0     H 9881   9.088   8.719   6.837  2.4899 -1.9709  1.4434
  814MOL0     H 9882   9.302   8.696   6.652 -1.8276 -1.3539  3.5736
  814MOL0     H 9883   9.254   8.862   6.611 -0.9709  0.8849 -0.0126
  814MOL0     H 9884   9.146   8.675   6.470 -1.1749 -3.7603  1.6612
  814MOL0     H 9885   9.042   8.656   6.603  0.1286  0.1066  0.4182
  814MOL0     H 9886   8.894   9.006   6.429 -0.3827 -1.6209 -1.8876
  814MOL0     H 9887   9.582   8.590   7.010  1.9014 -3.4797 -2.3679
  814MOL0     H 9888   9.762   8.476   6.957 -2.4502  1.2573 -0.5578
  814MOL0     H 9889   9.897   8.534   6.852  2.1891  1.5001  2.0858
  814MOL0     H 9890   9.865   8.607   7.012 -2.3699 -0.2099  1.3591
  815MOL0     O 9891   6.985  11.384   8.374  0.1084  0.2892 -0.5410
  815MOL0     C 9892   6.917  11.286   8.413 -0.6892 -0.0653 -0.0142
  815MOL0     O 9893   6.946  11.158   8.368 -0.1666  0.6024 -0.5904
  815MOL0     C 9894   7.057  11.140   8.287  1.1124 -0.6328 -0.1169
  815MOL0     C 9895   7.169  11.071   8.330 -0.1747 -0.4849 -0.4287
  815MOL0     C 9896   7.281  11.055   8.251  0.3592 -0.3688 -0.3625
  815MOL0     C 9897   7.283  11.121   8.121 -0.3740 -0.1342 -0.1401
  815MOL0     O 9898   7.401  11.130   8.053  0.3181 -0.1481 -0.2538
  815MOL0     C 9899   7.393  11.153   7.911  0.3463  1.1046 -0.1056
  815MOL0     C 9900   7.524  11.095   7.849 -0.1211  0.5800  0.0816
  815MOL0     C 9901   7.645  11.168   7.910  0.2141 -0.8404 -0.5870
  815MOL0     C 9902   7.778  11.129   7.844 -0.2436 -1.1682 -0.5034
  815MOL0     C 9903   7.898  11.191   7.919  0.9939  0.8442 -0.3185
  815MOL0     C 9904   8.039  11.151   7.861 -0.3291 -0.7571  0.7946
  815MOL0     C 9905   8.150  11.204   7.962  1.0587 -0.0816  0.6051
  815MOL0     C 9906   8.177  11.352   7.938  1.1431  0.1440  0.6726
  815MOL0     N 9907   8.274  11.406   8.036 -0.3627  0.2858  0.2242
  815MOL0     C 9908   8.327  11.342   8.147 -0.2569 -0.0176 -0.7156
  815MOL0     C 9909   8.377  11.433   8.234 -0.7851 -0.1251 -0.8110
  815MOL0     C 9910   8.428  11.404   8.364  0.8526  0.6159 -1.1091
  815MOL0     C 9911   8.578  11.423   8.376  0.4459 -0.2121  0.0837
  815MOL0     C 9912   8.657  11.296   8.339  0.8999  0.0587  0.9974
  815MOL0     C 9913   8.804  11.332   8.306  0.2293  0.0348 -0.3271
  815MOL0     O 9914   8.796  11.369   8.168 -0.2760  0.3784  0.1816
  815MOL0     C 9915   8.906  11.399   8.101 -0.2926  0.8548 -0.0019
  815MOL0     C 9916   8.885  11.449   7.970  0.1319 -0.3188  0.4728
  815MOL0     C 9917   8.998  11.502   7.896  0.1582 -0.3473 -0.5270
  815MOL0     C 9918   9.127  11.497   7.948 -1.0749  0.4941  0.8196
  815MOL0     C 9919   9.238  11.538   7.873  0.3620 -0.0647  0.4235
  815MOL0     O 9920   9.213  11.638   7.775 -0.0484 -0.3239 -0.4578
  815MOL0     C 9921   9.309  11.666   7.674 -0.2872 -0.9808 -0.1051
  815MOL0     C 9922   9.383  11.573   7.612 -0.8271  0.0750  0.7880
  815MOL0     C 9923   9.470  11.602   7.509 -1.6069  0.5342 -0.7137
  815MOL0     C 9924   9.485  11.734   7.463  0.8813 -1.0284  0.5612
  815MOL0     O 9925   9.574  11.744   7.357  0.2578 -0.6522 -0.9621
  815MOL0     C 9926   9.687  11.829   7.374  0.8511 -0.5214  0.1261
  815MOL0     C 9927   9.784  11.756   7.460 -0.2817  0.2992 -0.4306
  815MOL0     C 9928   9.867  11.647   7.382 -0.8095  0.8142 -0.3745
  815MOL0     C 9929   9.955  11.575   7.475  0.0811  0.1876 -0.0653
  815MOL0     C 9930   9.996  11.438   7.427 -0.2103  0.1620 -0.1478
  815MOL0     C 9931  10.100  11.390   7.525  0.2094  0.5542 -0.1112
  815MOL0     C 9932  10.132  11.240   7.505 -0.4524  0.2041 -0.8238
  815MOL0     C 9933  10.183  11.165   7.632 -1.0202 -0.1827 -0.5544
  815MOL0    Cl 9934  10.314  11.242   7.737 -0.2146 -0.3893 -0.3586
  815MOL0     C 9935   9.398  11.832   7.515  0.1391  0.7119  0.1816
  815MOL0     C 9936   9.313  11.799   7.624 -1.7045  0.3784 -0.1735
  815MOL0     O 9937   9.347  11.489   7.901 -0.6561  0.1178  0.2111
  815MOL0     C 9938   9.148  11.460   8.079  0.0838  0.1848  0.2334
  815MOL0     C 9939   9.040  11.413   8.154  0.0786  0.3144  0.0689
  815MOL0     N 9940   8.355  11.562   8.169  0.1029  0.7504 -0.3586
  815MOL0     N 9941   8.305  11.541   8.054  0.4141 -0.5950  0.3700
  815MOL0     C 9942   7.178  11.194   8.082 -0.6856  0.0192  0.1394
  815MOL0     C 9943   7.065  11.208   8.165 -1.0223  0.1745 -0.0349
  815MOL0     C 9944   6.808  11.295   8.522  0.5086  0.3093 -0.4882
  815MOL0     C 9945   6.735  11.178   8.557  0.4751  0.2674  0.5899
  815MOL0     C 9946   6.639  11.183   8.661  0.3097 -0.4701  0.2972
  815MOL0     C 9947   6.622  11.294   8.742  0.0646  0.2380  0.1198
  815MOL0     O 9948   6.529  11.305   8.839  0.0853  0.0549  0.3267
  815MOL0     C 9949   6.447  11.189   8.856  0.7452  0.0780 -0.3249
  815MOL0     C 9950   6.332  11.228   8.940 -0.4629  0.3930 -0.4170
  815MOL0     C 9951   6.361  11.303   9.079  0.1694  0.3030 -0.2504
  815MOL0     C 9952   6.238  11.401   9.122  0.4744  0.4754 -0.0076
  815MOL0     C 9953   6.127  11.319   9.172  0.0324  0.4680  0.5231
  815MOL0     C 9954   6.038  11.246   9.216  0.6758 -0.9550 -1.1825
  815MOL0     C 9955   6.706  11.400   8.718  0.1608 -0.6788 -0.4130
  815MOL0     C 9956   6.796  11.400   8.617  0.3347  0.4073  0.8006
  815MOL0     C 9957   6.879  11.523   8.621  0.4255  0.4436  0.7990
  815MOL0     H 9958   7.181  11.031   8.430  1.8313  0.3867 -0.2870
  815MOL0     H 9959   7.366  11.000   8.290  0.1513 -1.8400 -1.8481
  815MOL0     H 9960   7.317  11.084   7.873 -0.8496  2.3781 -0.0898
  815MOL0     H 9961   7.366  11.252   7.875 -2.9458  0.6386  0.7659
  815MOL0     H 9962   7.530  11.095   7.739 -1.5132 -2.8761 -0.1275
  815MOL0     H 9963   7.530  10.989   7.876 -4.6588  0.7930  3.0865
  815MOL0     H 9964   7.648  11.155   8.018 -2.3836  2.3432  0.0567
  815MOL0     H 9965   7.630  11.272   7.879 -3.1046 -0.2355  2.5117
  815MOL0     H 9966   7.782  11.019   7.844 -2.4860 -1.2989  0.2911
  815MOL0     H 9967   7.801  11.151   7.739  2.2199 -1.9819 -0.1991
  815MOL0     H 9968   7.891  11.299   7.928 -0.0666  0.5998  3.5056
  815MOL0     H 9969   7.899  11.164   8.025  2.4181  0.3729 -0.4211
  815MOL0     H 9970   8.038  11.042   7.849  1.3560 -0.6167 -1.0254
  815MOL0     H 9971   8.059  11.196   7.764 -0.7778 -0.9155  0.6262
  815MOL0     H 9972   8.241  11.148   7.940  2.0558  1.2013  1.2926
  815MOL0     H 9973   8.132  11.182   8.068  4.2477  0.0585  1.2626
  815MOL0     H 9974   8.215  11.368   7.837 -0.2567  2.5351  0.4273
  815MOL0     H 9975   8.084  11.409   7.952  1.3437  0.7115 -0.2210
  815MOL0     H 9976   8.310  11.239   8.177 -2.8330  0.9268  1.5058
  815MOL0     H 9977   8.386  11.485   8.423 -0.3740 -1.0776  0.4198
  815MOL0     H 9978   8.389  11.307   8.396 -1.4258  2.1891  1.2007
  815MOL0     H 9979   8.622  11.503   8.316  3.5084 -1.6883  0.1319
  815MOL0     H 9980   8.592  11.434   8.484  4.4693 -1.8827 -0.0840
  815MOL0     H 9981   8.610  11.243   8.256 -1.6233 -0.9333  2.9241
  815MOL0     H 9982   8.664  11.234   8.429  2.3862 -0.0044  0.8606
  815MOL0     H 9983   8.872  11.251   8.333  0.0982  0.1336  0.3186
  815MOL0     H 9984   8.848  11.403   8.378  0.4795  0.8541 -1.2701
  815MOL0     H 9985   8.782  11.454   7.938 -0.3221  3.2220  2.0427
  815MOL0     H 9986   8.979  11.523   7.792 -0.3110 -0.3694 -0.4474
  815MOL0     H 9987   9.361  11.470   7.640  1.9896 -1.0884 -0.8754
  815MOL0     H 9988   9.529  11.515   7.486 -2.3111 -0.9607  2.5516
  815MOL0     H 9989   9.735  11.864   7.282  0.2466  2.7159  0.9412
  815MOL0     H 9990   9.660  11.912   7.439 -2.5038  0.2413 -1.9609
  815MOL0     H 9991   9.847  11.832   7.508 -2.5151  0.6696  2.1602
  815MOL0     H 9992   9.724  11.715   7.541  0.4789 -0.4811 -0.2501
  815MOL0     H 9993   9.812  11.583   7.312 -0.7171 -0.5402  0.7409
  815MOL0     H 9994   9.939  11.698   7.318 -0.5947 -0.9683 -1.6239
  815MOL0     H 9995   9.907  11.568   7.573  0.1372  1.2377  0.0476
  815MOL0     H 9996  10.041  11.642   7.480  1.2960 -1.1833 -1.5193
  815MOL0     H 9997  10.039  11.467   7.331  0.0938  3.2200  0.7821
  815MOL0     H 9998   9.915  11.365   7.426  0.3820 -0.5647  1.4471
  815MOL0     H 9999  10.189  11.451   7.512  1.7079 -1.0635  1.9562
  815MOL0     H10000  10.061  11.408   7.626  1.1124  3.7494 -0.2074
  815MOL0     H10001  10.215  11.250   7.435 -0.9096 -0.0952 -1.4154
  815MOL0     H10002  10.052  11.189   7.451 -1.8538  2.2745 -0.7867
  815MOL0     H10003  10.094  11.145   7.691 -1.6071 -0.8961 -1.6409
  815MOL0     H10004  10.230  11.071   7.602  0.4154  0.9349 -2.0424
  815MOL0     H10005   9.385  11.929   7.468  0.2268  1.2658  1.2716
  815MOL0     H10006   9.245  11.864   7.679 -0.4804 -1.6852  4.2938
  815MOL0     H10007   9.247  11.467   8.122  0.4874  1.0792 -0.8103
  815MOL0     H10008   9.065  11.392   8.257  0.8847  1.0187  0.0307
  815MOL0     H10009   7.180  11.262   7.997 -0.2076 -0.2977 -0.1080
  815MOL0     H10010   6.993  11.277   8.122  0.6414  2.7370  1.0426
  815MOL0     H10011   6.746  11.093   8.490 -0.5299  1.0146 -0.5698
  815MOL0     H10012   6.571  11.098   8.662 -1.7932  1.1236  0.1866
  815MOL0     H10013   6.515  11.120   8.906  1.6260 -2.2456 -4.2522
  815MOL0     H10014   6.409  11.139   8.766  0.4177  1.4308 -0.9781
  815MOL0     H10015   6.272  11.140   8.964 -2.7122  2.2554  1.2350
  815MOL0     H10016   6.279  11.293   8.870 -0.7420 -0.9263 -1.4494
  815MOL0     H10017   6.454  11.360   9.078  0.1195  0.3936 -2.0392
  815MOL0     H10018   6.368  11.221   9.151  1.8425  0.8014  0.2054
  815MOL0     H10019   6.274  11.458   9.209 -1.2795 -0.7116  1.5478
  815MOL0     H10020   6.206  11.473   9.046  2.3494  2.5377  1.0274
  815MOL0     H10021   5.947  11.198   9.247 -1.1902  2.4808 -0.8157
  815MOL0     H10022   6.682  11.486   8.779 -1.6967 -1.1807 -0.3793
  815MOL0     H10023   6.985  11.500   8.610  0.9110  2.9876 -0.5138
  815MOL0     H10024   6.865  11.585   8.532  2.9327  3.3818  2.2764
  815MOL0     H10025   6.855  11.590   8.704  1.1334  0.7044  0.8000
  816MOL0     O10026   5.063   1.103  10.626  0.4615  0.2083 -0.2573
  816MOL0     C10027   5.136   1.024  10.569 -0.0960  0.2621 -0.2625
  816MOL0     O10028   5.225   0.935  10.627 -0.4162 -0.4271 -0.5372
  816MOL0     C10029   5.249   0.943  10.763 -0.4003 -0.4381  0.0428
  816MOL0     C10030   5.245   0.840  10.858  0.2572  0.8884  0.5648
  816MOL0     C10031   5.295   0.867  10.982 -0.1683 -0.5715 -0.9088
  816MOL0     C10032   5.339   0.992  11.031 -0.2248 -0.2348  0.4517
  816MOL0     O10033   5.388   1.015  11.154  0.4412 -0.4517 -0.1700
  816MOL0     C10034   5.395   0.897  11.246  0.0183 -0.7202  1.0004
  816MOL0     C10035   5.473   0.945  11.364 -0.7366 -0.7725  0.9954
  816MOL0     C10036   5.617   0.979  11.332  1.1253  0.7508 -0.8642
  816MOL0     C10037   5.680   1.035  11.456 -0.1855 -0.3373  0.5540
  816MOL0     C10038   5.817   1.104  11.433  0.6616  0.4870  0.2370
  816MOL0     C10039   5.891   1.128  11.567 -0.8391 -0.1724  0.1876
  816MOL0     C10040   5.853   1.263  11.640  0.6909  0.5940  0.8014
  816MOL0     C10041   5.929   1.391  11.603  1.5685 -0.0213 -0.2184
  816MOL0     N10042   6.064   1.402  11.646  0.0857 -0.4975 -0.2097
  816MOL0     C10043   6.164   1.333  11.586  0.3411 -0.2828  0.8198
  816MOL0     C10044   6.270   1.356  11.670 -0.0772  0.6269 -0.2339
  816MOL0     C10045   6.416   1.305  11.657  0.2863 -0.0425  0.5006
  816MOL0     C10046   6.525   1.402  11.716  0.1751 -0.4074 -0.7276
  816MOL0     C10047   6.658   1.323  11.723  0.3058 -0.5755  0.5975
  816MOL0     C10048   6.757   1.416  11.796  0.5751  0.1474 -0.8391
  816MOL0     O10049   6.887   1.365  11.774 -1.5539  0.4339  0.0955
  816MOL0     C10050   7.003   1.431  11.822 -0.5344  0.3551 -0.2157
  816MOL0     C10051   7.005   1.565  11.863 -0.0012  0.1091  0.0449
  816MOL0     C10052   7.117   1.635  11.918 -0.3553 -0.4458  0.1511
  816MOL0     C10053   7.240   1.564  11.916 -0.5423 -0.2938 -0.2249
  816MOL0     C10054   7.365   1.633  11.961 -0.2979 -1.0637 -0.4685
  816MOL0     O10055   7.476   1.564  11.932 -0.4747  0.5164  0.4957
  816MOL0     C10056   7.598   1.625  11.946  0.0638  0.2335  1.3548
  816MOL0     C10057   7.644   1.690  11.827  0.3409  0.2789 -0.5615
  816MOL0     C10058   7.770   1.753  11.819 -0.6965 -0.3138  0.6634
  816MOL0     C10059   7.854   1.749  11.924 -0.0974  1.1929  0.8002
  816MOL0     O10060   7.973   1.816  11.908  0.3735  0.3850 -0.3666
  816MOL0     C10061   8.025   1.852  12.038 -0.2905 -1.1200  0.0888
  816MOL0     C10062   8.115   1.976  12.032  0.5276 -0.1994  0.6397
  816MOL0     C10063   8.173   2.006  12.166 -0.5243 -0.2900  0.1688
  816MOL0     C10064   8.091   2.092  12.264 -0.1795  0.2232 -0.1406
  816MOL0     C10065   8.088   2.236  12.211 -0.1034  0.0853 -0.1898
  816MOL0     C10066   8.011   2.328  12.308 -0.5179 -0.7336  0.3771
  816MOL0     C10067   7.987   2.476  12.267  0.3108  0.2354  0.3991
  816MOL0     C10068   7.921   2.556  12.380 -0.0115  0.2293  0.3629
  816MOL0    Cl10069   8.038   2.575  12.512 -0.0226  0.0330 -0.1228
  816MOL0     C10070   7.813   1.671  12.033 -0.6539 -0.2109 -0.8880
  816MOL0     C10071   7.696   1.620  12.042  0.3677  0.4007  0.2547
  816MOL0     O10072   7.358   1.744  12.009 -0.3587 -0.3479  0.2429
  816MOL0     C10073   7.244   1.434  11.865 -0.2956  0.3715 -0.1048
  816MOL0     C10074   7.128   1.366  11.815  0.9981 -1.1139 -0.0095
  816MOL0     N10075   6.225   1.413  11.790 -0.1799 -0.4863  0.2706
  816MOL0     N10076   6.101   1.434  11.773  0.0568  0.4574 -0.5135
  816MOL0     C10077   5.341   1.100  10.933 -0.7008  0.6041  0.7311
  816MOL0     C10078   5.291   1.069  10.806 -0.0746 -0.1692  0.6983
  816MOL0     C10079   5.121   1.008  10.426 -0.0127  0.1816 -0.5664
  816MOL0     C10080   5.154   0.880  10.383 -0.5218  1.4190  0.5720
  816MOL0     C10081   5.154   0.858  10.253  0.2933  0.8473 -0.8375
  816MOL0     C10082   5.120   0.953  10.147 -0.6152  0.5820 -0.3323
  816MOL0     O10083   5.128   0.927  10.011  0.5643  0.4721 -0.5559
  816MOL0     C10084   5.164   0.794   9.975  1.0521  0.3328 -0.8895
  816MOL0     C10085   5.159   0.785   9.822 -0.2177  0.2021  1.1346
  816MOL0     C10086   5.131   0.644   9.783  0.1989  0.7391  0.4495
  816MOL0     C10087   5.153   0.609   9.637  0.0084 -0.2278 -0.0643
  816MOL0     C10088   5.066   0.704   9.553 -0.8372  0.1635  0.2015
  816MOL0     C10089   5.011   0.768   9.468 -0.1550 -0.5239  0.5159
  816MOL0     C10090   5.067   1.076  10.195  0.1314  0.0777  0.1660
  816MOL0     C10091   5.065   1.104  10.333 -0.8133 -1.0685  0.0909
  816MOL0     C10092   5.015   1.239  10.383 -0.1376 -1.5140  0.4656
  816MOL0     H10093   5.193   0.746  10.842  1.4191  0.3460 -0.1532
  816MOL0     H10094   5.291   0.786  11.054 -0.3534 -1.3281 -1.7468
  816MOL0     H10095   5.299   0.857  11.278 -0.6858  1.4252  1.7596
  816MOL0     H10096   5.459   0.823  11.198  1.2180 -1.4829  3.5853
  816MOL0     H10097   5.468   0.861  11.434 -1.2918 -2.6281 -1.1542
  816MOL0     H10098   5.418   1.029  11.407 -4.1249  0.7840 -5.2374
  816MOL0     H10099   5.617   1.051  11.249  1.3542 -0.5397 -2.0311
  816MOL0     H10100   5.667   0.886  11.306 -2.5376 -1.7467  0.2330
  816MOL0     H10101   5.621   1.118  11.497  1.6290  2.6914 -2.3925
  816MOL0     H10102   5.685   0.957  11.532 -0.5385  1.0281  2.0318
  816MOL0     H10103   5.882   1.046  11.366 -0.4778  0.1726 -0.6250
  816MOL0     H10104   5.807   1.201  11.385 -1.2396 -0.7270 -2.0008
  816MOL0     H10105   5.888   1.041  11.634  1.9807 -0.7314 -0.2857
  816MOL0     H10106   5.995   1.130  11.533 -0.5741  1.3047  1.0013
  816MOL0     H10107   5.868   1.241  11.746  1.2154 -0.8433  0.4617
  816MOL0     H10108   5.746   1.278  11.626  0.3099 -0.7625  1.9791
  816MOL0     H10109   5.929   1.397  11.494 -2.0213 -1.7489 -0.4760
  816MOL0     H10110   5.866   1.474  11.636  1.8953  0.5600 -1.0181
  816MOL0     H10111   6.160   1.288  11.487  0.8530  1.5157 -0.0578
  816MOL0     H10112   6.426   1.208  11.707 -1.6338 -0.6394 -0.1493
  816MOL0     H10113   6.436   1.291  11.550  0.9734 -1.8718  0.8304
  816MOL0     H10114   6.518   1.484  11.644 -3.8807  0.2234  0.1393
  816MOL0     H10115   6.497   1.430  11.817  0.6754  2.9762 -1.4164
  816MOL0     H10116   6.692   1.308  11.620 -1.0206  0.7512 -0.0739
  816MOL0     H10117   6.644   1.228  11.777  0.0067  0.4336  2.3693
  816MOL0     H10118   6.721   1.420  11.900 -1.2694 -1.2900 -1.3613
  816MOL0     H10119   6.750   1.521  11.764  1.1755  0.7226  0.8009
  816MOL0     H10120   6.914   1.624  11.854 -0.1963 -0.4507 -2.0888
  816MOL0     H10121   7.100   1.736  11.954 -2.9551 -1.3088  1.6197
  816MOL0     H10122   7.573   1.689  11.745  1.7830  0.2455 -1.8420
  816MOL0     H10123   7.796   1.810  11.730  1.6827  0.5380  1.8361
  816MOL0     H10124   7.938   1.876  12.100  1.8901  1.6341  2.3867
  816MOL0     H10125   8.094   1.779  12.082  1.0488 -0.0740 -0.1958
  816MOL0     H10126   8.206   1.962  11.973  2.2507  2.3090  2.5480
  816MOL0     H10127   8.058   2.054  11.980  3.4158 -0.1034 -2.8371
  816MOL0     H10128   8.209   1.915  12.216  1.4628  0.2395 -0.2091
  816MOL0     H10129   8.260   2.064  12.133 -0.7745 -1.3153 -2.5393
  816MOL0     H10130   8.143   2.091  12.360 -3.1939 -4.1234  1.7328
  816MOL0     H10131   7.989   2.060  12.286 -0.8958  1.5640 -1.3508
  816MOL0     H10132   8.039   2.239  12.114  2.1626 -1.1025 -1.4525
  816MOL0     H10133   8.191   2.273  12.214  0.4333 -1.3456  1.7819
  816MOL0     H10134   7.913   2.280  12.315 -1.6256  1.6860  4.4732
  816MOL0     H10135   8.047   2.325  12.411 -0.6192  4.7532  0.8670
  816MOL0     H10136   7.924   2.479  12.178 -0.0142 -0.7956  0.5820
  816MOL0     H10137   8.074   2.529  12.227  1.0425 -0.0511  1.5513
  816MOL0     H10138   7.889   2.652  12.336 -0.9628 -0.5878 -0.8100
  816MOL0     H10139   7.829   2.509  12.417  0.1709 -1.4158 -1.1481
  816MOL0     H10140   7.874   1.662  12.122 -0.5098  0.1600 -0.9490
  816MOL0     H10141   7.690   1.552  12.126 -1.7089 -2.4924 -2.0127
  816MOL0     H10142   7.336   1.378  11.851 -2.0111 -2.3466 -1.0849
  816MOL0     H10143   7.120   1.262  11.787 -3.3797 -0.3913 -2.2943
  816MOL0     H10144   5.367   1.197  10.974 -2.4055  0.6917  1.7112
  816MOL0     H10145   5.299   1.146  10.730 -0.3709  0.8125  1.6220
  816MOL0     H10146   5.185   0.793  10.439 -1.5868 -0.8776 -2.1903
  816MOL0     H10147   5.198   0.764  10.223 -1.3220  0.8345 -3.5686
  816MOL0     H10148   5.090   0.727  10.019  0.1114 -0.0133 -2.9236
  816MOL0     H10149   5.259   0.759  10.017  0.1238  0.4152  1.4169
  816MOL0     H10150   5.254   0.816   9.779 -0.8620  1.8958  0.8432
  816MOL0     H10151   5.079   0.852   9.789  2.3254  2.2279 -1.4245
  816MOL0     H10152   5.039   0.602   9.827  1.3995 -3.4351 -0.5661
  816MOL0     H10153   5.206   0.584   9.836 -0.2786 -0.0609  0.2470
  816MOL0     H10154   5.257   0.614   9.605  0.7657  0.1460  2.2744
  816MOL0     H10155   5.111   0.509   9.621 -2.6460  1.1542 -2.7922
  816MOL0     H10156   4.953   0.825   9.397 -0.3767  1.1488  1.9582
  816MOL0     H10157   5.037   1.149  10.121  0.7891  0.6973  0.5016
  816MOL0     H10158   5.094   1.279  10.448  0.6778 -3.2648  0.6222
  816MOL0     H10159   5.001   1.313  10.304 -0.3286 -1.6486  0.3748
  816MOL0     H10160   4.931   1.221  10.450 -0.9216 -0.2072 -0.1219
  817MOL0     O10161   1.500   3.917   2.774  0.3424 -0.7270  0.2202
  817MOL0     C10162   1.449   4.024   2.804 -1.0180  0.8453  0.5874
  817MOL0     O10163   1.315   4.033   2.827  0.2936  0.5452 -0.3326
  817MOL0     C10164   1.234   3.920   2.847 -0.1587 -0.2804 -0.9451
  817MOL0     C10165   1.262   3.793   2.893  0.4362 -0.0017  0.2825
  817MOL0     C10166   1.166   3.694   2.898 -0.7253 -0.3366 -0.2829
  817MOL0     C10167   1.037   3.710   2.849  0.0570 -1.4157 -0.9070
  817MOL0     O10168   0.967   3.597   2.816 -0.6001  0.4722  0.1123
  817MOL0     C10169   0.848   3.615   2.734 -0.2930 -0.2555  0.6103
  817MOL0     C10170   0.724   3.639   2.816 -0.4741 -0.1995  0.7006
  817MOL0     C10171   0.717   3.550   2.942 -0.2186 -0.1358 -0.0688
  817MOL0     C10172   0.576   3.552   3.002 -0.7606 -0.0398  0.0773
  817MOL0     C10173   0.579   3.484   3.132 -0.6242  0.5278  0.7196
  817MOL0     C10174   0.451   3.516   3.207  0.2527 -0.4600 -0.7295
  817MOL0     C10175   0.450   3.463   3.357 -0.5978  0.7807  0.2849
  817MOL0     C10176   0.311   3.488   3.413 -0.1861 -0.1534  0.5044
  817MOL0     N10177   0.305   3.480   3.557 -1.0301 -0.1764  0.1183
  817MOL0     C10178   0.338   3.361   3.626  0.2764  0.2135  0.2933
  817MOL0     C10179   0.314   3.392   3.755 -0.2732 -0.4041 -1.0930
  817MOL0     C10180   0.335   3.302   3.869 -0.3108 -0.0823 -0.4334
  817MOL0     C10181   0.205   3.245   3.902 -0.7552  2.1258 -0.7833
  817MOL0     C10182   0.212   3.138   4.026 -0.1985  0.0472 -0.8166
  817MOL0     C10183   0.299   3.166   4.153  0.2863 -0.8914 -0.0261
  817MOL0     O10184   0.296   3.077   4.263  1.2051  0.0757  0.7441
  817MOL0     C10185   0.295   2.941   4.235 -0.3194 -0.1638 -0.9594
  817MOL0     C10186   0.211   2.863   4.319  0.1801  0.6183 -0.9931
  817MOL0     C10187   0.218   2.719   4.301  0.3418 -0.1796  0.4551
  817MOL0     C10188   0.330   2.660   4.232  0.4618 -0.4471  0.0202
  817MOL0     C10189   0.357   2.515   4.242  0.7301  0.4864  0.0356
  817MOL0     O10190   0.447   2.466   4.162 -0.3206  0.0239  0.1093
  817MOL0     C10191   0.464   2.331   4.169  0.2891  0.3783 -0.7636
  817MOL0     C10192   0.402   2.261   4.076 -0.1160 -0.4679  0.6731
  817MOL0     C10193   0.416   2.121   4.075 -0.1861  0.4893  0.8742
  817MOL0     C10194   0.499   2.051   4.172 -0.2219 -0.3535  0.5297
  817MOL0     O10195   0.503   1.914   4.164  0.2267  0.6459 -0.1009
  817MOL0     C10196   0.451   1.843   4.275 -0.2475  0.2812 -0.8297
  817MOL0     C10197   0.306   1.826   4.239 -0.3749 -0.0648  0.2184
  817MOL0     C10198   0.236   1.736   4.338 -0.4577  0.3849 -0.9229
  817MOL0     C10199   0.093   1.701   4.294 -0.1622 -0.3584  0.0802
  817MOL0     C10200   0.009   1.671   4.425 -0.0310  0.0251 -0.4720
  817MOL0     C10201  -0.128   1.607   4.407 -1.0172 -0.1836 -0.5808
  817MOL0     C10202  -0.241   1.708   4.357 -0.5782 -0.6021 -0.4366
  817MOL0     C10203  -0.372   1.633   4.370  0.0939 -0.5946 -0.6144
  817MOL0    Cl10204  -0.500   1.748   4.311  0.0516 -0.2982  0.0021
  817MOL0     C10205   0.563   2.128   4.260  0.3522  0.0910  0.1679
  817MOL0     C10206   0.538   2.268   4.267  0.2156 -0.2483 -0.2389
  817MOL0     O10207   0.298   2.456   4.335 -0.1373  0.0743 -0.1748
  817MOL0     C10208   0.408   2.741   4.152 -0.4587  0.4756 -0.6181
  817MOL0     C10209   0.396   2.879   4.156  0.1451 -0.5523  0.1729
  817MOL0     N10210   0.281   3.526   3.764  0.2158  0.7244 -1.4353
  817MOL0     N10211   0.274   3.583   3.650 -0.3947  0.3447 -0.5505
  817MOL0     C10212   1.003   3.844   2.813  0.3929  0.5475 -0.5150
  817MOL0     C10213   1.094   3.948   2.817  0.2275 -0.2449 -0.2413
  817MOL0     C10214   1.526   4.149   2.796  0.4371 -0.2135 -0.2692
  817MOL0     C10215   1.546   4.188   2.665 -0.1662 -0.6096 -0.1974
  817MOL0     C10216   1.608   4.310   2.645  0.0705 -0.5023 -0.7379
  817MOL0     C10217   1.622   4.406   2.744  0.4471  0.4765 -0.4193
  817MOL0     O10218   1.692   4.524   2.727  0.3228 -0.1217  0.7961
  817MOL0     C10219   1.745   4.543   2.592  0.3652 -0.2684 -0.4974
  817MOL0     C10220   1.830   4.670   2.580  1.7105  0.6984 -0.8360
  817MOL0     C10221   1.976   4.664   2.632  0.9946 -0.4124  0.7359
  817MOL0     C10222   2.076   4.568   2.552 -0.7097 -0.4047  0.9330
  817MOL0     C10223   2.206   4.650   2.546  1.3029 -0.1148  0.4278
  817MOL0     C10224   2.312   4.705   2.563  0.0627  0.6819  0.0100
  817MOL0     C10225   1.583   4.367   2.874  0.9595  0.5524 -0.1427
  817MOL0     C10226   1.540   4.239   2.902  0.1722 -0.1758  0.1782
  817MOL0     C10227   1.513   4.205   3.048  0.0851 -0.1312 -0.1245
  817MOL0     H10228   1.359   3.757   2.926 -0.8472 -2.2085  1.9021
  817MOL0     H10229   1.197   3.594   2.926  2.4895 -1.3152 -5.7277
  817MOL0     H10230   0.871   3.687   2.655  2.8857 -3.1889 -1.3762
  817MOL0     H10231   0.821   3.523   2.682  1.7917 -1.7747  2.0591
  817MOL0     H10232   0.632   3.616   2.761  0.0018 -0.7594  0.1235
  817MOL0     H10233   0.705   3.740   2.852  0.0026  0.9583 -2.1198
  817MOL0     H10234   0.789   3.590   3.013  3.0615 -1.5034 -2.3613
  817MOL0     H10235   0.741   3.447   2.915  0.8064 -0.2212  1.1093
  817MOL0     H10236   0.542   3.655   3.017 -0.2490  0.6050 -2.6166
  817MOL0     H10237   0.497   3.503   2.943 -3.0956  1.9049  1.4248
  817MOL0     H10238   0.581   3.377   3.114 -3.9258  0.4527  0.1641
  817MOL0     H10239   0.673   3.521   3.173  0.7202 -0.0235 -1.7169
  817MOL0     H10240   0.424   3.620   3.223 -1.0272 -0.9644  0.7144
  817MOL0     H10241   0.368   3.469   3.153 -0.3569 -4.0840  2.8580
  817MOL0     H10242   0.529   3.518   3.409  2.8274 -1.4144 -2.2057
  817MOL0     H10243   0.470   3.357   3.344 -3.8849 -0.1210  1.5248
  817MOL0     H10244   0.270   3.581   3.373  1.3150 -0.1143 -1.0364
  817MOL0     H10245   0.235   3.419   3.376 -2.2686  1.3816  1.6978
  817MOL0     H10246   0.378   3.270   3.584  1.5674  0.5517  0.7640
  817MOL0     H10247   0.409   3.226   3.841  3.7664  2.3565  2.5402
  817MOL0     H10248   0.385   3.357   3.949 -0.4082 -0.6596  0.0320
  817MOL0     H10249   0.137   3.326   3.928 -1.5274  0.7377  1.9508
  817MOL0     H10250   0.168   3.184   3.820  1.9480 -1.7232  0.5433
  817MOL0     H10251   0.259   3.047   3.986  0.0978 -0.2336  0.1418
  817MOL0     H10252   0.109   3.114   4.052  0.9760 -3.3885  1.4166
  817MOL0     H10253   0.274   3.263   4.196  4.0391 -0.0597  0.5873
  817MOL0     H10254   0.401   3.174   4.115 -0.4075 -1.0953 -2.0992
  817MOL0     H10255   0.144   2.906   4.393  0.7509 -0.5354  0.2393
  817MOL0     H10256   0.151   2.641   4.334  2.2229 -2.4444 -0.7397
  817MOL0     H10257   0.352   2.311   3.994  0.0878 -2.7591 -0.9649
  817MOL0     H10258   0.378   2.064   3.991  0.2471 -3.2231  2.9663
  817MOL0     H10259   0.475   1.737   4.286 -0.7201  0.3669  1.4652
  817MOL0     H10260   0.462   1.886   4.375  3.1574 -1.6416 -0.2160
  817MOL0     H10261   0.255   1.923   4.239  1.3834  0.9175  1.1778
  817MOL0     H10262   0.301   1.785   4.138 -0.1791  2.7751 -1.0666
  817MOL0     H10263   0.284   1.638   4.346 -1.8670 -0.4207 -1.8889
  817MOL0     H10264   0.240   1.795   4.429 -0.8402  2.9012 -2.4436
  817MOL0     H10265   0.090   1.620   4.221 -0.7382 -0.2066 -0.0662
  817MOL0     H10266   0.059   1.790   4.240  0.9418  0.5208  0.7625
  817MOL0     H10267  -0.012   1.766   4.473  1.0925  1.3229 -2.4212
  817MOL0     H10268   0.060   1.613   4.503  0.8302  1.6165  0.2031
  817MOL0     H10269  -0.132   1.521   4.340  0.7597  0.2848 -1.3556
  817MOL0     H10270  -0.164   1.575   4.505 -0.2830 -0.2353 -0.3162
  817MOL0     H10271  -0.223   1.738   4.254 -0.0494  0.2023 -0.1190
  817MOL0     H10272  -0.230   1.787   4.432 -0.6349 -0.2708 -0.7762
  817MOL0     H10273  -0.368   1.539   4.314 -4.5958 -1.2964 -0.1501
  817MOL0     H10274  -0.373   1.620   4.479  0.2554 -1.1755 -0.6793
  817MOL0     H10275   0.629   2.092   4.338 -0.8384 -1.2779  0.5978
  817MOL0     H10276   0.580   2.321   4.352 -0.7204 -1.6059  1.1143
  817MOL0     H10277   0.491   2.700   4.096 -1.4141 -1.5749 -0.6284
  817MOL0     H10278   0.458   2.949   4.102  0.2186 -0.4837  0.3430
  817MOL0     H10279   0.901   3.861   2.779 -0.3484 -2.7634 -0.2612
  817MOL0     H10280   1.070   4.049   2.786  1.4521  1.0486  2.6317
  817MOL0     H10281   1.514   4.126   2.582  1.2949 -0.4445 -0.9113
  817MOL0     H10282   1.608   4.347   2.543  2.7365  2.7426  0.2781
  817MOL0     H10283   1.657   4.557   2.528 -0.6485  1.7252  1.1683
  817MOL0     H10284   1.811   4.461   2.563 -0.0329 -1.4088  1.6014
  817MOL0     H10285   1.783   4.754   2.632  1.4832  2.4680 -3.6898
  817MOL0     H10286   1.840   4.695   2.474  0.2783  1.4483 -0.8200
  817MOL0     H10287   1.968   4.626   2.735 -2.1945 -1.7973  0.1104
  817MOL0     H10288   2.019   4.764   2.625 -1.9415  0.9418  0.6607
  817MOL0     H10289   2.103   4.476   2.606  0.6023 -0.7865 -0.2912
  817MOL0     H10290   2.040   4.535   2.455  2.1421 -1.8899  0.2562
  817MOL0     H10291   2.408   4.752   2.573  0.2151  0.4387 -0.3339
  817MOL0     H10292   1.578   4.429   2.962 -2.3930 -0.4456  0.5051
  817MOL0     H10293   1.496   4.298   3.102 -0.7896  0.3559 -1.1840
  817MOL0     H10294   1.416   4.155   3.058  0.4800 -1.6601 -2.8472
  817MOL0     H10295   1.590   4.137   3.087 -1.4013 -1.3554  0.8128
  818MOL0     O10296   3.591   4.331   7.953 -0.4988  0.1556 -0.3174
  818MOL0     C10297   3.591   4.392   7.845 -0.6124 -0.5691  0.6678
  818MOL0     O10298   3.679   4.491   7.809  0.4062  0.0212  0.4239
  818MOL0     C10299   3.776   4.532   7.888 -0.9415  0.3968 -0.6237
  818MOL0     C10300   3.855   4.461   7.981  0.3239  0.0704  0.0070
  818MOL0     C10301   3.948   4.526   8.058 -0.3648  0.1487  0.2547
  818MOL0     C10302   3.979   4.657   8.029  0.4437 -0.2919  0.2856
  818MOL0     O10303   4.082   4.700   8.093  0.4659 -1.4289  0.1834
  818MOL0     C10304   4.113   4.843   8.097  0.5464 -0.2429  0.3833
  818MOL0     C10305   4.033   4.915   8.189 -0.2626  0.5869 -0.1291
  818MOL0     C10306   4.057   5.060   8.184 -0.2054 -0.3090 -0.1163
  818MOL0     C10307   4.200   5.106   8.229  1.0176  0.2076 -0.7634
  818MOL0     C10308   4.204   5.191   8.353  0.3661 -0.3482 -0.1221
  818MOL0     C10309   4.131   5.134   8.475  0.4033  0.0113  0.1519
  818MOL0     C10310   4.177   5.206   8.611  0.2340  0.7310 -0.0365
  818MOL0     C10311   4.096   5.153   8.717  0.3266  1.1518 -0.4715
  818MOL0     N10312   4.134   5.215   8.853 -0.3848  0.1137 -0.0685
  818MOL0     C10313   4.176   5.134   8.952 -0.3445  0.0332 -0.1228
  818MOL0     C10314   4.209   5.221   9.047  0.1402 -0.2135 -0.2846
  818MOL0     C10315   4.280   5.167   9.176 -0.8896 -0.2691 -0.4196
  818MOL0     C10316   4.442   5.198   9.178  0.7291 -0.5189 -0.4767
  818MOL0     C10317   4.502   5.106   9.282 -0.5534  0.0766 -0.1498
  818MOL0     C10318   4.651   5.099   9.266 -0.5474  0.3796 -0.5816
  818MOL0     O10319   4.718   5.023   9.365  0.4741  0.3083  0.0586
  818MOL0     C10320   4.726   5.065   9.494  0.3724  0.1346  0.3159
  818MOL0     C10321   4.759   4.964   9.588 -0.5351 -0.2443  0.9374
  818MOL0     C10322   4.773   4.986   9.722 -0.2954 -0.4271 -1.1056
  818MOL0     C10323   4.741   5.117   9.772 -0.7368 -0.0560 -0.3075
  818MOL0     C10324   4.768   5.155   9.913 -0.0626 -0.2281  0.3674
  818MOL0     O10325   4.791   5.048   9.994  0.2168  0.8328  0.3469
  818MOL0     C10326   4.809   5.067  10.130 -0.2192  1.2288 -1.4730
  818MOL0     C10327   4.889   4.976  10.201 -0.0759 -1.2016  0.1305
  818MOL0     C10328   4.899   4.972  10.342  0.1256 -0.0895  0.7230
  818MOL0     C10329   4.828   5.059  10.427 -0.7701 -0.2459  1.2239
  818MOL0     O10330   4.847   5.066  10.560  0.3997  0.4508  0.4029
  818MOL0     C10331   4.970   5.005  10.615  0.2175  0.0040 -0.1502
  818MOL0     C10332   4.986   5.054  10.759 -0.6856 -0.5074 -0.1188
  818MOL0     C10333   4.885   4.978  10.848 -0.7546  0.1632 -0.1224
  818MOL0     C10334   4.898   5.042  10.988  0.6472  0.3700 -0.5951
  818MOL0     C10335   4.848   4.957  11.109 -0.1742  0.1023  0.1817
  818MOL0     C10336   4.706   4.926  11.112 -0.5696  0.1224  0.1712
  818MOL0     C10337   4.618   5.059  11.109 -0.6059  0.6021 -0.8700
  818MOL0     C10338   4.568   5.116  10.974 -0.5610  0.9134  0.3418
  818MOL0    Cl10339   4.470   5.260  11.020  0.5616  0.0424  0.0729
  818MOL0     C10340   4.747   5.151  10.358  0.8156 -0.8233  0.4267
  818MOL0     C10341   4.742   5.154  10.219  0.3432  1.1977 -0.7731
  818MOL0     O10342   4.784   5.276   9.942  0.4814 -0.5062 -0.5247
  818MOL0     C10343   4.702   5.222   9.682 -1.2805  1.1486  0.0028
  818MOL0     C10344   4.696   5.198   9.537 -1.3570  0.3190 -1.0417
  818MOL0     N10345   4.189   5.353   9.014  0.5871  0.5943  0.7269
  818MOL0     N10346   4.148   5.346   8.886 -0.4041  0.1783 -0.1713
  818MOL0     C10347   3.909   4.727   7.933  0.5565 -0.2932 -0.6106
  818MOL0     C10348   3.814   4.661   7.859  0.8256 -0.5739 -0.3946
  818MOL0     C10349   3.486   4.372   7.749  1.1880  0.0028 -0.1811
  818MOL0     C10350   3.455   4.463   7.654  0.3510  0.1085  0.6631
  818MOL0     C10351   3.367   4.445   7.553  0.7356 -0.4175 -0.6479
  818MOL0     C10352   3.289   4.330   7.543 -0.0699 -1.1315 -1.8182
  818MOL0     O10353   3.198   4.304   7.451  0.3448  0.2150 -0.2382
  818MOL0     C10354   3.172   4.416   7.364  0.3070  0.7434  0.0755
  818MOL0     C10355   3.056   4.403   7.277  0.4074 -0.8521  1.0744
  818MOL0     C10356   3.036   4.297   7.170  0.3704  0.4362 -0.0363
  818MOL0     C10357   2.888   4.272   7.123  0.0818 -0.3984 -0.5275
  818MOL0     C10358   2.891   4.234   6.977 -0.1424  0.9649 -1.5068
  818MOL0     C10359   2.871   4.188   6.865  0.2650 -1.0287 -0.3522
  818MOL0     C10360   3.306   4.244   7.660 -0.1383 -0.9814  0.9172
  818MOL0     C10361   3.400   4.262   7.758 -0.9465  0.1445 -0.7156
  818MOL0     C10362   3.414   4.148   7.863 -0.0390  0.1147  0.5457
  818MOL0     H10363   3.829   4.359   8.005 -0.0270  0.3153  0.6867
  818MOL0     H10364   4.017   4.485   8.131  1.8709 -0.4003 -2.0197
  818MOL0     H10365   4.209   4.834   8.148 -0.3762 -0.8755  2.0849
  818MOL0     H10366   4.123   4.902   8.006  0.6550  1.6326  1.5480
  818MOL0     H10367   4.052   4.875   8.289  0.9298  1.1448 -0.1121
  818MOL0     H10368   3.927   4.901   8.166 -0.5664 -0.3454  1.6596
  818MOL0     H10369   3.987   5.105   8.256 -0.8329 -1.0349 -0.2572
  818MOL0     H10370   4.042   5.105   8.086 -3.6397 -0.2364  0.3025
  818MOL0     H10371   4.258   5.014   8.245 -1.2165 -1.1677  0.0481
  818MOL0     H10372   4.242   5.172   8.154  2.7511  0.4639  0.3732
  818MOL0     H10373   4.300   5.206   8.402 -1.2680  0.3755  3.1632
  818MOL0     H10374   4.163   5.289   8.327  0.1897 -0.6699 -1.0986
  818MOL0     H10375   4.025   5.161   8.468  0.5431  0.6000  0.2074
  818MOL0     H10376   4.146   5.026   8.484  1.0594  0.1756  1.1298
  818MOL0     H10377   4.157   5.313   8.603  0.9769  1.0478  1.9303
  818MOL0     H10378   4.284   5.185   8.622  0.1898  1.2124  1.4269
  818MOL0     H10379   3.995   5.188   8.693 -0.8381 -0.6425  1.5139
  818MOL0     H10380   4.110   5.044   8.714  3.9411  1.4916 -1.6827
  818MOL0     H10381   4.184   5.026   8.956 -0.5948 -0.0827 -2.0446
  818MOL0     H10382   4.249   5.218   9.268 -1.8880 -2.6757  0.6601
  818MOL0     H10383   4.266   5.059   9.179 -0.3268 -0.3918 -1.6634
  818MOL0     H10384   4.496   5.175   9.085  3.6941 -1.5893  1.3827
  818MOL0     H10385   4.471   5.302   9.198 -3.1795  0.8006 -0.6073
  818MOL0     H10386   4.471   5.001   9.275  0.3204 -0.1948 -0.1096
  818MOL0     H10387   4.469   5.140   9.381  0.9962  3.2445 -0.5899
  818MOL0     H10388   4.701   5.196   9.259  1.4043 -0.6606 -2.3613
  818MOL0     H10389   4.660   5.037   9.177 -0.0679  0.7521 -0.7954
  818MOL0     H10390   4.781   4.861   9.559 -1.0334 -0.1026  0.0100
  818MOL0     H10391   4.805   4.907   9.790 -1.3148  1.8998  2.3740
  818MOL0     H10392   4.928   4.892  10.145 -0.0391 -1.9746  1.2721
  818MOL0     H10393   4.970   4.896  10.373 -0.0014 -0.0226  1.1876
  818MOL0     H10394   4.979   4.897  10.602  1.2035 -0.6254  4.2814
  818MOL0     H10395   5.054   5.053  10.563 -0.1678  1.1657  0.2820
  818MOL0     H10396   5.085   5.035  10.800  0.5849  2.0241 -1.7496
  818MOL0     H10397   4.965   5.160  10.778 -2.1806 -0.8391  0.2066
  818MOL0     H10398   4.781   4.990  10.817 -0.2511  0.1486 -1.9116
  818MOL0     H10399   4.921   4.875  10.846  0.4941  0.4335  2.6765
  818MOL0     H10400   4.849   5.138  11.007  2.5981  1.0366  1.4114
  818MOL0     H10401   5.006   5.049  11.004  0.2557  3.4663  1.7494
  818MOL0     H10402   4.875   5.009  11.201 -0.7545  1.5912 -0.4636
  818MOL0     H10403   4.902   4.862  11.099 -1.4902 -0.5173 -1.6026
  818MOL0     H10404   4.683   4.859  11.029  1.6253 -0.8777  0.3144
  818MOL0     H10405   4.690   4.881  11.211  1.5181 -1.0923  0.0092
  818MOL0     H10406   4.668   5.131  11.175  3.1255 -2.0876 -0.4260
  818MOL0     H10407   4.528   5.032  11.165  1.1901  0.0641  1.9937
  818MOL0     H10408   4.654   5.155  10.920  0.0834 -2.0260 -0.9660
  818MOL0     H10409   4.516   5.043  10.912 -3.6148  4.6513 -1.8965
  818MOL0     H10410   4.693   5.228  10.412  0.3077 -0.0067 -1.1950
  818MOL0     H10411   4.682   5.235  10.177 -0.1380  1.1575 -0.1696
  818MOL0     H10412   4.674   5.321   9.717  0.5927  0.9512  2.3719
  818MOL0     H10413   4.669   5.277   9.467 -3.4435  1.0320  0.4598
  818MOL0     H10414   3.908   4.833   7.913 -1.3805  0.2989  2.0919
  818MOL0     H10415   3.763   4.714   7.779 -0.7305 -1.3149  0.0522
  818MOL0     H10416   3.505   4.559   7.653 -0.1565  0.3740 -0.5349
  818MOL0     H10417   3.366   4.522   7.477 -1.5993  0.7938  0.5219
  818MOL0     H10418   3.262   4.438   7.305 -1.7024  1.7161 -2.8309
  818MOL0     H10419   3.143   4.499   7.429 -0.4696  1.4986 -1.2147
  818MOL0     H10420   3.027   4.504   7.244  1.7629 -0.7708  0.0675
  818MOL0     H10421   2.981   4.382   7.354 -1.2763  2.2453  0.4794
  818MOL0     H10422   3.073   4.205   7.216 -0.4265 -0.2547 -0.7413
  818MOL0     H10423   3.099   4.322   7.084  0.3178  1.4292  0.1996
  818MOL0     H10424   2.847   4.183   7.172 -0.4485  0.1791  0.0967
  818MOL0     H10425   2.816   4.354   7.124  1.0434  0.4667 -0.1895
  818MOL0     H10426   2.839   4.159   6.767  1.1887  0.4478 -1.1364
  818MOL0     H10427   3.233   4.164   7.664 -1.6221 -0.0419 -3.0484
  818MOL0     H10428   3.349   4.065   7.835  1.4602 -1.4568  1.5592
  818MOL0     H10429   3.510   4.099   7.845 -0.1904  0.2214 -0.6342
  818MOL0     H10430   3.385   4.175   7.966 -1.2213 -0.0196  0.2677
  819MOL0     O10431   7.458   3.489   2.214  0.4430  0.4811 -0.1484
  819MOL0     C10432   7.442   3.582   2.292  0.2917 -1.3986  0.7010
  819MOL0     O10433   7.427   3.564   2.431  0.7073 -0.4952  0.4577
  819MOL0     C10434   7.471   3.449   2.486 -0.0415  0.4225 -0.7786
  819MOL0     C10435   7.599   3.398   2.460  0.2214  0.1802 -0.1476
  819MOL0     C10436   7.632   3.282   2.540 -0.0019 -1.6151 -0.8960
  819MOL0     C10437   7.545   3.214   2.628 -0.6016 -1.0742 -0.1220
  819MOL0     O10438   7.568   3.088   2.673  0.7365 -0.5867 -0.7445
  819MOL0     C10439   7.681   3.015   2.623  0.3521  0.3229  0.1131
  819MOL0     C10440   7.697   2.886   2.699  0.0369  0.7535  0.2971
  819MOL0     C10441   7.704   2.882   2.853  0.3481  0.0548 -0.0188
  819MOL0     C10442   7.838   2.954   2.890 -0.3134  0.5235 -0.2625
  819MOL0     C10443   7.908   2.874   2.998  0.2968 -0.0292 -0.3856
  819MOL0     C10444   8.018   2.968   3.051  0.3292 -0.1676  0.3598
  819MOL0     C10445   8.124   2.906   3.137  0.2665  0.5148  0.4718
  819MOL0     C10446   8.068   2.852   3.273  0.2858 -0.1379  0.2436
  819MOL0     N10447   8.172   2.779   3.348 -0.8284  0.6291 -0.2829
  819MOL0     C10448   8.243   2.668   3.306  0.4655  0.3901 -0.1730
  819MOL0     C10449   8.345   2.649   3.389 -0.5290  0.5251 -0.4834
  819MOL0     C10450   8.424   2.524   3.398 -0.9883  0.5286 -0.3558
  819MOL0     C10451   8.494   2.510   3.527  1.1885 -0.2974  0.2749
  819MOL0     C10452   8.567   2.368   3.542  0.3863  0.5929  0.3427
  819MOL0     C10453   8.653   2.326   3.664  0.3343 -0.4482  0.3020
  819MOL0     O10454   8.600   2.282   3.781 -0.0934 -0.2778  0.2576
  819MOL0     C10455   8.674   2.187   3.850  0.1572  0.6459  0.1964
  819MOL0     C10456   8.744   2.078   3.784  0.4298 -0.2058 -0.4932
  819MOL0     C10457   8.833   1.996   3.856  0.5580  0.1923  0.4298
  819MOL0     C10458   8.841   1.997   3.996  0.2017  0.0464 -0.1150
  819MOL0     C10459   8.919   1.895   4.076  0.6043  0.0745 -0.2167
  819MOL0     O10460   9.002   1.821   4.005  0.3988  0.0365 -0.8133
  819MOL0     C10461   9.079   1.710   4.056  0.5717 -0.6704  0.1604
  819MOL0     C10462   9.170   1.673   3.962 -0.1336 -0.3622 -0.2923
  819MOL0     C10463   9.257   1.564   3.978 -0.9365 -0.0639 -0.4635
  819MOL0     C10464   9.235   1.475   4.094  1.0023  0.0535  0.5019
  819MOL0     O10465   9.321   1.364   4.113  0.2436 -0.7580 -0.2639
  819MOL0     C10466   9.294   1.279   4.228 -0.6543 -0.0913  0.2412
  819MOL0     C10467   9.197   1.170   4.190  0.3502  0.5646 -0.2367
  819MOL0     C10468   9.175   1.060   4.302 -0.3710 -0.1752  0.1482
  819MOL0     C10469   9.048   0.989   4.292  0.4839  0.5957 -1.0315
  819MOL0     C10470   9.013   0.900   4.173  0.2813 -0.5823  0.1144
  819MOL0     C10471   8.858   0.873   4.178 -0.2321 -0.5850 -0.0566
  819MOL0     C10472   8.829   0.796   4.051  0.0992 -0.6604 -0.8934
  819MOL0     C10473   8.674   0.794   4.030 -0.0088 -0.9216 -0.0014
  819MOL0    Cl10474   8.614   0.671   4.144 -0.3284  0.3872  0.0250
  819MOL0     C10475   9.136   1.516   4.184  0.2671  0.7571  0.2010
  819MOL0     C10476   9.060   1.632   4.169  0.1622  0.0126 -1.0587
  819MOL0     O10477   8.904   1.893   4.199 -1.0338 -0.6856  0.2743
  819MOL0     C10478   8.761   2.095   4.063 -0.2174 -0.1723  0.8149
  819MOL0     C10479   8.682   2.186   3.991 -0.1416 -0.3099 -0.1723
  819MOL0     N10480   8.348   2.751   3.484  0.9897  0.8431  0.2593
  819MOL0     N10481   8.253   2.830   3.443 -0.3568  0.9045  0.9473
  819MOL0     C10482   7.424   3.279   2.653 -0.0175  0.4641  0.7703
  819MOL0     C10483   7.387   3.390   2.579 -0.6016  0.4622  0.3124
  819MOL0     C10484   7.431   3.715   2.231 -0.2627  0.6048 -0.1875
  819MOL0     C10485   7.465   3.731   2.098  0.3516  0.0999  0.8344
  819MOL0     C10486   7.486   3.856   2.047 -0.2140 -1.3911  0.6259
  819MOL0     C10487   7.495   3.968   2.116 -0.0878 -0.0044  0.2934
  819MOL0     O10488   7.521   4.077   2.034 -0.3382 -0.4812 -0.5879
  819MOL0     C10489   7.557   4.200   2.101  0.2837  0.0367 -0.2715
  819MOL0     C10490   7.698   4.177   2.154 -0.0165 -1.0334 -0.3948
  819MOL0     C10491   7.802   4.142   2.048 -0.2315 -0.4243  0.1679
  819MOL0     C10492   7.947   4.142   2.096 -0.8210 -0.3184  1.2978
  819MOL0     C10493   7.988   4.274   2.152 -0.2821  0.7414  0.7319
  819MOL0     C10494   7.992   4.391   2.188 -0.5160  0.4658 -0.4110
  819MOL0     C10495   7.442   3.958   2.248 -0.1845 -0.4784  0.0914
  819MOL0     C10496   7.422   3.832   2.316  0.0147 -0.8121  0.4282
  819MOL0     C10497   7.387   3.845   2.464  0.4083  0.0648  0.6598
  819MOL0     H10498   7.655   3.432   2.373 -1.8541  0.9654 -1.2577
  819MOL0     H10499   7.731   3.244   2.517  0.2256 -1.2737 -0.4982
  819MOL0     H10500   7.661   2.985   2.520  1.0681 -0.2884  0.1379
  819MOL0     H10501   7.772   3.076   2.623  0.1999  0.5628 -0.5915
  819MOL0     H10502   7.781   2.830   2.659  1.3669  2.0593  1.1462
  819MOL0     H10503   7.613   2.828   2.660 -0.1509  2.3870 -1.8881
  819MOL0     H10504   7.708   2.778   2.889  1.8105 -0.7778 -2.3946
  819MOL0     H10505   7.621   2.929   2.906 -0.3365 -0.5193 -0.5642
  819MOL0     H10506   7.908   2.965   2.807 -1.1826 -1.8875 -1.4119
  819MOL0     H10507   7.814   3.053   2.930 -0.9156  0.8358 -1.3611
  819MOL0     H10508   7.838   2.845   3.076  0.4848  2.2981  0.7340
  819MOL0     H10509   7.954   2.781   2.962  1.6792  1.2509 -2.1447
  819MOL0     H10510   8.065   3.018   2.966 -0.9844  0.3546 -0.0951
  819MOL0     H10511   7.971   3.043   3.116  2.2324  1.3513  0.0569
  819MOL0     H10512   8.198   2.986   3.149  0.5687  0.3971 -0.4636
  819MOL0     H10513   8.164   2.821   3.079 -0.4299  0.2500  0.3678
  819MOL0     H10514   8.035   2.930   3.342 -2.4201 -1.5340  0.6551
  819MOL0     H10515   7.986   2.782   3.252  0.9953  0.1443 -4.4340
  819MOL0     H10516   8.219   2.589   3.235  0.5397  0.9579 -0.8463
  819MOL0     H10517   8.356   2.440   3.381 -1.1258  0.5506  0.0833
  819MOL0     H10518   8.492   2.503   3.314  0.6068 -2.3758  1.4580
  819MOL0     H10519   8.565   2.593   3.535  1.8979 -0.5518 -2.3883
  819MOL0     H10520   8.418   2.507   3.606 -1.1277 -2.0616 -1.8423
  819MOL0     H10521   8.629   2.356   3.453 -0.6084 -1.6970 -0.1139
  819MOL0     H10522   8.489   2.291   3.540 -1.2331  2.0925  1.7332
  819MOL0     H10523   8.715   2.415   3.679 -1.2186  0.8423 -0.5754
  819MOL0     H10524   8.715   2.250   3.617  0.5292 -0.5183  0.6702
  819MOL0     H10525   8.740   2.062   3.677  2.9570 -1.0166 -0.5450
  819MOL0     H10526   8.893   1.930   3.796  1.5557  0.6446  0.9028
  819MOL0     H10527   9.187   1.739   3.878 -2.6217 -1.5605 -1.8669
  819MOL0     H10528   9.329   1.560   3.898  0.6446  0.2452  0.9014
  819MOL0     H10529   9.384   1.220   4.245 -1.3617 -2.1532 -2.3728
  819MOL0     H10530   9.279   1.350   4.310 -0.2952  1.1382 -0.7238
  819MOL0     H10531   9.109   1.225   4.155  1.6655  1.7111 -1.9210
  819MOL0     H10532   9.242   1.126   4.101  0.3903  3.6205 -1.8548
  819MOL0     H10533   9.267   1.002   4.295  0.8226  1.7743 -4.1330
  819MOL0     H10534   9.183   1.117   4.395 -0.9066 -0.6436  0.4812
  819MOL0     H10535   8.969   1.064   4.301  0.6703  0.7195 -0.3255
  819MOL0     H10536   9.032   0.931   4.384 -2.6040  1.2512 -1.0513
  819MOL0     H10537   9.078   0.813   4.176  3.4351  1.6030  0.2263
  819MOL0     H10538   9.038   0.958   4.083  1.7892  0.8151  1.3869
  819MOL0     H10539   8.824   0.807   4.258 -1.9271 -0.1346 -0.3806
  819MOL0     H10540   8.800   0.965   4.176  1.1611  0.4910  3.0475
  819MOL0     H10541   8.869   0.697   4.076 -0.8509 -0.4218  2.0435
  819MOL0     H10542   8.865   0.841   3.958 -1.6184 -0.4226 -1.4714
  819MOL0     H10543   8.624   0.887   4.057 -0.5425 -1.5828  1.4116
  819MOL0     H10544   8.652   0.758   3.929 -0.8522  3.5208 -1.6254
  819MOL0     H10545   9.107   1.457   4.270 -1.9003 -1.9484 -2.1453
  819MOL0     H10546   8.976   1.648   4.236  0.0159 -1.6727 -0.7906
  819MOL0     H10547   8.771   2.092   4.171  1.4534 -2.0556  0.6771
  819MOL0     H10548   8.614   2.258   4.035  0.5517  1.1407 -1.3711
  819MOL0     H10549   7.352   3.231   2.718  2.1495  0.1689  3.1040
  819MOL0     H10550   7.280   3.411   2.580 -1.2749 -2.0586 -2.9650
  819MOL0     H10551   7.483   3.650   2.028  0.5546  0.9215 -0.0744
  819MOL0     H10552   7.507   3.874   1.942 -1.6935 -0.3846  0.4853
  819MOL0     H10553   7.489   4.233   2.180  1.8530  0.2603  1.0246
  819MOL0     H10554   7.535   4.274   2.023 -1.7882  0.2790  0.4684
  819MOL0     H10555   7.691   4.091   2.221 -3.3850 -0.7793 -0.2844
  819MOL0     H10556   7.724   4.267   2.211 -2.6072  1.3323 -2.6575
  819MOL0     H10557   7.792   4.197   1.955  1.3557 -1.2097 -0.5037
  819MOL0     H10558   7.791   4.040   2.010  1.2466 -0.3034 -0.6844
  819MOL0     H10559   7.962   4.070   2.177  3.8456 -1.6251 -0.3835
  819MOL0     H10560   8.013   4.134   2.010 -1.1479 -1.2013  1.1080
  819MOL0     H10561   8.011   4.490   2.224  3.2168  0.0398 -0.7794
  819MOL0     H10562   7.414   4.055   2.288  1.4365 -0.0541  0.2731
  819MOL0     H10563   7.373   3.946   2.502 -3.0285 -0.9998  2.7668
  819MOL0     H10564   7.295   3.791   2.490  0.4985 -0.2725  0.2905
  819MOL0     H10565   7.468   3.807   2.528 -1.7438  0.6372  4.0042
  820MOL0     O10566   6.570   8.171   8.286 -0.1230 -0.2403  0.1802
  820MOL0     C10567   6.565   8.251   8.380 -0.4075 -0.5379  0.2900
  820MOL0     O10568   6.596   8.383   8.371 -0.3365  0.4065  0.3418
  820MOL0     C10569   6.640   8.428   8.252  0.3465 -0.3301  0.6723
  820MOL0     C10570   6.759   8.370   8.206 -0.7513 -0.8563  1.3584
  820MOL0     C10571   6.819   8.428   8.088 -0.7245  0.1620  0.1001
  820MOL0     C10572   6.753   8.524   8.012 -0.0080  0.7222 -1.0294
  820MOL0     O10573   6.824   8.581   7.910 -0.7698 -0.1114 -0.7467
  820MOL0     C10574   6.766   8.563   7.780  0.4912 -0.4029 -0.4986
  820MOL0     C10575   6.871   8.621   7.688 -0.2450  0.6441 -1.3916
  820MOL0     C10576   7.007   8.546   7.686 -0.7287 -0.1041 -0.5567
  820MOL0     C10577   7.081   8.588   7.558 -0.7693 -0.1863 -0.1902
  820MOL0     C10578   7.211   8.516   7.530  0.1172 -0.4855  0.4056
  820MOL0     C10579   7.315   8.548   7.632 -0.2193  0.3588  0.4756
  820MOL0     C10580   7.445   8.472   7.592 -0.0631 -0.7030  0.0048
  820MOL0     C10581   7.543   8.480   7.701 -0.9619  0.3572  0.6112
  820MOL0     N10582   7.649   8.581   7.671  1.0275  0.0815  0.1331
  820MOL0     C10583   7.627   8.723   7.669  0.5048  0.0528  0.7061
  820MOL0     C10584   7.742   8.779   7.670  0.9042 -0.4302 -0.7148
  820MOL0     C10585   7.759   8.929   7.648 -0.2457  1.0149  0.1025
  820MOL0     C10586   7.791   8.992   7.778  0.5543 -0.0871 -0.9409
  820MOL0     C10587   7.884   9.116   7.769 -0.8976  0.3687 -0.0504
  820MOL0     C10588   7.795   9.245   7.734 -1.0543 -0.5408  0.3735
  820MOL0     O10589   7.881   9.363   7.742  0.5593 -0.1469  0.1637
  820MOL0     C10590   7.978   9.373   7.656  0.1894 -1.0202  0.1059
  820MOL0     C10591   8.093   9.429   7.697 -0.7689 -0.6981  0.2128
  820MOL0     C10592   8.199   9.457   7.613 -0.4785 -0.3599  0.0321
  820MOL0     C10593   8.190   9.432   7.476 -0.6490 -0.4445 -0.7326
  820MOL0     C10594   8.299   9.453   7.377  0.0353  0.0266 -0.3030
  820MOL0     O10595   8.398   9.533   7.424 -0.3943  0.0524 -0.0565
  820MOL0     C10596   8.503   9.576   7.346  0.6158 -1.0420  0.7150
  820MOL0     C10597   8.630   9.548   7.381  0.9468  0.2085 -0.0001
  820MOL0     C10598   8.739   9.569   7.289 -0.4506 -0.2479  0.8925
  820MOL0     C10599   8.709   9.632   7.159 -0.1307 -0.6111 -0.9013
  820MOL0     O10600   8.824   9.654   7.073  0.0204  0.3558 -0.5024
  820MOL0     C10601   8.779   9.652   6.933 -0.4179 -0.3933  0.2265
  820MOL0     C10602   8.893   9.604   6.849 -0.2567  0.1655 -0.9485
  820MOL0     C10603   9.013   9.704   6.834  1.1946  0.1610 -0.1989
  820MOL0     C10604   9.141   9.633   6.773  0.0593  0.2225 -0.2222
  820MOL0     C10605   9.121   9.601   6.622  0.1066 -0.8238 -0.8383
  820MOL0     C10606   9.255   9.595   6.553  0.0295  0.9972  0.1512
  820MOL0     C10607   9.337   9.724   6.531  0.3127  0.6125  0.6045
  820MOL0     C10608   9.468   9.696   6.451  0.3950 -0.4714 -0.3671
  820MOL0    Cl10609   9.548   9.855   6.409 -0.3810  0.3744 -0.4266
  820MOL0     C10610   8.571   9.660   7.133  0.2716  0.7620 -0.7652
  820MOL0     C10611   8.470   9.650   7.230  0.1851  0.4012  0.8034
  820MOL0     O10612   8.299   9.402   7.265  1.0023 -0.3226  0.6511
  820MOL0     C10613   8.071   9.381   7.428  0.0711 -0.7047  0.2262
  820MOL0     C10614   7.965   9.351   7.515 -0.4436 -0.7796  0.4304
  820MOL0     N10615   7.836   8.681   7.692 -0.0196 -0.4726  0.3438
  820MOL0     N10616   7.782   8.567   7.686 -0.1956  0.2598  0.0627
  820MOL0     C10617   6.626   8.568   8.056 -0.1471 -0.2060 -0.0197
  820MOL0     C10618   6.566   8.526   8.179  0.2306  0.1702 -0.3077
  820MOL0     C10619   6.499   8.211   8.494  0.3791 -1.1344 -0.6287
  820MOL0     C10620   6.387   8.131   8.473 -0.0138 -0.0382  0.8697
  820MOL0     C10621   6.310   8.090   8.580 -0.4235 -0.3693  0.5611
  820MOL0     C10622   6.345   8.128   8.709  0.0230 -0.0475 -0.0983
  820MOL0     O10623   6.276   8.085   8.823 -0.1605 -0.0698 -0.8409
  820MOL0     C10624   6.135   8.059   8.817  0.3810 -0.7959  0.9203
  820MOL0     C10625   6.060   8.182   8.759 -0.6609 -0.6256  0.4256
  820MOL0     C10626   5.910   8.188   8.776  0.0829 -1.0139  0.0812
  820MOL0     C10627   5.833   8.306   8.725  0.4130  0.6427  0.7030
  820MOL0     C10628   5.873   8.426   8.795 -0.0886 -0.2242  0.9309
  820MOL0     C10629   5.896   8.527   8.857  1.2567  0.2824  0.2427
  820MOL0     C10630   6.459   8.207   8.728  0.5937 -0.5325 -0.1963
  820MOL0     C10631   6.531   8.259   8.624 -0.4604  0.1923 -0.0399
  820MOL0     C10632   6.641   8.351   8.668 -0.1194  0.3415  1.0688
  820MOL0     H10633   6.820   8.297   8.257  3.1279  0.0312 -1.4694
  820MOL0     H10634   6.914   8.393   8.047  0.3176  3.2459 -0.4053
  820MOL0     H10635   6.753   8.456   7.761  1.0605 -0.6024  0.1821
  820MOL0     H10636   6.674   8.622   7.783  0.6019 -0.2755  0.9678
  820MOL0     H10637   6.896   8.726   7.705  5.5757 -0.8999  2.1402
  820MOL0     H10638   6.815   8.601   7.595 -1.7346 -4.0982  0.2153
  820MOL0     H10639   6.992   8.438   7.678 -0.7799 -0.0594 -1.1356
  820MOL0     H10640   7.067   8.575   7.773  2.0086  3.2440 -3.2603
  820MOL0     H10641   7.015   8.566   7.474 -1.6129  0.6571  0.2473
  820MOL0     H10642   7.105   8.693   7.576 -0.2507 -0.0401 -1.5645
  820MOL0     H10643   7.194   8.408   7.523 -1.5205 -0.2579  0.4908
  820MOL0     H10644   7.251   8.546   7.432 -0.5069 -1.0716 -0.0431
  820MOL0     H10645   7.345   8.653   7.641 -0.5725  0.4962  0.0695
  820MOL0     H10646   7.282   8.511   7.730 -1.7547  2.8624  0.9908
  820MOL0     H10647   7.484   8.530   7.509 -2.3333  1.1436  0.1241
  820MOL0     H10648   7.429   8.368   7.561 -0.9916 -1.4754  2.7362
  820MOL0     H10649   7.491   8.498   7.796  0.0046 -2.4570  1.7632
  820MOL0     H10650   7.590   8.382   7.709 -0.4028  0.1547 -3.1954
  820MOL0     H10651   7.525   8.760   7.664  1.2186  1.9674 -0.2084
  820MOL0     H10652   7.843   8.939   7.579  2.6281 -2.6410  2.6592
  820MOL0     H10653   7.673   8.975   7.599 -0.9093  0.0439  0.3402
  820MOL0     H10654   7.693   9.018   7.818  0.7286 -1.5086  0.4829
  820MOL0     H10655   7.843   8.925   7.847  1.7126  0.6519 -1.0570
  820MOL0     H10656   7.957   9.095   7.690  1.3747 -2.7348  2.5961
  820MOL0     H10657   7.928   9.142   7.866  0.8027 -0.2776 -0.6034
  820MOL0     H10658   7.717   9.252   7.811 -0.4273 -0.1090  0.9807
  820MOL0     H10659   7.739   9.243   7.640 -1.7025  2.6201  0.5922
  820MOL0     H10660   8.099   9.445   7.804 -2.1279  0.3627  0.1642
  820MOL0     H10661   8.297   9.489   7.648  0.8877 -0.7486 -3.1170
  820MOL0     H10662   8.657   9.487   7.466 -1.1116 -1.7655 -0.6658
  820MOL0     H10663   8.840   9.543   7.319 -0.4887  1.0794  2.2765
  820MOL0     H10664   8.694   9.585   6.920 -1.1857  0.4778  0.6663
  820MOL0     H10665   8.756   9.751   6.895 -1.4033 -0.8655 -0.4148
  820MOL0     H10666   8.933   9.521   6.908  1.5945  1.7139  0.0614
  820MOL0     H10667   8.866   9.562   6.751  1.0626 -1.1918 -0.7635
  820MOL0     H10668   8.969   9.784   6.773 -1.4023  0.7948  2.3100
  820MOL0     H10669   9.040   9.745   6.932  4.1456  2.2547 -1.7133
  820MOL0     H10670   9.157   9.536   6.821 -0.9248  0.1520 -0.0265
  820MOL0     H10671   9.227   9.700   6.779  0.0158  0.2730 -0.1540
  820MOL0     H10672   9.070   9.682   6.569  3.0579  0.6030 -1.6757
  820MOL0     H10673   9.044   9.524   6.614 -1.8953  0.9067  0.6726
  820MOL0     H10674   9.304   9.514   6.609 -0.6073 -0.9165 -1.8790
  820MOL0     H10675   9.229   9.548   6.458 -0.0362 -0.0742  0.6763
  820MOL0     H10676   9.353   9.769   6.629 -1.4906  0.4119  1.0365
  820MOL0     H10677   9.276   9.790   6.469 -0.7727 -1.2989 -0.4783
  820MOL0     H10678   9.541   9.638   6.508 -2.5032 -1.1475  2.9627
  820MOL0     H10679   9.451   9.637   6.360 -0.1419 -1.0029  0.0724
  820MOL0     H10680   8.535   9.710   7.043 -2.5206  2.0603  0.9288
  820MOL0     H10681   8.367   9.679   7.210 -0.2421 -0.2717  1.9782
  820MOL0     H10682   8.059   9.364   7.321 -0.7263  0.6688  0.0701
  820MOL0     H10683   7.878   9.302   7.472  1.2587 -2.5321 -1.2484
  820MOL0     H10684   6.586   8.644   7.988  2.4037 -0.1902 -1.6512
  820MOL0     H10685   6.469   8.561   8.210 -0.0967 -1.0504  0.0783
  820MOL0     H10686   6.360   8.096   8.374  4.8746  0.5281 -0.9326
  820MOL0     H10687   6.224   8.026   8.561 -1.8887  1.3992  0.9883
  820MOL0     H10688   6.096   8.048   8.919  0.7428  1.2354  1.3369
  820MOL0     H10689   6.112   7.976   8.751  4.8913 -2.2222  0.8450
  820MOL0     H10690   6.080   8.185   8.652 -0.4182 -0.6764  0.4689
  820MOL0     H10691   6.108   8.274   8.793  0.4288 -1.1736  0.4382
  820MOL0     H10692   5.887   8.170   8.882  1.7297  0.3600  0.7129
  820MOL0     H10693   5.868   8.103   8.722 -0.4935 -0.0642 -1.0043
  820MOL0     H10694   5.850   8.325   8.619 -1.1853  0.3678  0.3700
  820MOL0     H10695   5.725   8.287   8.725  0.7980 -2.1303 -1.0326
  820MOL0     H10696   5.919   8.621   8.903 -0.4018  2.9505 -3.8067
  820MOL0     H10697   6.493   8.228   8.828  0.3851  0.8861 -0.4030
  820MOL0     H10698   6.621   8.444   8.722  1.1201  2.1630 -1.4071
  820MOL0     H10699   6.701   8.280   8.727 -0.5132 -2.3209 -1.5183
  820MOL0     H10700   6.701   8.380   8.582 -0.6687  0.2727  0.6600
  821MOL0     O10701   9.332   6.756   8.422  0.0130 -0.7568  0.0383
  821MOL0     C10702   9.328   6.816   8.529 -0.4754  0.4030  0.8619
  821MOL0     O10703   9.278   6.768   8.649  0.4041  0.3107 -0.6017
  821MOL0     C10704   9.198   6.660   8.665  0.4377  0.7453  0.2874
  821MOL0     C10705   9.242   6.531   8.622 -0.7066 -0.2013  0.2218
  821MOL0     C10706   9.153   6.424   8.612 -0.5221  0.6206  0.6958
  821MOL0     C10707   9.021   6.445   8.642 -0.7704  0.0245 -1.0322
  821MOL0     O10708   8.938   6.352   8.608 -0.2615  0.5080 -0.1154
  821MOL0     C10709   8.798   6.372   8.573 -0.5987 -0.0337  0.2501
  821MOL0     C10710   8.749   6.231   8.587  1.0131  0.0912  0.5260
  821MOL0     C10711   8.599   6.222   8.560 -0.0241 -0.0773 -0.2433
  821MOL0     C10712   8.542   6.083   8.600  0.0724  0.4376 -0.8198
  821MOL0     C10713   8.396   6.074   8.604 -0.6427 -0.0016  0.4433
  821MOL0     C10714   8.341   5.960   8.686 -0.3618  0.1337  0.2209
  821MOL0     C10715   8.197   5.906   8.662  0.4918  0.7414 -0.3217
  821MOL0     C10716   8.089   6.011   8.644  0.5986  0.2212 -0.0473
  821MOL0     N10717   8.073   6.112   8.744  0.4030 -0.2951  0.5316
  821MOL0     C10718   8.059   6.241   8.712 -0.8199  0.5896 -0.4849
  821MOL0     C10719   8.042   6.301   8.835  0.0624 -0.8513 -0.6799
  821MOL0     C10720   8.035   6.451   8.858  0.5132 -0.8243 -0.6436
  821MOL0     C10721   8.170   6.510   8.813 -0.1437  0.1172 -0.6628
  821MOL0     C10722   8.271   6.503   8.933 -0.6573 -0.8199  0.8628
  821MOL0     C10723   8.384   6.612   8.942  0.2037 -0.2761  0.6005
  821MOL0     O10724   8.430   6.654   8.814 -0.5775 -0.5461 -0.2508
  821MOL0     C10725   8.520   6.760   8.808 -0.6296  0.0679 -0.4469
  821MOL0     C10726   8.619   6.780   8.914  0.9613  0.5567 -0.5845
  821MOL0     C10727   8.712   6.889   8.894 -0.0471  0.4017  0.2947
  821MOL0     C10728   8.686   6.979   8.784  0.5086  0.4785  0.3708
  821MOL0     C10729   8.763   7.102   8.787 -0.3810  0.0586 -0.2907
  821MOL0     O10730   8.851   7.125   8.890 -0.4483 -0.5479 -0.3909
  821MOL0     C10731   8.936   7.228   8.876  0.3597 -0.4614 -0.3426
  821MOL0     C10732   9.060   7.206   8.816  0.1639  0.9299 -0.3174
  821MOL0     C10733   9.151   7.313   8.806 -0.2275 -0.1681  0.7499
  821MOL0     C10734   9.113   7.442   8.838  0.0933 -0.1805  0.6033
  821MOL0     O10735   9.204   7.552   8.815  0.0929  0.0711 -0.4477
  821MOL0     C10736   9.301   7.577   8.918 -0.2772 -0.3268 -1.0758
  821MOL0     C10737   9.369   7.712   8.896 -0.8377  0.0464 -0.0666
  821MOL0     C10738   9.269   7.824   8.888  0.6426 -0.1206  0.4611
  821MOL0     C10739   9.222   7.850   8.745  0.1299  0.7679  0.4892
  821MOL0     C10740   9.126   7.969   8.728 -1.0824  0.2116 -0.1120
  821MOL0     C10741   9.073   8.001   8.592 -0.6475 -0.9784  0.3255
  821MOL0     C10742   8.969   8.115   8.577 -0.0738  0.2801 -0.7380
  821MOL0     C10743   9.026   8.247   8.599  0.1143  1.4734  0.5993
  821MOL0    Cl10744   8.898   8.368   8.568  0.1222  0.3092 -0.1529
  821MOL0     C10745   8.985   7.468   8.895 -0.2624 -0.0631 -0.3158
  821MOL0     C10746   8.904   7.358   8.917 -0.1942  0.8892 -0.0142
  821MOL0     O10747   8.740   7.182   8.702  0.5274 -0.1773  0.0912
  821MOL0     C10748   8.584   6.958   8.688  0.3020 -1.0950 -0.0256
  821MOL0     C10749   8.503   6.844   8.692  0.0725 -0.0420 -0.1334
  821MOL0     N10750   8.034   6.208   8.935 -1.2860 -0.4161 -0.8432
  821MOL0     N10751   8.056   6.097   8.875 -0.2715  0.3449 -0.2864
  821MOL0     C10752   8.979   6.566   8.692 -0.4598 -0.3994  0.0696
  821MOL0     C10753   9.063   6.677   8.713  0.1176  0.5882 -0.5572
  821MOL0     C10754   9.394   6.949   8.530 -0.2156 -0.1742 -0.2708
  821MOL0     C10755   9.344   7.037   8.430 -0.5360 -0.6351  0.4246
  821MOL0     C10756   9.377   7.174   8.432  0.4243  0.6053 -0.0990
  821MOL0     C10757   9.449   7.231   8.546 -0.1683 -0.5102  0.1037
  821MOL0     O10758   9.472   7.361   8.548  0.3381 -0.4351 -0.6639
  821MOL0     C10759   9.367   7.452   8.503  0.5741  0.5255 -0.1766
  821MOL0     C10760   9.416   7.585   8.536 -0.7763  0.5595  0.0203
  821MOL0     C10761   9.533   7.633   8.434  0.0558 -0.3247 -0.1122
  821MOL0     C10762   9.579   7.771   8.484  0.3917  0.1001 -0.0818
  821MOL0     C10763   9.685   7.837   8.408  0.7741 -0.1458  0.4721
  821MOL0     C10764   9.772   7.900   8.344 -0.3156 -0.2330 -0.7887
  821MOL0     C10765   9.501   7.140   8.640  0.1883  0.8081 -0.4285
  821MOL0     C10766   9.468   7.007   8.634 -0.7230  0.2024  0.5274
  821MOL0     C10767   9.522   6.916   8.745 -0.1048  0.6909  0.0325
  821MOL0     H10768   9.342   6.524   8.582 -0.7093  1.2648 -0.1302
  821MOL0     H10769   9.188   6.330   8.569 -0.1627  0.4782  1.2856
  821MOL0     H10770   8.745   6.446   8.633 -0.3635 -0.3485  0.8564
  821MOL0     H10771   8.776   6.399   8.469  0.3329 -0.2325 -0.0093
  821MOL0     H10772   8.770   6.205   8.691 -0.9053 -1.1581  0.6574
  821MOL0     H10773   8.808   6.161   8.528  0.6951  0.0394  0.2656
  821MOL0     H10774   8.574   6.239   8.454 -1.0566 -2.1957 -0.3867
  821MOL0     H10775   8.550   6.293   8.627 -1.1788 -0.7197 -0.3733
  821MOL0     H10776   8.586   6.001   8.543 -0.7209 -1.4628  1.1315
  821MOL0     H10777   8.571   6.048   8.700 -1.5923 -3.8269 -1.6051
  821MOL0     H10778   8.359   6.170   8.642  1.2559  0.0603  2.3305
  821MOL0     H10779   8.376   6.059   8.497  0.4011 -2.5148  0.5421
  821MOL0     H10780   8.393   5.871   8.648 -1.2984 -0.2672 -0.1314
  821MOL0     H10781   8.371   5.977   8.790  4.4961  0.9721 -1.0443
  821MOL0     H10782   8.170   5.853   8.753 -2.9464  3.7051  0.6246
  821MOL0     H10783   8.186   5.842   8.574  0.4131 -0.1226  0.3082
  821MOL0     H10784   8.092   6.050   8.541 -0.1101  0.6175  0.0711
  821MOL0     H10785   7.992   5.961   8.645  0.2258  0.9376  0.2648
  821MOL0     H10786   8.075   6.299   8.621  2.4691 -0.9213 -1.0366
  821MOL0     H10787   7.973   6.506   8.786 -0.0063 -0.4480  0.0871
  821MOL0     H10788   8.007   6.478   8.960 -1.3360  2.8443 -1.9649
  821MOL0     H10789   8.212   6.462   8.724  0.5255  1.3285 -1.0167
  821MOL0     H10790   8.154   6.614   8.783 -0.8673  1.2523  3.1105
  821MOL0     H10791   8.319   6.405   8.921  0.9099  0.1380 -1.4972
  821MOL0     H10792   8.224   6.501   9.032  2.9727  0.5904  2.8138
  821MOL0     H10793   8.465   6.567   9.000  3.5444  1.4455 -2.3315
  821MOL0     H10794   8.347   6.694   9.003 -1.7888 -0.3317 -0.4699
  821MOL0     H10795   8.640   6.704   8.989 -0.3845  0.1107 -0.6256
  821MOL0     H10796   8.806   6.891   8.948  1.3782 -0.4223 -1.9868
  821MOL0     H10797   9.079   7.104   8.785 -2.9470 -1.0810  3.5464
  821MOL0     H10798   9.249   7.286   8.767 -0.7595 -1.7179  0.4319
  821MOL0     H10799   9.247   7.578   9.013  2.7484 -1.0233  0.7955
  821MOL0     H10800   9.373   7.494   8.920 -1.3742 -1.3468  2.0073
  821MOL0     H10801   9.438   7.733   8.979 -1.3293  4.3418 -0.5386
  821MOL0     H10802   9.433   7.705   8.807  0.7656 -1.5248  1.1296
  821MOL0     H10803   9.177   7.816   8.946 -0.0800  0.7606 -0.5207
  821MOL0     H10804   9.320   7.916   8.919 -1.9607  1.6449 -0.1525
  821MOL0     H10805   9.171   7.757   8.719 -1.2193  1.5079  0.4061
  821MOL0     H10806   9.307   7.855   8.676  2.6218 -1.3726  3.1190
  821MOL0     H10807   9.170   8.061   8.770  0.2473 -0.7697  0.7255
  821MOL0     H10808   9.045   7.946   8.797  0.0394  1.6655  1.8190
  821MOL0     H10809   9.162   8.019   8.530 -0.7442 -0.6631  0.2774
  821MOL0     H10810   9.029   7.908   8.556 -1.7153  0.6339 -2.9774
  821MOL0     H10811   8.880   8.106   8.640 -1.4304 -0.7639 -2.6920
  821MOL0     H10812   8.932   8.110   8.474  2.2340 -0.9458 -1.6019
  821MOL0     H10813   9.065   8.240   8.701 -1.6495 -0.9596  1.1913
  821MOL0     H10814   9.111   8.255   8.530 -0.0415 -0.3614  0.1602
  821MOL0     H10815   8.955   7.570   8.919  0.7999  1.4189 -4.4404
  821MOL0     H10816   8.800   7.366   8.946 -0.4040 -1.9788  0.3701
  821MOL0     H10817   8.573   7.039   8.617  2.7770 -0.2622  0.4305
  821MOL0     H10818   8.426   6.812   8.622  1.4419 -1.6524 -0.9703
  821MOL0     H10819   8.874   6.580   8.717  0.6859  0.8779  5.3956
  821MOL0     H10820   9.018   6.772   8.742 -0.8277  0.0468 -0.1985
  821MOL0     H10821   9.280   7.003   8.349  1.0015  0.3826 -1.2750
  821MOL0     H10822   9.324   7.235   8.359 -0.2135 -0.8602 -0.9008
  821MOL0     H10823   9.274   7.433   8.555  0.4239  1.8165  0.0616
  821MOL0     H10824   9.366   7.447   8.393 -0.7915  1.9877 -0.2642
  821MOL0     H10825   9.459   7.585   8.637 -2.2061  3.0176  0.7138
  821MOL0     H10826   9.334   7.656   8.523 -1.6243 -0.3898  0.0563
  821MOL0     H10827   9.488   7.642   8.335  0.5327 -2.2802 -0.5588
  821MOL0     H10828   9.624   7.572   8.435  0.8667  0.8492  0.3383
  821MOL0     H10829   9.494   7.838   8.472 -0.1724 -1.0050 -3.8681
  821MOL0     H10830   9.617   7.757   8.586  3.6556 -3.4414 -1.4838
  821MOL0     H10831   9.847   7.947   8.284  0.0537 -0.0382 -0.1884
  821MOL0     H10832   9.572   7.167   8.718  0.1361  1.0800 -0.4750
  821MOL0     H10833   9.577   6.837   8.693  2.1043  1.6341  0.8489
  821MOL0     H10834   9.590   6.964   8.815  1.5585 -0.8402 -0.4546
  821MOL0     H10835   9.442   6.873   8.805 -0.5932  2.6681  0.8823
  822MOL0     O10836   7.768   4.637   8.849  0.2530  0.9358  0.7719
  822MOL0     C10837   7.863   4.644   8.928  0.5545  0.4812  1.1256
  822MOL0     O10838   7.852   4.698   9.048 -0.9196 -0.0993  0.1188
  822MOL0     C10839   7.731   4.751   9.088  1.4104  0.1467 -0.6840
  822MOL0     C10840   7.641   4.703   9.188 -0.8681 -0.1342  0.8905
  822MOL0     C10841   7.521   4.765   9.222 -0.1249  0.1813  0.1787
  822MOL0     C10842   7.499   4.902   9.177  0.2580  0.7680  0.3190
  822MOL0     O10843   7.409   4.991   9.226 -0.3293 -0.2438 -0.0632
  822MOL0     C10844   7.275   4.964   9.228 -0.4514 -0.5378 -0.7282
  822MOL0     C10845   7.188   5.092   9.213  0.5447  0.7122  0.2193
  822MOL0     C10846   7.157   5.166   9.345 -1.0696  1.3200  0.5120
  822MOL0     C10847   7.038   5.256   9.323  0.8735 -0.9661 -0.2327
  822MOL0     C10848   6.966   5.307   9.446  1.2010 -0.1179  0.3482
  822MOL0     C10849   7.032   5.417   9.523  0.4243  0.3333 -0.8289
  822MOL0     C10850   6.975   5.467   9.656  0.5179 -0.3874 -1.0174
  822MOL0     C10851   7.060   5.565   9.736  0.1371 -0.1646  0.1688
  822MOL0     N10852   7.071   5.707   9.679 -0.1567 -0.0578  0.1219
  822MOL0     C10853   6.995   5.760   9.577  0.4021  0.3987 -0.8958
  822MOL0     C10854   7.019   5.891   9.580  0.5953 -0.7540 -0.2017
  822MOL0     C10855   6.960   5.984   9.472 -1.0028  0.7890  0.1518
  822MOL0     C10856   6.816   6.009   9.477  0.2098 -0.1717 -0.3935
  822MOL0     C10857   6.763   6.055   9.344 -0.8559  0.2253  0.7979
  822MOL0     C10858   6.810   6.184   9.298 -0.6230  0.2019  1.0561
  822MOL0     O10859   6.732   6.213   9.170  0.3218 -0.0340  0.5203
  822MOL0     C10860   6.769   6.137   9.061 -0.0597 -1.8078  0.6409
  822MOL0     C10861   6.899   6.084   9.043  1.0101 -0.6772  1.1676
  822MOL0     C10862   6.919   6.005   8.926 -0.8661  0.1869 -0.2722
  822MOL0     C10863   6.829   6.011   8.812 -1.5401  0.0989 -0.5208
  822MOL0     C10864   6.862   5.937   8.697 -0.2561  0.6759  0.7574
  822MOL0     O10865   6.762   5.877   8.629 -0.8788 -0.3837  0.5010
  822MOL0     C10866   6.795   5.823   8.497 -1.2040  0.0110  0.0738
  822MOL0     C10867   6.829   5.687   8.494  0.5386 -0.8942  0.4895
  822MOL0     C10868   6.868   5.633   8.372 -0.3797 -0.0882  0.1536
  822MOL0     C10869   6.865   5.716   8.255 -0.4849 -0.5226  0.9568
  822MOL0     O10870   6.912   5.659   8.133  0.3834 -0.2389 -0.7092
  822MOL0     C10871   7.053   5.645   8.117  0.1146 -0.4829 -0.1889
  822MOL0     C10872   7.095   5.537   8.014  0.4690  0.9980 -0.8302
  822MOL0     C10873   7.070   5.576   7.877 -1.6989  0.3158 -0.3154
  822MOL0     C10874   7.100   5.462   7.770 -0.1532 -0.4867 -0.2580
  822MOL0     C10875   6.999   5.480   7.654 -0.3625  0.1048 -0.1376
  822MOL0     C10876   7.018   5.584   7.549 -0.7668  0.7274 -0.1838
  822MOL0     C10877   7.021   5.721   7.609  0.0416  0.3225  0.4933
  822MOL0     C10878   6.992   5.835   7.507  0.1108  0.0017  0.7650
  822MOL0    Cl10879   6.839   5.800   7.433 -0.3780 -0.4025  0.2861
  822MOL0     C10880   6.828   5.849   8.262 -0.3627 -0.6708 -0.5337
  822MOL0     C10881   6.791   5.905   8.381 -0.3979 -0.4854  0.1145
  822MOL0     O10882   6.977   5.942   8.659  0.5875 -0.3984 -1.1952
  822MOL0     C10883   6.704   6.068   8.841 -0.6664  0.6999  0.4953
  822MOL0     C10884   6.677   6.136   8.959 -0.0090 -0.8467  0.2009
  822MOL0     N10885   7.084   5.925   9.695  0.4697  0.7974 -0.1231
  822MOL0     N10886   7.125   5.812   9.747  0.2029 -0.4033  0.0122
  822MOL0     C10887   7.584   4.956   9.085  0.4173 -0.3605  0.1503
  822MOL0     C10888   7.691   4.879   9.037  0.1092  0.4234 -0.3015
  822MOL0     C10889   7.997   4.591   8.897  0.4882  0.1136 -0.0478
  822MOL0     C10890   8.105   4.609   8.991 -0.1085  0.2948  0.8439
  822MOL0     C10891   8.240   4.588   8.962  0.1597 -0.8321  0.0315
  822MOL0     C10892   8.285   4.563   8.830  0.5022  0.1193 -0.7518
  822MOL0     O10893   8.416   4.546   8.789  0.0449  0.3806 -0.3939
  822MOL0     C10894   8.461   4.421   8.744  0.1310  0.4796  0.6511
  822MOL0     C10895   8.472   4.412   8.588  0.5988 -0.0689 -0.1236
  822MOL0     C10896   8.586   4.488   8.529 -0.1903 -0.5710 -0.1244
  822MOL0     C10897   8.721   4.417   8.520 -0.1129 -0.5859 -0.1938
  822MOL0     C10898   8.807   4.479   8.418 -0.2191 -0.4946 -0.1937
  822MOL0     C10899   8.877   4.527   8.331  0.1215 -0.6201 -0.8522
  822MOL0     C10900   8.179   4.542   8.733  0.5737  0.8169 -1.3959
  822MOL0     C10901   8.038   4.558   8.761 -0.1850  0.3226  0.1919
  822MOL0     C10902   7.937   4.534   8.649 -0.2922 -0.7514  0.0365
  822MOL0     H10903   7.668   4.607   9.229  2.6461  0.5870  0.6227
  822MOL0     H10904   7.455   4.717   9.295 -0.5197  2.1991  1.2068
  822MOL0     H10905   7.263   4.900   9.139  0.4151  0.7136 -1.7857
  822MOL0     H10906   7.250   4.911   9.320  2.7347  1.2532  1.3715
  822MOL0     H10907   7.090   5.061   9.177  1.0142  0.2437 -0.7031
  822MOL0     H10908   7.227   5.154   9.132 -3.0088  0.8913 -1.5570
  822MOL0     H10909   7.237   5.207   9.407  0.1197 -1.0812  0.6653
  822MOL0     H10910   7.128   5.083   9.409  1.5598 -0.7572 -0.7970
  822MOL0     H10911   7.060   5.350   9.271 -0.3353  0.6121  1.9324
  822MOL0     H10912   6.967   5.204   9.258  2.1963 -1.7733 -1.0862
  822MOL0     H10913   6.870   5.340   9.405  0.9505 -0.8546  0.3441
  822MOL0     H10914   6.943   5.221   9.508 -1.8670 -0.2890 -0.8706
  822MOL0     H10915   7.123   5.365   9.554 -0.0690  0.8869  1.8429
  822MOL0     H10916   7.055   5.493   9.448  3.1297 -3.1947 -3.9422
  822MOL0     H10917   6.952   5.379   9.716 -0.9819  0.5435 -0.1616
  822MOL0     H10918   6.877   5.514   9.640  0.2743 -0.9353 -1.1561
  822MOL0     H10919   7.018   5.565   9.837  1.0242 -0.3279  0.5470
  822MOL0     H10920   7.156   5.526   9.771 -1.8484 -3.8181  2.1082
  822MOL0     H10921   6.945   5.698   9.504 -0.2460 -0.2819  0.1041
  822MOL0     H10922   7.002   6.082   9.496  2.3094 -0.3452 -0.3987
  822MOL0     H10923   7.001   5.954   9.375 -0.7065  1.4726  0.0557
  822MOL0     H10924   6.761   5.920   9.509  0.8562  0.3017  2.2791
  822MOL0     H10925   6.783   6.082   9.552  2.1962  1.0072 -0.5937
  822MOL0     H10926   6.656   6.066   9.366 -0.4096  0.0189  3.4542
  822MOL0     H10927   6.771   5.982   9.264  0.9350  1.1583  0.0620
  822MOL0     H10928   6.919   6.192   9.294 -0.6650  0.3900 -2.0501
  822MOL0     H10929   6.779   6.263   9.368 -0.8664  0.5102  0.6062
  822MOL0     H10930   6.979   6.068   9.113  2.6917 -0.9169 -0.7111
  822MOL0     H10931   7.004   5.941   8.904 -0.2717  1.6778 -2.8761
  822MOL0     H10932   6.835   5.633   8.588 -2.7472 -4.1813 -0.9057
  822MOL0     H10933   6.902   5.529   8.370 -0.5502 -0.1431 -1.3581
  822MOL0     H10934   7.090   5.747   8.107 -0.6964  0.1814  2.6896
  822MOL0     H10935   7.093   5.608   8.212  1.1678  0.3373 -0.2970
  822MOL0     H10936   7.199   5.511   8.033  0.0720  0.2986  0.5246
  822MOL0     H10937   7.040   5.446   8.039 -0.9305  2.3566  1.3655
  822MOL0     H10938   6.963   5.596   7.874 -1.5299  2.1979  2.6645
  822MOL0     H10939   7.125   5.661   7.836 -1.3209 -0.9923 -2.7866
  822MOL0     H10940   7.078   5.363   7.811 -0.7802  0.5325  2.0653
  822MOL0     H10941   7.199   5.461   7.724 -1.0525 -0.7069 -2.2942
  822MOL0     H10942   6.904   5.498   7.707 -0.7481 -2.9436  0.4191
  822MOL0     H10943   6.980   5.381   7.610  0.7249  0.2588 -0.9764
  822MOL0     H10944   7.112   5.562   7.497 -0.1448  6.0233 -1.8877
  822MOL0     H10945   6.945   5.564   7.471 -0.0232 -0.9007 -0.5015
  822MOL0     H10946   7.114   5.751   7.658 -1.4072  4.5799  1.0325
  822MOL0     H10947   6.941   5.730   7.683 -0.8167 -2.9838  0.1368
  822MOL0     H10948   6.991   5.935   7.553 -4.4606  0.6455 -0.2270
  822MOL0     H10949   7.063   5.826   7.424  0.8779  0.0598  1.4001
  822MOL0     H10950   6.825   5.903   8.168  1.7897  1.0824  0.3266
  822MOL0     H10951   6.752   6.006   8.388  2.2863  0.5821  1.2438
  822MOL0     H10952   6.631   6.051   8.763 -0.6382  2.6412  0.0066
  822MOL0     H10953   6.587   6.192   8.979 -1.0001 -2.7700  1.3697
  822MOL0     H10954   7.561   5.053   9.041 -0.0524 -0.7675 -0.5162
  822MOL0     H10955   7.747   4.926   8.957 -1.7992 -0.7832 -2.4551
  822MOL0     H10956   8.083   4.636   9.094 -0.5235 -0.9233  1.0909
  822MOL0     H10957   8.310   4.616   9.040 -3.1379  2.4839  2.1800
  822MOL0     H10958   8.384   4.347   8.766 -1.7841  1.6650 -1.6823
  822MOL0     H10959   8.562   4.398   8.779  0.9132  1.2726 -0.9533
  822MOL0     H10960   8.379   4.442   8.538 -0.9063  1.0013  3.0773
  822MOL0     H10961   8.486   4.304   8.580  0.4473 -0.3457  2.5634
  822MOL0     H10962   8.612   4.580   8.583  2.6718 -0.8762 -0.8091
  822MOL0     H10963   8.561   4.507   8.424 -0.8247  0.1219  0.1424
  822MOL0     H10964   8.776   4.438   8.612 -0.4649 -0.8411  0.0718
  822MOL0     H10965   8.696   4.313   8.498  0.4663 -0.1798 -3.3225
  822MOL0     H10966   8.943   4.557   8.252  2.1406 -1.2267  0.5227
  822MOL0     H10967   8.213   4.520   8.632  2.1039  1.7906 -1.1316
  822MOL0     H10968   7.889   4.628   8.619 -4.1517 -2.4899  0.1914
  822MOL0     H10969   7.970   4.480   8.560 -1.0006 -1.0488 -0.0533
  822MOL0     H10970   7.853   4.479   8.692 -2.9825  3.2583  0.4222
  823MOL0     O10971   6.559  10.675   0.200 -0.6472 -0.0776  0.9737
  823MOL0     C10972   6.504  10.681   0.312  0.1049 -0.5740  0.6017
  823MOL0     O10973   6.548  10.768   0.409  0.6985 -0.3822 -0.2730
  823MOL0     C10974   6.647  10.864   0.371  0.1603  0.7861  0.1932
  823MOL0     C10975   6.656  10.939   0.254 -0.4693 -0.4150  1.0781
  823MOL0     C10976   6.750  11.033   0.242 -0.6749 -0.5831  0.0104
  823MOL0     C10977   6.853  11.053   0.337 -0.6572 -0.0640  0.8469
  823MOL0     O10978   6.956  11.136   0.292  1.3756  0.1577 -0.4749
  823MOL0     C10979   7.072  11.087   0.232  0.3947 -0.0661 -0.1522
  823MOL0     C10980   7.170  11.039   0.338  0.8255 -0.8663  0.7254
  823MOL0     C10981   7.310  10.995   0.295 -0.3910  0.8133 -1.6069
  823MOL0     C10982   7.356  10.908   0.417  0.3360  0.7653 -0.2939
  823MOL0     C10983   7.497  10.867   0.400  0.9503 -0.8662  0.3533
  823MOL0     C10984   7.587  10.993   0.361  0.1899  0.3111 -0.4556
  823MOL0     C10985   7.735  10.976   0.413  0.2855 -0.6322 -0.8161
  823MOL0     C10986   7.807  10.865   0.354 -1.6112  0.5520  0.3480
  823MOL0     N10987   7.956  10.879   0.376 -0.5017  0.4728 -1.0417
  823MOL0     C10988   8.017  10.850   0.501  0.5811  1.0614  0.2010
  823MOL0     C10989   8.144  10.831   0.462  0.1592  0.5404 -0.6371
  823MOL0     C10990   8.244  10.795   0.561 -0.4792  0.0020 -0.1525
  823MOL0     C10991   8.268  10.901   0.676 -0.7071  0.3096  0.3572
  823MOL0     C10992   8.343  11.023   0.621  0.0977  0.8673 -0.4418
  823MOL0     C10993   8.430  11.007   0.497  0.1524  0.4629  0.3362
  823MOL0     O10994   8.499  11.133   0.476 -1.0725  0.2151  0.3155
  823MOL0     C10995   8.425  11.233   0.431  0.1323 -0.4857  0.7035
  823MOL0     C10996   8.307  11.224   0.355  0.3665 -0.1740 -0.0524
  823MOL0     C10997   8.243  11.339   0.305 -0.2516  0.3591  0.5566
  823MOL0     C10998   8.294  11.468   0.329 -0.7931  0.5513  0.1077
  823MOL0     C10999   8.217  11.583   0.269  0.3979  0.2886  0.0105
  823MOL0     O11000   8.111  11.559   0.185 -0.3704  0.5877 -0.4007
  823MOL0     C11001   8.034  11.657   0.139 -0.1294 -0.1348 -0.1904
  823MOL0     C11002   7.896  11.655   0.171 -0.6059  0.6024  1.3609
  823MOL0     C11003   7.812  11.766   0.151 -0.7826 -0.5234  0.7583
  823MOL0     C11004   7.875  11.882   0.093 -0.5140 -0.0436 -0.2116
  823MOL0     O11005   7.808  12.000   0.073 -0.9672 -0.2748 -0.3884
  823MOL0     C11006   7.676  12.026   0.129  0.6830 -0.8055 -1.1561
  823MOL0     C11007   7.647  12.170   0.137 -0.7234  0.1920 -0.9383
  823MOL0     C11008   7.708  12.256   0.247 -0.8505  0.2866  0.4162
  823MOL0     C11009   7.670  12.211   0.390 -0.5204 -0.1875  0.4372
  823MOL0     C11010   7.724  12.308   0.502  0.7088  0.1749 -0.9065
  823MOL0     C11011   7.871  12.287   0.558  0.6520  0.2218  0.0163
  823MOL0     C11012   7.909  12.379   0.674 -0.1873 -0.0610 -0.5668
  823MOL0     C11013   8.063  12.380   0.699  0.6587 -1.5343  0.5764
  823MOL0    Cl11014   8.153  12.463   0.565 -0.2583  0.0106 -0.4810
  823MOL0     C11015   8.015  11.885   0.065 -0.0345 -0.4124 -0.4422
  823MOL0     C11016   8.096  11.770   0.074 -0.5570  0.2143 -0.2404
  823MOL0     O11017   8.261  11.694   0.296  0.0156 -0.0999 -0.0196
  823MOL0     C11018   8.416  11.484   0.406 -0.1819  0.9587  0.1005
  823MOL0     C11019   8.478  11.365   0.452  0.2528 -0.1453 -0.1040
  823MOL0     N11020   8.159  10.839   0.326 -0.2589  0.4190  1.0056
  823MOL0     N11021   8.043  10.863   0.278  0.2125 -0.1138 -0.0469
  823MOL0     C11022   6.847  10.979   0.456  0.4791  0.1198 -0.8205
  823MOL0     C11023   6.748  10.887   0.468  0.1837  0.0059  0.4510
  823MOL0     C11024   6.378  10.603   0.331  0.0266 -0.8091 -0.6761
  823MOL0     C11025   6.304  10.618   0.452 -1.0729  0.5044  0.6613
  823MOL0     C11026   6.180  10.545   0.472 -0.6575  0.4240 -0.2441
  823MOL0     C11027   6.123  10.482   0.370  0.2542  0.8410 -0.2353
  823MOL0     O11028   6.017  10.413   0.408  0.5467  0.0786 -0.6448
  823MOL0     C11029   6.029  10.278   0.401 -0.7131  0.4442 -0.0538
  823MOL0     C11030   6.118  10.209   0.500 -0.0996 -1.3692 -0.6957
  823MOL0     C11031   6.110  10.048   0.507  0.3182 -0.9349  0.8540
  823MOL0     C11032   5.979   9.994   0.563 -0.1569 -0.1279 -0.3047
  823MOL0     C11033   5.979   9.995   0.707  0.3124  0.2024 -0.0837
  823MOL0     C11034   5.988  10.010   0.826 -0.9255 -0.0089  0.7615
  823MOL0     C11035   6.188  10.462   0.244 -0.0606 -0.6646  0.4068
  823MOL0     C11036   6.321  10.512   0.231  0.2363 -0.7011  0.3378
  823MOL0     C11037   6.367  10.484   0.094 -0.3395  0.3928 -1.2786
  823MOL0     H11038   6.579  10.918   0.180  0.3920 -2.7526  0.7281
  823MOL0     H11039   6.750  11.091   0.150 -2.1768 -0.5606 -0.0026
  823MOL0     H11040   7.049  11.013   0.154  2.0330  1.3766 -2.1231
  823MOL0     H11041   7.130  11.167   0.185 -1.0514  1.4325  0.4949
  823MOL0     H11042   7.116  10.953   0.376 -1.9608  0.1511 -0.6364
  823MOL0     H11043   7.169  11.115   0.417 -0.2876  1.2160 -1.1566
  823MOL0     H11044   7.374  11.080   0.271 -2.1252  2.4353 -0.7006
  823MOL0     H11045   7.301  10.928   0.209  1.6244  1.0353 -2.0393
  823MOL0     H11046   7.343  10.966   0.509  0.9612 -1.9061  1.5833
  823MOL0     H11047   7.290  10.821   0.424  1.3140 -0.0842 -1.1844
  823MOL0     H11048   7.525  10.825   0.497  0.8141  3.8065  2.6855
  823MOL0     H11049   7.494  10.795   0.318 -2.2190 -0.9067  0.3998
  823MOL0     H11050   7.586  11.017   0.255 -0.8487 -1.3871 -0.8737
  823MOL0     H11051   7.544  11.066   0.430 -1.2231  1.7340 -2.7307
  823MOL0     H11052   7.728  10.965   0.522  1.7689  0.1240 -0.6279
  823MOL0     H11053   7.799  11.063   0.404  1.3833 -1.4494 -1.1017
  823MOL0     H11054   7.772  10.765   0.383  0.8567 -1.3008 -2.5052
  823MOL0     H11055   7.785  10.862   0.247  3.3611 -0.0042 -0.9150
  823MOL0     H11056   7.964  10.832   0.594 -0.1124 -0.9264 -0.5231
  823MOL0     H11057   8.217  10.712   0.627  1.8944 -0.0328  0.8838
  823MOL0     H11058   8.336  10.758   0.515  2.0544  1.1623  3.5022
  823MOL0     H11059   8.174  10.953   0.697 -1.1365  0.5897 -1.9538
  823MOL0     H11060   8.310  10.865   0.770 -1.1084 -1.9029 -0.2620
  823MOL0     H11061   8.411  11.049   0.702  1.2756  1.0374 -1.4492
  823MOL0     H11062   8.273  11.107   0.608 -1.2280 -0.4860 -2.7622
  823MOL0     H11063   8.367  10.981   0.412  1.6935  0.4640 -0.8580
  823MOL0     H11064   8.504  10.928   0.515 -0.6827 -0.5677 -0.6290
  823MOL0     H11065   8.259  11.132   0.321  0.0115 -0.5926  1.5164
  823MOL0     H11066   8.163  11.320   0.234  1.2817 -0.5619 -1.0127
  823MOL0     H11067   7.854  11.567   0.218 -3.7448  1.0737 -0.2962
  823MOL0     H11068   7.706  11.754   0.175 -1.6449  0.2153 -2.2732
  823MOL0     H11069   7.595  11.970   0.081 -0.9841 -0.4779  1.1298
  823MOL0     H11070   7.674  11.991   0.232 -1.3887  2.6366  0.1359
  823MOL0     H11071   7.677  12.230   0.050  0.6849  1.1975  0.2023
  823MOL0     H11072   7.538  12.182   0.137 -0.9703 -1.4319  1.0548
  823MOL0     H11073   7.815  12.233   0.253 -0.6998  1.1449  1.3846
  823MOL0     H11074   7.698  12.363   0.227 -2.4552  0.0830  0.0662
  823MOL0     H11075   7.711  12.111   0.407 -0.5235 -0.0714  1.1673
  823MOL0     H11076   7.561  12.209   0.402 -0.7858  0.3150 -1.5568
  823MOL0     H11077   7.657  12.306   0.588  0.7857  0.9944 -0.8199
  823MOL0     H11078   7.712  12.410   0.462  2.9280  1.2536  0.9208
  823MOL0     H11079   7.891  12.184   0.588  1.5601 -0.1339 -1.6922
  823MOL0     H11080   7.941  12.307   0.477 -0.8761  6.5417 -0.2974
  823MOL0     H11081   7.861  12.344   0.766 -0.3143 -2.8004 -1.6095
  823MOL0     H11082   7.878  12.482   0.655  1.4807  0.9123  1.4918
  823MOL0     H11083   8.081  12.425   0.798 -0.8311  3.2243 -1.0532
  823MOL0     H11084   8.088  12.273   0.705 -0.7810 -1.8445  1.4442
  823MOL0     H11085   8.080  11.969   0.043  0.2727 -0.6549 -0.4659
  823MOL0     H11086   8.203  11.780   0.058 -0.7010  0.4717 -1.0970
  823MOL0     H11087   8.465  11.579   0.422  2.2180 -0.3041  0.8357
  823MOL0     H11088   8.571  11.389   0.503  0.6818  1.1235 -1.4040
  823MOL0     H11089   6.910  10.996   0.543 -2.0952 -1.3752  1.5150
  823MOL0     H11090   6.728  10.836   0.562 -1.1609  0.7710  0.6077
  823MOL0     H11091   6.346  10.683   0.528  0.9919  0.9237 -0.7402
  823MOL0     H11092   6.118  10.552   0.561 -0.7429  1.8216 -0.3906
  823MOL0     H11093   6.067  10.250   0.302  0.2820  4.3762 -1.0026
  823MOL0     H11094   5.927  10.241   0.411 -0.3487 -0.0660  2.2954
  823MOL0     H11095   6.088  10.245   0.600 -0.9083 -2.9377 -0.3426
  823MOL0     H11096   6.219  10.248   0.485 -1.0337  1.8131  0.2989
  823MOL0     H11097   6.191  10.017   0.573  1.6742 -1.1690 -0.8704
  823MOL0     H11098   6.144  10.003   0.414  3.7943  2.7257  0.0651
  823MOL0     H11099   5.894  10.055   0.530 -1.1275 -1.7997 -0.9947
  823MOL0     H11100   5.980   9.895   0.516  3.0687  0.3771 -1.6057
  823MOL0     H11101   5.997  10.012   0.932  1.1084  1.0410  0.6049
  823MOL0     H11102   6.142  10.408   0.163 -1.0186  0.3471  0.2598
  823MOL0     H11103   6.313  10.402   0.045 -0.4028 -0.5954  0.3819
  823MOL0     H11104   6.358  10.579   0.041 -1.1380  1.0476 -0.0108
  823MOL0     H11105   6.469  10.448   0.107  0.7926  3.7523  0.2350
  824MOL0     O11106  10.556   3.897   2.103 -0.8319  0.5165  0.3796
  824MOL0     C11107  10.575   3.963   2.206 -0.4416 -0.4114  0.2623
  824MOL0     O11108  10.679   4.051   2.235  0.0599  0.2274 -0.3231
  824MOL0     C11109  10.786   4.071   2.152  0.2900  0.7233  1.8527
  824MOL0     C11110  10.776   4.074   2.010 -0.1122 -0.1287 -0.2404
  824MOL0     C11111  10.890   4.073   1.931 -1.0295  0.6742  0.4475
  824MOL0     C11112  11.019   4.083   1.988  0.1331  0.3389 -0.6130
  824MOL0     O11113  11.117   4.086   1.896 -0.8210  0.5636  0.0142
  824MOL0     C11114  11.246   4.088   1.956  0.3121 -0.4619 -0.3888
  824MOL0     C11115  11.354   4.088   1.862  0.0625 -0.7289 -0.7124
  824MOL0     C11116  11.368   3.967   1.783  0.4149 -0.2417 -0.7972
  824MOL0     C11117  11.504   3.967   1.720  0.0580  0.2508  0.6639
  824MOL0     C11118  11.544   3.832   1.665 -0.2871 -0.4231  1.0349
  824MOL0     C11119  11.677   3.828   1.594  0.9248 -0.0801 -0.1385
  824MOL0     C11120  11.701   3.691   1.529  0.4103 -0.9278  0.4287
  824MOL0     C11121  11.836   3.682   1.469 -0.6932 -1.1567  0.1563
  824MOL0     N11122  11.870   3.560   1.398 -0.2631 -0.7783 -0.2434
  824MOL0     C11123  11.966   3.560   1.296  0.5399  0.0791  0.3603
  824MOL0     C11124  11.987   3.425   1.270 -0.2282 -0.2760 -0.3961
  824MOL0     C11125  12.108   3.381   1.185  0.0799  0.1255  0.5304
  824MOL0     C11126  12.116   3.451   1.049 -0.2707  0.3503 -0.2820
  824MOL0     C11127  12.196   3.363   0.947  0.5770  0.0572 -0.6340
  824MOL0     C11128  12.217   3.433   0.819  0.3041 -0.2670  0.5008
  824MOL0     O11129  12.311   3.351   0.751  0.2004  0.5027  0.5000
  824MOL0     C11130  12.278   3.285   0.629  0.7648  0.6686 -0.0116
  824MOL0     C11131  12.342   3.161   0.608  0.4747  0.2364  0.4961
  824MOL0     C11132  12.301   3.087   0.494 -0.0633 -0.2287 -0.9265
  824MOL0     C11133  12.197   3.135   0.409 -1.0015  0.3633  0.9139
  824MOL0     C11134  12.168   3.043   0.285  1.2775 -0.4554  0.1387
  824MOL0     O11135  12.279   2.993   0.230  0.9022  0.5205  0.6112
  824MOL0     C11136  12.278   2.879   0.145  0.3206 -1.7308  0.9204
  824MOL0     C11137  12.188   2.779   0.135  0.7204  0.7263  0.1688
  824MOL0     C11138  12.210   2.672   0.049  0.2217 -0.1148 -0.5775
  824MOL0     C11139  12.326   2.661  -0.029  0.2372 -0.4074  0.6129
  824MOL0     O11140  12.337   2.542  -0.090  0.0535 -0.0394  0.0452
  824MOL0     C11141  12.412   2.547  -0.215 -0.3320  0.0834 -1.4037
  824MOL0     C11142  12.434   2.410  -0.286 -0.0451 -0.4526 -0.8446
  824MOL0     C11143  12.528   2.324  -0.200 -0.1743 -0.0776 -0.2920
  824MOL0     C11144  12.569   2.209  -0.295  0.6670  0.6986  0.4447
  824MOL0     C11145  12.621   2.090  -0.212  1.0465 -0.1117 -0.4780
  824MOL0     C11146  12.687   1.969  -0.280 -0.1526 -1.0454 -0.0224
  824MOL0     C11147  12.607   1.911  -0.400 -0.4185  0.6721 -0.5732
  824MOL0     C11148  12.669   1.781  -0.457 -0.5243 -0.2679 -0.3358
  824MOL0    Cl11149  12.624   1.741  -0.621 -0.1565 -0.3855 -0.3261
  824MOL0     C11150  12.422   2.759  -0.008 -0.3754  1.2670  0.0762
  824MOL0     C11151  12.396   2.870   0.065 -0.5348 -0.1777  0.7049
  824MOL0     O11152  12.053   3.022   0.245  0.2120  0.3160 -0.3710
  824MOL0     C11153  12.135   3.255   0.430 -0.1000  0.1047 -0.4144
  824MOL0     C11154  12.179   3.329   0.539 -0.1362  0.5102  0.0855
  824MOL0     N11155  11.911   3.356   1.358  1.0359  0.1674 -0.0897
  824MOL0     N11156  11.850   3.434   1.443  0.4482 -0.2663  0.2707
  824MOL0     C11157  11.028   4.081   2.137  0.1062  0.0111  0.8713
  824MOL0     C11158  10.913   4.071   2.210  0.4975 -0.7806  0.0030
  824MOL0     C11159  10.463   3.963   2.295  0.2606 -0.2748  0.0957
  824MOL0     C11160  10.484   4.014   2.429 -0.0983 -1.0859  0.3067
  824MOL0     C11161  10.393   4.021   2.534  0.4947 -0.6243  0.5289
  824MOL0     C11162  10.268   3.960   2.504  0.9185  0.4264  0.6156
  824MOL0     O11163  10.184   3.954   2.607  1.0000 -0.3306 -0.3040
  824MOL0     C11164  10.096   4.069   2.625 -0.6394 -0.1486  0.4402
  824MOL0     C11165   9.999   4.013   2.724 -0.1208 -0.1051 -0.1503
  824MOL0     C11166  10.059   3.982   2.864  0.2830  0.1585  0.1354
  824MOL0     C11167   9.968   3.900   2.953 -0.1581  0.6097  1.0058
  824MOL0     C11168   9.841   3.956   2.982 -0.4799  0.6403 -0.0069
  824MOL0     C11169   9.740   4.010   3.004  0.8397 -0.9235  0.1003
  824MOL0     C11170  10.239   3.917   2.375  0.2197 -0.4159  0.0939
  824MOL0     C11171  10.336   3.910   2.268  1.1366  0.2952 -0.5356
  824MOL0     C11172  10.269   3.842   2.150 -0.1226 -0.3065  0.0886
  824MOL0     H11173  10.679   4.059   1.964  0.6887 -1.8196 -1.4951
  824MOL0     H11174  10.892   4.058   1.823 -4.3516  1.6229  0.1524
  824MOL0     H11175  11.240   4.186   2.004 -1.4628 -0.7971  0.1304
  824MOL0     H11176  11.249   4.001   2.023 -4.0711 -0.1104  0.5717
  824MOL0     H11177  11.444   4.113   1.919  0.6207  1.0380 -2.2723
  824MOL0     H11178  11.342   4.174   1.796 -2.1005 -0.4700 -0.0627
  824MOL0     H11179  11.297   3.969   1.700 -1.3789 -1.2034  0.6334
  824MOL0     H11180  11.344   3.873   1.834 -3.2748  0.5584 -0.8114
  824MOL0     H11181  11.505   4.043   1.641  1.7375 -0.7706 -0.3541
  824MOL0     H11182  11.580   3.998   1.792 -0.3782  3.8610 -0.2541
  824MOL0     H11183  11.535   3.761   1.748 -0.5270  0.6841  1.9742
  824MOL0     H11184  11.465   3.814   1.591  1.7568  0.6763 -1.5522
  824MOL0     H11185  11.679   3.907   1.518  0.7903 -1.6223 -1.8395
  824MOL0     H11186  11.745   3.847   1.677 -1.0430 -2.5551  2.1956
  824MOL0     H11187  11.641   3.673   1.439 -0.9355 -0.7051  1.2532
  824MOL0     H11188  11.686   3.606   1.596  0.5545 -0.2724  1.3063
  824MOL0     H11189  11.856   3.762   1.397 -0.6800 -0.8876  0.4575
  824MOL0     H11190  11.899   3.696   1.557 -5.5437  1.1493  3.7261
  824MOL0     H11191  12.011   3.646   1.248  2.1936 -1.4222 -0.8666
  824MOL0     H11192  12.199   3.396   1.243 -0.5948 -3.2758  2.7113
  824MOL0     H11193  12.097   3.272   1.183  0.6104 -0.0551  3.2422
  824MOL0     H11194  12.012   3.460   1.016 -0.7235 -2.8827 -0.0885
  824MOL0     H11195  12.172   3.544   1.066  1.8540 -0.9882  0.3661
  824MOL0     H11196  12.163   3.259   0.946 -3.5307  1.1925 -1.6968
  824MOL0     H11197  12.293   3.364   0.998  0.9419  2.8732 -1.2354
  824MOL0     H11198  12.260   3.533   0.833  4.8780 -1.5473 -2.2073
  824MOL0     H11199  12.125   3.447   0.763 -0.3461 -2.5028  0.9118
  824MOL0     H11200  12.412   3.131   0.685  0.6058  0.5495  0.4988
  824MOL0     H11201  12.335   2.984   0.489 -1.4565 -0.6805 -1.5950
  824MOL0     H11202  12.088   2.778   0.177 -0.0181 -2.7073 -1.3302
  824MOL0     H11203  12.136   2.593   0.043  0.3926 -0.3344  0.1704
  824MOL0     H11204  12.343   2.603  -0.278 -4.0776  0.1225  2.2591
  824MOL0     H11205  12.509   2.596  -0.202  0.3036 -1.6076  1.1048
  824MOL0     H11206  12.340   2.360  -0.308  1.3337 -2.5879 -2.1811
  824MOL0     H11207  12.484   2.430  -0.381  1.0889 -2.0812 -0.6196
  824MOL0     H11208  12.622   2.368  -0.165 -1.4793  0.4046  2.9973
  824MOL0     H11209  12.474   2.288  -0.112  1.2941 -2.3589 -0.2651
  824MOL0     H11210  12.650   2.234  -0.364  0.1420 -0.5153 -0.6530
  824MOL0     H11211  12.480   2.171  -0.346  0.8287 -3.3984  2.8283
  824MOL0     H11212  12.541   2.052  -0.148  1.3576  1.3463  0.8321
  824MOL0     H11213  12.690   2.136  -0.141 -1.0044  0.2868  1.3583
  824MOL0     H11214  12.775   2.015  -0.326 -1.2159  0.7823 -0.3667
  824MOL0     H11215  12.701   1.896  -0.201  0.9945  1.1822  1.9624
  824MOL0     H11216  12.602   1.978  -0.486 -1.8486  0.1045 -0.9774
  824MOL0     H11217  12.506   1.889  -0.363 -0.2633  3.1134  1.5570
  824MOL0     H11218  12.776   1.797  -0.471 -0.6822 -0.7832 -2.5455
  824MOL0     H11219  12.667   1.695  -0.389 -0.1755  0.9421  1.2336
  824MOL0     H11220  12.523   2.752  -0.046  0.2197 -0.0066  1.7350
  824MOL0     H11221  12.474   2.944   0.081 -0.8878  0.0788  1.2435
  824MOL0     H11222  12.069   3.296   0.354 -0.5342  0.7480  0.2930
  824MOL0     H11223  12.114   3.412   0.562 -2.4751 -1.1944  0.0055
  824MOL0     H11224  11.118   4.084   2.198  0.9167  0.5919 -0.3278
  824MOL0     H11225  10.913   4.057   2.318  2.0593  0.7074  0.2405
  824MOL0     H11226  10.579   4.054   2.463 -1.5997  3.5088 -0.2746
  824MOL0     H11227  10.406   4.063   2.633  0.1344 -1.6607  1.0277
  824MOL0     H11228  10.054   4.099   2.529  1.7768 -2.9513 -1.6469
  824MOL0     H11229  10.142   4.160   2.665  0.4474 -0.1323 -0.7777
  824MOL0     H11230   9.967   3.922   2.671  0.4594  1.2092 -2.9164
  824MOL0     H11231   9.918   4.084   2.745  0.9005  1.7922 -2.2783
  824MOL0     H11232  10.084   4.079   2.909 -2.4644 -0.0052  2.2472
  824MOL0     H11233  10.147   3.923   2.838  0.8748  2.0795 -2.7799
  824MOL0     H11234   9.956   3.803   2.903 -2.6607  2.9970 -3.6618
  824MOL0     H11235  10.005   3.881   3.054  0.3694 -2.5181  0.3211
  824MOL0     H11236   9.644   4.053   3.027  0.1835 -0.2455 -3.2320
  824MOL0     H11237  10.142   3.867   2.372  1.0659 -2.1048 -2.1382
  824MOL0     H11238  10.166   3.876   2.137  0.5153  1.2341 -1.2310
  824MOL0     H11239  10.323   3.860   2.057  0.3516 -0.0863  0.4053
  824MOL0     H11240  10.272   3.735   2.173 -2.2812 -0.2266  1.0008
  825MOL0     O11241   2.718   8.638   3.247  0.6919  0.2052  0.2938
  825MOL0     C11242   2.713   8.750   3.191  0.0450  0.0596 -0.2347
  825MOL0     O11243   2.750   8.866   3.255  0.7799 -0.2028  0.2925
  825MOL0     C11244   2.798   8.847   3.382 -0.3606  0.1825  0.0051
  825MOL0     C11245   2.737   8.901   3.494 -0.3069 -0.6164 -0.0700
  825MOL0     C11246   2.790   8.899   3.623 -0.1279  0.3594  0.1549
  825MOL0     C11247   2.907   8.834   3.641  0.1724  1.1532 -0.5816
  825MOL0     O11248   2.960   8.836   3.770 -0.2450 -0.1379  0.3484
  825MOL0     C11249   2.995   8.709   3.819 -0.8376  0.1235 -0.2536
  825MOL0     C11250   2.964   8.686   3.962 -0.2985 -0.1027 -0.3307
  825MOL0     C11251   2.969   8.804   4.053 -0.3538 -0.9839  0.0870
  825MOL0     C11252   3.117   8.850   4.064 -0.1240 -0.9010  0.6177
  825MOL0     C11253   3.133   8.997   4.126  0.6086  0.2886 -0.2580
  825MOL0     C11254   3.110   9.006   4.278 -0.5080  0.2640  0.6083
  825MOL0     C11255   3.081   9.149   4.328 -1.0179  0.0173  0.1256
  825MOL0     C11256   2.946   9.200   4.281  1.1071  0.8297  0.2241
  825MOL0     N11257   2.836   9.115   4.330 -0.1102  0.1934  0.1609
  825MOL0     C11258   2.795   9.129   4.456 -0.6849  0.6307  0.3232
  825MOL0     C11259   2.698   9.035   4.465 -0.4446 -0.6498  0.6892
  825MOL0     C11260   2.607   9.021   4.590  0.1904 -0.0348  0.6917
  825MOL0     C11261   2.632   8.897   4.670 -0.3270 -0.0295 -0.3760
  825MOL0     C11262   2.532   8.879   4.792  0.3758  0.3770 -0.6179
  825MOL0     C11263   2.390   8.846   4.735 -0.8392 -0.0903 -0.2506
  825MOL0     O11264   2.399   8.721   4.663 -0.0231  0.2656  0.7570
  825MOL0     C11265   2.280   8.684   4.605 -0.1503  0.5988 -0.6497
  825MOL0     C11266   2.207   8.583   4.673  0.9629 -1.3439 -0.2877
  825MOL0     C11267   2.088   8.533   4.627  0.0545  1.0266 -0.2912
  825MOL0     C11268   2.027   8.593   4.512  0.9874  0.7242 -0.6452
  825MOL0     C11269   1.897   8.540   4.465  0.3083 -0.1341 -0.5901
  825MOL0     O11270   1.833   8.455   4.553 -0.1715  0.0821 -0.0413
  825MOL0     C11271   1.724   8.376   4.536  0.0168  0.6852  0.3316
  825MOL0     C11272   1.632   8.395   4.425  0.5286 -0.5948 -0.8220
  825MOL0     C11273   1.547   8.291   4.395 -0.3614  0.8054  0.2153
  825MOL0     C11274   1.552   8.176   4.479 -0.4131  0.5248  1.0606
  825MOL0     O11275   1.465   8.089   4.425  0.2227 -0.5290 -0.2852
  825MOL0     C11276   1.410   7.978   4.498  1.8362 -0.3171  0.3552
  825MOL0     C11277   1.268   7.943   4.443 -0.2774  0.1796 -0.0115
  825MOL0     C11278   1.201   7.815   4.509 -0.7405 -0.1903  0.5579
  825MOL0     C11279   1.059   7.785   4.457 -0.2980  0.0873 -0.2390
  825MOL0     C11280   0.990   7.669   4.536 -0.5686 -0.4941  0.4140
  825MOL0     C11281   0.854   7.658   4.477 -0.8386  1.0606  0.0706
  825MOL0     C11282   0.763   7.554   4.544 -0.5105 -0.8848 -0.0328
  825MOL0     C11283   0.630   7.560   4.472 -0.6176  1.0251  0.3119
  825MOL0    Cl11284   0.514   7.685   4.526  0.3650 -0.0453  0.5690
  825MOL0     C11285   1.629   8.158   4.591 -0.5610 -0.4021  0.4806
  825MOL0     C11286   1.720   8.261   4.621 -0.2860 -0.4073 -0.1125
  825MOL0     O11287   1.863   8.567   4.346 -0.0139  0.5246 -0.3222
  825MOL0     C11288   2.091   8.693   4.441  0.3088  0.3166 -0.1165
  825MOL0     C11289   2.220   8.735   4.485 -0.4016  0.1466 -0.4446
  825MOL0     N11290   2.684   8.970   4.348 -0.0355  0.9466  0.3299
  825MOL0     N11291   2.773   9.017   4.260 -0.0205 -0.2466 -0.5888
  825MOL0     C11292   2.977   8.782   3.536  1.1453 -0.8398 -0.1277
  825MOL0     C11293   2.915   8.784   3.411  0.5863  0.8419 -0.6796
  825MOL0     C11294   2.664   8.753   3.053 -0.9744 -0.8208  0.8182
  825MOL0     C11295   2.587   8.868   3.007 -0.3008 -0.2440 -1.6061
  825MOL0     C11296   2.524   8.866   2.888  0.3211  0.1645  0.6424
  825MOL0     C11297   2.538   8.756   2.803  0.2458  1.0707 -0.9171
  825MOL0     O11298   2.454   8.753   2.701 -0.2244  0.0571 -0.2343
  825MOL0     C11299   2.526   8.761   2.577  0.1154 -0.3536 -0.2744
  825MOL0     C11300   2.442   8.805   2.456  0.1126  0.0643  0.2758
  825MOL0     C11301   2.335   8.700   2.423 -0.1425  0.6793  0.4441
  825MOL0     C11302   2.401   8.562   2.379 -0.0229  0.3809  0.7740
  825MOL0     C11303   2.477   8.583   2.262 -0.3039  0.1511 -0.2330
  825MOL0     C11304   2.524   8.595   2.155 -0.5618 -0.4231  0.2787
  825MOL0     C11305   2.612   8.644   2.849 -0.5525  0.0894  0.9753
  825MOL0     C11306   2.675   8.643   2.973 -0.9551 -0.5869  0.4352
  825MOL0     C11307   2.757   8.512   3.000 -0.6089 -0.8148 -0.2646
  825MOL0     H11308   2.643   8.952   3.472  0.5143  2.1895  2.3752
  825MOL0     H11309   2.744   8.941   3.712 -0.1053 -1.3707  1.0291
  825MOL0     H11310   2.941   8.634   3.761  1.0248  0.4984 -2.6310
  825MOL0     H11311   3.101   8.692   3.799 -1.3034 -0.3277 -2.6625
  825MOL0     H11312   3.036   8.610   3.994 -1.9935 -2.2070 -1.2535
  825MOL0     H11313   2.865   8.643   3.980 -1.6217  1.5821 -3.0358
  825MOL0     H11314   2.939   8.776   4.154  2.1259 -1.7039  0.6902
  825MOL0     H11315   2.905   8.886   4.019  3.0196  1.7758 -0.1672
  825MOL0     H11316   3.166   8.770   4.119  1.5994  0.0646  0.5575
  825MOL0     H11317   3.169   8.860   3.968 -1.5277  0.2415 -0.0740
  825MOL0     H11318   3.230   9.038   4.100  1.8081 -3.0426 -1.6327
  825MOL0     H11319   3.064   9.067   4.077  0.3314 -0.4594 -0.9618
  825MOL0     H11320   3.028   8.937   4.301 -1.7239  1.6236  0.5601
  825MOL0     H11321   3.204   8.978   4.325 -0.3688  2.1293  1.5389
  825MOL0     H11322   3.161   9.216   4.294  2.8037 -2.5691  3.1785
  825MOL0     H11323   3.091   9.142   4.437  2.0246 -2.2583 -0.1997
  825MOL0     H11324   2.924   9.299   4.324  0.9272  1.4412 -1.2416
  825MOL0     H11325   2.934   9.211   4.173  0.2059 -1.8134 -0.0029
  825MOL0     H11326   2.824   9.203   4.530 -2.7674  0.1543  1.6847
  825MOL0     H11327   2.611   9.115   4.646 -2.2345  2.3059 -2.6392
  825MOL0     H11328   2.504   9.013   4.554  0.4555  0.6132 -0.2644
  825MOL0     H11329   2.634   8.801   4.617 -1.5755 -1.5465  2.1234
  825MOL0     H11330   2.727   8.903   4.723  0.7726  0.9235 -2.3294
  825MOL0     H11331   2.502   8.966   4.851  0.8442  1.3717 -1.8294
  825MOL0     H11332   2.581   8.800   4.849 -0.4066 -0.7633 -1.4706
  825MOL0     H11333   2.355   8.920   4.663  1.1826  1.4538  0.2558
  825MOL0     H11334   2.315   8.845   4.815 -0.0439 -0.4850  0.5132
  825MOL0     H11335   2.255   8.535   4.758  1.0942 -2.3563 -0.9138
  825MOL0     H11336   2.042   8.449   4.679  1.4859 -1.2462 -2.4765
  825MOL0     H11337   1.640   8.481   4.359  0.9756 -0.5887 -0.7631
  825MOL0     H11338   1.479   8.301   4.311  0.9933 -0.1726 -1.0625
  825MOL0     H11339   1.474   7.890   4.501  0.8448 -1.1652 -1.3594
  825MOL0     H11340   1.394   8.023   4.596 -1.0040  2.4922 -1.2115
  825MOL0     H11341   1.202   8.029   4.460  0.3115  1.0100 -1.7936
  825MOL0     H11342   1.280   7.923   4.336 -2.4661  6.1999 -1.7540
  825MOL0     H11343   1.265   7.727   4.498 -2.0366 -1.0034 -0.9244
  825MOL0     H11344   1.179   7.836   4.614  0.7756 -1.2076  1.1097
  825MOL0     H11345   1.065   7.752   4.352 -3.8073  0.7886 -0.7989
  825MOL0     H11346   0.992   7.870   4.469 -1.6939 -1.1610  1.3006
  825MOL0     H11347   1.000   7.685   4.643  2.2459 -3.9364  0.8620
  825MOL0     H11348   1.043   7.575   4.516 -2.4119 -1.3981 -0.4087
  825MOL0     H11349   0.818   7.761   4.474 -0.2860  1.2774  0.6783
  825MOL0     H11350   0.861   7.625   4.373  3.0978 -2.4068  1.1625
  825MOL0     H11351   0.753   7.589   4.648 -0.5510 -1.9299  0.3227
  825MOL0     H11352   0.802   7.453   4.537 -1.0127 -1.0404 -0.6328
  825MOL0     H11353   0.656   7.562   4.366  3.4957  0.4929  1.1552
  825MOL0     H11354   0.576   7.467   4.495 -2.6969  2.3225  0.9125
  825MOL0     H11355   1.631   8.061   4.639  3.1058 -1.2556 -1.0306
  825MOL0     H11356   1.796   8.245   4.697  1.8191  2.6936 -1.3583
  825MOL0     H11357   2.037   8.749   4.365 -2.9448 -1.0251  0.9995
  825MOL0     H11358   2.265   8.809   4.420 -0.8165  1.3921  0.6311
  825MOL0     H11359   3.075   8.739   3.555  0.2852 -1.7579  2.7054
  825MOL0     H11360   2.966   8.731   3.332  3.3608 -0.2118  1.6120
  825MOL0     H11361   2.567   8.958   3.064  3.5649 -1.0605  1.4394
  825MOL0     H11362   2.456   8.949   2.872  1.1057  1.2957  2.8421
  825MOL0     H11363   2.570   8.664   2.551  3.5716  1.0967 -0.2714
  825MOL0     H11364   2.600   8.841   2.585  0.8025 -0.9690 -0.3532
  825MOL0     H11365   2.504   8.811   2.366 -1.5737 -0.1236 -0.9443
  825MOL0     H11366   2.401   8.906   2.468 -0.5950  0.1406 -2.1748
  825MOL0     H11367   2.266   8.739   2.348  0.3557  1.2968  0.2971
  825MOL0     H11368   2.288   8.681   2.520 -0.5422  2.0875  0.5502
  825MOL0     H11369   2.461   8.511   2.455  0.8317  0.6132  0.2677
  825MOL0     H11370   2.322   8.489   2.356 -1.1120  1.5592  0.6696
  825MOL0     H11371   2.558   8.584   2.054 -2.2541 -0.7028 -0.3017
  825MOL0     H11372   2.633   8.568   2.773 -0.8014 -1.9663  2.8549
  825MOL0     H11373   2.786   8.447   2.917 -0.7082 -0.1961 -0.7896
  825MOL0     H11374   2.846   8.537   3.059 -0.8026 -3.0846  1.1094
  825MOL0     H11375   2.681   8.453   3.052 -3.4545 -0.7445 -3.9577
  826MOL0     O11376  10.501  10.523  10.587 -0.5765 -0.1357  0.6445
  826MOL0     C11377  10.570  10.622  10.619  0.4146  0.4977 -0.4360
  826MOL0     O11378  10.521  10.718  10.701 -0.1450 -0.3438  0.4739
  826MOL0     C11379  10.526  10.849  10.652 -0.1164 -1.5029 -0.2396
  826MOL0     C11380  10.477  10.933  10.752 -0.3687  0.1599 -0.0601
  826MOL0     C11381  10.442  11.066  10.719 -0.1828  1.2739  0.1138
  826MOL0     C11382  10.462  11.118  10.592  0.3200 -0.0163  0.5929
  826MOL0     O11383  10.417  11.247  10.571  0.7328  0.1716  0.3538
  826MOL0     C11384  10.396  11.284  10.423 -0.2098  0.6483 -0.7448
  826MOL0     C11385  10.347  11.430  10.434 -0.1827  1.0179  0.7117
  826MOL0     C11386  10.363  11.505  10.296  1.1174  0.6463 -0.0128
  826MOL0     C11387  10.321  11.651  10.309 -0.1065  0.1202 -0.0156
  826MOL0     C11388  10.453  11.731  10.340  0.3726 -0.3084 -0.4723
  826MOL0     C11389  10.428  11.887  10.350 -0.3619 -0.3931 -0.5455
  826MOL0     C11390  10.543  11.975  10.385 -0.2668  0.7907  0.6420
  826MOL0     C11391  10.498  12.120  10.429 -0.1198  0.6130 -0.4649
  826MOL0     N11392  10.404  12.174  10.330 -0.3040 -0.1192  0.7730
  826MOL0     C11393  10.266  12.162  10.338  0.2270  0.3538  0.6295
  826MOL0     C11394  10.220  12.189  10.212 -0.3228 -0.2549  0.6579
  826MOL0     C11395  10.086  12.166  10.158  0.1497  0.0257  0.4580
  826MOL0     C11396  10.049  12.017  10.156 -0.1159 -0.5866 -0.6492
  826MOL0     C11397   9.904  11.991  10.132  0.8746 -0.8138 -0.6300
  826MOL0     C11398   9.861  11.844  10.111 -0.0962  0.2365 -0.0690
  826MOL0     O11399   9.717  11.846  10.138  0.2369  0.9012  0.0398
  826MOL0     C11400   9.659  11.725  10.139  0.1344 -1.1774 -0.0583
  826MOL0     C11401   9.546  11.717  10.219 -0.3624  0.2429 -0.2055
  826MOL0     C11402   9.494  11.588  10.243  0.1543 -0.1129  0.1107
  826MOL0     C11403   9.539  11.478  10.178  0.0083 -0.0421  0.2195
  826MOL0     C11404   9.467  11.346  10.206 -0.7547  0.4875  0.9663
  826MOL0     O11405   9.363  11.351  10.287 -0.1098 -0.2018 -0.1086
  826MOL0     C11406   9.302  11.241  10.335  0.7505 -0.2189  0.7153
  826MOL0     C11407   9.264  11.127  10.257  0.3732 -0.3620 -0.5791
  826MOL0     C11408   9.178  11.033  10.316  0.9047  0.1819  0.0506
  826MOL0     C11409   9.130  11.040  10.449 -1.0545 -0.5502 -0.0756
  826MOL0     O11410   9.042  10.951  10.500  0.0599 -0.0101  0.1362
  826MOL0     C11411   9.043  10.818  10.441  0.6307  0.1511  0.5650
  826MOL0     C11412   8.954  10.729  10.523 -0.5050  0.5085 -0.5899
  826MOL0     C11413   8.907  10.601  10.447 -0.0149 -0.0871 -1.0313
  826MOL0     C11414   9.019  10.519  10.399  0.6806  1.1117 -0.5006
  826MOL0     C11415   8.971  10.376  10.362  0.8310  0.4113 -0.8770
  826MOL0     C11416   8.954  10.275  10.488  0.6082  0.3746 -0.3714
  826MOL0     C11417   8.893  10.147  10.430  0.3361  0.1518  0.4343
  826MOL0     C11418   8.877  10.044  10.531  0.0002 -0.5513 -0.3258
  826MOL0    Cl11419   8.751  10.110  10.638 -0.4472  0.1820 -0.0573
  826MOL0     C11420   9.175  11.143  10.528 -0.1426 -0.2856  0.9491
  826MOL0     C11421   9.245  11.248  10.465  0.0245  0.1392 -0.0536
  826MOL0     O11422   9.501  11.245  10.142 -1.0283  0.0566 -0.5188
  826MOL0     C11423   9.647  11.490  10.080  0.2511 -0.0288 -1.2090
  826MOL0     C11424   9.713  11.608  10.080 -0.3607 -0.7651  0.1730
  826MOL0     N11425  10.333  12.222  10.141  0.5480 -0.2981 -0.0131
  826MOL0     N11426  10.439  12.216  10.207  0.7667 -0.0899 -0.2832
  826MOL0     C11427  10.521  11.037  10.494  0.1569  0.2276  0.5304
  826MOL0     C11428  10.550  10.904  10.519 -0.6635  0.7493 -0.3145
  826MOL0     C11429  10.716  10.633  10.590  0.3785 -0.0203 -0.2036
  826MOL0     C11430  10.802  10.710  10.670 -0.6446  0.6220  1.1713
  826MOL0     C11431  10.941  10.721  10.648  0.8313  0.5357 -0.1531
  826MOL0     C11432  10.994  10.639  10.556 -0.7158  0.1414 -0.8370
  826MOL0     O11433  11.129  10.627  10.553 -0.7014 -0.7278 -0.2329
  826MOL0     C11434  11.182  10.491  10.555 -1.0493 -0.5978  0.1999
  826MOL0     C11435  11.285  10.485  10.666  0.1393  0.2036  0.0271
  826MOL0     C11436  11.289  10.342  10.722  0.4671 -0.1689 -0.5752
  826MOL0     C11437  11.398  10.319  10.833 -0.0197  0.5865  0.5714
  826MOL0     C11438  11.384  10.196  10.920 -0.2030  1.2656  0.7892
  826MOL0     C11439  11.388  10.096  10.992 -0.5069  0.7698  0.1848
  826MOL0     C11440  10.913  10.554  10.467 -0.5308 -0.0557 -0.2417
  826MOL0     C11441  10.774  10.560  10.477 -0.6020  0.9027 -0.4896
  826MOL0     C11442  10.695  10.487  10.367 -0.4258  1.0586  0.1226
  826MOL0     H11443  10.453  10.897  10.852 -3.2884 -0.1305 -0.7912
  826MOL0     H11444  10.400  11.139  10.788 -1.7558  2.1800 -1.6905
  826MOL0     H11445  10.493  11.273  10.375  1.9470  1.8503  2.9169
  826MOL0     H11446  10.334  11.216  10.364  1.9776 -2.3431  0.1684
  826MOL0     H11447  10.390  11.488  10.516  0.6619  0.0792  0.9633
  826MOL0     H11448  10.240  11.422  10.458 -0.5599  0.5927 -0.9950
  826MOL0     H11449  10.293  11.466  10.221  1.1596  1.5111 -0.5121
  826MOL0     H11450  10.467  11.498  10.265  0.8919  1.1406 -0.9378
  826MOL0     H11451  10.278  11.690  10.217 -0.1100  0.4614  0.1283
  826MOL0     H11452  10.245  11.653  10.388  1.3060 -1.5778  1.5021
  826MOL0     H11453  10.480  11.706  10.443  0.5361 -0.7614 -0.6185
  826MOL0     H11454  10.534  11.699  10.274 -0.9538 -1.7933 -1.4602
  826MOL0     H11455  10.381  11.923  10.258  1.8121  2.0942 -0.7794
  826MOL0     H11456  10.357  11.907  10.431 -0.8280 -0.9291 -0.8125
  826MOL0     H11457  10.620  11.975  10.307  1.9701 -0.7549  2.6714
  826MOL0     H11458  10.597  11.929  10.469 -1.1583 -1.0116  0.2783
  826MOL0     H11459  10.472  12.119  10.535  0.8806 -0.6628 -0.2079
  826MOL0     H11460  10.586  12.186  10.426 -0.9104  1.8248  1.5883
  826MOL0     H11461  10.216  12.118  10.424  0.3884 -2.2389 -0.5224
  826MOL0     H11462  10.020  12.230  10.218  2.1995  0.7641  2.0537
  826MOL0     H11463  10.080  12.218  10.062  0.8990  7.8213  3.8248
  826MOL0     H11464  10.098  11.971  10.069 -1.2454  2.5724 -3.1621
  826MOL0     H11465  10.083  11.972  10.250  0.1763 -0.1077 -0.5167
  826MOL0     H11466   9.880  12.045  10.039  2.1786  0.2692 -0.3644
  826MOL0     H11467   9.842  12.023  10.216  0.0338  1.8096 -2.1353
  826MOL0     H11468   9.917  11.782  10.181  0.8356  1.0041 -0.1165
  826MOL0     H11469   9.872  11.810  10.008 -0.1502 -5.5303  1.4874
  826MOL0     H11470   9.510  11.801  10.277  0.2405  1.1814 -1.1573
  826MOL0     H11471   9.419  11.593  10.321  0.8440 -0.2986  0.7984
  826MOL0     H11472   9.265  11.123  10.148 -1.4070  1.7891 -0.7585
  826MOL0     H11473   9.141  10.961  10.244 -0.3158  1.3130 -0.5152
  826MOL0     H11474   9.008  10.821  10.337 -0.4830  1.6108  0.9486
  826MOL0     H11475   9.144  10.779  10.441  0.4247 -0.5586 -1.8858
  826MOL0     H11476   9.013  10.691  10.607  1.2838  1.3331 -1.4194
  826MOL0     H11477   8.876  10.783  10.576 -2.8861 -1.2393 -2.1378
  826MOL0     H11478   8.856  10.544  10.525  2.3187 -1.0584 -0.1076
  826MOL0     H11479   8.827  10.617  10.374  0.1953  0.1827 -1.2077
  826MOL0     H11480   9.098  10.518  10.474 -1.4954  1.6876  1.9473
  826MOL0     H11481   9.049  10.572  10.308  1.0088  2.2458  0.2557
  826MOL0     H11482   9.035  10.334  10.284 -0.9937 -0.4356 -1.9902
  826MOL0     H11483   8.869  10.387  10.324  0.2892  0.7821  0.5929
  826MOL0     H11484   9.050  10.244  10.531  1.6910 -0.6710 -3.3525
  826MOL0     H11485   8.878  10.317  10.554  1.1061  6.1202 -2.8863
  826MOL0     H11486   8.957  10.108  10.350  0.5288  0.2648  0.5333
  826MOL0     H11487   8.794  10.161  10.386 -1.0900 -1.2246  2.9480
  826MOL0     H11488   8.852   9.948  10.487 -1.3746 -0.6562  0.6157
  826MOL0     H11489   8.972  10.025  10.581 -0.3510 -0.6912  0.2925
  826MOL0     H11490   9.146  11.136  10.632  1.2104 -3.1567  1.2348
  826MOL0     H11491   9.273  11.331  10.529  0.1889  0.1076 -0.0814
  826MOL0     H11492   9.674  11.398  10.030  2.3930 -0.6946  1.0158
  826MOL0     H11493   9.801  11.617  10.017  0.6805  0.8051  1.7271
  826MOL0     H11494  10.532  11.059  10.388  1.6951 -1.0453  0.3882
  826MOL0     H11495  10.561  10.832  10.439 -0.5042  0.2010  0.1875
  826MOL0     H11496  10.760  10.766  10.753 -5.2638 -0.0601 -0.4231
  826MOL0     H11497  11.011  10.777  10.709  2.9382 -1.7918 -0.2336
  826MOL0     H11498  11.235  10.473  10.461 -1.1353 -3.4727  0.6148
  826MOL0     H11499  11.101  10.418  10.562 -0.1397 -1.7696 -1.0351
  826MOL0     H11500  11.248  10.549  10.747 -1.0442 -0.4169  0.0021
  826MOL0     H11501  11.389  10.511  10.644  1.7173 -2.3640  3.3619
  826MOL0     H11502  11.313  10.265  10.648 -1.8486 -2.7691  1.1878
  826MOL0     H11503  11.194  10.309  10.765  1.7906 -1.8145  1.3135
  826MOL0     H11504  11.495  10.314  10.781 -0.6015 -0.4286 -0.4785
  826MOL0     H11505  11.406  10.410  10.893 -1.0961  0.3470  1.0935
  826MOL0     H11506  11.383  10.007  11.052  0.8910 -0.0570 -0.8591
  826MOL0     H11507  10.963  10.490  10.395  0.4563 -0.3305  0.6658
  826MOL0     H11508  10.654  10.395  10.409  0.6592 -0.3841 -1.8467
  826MOL0     H11509  10.625  10.559  10.324 -1.8175  0.7854  1.8063
  826MOL0     H11510  10.763  10.454  10.288  1.5844 -0.5702  2.3885
  827MOL0     O11511   2.472   6.425   7.947  0.5990 -0.4527 -0.8199
  827MOL0     C11512   2.352   6.452   7.930 -0.1570  1.0284 -0.1147
  827MOL0     O11513   2.288   6.472   7.806 -0.6099 -0.1909  0.5151
  827MOL0     C11514   2.368   6.488   7.701  0.7963  0.0571  0.3818
  827MOL0     C11515   2.459   6.389   7.664 -0.3110 -0.5011  0.1296
  827MOL0     C11516   2.548   6.408   7.558 -0.8966 -0.6260 -0.7240
  827MOL0     C11517   2.553   6.528   7.484 -0.9622  0.5202  0.5932
  827MOL0     O11518   2.638   6.528   7.376  0.8443  0.1035 -0.3574
  827MOL0     C11519   2.675   6.650   7.312 -0.0196 -0.5977  0.3068
  827MOL0     C11520   2.746   6.634   7.176  0.4022 -0.2781  0.8663
  827MOL0     C11521   2.894   6.594   7.195  0.8898  0.3483  0.4810
  827MOL0     C11522   2.951   6.532   7.064  0.1052 -0.1755 -0.5558
  827MOL0     C11523   3.096   6.492   7.085 -0.3150  0.3768  0.1913
  827MOL0     C11524   3.110   6.375   7.183  0.1679  0.6795 -0.8510
  827MOL0     C11525   3.256   6.344   7.231  0.0112  0.7214 -0.5741
  827MOL0     C11526   3.304   6.438   7.345  0.1251 -0.7562 -0.1610
  827MOL0     N11527   3.448   6.404   7.365 -0.3763 -0.0724  0.2182
  827MOL0     C11528   3.499   6.290   7.426 -0.9033 -0.3041 -0.0044
  827MOL0     C11529   3.639   6.304   7.400  0.3898 -1.0284  0.4734
  827MOL0     C11530   3.755   6.207   7.434  1.0370 -0.3606 -0.4313
  827MOL0     C11531   3.721   6.138   7.569  0.6618 -1.3493 -0.4145
  827MOL0     C11532   3.723   6.238   7.693 -0.4204 -0.2675  0.1836
  827MOL0     C11533   3.836   6.343   7.687  0.8373 -0.0253  1.5181
  827MOL0     O11534   3.827   6.449   7.789 -0.7396 -0.6459 -0.1772
  827MOL0     C11535   3.724   6.545   7.768 -0.3758  0.1712 -0.6067
  827MOL0     C11536   3.710   6.643   7.867  0.3846  0.1038 -0.3426
  827MOL0     C11537   3.600   6.731   7.864 -0.3956 -0.4869  0.3471
  827MOL0     C11538   3.513   6.737   7.749 -0.1445  0.0513  0.1287
  827MOL0     C11539   3.388   6.822   7.736 -0.2813 -0.2869 -1.0968
  827MOL0     O11540   3.325   6.829   7.616  0.9781  0.1705  0.2606
  827MOL0     C11541   3.230   6.929   7.592 -0.5767 -0.3240 -0.0022
  827MOL0     C11542   3.272   7.060   7.599 -0.2492 -0.3265 -0.5250
  827MOL0     C11543   3.175   7.148   7.547 -1.3330 -0.1310  0.7735
  827MOL0     C11544   3.047   7.114   7.500  0.1178  0.3958  0.3769
  827MOL0     O11545   2.973   7.212   7.429  0.3629 -0.0824 -0.0831
  827MOL0     C11546   2.828   7.219   7.444 -0.0611 -0.3240 -0.2184
  827MOL0     C11547   2.780   7.281   7.579 -0.0399  0.4926  1.0154
  827MOL0     C11548   2.816   7.432   7.606  0.0689 -0.9111 -0.1113
  827MOL0     C11549   2.772   7.502   7.743  0.2043  0.3209 -0.4202
  827MOL0     C11550   2.831   7.446   7.878  0.6125  0.4066 -0.3876
  827MOL0     C11551   2.969   7.477   7.916 -0.7076 -0.4869  0.4232
  827MOL0     C11552   3.015   7.395   8.040  0.0974  0.5194 -0.5397
  827MOL0     C11553   3.020   7.245   8.030 -0.0935  1.0307 -0.5534
  827MOL0    Cl11554   3.147   7.213   7.904 -0.0392 -0.2448 -0.1710
  827MOL0     C11555   3.010   6.973   7.507  0.3778 -2.0384 -0.8895
  827MOL0     C11556   3.103   6.877   7.551  0.2527 -0.0605 -0.4182
  827MOL0     O11557   3.342   6.877   7.839 -0.4719  0.0610 -0.5911
  827MOL0     C11558   3.548   6.659   7.631  0.3797  0.1921  0.1707
  827MOL0     C11559   3.646   6.562   7.646  0.8012 -0.4300  0.4939
  827MOL0     N11560   3.656   6.420   7.322 -0.1373 -0.1672 -0.5825
  827MOL0     N11561   3.549   6.483   7.306  0.5263  0.4949 -0.1904
  827MOL0     C11562   2.459   6.626   7.513 -0.4905  0.0448  0.1256
  827MOL0     C11563   2.372   6.602   7.618 -0.9392  0.2412 -0.2633
  827MOL0     C11564   2.271   6.458   8.052  0.1745 -0.2533  0.5291
  827MOL0     C11565   2.132   6.434   8.039 -0.5754 -0.4121  0.0058
  827MOL0     C11566   2.046   6.445   8.144 -0.6433  0.1776 -0.3755
  827MOL0     C11567   2.098   6.477   8.274  0.9607 -0.1523  0.1330
  827MOL0     O11568   2.028   6.466   8.390 -0.1733 -0.5634 -0.6281
  827MOL0     C11569   1.883   6.471   8.391  0.9411 -0.9607 -0.9470
  827MOL0     C11570   1.822   6.468   8.534  0.8061  0.1614 -0.1109
  827MOL0     C11571   1.836   6.607   8.602  0.4416  0.9887  0.0317
  827MOL0     C11572   1.990   6.627   8.652  0.6871 -0.4091  0.6862
  827MOL0     C11573   1.992   6.759   8.725  0.3095 -0.4061  0.2719
  827MOL0     C11574   2.000   6.874   8.776  0.3527  0.1727  0.9998
  827MOL0     C11575   2.234   6.513   8.288  0.1800  0.1388  0.4435
  827MOL0     C11576   2.325   6.505   8.177  0.2352  0.7301  0.0863
  827MOL0     C11577   2.457   6.560   8.203 -0.3918 -0.0984  0.5685
  827MOL0     H11578   2.456   6.298   7.723  3.6820  1.7029  4.3669
  827MOL0     H11579   2.612   6.322   7.540  1.0186  0.3653  1.0683
  827MOL0     H11580   2.592   6.717   7.289  0.6204  0.0780 -0.1044
  827MOL0     H11581   2.746   6.696   7.382 -0.3233  0.7091 -0.2236
  827MOL0     H11582   2.753   6.731   7.126  2.6162 -1.0060 -0.3536
  827MOL0     H11583   2.686   6.575   7.106  2.9659  0.5806 -2.2638
  827MOL0     H11584   2.880   6.519   7.274 -3.3487  0.5847  0.1369
  827MOL0     H11585   2.965   6.673   7.221  0.6691  0.5086  0.5948
  827MOL0     H11586   2.896   6.444   7.031  2.6112 -1.8030 -0.6159
  827MOL0     H11587   2.954   6.610   6.986  1.3693 -0.2937 -0.6483
  827MOL0     H11588   3.149   6.460   6.995 -0.4505 -1.4235  0.7138
  827MOL0     H11589   3.153   6.581   7.114  0.3667  1.1304 -3.1063
  827MOL0     H11590   3.045   6.395   7.269 -3.5060  0.3358 -3.3058
  827MOL0     H11591   3.064   6.289   7.133 -2.3736 -0.0045  2.2855
  827MOL0     H11592   3.333   6.360   7.155 -0.2682  0.7516 -0.8493
  827MOL0     H11593   3.257   6.242   7.272 -1.6780  0.6378 -0.6651
  827MOL0     H11594   3.312   6.540   7.308 -1.4407 -1.6390 -3.4129
  827MOL0     H11595   3.249   6.424   7.439  1.9407  1.1739  1.2694
  827MOL0     H11596   3.441   6.206   7.464 -3.0732  0.2033 -1.9828
  827MOL0     H11597   3.761   6.128   7.359 -1.4916  0.0844 -1.2021
  827MOL0     H11598   3.855   6.250   7.439  2.3352 -2.5942 -3.7248
  827MOL0     H11599   3.618   6.105   7.554 -0.4890  0.3279  2.8224
  827MOL0     H11600   3.776   6.049   7.600 -2.1351 -3.0662  0.0479
  827MOL0     H11601   3.732   6.173   7.780 -2.1194  0.9759  1.3416
  827MOL0     H11602   3.625   6.286   7.697  0.2453  1.1429  0.0990
  827MOL0     H11603   3.829   6.380   7.584  1.1523 -3.8296 -0.0694
  827MOL0     H11604   3.933   6.292   7.682  0.3502 -0.8854 -0.7287
  827MOL0     H11605   3.774   6.655   7.954  1.0219  1.9025 -1.0101
  827MOL0     H11606   3.579   6.797   7.947 -1.7088 -1.4896  0.8506
  827MOL0     H11607   3.370   7.096   7.626  0.2792 -1.4783 -0.8591
  827MOL0     H11608   3.182   7.253   7.522 -3.1734  0.5168  2.6732
  827MOL0     H11609   2.782   7.273   7.360 -4.3907  1.3645  2.8433
  827MOL0     H11610   2.791   7.116   7.445  0.7320 -0.6153  0.6561
  827MOL0     H11611   2.671   7.270   7.573 -0.0478  0.8789 -3.5348
  827MOL0     H11612   2.816   7.206   7.650 -1.1844  1.3215  2.5410
  827MOL0     H11613   2.923   7.457   7.606 -1.0537  5.3812 -0.1743
  827MOL0     H11614   2.763   7.486   7.527 -2.3243 -2.2248  0.5225
  827MOL0     H11615   2.663   7.497   7.751  0.2386 -2.6554 -0.7618
  827MOL0     H11616   2.805   7.606   7.739  0.1542  0.3088 -1.2128
  827MOL0     H11617   2.832   7.337   7.870  0.6632  0.1710  1.9721
  827MOL0     H11618   2.773   7.474   7.967  0.2655  0.2102 -0.5488
  827MOL0     H11619   3.037   7.472   7.831 -0.6464  1.8722  0.2545
  827MOL0     H11620   2.964   7.584   7.942 -0.7409 -0.3231 -0.2549
  827MOL0     H11621   2.954   7.421   8.126  0.9123 -0.1837  0.2762
  827MOL0     H11622   3.121   7.419   8.056  0.9054 -2.4952 -0.7049
  827MOL0     H11623   3.049   7.206   8.128  0.1703  2.8472  0.1412
  827MOL0     H11624   2.930   7.190   8.001  1.7936 -1.9587 -1.2118
  827MOL0     H11625   2.908   6.945   7.480 -1.3669 -0.4519  3.1461
  827MOL0     H11626   3.095   6.770   7.534  2.4967 -0.2181 -0.8268
  827MOL0     H11627   3.498   6.651   7.535  1.7771 -0.8335 -0.5085
  827MOL0     H11628   3.655   6.502   7.556 -2.7565  3.2237 -2.7259
  827MOL0     H11629   2.457   6.721   7.460 -0.3838  0.2445  0.4769
  827MOL0     H11630   2.309   6.684   7.651 -0.3453  0.5347  0.1586
  827MOL0     H11631   2.091   6.402   7.944 -1.5248 -0.8007  0.5378
  827MOL0     H11632   1.945   6.407   8.144  0.2529 -2.5035 -2.3451
  827MOL0     H11633   1.853   6.380   8.339  3.5368 -1.6225 -1.3774
  827MOL0     H11634   1.823   6.548   8.341  0.9421  0.8214  1.6015
  827MOL0     H11635   1.859   6.376   8.581 -1.7469 -2.8434 -3.3139
  827MOL0     H11636   1.714   6.457   8.519  0.8277  1.9963 -1.9653
  827MOL0     H11637   1.772   6.613   8.691  1.3532 -0.6831  0.8454
  827MOL0     H11638   1.809   6.686   8.531 -1.8808 -0.4188 -0.7766
  827MOL0     H11639   2.008   6.540   8.715  1.3015 -1.4332 -0.8526
  827MOL0     H11640   2.063   6.628   8.570 -1.0185 -2.1550 -0.9911
  827MOL0     H11641   2.008   6.972   8.818  3.3321  0.7868 -0.7379
  827MOL0     H11642   2.275   6.532   8.386  3.2602  0.3186 -0.7740
  827MOL0     H11643   2.447   6.618   8.296 -1.1391 -0.4099  0.6929
  827MOL0     H11644   2.524   6.474   8.200  0.3638  0.5041 -0.5268
  827MOL0     H11645   2.498   6.620   8.122  1.5586 -1.6578  0.3296
  828MOL0     O11646  10.501   6.593   0.675  0.3290  0.4881  0.4109
  828MOL0     C11647  10.449   6.695   0.719  0.0611  0.2110  0.0344
  828MOL0     O11648  10.390   6.795   0.641  0.0788  0.7766  0.9565
  828MOL0     C11649  10.391   6.783   0.504 -0.7149 -0.1888 -0.7795
  828MOL0     C11650  10.273   6.815   0.449 -0.0543  0.3202 -0.1658
  828MOL0     C11651  10.264   6.821   0.309 -0.2326  0.3806 -0.7540
  828MOL0     C11652  10.361   6.783   0.223 -0.0376 -0.2762 -0.4574
  828MOL0     O11653  10.360   6.767   0.091  0.2518  0.1115  0.2518
  828MOL0     C11654  10.236   6.730   0.035 -0.1271  0.2512 -0.1685
  828MOL0     C11655  10.191   6.591   0.087  0.1763  0.2567 -0.1224
  828MOL0     C11656  10.083   6.541  -0.000 -0.1875 -0.1349 -0.1274
  828MOL0     C11657  10.040   6.393   0.030 -0.0197  0.1664  0.1952
  828MOL0     C11658  10.002   6.298  -0.088  0.0188 -0.5731  0.4593
  828MOL0     C11659   9.901   6.362  -0.196  0.9275  0.4449 -0.0651
  828MOL0     C11660   9.756   6.391  -0.142 -0.4715  0.5324  1.0267
  828MOL0     C11661   9.647   6.404  -0.253  0.0680  0.9686  0.2609
  828MOL0     N11662   9.667   6.520  -0.338  0.7273 -0.5550 -0.2969
  828MOL0     C11663   9.731   6.522  -0.455  0.5967 -0.6165  0.2033
  828MOL0     C11664   9.739   6.655  -0.494 -0.5207  0.9362  0.3017
  828MOL0     C11665   9.814   6.708  -0.608  0.3137  0.4687 -0.5541
  828MOL0     C11666   9.713   6.731  -0.726 -0.4050  0.3584 -0.0459
  828MOL0     C11667   9.776   6.782  -0.857 -0.5475 -0.3370 -0.7540
  828MOL0     C11668   9.694   6.816  -0.973  1.1460 -0.2012  0.0960
  828MOL0     O11669   9.755   6.852  -1.089 -1.1084 -0.0778 -0.5262
  828MOL0     C11670   9.843   6.762  -1.149 -0.0928  0.7959 -0.0675
  828MOL0     C11671   9.815   6.623  -1.179 -0.9559  0.1805  0.3432
  828MOL0     C11672   9.894   6.544  -1.273  1.9520  0.2929 -0.7191
  828MOL0     C11673  10.009   6.605  -1.335 -0.4375 -0.9095 -1.2579
  828MOL0     C11674  10.109   6.521  -1.405 -0.7649 -0.2809  0.7305
  828MOL0     O11675  10.088   6.383  -1.394 -0.7952  0.1306  0.2614
  828MOL0     C11676  10.179   6.301  -1.451 -0.8057  0.1185 -0.3000
  828MOL0     C11677  10.237   6.197  -1.381  0.2285  0.8021 -0.1884
  828MOL0     C11678  10.339   6.124  -1.427 -1.1045  0.8654  0.3581
  828MOL0     C11679  10.397   6.153  -1.550  0.1489 -0.7224  0.1780
  828MOL0     O11680  10.510   6.091  -1.590 -0.0098  0.0220 -0.2272
  828MOL0     C11681  10.623   6.167  -1.583 -0.3198  0.1859 -0.4508
  828MOL0     C11682  10.667   6.187  -1.438 -0.1455  0.2335  0.5274
  828MOL0     C11683  10.737   6.056  -1.379  0.0206  0.5494 -0.6845
  828MOL0     C11684  10.790   6.106  -1.243 -0.0312  1.7666  0.1167
  828MOL0     C11685  10.851   5.980  -1.170  0.3552 -0.1873 -0.4116
  828MOL0     C11686  10.921   6.009  -1.036 -1.4004 -0.3791 -0.3516
  828MOL0     C11687  11.063   6.074  -1.046 -0.6774  0.3739  0.8051
  828MOL0     C11688  11.109   6.099  -0.908 -0.3759  0.5552  0.2919
  828MOL0    Cl11689  11.146   5.942  -0.825  0.2932 -0.0678 -0.4124
  828MOL0     C11690  10.340   6.250  -1.626  1.2353 -0.6993  0.3494
  828MOL0     C11691  10.225   6.320  -1.580 -0.0982  0.2360  0.0210
  828MOL0     O11692  10.188   6.585  -1.475 -0.5756 -0.3391  0.3834
  828MOL0     C11693  10.026   6.747  -1.320  0.6578  0.3929  0.3065
  828MOL0     C11694   9.949   6.824  -1.227  0.6269 -0.1083  0.4065
  828MOL0     N11695   9.676   6.728  -0.394  0.3482  0.7491 -0.2082
  828MOL0     N11696   9.631   6.640  -0.304  1.2387 -0.3903 -0.2773
  828MOL0     C11697  10.486   6.753   0.285  0.4090 -1.0100 -0.2418
  828MOL0     C11698  10.504   6.757   0.425 -0.2140 -0.4048 -0.4751
  828MOL0     C11699  10.461   6.715   0.860 -0.9492  1.1497 -0.6129
  828MOL0     C11700  10.461   6.844   0.908 -0.1732 -0.1889  0.8106
  828MOL0     C11701  10.470   6.861   1.045 -0.8011 -0.2334 -0.3232
  828MOL0     C11702  10.467   6.764   1.136 -0.0949 -0.0045 -0.1214
  828MOL0     O11703  10.436   6.790   1.268  0.1071  0.8152  0.3711
  828MOL0     C11704  10.527   6.757   1.373  0.4432  0.4519 -0.0298
  828MOL0     C11705  10.444   6.720   1.497  0.2630  0.0876 -0.0076
  828MOL0     C11706  10.369   6.591   1.485 -0.2729  0.7982  0.1535
  828MOL0     C11707  10.453   6.464   1.532 -0.0756 -1.3969  0.5737
  828MOL0     C11708  10.535   6.408   1.420  0.4155  0.3254 -0.3409
  828MOL0     C11709  10.588   6.355   1.332 -0.5650  0.1147  1.0851
  828MOL0     C11710  10.455   6.631   1.089 -0.5935 -0.4217  0.1779
  828MOL0     C11711  10.453   6.605   0.954 -0.3841  0.1739 -0.5327
  828MOL0     C11712  10.437   6.461   0.917  0.3957  0.2971  0.5139
  828MOL0     H11713  10.187   6.854   0.503  0.4140  2.0442 -0.5947
  828MOL0     H11714  10.168   6.846   0.264 -0.5611  0.9230  0.2087
  828MOL0     H11715  10.167   6.812   0.057 -1.0588 -0.1875 -1.3118
  828MOL0     H11716  10.244   6.716  -0.074 -1.7608  1.3786 -0.4723
  828MOL0     H11717  10.157   6.599   0.191  1.6199 -1.4341  0.5232
  828MOL0     H11718  10.276   6.523   0.081 -0.5100 -0.8498  1.8384
  828MOL0     H11719  10.124   6.540  -0.102 -0.6471  1.5698 -0.3740
  828MOL0     H11720   9.996   6.607  -0.009 -0.0595 -0.1846 -2.3873
  828MOL0     H11721  10.119   6.338   0.083  1.1193 -0.7439 -2.2718
  828MOL0     H11722   9.952   6.395   0.095  0.1693 -0.8056  0.5103
  828MOL0     H11723  10.090   6.255  -0.135  0.3284 -1.2022  1.5724
  828MOL0     H11724   9.942   6.214  -0.051 -0.6832 -1.6494 -2.8282
  828MOL0     H11725   9.936   6.444  -0.261  0.6582 -1.6107 -3.0128
  828MOL0     H11726   9.900   6.280  -0.268  1.4986  2.0944 -2.0566
  828MOL0     H11727   9.759   6.483  -0.082 -1.0474  3.1248 -2.6051
  828MOL0     H11728   9.734   6.304  -0.080  0.6789 -1.5951 -1.3913
  828MOL0     H11729   9.658   6.320  -0.322  3.2335  0.6673  0.9632
  828MOL0     H11730   9.550   6.408  -0.203 -0.2932  3.3509 -0.4731
  828MOL0     H11731   9.776   6.449  -0.522 -0.6267 -0.3900 -0.9077
  828MOL0     H11732   9.852   6.809  -0.595 -3.5090  2.0475 -0.4042
  828MOL0     H11733   9.898   6.650  -0.648 -0.0524 -1.2698  1.0629
  828MOL0     H11734   9.645   6.647  -0.741  0.7623 -0.5121 -0.6061
  828MOL0     H11735   9.649   6.814  -0.695 -1.7144 -0.7012  0.1684
  828MOL0     H11736   9.851   6.708  -0.888 -0.5470 -2.0693  2.8421
  828MOL0     H11737   9.839   6.869  -0.835 -2.1374  0.0823  2.7005
  828MOL0     H11738   9.629   6.901  -0.950 -0.0519 -0.9438 -0.3935
  828MOL0     H11739   9.627   6.736  -1.007  2.7514 -0.8087 -1.8130
  828MOL0     H11740   9.722   6.589  -1.134  0.2024 -2.3933  0.9800
  828MOL0     H11741   9.859   6.443  -1.291 -0.4139  0.6154  1.5130
  828MOL0     H11742  10.202   6.176  -1.281 -0.3259 -1.6961 -0.8388
  828MOL0     H11743  10.383   6.049  -1.361  2.6979  3.4625  1.1108
  828MOL0     H11744  10.702   6.127  -1.649  0.3361  0.3949  0.2021
  828MOL0     H11745  10.600   6.263  -1.630  1.7600  1.1085  0.3109
  828MOL0     H11746  10.736   6.271  -1.436 -1.7043  1.6101 -0.6430
  828MOL0     H11747  10.588   6.226  -1.373 -0.5217  0.5253 -0.0956
  828MOL0     H11748  10.667   5.975  -1.358  2.3644 -1.2960  0.5671
  828MOL0     H11749  10.814   6.008  -1.440  0.0799 -0.1938 -0.0410
  828MOL0     H11750  10.706   6.148  -1.185  0.5261  0.8732  1.6306
  828MOL0     H11751  10.865   6.186  -1.243 -0.8281  2.5254  0.3600
  828MOL0     H11752  10.900   5.910  -1.238 -4.5270 -1.9112 -2.6433
  828MOL0     H11753  10.762   5.922  -1.142 -0.8393  2.6206  2.0715
  828MOL0     H11754  10.856   6.067  -0.969 -0.2603 -0.2874  0.7269
  828MOL0     H11755  10.926   5.906  -1.001  1.3272 -0.4037 -0.5667
  828MOL0     H11756  11.060   6.168  -1.102 -0.3683  0.6560  1.2606
  828MOL0     H11757  11.141   6.013  -1.094 -0.7773 -0.0647  1.1884
  828MOL0     H11758  11.193   6.168  -0.894 -0.6416  0.7962  0.7179
  828MOL0     H11759  11.025   6.151  -0.862  1.3195  1.1549  2.9076
  828MOL0     H11760  10.369   6.289  -1.723 -0.9117  1.0899  0.3560
  828MOL0     H11761  10.181   6.397  -1.642 -1.5018  0.7400  1.5451
  828MOL0     H11762  10.105   6.804  -1.368  1.2071  0.8111  1.6468
  828MOL0     H11763   9.962   6.932  -1.227 -0.7271  0.2694 -3.9739
  828MOL0     H11764  10.571   6.738   0.218  1.6913  4.9867 -0.4725
  828MOL0     H11765  10.597   6.735   0.477 -0.2324 -0.1628 -0.3393
  828MOL0     H11766  10.461   6.933   0.845  3.4560 -1.9899 -2.1148
  828MOL0     H11767  10.472   6.961   1.088  0.2330  0.9814 -2.9663
  828MOL0     H11768  10.584   6.849   1.391  0.4840  0.3170  0.5376
  828MOL0     H11769  10.596   6.686   1.326 -0.8253  1.1750 -3.2855
  828MOL0     H11770  10.366   6.797   1.507 -1.0945 -1.0534 -1.3387
  828MOL0     H11771  10.507   6.720   1.587 -0.9207 -0.3003  0.8421
  828MOL0     H11772  10.328   6.571   1.386 -0.4696  0.0606  0.3855
  828MOL0     H11773  10.282   6.618   1.545 -1.9514 -0.4976 -1.5915
  828MOL0     H11774  10.522   6.483   1.615  2.4938 -0.4547 -1.6172
  828MOL0     H11775  10.395   6.376   1.559 -0.3088 -1.3480  0.2418
  828MOL0     H11776  10.644   6.309   1.253 -1.3307  3.0574 -1.3677
  828MOL0     H11777  10.460   6.550   1.161  3.6435 -1.7952 -1.3953
  828MOL0     H11778  10.352   6.463   0.848  0.2303  1.3286  0.7366
  828MOL0     H11779  10.532   6.428   0.874  0.1880 -0.7201  0.7930
  828MOL0     H11780  10.420   6.402   1.008  1.3693  2.5906  2.2847
  829MOL0     O11781   6.453   1.289   0.679  0.5158 -0.3132 -1.2563
  829MOL0     C11782   6.551   1.232   0.641  0.0157  0.5699  0.6675
  829MOL0     O11783   6.553   1.130   0.558  0.3177  0.0665 -0.3072
  829MOL0     C11784   6.436   1.068   0.526 -0.4754  0.5756 -0.5119
  829MOL0     C11785   6.426   0.935   0.562  0.3675 -0.1727 -0.4353
  829MOL0     C11786   6.328   0.852   0.526  1.1714 -1.1254 -0.2546
  829MOL0     C11787   6.232   0.892   0.437  0.1743 -0.2974 -0.6450
  829MOL0     O11788   6.142   0.797   0.406 -0.0209 -0.1246  0.7380
  829MOL0     C11789   6.117   0.784   0.268  0.1329  0.8108 -0.4402
  829MOL0     C11790   6.006   0.673   0.249 -0.2951 -0.3628 -0.1068
  829MOL0     C11791   5.878   0.699   0.331 -0.0472 -0.8098 -0.6805
  829MOL0     C11792   5.826   0.832   0.299 -0.5391  0.4327 -0.6693
  829MOL0     C11793   5.694   0.852   0.363  0.0734 -1.3364 -0.5991
  829MOL0     C11794   5.604   0.950   0.280  0.5459 -0.1606 -0.3853
  829MOL0     C11795   5.472   0.978   0.357 -0.5305  0.2013  0.4614
  829MOL0     C11796   5.400   1.109   0.353  0.9931  0.9897  1.1957
  829MOL0     N11797   5.482   1.227   0.391 -0.0053  0.6358 -0.3654
  829MOL0     C11798   5.502   1.268   0.525 -0.6418  0.3043  0.9559
  829MOL0     C11799   5.582   1.379   0.503 -0.4256  0.0264  0.5732
  829MOL0     C11800   5.635   1.467   0.607  0.7897 -0.3909 -0.6338
  829MOL0     C11801   5.741   1.568   0.563 -0.5900  0.2397  0.4577
  829MOL0     C11802   5.865   1.514   0.480 -0.7337 -0.9533 -0.4035
  829MOL0     C11803   5.966   1.634   0.477 -0.3991  0.5251 -0.7147
  829MOL0     O11804   5.918   1.714   0.368 -0.7632 -0.2734 -0.1284
  829MOL0     C11805   6.005   1.749   0.262 -0.8130  0.0434 -0.4972
  829MOL0     C11806   5.939   1.795   0.146 -0.7196  0.7782 -0.6637
  829MOL0     C11807   6.023   1.834   0.037  0.8172 -0.1503 -0.5915
  829MOL0     C11808   6.163   1.811   0.037  0.1109 -0.4712 -0.4044
  829MOL0     C11809   6.254   1.834  -0.077  0.3385  0.0549  0.2722
  829MOL0     O11810   6.218   1.918  -0.175 -0.2701 -0.5799 -0.4364
  829MOL0     C11811   6.271   1.923  -0.307  0.7992 -0.8582 -0.6346
  829MOL0     C11812   6.224   2.020  -0.401  0.1650  0.0331 -0.1742
  829MOL0     C11813   6.262   2.024  -0.537 -0.4584 -0.2099  0.7744
  829MOL0     C11814   6.364   1.931  -0.584  0.2015  0.5003 -0.9200
  829MOL0     O11815   6.404   1.933  -0.711  0.3631 -0.6267  0.0866
  829MOL0     C11816   6.533   1.896  -0.759 -0.1573 -0.0327 -0.4323
  829MOL0     C11817   6.563   1.969  -0.896  0.6208  0.1285 -0.5719
  829MOL0     C11818   6.600   2.117  -0.875 -0.0963  0.1449 -0.0516
  829MOL0     C11819   6.577   2.202  -0.998  0.6908 -0.4403  1.6395
  829MOL0     C11820   6.676   2.173  -1.114  0.6264 -0.6324 -0.5798
  829MOL0     C11821   6.654   2.262  -1.235 -0.2345 -0.0758 -0.2546
  829MOL0     C11822   6.768   2.236  -1.344 -0.3678  0.1698  0.0283
  829MOL0     C11823   6.736   2.123  -1.444 -0.4696  0.7853  1.5067
  829MOL0    Cl11824   6.823   2.157  -1.611  0.1628  0.0765  0.0413
  829MOL0     C11825   6.412   1.841  -0.486 -0.4540  0.2780  0.1405
  829MOL0     C11826   6.374   1.832  -0.351  1.1927 -1.2805 -0.6295
  829MOL0     O11827   6.358   1.768  -0.064 -0.1991  0.2830  0.1964
  829MOL0     C11828   6.224   1.767   0.158  0.9564  0.5387 -0.5845
  829MOL0     C11829   6.147   1.739   0.269 -0.5183 -0.1698 -0.1967
  829MOL0     N11830   5.599   1.402   0.363  0.1661 -0.5287 -0.1822
  829MOL0     N11831   5.553   1.303   0.295  0.5728 -0.2170 -0.4487
  829MOL0     C11832   6.228   1.028   0.405  0.3535 -0.0839  0.3775
  829MOL0     C11833   6.331   1.118   0.450 -1.0324 -0.1204 -0.2614
  829MOL0     C11834   6.682   1.295   0.684 -1.1159  0.5577  0.4010
  829MOL0     C11835   6.796   1.281   0.600 -0.2084  0.3477 -0.3761
  829MOL0     C11836   6.924   1.317   0.643  0.6629 -0.5474  0.6479
  829MOL0     C11837   6.950   1.369   0.768 -0.4898 -0.2757  0.2676
  829MOL0     O11838   7.067   1.411   0.809  0.7392 -0.4177 -0.5310
  829MOL0     C11839   7.187   1.354   0.769 -0.5626 -0.2838  0.0649
  829MOL0     C11840   7.283   1.467   0.750  0.1908 -0.1131 -0.7048
  829MOL0     C11841   7.304   1.547   0.882  0.1241  0.7211 -0.2677
  829MOL0     C11842   7.436   1.616   0.900  1.0858  0.2988 -0.3940
  829MOL0     C11843   7.551   1.529   0.891 -0.7627 -0.3811  0.5086
  829MOL0     C11844   7.647   1.450   0.904  0.0367  0.2098 -0.3780
  829MOL0     C11845   6.832   1.394   0.844  0.2492  0.3696 -0.7816
  829MOL0     C11846   6.698   1.357   0.811 -0.2441 -0.3300  0.4683
  829MOL0     C11847   6.581   1.370   0.907  0.6560 -0.7092  0.4107
  829MOL0     H11848   6.500   0.914   0.638 -0.0050  0.8245  0.2129
  829MOL0     H11849   6.327   0.746   0.548  1.8845 -0.5655  2.8721
  829MOL0     H11850   6.084   0.876   0.219 -0.5347 -0.2633 -2.1014
  829MOL0     H11851   6.193   0.752   0.195  0.3417 -2.4004  1.0393
  829MOL0     H11852   6.053   0.578   0.277 -0.0003 -0.4920 -1.0016
  829MOL0     H11853   5.963   0.663   0.149  0.2889 -0.7619 -0.3238
  829MOL0     H11854   5.882   0.677   0.438  0.6672 -0.5828 -0.6512
  829MOL0     H11855   5.798   0.636   0.293 -2.1101  1.9761 -1.2981
  829MOL0     H11856   5.897   0.910   0.327  1.0656 -1.7635  1.9011
  829MOL0     H11857   5.812   0.842   0.191  1.5050 -1.0856 -1.1324
  829MOL0     H11858   5.650   0.755   0.389  0.0014 -0.3466  3.6886
  829MOL0     H11859   5.714   0.893   0.462  0.9860 -3.1708  0.0240
  829MOL0     H11860   5.662   1.043   0.278 -1.5155  1.1913 -0.6470
  829MOL0     H11861   5.576   0.901   0.187 -0.7403  0.2881 -0.2615
  829MOL0     H11862   5.491   0.957   0.463 -0.0845 -2.5610 -0.0804
  829MOL0     H11863   5.394   0.905   0.332  0.1036 -0.4309  0.3039
  829MOL0     H11864   5.366   1.123   0.250 -2.4635 -0.1502  2.0697
  829MOL0     H11865   5.314   1.085   0.416  0.7526  1.6318  1.1208
  829MOL0     H11866   5.473   1.226   0.620  2.6312  0.1898  2.0266
  829MOL0     H11867   5.548   1.513   0.653  1.5999  0.9866 -0.4412
  829MOL0     H11868   5.685   1.391   0.668 -0.5321 -1.6489 -1.0619
  829MOL0     H11869   5.692   1.646   0.504  2.4830  1.7738 -0.2627
  829MOL0     H11870   5.776   1.616   0.655  0.8974 -0.6728  0.4059
  829MOL0     H11871   5.844   1.483   0.377 -3.6030  0.5330 -0.3968
  829MOL0     H11872   5.914   1.431   0.531  2.1436  1.1193  0.4408
  829MOL0     H11873   6.058   1.581   0.449 -1.6455 -0.6013 -2.9769
  829MOL0     H11874   5.974   1.686   0.572 -1.6299 -0.3383 -0.1156
  829MOL0     H11875   5.833   1.773   0.134  0.1894 -3.2567 -3.3473
  829MOL0     H11876   5.977   1.869  -0.055  2.4282 -0.9079 -1.7390
  829MOL0     H11877   6.143   2.080  -0.361  1.4032  1.9739 -0.4491
  829MOL0     H11878   6.216   2.091  -0.608 -0.3080 -0.2363  0.6524
  829MOL0     H11879   6.611   1.917  -0.684 -0.8719 -2.5259  1.1542
  829MOL0     H11880   6.532   1.790  -0.786  1.0590  0.0682 -0.9267
  829MOL0     H11881   6.655   1.922  -0.932 -0.2683 -1.4363 -0.8592
  829MOL0     H11882   6.477   1.951  -0.961 -0.1233 -0.1238  0.4600
  829MOL0     H11883   6.532   2.159  -0.800 -0.3358 -0.4674  0.0767
  829MOL0     H11884   6.704   2.129  -0.845  0.6275 -2.3689 -1.3343
  829MOL0     H11885   6.581   2.306  -0.964  1.9882  0.6486 -1.4599
  829MOL0     H11886   6.477   2.187  -1.041  2.0470 -0.1560 -1.9694
  829MOL0     H11887   6.682   2.067  -1.139  0.2559 -0.9178  0.4786
  829MOL0     H11888   6.770   2.199  -1.063 -0.7388  1.3211  1.1017
  829MOL0     H11889   6.556   2.255  -1.283 -1.3775  2.5219  1.4613
  829MOL0     H11890   6.660   2.369  -1.211 -2.6085  0.5703 -2.1139
  829MOL0     H11891   6.867   2.226  -1.300 -1.2025 -1.5117  1.6767
  829MOL0     H11892   6.780   2.326  -1.404 -1.1688  0.1784 -0.1345
  829MOL0     H11893   6.767   2.023  -1.410  0.2010  1.5806  3.3776
  829MOL0     H11894   6.628   2.126  -1.458 -0.6576 -1.1062  2.2806
  829MOL0     H11895   6.478   1.764  -0.524 -0.5772  0.0629  0.3594
  829MOL0     H11896   6.413   1.750  -0.293  1.4154 -0.6637  0.1039
  829MOL0     H11897   6.330   1.750   0.173  0.5227 -3.4098 -0.8646
  829MOL0     H11898   6.196   1.724   0.365 -0.4639  2.8806  0.3608
  829MOL0     H11899   6.151   1.073   0.344  0.1992  2.3004  2.1794
  829MOL0     H11900   6.344   1.224   0.426  0.5667 -0.1293  0.4471
  829MOL0     H11901   6.803   1.230   0.505  3.6364  1.2070 -0.7007
  829MOL0     H11902   7.004   1.315   0.570  0.2758  2.8382 -0.0308
  829MOL0     H11903   7.183   1.307   0.671 -2.5958 -0.0753  0.0036
  829MOL0     H11904   7.232   1.290   0.846  2.7837  1.9634  0.2066
  829MOL0     H11905   7.244   1.547   0.686  1.7526  0.3517 -1.1117
  829MOL0     H11906   7.375   1.415   0.724 -0.6474 -4.1229  3.2083
  829MOL0     H11907   7.295   1.471   0.960 -1.8448  1.4622  0.2802
  829MOL0     H11908   7.216   1.610   0.897 -0.6954 -0.1906 -1.0936
  829MOL0     H11909   7.452   1.687   0.818  1.5387  2.0914  1.1645
  829MOL0     H11910   7.430   1.679   0.990 -0.7967  2.2767 -1.8019
  829MOL0     H11911   7.724   1.382   0.934 -0.3790 -0.7520 -1.4417
  829MOL0     H11912   6.849   1.443   0.939  4.2769 -2.1091  0.0281
  829MOL0     H11913   6.541   1.270   0.919  0.0036 -0.5997 -0.7181
  829MOL0     H11914   6.620   1.400   1.005  1.9375 -0.3244 -0.1830
  829MOL0     H11915   6.502   1.434   0.865 -0.3101 -2.3425 -0.3300
  830MOL0     O11916   2.990   8.264   5.003  0.4922  0.3697  0.1522
  830MOL0     C11917   3.054   8.226   5.091 -0.1268  0.1658 -0.4040
  830MOL0     O11918   3.082   8.091   5.114  0.1225  0.1146  0.0523
  830MOL0     C11919   3.054   7.993   5.030 -0.0602 -0.2714  0.5015
  830MOL0     C11920   3.114   7.871   5.058  0.3227 -0.0060 -0.4371
  830MOL0     C11921   3.102   7.763   4.980 -0.9041 -0.4673  0.2745
  830MOL0     C11922   3.031   7.768   4.855 -0.3234 -0.9211 -0.2152
  830MOL0     O11923   3.034   7.644   4.782 -0.3173 -0.6611  0.2874
  830MOL0     C11924   2.958   7.621   4.669  0.2440  0.1038 -0.0240
  830MOL0     C11925   3.021   7.686   4.547  0.9891 -0.0256 -0.6665
  830MOL0     C11926   3.133   7.601   4.488  0.6196  0.2642 -0.3867
  830MOL0     C11927   3.169   7.669   4.358  0.0876  0.3080  0.3571
  830MOL0     C11928   3.301   7.619   4.300  0.2363  0.4169 -0.1688
  830MOL0     C11929   3.343   7.708   4.186 -0.6918  0.7747  0.2453
  830MOL0     C11930   3.397   7.845   4.230  0.3578  0.2008 -0.1233
  830MOL0     C11931   3.351   7.948   4.125  0.8922 -0.4903  0.3956
  830MOL0     N11932   3.427   8.068   4.135 -0.1890  0.3627 -0.0697
  830MOL0     C11933   3.524   8.119   4.224  0.5810  0.4949 -0.7691
  830MOL0     C11934   3.553   8.241   4.185 -0.3893  1.0671 -0.0414
  830MOL0     C11935   3.637   8.341   4.265  0.6327  1.0321 -0.7334
  830MOL0     C11936   3.562   8.417   4.375  0.2733 -0.9296  0.6269
  830MOL0     C11937   3.659   8.528   4.446  0.2659 -0.1467  0.5750
  830MOL0     C11938   3.559   8.614   4.532 -0.2990 -0.1318  0.4497
  830MOL0     O11939   3.570   8.753   4.492  0.2731 -0.7574 -0.3043
  830MOL0     C11940   3.619   8.843   4.580 -0.9309 -0.4355  0.9408
  830MOL0     C11941   3.545   8.952   4.610 -0.8172 -0.0382 -0.0458
  830MOL0     C11942   3.603   9.050   4.688  0.1385 -0.3328  0.8587
  830MOL0     C11943   3.726   9.041   4.738 -0.0093 -0.2262 -0.9074
  830MOL0     C11944   3.779   9.144   4.830  0.1686  0.4702  0.6500
  830MOL0     O11945   3.865   9.111   4.931  0.5882 -0.3518  0.3329
  830MOL0     C11946   3.923   9.215   5.006 -0.5924 -0.6164  0.1603
  830MOL0     C11947   3.851   9.324   5.057 -0.2001 -0.6379  0.1100
  830MOL0     C11948   3.915   9.417   5.136  0.2877  0.0500 -0.2375
  830MOL0     C11949   4.047   9.403   5.180  0.9525 -0.7691 -0.1968
  830MOL0     O11950   4.118   9.505   5.258  0.3768  0.1821  0.7910
  830MOL0     C11951   4.056   9.611   5.332  0.7608 -0.0704  0.1378
  830MOL0     C11952   4.140   9.666   5.445 -0.1089 -0.5297  0.3300
  830MOL0     C11953   4.256   9.762   5.409  0.6908 -0.2090  0.1629
  830MOL0     C11954   4.342   9.790   5.533 -0.1181 -0.1116  0.6227
  830MOL0     C11955   4.471   9.885   5.503 -0.2100  1.1933 -0.2272
  830MOL0     C11956   4.571   9.829   5.403  0.1410  0.3255  0.1029
  830MOL0     C11957   4.705   9.906   5.388 -0.3023  0.3632  0.3035
  830MOL0     C11958   4.699  10.038   5.319  0.3913 -0.6398  0.6250
  830MOL0    Cl11959   4.842  10.128   5.348 -0.1074  0.1626 -0.2541
  830MOL0     C11960   4.114   9.294   5.126 -0.4689  0.0872 -0.5681
  830MOL0     C11961   4.054   9.203   5.046  0.5526 -0.2052  0.4095
  830MOL0     O11962   3.719   9.251   4.809 -0.1788 -0.0336  0.3008
  830MOL0     C11963   3.797   8.918   4.704  0.8054  0.3988 -0.6397
  830MOL0     C11964   3.746   8.818   4.633 -0.4393  0.2646  0.7384
  830MOL0     N11965   3.481   8.271   4.071 -0.3652  0.5262 -0.2205
  830MOL0     N11966   3.409   8.164   4.051 -0.1881 -0.4984  1.2821
  830MOL0     C11967   2.973   7.891   4.821 -0.8432  0.1504 -1.2696
  830MOL0     C11968   2.981   8.001   4.907  0.8977  0.9049 -0.2119
  830MOL0     C11969   3.116   8.311   5.195  1.1700  0.2036  0.4774
  830MOL0     C11970   3.221   8.263   5.273 -0.7367  0.1166  0.0281
  830MOL0     C11971   3.278   8.337   5.376 -0.1156  0.4475  0.0555
  830MOL0     C11972   3.237   8.472   5.397 -0.0949  0.4295  1.0516
  830MOL0     O11973   3.280   8.557   5.496  0.6775 -0.2409  0.1425
  830MOL0     C11974   3.410   8.532   5.554 -0.2072 -0.2774 -0.2886
  830MOL0     C11975   3.487   8.623   5.641  0.8569  0.9810  0.7746
  830MOL0     C11976   3.506   8.763   5.586  0.0160 -0.2547 -0.7507
  830MOL0     C11977   3.548   8.857   5.688  1.7449 -0.0994 -0.0101
  830MOL0     C11978   3.662   8.812   5.764 -0.2608  0.3760 -0.0120
  830MOL0     C11979   3.749   8.783   5.843  0.7785 -0.2756  0.4897
  830MOL0     C11980   3.138   8.521   5.316 -0.8294  0.2064  0.8175
  830MOL0     C11981   3.071   8.447   5.218 -0.0934 -0.2498  1.2027
  830MOL0     C11982   2.968   8.528   5.148 -0.4383 -0.7142 -0.4526
  830MOL0     H11983   3.172   7.865   5.150 -1.7093 -1.8190  0.8218
  830MOL0     H11984   3.169   7.680   5.001 -1.1805 -0.0131  3.3072
  830MOL0     H11985   2.936   7.516   4.650  0.5142  0.1444 -0.5767
  830MOL0     H11986   2.863   7.673   4.686 -0.2900 -0.8115 -0.1668
  830MOL0     H11987   3.048   7.789   4.572  0.5010 -0.3791  1.5637
  830MOL0     H11988   2.941   7.679   4.473 -0.0263 -0.0903  0.3981
  830MOL0     H11989   3.113   7.494   4.478  1.2567 -0.3727  3.4541
  830MOL0     H11990   3.214   7.597   4.562  3.7903  0.8133 -3.5886
  830MOL0     H11991   3.091   7.643   4.286  0.5502 -5.0148  1.3522
  830MOL0     H11992   3.166   7.776   4.381  0.1464  0.0743  1.5646
  830MOL0     H11993   3.376   7.622   4.380  1.2645  0.5833 -1.1131
  830MOL0     H11994   3.298   7.516   4.264  0.8851  0.5930 -0.7648
  830MOL0     H11995   3.412   7.654   4.121  0.2991  0.4013  1.5643
  830MOL0     H11996   3.254   7.723   4.124  0.1365  3.6725 -0.4036
  830MOL0     H11997   3.501   7.827   4.259 -0.5877 -3.3492  1.7002
  830MOL0     H11998   3.352   7.880   4.323 -0.0206  2.8436 -1.2234
  830MOL0     H11999   3.359   7.917   4.020 -0.0608 -1.4839  0.5990
  830MOL0     H12000   3.243   7.962   4.128  0.9012 -0.5304  0.9370
  830MOL0     H12001   3.570   8.062   4.304  2.2925  2.2902 -0.3857
  830MOL0     H12002   3.723   8.285   4.304 -2.0496 -2.1002  1.2317
  830MOL0     H12003   3.685   8.411   4.196  0.8453 -1.4071 -3.2076
  830MOL0     H12004   3.480   8.462   4.317  0.7631 -3.2955 -2.1453
  830MOL0     H12005   3.515   8.358   4.454 -1.9188  0.0712  0.1629
  830MOL0     H12006   3.704   8.592   4.369 -0.8414  3.7586  2.8963
  830MOL0     H12007   3.742   8.499   4.511  0.7152  3.1909  1.6477
  830MOL0     H12008   3.597   8.595   4.633  2.6781  1.5422 -0.2352
  830MOL0     H12009   3.456   8.580   4.522 -0.5973  0.4085  1.5691
  830MOL0     H12010   3.439   8.958   4.586 -0.9603  0.1125  0.5983
  830MOL0     H12011   3.541   9.132   4.724 -1.8815 -0.1690 -2.6000
  830MOL0     H12012   3.751   9.348   5.020  0.9485  0.9047 -2.2418
  830MOL0     H12013   3.865   9.507   5.168  2.4433  0.9914  0.6594
  830MOL0     H12014   4.021   9.691   5.266 -0.5516 -0.3077  0.5065
  830MOL0     H12015   3.972   9.563   5.385  2.8353 -1.8590  2.0089
  830MOL0     H12016   4.072   9.710   5.520  0.0868  0.8060 -0.2461
  830MOL0     H12017   4.170   9.573   5.493  0.0632 -0.8376 -0.3759
  830MOL0     H12018   4.315   9.724   5.325 -0.6197 -2.5651  0.2033
  830MOL0     H12019   4.205   9.854   5.380 -0.1858  0.3636  3.1757
  830MOL0     H12020   4.369   9.699   5.588  3.0193 -0.1067 -0.6866
  830MOL0     H12021   4.275   9.842   5.602 -2.8309 -0.0995 -1.8360
  830MOL0     H12022   4.511   9.912   5.601  0.5593  0.9219 -0.4594
  830MOL0     H12023   4.432   9.972   5.448  1.0520  2.3326  0.6158
  830MOL0     H12024   4.594   9.734   5.452 -0.1176  0.6645  0.9148
  830MOL0     H12025   4.527   9.813   5.305  2.3443  0.0888 -0.8983
  830MOL0     H12026   4.768   9.841   5.326 -0.2671 -0.4823  1.1943
  830MOL0     H12027   4.739   9.924   5.491  3.9302  3.0894 -1.2757
  830MOL0     H12028   4.679  10.023   5.213 -1.8664 -2.9992  1.2736
  830MOL0     H12029   4.611  10.094   5.355 -0.2891 -0.1133 -1.7176
  830MOL0     H12030   4.222   9.282   5.136 -0.9317 -2.5211  3.1353
  830MOL0     H12031   4.111   9.113   5.025  1.8091  0.3406  1.3643
  830MOL0     H12032   3.893   8.897   4.751  0.5929 -0.7839 -0.7053
  830MOL0     H12033   3.806   8.735   4.599 -1.6087 -0.0870 -0.5375
  830MOL0     H12034   2.938   7.907   4.719  1.2597  1.0630 -1.8961
  830MOL0     H12035   2.925   8.090   4.878  0.8083  1.2856  1.0858
  830MOL0     H12036   3.273   8.172   5.245  1.6351  0.9646  1.3724
  830MOL0     H12037   3.347   8.276   5.433 -3.6100 -2.3289  1.6505
  830MOL0     H12038   3.475   8.492   5.476 -1.7826 -0.8067 -1.3711
  830MOL0     H12039   3.396   8.450   5.626 -0.9367 -0.3040 -0.4513
  830MOL0     H12040   3.587   8.586   5.664  1.3042  1.9356  0.4460
  830MOL0     H12041   3.429   8.635   5.732  1.4983  2.1589  1.0486
  830MOL0     H12042   3.423   8.801   5.526  1.6246  1.2361 -2.1629
  830MOL0     H12043   3.590   8.752   5.516  0.3055  2.6464 -0.9562
  830MOL0     H12044   3.584   8.941   5.628  2.3599 -0.6418 -0.4117
  830MOL0     H12045   3.465   8.887   5.753  1.1778 -4.4503  1.6089
  830MOL0     H12046   3.837   8.771   5.902  2.1304  0.3177 -1.3004
  830MOL0     H12047   3.108   8.625   5.328 -1.9000 -0.2307  2.2486
  830MOL0     H12048   2.961   8.506   5.041  2.8840 -0.3891 -0.8532
  830MOL0     H12049   2.874   8.546   5.200 -0.7995  3.2932 -2.1015
  830MOL0     H12050   3.019   8.625   5.146  0.1362 -1.0129 -1.3117
  831MOL0     O12051   1.854   0.390   3.645  0.4847 -0.5452  0.3819
  831MOL0     C12052   1.817   0.445   3.750  0.0464 -0.1634  0.0985
  831MOL0     O12053   1.836   0.384   3.875 -0.7439 -0.3112 -0.3177
  831MOL0     C12054   1.872   0.255   3.867 -0.0731  0.2813  0.2430
  831MOL0     C12055   1.992   0.198   3.840  0.3068  0.9361 -0.4092
  831MOL0     C12056   2.006   0.052   3.844 -1.2678 -0.6901  0.9237
  831MOL0     C12057   1.901  -0.033   3.892 -0.4786 -1.0561  0.2009
  831MOL0     O12058   1.916  -0.162   3.924  0.3192  0.3662  0.1188
  831MOL0     C12059   2.007  -0.246   3.851 -0.6239  0.1069  0.2796
  831MOL0     C12060   1.975  -0.396   3.871 -0.3246  0.5728 -0.2204
  831MOL0     C12061   2.056  -0.489   3.780  0.5775 -0.4042  0.7382
  831MOL0     C12062   2.025  -0.635   3.759 -0.5348  0.1853 -0.2406
  831MOL0     C12063   2.130  -0.681   3.658 -0.0809 -0.5607  0.3190
  831MOL0     C12064   2.100  -0.824   3.615 -0.5777  0.6560  1.4239
  831MOL0     C12065   2.207  -0.885   3.522  0.7232 -0.1555 -0.7820
  831MOL0     C12066   2.201  -0.819   3.397 -1.0667 -0.3452 -0.6237
  831MOL0     N12067   2.080  -0.834   3.324  0.4621  0.4690 -0.0316
  831MOL0     C12068   2.055  -0.925   3.223  0.7992 -0.1761 -0.5297
  831MOL0     C12069   1.923  -0.897   3.186 -0.2745  0.4164 -0.1123
  831MOL0     C12070   1.850  -0.968   3.074  0.0360 -0.1290 -0.2731
  831MOL0     C12071   1.779  -0.875   2.972  0.2550 -0.0284  0.3574
  831MOL0     C12072   1.693  -0.962   2.868 -0.3952 -0.4242  0.1343
  831MOL0     C12073   1.631  -1.088   2.923  0.1086  0.3636  0.5610
  831MOL0     O12074   1.519  -1.061   3.011 -0.1399 -0.0380 -0.1705
  831MOL0     C12075   1.455  -1.164   3.069  1.2072 -0.2548  1.1055
  831MOL0     C12076   1.364  -1.249   3.008  0.0882  0.3990 -0.6115
  831MOL0     C12077   1.320  -1.365   3.075 -0.0801  0.4720  0.7280
  831MOL0     C12078   1.374  -1.404   3.201 -0.6970  0.3318  0.0529
  831MOL0     C12079   1.334  -1.538   3.261 -0.7865  0.3282  1.0391
  831MOL0     O12080   1.376  -1.560   3.399 -0.0370  0.7179  0.5534
  831MOL0     C12081   1.343  -1.670   3.463 -0.7108  0.9851  0.1729
  831MOL0     C12082   1.210  -1.712   3.482  0.0433 -0.2155 -0.0672
  831MOL0     C12083   1.171  -1.819   3.562 -0.1817  0.4392 -0.0004
  831MOL0     C12084   1.270  -1.902   3.604  1.2367  0.8161  0.2820
  831MOL0     O12085   1.228  -2.011   3.685 -0.3172  0.4885  0.3449
  831MOL0     C12086   1.201  -2.130   3.606  0.5560 -0.6322 -0.8007
  831MOL0     C12087   1.183  -2.254   3.699 -0.6663  0.1346  0.3426
  831MOL0     C12088   1.046  -2.269   3.757  1.0509 -0.1011 -0.4672
  831MOL0     C12089   1.033  -2.254   3.914  0.4844 -0.2590 -0.8382
  831MOL0     C12090   1.104  -2.356   4.002  0.4726 -0.5147  0.6258
  831MOL0     C12091   1.039  -2.486   3.979  0.4781  0.6627 -0.2412
  831MOL0     C12092   1.080  -2.592   4.074  0.8987 -0.0047  0.1568
  831MOL0     C12093   0.981  -2.703   4.083  0.1382 -0.2687 -0.4462
  831MOL0    Cl12094   0.991  -2.824   3.962 -0.1275 -0.4102  0.0849
  831MOL0     C12095   1.404  -1.853   3.594 -0.4924 -0.5458 -0.0386
  831MOL0     C12096   1.438  -1.740   3.533 -0.2694 -0.9646 -0.4106
  831MOL0     O12097   1.280  -1.618   3.177  0.4591  0.3803 -0.1037
  831MOL0     C12098   1.464  -1.314   3.262  0.0220  0.1640 -0.7917
  831MOL0     C12099   1.491  -1.189   3.204 -0.3731  0.1701  0.4747
  831MOL0     N12100   1.881  -0.785   3.259  0.0656  1.0946  0.0802
  831MOL0     N12101   1.985  -0.736   3.323 -0.0412 -0.2052 -0.0384
  831MOL0     C12102   1.782   0.029   3.923 -0.8584  1.2995  0.0689
  831MOL0     C12103   1.769   0.165   3.904  0.2591  0.0393 -0.3777
  831MOL0     C12104   1.787   0.589   3.747  0.1979 -0.1791  1.3392
  831MOL0     C12105   1.817   0.665   3.861  0.7587  0.2139  0.2590
  831MOL0     C12106   1.792   0.795   3.879 -0.1825  0.1859 -0.0446
  831MOL0     C12107   1.734   0.863   3.772  1.0546  0.3777  0.6396
  831MOL0     O12108   1.717   0.995   3.791 -0.5991  0.4070  0.2372
  831MOL0     C12109   1.623   1.064   3.701  0.0691 -0.3682  0.8045
  831MOL0     C12110   1.598   1.201   3.765 -0.2962 -0.6786 -0.7464
  831MOL0     C12111   1.517   1.280   3.669 -0.0652 -0.7331 -0.8494
  831MOL0     C12112   1.497   1.433   3.686 -0.0966 -0.8301 -0.3348
  831MOL0     C12113   1.446   1.439   3.827  0.3972  0.7803  0.3655
  831MOL0     C12114   1.387   1.429   3.935 -0.2390 -0.7448 -0.2026
  831MOL0     C12115   1.686   0.789   3.660  0.1559  0.5064  0.9317
  831MOL0     C12116   1.713   0.650   3.642 -0.0263 -0.5957  0.5756
  831MOL0     C12117   1.654   0.579   3.524 -0.9752  1.3811 -0.1611
  831MOL0     H12118   2.080   0.257   3.819 -0.1502  2.2871  1.3055
  831MOL0     H12119   2.095   0.001   3.808 -0.5337  1.7838 -1.0809
  831MOL0     H12120   1.995  -0.237   3.743  0.4636  1.0394  0.2139
  831MOL0     H12121   2.114  -0.231   3.868 -0.7145 -0.3333  1.3143
  831MOL0     H12122   1.871  -0.415   3.844  0.3651 -1.8162 -1.5013
  831MOL0     H12123   1.996  -0.423   3.974  2.2109 -1.6471 -1.2203
  831MOL0     H12124   2.164  -0.482   3.788  1.5500 -3.0434 -4.7818
  831MOL0     H12125   2.027  -0.443   3.685 -1.9970 -1.2379  1.0248
  831MOL0     H12126   2.033  -0.683   3.857 -1.8969  0.4933  0.0396
  831MOL0     H12127   1.921  -0.642   3.726 -0.4399 -1.6651 -0.2634
  831MOL0     H12128   2.125  -0.614   3.571 -1.6019  0.8670  1.4429
  831MOL0     H12129   2.221  -0.662   3.716 -0.4539  3.0171 -0.0352
  831MOL0     H12130   2.114  -0.885   3.704  1.9901  1.8938  1.9488
  831MOL0     H12131   2.004  -0.848   3.568  0.7540 -3.1584  0.2313
  831MOL0     H12132   2.195  -0.992   3.505  0.9252  0.2973 -4.3838
  831MOL0     H12133   2.309  -0.876   3.560  0.3108 -1.5304  0.7733
  831MOL0     H12134   2.221  -0.712   3.410 -2.2820  0.0604 -1.7944
  831MOL0     H12135   2.280  -0.851   3.329 -0.2431  2.7562 -1.2910
  831MOL0     H12136   2.131  -0.988   3.178  2.5074 -0.0031  1.9291
  831MOL0     H12137   1.928  -1.032   3.031  0.4322 -3.4519  4.6348
  831MOL0     H12138   1.777  -1.033   3.124  2.0894 -2.4153 -0.0625
  831MOL0     H12139   1.704  -0.825   3.034  1.2830 -0.5652  2.0977
  831MOL0     H12140   1.845  -0.803   2.922  0.9675 -0.8835  0.0510
  831MOL0     H12141   1.776  -0.990   2.803 -2.0080  0.6681 -2.5381
  831MOL0     H12142   1.622  -0.890   2.825  0.4622  1.0729  1.1272
  831MOL0     H12143   1.704  -1.162   2.956 -2.7292 -2.8731  0.2083
  831MOL0     H12144   1.593  -1.143   2.837  5.5301  0.8994 -2.6096
  831MOL0     H12145   1.312  -1.225   2.916  2.0000  2.0108 -1.3549
  831MOL0     H12146   1.238  -1.420   3.031 -3.4322  2.4854  3.8971
  831MOL0     H12147   1.125  -1.657   3.444 -1.4414  0.6860  4.0313
  831MOL0     H12148   1.067  -1.851   3.559  0.4567 -1.7702 -2.0010
  831MOL0     H12149   1.106  -2.103   3.560 -2.1745 -0.1671  4.3076
  831MOL0     H12150   1.285  -2.150   3.539  1.9308  0.0338  0.6712
  831MOL0     H12151   1.210  -2.341   3.639  0.1613 -0.3189  1.3483
  831MOL0     H12152   1.264  -2.244   3.772  3.6389  0.0213 -3.9224
  831MOL0     H12153   0.988  -2.185   3.717  2.1602  1.9734  2.0039
  831MOL0     H12154   1.005  -2.361   3.714 -0.0329 -0.6689  1.6497
  831MOL0     H12155   0.925  -2.264   3.928  0.2866 -0.5509 -2.3663
  831MOL0     H12156   1.074  -2.156   3.941  3.5808 -1.7837  0.4936
  831MOL0     H12157   1.085  -2.323   4.104 -3.4115 -1.0829  0.2230
  831MOL0     H12158   1.208  -2.369   3.969 -0.8055 -2.1634 -3.2513
  831MOL0     H12159   0.931  -2.481   3.990  0.3914 -0.4559 -0.4309
  831MOL0     H12160   1.057  -2.523   3.878  0.9875 -2.0001  0.7378
  831MOL0     H12161   1.072  -2.541   4.171  2.5144  0.8057 -0.1035
  831MOL0     H12162   1.179  -2.633   4.054  0.9122 -0.7466  1.6267
  831MOL0     H12163   0.992  -2.754   4.179  0.1537  0.0454 -0.2824
  831MOL0     H12164   0.878  -2.670   4.068  0.2520 -1.0841 -4.0758
  831MOL0     H12165   1.487  -1.903   3.643  1.0453  2.4849  0.6515
  831MOL0     H12166   1.540  -1.701   3.535 -0.0318 -1.5594 -0.7667
  831MOL0     H12167   1.503  -1.339   3.360 -0.9497 -1.4502 -0.7768
  831MOL0     H12168   1.570  -1.131   3.251  3.8785 -3.6798 -1.0628
  831MOL0     H12169   1.698  -0.019   3.973 -0.7944  2.6621  1.5571
  831MOL0     H12170   1.674   0.217   3.912  1.2070  2.1354 -1.8663
  831MOL0     H12171   1.861   0.621   3.950  2.4462 -1.6475 -1.3805
  831MOL0     H12172   1.820   0.849   3.969  0.6406  1.5685 -1.1017
  831MOL0     H12173   1.526   1.015   3.688  0.1166  0.1618 -2.1258
  831MOL0     H12174   1.671   1.074   3.603  1.4040 -0.0376  1.4669
  831MOL0     H12175   1.692   1.246   3.798 -0.4365  0.8321 -2.3269
  831MOL0     H12176   1.556   1.190   3.866  4.0193  0.3491  1.4416
  831MOL0     H12177   1.416   1.241   3.657 -3.0736  5.7756 -0.9915
  831MOL0     H12178   1.567   1.283   3.571 -0.4526  0.9163 -1.0279
  831MOL0     H12179   1.590   1.491   3.678 -1.2602  0.9276 -1.6731
  831MOL0     H12180   1.424   1.483   3.623 -1.8210 -4.6838 -1.6402
  831MOL0     H12181   1.328   1.439   4.025  0.2801 -3.4637  0.5215
  831MOL0     H12182   1.629   0.845   3.587  3.0872  2.3472 -0.1653
  831MOL0     H12183   1.719   0.582   3.436 -1.0764  1.0601 -0.2488
  831MOL0     H12184   1.634   0.472   3.530  1.0499  1.0177  0.5845
  831MOL0     H12185   1.558   0.624   3.496 -1.0961  0.9730 -0.4185
  832MOL0     O12186   7.641   6.851  11.220 -0.1419 -0.8926 -0.7548
  832MOL0     C12187   7.746   6.885  11.171 -0.8074 -0.3723  0.7000
  832MOL0     O12188   7.870   6.857  11.209  0.2720  0.2832  0.2198
  832MOL0     C12189   7.883   6.757  11.304 -0.6907 -0.0200 -0.6725
  832MOL0     C12190   7.984   6.666  11.280 -0.2681 -0.2761  0.1669
  832MOL0     C12191   8.009   6.562  11.368  0.1242  0.6259 -0.2225
  832MOL0     C12192   7.949   6.563  11.496  0.3534  0.0530  0.1715
  832MOL0     O12193   7.987   6.478  11.596  1.1971  0.0189 -0.8283
  832MOL0     C12194   7.981   6.352  11.563 -0.0249  0.0755 -0.1300
  832MOL0     C12195   8.024   6.258  11.687  0.4637 -0.4255  0.9638
  832MOL0     C12196   8.045   6.113  11.638  0.1298 -0.4973 -0.2578
  832MOL0     C12197   7.917   6.031  11.683 -1.0696  0.1880 -0.3822
  832MOL0     C12198   7.900   6.000  11.832 -0.1220  0.3663 -0.0325
  832MOL0     C12199   8.008   5.891  11.882 -0.5020 -0.4437 -0.9237
  832MOL0     C12200   7.970   5.807  11.998 -0.3207  0.2415  0.6403
  832MOL0     C12201   8.093   5.724  12.049 -0.2903 -0.2568  0.4867
  832MOL0     N12202   8.046   5.622  12.139  0.4551  0.0661 -0.3422
  832MOL0     C12203   8.049   5.614  12.275  1.2673  0.0971 -0.3699
  832MOL0     C12204   7.994   5.492  12.296  0.7831 -0.0241 -0.4047
  832MOL0     C12205   7.935   5.440  12.424  0.5561  0.3763  0.4173
  832MOL0     C12206   7.949   5.526  12.544 -0.1700  0.5814 -0.1202
  832MOL0     C12207   8.088   5.542  12.614  0.8509 -0.2722 -1.0733
  832MOL0     C12208   8.078   5.639  12.729 -0.0245  0.2371 -0.8227
  832MOL0     O12209   7.973   5.614  12.824 -0.1311  0.3900  0.0719
  832MOL0     C12210   7.973   5.690  12.938 -0.0995 -0.6463 -0.0983
  832MOL0     C12211   7.858   5.761  12.984 -0.2701  0.4358  0.3344
  832MOL0     C12212   7.863   5.851  13.089  0.6300 -0.1408 -0.9811
  832MOL0     C12213   7.977   5.861  13.164 -0.2372 -0.0861  0.4133
  832MOL0     C12214   7.994   5.959  13.283 -0.1338 -0.3883  1.1895
  832MOL0     O12215   8.117   5.987  13.315  0.0596  0.1484 -1.2079
  832MOL0     C12216   8.132   6.042  13.447 -0.2696  0.1684  0.4905
  832MOL0     C12217   8.090   5.969  13.564 -0.3939 -0.6826  0.2857
  832MOL0     C12218   8.108   6.026  13.692 -0.5089 -1.0609 -0.1809
  832MOL0     C12219   8.164   6.160  13.698 -0.5132  0.2064  0.1487
  832MOL0     O12220   8.181   6.228  13.813 -1.0576 -0.7098  0.4278
  832MOL0     C12221   8.164   6.159  13.938  0.0902 -0.2521  0.5791
  832MOL0     C12222   8.185   6.225  14.070 -0.1686 -0.5996  0.0964
  832MOL0     C12223   8.314   6.305  14.073  0.0114 -0.1763 -0.2134
  832MOL0     C12224   8.335   6.325  14.222 -0.1456 -0.0793  0.4856
  832MOL0     C12225   8.467   6.391  14.258  0.3066  0.3409 -0.6137
  832MOL0     C12226   8.579   6.293  14.280 -0.6820 -0.1542 -0.5738
  832MOL0     C12227   8.707   6.381  14.303 -0.7796 -0.5071  0.0350
  832MOL0     C12228   8.817   6.293  14.362  0.9577  0.1273 -0.0299
  832MOL0    Cl12229   8.777   6.220  14.516  0.1056 -0.1111  0.4017
  832MOL0     C12230   8.205   6.222  13.580 -0.3982 -0.0470  0.8245
  832MOL0     C12231   8.187   6.162  13.456 -0.3038  0.3131  1.0378
  832MOL0     O12232   7.895   5.999  13.341 -0.4202 -0.0498 -0.4041
  832MOL0     C12233   8.086   5.783  13.126  0.0673  0.4931  0.8479
  832MOL0     C12234   8.077   5.698  13.022  0.5092  0.2971  1.1934
  832MOL0     N12235   7.977   5.427  12.173  0.0237 -0.6411  0.1715
  832MOL0     N12236   8.026   5.504  12.080 -0.1439  0.5395 -1.1038
  832MOL0     C12237   7.853   6.662  11.526 -0.4537  0.1017 -0.6298
  832MOL0     C12238   7.822   6.753  11.426  0.2853  0.9909 -0.2522
  832MOL0     C12239   7.740   6.967  11.051 -0.1029 -0.8244  0.5351
  832MOL0     C12240   7.792   7.088  11.042 -0.3018 -1.5093  0.0821
  832MOL0     C12241   7.781   7.164  10.933  0.3956  0.0323  0.2322
  832MOL0     C12242   7.716   7.123  10.817  0.6271  0.0025  0.2262
  832MOL0     O12243   7.712   7.214  10.714  0.7793  0.3661 -0.0555
  832MOL0     C12244   7.669   7.156  10.583 -0.3044 -0.0073 -0.5352
  832MOL0     C12245   7.772   7.073  10.524  0.8086  0.3760  0.1635
  832MOL0     C12246   7.917   7.124  10.536  0.1493 -0.3488  0.1270
  832MOL0     C12247   7.996   7.039  10.445 -0.1834  0.5734 -0.3212
  832MOL0     C12248   8.138   7.062  10.449  0.8109  0.4748  0.5552
  832MOL0     C12249   8.252   7.085  10.480 -0.2070 -0.5533  0.9400
  832MOL0     C12250   7.644   7.000  10.821 -0.3896 -0.0833  0.1687
  832MOL0     C12251   7.673   6.915  10.934 -0.4356 -0.7676 -0.4229
  832MOL0     C12252   7.613   6.777  10.945  0.2705  0.0180 -0.0184
  832MOL0     H12253   8.036   6.677  11.185 -1.3540  0.0701 -0.4052
  832MOL0     H12254   8.082   6.486  11.340  2.1203  2.8810 -1.5118
  832MOL0     H12255   7.875   6.336  11.542  0.0318  1.3653 -1.5868
  832MOL0     H12256   8.053   6.326  11.485  0.8022 -3.9973  1.7491
  832MOL0     H12257   7.954   6.256  11.771 -0.1733 -2.4346  0.4273
  832MOL0     H12258   8.120   6.299  11.721  0.1739  1.0457  0.0999
  832MOL0     H12259   8.133   6.067  11.685  0.7455 -2.0002 -2.6639
  832MOL0     H12260   8.052   6.096  11.530  4.1541 -2.4823  0.1222
  832MOL0     H12261   7.825   6.078  11.648 -1.6263  1.6715  2.6873
  832MOL0     H12262   7.938   5.937  11.632  3.9330 -0.5127  2.2654
  832MOL0     H12263   7.897   6.087  11.899  1.6097  0.7097 -0.3643
  832MOL0     H12264   7.799   5.958  11.837  0.9876 -2.3713  1.4462
  832MOL0     H12265   8.030   5.832  11.792 -1.0316 -0.1375 -1.2605
  832MOL0     H12266   8.101   5.945  11.900 -1.5930  1.9190 -1.9225
  832MOL0     H12267   7.896   5.732  11.968  2.4648 -1.4209 -2.9524
  832MOL0     H12268   7.939   5.879  12.074 -1.5165  1.3617 -0.8406
  832MOL0     H12269   8.140   5.664  11.971 -0.6387  0.5709 -0.3711
  832MOL0     H12270   8.167   5.792  12.093 -0.5832 -0.5460  1.4491
  832MOL0     H12271   8.074   5.686  12.353 -1.6756 -1.4803  2.2711
  832MOL0     H12272   7.826   5.429  12.415  0.4386  2.5760 -2.3391
  832MOL0     H12273   7.980   5.341  12.432  0.7877  0.3127 -1.2731
  832MOL0     H12274   7.911   5.622  12.506 -2.2484  0.5062  1.6363
  832MOL0     H12275   7.881   5.490  12.622  3.2835  1.1466  3.5074
  832MOL0     H12276   8.162   5.585  12.546 -0.3684  2.3262 -0.9067
  832MOL0     H12277   8.124   5.450  12.660  3.4494  1.1996  0.0919
  832MOL0     H12278   8.052   5.739  12.691  0.4759  0.7830  0.2151
  832MOL0     H12279   8.180   5.648  12.767  0.4177 -4.3805 -0.4527
  832MOL0     H12280   7.764   5.746  12.932 -0.0526  2.9361 -0.8998
  832MOL0     H12281   7.765   5.892  13.113 -0.1387 -2.4222  0.0823
  832MOL0     H12282   8.048   5.872  13.541  0.8868 -0.7292 -2.2783
  832MOL0     H12283   8.059   5.968  13.769 -0.8885 -3.1938 -1.9486
  832MOL0     H12284   8.063   6.119  13.945  0.1651 -0.2991  1.5123
  832MOL0     H12285   8.229   6.073  13.922 -0.3865 -0.1501 -2.4858
  832MOL0     H12286   8.098   6.283  14.103 -0.5490 -1.7719  1.2689
  832MOL0     H12287   8.194   6.138  14.135  0.3505 -2.8899 -2.8512
  832MOL0     H12288   8.401   6.251  14.033  3.2436  3.0776  1.7730
  832MOL0     H12289   8.293   6.401  14.025 -0.8107 -0.1411  0.2003
  832MOL0     H12290   8.328   6.232  14.278 -3.0482  0.7900  1.7633
  832MOL0     H12291   8.259   6.394  14.259 -1.2199 -0.8047 -0.3145
  832MOL0     H12292   8.458   6.430  14.360  2.5427 -0.6632  0.0248
  832MOL0     H12293   8.508   6.470  14.195  4.0695 -0.6096  0.3868
  832MOL0     H12294   8.549   6.246  14.374 -1.6520 -0.2257 -0.9051
  832MOL0     H12295   8.601   6.212  14.210 -2.6604 -2.8482  1.6607
  832MOL0     H12296   8.693   6.470  14.366 -0.4139  2.1180 -3.2954
  832MOL0     H12297   8.741   6.417  14.206 -0.7346  0.6903  0.4723
  832MOL0     H12298   8.843   6.211  14.294  1.5596  0.5312 -0.2964
  832MOL0     H12299   8.901   6.359  14.387  1.2831 -0.4655  0.4649
  832MOL0     H12300   8.256   6.314  13.607 -1.1039 -0.1956  2.8326
  832MOL0     H12301   8.226   6.182  13.356 -1.7945  0.9735  0.5604
  832MOL0     H12302   8.177   5.782  13.186  1.1012 -0.3484 -0.6634
  832MOL0     H12303   8.157   5.635  12.984 -2.9094 -2.2725 -2.7288
  832MOL0     H12304   7.812   6.656  11.626  1.8756 -1.5861  0.3220
  832MOL0     H12305   7.745   6.823  11.454 -0.4590  0.3586 -0.6980
  832MOL0     H12306   7.846   7.134  11.124 -2.8296 -0.1036  1.0680
  832MOL0     H12307   7.844   7.253  10.937 -0.9200  1.0135 -0.1611
  832MOL0     H12308   7.667   7.235  10.507  2.4267 -1.6684 -2.5094
  832MOL0     H12309   7.576   7.104  10.606  1.6521 -2.3959  2.9783
  832MOL0     H12310   7.747   7.069  10.418  1.2498 -1.5542  0.0890
  832MOL0     H12311   7.760   6.970  10.559 -1.7020 -0.3451 -2.4460
  832MOL0     H12312   7.955   7.115  10.639 -3.2944 -0.0848  1.5724
  832MOL0     H12313   7.922   7.229  10.508 -3.4481 -0.5448 -1.8459
  832MOL0     H12314   7.978   6.931  10.450 -1.2118  0.7190 -0.5819
  832MOL0     H12315   7.965   7.065  10.343 -1.0569  0.8840  0.0132
  832MOL0     H12316   8.352   7.104  10.511  0.1509 -1.5878  0.4442
  832MOL0     H12317   7.574   6.961  10.748 -1.6062  1.7246  0.3232
  832MOL0     H12318   7.686   6.705  10.983 -0.2887  0.1740  1.4432
  832MOL0     H12319   7.529   6.784  11.015  0.5542  2.8822  0.1524
  832MOL0     H12320   7.571   6.734  10.854  0.4987  1.3661 -0.7879
  833MOL0     O12321   9.980  10.798   3.227 -0.3827  0.2122 -0.7524
  833MOL0     C12322   9.879  10.760   3.168 -0.4134  0.2752 -0.1470
  833MOL0     O12323   9.746  10.761   3.217 -0.4538 -0.3603  0.2991
  833MOL0     C12324   9.717  10.792   3.343 -0.4749  0.9375  0.5936
  833MOL0     C12325   9.808  10.800   3.449  0.8191 -0.3134 -0.3847
  833MOL0     C12326   9.764  10.845   3.580 -1.3368  0.0591  0.2547
  833MOL0     C12327   9.632  10.877   3.608 -0.4716  1.0110 -0.8488
  833MOL0     O12328   9.596  10.898   3.733  0.0907  0.3288 -0.1738
  833MOL0     C12329   9.475  10.836   3.784 -0.0592 -0.2243  0.2543
  833MOL0     C12330   9.469  10.810   3.936  0.1286  0.2225  0.1361
  833MOL0     C12331   9.338  10.735   3.991  1.1972 -0.3804  0.4158
  833MOL0     C12332   9.204  10.815   3.969  0.2380  0.5626  0.4261
  833MOL0     C12333   9.162  10.917   4.090 -0.0143  0.0205 -0.3906
  833MOL0     C12334   9.021  10.962   4.063 -0.3909  0.1620  0.3306
  833MOL0     C12335   8.966  11.033   4.182  0.8801  0.9591  0.7600
  833MOL0     C12336   8.856  11.136   4.143  0.6205 -0.0074 -0.6231
  833MOL0     N12337   8.817  11.217   4.264  0.3265  0.5405 -0.6100
  833MOL0     C12338   8.904  11.297   4.341  0.0100 -0.3607 -0.4588
  833MOL0     C12339   8.822  11.361   4.433  0.1799  0.4176 -0.5309
  833MOL0     C12340   8.874  11.464   4.527  1.0818  0.1363  0.0641
  833MOL0     C12341   8.766  11.553   4.588 -0.1216 -0.5704 -0.4129
  833MOL0     C12342   8.726  11.667   4.490  0.4958  0.0790 -0.9330
  833MOL0     C12343   8.580  11.716   4.519 -0.1186  0.2065 -0.2964
  833MOL0     O12344   8.530  11.806   4.417 -0.0545  0.1530  0.4254
  833MOL0     C12345   8.404  11.849   4.405  0.8563  1.0096 -0.6039
  833MOL0     C12346   8.373  11.920   4.293  0.0814  0.6046 -0.1513
  833MOL0     C12347   8.253  11.984   4.274  0.2226 -0.0659 -0.6648
  833MOL0     C12348   8.151  11.958   4.370  0.1308 -0.5186  1.4620
  833MOL0     C12349   8.032  12.041   4.367  0.2545  1.5731 -0.4245
  833MOL0     O12350   7.990  12.089   4.251  0.1564 -0.7751 -0.5148
  833MOL0     C12351   7.872  12.152   4.224  0.6927 -0.4276 -0.9219
  833MOL0     C12352   7.751  12.150   4.304 -0.9924  0.3134 -0.2028
  833MOL0     C12353   7.643  12.227   4.276 -0.2163 -0.0961 -0.6923
  833MOL0     C12354   7.644  12.308   4.161  0.2840  0.1151 -0.2357
  833MOL0     O12355   7.537  12.370   4.121 -0.6315  0.1145  0.0465
  833MOL0     C12356   7.487  12.472   4.215 -0.2816  0.5149  0.2510
  833MOL0     C12357   7.589  12.575   4.261 -0.2464  0.5762 -0.0269
  833MOL0     C12358   7.646  12.654   4.143  0.8570  0.1767  0.8937
  833MOL0     C12359   7.776  12.727   4.187 -0.2555 -0.2380 -0.6253
  833MOL0     C12360   7.854  12.781   4.067  0.0881 -0.0566  0.5462
  833MOL0     C12361   7.943  12.670   3.997  0.0528 -0.2151 -0.3441
  833MOL0     C12362   8.066  12.643   4.085  0.3963  0.0077 -0.1776
  833MOL0     C12363   8.161  12.550   4.006  0.8260 -0.6363 -0.1041
  833MOL0    Cl12364   8.329  12.576   4.060 -0.1031 -0.1992 -0.7769
  833MOL0     C12365   7.766  12.310   4.087  0.0564 -0.6207  0.5162
  833MOL0     C12366   7.872  12.234   4.116  0.0504  0.2375 -0.1297
  833MOL0     O12367   7.967  12.039   4.469  0.5792  0.0434  0.4204
  833MOL0     C12368   8.178  11.886   4.490 -0.4498 -0.5396  0.2638
  833MOL0     C12369   8.308  11.824   4.500 -0.7038 -0.1913  0.6165
  833MOL0     N12370   8.697  11.312   4.418 -0.2147  0.2435 -0.2834
  833MOL0     N12371   8.692  11.228   4.320  0.4039  0.1973  0.7384
  833MOL0     C12372   9.545  10.861   3.501  0.5246 -0.0938 -0.2812
  833MOL0     C12373   9.586  10.827   3.370 -0.1678 -0.2609  0.5132
  833MOL0     C12374   9.897  10.734   3.030 -0.0118  0.5948  0.5954
  833MOL0     C12375   9.850  10.822   2.931 -0.1385 -0.7554  0.3129
  833MOL0     C12376   9.843  10.795   2.799 -0.0489 -0.4798  0.2647
  833MOL0     C12377   9.901  10.675   2.750 -0.0154  0.2636 -0.6851
  833MOL0     O12378   9.902  10.651   2.614 -0.2570 -0.4646  0.4246
  833MOL0     C12379   9.881  10.517   2.560 -0.2381 -0.8191  0.0484
  833MOL0     C12380   9.822  10.554   2.427 -0.2077  0.8065  0.4357
  833MOL0     C12381   9.823  10.438   2.330  0.1529 -0.5169 -0.4121
  833MOL0     C12382   9.958  10.364   2.332 -0.4287  0.0919  0.0293
  833MOL0     C12383  10.000  10.318   2.203 -0.3642  0.8855  0.1063
  833MOL0     C12384  10.040  10.271   2.096 -0.3491  0.4517  0.2625
  833MOL0     C12385   9.957  10.587   2.841 -0.5551 -0.4558  0.1708
  833MOL0     C12386   9.956  10.608   2.980 -0.1740  0.4533  0.1590
  833MOL0     C12387  10.015  10.499   3.068  0.2346  0.0462  0.8631
  833MOL0     H12388   9.915  10.784   3.440  0.5513 -2.7151 -0.0383
  833MOL0     H12389   9.829  10.857   3.666 -0.7883 -2.0940  0.2143
  833MOL0     H12390   9.384  10.893   3.765 -0.0310 -1.0031 -2.7759
  833MOL0     H12391   9.471  10.732   3.750  0.0770 -0.4616  0.9567
  833MOL0     H12392   9.489  10.909   3.978  2.6473  0.9763 -2.5486
  833MOL0     H12393   9.548  10.738   3.959 -0.4115 -0.4919 -0.2142
  833MOL0     H12394   9.361  10.710   4.095  0.2537  0.1153  0.7519
  833MOL0     H12395   9.329  10.645   3.930  0.3617 -0.3463  0.4756
  833MOL0     H12396   9.198  10.876   3.878 -0.9559 -0.1448  0.0052
  833MOL0     H12397   9.133  10.733   3.956  1.4408 -0.2054 -1.7044
  833MOL0     H12398   9.175  10.870   4.188  0.4319  1.4216  0.2540
  833MOL0     H12399   9.221  11.009   4.085 -0.0057  0.0773  0.5020
  833MOL0     H12400   9.014  11.024   3.974  2.2691 -1.5891 -1.2475
  833MOL0     H12401   8.966  10.870   4.042  0.7176 -0.5273  0.3777
  833MOL0     H12402   9.046  11.090   4.228  0.5726  0.8892  1.3880
  833MOL0     H12403   8.921  10.960   4.251  2.2993  1.3207  2.1094
  833MOL0     H12404   8.889  11.203   4.063  0.9306 -2.4086 -2.6342
  833MOL0     H12405   8.771  11.080   4.102  1.2299 -1.2428 -0.2517
  833MOL0     H12406   9.011  11.313   4.335 -0.2805  1.8663 -0.5005
  833MOL0     H12407   8.926  11.412   4.608 -2.1735 -2.9104  0.4187
  833MOL0     H12408   8.949  11.519   4.469  1.1476  0.1357  0.1490
  833MOL0     H12409   8.682  11.500   4.634 -1.4982  2.1335  0.3708
  833MOL0     H12410   8.817  11.604   4.671 -2.3197  0.6394  0.2679
  833MOL0     H12411   8.733  11.614   4.395  0.3656 -0.8565 -0.4311
  833MOL0     H12412   8.797  11.751   4.494 -0.5191  0.9070  1.5044
  833MOL0     H12413   8.576  11.764   4.617 -2.7372  2.0749 -1.2037
  833MOL0     H12414   8.514  11.629   4.524  0.5165 -0.1962  1.7051
  833MOL0     H12415   8.452  11.935   4.220 -0.9090  1.5522 -1.0533
  833MOL0     H12416   8.237  12.043   4.184  0.3407  3.2469  1.3196
  833MOL0     H12417   7.735  12.082   4.387 -0.4377 -0.3255 -0.6073
  833MOL0     H12418   7.565  12.228   4.351 -0.0083 -1.1700 -0.4484
  833MOL0     H12419   7.412  12.530   4.162 -0.4553 -0.8069 -0.9882
  833MOL0     H12420   7.432  12.422   4.296  0.2361  4.2101  3.1885
  833MOL0     H12421   7.541  12.633   4.339 -2.6451  0.4961 -1.3388
  833MOL0     H12422   7.666  12.515   4.311 -0.7443 -1.3430 -1.4170
  833MOL0     H12423   7.667  12.585   4.061 -3.5072 -0.6360  0.2511
  833MOL0     H12424   7.584  12.735   4.104 -0.1575 -0.8402  0.3381
  833MOL0     H12425   7.834  12.649   4.235 -2.6600 -1.9760 -0.3831
  833MOL0     H12426   7.758  12.804   4.262  2.3523 -0.1513  0.0142
  833MOL0     H12427   7.917  12.870   4.078  0.3209 -0.0992 -0.3897
  833MOL0     H12428   7.778  12.813   3.996 -0.9119  0.1426  1.6647
  833MOL0     H12429   7.891  12.575   3.980  1.8519 -1.3501  0.2226
  833MOL0     H12430   7.976  12.714   3.903 -3.2540  1.3636 -0.9025
  833MOL0     H12431   8.039  12.588   4.176  0.6707 -0.8064 -0.5818
  833MOL0     H12432   8.125  12.734   4.103 -3.4234  2.6536  0.2144
  833MOL0     H12433   8.142  12.442   4.014  2.2676 -1.1314 -2.4708
  833MOL0     H12434   8.154  12.572   3.899 -1.6008  3.1356  0.6439
  833MOL0     H12435   7.763  12.366   3.994 -2.7606 -4.0532 -1.7608
  833MOL0     H12436   7.951  12.246   4.042 -2.5238 -1.8129 -3.5015
  833MOL0     H12437   8.115  11.867   4.577  0.4236 -1.9094  0.6224
  833MOL0     H12438   8.327  11.758   4.584 -1.0459 -1.6675 -0.4366
  833MOL0     H12439   9.438  10.879   3.513  0.6419 -0.0414  0.7592
  833MOL0     H12440   9.507  10.821   3.295  1.1717  0.4698 -1.0121
  833MOL0     H12441   9.806  10.913   2.972  0.1323 -2.0122  3.7146
  833MOL0     H12442   9.788  10.856   2.728 -2.0459 -0.3632  1.8404
  833MOL0     H12443   9.816  10.456   2.624  1.3855 -0.9827  1.6411
  833MOL0     H12444   9.983  10.479   2.559  0.7161  1.5539 -0.2565
  833MOL0     H12445   9.863  10.647   2.388  2.1461  1.0704  3.2549
  833MOL0     H12446   9.719  10.586   2.443 -0.3919  0.2735  0.3569
  833MOL0     H12447   9.792  10.476   2.232 -1.4545  0.2765  0.3694
  833MOL0     H12448   9.742  10.370   2.360 -0.1132 -0.3618 -0.7650
  833MOL0     H12449  10.042  10.431   2.355  0.4247 -0.9707  0.0523
  833MOL0     H12450   9.945  10.289   2.409 -1.2782  0.3553  0.1494
  833MOL0     H12451  10.082  10.216   2.015  2.2584 -1.2138  2.5552
  833MOL0     H12452  10.005  10.504   2.790  3.1145  1.7850 -0.4026
  833MOL0     H12453   9.967  10.404   3.045 -0.7466  0.7368 -0.0522
  833MOL0     H12454  10.121  10.484   3.044 -0.8416 -3.5597 -2.6819
  833MOL0     H12455  10.001  10.519   3.175  1.6395 -0.0813  1.0866
  834MOL0     O12456   7.132   1.908  10.877  0.1017 -0.2393  0.0149
  834MOL0     C12457   7.207   1.810  10.873 -0.2727 -0.1214  0.2988
  834MOL0     O12458   7.338   1.815  10.852 -0.1745 -0.2253 -0.6780
  834MOL0     C12459   7.398   1.935  10.821  0.9438  0.0273  0.0527
  834MOL0     C12460   7.502   1.988  10.897  1.2049  0.3202 -1.4069
  834MOL0     C12461   7.575   2.103  10.860 -1.0252  0.2620  0.5994
  834MOL0     C12462   7.538   2.184  10.748  0.3873 -0.3654  0.1716
  834MOL0     O12463   7.606   2.298  10.734  0.2680  0.0381 -0.0315
  834MOL0     C12464   7.566   2.371  10.622 -0.2832  0.7733  0.0376
  834MOL0     C12465   7.659   2.490  10.597  1.1792  1.0096  0.1035
  834MOL0     C12466   7.643   2.568  10.467  0.2028  0.3841  1.1606
  834MOL0     C12467   7.773   2.645  10.433 -0.6113 -0.3770  1.0132
  834MOL0     C12468   7.799   2.753  10.533 -0.0603 -0.0161  1.3720
  834MOL0     C12469   7.919   2.842  10.491  0.0422  0.6656  0.2993
  834MOL0     C12470   7.958   2.952  10.586  0.3916  0.5560  0.1078
  834MOL0     C12471   8.094   3.017  10.564  0.0346  0.3657  0.1558
  834MOL0     N12472   8.126   3.133  10.640 -0.4751 -0.1939 -0.1720
  834MOL0     C12473   8.199   3.139  10.752  0.2842 -0.6242  0.6046
  834MOL0     C12474   8.205   3.271  10.781  0.0677  0.5678  0.1867
  834MOL0     C12475   8.288   3.322  10.898  0.4370 -0.2380 -0.1326
  834MOL0     C12476   8.434   3.314  10.860  0.1723 -0.2752 -0.0525
  834MOL0     C12477   8.481   3.400  10.737  0.4372 -0.3251  0.0291
  834MOL0     C12478   8.598   3.334  10.664 -0.0263  0.2589 -0.5592
  834MOL0     O12479   8.549   3.209  10.620  0.2076 -0.3574 -0.3746
  834MOL0     C12480   8.478   3.205  10.501  0.0363  1.0534  0.0033
  834MOL0     C12481   8.469   3.302  10.402 -0.8847 -0.3008 -0.5901
  834MOL0     C12482   8.402   3.285  10.285  1.0568  0.3189 -0.1775
  834MOL0     C12483   8.331   3.166  10.265 -1.0909  0.2385  0.0244
  834MOL0     C12484   8.254   3.133  10.146  0.1279  0.3073  0.9611
  834MOL0     O12485   8.173   3.023  10.153 -0.3918  0.6433 -0.4146
  834MOL0     C12486   8.113   2.970  10.034 -0.0091 -0.3914  0.5684
  834MOL0     C12487   7.986   2.925  10.032 -0.1764 -0.1157 -0.3883
  834MOL0     C12488   7.931   2.860   9.920  0.7537 -0.8435  0.5304
  834MOL0     C12489   8.015   2.829   9.812  0.7568  0.1322 -0.1283
  834MOL0     O12490   7.967   2.758   9.713 -0.4644  0.3024  0.2598
  834MOL0     C12491   8.007   2.620   9.734 -0.2006 -1.0023  0.1184
  834MOL0     C12492   8.141   2.584   9.661  0.2173  0.3172  0.0999
  834MOL0     C12493   8.135   2.445   9.595  0.0817 -0.3040  0.2619
  834MOL0     C12494   8.113   2.322   9.685  0.0155  0.7255 -1.2379
  834MOL0     C12495   8.126   2.186   9.630 -1.1085  0.7327 -1.2780
  834MOL0     C12496   8.011   2.097   9.680  0.7402 -0.6516 -0.1520
  834MOL0     C12497   8.021   1.957   9.612 -0.5136 -0.0403 -0.5982
  834MOL0     C12498   7.877   1.895   9.594 -0.6398  0.2404  0.4669
  834MOL0    Cl12499   7.878   1.726   9.523  0.4419  0.0425  0.0857
  834MOL0     C12500   8.138   2.869   9.812 -0.0224 -1.6302  1.1545
  834MOL0     C12501   8.190   2.944   9.920 -0.2944  0.3148 -0.2575
  834MOL0     O12502   8.260   3.204  10.047  0.1142 -0.4569  0.0399
  834MOL0     C12503   8.341   3.061  10.366  1.0793 -0.6019  0.2466
  834MOL0     C12504   8.420   3.081  10.477 -0.5255  0.3840  0.6841
  834MOL0     N12505   8.142   3.347  10.685 -0.1863  0.2698 -0.2714
  834MOL0     N12506   8.089   3.261  10.604  0.4050  0.3373  0.4383
  834MOL0     C12507   7.436   2.131  10.663 -0.7873  0.2356 -0.0124
  834MOL0     C12508   7.372   2.011  10.700 -0.5658 -0.1456  0.1315
  834MOL0     C12509   7.159   1.674  10.880  0.2400 -0.2105 -0.4389
  834MOL0     C12510   7.236   1.587  10.958  0.0061  1.0951 -0.5906
  834MOL0     C12511   7.193   1.449  10.977 -0.2620 -0.2074 -0.2715
  834MOL0     C12512   7.077   1.408  10.920 -0.1594  0.2428 -0.2485
  834MOL0     O12513   7.033   1.283  10.942 -0.1935 -0.1704 -0.0095
  834MOL0     C12514   7.009   1.206  10.820  0.6447  0.0209 -0.3103
  834MOL0     C12515   7.075   1.071  10.829  0.3400  0.5621 -0.2433
  834MOL0     C12516   6.997   0.958  10.756 -0.2475 -0.6318 -0.0556
  834MOL0     C12517   7.083   0.825  10.773 -0.5210 -0.2821 -0.6650
  834MOL0     C12518   7.118   0.788  10.917 -0.0126 -0.3493  0.1489
  834MOL0     C12519   7.145   0.756  11.029  0.9052  0.4268  0.5640
  834MOL0     C12520   6.996   1.497  10.855 -0.5442 -0.3899 -0.0434
  834MOL0     C12521   7.031   1.629  10.838 -1.5404  0.0410  1.0831
  834MOL0     C12522   6.931   1.711  10.766 -0.7956 -0.0972 -0.4384
  834MOL0     H12523   7.535   1.932  10.984 -2.4107 -4.3313 -2.6168
  834MOL0     H12524   7.662   2.126  10.921 -0.6503  3.1237 -0.8597
  834MOL0     H12525   7.559   2.312  10.530 -2.2007  1.8119 -0.5339
  834MOL0     H12526   7.465   2.412  10.629  0.4222  2.6381 -0.0820
  834MOL0     H12527   7.763   2.456  10.601  1.1875  1.1542  1.3678
  834MOL0     H12528   7.650   2.553  10.686  0.2142  1.3979 -0.2541
  834MOL0     H12529   7.550   2.625  10.474 -2.3003 -2.7447 -2.3433
  834MOL0     H12530   7.624   2.495  10.388  5.0564  0.1739 -0.1255
  834MOL0     H12531   7.856   2.574  10.426 -0.8987 -0.5582 -1.5651
  834MOL0     H12532   7.769   2.691  10.334  0.3781 -1.5648  0.3851
  834MOL0     H12533   7.713   2.820  10.536  0.8072  1.3041 -0.8264
  834MOL0     H12534   7.827   2.706  10.628  4.1001  1.7672  1.2791
  834MOL0     H12535   8.003   2.775  10.470 -0.5313 -0.5548  1.7195
  834MOL0     H12536   7.892   2.893  10.398 -0.1843  2.8063  1.4640
  834MOL0     H12537   7.970   2.918  10.690  1.1760  1.9260  0.4870
  834MOL0     H12538   7.878   3.025  10.575  0.7954  1.1112  0.7543
  834MOL0     H12539   8.164   2.937  10.592  2.1371  1.6977 -1.0269
  834MOL0     H12540   8.106   3.018  10.455  0.0466 -3.6541 -0.0429
  834MOL0     H12541   8.240   3.060  10.814 -0.1991  1.1964  3.4788
  834MOL0     H12542   8.257   3.427  10.901  0.9913  0.0781 -2.5671
  834MOL0     H12543   8.270   3.280  10.997  1.8411  1.2361  0.8049
  834MOL0     H12544   8.489   3.345  10.949  1.3684  3.7389 -1.9256
  834MOL0     H12545   8.445   3.207  10.839 -1.5163 -0.1531 -1.7369
  834MOL0     H12546   8.507   3.505  10.754 -3.2695  0.7630 -0.1610
  834MOL0     H12547   8.404   3.415  10.661  0.6717  2.7046  0.2702
  834MOL0     H12548   8.673   3.320  10.742 -1.7825 -0.7842  1.0387
  834MOL0     H12549   8.645   3.395  10.586  1.4869 -1.5639 -1.1625
  834MOL0     H12550   8.522   3.396  10.412 -0.2717 -0.4230 -2.3263
  834MOL0     H12551   8.394   3.367  10.214  2.1620  0.9348  0.3848
  834MOL0     H12552   7.927   2.930  10.123  0.5332 -0.9313  0.1160
  834MOL0     H12553   7.841   2.800   9.915  0.9200 -1.1791  1.5289
  834MOL0     H12554   8.006   2.600   9.842  0.0968 -2.1502 -0.0835
  834MOL0     H12555   7.928   2.559   9.689 -0.0886 -1.3978  0.4512
  834MOL0     H12556   8.169   2.663   9.591  1.5222  0.7593  1.0762
  834MOL0     H12557   8.210   2.594   9.745  1.6148  1.3410 -1.1375
  834MOL0     H12558   8.045   2.451   9.532 -0.2742  2.4350  0.9081
  834MOL0     H12559   8.216   2.426   9.523  1.4747 -1.9077  2.1398
  834MOL0     H12560   8.013   2.328   9.730 -0.4381  0.9680 -2.2500
  834MOL0     H12561   8.193   2.320   9.760  1.2044 -0.3126 -2.4804
  834MOL0     H12562   8.225   2.147   9.656  0.7979  3.8379 -3.2209
  834MOL0     H12563   8.132   2.198   9.521  2.3148  1.2751 -1.1209
  834MOL0     H12564   8.002   2.087   9.788  1.7996 -4.1587 -0.2818
  834MOL0     H12565   7.919   2.139   9.638  0.2151 -0.8694  0.7619
  834MOL0     H12566   8.080   1.891   9.677 -0.4399  2.2490  1.8514
  834MOL0     H12567   8.069   1.969   9.515  2.1471 -1.2666  0.4639
  834MOL0     H12568   7.823   1.884   9.688 -1.6002 -1.7337 -0.2675
  834MOL0     H12569   7.814   1.967   9.540 -1.2041 -0.0577  0.7195
  834MOL0     H12570   8.195   2.854   9.720  0.6072 -0.3817  1.3166
  834MOL0     H12571   8.287   2.992   9.914  0.3519 -0.5431  2.2257
  834MOL0     H12572   8.294   2.965  10.353 -0.5776  0.1955  0.1250
  834MOL0     H12573   8.432   3.005  10.554 -1.9155  0.3290  0.8650
  834MOL0     H12574   7.415   2.170  10.564  3.0369  2.5685 -0.0842
  834MOL0     H12575   7.296   1.976  10.630  0.8883  0.4529 -1.8433
  834MOL0     H12576   7.326   1.618  11.009  0.9288 -0.7254 -1.0076
  834MOL0     H12577   7.251   1.379  11.036 -0.2983  0.5727  0.6970
  834MOL0     H12578   7.048   1.258  10.732  3.4597  1.9310  1.8665
  834MOL0     H12579   6.901   1.197  10.812  0.6035  0.0201  0.2227
  834MOL0     H12580   7.088   1.043  10.933 -0.6588 -1.5193 -0.6280
  834MOL0     H12581   7.175   1.092  10.789  1.8928 -1.5697  2.2384
  834MOL0     H12582   6.975   0.978  10.651 -2.7300 -1.6278  0.2159
  834MOL0     H12583   6.899   0.958  10.804 -0.8416  0.7318 -1.1882
  834MOL0     H12584   7.039   0.736  10.727  1.1498 -1.3772 -0.2123
  834MOL0     H12585   7.179   0.843  10.724 -1.0115  1.0549 -1.1985
  834MOL0     H12586   7.191   0.724  11.119  0.3305  0.1298  0.7604
  834MOL0     H12587   6.916   1.455  10.794  0.3930 -0.1297 -1.5101
  834MOL0     H12588   6.990   1.765  10.692 -1.2578  0.4803 -0.3906
  834MOL0     H12589   6.849   1.661  10.714  0.1168  0.8419 -2.8970
  834MOL0     H12590   6.892   1.781  10.841  1.0963 -1.1191  1.6174
  835MOL0     O12591   5.238   1.914   7.392 -0.6012  0.0176  0.0449
  835MOL0     C12592   5.227   1.799   7.436 -0.4484 -0.0143 -0.3751
  835MOL0     O12593   5.318   1.741   7.519  0.4946  0.5328  0.2751
  835MOL0     C12594   5.456   1.765   7.514  0.3671 -0.3924  0.4270
  835MOL0     C12595   5.532   1.868   7.451  0.4251 -0.8741 -0.3965
  835MOL0     C12596   5.673   1.875   7.460 -0.3020  0.1243 -0.1779
  835MOL0     C12597   5.749   1.776   7.529  0.0052  0.1193 -1.0330
  835MOL0     O12598   5.879   1.792   7.548  0.2122 -0.7978  0.0618
  835MOL0     C12599   5.950   1.826   7.421  0.0929  1.0110 -1.0591
  835MOL0     C12600   6.071   1.735   7.382 -0.4002 -0.6860 -0.0490
  835MOL0     C12601   6.006   1.604   7.350  0.2246  0.1524 -0.3614
  835MOL0     C12602   6.122   1.513   7.291  0.9367 -0.2550 -0.0661
  835MOL0     C12603   6.229   1.447   7.382  0.1130  0.1083  0.2983
  835MOL0     C12604   6.306   1.328   7.313 -0.0645  0.1010 -0.1745
  835MOL0     C12605   6.228   1.197   7.345 -0.0669  0.2684 -0.8225
  835MOL0     C12606   6.294   1.072   7.297  0.3482  0.4970 -0.0514
  835MOL0     N12607   6.186   0.968   7.321 -0.5733  0.7541 -0.1684
  835MOL0     C12608   6.193   0.894   7.436  0.0054  0.6994  0.5307
  835MOL0     C12609   6.067   0.852   7.446 -0.9339  0.3013 -0.3222
  835MOL0     C12610   6.027   0.764   7.556 -0.5106 -0.2816  0.8709
  835MOL0     C12611   5.956   0.825   7.675 -0.3414 -0.3664  0.3527
  835MOL0     C12612   6.057   0.883   7.766 -0.7123  1.0101 -0.4041
  835MOL0     C12613   5.988   0.950   7.889 -0.4935 -0.2121  0.0941
  835MOL0     O12614   6.094   0.998   7.978  0.0483  0.3670  0.1893
  835MOL0     C12615   6.075   1.095   8.072 -0.3776 -0.7352  0.1886
  835MOL0     C12616   5.950   1.117   8.120 -0.5631 -0.0922  0.1787
  835MOL0     C12617   5.926   1.220   8.210 -0.3491 -0.3385 -0.1396
  835MOL0     C12618   6.038   1.298   8.260  1.2885  0.3402 -0.7596
  835MOL0     C12619   6.017   1.406   8.358  0.2229  0.1304  0.4297
  835MOL0     O12620   6.129   1.468   8.405 -0.2204  0.0550  0.1368
  835MOL0     C12621   6.134   1.545   8.518 -0.7346  0.5994  0.0377
  835MOL0     C12622   6.040   1.540   8.619  0.3597 -0.0478 -0.3161
  835MOL0     C12623   6.044   1.619   8.734 -0.5257 -0.6787 -0.2926
  835MOL0     C12624   6.150   1.704   8.743 -1.3116 -0.5616  1.4178
  835MOL0     O12625   6.164   1.776   8.860  0.2627 -0.0677 -0.4033
  835MOL0     C12626   6.287   1.860   8.871  0.9813  0.3640 -0.5205
  835MOL0     C12627   6.304   1.942   9.008 -0.2328 -0.6830 -0.1063
  835MOL0     C12628   6.264   1.851   9.130 -0.4385  0.1332 -0.5224
  835MOL0     C12629   6.364   1.881   9.247 -1.0742 -0.4634  0.5405
  835MOL0     C12630   6.507   1.852   9.214 -0.7739  0.1053  0.2499
  835MOL0     C12631   6.527   1.701   9.175  0.4045 -1.2094 -0.8635
  835MOL0     C12632   6.670   1.661   9.193 -0.0716 -0.2553 -0.4632
  835MOL0     C12633   6.717   1.640   9.338  0.6456  0.4718  0.7660
  835MOL0    Cl12634   6.593   1.545   9.434  0.2096  0.5390  0.0975
  835MOL0     C12635   6.246   1.718   8.640  0.3131 -0.0508 -0.0638
  835MOL0     C12636   6.239   1.637   8.529 -0.7460 -0.5636 -0.1239
  835MOL0     O12637   5.900   1.450   8.371  0.3370  0.7478 -0.6014
  835MOL0     C12638   6.168   1.269   8.212  0.8166  0.1063 -0.2441
  835MOL0     C12639   6.183   1.176   8.109  0.1007  0.5984 -0.7313
  835MOL0     N12640   5.998   0.867   7.328  0.7784 -0.0167  0.8086
  835MOL0     N12641   6.067   0.944   7.253 -0.5238 -0.4597 -1.1415
  835MOL0     C12642   5.670   1.687   7.603 -0.7083 -0.0045 -0.7480
  835MOL0     C12643   5.529   1.678   7.592 -0.2293  0.4027 -0.0324
  835MOL0     C12644   5.098   1.729   7.407 -1.1577 -0.7089 -0.2561
  835MOL0     C12645   5.096   1.594   7.422 -0.5104  0.3335  0.3270
  835MOL0     C12646   4.996   1.510   7.376 -0.1096  0.8653  0.9241
  835MOL0     C12647   4.877   1.562   7.327 -0.3057  0.1532  0.3077
  835MOL0     O12648   4.779   1.491   7.264  0.4597  0.1492  0.6268
  835MOL0     C12649   4.765   1.353   7.282 -0.0410  0.2914 -1.0161
  835MOL0     C12650   4.849   1.257   7.204  0.3564  0.3946  0.4934
  835MOL0     C12651   4.781   1.185   7.086  0.4542 -1.3674 -0.1551
  835MOL0     C12652   4.707   1.055   7.115 -0.5372  0.0960 -0.6742
  835MOL0     C12653   4.632   1.036   6.993 -0.7711  0.2708  0.3064
  835MOL0     C12654   4.568   1.004   6.887  0.1385 -0.3167 -0.1945
  835MOL0     C12655   4.864   1.701   7.334 -0.4416 -0.0021 -0.3059
  835MOL0     C12656   4.969   1.786   7.383  0.4458 -0.9563 -0.4176
  835MOL0     C12657   4.938   1.923   7.383  0.0832 -0.9769  0.1900
  835MOL0     H12658   5.485   1.947   7.394  1.0732 -0.0924  0.1310
  835MOL0     H12659   5.716   1.967   7.419  1.2616  0.4875  2.0981
  835MOL0     H12660   5.888   1.821   7.331  0.8560 -1.4705 -1.5038
  835MOL0     H12661   5.995   1.925   7.435  2.9181 -0.3532  0.3697
  835MOL0     H12662   6.136   1.731   7.470 -0.0184 -2.2872 -0.3675
  835MOL0     H12663   6.118   1.781   7.295 -2.2307 -0.0303 -0.7385
  835MOL0     H12664   5.935   1.619   7.269 -0.4628 -0.2276  0.1513
  835MOL0     H12665   5.941   1.553   7.422 -2.6049  2.4480 -1.1243
  835MOL0     H12666   6.065   1.437   7.236  0.4068  0.5075 -0.5815
  835MOL0     H12667   6.176   1.574   7.218 -0.0471  3.0202  1.7434
  835MOL0     H12668   6.308   1.518   7.410  0.4491 -0.2654  0.3122
  835MOL0     H12669   6.187   1.405   7.474 -0.1281 -2.6455 -0.9619
  835MOL0     H12670   6.326   1.344   7.207  1.1895 -0.8203 -0.1110
  835MOL0     H12671   6.403   1.334   7.363 -0.3962  3.9678  0.3217
  835MOL0     H12672   6.128   1.208   7.300 -0.9107  1.2517  1.1699
  835MOL0     H12673   6.213   1.193   7.453  0.4534  2.9498 -0.5943
  835MOL0     H12674   6.325   1.081   7.192  0.3183 -3.3908 -0.5308
  835MOL0     H12675   6.379   1.062   7.365  1.3179  1.6643 -1.0399
  835MOL0     H12676   6.278   0.890   7.503  0.7048  0.2358 -0.3697
  835MOL0     H12677   5.955   0.689   7.522  1.1072 -1.0869 -0.9486
  835MOL0     H12678   6.115   0.707   7.586 -0.9299 -0.6988  1.3533
  835MOL0     H12679   5.884   0.900   7.640 -0.3870 -1.1762 -1.4194
  835MOL0     H12680   5.906   0.746   7.731 -2.5035  0.0445 -0.8628
  835MOL0     H12681   6.131   0.939   7.709 -0.0210  0.0405 -0.4598
  835MOL0     H12682   6.116   0.806   7.816 -3.3209 -1.6374 -1.1008
  835MOL0     H12683   5.925   0.875   7.937 -1.8187 -0.6450 -2.1990
  835MOL0     H12684   5.917   1.025   7.854  0.8803  0.6085 -1.0525
  835MOL0     H12685   5.865   1.054   8.097 -0.3062 -0.4241  0.1255
  835MOL0     H12686   5.828   1.230   8.255 -0.3449 -0.9784  0.0092
  835MOL0     H12687   5.950   1.479   8.629 -0.0423  0.8888  3.5420
  835MOL0     H12688   5.985   1.608   8.824  0.3084 -0.0271  0.3472
  835MOL0     H12689   6.373   1.796   8.850  0.8801  0.4745 -1.2979
  835MOL0     H12690   6.270   1.934   8.792 -1.7327 -2.6383 -3.0519
  835MOL0     H12691   6.404   1.984   9.018 -0.2622 -0.4829 -0.6187
  835MOL0     H12692   6.234   2.025   8.995  1.0739  0.4970  0.2404
  835MOL0     H12693   6.168   1.894   9.160 -1.0976 -0.5371 -1.5975
  835MOL0     H12694   6.245   1.748   9.101 -2.5763  1.3564 -4.2052
  835MOL0     H12695   6.334   1.833   9.340  2.4656  1.9039  3.1783
  835MOL0     H12696   6.360   1.990   9.257  1.1820 -0.3709  0.9895
  835MOL0     H12697   6.560   1.865   9.309 -1.2265 -0.0137  0.5207
  835MOL0     H12698   6.555   1.927   9.149 -2.3837  2.2861  1.4637
  835MOL0     H12699   6.451   1.647   9.232 -3.0311  2.0430 -1.9214
  835MOL0     H12700   6.494   1.692   9.071 -1.3452 -0.3027 -0.4271
  835MOL0     H12701   6.728   1.738   9.142  1.7058 -1.7291 -0.7975
  835MOL0     H12702   6.681   1.561   9.148 -2.6470 -0.9289  0.2366
  835MOL0     H12703   6.814   1.591   9.348  2.4486  3.5504 -0.1199
  835MOL0     H12704   6.738   1.738   9.384 -0.3120  0.4489  1.2915
  835MOL0     H12705   6.326   1.791   8.630  0.2370  0.4675  2.5457
  835MOL0     H12706   6.307   1.662   8.448 -1.3963 -0.4012 -0.6278
  835MOL0     H12707   6.259   1.320   8.239  2.1585 -2.6497  0.8204
  835MOL0     H12708   6.280   1.144   8.074  1.7440 -0.6364  4.2556
  835MOL0     H12709   5.716   1.624   7.678  0.8487  1.3953 -0.4576
  835MOL0     H12710   5.466   1.607   7.644 -1.7255 -0.5922 -2.9842
  835MOL0     H12711   5.187   1.549   7.460  0.0088  2.1436  1.3532
  835MOL0     H12712   5.010   1.404   7.389  1.6165  0.9079 -0.3253
  835MOL0     H12713   4.658   1.340   7.264  0.3569 -1.9115 -2.1879
  835MOL0     H12714   4.773   1.333   7.389  0.2683 -1.0029 -1.2555
  835MOL0     H12715   4.890   1.177   7.266  1.4826  0.1366 -0.5390
  835MOL0     H12716   4.941   1.299   7.163 -0.5185 -0.7955 -3.1135
  835MOL0     H12717   4.859   1.158   7.014  1.8748  0.2365  0.7054
  835MOL0     H12718   4.720   1.261   7.036  1.9154 -1.0600 -1.5633
  835MOL0     H12719   4.775   0.970   7.125  0.6406  1.0256 -0.5051
  835MOL0     H12720   4.643   1.051   7.203 -0.0693 -0.3636 -0.3489
  835MOL0     H12721   4.516   0.979   6.796 -0.1028 -0.5692  0.0095
  835MOL0     H12722   4.770   1.748   7.305 -0.2526 -0.4704 -1.7394
  835MOL0     H12723   4.829   1.931   7.382  0.0136 -1.6898  1.0316
  835MOL0     H12724   4.991   1.977   7.461  2.6466 -1.9941 -0.7545
  835MOL0     H12725   4.971   1.979   7.294 -1.0027 -1.0078 -0.2482
  836MOL0     O12726   1.399   9.136   3.429  0.3937 -0.2748  0.4433
  836MOL0     C12727   1.425   9.130   3.308 -0.7091 -0.8492  0.1163
  836MOL0     O12728   1.357   9.062   3.217  0.2071  0.0226 -0.3569
  836MOL0     C12729   1.221   9.035   3.244  0.3222 -0.1957 -0.7072
  836MOL0     C12730   1.133   9.111   3.324  0.4228  0.2647 -1.2611
  836MOL0     C12731   0.994   9.065   3.347 -0.8080 -0.3161  0.2722
  836MOL0     C12732   0.952   8.955   3.271  0.2594  0.3985  0.3131
  836MOL0     O12733   0.823   8.892   3.283 -0.0596 -0.4152  0.0194
  836MOL0     C12734   0.704   8.975   3.301 -0.2186 -0.3555  0.5582
  836MOL0     C12735   0.645   9.017   3.163 -0.0442  0.9602  0.1065
  836MOL0     C12736   0.571   8.908   3.087 -0.0969 -0.1176 -0.2573
  836MOL0     C12737   0.522   8.941   2.948  0.3299  0.3403  1.6483
  836MOL0     C12738   0.454   8.818   2.876 -0.4596 -0.6956  0.3772
  836MOL0     C12739   0.413   8.857   2.736 -0.2042  0.1314  0.1825
  836MOL0     C12740   0.498   8.778   2.641 -0.2747 -0.3393 -0.0206
  836MOL0     C12741   0.450   8.773   2.499 -0.5487 -0.0609 -0.3124
  836MOL0     N12742   0.511   8.878   2.418  0.2565 -0.2146 -0.6156
  836MOL0     C12743   0.575   8.863   2.301 -0.3517  1.2166  0.1039
  836MOL0     C12744   0.585   8.981   2.240 -0.7771 -0.2124  0.3305
  836MOL0     C12745   0.656   9.012   2.109 -0.4947  0.3447  0.2055
  836MOL0     C12746   0.566   9.107   2.019 -0.0119  0.4811  0.1658
  836MOL0     C12747   0.613   9.077   1.885  0.4016  0.5297  0.2833
  836MOL0     C12748   0.550   9.166   1.780  0.8281  1.0108 -0.3807
  836MOL0     O12749   0.414   9.122   1.754  0.2723 -0.7823 -0.3664
  836MOL0     C12750   0.347   9.189   1.654 -0.5061  0.8852  0.6875
  836MOL0     C12751   0.349   9.143   1.524 -0.0557 -1.3290  0.0718
  836MOL0     C12752   0.293   9.224   1.426  0.1050 -0.8418  0.1313
  836MOL0     C12753   0.228   9.348   1.464  0.6473  0.4828  0.4796
  836MOL0     C12754   0.160   9.430   1.366  0.1983  0.2970  0.5269
  836MOL0     O12755   0.090   9.538   1.413 -0.2739 -0.7147  0.1346
  836MOL0     C12756   0.026   9.624   1.327  0.5361  0.7121  0.9370
  836MOL0     C12757  -0.109   9.635   1.341  0.5263 -0.6015 -0.4643
  836MOL0     C12758  -0.186   9.707   1.259  0.4562 -0.4555  0.6358
  836MOL0     C12759  -0.135   9.780   1.157  0.3088  0.0819 -0.0322
  836MOL0     O12760  -0.205   9.866   1.073 -0.1505 -0.2033  0.0705
  836MOL0     C12761  -0.304   9.947   1.145  0.1253 -0.1236  0.8623
  836MOL0     C12762  -0.340  10.075   1.071  0.0824 -0.7545 -0.1373
  836MOL0     C12763  -0.232  10.186   1.068  0.8975  0.4262  0.6404
  836MOL0     C12764  -0.224  10.247   0.925  0.2762 -0.9091  0.2636
  836MOL0     C12765  -0.355  10.335   0.907 -0.8896  0.5838  1.1169
  836MOL0     C12766  -0.360  10.385   0.759 -0.7724 -0.5738 -0.6527
  836MOL0     C12767  -0.512  10.436   0.733 -0.1174  0.1093  0.8363
  836MOL0     C12768  -0.522  10.511   0.607  0.4183 -0.6269  0.6618
  836MOL0    Cl12769  -0.691  10.524   0.551 -0.2667  0.0185  0.3216
  836MOL0     C12770   0.008   9.782   1.145  0.1289  0.0600 -0.1684
  836MOL0     C12771   0.084   9.702   1.223 -0.7051  0.2440 -0.5480
  836MOL0     O12772   0.192   9.412   1.246  0.1731 -1.1122 -0.2419
  836MOL0     C12773   0.218   9.382   1.599  0.0903 -0.8794  0.1409
  836MOL0     C12774   0.268   9.290   1.700 -0.1757 -0.5155  0.2033
  836MOL0     N12775   0.524   9.072   2.326  0.2272 -0.0844 -0.8878
  836MOL0     N12776   0.489   9.011   2.439 -0.6934  0.6120 -0.6239
  836MOL0     C12777   1.044   8.879   3.195 -0.0980 -0.0970 -1.2327
  836MOL0     C12778   1.176   8.920   3.179 -0.6366 -0.7055 -0.1439
  836MOL0     C12779   1.556   9.183   3.273 -0.7067 -0.3706 -0.6678
  836MOL0     C12780   1.627   9.125   3.163 -1.1395 -0.4683  0.5649
  836MOL0     C12781   1.751   9.176   3.131 -0.5088 -0.5204  0.3151
  836MOL0     C12782   1.824   9.256   3.215 -0.1243 -1.3546 -0.3832
  836MOL0     O12783   1.955   9.297   3.191  0.6246  0.6082 -0.0767
  836MOL0     C12784   1.986   9.382   3.077 -0.0632  0.8407  0.3918
  836MOL0     C12785   2.126   9.430   3.071  0.6723  0.1009 -0.9870
  836MOL0     C12786   2.128   9.573   3.012  0.4021  0.0152  0.6066
  836MOL0     C12787   2.129   9.554   2.856  0.0494 -0.6578  0.4542
  836MOL0     C12788   2.133   9.688   2.790 -0.4211  0.1560 -0.3482
  836MOL0     C12789   2.155   9.789   2.729 -0.0490 -0.4882  0.6060
  836MOL0     C12790   1.755   9.307   3.323  0.7075 -0.7724  0.5028
  836MOL0     C12791   1.621   9.282   3.351  0.2839 -0.0474 -0.0968
  836MOL0     C12792   1.563   9.365   3.462  0.0821 -0.7552 -1.0767
  836MOL0     H12793   1.176   9.197   3.375 -2.0167 -0.1302  1.6995
  836MOL0     H12794   0.917   9.110   3.409 -0.5065  1.4399 -0.5641
  836MOL0     H12795   0.627   8.910   3.342 -0.0939 -0.6724  0.2974
  836MOL0     H12796   0.721   9.065   3.361 -2.6676  0.4686  0.1668
  836MOL0     H12797   0.724   9.058   3.100  0.2727  1.7275  0.9869
  836MOL0     H12798   0.577   9.101   3.179 -0.5282  0.5443  0.3042
  836MOL0     H12799   0.491   8.871   3.152 -1.9553 -0.5483 -2.6026
  836MOL0     H12800   0.642   8.826   3.070  1.1735  0.7630  0.6227
  836MOL0     H12801   0.441   9.013   2.961  0.5600  0.7304  0.9435
  836MOL0     H12802   0.613   8.968   2.895  0.2455 -3.2556 -0.7184
  836MOL0     H12803   0.522   8.732   2.877  0.0316 -0.3168 -0.3246
  836MOL0     H12804   0.364   8.782   2.928 -0.4961 -0.2455  0.6250
  836MOL0     H12805   0.308   8.834   2.716  0.4300 -1.4345 -1.6634
  836MOL0     H12806   0.427   8.965   2.720  1.1485 -0.3559 -2.5650
  836MOL0     H12807   0.501   8.672   2.666 -1.8186  0.0510  2.0432
  836MOL0     H12808   0.599   8.817   2.653 -1.0135  1.5407  0.4306
  836MOL0     H12809   0.481   8.678   2.455 -2.1509 -0.5951 -0.3498
  836MOL0     H12810   0.342   8.791   2.499 -0.4384  1.0052  2.1283
  836MOL0     H12811   0.604   8.769   2.256 -2.5501  0.6438 -0.2392
  836MOL0     H12812   0.752   9.062   2.124  0.0725 -0.7430  0.3202
  836MOL0     H12813   0.675   8.915   2.061  1.2742  1.0146 -0.5063
  836MOL0     H12814   0.461   9.075   2.029  0.6794 -1.4093  2.4356
  836MOL0     H12815   0.576   9.209   2.057  2.5415  0.0048  0.9681
  836MOL0     H12816   0.588   8.973   1.865 -0.3533  0.6671  0.4777
  836MOL0     H12817   0.722   9.089   1.875  0.3205  3.0177  1.5243
  836MOL0     H12818   0.600   9.166   1.683  0.3539 -0.5748 -0.6697
  836MOL0     H12819   0.543   9.267   1.819 -2.7654  0.1647  1.5825
  836MOL0     H12820   0.402   9.052   1.499  0.8022 -1.0765  0.9243
  836MOL0     H12821   0.291   9.197   1.321 -2.7414  2.8367 -0.9572
  836MOL0     H12822  -0.147   9.568   1.418  3.9422 -1.0489  1.0175
  836MOL0     H12823  -0.295   9.706   1.266  0.3271 -1.7590 -1.1169
  836MOL0     H12824  -0.389   9.879   1.154  0.6650 -1.2052 -1.4088
  836MOL0     H12825  -0.267   9.972   1.245  2.1458  1.3302 -0.1836
  836MOL0     H12826  -0.378  10.052   0.971 -1.2646  2.4886 -0.5081
  836MOL0     H12827  -0.433  10.105   1.120 -0.0174  1.8551 -1.7150
  836MOL0     H12828  -0.260  10.263   1.141 -1.7909  0.5783 -0.4244
  836MOL0     H12829  -0.130  10.148   1.075 -0.3959 -3.6084  0.2342
  836MOL0     H12830  -0.222  10.160   0.859 -0.4283 -1.0281  0.3861
  836MOL0     H12831  -0.134  10.308   0.916  0.3657 -1.3703 -3.0147
  836MOL0     H12832  -0.358  10.420   0.975 -0.5425  2.9090 -1.5775
  836MOL0     H12833  -0.446  10.280   0.933  0.0735  0.1613  3.9584
  836MOL0     H12834  -0.288  10.467   0.752 -0.4300 -0.6709  1.2315
  836MOL0     H12835  -0.346  10.302   0.688 -0.7743 -1.1262 -0.0148
  836MOL0     H12836  -0.534  10.507   0.813  2.1995 -0.8245  2.4309
  836MOL0     H12837  -0.585  10.355   0.737  0.3759 -0.3114  1.6071
  836MOL0     H12838  -0.494  10.612   0.639 -1.6985 -0.7593  3.3129
  836MOL0     H12839  -0.462  10.470   0.525  1.6826 -1.1363  1.8059
  836MOL0     H12840   0.057   9.853   1.079 -0.3766  0.3623 -0.2241
  836MOL0     H12841   0.191   9.698   1.212 -0.3310  0.7988  2.1088
  836MOL0     H12842   0.168   9.470   1.635  2.2363  2.6498 -4.3837
  836MOL0     H12843   0.261   9.296   1.808 -1.6883 -0.4643  0.1281
  836MOL0     H12844   1.016   8.787   3.145 -1.5352 -0.8002  0.7574
  836MOL0     H12845   1.247   8.870   3.114  4.3539  5.5464 -0.4930
  836MOL0     H12846   1.568   9.055   3.105 -0.0896  0.3358 -1.5661
  836MOL0     H12847   1.790   9.139   3.037  0.3683  2.5583 -0.6578
  836MOL0     H12848   1.914   9.464   3.086  0.8731  1.5781  1.3478
  836MOL0     H12849   1.954   9.335   2.984 -0.9231 -0.5683  1.3495
  836MOL0     H12850   2.208   9.367   3.035  2.9056  1.7293  1.0058
  836MOL0     H12851   2.151   9.442   3.177 -1.2449 -1.7538 -0.2508
  836MOL0     H12852   2.225   9.614   3.040  1.5247 -2.1334  0.1170
  836MOL0     H12853   2.047   9.639   3.045  0.4340  0.4188 -0.1000
  836MOL0     H12854   2.217   9.501   2.818 -0.6183 -0.6756 -1.1436
  836MOL0     H12855   2.043   9.501   2.813  0.1984 -1.0671  0.6591
  836MOL0     H12856   2.162   9.873   2.663  0.3903 -0.6782  0.4056
  836MOL0     H12857   1.803   9.385   3.381  0.0429 -0.5543  0.7782
  836MOL0     H12858   1.625   9.448   3.497 -3.0818  0.2555  2.9614
  836MOL0     H12859   1.480   9.426   3.424  0.0312  1.2078  1.8085
  836MOL0     H12860   1.542   9.308   3.553 -2.7746  2.9041  0.8168
  837MOL0     O12861   6.647   2.631   0.138 -0.6358  0.8563 -0.2316
  837MOL0     C12862   6.545   2.591   0.080  0.7167 -0.1088 -0.7393
  837MOL0     O12863   6.532   2.576  -0.058 -0.0592 -0.7771  0.2947
  837MOL0     C12864   6.623   2.648  -0.140  0.7611 -0.4883  0.0565
  837MOL0     C12865   6.726   2.571  -0.200 -0.1118 -0.0013 -1.1954
  837MOL0     C12866   6.832   2.643  -0.258  0.1651 -0.8191 -0.0947
  837MOL0     C12867   6.838   2.783  -0.263  0.1863  0.3608  0.3785
  837MOL0     O12868   6.955   2.842  -0.317  0.5424 -0.3640  0.4728
  837MOL0     C12869   6.962   2.976  -0.364  0.5043  0.2242  0.3132
  837MOL0     C12870   7.098   3.002  -0.434 -0.2678  0.1655  0.7804
  837MOL0     C12871   7.115   2.928  -0.570  0.1840  0.3072 -0.6775
  837MOL0     C12872   7.255   2.947  -0.625  0.2556  0.6724 -0.4474
  837MOL0     C12873   7.349   2.833  -0.571  0.4465 -0.5396  0.2336
  837MOL0     C12874   7.502   2.881  -0.583 -0.8520  1.3946 -0.2550
  837MOL0     C12875   7.605   2.763  -0.549  0.3906 -0.7577 -0.3127
  837MOL0     C12876   7.753   2.789  -0.587  0.4969  0.6354 -0.1289
  837MOL0     N12877   7.819   2.887  -0.501 -0.3854  0.0051  0.4019
  837MOL0     C12878   7.879   3.000  -0.545 -0.7113  0.0607 -0.0989
  837MOL0     C12879   7.924   3.064  -0.435 -0.3414  0.0459  0.1176
  837MOL0     C12880   8.010   3.188  -0.420 -0.0265 -0.3900  1.0934
  837MOL0     C12881   7.907   3.291  -0.399 -0.7763 -0.1268  0.7683
  837MOL0     C12882   7.976   3.425  -0.362 -0.6070  0.0381  0.3790
  837MOL0     C12883   7.872   3.540  -0.323 -0.7204 -0.4520  0.2819
  837MOL0     O12884   7.948   3.666  -0.300  0.3014  0.6141  0.9770
  837MOL0     C12885   8.002   3.686  -0.175  0.5520 -0.8626  0.5230
  837MOL0     C12886   7.983   3.618  -0.051  0.4390 -0.5155 -0.2122
  837MOL0     C12887   8.039   3.656   0.072  1.0333  0.1011  0.1859
  837MOL0     C12888   8.139   3.756   0.076 -0.6144 -0.2571 -1.0792
  837MOL0     C12889   8.210   3.786   0.204 -0.3311 -0.4662  0.2285
  837MOL0     O12890   8.334   3.844   0.204  0.8611 -0.1044  0.5071
  837MOL0     C12891   8.360   3.909   0.321  0.9479  0.1224  0.2550
  837MOL0     C12892   8.381   3.842   0.445 -1.0069 -0.5563 -0.8095
  837MOL0     C12893   8.421   3.917   0.553  0.3491 -0.0183 -0.2353
  837MOL0     C12894   8.446   4.053   0.547  0.1145 -0.3542  0.2703
  837MOL0     O12895   8.512   4.104   0.655  1.2168 -0.9079 -0.5448
  837MOL0     C12896   8.472   4.238   0.698  0.3261  0.5066 -0.5381
  837MOL0     C12897   8.575   4.283   0.809  0.2495  0.0364  0.1844
  837MOL0     C12898   8.552   4.204   0.939  0.4719  0.6427 -0.2458
  837MOL0     C12899   8.649   4.253   1.053 -0.1896  0.1355 -0.2880
  837MOL0     C12900   8.601   4.176   1.187  0.7151  0.0491  0.6876
  837MOL0     C12901   8.716   4.183   1.293 -0.3095 -0.6378  0.2824
  837MOL0     C12902   8.682   4.100   1.420  0.0125  0.1917  0.9080
  837MOL0     C12903   8.585   4.162   1.525 -0.8753 -0.4178  1.1082
  837MOL0    Cl12904   8.651   4.308   1.609  0.1914  0.3801  0.0676
  837MOL0     C12905   8.418   4.116   0.421 -0.2076 -0.4692 -0.2315
  837MOL0     C12906   8.374   4.049   0.310  0.4185  0.3731  0.4614
  837MOL0     O12907   8.150   3.751   0.304  0.0052 -0.0742 -0.4391
  837MOL0     C12908   8.177   3.812  -0.051  0.1711 -0.3882  0.1165
  837MOL0     C12909   8.110   3.784  -0.172  0.8803 -0.4522 -0.0914
  837MOL0     N12910   7.901   2.979  -0.331 -0.8273  1.1433  0.2098
  837MOL0     N12911   7.830   2.879  -0.365  0.6261  0.1540  1.0420
  837MOL0     C12912   6.739   2.849  -0.201 -0.2811 -0.1517  1.0420
  837MOL0     C12913   6.636   2.783  -0.138 -0.8801  0.6400 -0.3224
  837MOL0     C12914   6.424   2.556   0.161  0.5475 -0.3996  0.3458
  837MOL0     C12915   6.432   2.467   0.269  0.3530  0.8955  1.2700
  837MOL0     C12916   6.325   2.430   0.345  0.8024  0.1719  0.1026
  837MOL0     C12917   6.200   2.484   0.317 -0.3516  0.1395 -0.4906
  837MOL0     O12918   6.104   2.426   0.394  0.0681 -0.1325 -0.3785
  837MOL0     C12919   5.983   2.497   0.425  0.6358 -0.6697  0.2593
  837MOL0     C12920   5.977   2.537   0.576  0.5718  0.3571 -0.1449
  837MOL0     C12921   5.885   2.668   0.596  0.1408  0.5820  0.0788
  837MOL0     C12922   5.870   2.695   0.745 -0.5126 -0.4247 -1.0508
  837MOL0     C12923   5.804   2.821   0.776  0.0530  0.0155 -0.2594
  837MOL0     C12924   5.757   2.933   0.783 -1.3414 -0.2087  0.8259
  837MOL0     C12925   6.188   2.576   0.211  0.1291 -0.0180  0.0724
  837MOL0     C12926   6.299   2.603   0.131  0.2739 -0.8460  0.5988
  837MOL0     C12927   6.274   2.699   0.018 -0.5851 -0.0358  1.0881
  837MOL0     H12928   6.728   2.463  -0.196  2.1016  0.0233  0.3076
  837MOL0     H12929   6.908   2.584  -0.308  0.6142 -2.8660  2.7762
  837MOL0     H12930   6.879   2.986  -0.434 -0.7757 -1.4966  1.5246
  837MOL0     H12931   6.951   3.048  -0.282 -0.1336 -2.3357  2.6033
  837MOL0     H12932   7.172   2.960  -0.365 -1.0627  0.3346  1.7729
  837MOL0     H12933   7.113   3.110  -0.437  0.2112  0.0928  0.5199
  837MOL0     H12934   7.038   2.963  -0.641 -1.1772 -1.0200  0.0846
  837MOL0     H12935   7.089   2.823  -0.551 -1.5752  0.7435 -0.4627
  837MOL0     H12936   7.254   2.947  -0.735  2.5249 -0.7454 -0.5198
  837MOL0     H12937   7.297   3.043  -0.592  3.8777 -0.2717 -1.8199
  837MOL0     H12938   7.336   2.822  -0.463  0.4770  0.4289  0.3463
  837MOL0     H12939   7.341   2.737  -0.623  0.1455 -0.8086  0.7660
  837MOL0     H12940   7.513   2.914  -0.687 -1.9624  0.8671 -0.5572
  837MOL0     H12941   7.518   2.968  -0.519 -0.4079 -0.1989  1.9191
  837MOL0     H12942   7.556   2.676  -0.593  1.2823 -0.5079 -1.8769
  837MOL0     H12943   7.603   2.743  -0.441  3.6650 -1.9691 -0.3682
  837MOL0     H12944   7.792   2.687  -0.574  1.8087  1.3847  2.6610
  837MOL0     H12945   7.745   2.819  -0.691  2.0173 -0.0025 -0.4478
  837MOL0     H12946   7.891   3.040  -0.645 -0.6554  0.9789  0.2621
  837MOL0     H12947   8.073   3.185  -0.331 -2.7014 -1.0907  3.1256
  837MOL0     H12948   8.064   3.215  -0.511 -1.0013 -0.9569  0.3259
  837MOL0     H12949   7.859   3.299  -0.497  2.5575 -1.5232 -1.1924
  837MOL0     H12950   7.849   3.259  -0.312 -0.6914  0.7242  1.1483
  837MOL0     H12951   8.040   3.454  -0.446  1.3048 -3.1175  0.6107
  837MOL0     H12952   8.044   3.417  -0.276  1.5442  1.8221 -1.0439
  837MOL0     H12953   7.809   3.503  -0.241 -0.1976  1.8584  1.8328
  837MOL0     H12954   7.790   3.550  -0.396 -2.2381 -1.5745  1.7470
  837MOL0     H12955   7.897   3.553  -0.057 -0.9577  1.3171 -1.2843
  837MOL0     H12956   8.002   3.612   0.164 -1.5621 -0.9832 -1.2623
  837MOL0     H12957   8.375   3.734   0.440  0.0722 -0.5804 -1.8781
  837MOL0     H12958   8.440   3.859   0.643  2.1474 -1.3919 -1.4195
  837MOL0     H12959   8.483   4.292   0.603  1.1981  0.4433 -0.4876
  837MOL0     H12960   8.365   4.235   0.717  0.3552  4.1417  1.1861
  837MOL0     H12961   8.672   4.262   0.763 -0.0874  1.7358 -1.3981
  837MOL0     H12962   8.572   4.390   0.831 -0.6410 -0.2253  1.4210
  837MOL0     H12963   8.449   4.219   0.971 -0.8838 -2.8529 -2.3823
  837MOL0     H12964   8.545   4.097   0.920  0.3563  1.0182 -2.6480
  837MOL0     H12965   8.653   4.362   1.058  1.5895  0.0413  1.3404
  837MOL0     H12966   8.749   4.215   1.028 -0.1950 -0.8658  1.0842
  837MOL0     H12967   8.565   4.075   1.167  4.1797 -1.1473 -0.0776
  837MOL0     H12968   8.516   4.232   1.229  0.6969 -0.5099  1.4162
  837MOL0     H12969   8.804   4.134   1.248 -1.9843 -1.3788 -2.4203
  837MOL0     H12970   8.745   4.285   1.319 -2.6051  0.3720 -0.8912
  837MOL0     H12971   8.779   4.075   1.464 -0.4647 -2.3823  0.6649
  837MOL0     H12972   8.630   4.007   1.393  2.3809 -1.1270  0.6135
  837MOL0     H12973   8.492   4.180   1.469 -1.0062 -0.8710  1.1833
  837MOL0     H12974   8.570   4.080   1.595 -0.4265 -1.0074  0.5274
  837MOL0     H12975   8.442   4.221   0.409 -0.8803 -0.3105 -0.2438
  837MOL0     H12976   8.362   4.099   0.214 -1.8538  1.1999  1.1193
  837MOL0     H12977   8.264   3.874  -0.070 -2.4344  2.9101 -2.0368
  837MOL0     H12978   8.139   3.838  -0.262 -2.6405  0.8288 -0.6196
  837MOL0     H12979   6.741   2.957  -0.205  0.9114 -0.1851 -1.8832
  837MOL0     H12980   6.575   2.831  -0.062  1.3441  1.1278  1.2330
  837MOL0     H12981   6.527   2.425   0.301 -1.0382 -3.1853  0.5923
  837MOL0     H12982   6.335   2.357   0.425 -4.1690 -0.1780  0.7068
  837MOL0     H12983   5.903   2.431   0.392  0.9381 -1.7666  1.6326
  837MOL0     H12984   5.974   2.583   0.358  0.4075 -1.6181 -0.9646
  837MOL0     H12985   6.081   2.542   0.610  0.8434 -4.4878  0.3247
  837MOL0     H12986   5.924   2.458   0.629  0.1041  1.1329  0.5692
  837MOL0     H12987   5.785   2.637   0.564 -0.6126  0.9795  1.9611
  837MOL0     H12988   5.905   2.761   0.542 -1.6775 -0.7410 -3.1477
  837MOL0     H12989   5.820   2.614   0.799 -1.8093 -1.0553 -3.0895
  837MOL0     H12990   5.968   2.703   0.792 -1.9581  1.1176  1.9956
  837MOL0     H12991   5.718   3.032   0.792  0.3619  0.4493  1.4827
  837MOL0     H12992   6.089   2.617   0.197  0.3882  0.7286  0.3647
  837MOL0     H12993   6.184   2.758   0.035 -1.0811 -0.4071 -0.1089
  837MOL0     H12994   6.358   2.767   0.006  0.1034 -0.6488  2.2503
  837MOL0     H12995   6.258   2.642  -0.075  1.7110  2.5952 -1.0854
  838MOL0     O12996   5.267   5.913   3.943  0.2635 -0.5336 -0.0027
  838MOL0     C12997   5.229   5.801   3.962 -1.2104  0.0240 -0.7881
  838MOL0     O12998   5.135   5.735   3.890 -0.1267  0.2736 -0.8845
  838MOL0     C12999   5.082   5.801   3.783 -0.9752  0.0914 -0.8015
  838MOL0     C13000   5.161   5.857   3.680 -0.4322  0.9191 -0.4503
  838MOL0     C13001   5.099   5.918   3.569 -0.0365  0.3559 -0.2979
  838MOL0     C13002   4.954   5.923   3.571 -0.0399 -0.4699 -2.0066
  838MOL0     O13003   4.890   5.966   3.458 -0.7420  0.6974  0.3353
  838MOL0     C13004   4.958   5.957   3.334 -0.6715  0.2601  0.0029
  838MOL0     C13005   4.867   5.935   3.220  0.6394  0.3151 -0.9245
  838MOL0     C13006   4.806   5.785   3.224 -0.6593 -0.7023 -0.6099
  838MOL0     C13007   4.658   5.787   3.247 -0.0485  1.1619 -0.5000
  838MOL0     C13008   4.594   5.654   3.303  0.6135 -0.1784 -0.5237
  838MOL0     C13009   4.629   5.526   3.233 -0.5427 -0.2122 -0.1852
  838MOL0     C13010   4.585   5.531   3.083 -0.4116 -0.3463 -0.6470
  838MOL0     C13011   4.561   5.385   3.040  0.2130  0.5603  0.5027
  838MOL0     N13012   4.540   5.373   2.894 -0.3215 -0.4483  1.1180
  838MOL0     C13013   4.428   5.406   2.825 -0.4831 -0.1798 -1.2948
  838MOL0     C13014   4.465   5.402   2.699 -0.5449 -0.4882 -0.2462
  838MOL0     C13015   4.370   5.422   2.585  0.6425  0.0589 -0.3280
  838MOL0     C13016   4.360   5.568   2.536 -0.0449  0.7885  0.4513
  838MOL0     C13017   4.438   5.667   2.623  0.2334  0.3592 -0.0750
  838MOL0     C13018   4.433   5.809   2.556  0.8236  0.4232 -0.5676
  838MOL0     O13019   4.294   5.855   2.552  0.2346  0.2942 -0.4354
  838MOL0     C13020   4.251   5.934   2.457  0.3356 -0.0405  0.0259
  838MOL0     C13021   4.333   6.017   2.369  0.1840  0.9450 -0.5272
  838MOL0     C13022   4.274   6.086   2.279 -0.1763 -0.0034  0.1867
  838MOL0     C13023   4.138   6.085   2.248  0.4872  0.6347 -0.9088
  838MOL0     C13024   4.067   6.158   2.138  0.0015  0.1499 -0.1565
  838MOL0     O13025   4.129   6.269   2.117 -0.0287 -0.5555 -0.4327
  838MOL0     C13026   4.091   6.331   1.997 -0.0318 -0.8533  0.5007
  838MOL0     C13027   4.136   6.280   1.879 -0.2324 -0.7322  0.1194
  838MOL0     C13028   4.099   6.361   1.765 -0.5510  0.1411  0.1607
  838MOL0     C13029   4.024   6.473   1.765  0.1325  0.0740  0.5127
  838MOL0     O13030   4.000   6.531   1.643  0.1025  0.1827 -0.3648
  838MOL0     C13031   4.038   6.675   1.646  0.2196 -0.0156  0.7616
  838MOL0     C13032   4.170   6.716   1.705  0.1430 -0.6004 -0.4889
  838MOL0     C13033   4.214   6.848   1.638  1.1315 -0.4896  0.2271
  838MOL0     C13034   4.355   6.872   1.692 -0.1655  0.6066 -0.8173
  838MOL0     C13035   4.453   6.943   1.599 -0.4159  0.0603  0.5956
  838MOL0     C13036   4.408   7.088   1.586  0.4922  1.5494 -0.0588
  838MOL0     C13037   4.515   7.156   1.505 -0.5561  0.2972  0.2998
  838MOL0     C13038   4.475   7.294   1.478 -0.3600 -0.0621  1.3086
  838MOL0    Cl13039   4.528   7.333   1.310  0.0831 -0.1916 -0.4544
  838MOL0     C13040   3.980   6.519   1.890 -0.6641  0.3372  0.5447
  838MOL0     C13041   4.015   6.449   2.011 -1.5137 -0.6995 -0.1869
  838MOL0     O13042   3.965   6.111   2.077 -0.5091 -0.3196  0.3716
  838MOL0     C13043   4.055   6.000   2.326 -0.2249 -0.3146 -0.6424
  838MOL0     C13044   4.114   5.925   2.428 -0.3206 -0.6931 -0.4491
  838MOL0     N13045   4.594   5.358   2.685 -0.2381  0.8800 -0.0578
  838MOL0     N13046   4.644   5.343   2.800  0.2864 -0.2803 -0.3193
  838MOL0     C13047   4.873   5.872   3.670  0.3652 -0.4340  0.5538
  838MOL0     C13048   4.941   5.813   3.778 -0.1698 -0.1958  0.0090
  838MOL0     C13049   5.289   5.733   4.073 -0.4530  0.9581 -0.2991
  838MOL0     C13050   5.298   5.597   4.063 -0.4351  0.5411 -0.4506
  838MOL0     C13051   5.354   5.515   4.160 -0.0094  0.4640 -1.1559
  838MOL0     C13052   5.390   5.570   4.282 -0.2129 -0.9279 -0.9265
  838MOL0     O13053   5.428   5.511   4.400 -0.0535 -0.0952 -0.0269
  838MOL0     C13054   5.431   5.372   4.415 -0.4055  1.2559  0.7286
  838MOL0     C13055   5.294   5.304   4.440 -0.2177 -0.2778 -0.1256
  838MOL0     C13056   5.308   5.159   4.488  1.1639  0.2653 -0.6040
  838MOL0     C13057   5.168   5.115   4.553  0.4601 -0.9935  1.2425
  838MOL0     C13058   5.047   5.134   4.460 -0.1033  0.0972  0.6520
  838MOL0     C13059   4.954   5.129   4.389  0.5736 -0.8187  0.5335
  838MOL0     C13060   5.384   5.708   4.301 -0.2483 -0.1631  0.4693
  838MOL0     C13061   5.334   5.794   4.196 -0.0647  0.4376  1.1949
  838MOL0     C13062   5.321   5.946   4.224 -0.7301 -0.0475  0.8284
  838MOL0     H13063   5.266   5.831   3.690 -0.6520  0.3954  0.7470
  838MOL0     H13064   5.169   5.954   3.495  4.0636  0.2614  3.1188
  838MOL0     H13065   5.012   6.051   3.324  0.9764 -0.3832  2.2310
  838MOL0     H13066   5.041   5.886   3.329  1.0073  2.0955  0.4020
  838MOL0     H13067   4.920   5.947   3.124  1.5173  3.0297 -0.1797
  838MOL0     H13068   4.786   6.008   3.218  1.2186  1.1746  2.3024
  838MOL0     H13069   4.859   5.718   3.292 -0.1771 -0.6616 -0.9401
  838MOL0     H13070   4.819   5.743   3.123 -1.7642  0.4435 -1.2579
  838MOL0     H13071   4.655   5.865   3.324 -1.5016  1.8661 -1.2247
  838MOL0     H13072   4.609   5.817   3.154 -0.2081  0.8360 -0.5226
  838MOL0     H13073   4.633   5.655   3.405  1.2486  1.7332 -0.7358
  838MOL0     H13074   4.487   5.670   3.315  0.8072 -0.3276  1.9638
  838MOL0     H13075   4.737   5.525   3.247 -0.6788 -0.8025  0.9106
  838MOL0     H13076   4.580   5.437   3.273 -1.3689  0.0041 -0.6651
  838MOL0     H13077   4.672   5.574   3.033  0.9738 -0.4592  1.5292
  838MOL0     H13078   4.487   5.577   3.069 -1.4740 -1.5600  2.1120
  838MOL0     H13079   4.646   5.324   3.072 -0.4288 -0.5922  0.0684
  838MOL0     H13080   4.468   5.344   3.082  1.0194 -0.7310  1.0997
  838MOL0     H13081   4.336   5.450   2.861  1.3353  2.2008  0.8157
  838MOL0     H13082   4.389   5.342   2.513  0.7200 -0.1085 -0.1260
  838MOL0     H13083   4.266   5.396   2.610 -0.0210  0.8992 -2.0936
  838MOL0     H13084   4.389   5.571   2.431  0.1118  0.3293  0.4802
  838MOL0     H13085   4.254   5.594   2.540 -0.2668 -0.2276  1.8720
  838MOL0     H13086   4.543   5.639   2.613 -0.4092 -2.0872 -0.8450
  838MOL0     H13087   4.408   5.664   2.728 -0.8902 -1.9011 -0.4053
  838MOL0     H13088   4.458   5.800   2.450 -1.0220 -3.9801 -0.8056
  838MOL0     H13089   4.495   5.880   2.613 -0.3214 -1.3706  3.2677
  838MOL0     H13090   4.439   6.040   2.368  0.2988  0.5726  0.8637
  838MOL0     H13091   4.327   6.163   2.225  0.1635 -1.4112 -1.5777
  838MOL0     H13092   4.203   6.197   1.863 -2.4555 -2.1718 -2.6885
  838MOL0     H13093   4.131   6.326   1.667 -1.3169  1.0239 -0.4257
  838MOL0     H13094   4.040   6.685   1.537 -1.6597  0.6945  0.7591
  838MOL0     H13095   3.963   6.741   1.690  0.2134  0.2344  0.3827
  838MOL0     H13096   4.151   6.742   1.810 -0.4640  4.5855 -1.6379
  838MOL0     H13097   4.245   6.639   1.688 -1.2026 -1.7161 -1.6382
  838MOL0     H13098   4.194   6.831   1.532 -4.8398 -3.9910  1.4343
  838MOL0     H13099   4.149   6.930   1.670  2.0051 -1.1673  4.3435
  838MOL0     H13100   4.399   6.775   1.716 -1.1176  0.0569 -1.2536
  838MOL0     H13101   4.345   6.919   1.790 -0.4572 -0.8260 -0.1346
  838MOL0     H13102   4.453   6.894   1.501 -0.2477 -1.8300  1.4967
  838MOL0     H13103   4.557   6.937   1.633 -0.0632 -0.7235 -0.5841
  838MOL0     H13104   4.307   7.086   1.545 -0.8607  0.6585  3.0654
  838MOL0     H13105   4.406   7.122   1.690  1.5394  1.7373 -0.0792
  838MOL0     H13106   4.526   7.106   1.408  0.6902 -3.4491  2.1532
  838MOL0     H13107   4.614   7.166   1.551 -0.2373  1.3099 -0.5721
  838MOL0     H13108   4.368   7.314   1.488 -0.4751  1.4891 -1.8107
  838MOL0     H13109   4.534   7.367   1.535  0.6613  0.5407 -0.4415
  838MOL0     H13110   3.928   6.614   1.899 -3.0324 -0.8036 -0.3186
  838MOL0     H13111   3.998   6.477   2.114 -0.3395 -0.4674 -0.0358
  838MOL0     H13112   3.950   5.989   2.303 -0.2682 -3.7298  0.5038
  838MOL0     H13113   4.052   5.860   2.490  1.4690 -1.8616  0.2153
  838MOL0     H13114   4.765   5.876   3.662  0.3769 -1.1778 -0.1134
  838MOL0     H13115   4.882   5.765   3.856  0.4026  0.4656  0.8728
  838MOL0     H13116   5.265   5.539   3.978 -2.0356  1.1049 -0.2548
  838MOL0     H13117   5.365   5.411   4.130  0.2102  0.1059  0.1179
  838MOL0     H13118   5.497   5.335   4.494 -1.0664 -1.8001 -0.0177
  838MOL0     H13119   5.480   5.321   4.331 -0.1038  1.2294  0.9173
  838MOL0     H13120   5.251   5.318   4.340 -2.1127  1.0938  0.8087
  838MOL0     H13121   5.237   5.361   4.514 -1.8328 -1.8587 -0.0906
  838MOL0     H13122   5.390   5.146   4.559  0.1700 -0.8256  0.3743
  838MOL0     H13123   5.327   5.092   4.404  2.0730 -1.0065  0.5747
  838MOL0     H13124   5.165   5.010   4.584  1.2011 -0.8841  1.7150
  838MOL0     H13125   5.160   5.181   4.640  3.4218 -4.0489  4.1405
  838MOL0     H13126   4.870   5.109   4.325  2.3537 -0.6725 -2.0248
  838MOL0     H13127   5.410   5.760   4.393  0.1983 -1.7009  1.2488
  838MOL0     H13128   5.394   5.999   4.162 -0.3034 -3.5115 -1.9510
  838MOL0     H13129   5.220   5.975   4.193 -2.4026 -3.8740  2.1609
  838MOL0     H13130   5.337   5.963   4.331 -3.7888  0.2924  1.3453
  839MOL0     O13131   0.166   4.432   7.207  0.0172  0.2975 -0.7772
  839MOL0     C13132   0.183   4.380   7.095 -0.3322 -0.7611 -0.3120
  839MOL0     O13133   0.308   4.340   7.051  0.2412  0.0441  0.0241
  839MOL0     C13134   0.423   4.414   7.086 -0.0301  0.5748 -0.2335
  839MOL0     C13135   0.429   4.555   7.067 -0.3073  1.0375  0.1815
  839MOL0     C13136   0.553   4.618   7.101 -0.2371  0.5146  0.4944
  839MOL0     C13137   0.671   4.554   7.121 -0.5674 -0.0694 -0.3523
  839MOL0     O13138   0.787   4.624   7.148  0.1826 -0.3331  0.1948
  839MOL0     C13139   0.791   4.760   7.102 -0.6710  0.8154 -0.5579
  839MOL0     C13140   0.928   4.809   7.145  0.6514  0.3994  0.6553
  839MOL0     C13141   0.939   4.961   7.116 -1.0555 -0.3364 -0.0517
  839MOL0     C13142   1.071   5.024   7.182 -0.7738  0.5209  0.1147
  839MOL0     C13143   1.048   5.177   7.185 -0.6228 -0.0945  0.0432
  839MOL0     C13144   1.176   5.253   7.206 -0.1659  0.3850 -0.2919
  839MOL0     C13145   1.150   5.411   7.223  0.9556  0.1930  0.1520
  839MOL0     C13146   1.112   5.473   7.081  0.7758  0.0837 -0.5063
  839MOL0     N13147   1.152   5.618   7.058 -0.0472 -0.3587 -0.0161
  839MOL0     C13148   1.082   5.709   6.972  0.2456  0.2965  0.5381
  839MOL0     C13149   1.166   5.796   6.920 -0.8548  0.1491  1.2395
  839MOL0     C13150   1.127   5.900   6.816  0.1561 -0.0131 -0.1490
  839MOL0     C13151   1.097   5.837   6.676  0.2782 -0.6514 -0.7839
  839MOL0     C13152   1.203   5.848   6.567  0.7041  0.0911 -0.0830
  839MOL0     C13153   1.184   5.764   6.439  0.1144 -0.9463  0.2963
  839MOL0     O13154   1.219   5.623   6.465 -0.3602 -0.3744 -0.0122
  839MOL0     C13155   1.119   5.537   6.460  0.3995  0.2506 -0.4377
  839MOL0     C13156   1.051   5.529   6.335  1.0359 -0.0520  0.7642
  839MOL0     C13157   0.961   5.417   6.317 -0.0830 -0.5135 -0.7053
  839MOL0     C13158   0.935   5.326   6.423  0.0743  0.3720  0.2343
  839MOL0     C13159   0.830   5.220   6.423  0.6570  0.3959  0.3352
  839MOL0     O13160   0.752   5.199   6.307  0.0251  0.7034  0.4651
  839MOL0     C13161   0.636   5.131   6.300 -0.0335 -0.6156 -0.3206
  839MOL0     C13162   0.543   5.126   6.406  0.6517  0.4250  0.6107
  839MOL0     C13163   0.412   5.080   6.384  0.4458 -0.2989 -0.6650
  839MOL0     C13164   0.374   5.032   6.263  0.6958 -1.3237  0.5128
  839MOL0     O13165   0.237   5.001   6.254 -0.1028 -0.2282  0.1700
  839MOL0     C13166   0.192   4.955   6.122  0.3556 -0.4915 -0.3929
  839MOL0     C13167   0.048   4.920   6.147  0.8016  0.0446  0.3056
  839MOL0     C13168  -0.016   4.886   6.010 -0.3311 -0.6156 -0.5673
  839MOL0     C13169  -0.156   4.852   6.036 -0.5633  0.3415 -0.3800
  839MOL0     C13170  -0.241   4.980   6.070  0.5537  0.3327 -0.0899
  839MOL0     C13171  -0.385   4.953   6.011  0.4019  0.3094  0.6797
  839MOL0     C13172  -0.470   4.874   6.116 -0.0033 -0.0885 -0.7213
  839MOL0     C13173  -0.622   4.871   6.099  0.3159  0.2338  0.0710
  839MOL0    Cl13174  -0.664   4.716   6.020 -0.1721 -0.0676 -0.3112
  839MOL0     C13175   0.466   5.038   6.151  0.2740  0.5675  0.5414
  839MOL0     C13176   0.595   5.091   6.178  0.1679 -0.3332 -0.5945
  839MOL0     O13177   0.827   5.148   6.522  0.4555 -0.8204  0.8049
  839MOL0     C13178   1.018   5.330   6.538 -0.0035 -0.4904 -0.4447
  839MOL0     C13179   1.107   5.442   6.560  0.6593 -0.3446  0.3673
  839MOL0     N13180   1.287   5.762   6.978 -0.1430  0.3228  0.1459
  839MOL0     N13181   1.281   5.658   7.055  0.4894  0.4493 -0.1078
  839MOL0     C13182   0.665   4.415   7.138 -0.1053  0.9423 -0.5398
  839MOL0     C13183   0.544   4.347   7.117 -0.6286  0.5968  0.1822
  839MOL0     C13184   0.070   4.373   7.003  0.1226  0.2479  0.2044
  839MOL0     C13185   0.047   4.252   6.928 -0.5026  1.3570 -0.4265
  839MOL0     C13186  -0.058   4.238   6.842  0.9487 -0.5496  0.6134
  839MOL0     C13187  -0.139   4.340   6.810  0.3448 -0.0895 -0.1998
  839MOL0     O13188  -0.249   4.331   6.720 -0.0528  0.2522 -0.1024
  839MOL0     C13189  -0.304   4.199   6.689  0.1722  0.2927 -0.1551
  839MOL0     C13190  -0.345   4.103   6.805 -0.1890 -0.0755  0.8791
  839MOL0     C13191  -0.463   4.006   6.771  0.1255 -0.2441  0.3289
  839MOL0     C13192  -0.550   3.928   6.880  0.3023  0.5833 -0.3293
  839MOL0     C13193  -0.458   3.869   6.982  0.0635 -0.5908  0.2852
  839MOL0     C13194  -0.378   3.834   7.064  0.4004 -0.2848 -0.2251
  839MOL0     C13195  -0.126   4.459   6.890 -0.0486 -0.6221  0.4495
  839MOL0     C13196  -0.021   4.475   6.981  0.6161  0.3092  0.5253
  839MOL0     C13197  -0.020   4.609   7.047  0.2761  0.4781 -0.3299
  839MOL0     H13198   0.345   4.616   7.037  0.9075  1.2041 -3.3613
  839MOL0     H13199   0.526   4.723   7.094 -1.6997  0.4195  3.1384
  839MOL0     H13200   0.766   4.762   6.995 -0.6153 -1.5305 -0.6659
  839MOL0     H13201   0.705   4.810   7.146 -1.1432 -1.4529  1.3082
  839MOL0     H13202   1.001   4.770   7.073  0.8085  0.6245  0.6914
  839MOL0     H13203   0.948   4.774   7.247 -2.2071 -0.1368  1.1046
  839MOL0     H13204   0.853   5.013   7.161  1.5970  2.4994  2.2116
  839MOL0     H13205   0.929   4.972   7.008  0.8009 -1.2371 -0.3364
  839MOL0     H13206   1.079   4.987   7.284 -2.5400  1.4797  0.6516
  839MOL0     H13207   1.152   4.998   7.113 -0.6078  0.3642  0.3692
  839MOL0     H13208   0.995   5.202   7.093 -2.7533 -1.2755  0.8865
  839MOL0     H13209   0.978   5.197   7.267  0.0625 -2.6302  1.3635
  839MOL0     H13210   1.210   5.226   7.307 -0.1325  0.8659 -0.1699
  839MOL0     H13211   1.258   5.226   7.139 -1.0406  0.3062 -1.3484
  839MOL0     H13212   1.233   5.458   7.275  2.7445 -2.7698  0.2201
  839MOL0     H13213   1.058   5.428   7.280 -0.1827  2.9851 -2.2881
  839MOL0     H13214   1.177   5.428   7.004 -1.2730  0.2190 -2.4137
  839MOL0     H13215   1.010   5.447   7.051  0.9390 -1.2722  0.0450
  839MOL0     H13216   0.974   5.713   6.959 -0.3004  0.5627  4.0835
  839MOL0     H13217   1.035   5.950   6.846 -2.0280 -1.5623 -3.7001
  839MOL0     H13218   1.206   5.974   6.795  0.3679 -0.5654 -1.3810
  839MOL0     H13219   1.079   5.731   6.695  2.4774 -0.7414  1.2924
  839MOL0     H13220   1.007   5.882   6.635 -0.1545 -0.7426  0.0435
  839MOL0     H13221   1.291   5.800   6.612  0.4770 -1.0332 -0.7853
  839MOL0     H13222   1.222   5.954   6.552 -1.5989  0.2423 -2.6398
  839MOL0     H13223   1.240   5.812   6.359 -1.4430  2.2454  0.9312
  839MOL0     H13224   1.078   5.757   6.413 -0.7888 -2.1629  3.7106
  839MOL0     H13225   1.086   5.578   6.245  2.6721 -3.7716 -0.8321
  839MOL0     H13226   0.903   5.400   6.227  0.1974  0.6873 -1.1359
  839MOL0     H13227   0.562   5.175   6.501 -3.1487  1.3920  1.0207
  839MOL0     H13228   0.345   5.084   6.469  3.2285 -2.3553  1.8500
  839MOL0     H13229   0.192   5.032   6.045 -1.4737 -1.9539 -1.9786
  839MOL0     H13230   0.251   4.870   6.086 -1.6935 -0.8055 -3.4058
  839MOL0     H13231   0.037   4.828   6.204 -3.2128 -0.8410 -1.5452
  839MOL0     H13232  -0.003   5.001   6.200 -3.7497 -0.4044 -2.8326
  839MOL0     H13233  -0.002   4.962   5.933  1.9301 -2.3670 -1.9936
  839MOL0     H13234   0.040   4.801   5.971  3.9654  0.7953  1.8780
  839MOL0     H13235  -0.162   4.773   6.111  1.3590  1.3368  0.9228
  839MOL0     H13236  -0.190   4.815   5.939  0.1927  2.5092 -1.5403
  839MOL0     H13237  -0.200   5.067   6.017 -1.2155  1.6009  0.5065
  839MOL0     H13238  -0.247   4.984   6.179 -3.0073  3.9043 -0.1582
  839MOL0     H13239  -0.449   5.041   5.996 -2.0890 -1.7414 -1.9116
  839MOL0     H13240  -0.390   4.898   5.917  0.0891  1.1667  0.1824
  839MOL0     H13241  -0.476   4.923   6.213 -0.9964  0.0515 -0.8355
  839MOL0     H13242  -0.426   4.774   6.126 -0.8723 -0.2448  3.1095
  839MOL0     H13243  -0.690   4.881   6.183 -1.7733  2.0051 -1.6965
  839MOL0     H13244  -0.654   4.947   6.027 -0.5154 -2.5655 -2.7523
  839MOL0     H13245   0.459   5.013   6.045 -0.0526  1.3892  0.3544
  839MOL0     H13246   0.657   5.107   6.091 -1.2908  5.2377 -1.0525
  839MOL0     H13247   1.007   5.262   6.622  1.5856 -0.2891 -0.0305
  839MOL0     H13248   1.161   5.457   6.653 -0.0757  1.7537  0.4953
  839MOL0     H13249   0.755   4.356   7.150 -1.6379 -1.6775 -1.0284
  839MOL0     H13250   0.530   4.240   7.103 -0.7975  0.9226 -2.7176
  839MOL0     H13251   0.093   4.155   6.943 -1.3146  0.7034 -1.8955
  839MOL0     H13252  -0.079   4.142   6.795  0.2829 -0.4204  0.6394
  839MOL0     H13253  -0.240   4.149   6.616 -0.6216  0.1734 -0.7834
  839MOL0     H13254  -0.398   4.216   6.636 -0.3009  0.4807  0.7344
  839MOL0     H13255  -0.388   4.164   6.885 -2.3581  0.1129 -0.3578
  839MOL0     H13256  -0.254   4.053   6.838 -0.4677  0.0381  1.8481
  839MOL0     H13257  -0.447   3.928   6.696  0.3387 -0.6611  0.8026
  839MOL0     H13258  -0.539   4.073   6.728  2.6434  1.8537 -1.1323
  839MOL0     H13259  -0.620   3.991   6.935  3.8035  3.0605  1.7045
  839MOL0     H13260  -0.610   3.848   6.836 -0.9228 -0.9486  3.6221
  839MOL0     H13261  -0.317   3.765   7.119 -1.1945 -1.7638 -0.2267
  839MOL0     H13262  -0.198   4.536   6.864  0.6195 -0.4603 -1.0392
  839MOL0     H13263   0.071   4.658   7.011  2.7085 -1.4582  2.6074
  839MOL0     H13264  -0.106   4.672   7.024 -1.4211  0.4440  4.6338
  839MOL0     H13265  -0.030   4.594   7.155  0.7617 -0.7339 -0.4406
  840MOL0     O13266   3.008   7.149   1.028 -0.3081  1.1876 -0.4767
  840MOL0     C13267   3.041   7.240   1.106  0.2160  0.0181  0.7019
  840MOL0     O13268   3.151   7.236   1.186  0.2530  0.4117  0.0838
  840MOL0     C13269   3.235   7.122   1.174 -0.4715  0.6653  0.9792
  840MOL0     C13270   3.222   7.004   1.255  0.5176  0.4188 -0.5485
  840MOL0     C13271   3.317   6.898   1.245  0.1649  0.1721  0.0450
  840MOL0     C13272   3.431   6.911   1.156  0.4648  0.1569  1.1025
  840MOL0     O13273   3.534   6.822   1.133 -0.4911  0.5692  0.0171
  840MOL0     C13274   3.535   6.707   1.218 -1.4857 -0.3616  0.1299
  840MOL0     C13275   3.655   6.612   1.174  0.3218  0.4311  0.2992
  840MOL0     C13276   3.628   6.468   1.210 -0.4615  0.3501 -0.5939
  840MOL0     C13277   3.766   6.395   1.222 -0.4816 -0.4553  0.0789
  840MOL0     C13278   3.757   6.243   1.254 -0.4122 -0.2625 -0.0411
  840MOL0     C13279   3.683   6.201   1.383  0.6276  0.2572 -0.4890
  840MOL0     C13280   3.758   6.252   1.509 -0.6993  0.2955  0.0253
  840MOL0     C13281   3.671   6.225   1.641  0.2097  0.0229 -0.9361
  840MOL0     N13282   3.684   6.087   1.684  0.2398 -0.2382  0.0795
  840MOL0     C13283   3.756   6.042   1.788 -1.3115  0.4018 -0.6610
  840MOL0     C13284   3.696   5.924   1.830  0.1499 -0.7629  0.2832
  840MOL0     C13285   3.746   5.840   1.944  0.0462 -0.8967 -0.2208
  840MOL0     C13286   3.894   5.792   1.911  0.5476 -0.0563 -0.3461
  840MOL0     C13287   3.915   5.638   1.876  0.0385 -0.1554 -1.4419
  840MOL0     C13288   3.837   5.578   1.761 -0.0290  0.4604 -0.5793
  840MOL0     O13289   3.886   5.443   1.740 -0.2493 -0.0003  0.6050
  840MOL0     C13290   3.827   5.331   1.788  0.2231 -0.6717 -0.2149
  840MOL0     C13291   3.878   5.207   1.752  0.5504 -0.6132  1.0282
  840MOL0     C13292   3.820   5.093   1.814  0.1428  0.1884  0.9748
  840MOL0     C13293   3.728   5.098   1.910  0.0685 -0.2728 -0.1893
  840MOL0     C13294   3.682   4.978   1.980  0.0271  0.9029 -0.0824
  840MOL0     O13295   3.564   4.990   2.045  0.0241 -0.0446  0.6924
  840MOL0     C13296   3.539   4.898   2.143  0.8211  0.1888  1.4880
  840MOL0     C13297   3.462   4.791   2.114 -0.4681 -0.4016  0.3769
  840MOL0     C13298   3.409   4.724   2.213 -0.3198  0.7628 -0.1148
  840MOL0     C13299   3.437   4.734   2.349 -0.9435  0.4139 -0.1623
  840MOL0     O13300   3.362   4.660   2.437 -0.2035 -0.0550  0.7945
  840MOL0     C13301   3.364   4.513   2.442  0.9840 -0.4647  0.3795
  840MOL0     C13302   3.459   4.470   2.556  0.7878 -0.0689  0.2336
  840MOL0     C13303   3.604   4.433   2.515  0.7550 -0.6528  0.2568
  840MOL0     C13304   3.612   4.310   2.426  0.4880 -0.0014  0.2191
  840MOL0     C13305   3.753   4.275   2.394  0.0867 -1.0534  0.5643
  840MOL0     C13306   3.768   4.166   2.290 -0.5171  0.3856 -0.5219
  840MOL0     C13307   3.691   4.035   2.338  0.3924  0.0456 -0.1192
  840MOL0     C13308   3.756   3.907   2.272  0.1133  0.5709 -0.1543
  840MOL0    Cl13309   3.936   3.860   2.315 -0.7745 -0.5277 -0.1856
  840MOL0     C13310   3.541   4.828   2.383  0.6744  1.1565  0.4189
  840MOL0     C13311   3.578   4.918   2.280 -0.7632  0.0933  0.1660
  840MOL0     O13312   3.756   4.876   1.986 -1.0373 -0.7122 -0.7381
  840MOL0     C13313   3.681   5.223   1.945  0.1566  0.5074 -0.3883
  840MOL0     C13314   3.729   5.342   1.895 -0.0235  0.9963  0.4239
  840MOL0     N13315   3.592   5.902   1.743  0.9806  0.1538 -0.1539
  840MOL0     N13316   3.584   5.997   1.650 -0.3806  0.4210  0.6755
  840MOL0     C13317   3.427   7.018   1.065 -0.5214  0.4292 -1.0277
  840MOL0     C13318   3.329   7.124   1.070 -0.1536  0.2662  1.0300
  840MOL0     C13319   2.967   7.373   1.095 -0.5151  0.3173 -1.2560
  840MOL0     C13320   3.048   7.473   1.069  0.0822  1.1298 -0.3029
  840MOL0     C13321   2.997   7.595   1.038 -0.2898 -0.2548  0.6676
  840MOL0     C13322   2.859   7.630   1.061 -0.0473  0.5046 -0.3755
  840MOL0     O13323   2.816   7.765   1.056 -0.8426  0.6053  0.0431
  840MOL0     C13324   2.876   7.853   1.155 -0.0804 -0.5712 -0.9328
  840MOL0     C13325   2.791   7.984   1.158 -0.5900 -1.1520 -0.0588
  840MOL0     C13326   2.782   8.041   1.299  0.4493 -0.0957  0.3872
  840MOL0     C13327   2.668   8.148   1.319  0.4122  0.0536  0.6720
  840MOL0     C13328   2.660   8.250   1.211 -0.2710 -0.7083 -0.5422
  840MOL0     C13329   2.670   8.342   1.129 -0.9691  0.3421 -0.0909
  840MOL0     C13330   2.774   7.519   1.092 -0.4036 -0.5686  1.3119
  840MOL0     C13331   2.834   7.390   1.105  1.4780 -0.0359 -0.1829
  840MOL0     C13332   2.745   7.263   1.122 -1.2911 -0.0818 -0.4169
  840MOL0     H13333   3.148   7.000   1.334 -0.3123  2.6206 -1.1109
  840MOL0     H13334   3.322   6.813   1.312  0.9613 -0.1427 -0.3916
  840MOL0     H13335   3.547   6.730   1.324 -0.4881  0.0626 -0.0659
  840MOL0     H13336   3.437   6.659   1.209 -0.7966 -1.4560 -2.7079
  840MOL0     H13337   3.751   6.653   1.207 -0.2428  1.6083  0.5657
  840MOL0     H13338   3.653   6.600   1.066  2.1941 -1.6770  0.4265
  840MOL0     H13339   3.566   6.413   1.139  1.5500 -1.9279 -0.7150
  840MOL0     H13340   3.584   6.457   1.310 -1.7927 -0.4039 -1.2355
  840MOL0     H13341   3.824   6.412   1.130  2.3519  1.6154  2.0766
  840MOL0     H13342   3.821   6.446   1.302 -0.6287  0.6690 -0.5259
  840MOL0     H13343   3.702   6.197   1.172 -0.1405  0.3473 -0.5659
  840MOL0     H13344   3.852   6.190   1.265 -1.0553 -1.4248  0.1085
  840MOL0     H13345   3.579   6.233   1.378  0.2026 -0.5028  1.9045
  840MOL0     H13346   3.683   6.092   1.395 -1.1910  0.2454 -0.4260
  840MOL0     H13347   3.790   6.355   1.493  3.1729 -1.0361 -2.1844
  840MOL0     H13348   3.856   6.207   1.521 -0.6684  0.9324  2.7469
  840MOL0     H13349   3.702   6.290   1.724  1.5925 -2.3806  0.5191
  840MOL0     H13350   3.571   6.259   1.612  0.2519  0.8810 -0.1416
  840MOL0     H13351   3.841   6.094   1.830  1.6803 -3.6598 -1.1006
  840MOL0     H13352   3.742   5.902   2.033 -3.9930 -0.6406 -0.4135
  840MOL0     H13353   3.676   5.760   1.973 -2.3398  0.7143 -1.2567
  840MOL0     H13354   3.931   5.855   1.829 -0.1341  0.2432 -0.4389
  840MOL0     H13355   3.959   5.806   1.997  0.9195 -1.7067 -0.3175
  840MOL0     H13356   3.900   5.579   1.967 -0.6592  2.0681 -0.0482
  840MOL0     H13357   4.022   5.630   1.856  0.5533  0.9845  0.5490
  840MOL0     H13358   3.870   5.637   1.675  2.0962 -1.5520 -1.2472
  840MOL0     H13359   3.728   5.579   1.770 -0.0803 -1.3625 -0.6316
  840MOL0     H13360   3.955   5.190   1.678 -0.8623 -0.8827 -0.4278
  840MOL0     H13361   3.862   5.000   1.777  0.3720  0.6010  0.1700
  840MOL0     H13362   3.443   4.794   2.008 -0.2256 -1.5822  0.2844
  840MOL0     H13363   3.336   4.650   2.181  1.2651  0.4417 -3.4540
  840MOL0     H13364   3.262   4.475   2.450  0.8135 -0.1842 -0.3296
  840MOL0     H13365   3.390   4.470   2.344 -0.6517 -0.2346 -0.1794
  840MOL0     H13366   3.454   4.549   2.632  0.0587 -0.6067  0.7551
  840MOL0     H13367   3.405   4.385   2.600  1.2169 -0.3798  0.1675
  840MOL0     H13368   3.631   4.531   2.474 -0.6437 -0.0399  0.7304
  840MOL0     H13369   3.664   4.426   2.606 -0.0442 -1.4362  0.7412
  840MOL0     H13370   3.562   4.319   2.329 -3.2155 -3.7586  1.4878
  840MOL0     H13371   3.562   4.224   2.471  0.6796  0.6301  1.6897
  840MOL0     H13372   3.802   4.242   2.486  2.4362  0.2957 -0.1055
  840MOL0     H13373   3.798   4.367   2.355  0.8101 -0.3967  2.8110
  840MOL0     H13374   3.739   4.203   2.191 -0.4629  2.7380  0.2851
  840MOL0     H13375   3.870   4.126   2.280 -1.7519 -2.5256 -3.1931
  840MOL0     H13376   3.588   4.039   2.300 -0.2913  0.7878  1.7101
  840MOL0     H13377   3.684   4.010   2.444  0.7500 -3.0700 -0.7553
  840MOL0     H13378   3.693   3.826   2.310 -1.1903  2.3647  1.7063
  840MOL0     H13379   3.730   3.934   2.169  2.9240  3.0976 -0.3359
  840MOL0     H13380   3.559   4.846   2.489 -0.8694 -1.2513  1.1796
  840MOL0     H13381   3.629   5.011   2.305  2.4336 -1.0029 -1.7210
  840MOL0     H13382   3.604   5.225   2.021  1.6238  0.8191  1.1495
  840MOL0     H13383   3.681   5.436   1.920 -1.0700 -0.2870  3.6909
  840MOL0     H13384   3.504   7.016   0.989  1.1304  0.2753  0.5641
  840MOL0     H13385   3.347   7.207   1.002  3.5347 -0.3995  0.9718
  840MOL0     H13386   3.156   7.464   1.075 -0.1653 -1.9750  2.4254
  840MOL0     H13387   3.063   7.679   1.016 -3.2444  2.0119 -0.2627
  840MOL0     H13388   2.980   7.883   1.140 -0.2702  1.9898  1.7905
  840MOL0     H13389   2.872   7.796   1.248 -3.2903 -1.8122 -1.7039
  840MOL0     H13390   2.688   7.960   1.128 -0.7204 -0.5166 -0.1354
  840MOL0     H13391   2.831   8.055   1.085  1.8359 -1.3088  1.0470
  840MOL0     H13392   2.881   8.084   1.316  0.7919 -1.0973  1.0206
  840MOL0     H13393   2.769   7.958   1.369  1.4482 -2.8670 -2.4777
  840MOL0     H13394   2.580   8.082   1.324  1.3873 -1.8991 -3.4349
  840MOL0     H13395   2.668   8.211   1.408 -2.1820 -1.2030  1.6686
  840MOL0     H13396   2.681   8.405   1.043 -0.6845 -0.6386 -0.8004
  840MOL0     H13397   2.667   7.536   1.105 -1.0305 -0.8202 -2.4550
  840MOL0     H13398   2.638   7.282   1.122 -1.5102 -1.1649  0.7428
  840MOL0     H13399   2.780   7.214   1.031  0.5460  4.3191 -2.3566
  840MOL0     H13400   2.786   7.212   1.210  1.8211 -0.5662 -2.0039
  841MOL0     O13401   5.658   6.845   7.798  0.0738  0.8667  0.1085
  841MOL0     C13402   5.593   6.940   7.758 -0.0110 -0.6240  0.3917
  841MOL0     O13403   5.463   6.938   7.725  0.7089 -0.0232  0.2080
  841MOL0     C13404   5.401   7.056   7.696  0.0682 -0.8281  0.2084
  841MOL0     C13405   5.339   7.109   7.810  0.7623  0.4060 -0.9571
  841MOL0     C13406   5.260   7.231   7.795  0.4940 -0.6586 -0.5601
  841MOL0     C13407   5.242   7.293   7.668  0.2306 -0.3814  0.1629
  841MOL0     O13408   5.160   7.410   7.655 -0.1281 -0.2699  0.6679
  841MOL0     C13409   5.070   7.415   7.555 -0.1753 -0.8049 -0.4954
  841MOL0     C13410   4.983   7.536   7.582  0.3767 -0.4629 -0.7776
  841MOL0     C13411   4.856   7.530   7.497  0.1170 -0.4254 -0.2642
  841MOL0     C13412   4.772   7.656   7.510 -0.1981  0.0903  0.1291
  841MOL0     C13413   4.657   7.623   7.415  0.4534  0.3031  0.7418
  841MOL0     C13414   4.511   7.657   7.453  0.6309  0.1384 -1.2238
  841MOL0     C13415   4.416   7.639   7.331 -0.2312  0.5464  0.4358
  841MOL0     C13416   4.291   7.553   7.372 -0.4106 -0.9509  1.0768
  841MOL0     N13417   4.171   7.579   7.296  0.1654 -0.3074 -0.3717
  841MOL0     C13418   4.112   7.703   7.284 -0.7323  0.0706  0.1620
  841MOL0     C13419   3.990   7.676   7.236 -0.0049  0.2563  0.1027
  841MOL0     C13420   3.890   7.790   7.221  0.8661  0.1009  0.1198
  841MOL0     C13421   3.892   7.848   7.078 -0.1204  0.0136 -0.1972
  841MOL0     C13422   4.013   7.941   7.036  0.4489 -0.8100 -0.5325
  841MOL0     C13423   3.972   8.016   6.915  0.3233  0.6581  0.3805
  841MOL0     O13424   4.066   8.104   6.861  0.3011 -0.2643  0.7803
  841MOL0     C13425   4.082   8.237   6.889 -0.4057  0.5537 -0.2276
  841MOL0     C13426   4.171   8.308   6.813  0.5066 -0.6012 -0.9241
  841MOL0     C13427   4.187   8.445   6.851  0.5161  0.5286  0.0250
  841MOL0     C13428   4.107   8.503   6.952  0.1471  0.7862 -0.4855
  841MOL0     C13429   4.114   8.643   6.994  0.0753 -0.4123 -0.1215
  841MOL0     O13430   4.088   8.678   7.121 -0.0653  0.0448  0.5866
  841MOL0     C13431   4.115   8.808   7.154  0.2782  0.4324  0.3260
  841MOL0     C13432   4.085   8.924   7.085  0.1339 -0.3492  0.3892
  841MOL0     C13433   4.137   9.048   7.122 -0.8728 -0.4824 -0.6599
  841MOL0     C13434   4.200   9.060   7.254 -0.0502 -1.1364  0.2709
  841MOL0     O13435   4.235   9.180   7.325  0.3401  0.4350 -0.3693
  841MOL0     C13436   4.235   9.301   7.263  0.0728  0.0006 -0.3910
  841MOL0     C13437   4.243   9.398   7.378  0.4825 -0.5458  0.1115
  841MOL0     C13438   4.106   9.437   7.421  0.4379  0.7123  0.6928
  841MOL0     C13439   4.102   9.478   7.560 -0.8718 -0.1440 -0.3641
  841MOL0     C13440   3.960   9.490   7.625  0.0364 -0.3460  0.7841
  841MOL0     C13441   3.947   9.583   7.743  0.8056 -0.1106 -0.4336
  841MOL0     C13442   3.810   9.573   7.805 -0.0378  0.0034  0.2752
  841MOL0     C13443   3.767   9.699   7.878 -0.2896 -1.3103  0.2267
  841MOL0    Cl13444   3.600   9.684   7.946  0.1489  0.0849 -0.2186
  841MOL0     C13445   4.235   8.940   7.323 -0.5406  0.2214 -0.8496
  841MOL0     C13446   4.189   8.817   7.270 -0.3260  0.0691  0.3491
  841MOL0     O13447   4.173   8.715   6.919  0.1386  0.3013 -0.7215
  841MOL0     C13448   4.018   8.421   7.025  0.0253 -0.2936 -0.3114
  841MOL0     C13449   4.007   8.289   6.990 -1.0197  0.7326 -0.4942
  841MOL0     N13450   3.975   7.542   7.224  0.1813  0.3113  0.3263
  841MOL0     N13451   4.079   7.483   7.264  0.6961  0.6701 -0.0852
  841MOL0     C13452   5.309   7.242   7.555  0.0990 -1.0505 -1.0299
  841MOL0     C13453   5.390   7.123   7.571 -0.0265  0.3704  0.2633
  841MOL0     C13454   5.682   7.053   7.707  0.9110  1.0657  0.1266
  841MOL0     C13455   5.722   7.042   7.575  0.4263  0.3828  0.2689
  841MOL0     C13456   5.821   7.126   7.517 -0.6656 -0.2341 -0.4966
  841MOL0     C13457   5.884   7.216   7.607  0.0780 -0.8809 -0.0166
  841MOL0     O13458   5.981   7.295   7.557  0.2118 -0.5882 -0.1960
  841MOL0     C13459   5.922   7.424   7.509 -0.4879 -0.4414  0.0357
  841MOL0     C13460   6.008   7.517   7.427 -0.4030 -0.7775  0.0405
  841MOL0     C13461   6.104   7.592   7.520 -0.0042  0.6422 -0.4132
  841MOL0     C13462   6.077   7.745   7.540 -0.6746  1.1779  0.4544
  841MOL0     C13463   6.168   7.814   7.643  0.1921  0.2510  0.3339
  841MOL0     C13464   6.240   7.870   7.726  0.3181  0.2656 -0.5469
  841MOL0     C13465   5.838   7.235   7.736  0.4096  0.0584 -0.5076
  841MOL0     C13466   5.737   7.153   7.792 -0.2521 -0.1706 -0.2597
  841MOL0     C13467   5.704   7.153   7.936 -0.4550 -0.6999 -1.0799
  841MOL0     H13468   5.346   7.059   7.906  1.1066  2.1064 -0.0655
  841MOL0     H13469   5.217   7.278   7.882 -0.2828 -2.6923  0.2119
  841MOL0     H13470   5.113   7.439   7.458  1.4219  0.5554  0.5012
  841MOL0     H13471   5.016   7.319   7.560  1.7682 -1.8922  0.9127
  841MOL0     H13472   5.033   7.630   7.554 -1.4673  0.8938  0.2165
  841MOL0     H13473   4.950   7.531   7.686  1.5867 -1.1160 -0.3996
  841MOL0     H13474   4.791   7.448   7.527 -0.8333 -0.3674 -2.0010
  841MOL0     H13475   4.879   7.509   7.392 -0.3532  0.9103 -0.6563
  841MOL0     H13476   4.742   7.676   7.613 -1.8957  2.8542 -0.7969
  841MOL0     H13477   4.810   7.754   7.479 -2.4882  1.0689  0.2191
  841MOL0     H13478   4.682   7.683   7.327 -1.8321 -0.1069 -0.2514
  841MOL0     H13479   4.653   7.515   7.398 -0.1237  0.3103  0.8080
  841MOL0     H13480   4.481   7.595   7.538 -0.7638  1.4804 -0.7035
  841MOL0     H13481   4.504   7.757   7.496 -2.9742  0.7014 -2.7918
  841MOL0     H13482   4.470   7.578   7.259 -1.4330 -0.7335  0.5802
  841MOL0     H13483   4.386   7.738   7.295 -1.0495 -0.1043 -0.7629
  841MOL0     H13484   4.319   7.451   7.345  3.0754 -0.4931  2.4772
  841MOL0     H13485   4.262   7.562   7.477 -0.0820  0.3711  1.0770
  841MOL0     H13486   4.158   7.800   7.302  0.6238 -0.3626 -0.8124
  841MOL0     H13487   3.796   7.741   7.245  0.9432 -0.3953 -0.5809
  841MOL0     H13488   3.916   7.869   7.293  3.3550  1.9672 -2.5757
  841MOL0     H13489   3.875   7.769   7.004 -2.4608 -0.1193  0.4130
  841MOL0     H13490   3.801   7.907   7.069 -3.1991 -4.3627 -0.7761
  841MOL0     H13491   4.100   7.883   7.005  0.0243 -0.4178 -2.6217
  841MOL0     H13492   4.037   8.014   7.114  2.1912  0.9455 -2.5932
  841MOL0     H13493   3.874   8.062   6.933  1.1187  2.0051  1.4410
  841MOL0     H13494   3.966   7.945   6.832  1.6464 -2.0515  2.4217
  841MOL0     H13495   4.235   8.263   6.738  3.2476  2.2022 -0.5269
  841MOL0     H13496   4.263   8.506   6.803 -0.1434  1.1218 -0.2792
  841MOL0     H13497   4.030   8.935   6.992 -1.6611  0.7489  1.5216
  841MOL0     H13498   4.138   9.145   7.074  3.4207  1.0849  1.9832
  841MOL0     H13499   4.320   9.302   7.194  0.8350  0.1133  0.5378
  841MOL0     H13500   4.142   9.319   7.208  0.4421  1.6800 -0.5325
  841MOL0     H13501   4.287   9.348   7.464 -1.4758 -2.6646 -0.0196
  841MOL0     H13502   4.295   9.490   7.351 -2.2055  1.8403  2.3853
  841MOL0     H13503   4.066   9.518   7.359  0.1140 -1.5086 -2.2497
  841MOL0     H13504   4.035   9.354   7.415  0.0918  1.0017  0.6862
  841MOL0     H13505   4.161   9.567   7.585  0.2436 -1.2573  1.1694
  841MOL0     H13506   4.151   9.392   7.608 -2.5987 -0.6506  0.5529
  841MOL0     H13507   3.939   9.387   7.653 -0.5898 -1.2974 -2.6932
  841MOL0     H13508   3.888   9.511   7.544  1.2737 -1.2077 -0.5911
  841MOL0     H13509   4.026   9.562   7.816  0.1569 -0.3968  0.1952
  841MOL0     H13510   3.965   9.687   7.713  0.1066 -0.5683 -2.5751
  841MOL0     H13511   3.809   9.496   7.882  1.3371  1.6167  2.0039
  841MOL0     H13512   3.731   9.564   7.729 -1.5348  1.2970  1.5830
  841MOL0     H13513   3.836   9.717   7.961  2.5699 -2.0572 -1.8131
  841MOL0     H13514   3.764   9.791   7.817  2.1940  2.1893  4.7419
  841MOL0     H13515   4.285   8.942   7.419 -0.5037  1.4558 -0.8712
  841MOL0     H13516   4.211   8.721   7.315  1.3481  0.9863  1.6014
  841MOL0     H13517   3.967   8.466   7.109  0.4495  0.7673 -0.6028
  841MOL0     H13518   3.935   8.235   7.051 -0.9543  1.7797  0.5361
  841MOL0     H13519   5.292   7.297   7.463  1.2120  4.0658  1.4474
  841MOL0     H13520   5.436   7.069   7.489 -0.4887 -2.4650  1.7303
  841MOL0     H13521   5.671   6.967   7.515  1.2332 -0.8455  1.0800
  841MOL0     H13522   5.847   7.125   7.412 -0.1882  0.5955 -0.3923
  841MOL0     H13523   5.889   7.481   7.597  0.9889 -2.0081  1.6753
  841MOL0     H13524   5.835   7.407   7.445  0.1001  0.1992 -0.9596
  841MOL0     H13525   5.956   7.588   7.363 -1.0341 -0.4874  0.8541
  841MOL0     H13526   6.074   7.452   7.369  1.1056  1.6788 -1.1347
  841MOL0     H13527   6.209   7.584   7.491  0.0901 -0.1746  0.0952
  841MOL0     H13528   6.101   7.539   7.616 -0.5339 -2.1257 -1.8621
  841MOL0     H13529   6.099   7.772   7.436  0.8813 -0.2030  0.3799
  841MOL0     H13530   5.974   7.756   7.574 -0.1982  0.4961  2.2723
  841MOL0     H13531   6.306   7.914   7.798  3.0086 -0.0864 -2.6425
  841MOL0     H13532   5.906   7.298   7.793  1.1070 -2.0524  1.0847
  841MOL0     H13533   5.656   7.062   7.973  1.4010 -1.2942  0.0516
  841MOL0     H13534   5.796   7.165   7.995 -2.0963  5.0034  0.9524
  841MOL0     H13535   5.657   7.244   7.973  0.5364 -0.3594 -0.6139
  842MOL0     O13536  11.349   9.784   0.140 -0.0270  0.3924 -0.5078
  842MOL0     C13537  11.241   9.820   0.087  0.1332 -0.7321  1.0250
  842MOL0     O13538  11.194   9.952   0.073 -0.0672  0.1430 -0.2289
  842MOL0     C13539  11.260  10.045   0.155  0.6102 -0.7903  0.1330
  842MOL0     C13540  11.226  10.050   0.293 -0.0776 -0.7161  0.4394
  842MOL0     C13541  11.281  10.149   0.370 -0.7646 -0.3443  0.1959
  842MOL0     C13542  11.388  10.216   0.318 -0.2919 -0.8791  0.9438
  842MOL0     O13543  11.458  10.307   0.399 -0.1284  0.2785 -0.1386
  842MOL0     C13544  11.599  10.282   0.403  0.8228  0.0130 -0.1918
  842MOL0     C13545  11.653  10.227   0.533 -0.6616  0.3637  0.4080
  842MOL0     C13546  11.624  10.322   0.652 -0.3319  0.1181  0.5679
  842MOL0     C13547  11.656  10.278   0.790 -0.6551  0.3678  0.2014
  842MOL0     C13548  11.803  10.243   0.815  0.4644  0.1686  0.5614
  842MOL0     C13549  11.814  10.194   0.956 -0.2300  0.0356 -1.0806
  842MOL0     C13550  11.961  10.153   0.997  0.2130  0.0914  0.5739
  842MOL0     C13551  11.991  10.176   1.143  0.6986  0.5559 -0.4590
  842MOL0     N13552  11.912  10.076   1.212  0.1526  0.2261  0.6494
  842MOL0     C13553  11.951   9.957   1.260  0.6942  0.6761  0.2962
  842MOL0     C13554  11.854   9.916   1.342  0.1174  0.1554 -0.3751
  842MOL0     C13555  11.858   9.787   1.422  0.1883  0.1743 -0.4674
  842MOL0     C13556  11.919   9.799   1.569 -0.2139  0.4464  0.1645
  842MOL0     C13557  11.958   9.658   1.634 -0.6060  0.5619 -0.5642
  842MOL0     C13558  12.051   9.573   1.545  0.4212  0.2384 -0.3651
  842MOL0     O13559  12.167   9.647   1.504 -0.1690  0.1286  0.4678
  842MOL0     C13560  12.282   9.574   1.509 -0.2510  0.1019  0.4583
  842MOL0     C13561  12.289   9.435   1.489  0.1967 -0.4206 -0.6791
  842MOL0     C13562  12.412   9.370   1.483  0.3292 -0.1767  0.1710
  842MOL0     C13563  12.529   9.433   1.515 -0.5177 -0.9212  0.4198
  842MOL0     C13564  12.659   9.362   1.524  0.5211  0.8533  0.2845
  842MOL0     O13565  12.658   9.226   1.487  0.2765 -0.2855  0.2182
  842MOL0     C13566  12.776   9.156   1.478  0.9011 -0.4064  0.1459
  842MOL0     C13567  12.888   9.197   1.409  0.3972 -0.0092  0.2238
  842MOL0     C13568  12.996   9.113   1.404 -0.7200 -0.2888 -0.7302
  842MOL0     C13569  12.990   8.982   1.458 -0.3020 -0.2621  0.1220
  842MOL0     O13570  13.095   8.901   1.451  0.5000 -0.3388  0.3160
  842MOL0     C13571  13.214   8.951   1.511 -0.8590 -0.1646 -0.0158
  842MOL0     C13572  13.315   8.832   1.488  1.0075  0.4549 -0.3017
  842MOL0     C13573  13.285   8.704   1.558 -0.2873  0.1150  0.4262
  842MOL0     C13574  13.345   8.583   1.479 -0.1771 -0.1178  0.0860
  842MOL0     C13575  13.333   8.445   1.557 -0.2033  0.4954  0.2750
  842MOL0     C13576  13.207   8.401   1.643 -0.6067  0.1704 -0.2331
  842MOL0     C13577  13.206   8.249   1.692 -0.5181 -0.5824 -0.4286
  842MOL0     C13578  13.324   8.221   1.782  0.5825  0.0680  0.6088
  842MOL0    Cl13579  13.346   8.345   1.897 -0.6750  0.2125 -0.4823
  842MOL0     C13580  12.861   8.937   1.507 -0.0130 -0.1942 -0.3623
  842MOL0     C13581  12.756   9.030   1.524 -0.4686 -0.3862 -0.7698
  842MOL0     O13582  12.750   9.420   1.586 -0.4079  0.7684  0.4576
  842MOL0     C13583  12.521   9.569   1.554 -0.2036  0.2550 -0.1716
  842MOL0     C13584  12.401   9.639   1.536  0.0642 -0.9553 -0.5547
  842MOL0     N13585  11.754  10.014   1.336 -0.2819 -0.8955  0.0692
  842MOL0     N13586  11.786  10.109   1.258 -0.4770 -0.4650 -0.3442
  842MOL0     C13587  11.411  10.230   0.183 -0.3289 -0.6670  0.0094
  842MOL0     C13588  11.335  10.151   0.099 -0.2345 -0.0333  0.0917
  842MOL0     C13589  11.158   9.719   0.026 -0.0052 -0.0667  0.8514
  842MOL0     C13590  11.182   9.584   0.068 -0.0760 -0.2836 -0.1864
  842MOL0     C13591  11.117   9.478   0.004  0.6270  1.7863  0.2183
  842MOL0     C13592  11.017   9.488  -0.090 -1.0858 -0.4063  0.2834
  842MOL0     O13593  10.945   9.382  -0.135 -0.6930  0.1009  0.4380
  842MOL0     C13594  10.838   9.336  -0.055  0.3683 -0.9819 -0.8606
  842MOL0     C13595  10.872   9.279   0.078 -0.7977  0.1507 -0.8618
  842MOL0     C13596  10.756   9.291   0.173  0.8923 -1.0706  0.0975
  842MOL0     C13597  10.620   9.217   0.131 -0.3242 -0.9574  0.9285
  842MOL0     C13598  10.656   9.070   0.111 -0.6434  0.2832 -0.1041
  842MOL0     C13599  10.680   8.951   0.102 -0.7937  0.1704  0.8236
  842MOL0     C13600  11.004   9.620  -0.139 -0.0618  0.2207  0.0606
  842MOL0     C13601  11.065   9.734  -0.078 -0.2637  0.3548  0.9394
  842MOL0     C13602  11.045   9.867  -0.154  0.1960  0.1767  0.3327
  842MOL0     H13603  11.156   9.983   0.342 -1.2419  1.0972  1.3611
  842MOL0     H13604  11.262  10.145   0.476 -0.5494  0.4192  0.2696
  842MOL0     H13605  11.630  10.210   0.326  2.4489  1.4986 -1.0014
  842MOL0     H13606  11.654  10.370   0.369  1.6424 -0.8720 -1.2586
  842MOL0     H13607  11.755  10.189   0.521 -0.6208  0.8407 -0.8529
  842MOL0     H13608  11.593  10.136   0.544  0.9033 -0.7893 -0.2264
  842MOL0     H13609  11.518  10.346   0.656 -0.1311  1.5182 -1.1795
  842MOL0     H13610  11.690  10.409   0.647 -2.4700  1.8578  1.2362
  842MOL0     H13611  11.625  10.359   0.857 -1.9753 -1.3538  1.8103
  842MOL0     H13612  11.586  10.200   0.822 -2.6617  3.0643  2.9843
  842MOL0     H13613  11.842  10.170   0.744  0.8349 -0.5678  1.5046
  842MOL0     H13614  11.856  10.338   0.803  1.6386 -0.5578 -0.1913
  842MOL0     H13615  11.793  10.286   1.011  4.1966  0.8734 -0.4238
  842MOL0     H13616  11.743  10.118   0.991 -3.3167  3.4073  0.7399
  842MOL0     H13617  12.040  10.215   0.952  1.5292  0.2779  2.9774
  842MOL0     H13618  11.976  10.047   0.974 -0.3974  0.1513 -0.1453
  842MOL0     H13619  12.096  10.158   1.167  0.0105 -1.2118  1.6002
  842MOL0     H13620  11.964  10.272   1.187  0.7285  0.4454 -0.1967
  842MOL0     H13621  12.040   9.898   1.239 -0.5673  0.2572 -5.5408
  842MOL0     H13622  11.757   9.745   1.434  0.2579  0.3346  0.9517
  842MOL0     H13623  11.918   9.724   1.355  2.7109  0.9740  0.8932
  842MOL0     H13624  12.016   9.850   1.576  0.6036 -0.9000 -0.6611
  842MOL0     H13625  11.848   9.860   1.624  0.2713  1.7407 -0.5958
  842MOL0     H13626  11.872   9.593   1.652  0.8217 -1.0737  0.7089
  842MOL0     H13627  12.005   9.678   1.730 -1.6929 -2.0833  0.6157
  842MOL0     H13628  11.998   9.537   1.456 -0.5073  2.5938 -0.8538
  842MOL0     H13629  12.080   9.490   1.610  0.9468  1.0647  0.4711
  842MOL0     H13630  12.202   9.379   1.456  0.5853  0.6849 -4.0217
  842MOL0     H13631  12.417   9.268   1.446  2.2751 -0.7935  1.9010
  842MOL0     H13632  12.880   9.296   1.364 -0.3654 -1.5973 -3.5595
  842MOL0     H13633  13.083   9.152   1.354 -1.0501 -0.6987 -1.6523
  842MOL0     H13634  13.254   9.031   1.449  0.8262 -1.3461 -0.5204
  842MOL0     H13635  13.207   8.986   1.614  1.0642  0.4865 -0.0753
  842MOL0     H13636  13.300   8.818   1.381 -0.7927  1.5911 -0.2480
  842MOL0     H13637  13.418   8.856   1.517  0.6474 -1.3196  2.8131
  842MOL0     H13638  13.323   8.702   1.661  0.7451  2.0374  0.1302
  842MOL0     H13639  13.176   8.698   1.559 -0.3649  1.2704  0.1298
  842MOL0     H13640  13.445   8.602   1.438 -1.4703  0.2095 -3.1279
  842MOL0     H13641  13.291   8.578   1.385  2.6467 -1.1977 -1.6160
  842MOL0     H13642  13.407   8.443   1.638  0.4804 -1.1403 -0.3238
  842MOL0     H13643  13.359   8.370   1.481 -1.2481  2.3042 -2.0019
  842MOL0     H13644  13.194   8.463   1.732 -0.6750  1.4342 -1.0945
  842MOL0     H13645  13.115   8.404   1.583  0.4486 -2.2808 -2.1199
  842MOL0     H13646  13.200   8.180   1.607  4.4917  0.3549 -1.8470
  842MOL0     H13647  13.124   8.249   1.765  2.1194  2.0663  2.8578
  842MOL0     H13648  13.316   8.124   1.832  1.8385 -0.4077 -0.0758
  842MOL0     H13649  13.419   8.204   1.732  0.1327  0.3982 -0.3813
  842MOL0     H13650  12.840   8.836   1.538 -0.6354 -0.2549 -0.9443
  842MOL0     H13651  12.671   8.989   1.578  0.7475  3.0409  4.5136
  842MOL0     H13652  12.616   9.621   1.568 -0.2272  0.0702  0.7549
  842MOL0     H13653  12.394   9.740   1.576  2.5046 -1.2636  0.8856
  842MOL0     H13654  11.492  10.295   0.150 -2.6076  2.7355  0.5771
  842MOL0     H13655  11.338  10.146  -0.009 -3.8075 -3.6319 -0.0382
  842MOL0     H13656  11.243   9.558   0.154 -1.6021 -0.2018  0.9660
  842MOL0     H13657  11.135   9.376   0.036 -1.2611  1.5402  0.6329
  842MOL0     H13658  10.771   9.266  -0.106 -0.6016 -1.3521  0.8466
  842MOL0     H13659  10.771   9.420  -0.036  1.9787  0.2307 -0.3275
  842MOL0     H13660  10.955   9.320   0.137 -1.2019 -0.4036  0.0998
  842MOL0     H13661  10.905   9.175   0.082  0.3083  0.5318  1.6613
  842MOL0     H13662  10.745   9.399   0.175  2.0363 -0.9549  0.9650
  842MOL0     H13663  10.797   9.252   0.267 -0.3266  3.4843  2.8137
  842MOL0     H13664  10.540   9.238   0.202 -1.0508  1.2093 -0.4370
  842MOL0     H13665  10.583   9.259   0.037  0.3049 -1.5778  0.3848
  842MOL0     H13666  10.724   8.853   0.091  0.2777  0.5001  1.9216
  842MOL0     H13667  10.939   9.630  -0.225  0.0346 -0.5229 -0.1091
  842MOL0     H13668  10.963   9.846  -0.224 -0.3724 -2.9193  1.7216
  842MOL0     H13669  11.006   9.945  -0.088  0.6177 -2.8119  4.5000
  842MOL0     H13670  11.132   9.907  -0.205 -1.3369 -1.5647 -4.1251
  843MOL0     O13671   4.505   2.767   2.812 -0.4473  1.0150 -0.2015
  843MOL0     C13672   4.595   2.831   2.760  0.8079 -0.6100 -0.4122
  843MOL0     O13673   4.720   2.790   2.752 -0.0903  0.3020  0.9038
  843MOL0     C13674   4.782   2.680   2.801  1.1183  0.1101  0.0121
  843MOL0     C13675   4.756   2.639   2.936  0.1923  0.3074  0.7125
  843MOL0     C13676   4.812   2.512   2.971  0.2114  0.0364 -0.1683
  843MOL0     C13677   4.881   2.433   2.870  0.5983 -0.5354 -0.2724
  843MOL0     O13678   4.930   2.315   2.896  0.4455 -0.4287 -0.5936
  843MOL0     C13679   4.995   2.305   3.030  0.3279 -0.1476  1.0773
  843MOL0     C13680   5.049   2.164   3.046 -0.6742 -0.7331 -0.6345
  843MOL0     C13681   4.942   2.056   3.080  0.5818 -0.1984 -0.9766
  843MOL0     C13682   4.919   1.970   2.960 -0.2759  1.5357  1.2639
  843MOL0     C13683   4.820   1.845   2.956 -0.2245 -0.7632 -0.2370
  843MOL0     C13684   4.667   1.891   2.944 -0.4253  1.4150 -1.0703
  843MOL0     C13685   4.582   1.763   2.956 -0.8634 -0.3359 -0.2294
  843MOL0     C13686   4.434   1.807   2.973 -0.6766  0.1446 -0.2675
  843MOL0     N13687   4.371   1.845   2.844  1.4111  0.4221 -0.0404
  843MOL0     C13688   4.382   1.966   2.784  0.3968 -0.4864  0.3014
  843MOL0     C13689   4.320   1.954   2.665  0.7609 -0.0926  0.3806
  843MOL0     C13690   4.315   2.064   2.566 -0.5541  0.3383 -0.1797
  843MOL0     C13691   4.165   2.110   2.542  0.0243 -0.1526  0.3290
  843MOL0     C13692   4.109   2.036   2.420  0.0009  1.1659 -0.0879
  843MOL0     C13693   4.151   2.109   2.285 -0.1323  0.1210  1.1097
  843MOL0     O13694   4.079   2.232   2.279 -0.3333  0.4212 -0.1471
  843MOL0     C13695   4.118   2.314   2.182 -0.4084 -0.1037  0.7379
  843MOL0     C13696   4.078   2.441   2.200 -0.4755 -0.0057  0.1955
  843MOL0     C13697   4.099   2.538   2.110 -0.1648  0.1073  1.1455
  843MOL0     C13698   4.183   2.515   1.997  0.4194  1.1237  0.5980
  843MOL0     C13699   4.190   2.622   1.893 -0.0467  0.5012 -0.3350
  843MOL0     O13700   4.263   2.602   1.787 -0.2072  0.1197  0.6351
  843MOL0     C13701   4.309   2.706   1.706  0.3270 -0.0447 -0.5778
  843MOL0     C13702   4.253   2.829   1.675  0.1567  0.7880  1.2868
  843MOL0     C13703   4.313   2.913   1.591 -0.4437 -0.8113  1.2326
  843MOL0     C13704   4.425   2.879   1.522 -0.4156 -0.2946  0.6995
  843MOL0     O13705   4.490   2.955   1.421  0.4636 -0.0073 -0.6627
  843MOL0     C13706   4.395   2.994   1.322  0.1765  0.7118 -0.0455
  843MOL0     C13707   4.473   3.097   1.230  0.1403  0.3774  0.0068
  843MOL0     C13708   4.469   3.244   1.273  0.3501  0.4842 -0.5581
  843MOL0     C13709   4.563   3.320   1.174 -0.1804  0.2345  0.3889
  843MOL0     C13710   4.607   3.442   1.250  0.1343 -0.2179  0.0696
  843MOL0     C13711   4.508   3.530   1.310 -0.2793 -0.1253 -0.0118
  843MOL0     C13712   4.561   3.667   1.346  0.5623  0.0331 -0.1459
  843MOL0     C13713   4.461   3.751   1.423 -0.2158 -1.1685  0.0699
  843MOL0    Cl13714   4.284   3.745   1.364 -0.5175 -0.2569 -0.4002
  843MOL0     C13715   4.476   2.750   1.532 -0.5046  0.5882 -0.0247
  843MOL0     C13716   4.416   2.666   1.628  0.6748  0.4790 -0.2154
  843MOL0     O13717   4.137   2.731   1.917  0.5121 -0.0113 -0.0754
  843MOL0     C13718   4.232   2.388   1.972  0.0359 -0.3101 -0.4919
  843MOL0     C13719   4.210   2.285   2.067 -0.9745  0.0015  0.2189
  843MOL0     N13720   4.293   1.820   2.648  0.3988 -0.8561 -0.7437
  843MOL0     N13721   4.313   1.756   2.757  0.3461 -0.5898  0.1637
  843MOL0     C13722   4.910   2.483   2.750 -0.6189  0.0140 -0.3233
  843MOL0     C13723   4.864   2.608   2.718 -0.8147 -0.5801 -0.1844
  843MOL0     C13724   4.566   2.971   2.714  0.8213 -0.4388 -0.3288
  843MOL0     C13725   4.461   3.052   2.779  0.1351  0.4903  0.9841
  843MOL0     C13726   4.429   3.178   2.727  0.2602 -0.0615 -0.3865
  843MOL0     C13727   4.506   3.230   2.622  0.2747 -0.2801 -0.3476
  843MOL0     O13728   4.488   3.362   2.577  0.0399  0.5821 -0.3020
  843MOL0     C13729   4.381   3.446   2.627 -0.6010  1.0850  0.2424
  843MOL0     C13730   4.252   3.402   2.571 -0.4264 -0.1396  0.5181
  843MOL0     C13731   4.143   3.503   2.617 -0.1496 -0.1403  0.6982
  843MOL0     C13732   4.160   3.649   2.547 -0.1352 -0.3753  0.1788
  843MOL0     C13733   4.192   3.634   2.408  0.1100 -0.3446 -0.1466
  843MOL0     C13734   4.210   3.626   2.291 -0.3177  0.2485  0.0112
  843MOL0     C13735   4.610   3.155   2.565  0.2396 -0.6267 -0.2553
  843MOL0     C13736   4.629   3.021   2.598  0.5167  0.3410 -0.6369
  843MOL0     C13737   4.736   2.968   2.520 -0.3949  0.4201 -0.0300
  843MOL0     H13738   4.695   2.693   3.007  4.2552  2.5927  2.8862
  843MOL0     H13739   4.801   2.463   3.067  0.5119  0.3513  0.0252
  843MOL0     H13740   5.075   2.379   3.036  1.5826 -0.9957 -2.5975
  843MOL0     H13741   4.926   2.316   3.114 -1.3953  3.5553 -0.5984
  843MOL0     H13742   5.120   2.165   3.130 -0.9594 -2.7457 -0.3035
  843MOL0     H13743   5.115   2.129   2.966  2.0726  2.0257  0.2182
  843MOL0     H13744   4.852   2.114   3.101  0.7970  0.4882 -1.8951
  843MOL0     H13745   4.974   1.995   3.166  0.1832 -2.4354 -2.3224
  843MOL0     H13746   4.885   2.037   2.881 -3.1064 -1.4935 -0.3502
  843MOL0     H13747   5.014   1.926   2.931  0.0313  1.5549  2.1907
  843MOL0     H13748   4.837   1.782   2.868 -2.9507 -1.5841 -0.2814
  843MOL0     H13749   4.833   1.791   3.050  2.2664  1.3906  0.7911
  843MOL0     H13750   4.647   1.964   3.023 -0.3807  1.0680 -0.7314
  843MOL0     H13751   4.652   1.935   2.846 -1.3956  0.1975 -1.4883
  843MOL0     H13752   4.607   1.708   3.047  0.3211 -2.4283 -1.7405
  843MOL0     H13753   4.604   1.699   2.870  4.0044  0.4095  0.1649
  843MOL0     H13754   4.383   1.712   2.991  0.1131 -0.4863 -1.2525
  843MOL0     H13755   4.415   1.878   3.055  1.7573  0.6770 -0.0651
  843MOL0     H13756   4.424   2.057   2.825 -2.0535  1.1621 -0.6200
  843MOL0     H13757   4.373   2.152   2.599  0.5834 -0.9025  1.2841
  843MOL0     H13758   4.362   2.033   2.472 -0.5733 -1.0816  0.2563
  843MOL0     H13759   4.093   2.097   2.623 -1.9949 -0.8347 -1.4781
  843MOL0     H13760   4.164   2.219   2.536 -0.1909 -0.1911 -0.4607
  843MOL0     H13761   4.000   2.046   2.426  0.0545  1.1176  1.2512
  843MOL0     H13762   4.145   1.933   2.428 -0.8827  0.7476 -1.2159
  843MOL0     H13763   4.118   2.063   2.191 -0.5348  1.4868  0.5640
  843MOL0     H13764   4.258   2.132   2.289  0.2783 -0.8731 -1.6008
  843MOL0     H13765   4.023   2.461   2.291 -1.8981 -0.3080 -0.5699
  843MOL0     H13766   4.056   2.637   2.120  1.3702  0.7983  1.1759
  843MOL0     H13767   4.155   2.840   1.719 -0.1425 -0.8263  1.0972
  843MOL0     H13768   4.268   3.011   1.574  3.3919  1.4795  2.9126
  843MOL0     H13769   4.357   2.908   1.266  3.5862 -0.8967 -0.1546
  843MOL0     H13770   4.308   3.043   1.366  0.9234 -1.1651  4.0169
  843MOL0     H13771   4.579   3.073   1.217  0.5131  1.4077  0.9944
  843MOL0     H13772   4.416   3.099   1.137 -0.6008  1.4367  0.4675
  843MOL0     H13773   4.369   3.283   1.252  0.4633  1.6553  0.9201
  843MOL0     H13774   4.507   3.248   1.376  1.4375  1.3531 -0.9798
  843MOL0     H13775   4.489   3.362   1.105  0.6633  2.2321  0.6139
  843MOL0     H13776   4.634   3.260   1.116 -2.1546 -0.2606 -1.6620
  843MOL0     H13777   4.668   3.499   1.179 -1.5022 -0.2593 -1.4240
  843MOL0     H13778   4.681   3.413   1.325 -0.8874  1.3193  1.7662
  843MOL0     H13779   4.439   3.556   1.230 -0.3780 -0.7067 -0.1232
  843MOL0     H13780   4.444   3.479   1.382 -2.3684 -1.9961 -2.9534
  843MOL0     H13781   4.582   3.725   1.255 -0.6813 -0.9681 -1.1091
  843MOL0     H13782   4.657   3.662   1.398  1.5020 -0.3531 -1.8431
  843MOL0     H13783   4.465   3.727   1.529  0.2957  2.1100  0.8851
  843MOL0     H13784   4.500   3.853   1.418  4.1955 -2.5166  1.9315
  843MOL0     H13785   4.565   2.723   1.476 -2.4857 -0.0978 -3.0887
  843MOL0     H13786   4.466   2.572   1.651  0.0751  0.2376  0.1109
  843MOL0     H13787   4.285   2.358   1.882 -3.0684  1.3453 -3.0759
  843MOL0     H13788   4.266   2.192   2.063 -0.0710  0.5306  0.3255
  843MOL0     H13789   4.981   2.424   2.692 -0.7043 -1.1521  0.7108
  843MOL0     H13790   4.888   2.664   2.628 -0.6737 -0.4930 -0.0938
  843MOL0     H13791   4.405   3.001   2.857 -0.0065 -0.2579  0.4032
  843MOL0     H13792   4.344   3.210   2.787  0.2385 -1.9165  0.6315
  843MOL0     H13793   4.409   3.548   2.601  1.7113  0.2300 -0.9982
  843MOL0     H13794   4.369   3.451   2.736 -0.2732  0.3134  0.3300
  843MOL0     H13795   4.222   3.308   2.618 -1.7373  1.4383  3.0575
  843MOL0     H13796   4.242   3.399   2.462 -0.0279 -0.3609  0.4873
  843MOL0     H13797   4.145   3.510   2.726  3.9657 -0.0455  0.7876
  843MOL0     H13798   4.049   3.457   2.586  0.0091 -0.0837  0.1193
  843MOL0     H13799   4.074   3.715   2.559  0.9267  0.9953  0.4827
  843MOL0     H13800   4.245   3.710   2.578 -0.9119  1.2089 -0.6617
  843MOL0     H13801   4.218   3.620   2.185 -0.8540  0.8704 -0.0660
  843MOL0     H13802   4.682   3.202   2.500  0.9897 -0.1876  0.8592
  843MOL0     H13803   4.835   2.963   2.567 -0.0970 -3.4641 -0.7071
  843MOL0     H13804   4.708   2.868   2.485  2.2642  0.1627 -1.6950
  843MOL0     H13805   4.740   3.027   2.428 -2.2118  2.3360  1.0365
  844MOL0     O13806   4.667   3.807   8.179 -0.4660  0.1853  0.4495
  844MOL0     C13807   4.750   3.819   8.273  0.2626 -0.9867  0.8209
  844MOL0     O13808   4.854   3.735   8.297 -0.0904  0.4014 -0.5401
  844MOL0     C13809   4.860   3.629   8.211  0.6137 -0.6054 -0.2248
  844MOL0     C13810   4.902   3.648   8.080  0.4045  0.0699  0.2697
  844MOL0     C13811   4.921   3.542   7.991  0.1601  0.8672  0.5389
  844MOL0     C13812   4.895   3.408   8.040  1.1104 -0.1283 -1.1885
  844MOL0     O13813   4.899   3.290   7.967  0.0877 -0.3374  0.1333
  844MOL0     C13814   4.961   3.287   7.838  0.8985  1.0899 -0.7412
  844MOL0     C13815   4.937   3.151   7.768  0.0845 -0.5017  0.1454
  844MOL0     C13816   4.963   3.177   7.623 -0.0978  0.1418  0.4235
  844MOL0     C13817   4.935   3.050   7.531 -0.6102 -0.8877 -0.5832
  844MOL0     C13818   5.053   3.017   7.431  0.1188 -1.3946 -0.2993
  844MOL0     C13819   5.020   2.930   7.315  0.5504  0.1711 -0.1460
  844MOL0     C13820   5.148   2.852   7.269  0.0144 -0.2868 -0.5123
  844MOL0     C13821   5.270   2.940   7.245  0.2894  0.1724  0.5189
  844MOL0     N13822   5.369   2.856   7.180  0.3532 -0.0381  0.3103
  844MOL0     C13823   5.463   2.793   7.255 -1.6316 -0.6452 -0.5547
  844MOL0     C13824   5.552   2.738   7.169  0.2281  0.7673  0.1726
  844MOL0     C13825   5.673   2.649   7.193 -0.0590 -0.1971 -0.0690
  844MOL0     C13826   5.714   2.620   7.343 -0.6665  0.0010  0.2640
  844MOL0     C13827   5.844   2.545   7.329  0.4141  0.3482  0.6473
  844MOL0     C13828   5.952   2.573   7.434 -0.0229 -0.3924 -0.9112
  844MOL0     O13829   5.891   2.544   7.559  0.0260 -0.5102 -0.0828
  844MOL0     C13830   5.974   2.526   7.664 -0.2775 -0.3988 -0.2361
  844MOL0     C13831   5.974   2.408   7.737  1.1305  0.6807 -1.0258
  844MOL0     C13832   6.062   2.382   7.847  0.0061  0.2064  0.0103
  844MOL0     C13833   6.151   2.482   7.878  0.1699  1.2903  0.0501
  844MOL0     C13834   6.252   2.459   7.983  0.2948  0.8520 -0.2811
  844MOL0     O13835   6.278   2.333   8.024 -0.7688  0.3529  0.6833
  844MOL0     C13836   6.392   2.318   8.098 -0.5645  0.4672 -0.5096
  844MOL0     C13837   6.400   2.360   8.234 -0.5873 -0.0941 -0.0307
  844MOL0     C13838   6.524   2.348   8.297 -0.1018  0.4536 -0.3803
  844MOL0     C13839   6.635   2.281   8.236 -0.1488  0.0144  0.3993
  844MOL0     O13840   6.756   2.276   8.298 -0.8428 -0.2928 -0.1820
  844MOL0     C13841   6.783   2.136   8.352 -1.1263 -0.5895 -0.0952
  844MOL0     C13842   6.900   2.105   8.451 -0.8030  0.6765  0.0829
  844MOL0     C13843   6.873   2.136   8.601  0.1542 -0.5461  0.0513
  844MOL0     C13844   7.005   2.149   8.679 -0.2417  0.0286 -1.2822
  844MOL0     C13845   6.956   2.154   8.824 -0.6183  1.0121  1.0850
  844MOL0     C13846   6.880   2.282   8.861 -0.2946 -0.0553 -0.9161
  844MOL0     C13847   6.975   2.410   8.855  0.6039 -0.0400  0.7591
  844MOL0     C13848   6.898   2.543   8.855  0.1474  1.0310  0.2744
  844MOL0    Cl13849   6.839   2.563   8.692 -0.2666  0.1369  0.5641
  844MOL0     C13850   6.625   2.236   8.109 -0.3293  0.5004 -0.2706
  844MOL0     C13851   6.500   2.253   8.047 -0.6774  1.2948 -0.8973
  844MOL0     O13852   6.310   2.554   8.033  0.9132 -0.0652 -0.2465
  844MOL0     C13853   6.157   2.604   7.806  0.0036 -0.8049  0.0157
  844MOL0     C13854   6.070   2.624   7.694  0.6969 -0.1091  0.3423
  844MOL0     N13855   5.506   2.764   7.038 -0.4591  0.3707 -0.6789
  844MOL0     N13856   5.392   2.836   7.048 -0.2879  0.8685  0.0797
  844MOL0     C13857   4.856   3.396   8.170  0.2324  0.0734  0.7237
  844MOL0     C13858   4.836   3.503   8.258 -0.1491 -0.2135 -0.3663
  844MOL0     C13859   4.750   3.941   8.360 -0.7077 -0.3682 -0.5357
  844MOL0     C13860   4.860   3.974   8.443 -0.7001  0.2526  0.8352
  844MOL0     C13861   4.868   4.079   8.537 -0.1660 -0.5475  0.4587
  844MOL0     C13862   4.756   4.162   8.548  0.0589  0.1474 -0.3411
  844MOL0     O13863   4.741   4.259   8.641  0.7489 -0.0820 -0.3668
  844MOL0     C13864   4.854   4.282   8.723  0.9099  1.2695  0.0323
  844MOL0     C13865   4.841   4.418   8.794  0.0383 -0.6991  1.0055
  844MOL0     C13866   4.843   4.547   8.709  0.1183 -0.9416  0.4359
  844MOL0     C13867   4.812   4.682   8.766 -0.8557  0.1356  0.5534
  844MOL0     C13868   4.909   4.718   8.868 -0.3919 -0.7408 -0.0656
  844MOL0     C13869   4.991   4.741   8.955 -0.5916  0.1103 -0.2850
  844MOL0     C13870   4.652   4.148   8.456  0.2134 -0.3104 -0.2176
  844MOL0     C13871   4.647   4.034   8.372 -0.1805  1.0892  0.3335
  844MOL0     C13872   4.526   4.012   8.300  0.6839 -0.1468 -0.0753
  844MOL0     H13873   4.919   3.752   8.052 -1.5098  0.6887  1.1898
  844MOL0     H13874   4.941   3.559   7.885 -0.7498 -1.1501  0.0007
  844MOL0     H13875   4.904   3.362   7.782  0.4680 -0.2047 -2.0842
  844MOL0     H13876   5.067   3.312   7.850  0.5688  2.7218 -0.9109
  844MOL0     H13877   4.836   3.116   7.795  1.6039 -3.9187  2.0730
  844MOL0     H13878   5.004   3.086   7.825 -2.5009 -2.5513  1.0487
  844MOL0     H13879   5.068   3.207   7.618 -0.1898  0.3109 -3.4491
  844MOL0     H13880   4.907   3.260   7.579 -0.3672  1.2437  2.7395
  844MOL0     H13881   4.924   2.960   7.592 -0.2785 -0.7024 -0.2436
  844MOL0     H13882   4.841   3.073   7.480 -1.4542  1.3477  1.7576
  844MOL0     H13883   5.093   3.114   7.401  0.0691 -0.9286  1.0417
  844MOL0     H13884   5.133   2.975   7.492  0.4835 -0.2663  0.0217
  844MOL0     H13885   4.956   2.844   7.338  3.4023 -1.6569  1.6800
  844MOL0     H13886   4.977   2.980   7.228 -0.7090 -2.2461 -1.0108
  844MOL0     H13887   5.116   2.800   7.178 -1.4870 -2.1961  1.0213
  844MOL0     H13888   5.165   2.773   7.343 -2.3425 -1.2927 -0.9664
  844MOL0     H13889   5.239   3.024   7.182 -0.7768 -0.4526  0.1839
  844MOL0     H13890   5.309   2.975   7.341 -2.3987 -0.1760  1.8296
  844MOL0     H13891   5.474   2.789   7.363  1.3593  3.7655 -0.4551
  844MOL0     H13892   5.645   2.560   7.136 -1.6560  1.7698 -2.6053
  844MOL0     H13893   5.746   2.700   7.129  1.1767 -1.3150  0.3900
  844MOL0     H13894   5.717   2.710   7.404 -2.7529 -0.9173  1.8469
  844MOL0     H13895   5.645   2.553   7.394 -1.5823  0.1366 -0.7750
  844MOL0     H13896   5.898   2.575   7.238  1.3176  1.4113  1.5076
  844MOL0     H13897   5.822   2.438   7.317 -0.7652  0.8485 -2.9836
  844MOL0     H13898   5.986   2.677   7.433 -2.8922  0.6841  1.3574
  844MOL0     H13899   6.044   2.518   7.411  2.0251  1.6516  1.7779
  844MOL0     H13900   5.892   2.337   7.736 -2.2995  4.2774 -0.4836
  844MOL0     H13901   6.053   2.296   7.913 -1.3937  0.5455  0.3009
  844MOL0     H13902   6.309   2.408   8.267 -0.8590 -1.0035  0.5556
  844MOL0     H13903   6.544   2.389   8.395  0.7118 -0.8975  0.0453
  844MOL0     H13904   6.697   2.112   8.414  0.8451 -1.1728  2.5735
  844MOL0     H13905   6.781   2.073   8.262  1.6935  1.5233 -1.8326
  844MOL0     H13906   6.909   1.996   8.444 -1.6942  0.6542 -0.9714
  844MOL0     H13907   6.985   2.166   8.421 -1.6457  2.9842  2.0462
  844MOL0     H13908   6.812   2.227   8.605  3.3617  1.9204 -2.1190
  844MOL0     H13909   6.809   2.052   8.632 -0.1250 -2.0991 -4.0761
  844MOL0     H13910   7.066   2.234   8.649  1.7139  0.9069  4.1185
  844MOL0     H13911   7.061   2.062   8.643 -2.4551 -0.4458 -3.9777
  844MOL0     H13912   7.045   2.144   8.887  0.4125 -1.0406 -0.5867
  844MOL0     H13913   6.903   2.064   8.854 -1.1758  2.2062  4.0260
  844MOL0     H13914   6.794   2.296   8.796 -0.0148 -0.4318 -1.3748
  844MOL0     H13915   6.851   2.266   8.965 -0.3410  0.1617 -0.8968
  844MOL0     H13916   7.026   2.412   8.758 -0.4660  1.8036  0.1963
  844MOL0     H13917   7.045   2.403   8.939 -1.7174  0.3288  2.8499
  844MOL0     H13918   6.811   2.528   8.920  1.3122 -2.9873  1.1803
  844MOL0     H13919   6.960   2.626   8.889  1.1506 -0.5142  2.4896
  844MOL0     H13920   6.721   2.200   8.072  0.4853  1.2822  0.9807
  844MOL0     H13921   6.488   2.205   7.950 -4.4818 -1.7501  0.8066
  844MOL0     H13922   6.221   2.691   7.815 -0.4526 -0.5101  0.4502
  844MOL0     H13923   6.071   2.721   7.646  5.1266  0.7402  1.6522
  844MOL0     H13924   4.839   3.293   8.199 -1.0802  0.1023  0.1197
  844MOL0     H13925   4.797   3.482   8.357 -1.9675 -1.0862 -1.2122
  844MOL0     H13926   4.953   3.919   8.440 -2.0409 -2.0737 -0.3278
  844MOL0     H13927   4.952   4.084   8.604  0.8443  0.7645 -0.8360
  844MOL0     H13928   4.947   4.282   8.666 -0.2864  2.5747 -2.0310
  844MOL0     H13929   4.862   4.204   8.799 -1.0100  5.2010  4.8334
  844MOL0     H13930   4.914   4.436   8.873  1.2788  0.4812 -0.3449
  844MOL0     H13931   4.742   4.416   8.839 -2.1830  1.5638 -3.1700
  844MOL0     H13932   4.777   4.539   8.623  1.8564 -2.3848 -0.8564
  844MOL0     H13933   4.945   4.548   8.668 -0.1570 -1.2471 -0.2627
  844MOL0     H13934   4.824   4.762   8.692  1.0861  0.9046  1.6259
  844MOL0     H13935   4.712   4.678   8.808 -1.4460  0.1809 -0.7889
  844MOL0     H13936   5.058   4.769   9.033 -1.8874  1.6523  0.3177
  844MOL0     H13937   4.568   4.216   8.461  0.8814  0.4686  0.9249
  844MOL0     H13938   4.498   3.909   8.324  1.5172 -0.8322 -1.8455
  844MOL0     H13939   4.446   4.078   8.334  1.5417  0.5448  0.6463
  844MOL0     H13940   4.540   4.036   8.194  3.7560  1.7872  0.6428
  845MOL0     O13941   5.521   7.437   2.186 -0.2276  0.0409  1.0774
  845MOL0     C13942   5.589   7.396   2.089  0.8487 -0.3457 -0.3208
  845MOL0     O13943   5.573   7.430   1.959  0.4620  0.4045 -0.2254
  845MOL0     C13944   5.453   7.501   1.939 -0.8821 -0.8291 -1.2875
  845MOL0     C13945   5.329   7.442   1.922 -0.6932 -1.0651  0.4538
  845MOL0     C13946   5.214   7.511   1.879  0.7489  0.1750  0.0783
  845MOL0     C13947   5.223   7.650   1.856  0.2276 -0.2306 -0.1863
  845MOL0     O13948   5.108   7.730   1.826 -0.6871 -0.2639  0.7652
  845MOL0     C13949   4.986   7.674   1.779 -0.1219 -0.7808  0.2462
  845MOL0     C13950   4.877   7.786   1.788 -0.1542 -0.0034  0.6953
  845MOL0     C13951   4.918   7.913   1.713  0.5296  0.0879  0.2368
  845MOL0     C13952   4.824   7.932   1.593 -0.4234  0.9138 -0.7369
  845MOL0     C13953   4.693   7.978   1.644 -0.4594  0.7297 -0.3183
  845MOL0     C13954   4.567   7.953   1.565  0.3172  1.2455 -0.0633
  845MOL0     C13955   4.531   7.799   1.564 -0.1022  0.2473  0.2616
  845MOL0     C13956   4.465   7.748   1.438 -0.3744 -0.0096 -0.1095
  845MOL0     N13957   4.559   7.736   1.322 -0.7383  0.5650 -0.1177
  845MOL0     C13958   4.662   7.652   1.316 -0.7116 -0.4163 -0.9924
  845MOL0     C13959   4.714   7.676   1.192 -0.2524 -0.3977 -0.8511
  845MOL0     C13960   4.839   7.623   1.118 -0.0640  0.3439 -1.1196
  845MOL0     C13961   4.965   7.579   1.202 -0.5632 -0.0345  0.3079
  845MOL0     C13962   5.013   7.709   1.270 -0.6743  0.8637  0.1510
  845MOL0     C13963   5.146   7.679   1.343  0.4707 -0.0019 -0.5796
  845MOL0     O13964   5.143   7.550   1.413 -0.7085 -0.4189  0.5675
  845MOL0     C13965   5.255   7.506   1.479  1.7104 -1.3862 -1.3807
  845MOL0     C13966   5.246   7.394   1.555 -0.1076  1.0571  0.1275
  845MOL0     C13967   5.365   7.336   1.611  0.5431 -1.0312 -1.1310
  845MOL0     C13968   5.488   7.397   1.589  0.2313 -0.0015 -0.3633
  845MOL0     C13969   5.609   7.334   1.637 -0.3312  1.0306 -0.2284
  845MOL0     O13970   5.593   7.209   1.677  0.0254  0.1266 -0.1252
  845MOL0     C13971   5.692   7.119   1.694 -0.3110  0.6537 -0.0776
  845MOL0     C13972   5.811   7.110   1.623 -0.2854 -0.1701 -0.9873
  845MOL0     C13973   5.897   7.001   1.644 -0.0474 -0.6328  0.1910
  845MOL0     C13974   5.871   6.905   1.732  0.4739  0.0502 -0.0706
  845MOL0     O13975   5.969   6.816   1.760  0.7996  1.0180  0.8614
  845MOL0     C13976   5.987   6.721   1.646  0.3745  0.1566  0.7172
  845MOL0     C13977   5.896   6.604   1.647  0.4652  0.3385 -0.5827
  845MOL0     C13978   5.952   6.488   1.575  0.5390 -0.1492 -0.2194
  845MOL0     C13979   5.845   6.385   1.553 -0.2077  0.0863  0.3274
  845MOL0     C13980   5.883   6.268   1.464 -0.1401  0.6547  0.3894
  845MOL0     C13981   5.893   6.306   1.311 -0.8849 -0.1294  0.7643
  845MOL0     C13982   5.961   6.193   1.219  0.1159  0.0210  0.5734
  845MOL0     C13983   5.884   6.057   1.224 -0.3082  0.2708 -1.4678
  845MOL0    Cl13984   5.715   6.071   1.158  0.2058  0.0596 -0.2289
  845MOL0     C13985   5.752   6.902   1.802  0.6143 -0.1732  0.5697
  845MOL0     C13986   5.664   7.011   1.782  0.3511 -0.6807 -1.1041
  845MOL0     O13987   5.720   7.390   1.625 -0.3722 -0.4019 -0.8872
  845MOL0     C13988   5.488   7.518   1.521 -1.2503  0.5357  0.8498
  845MOL0     C13989   5.371   7.576   1.477  0.1219 -0.0771 -0.6388
  845MOL0     N13990   4.645   7.780   1.128 -0.5250 -0.0721  0.4415
  845MOL0     N13991   4.554   7.818   1.207 -0.0882 -0.3779 -0.8400
  845MOL0     C13992   5.340   7.713   1.880  0.0972 -0.1661 -1.0466
  845MOL0     C13993   5.455   7.640   1.901  0.6637  0.5245 -0.2434
  845MOL0     C13994   5.711   7.313   2.125 -0.1436 -0.8561  0.0355
  845MOL0     C13995   5.713   7.193   2.194  0.3266  0.8772 -0.1347
  845MOL0     C13996   5.839   7.129   2.227 -0.1767 -0.2730 -0.2671
  845MOL0     C13997   5.958   7.191   2.195  0.4918 -0.0154 -0.3685
  845MOL0     O13998   6.069   7.118   2.241  0.7498  0.0274  0.8954
  845MOL0     C13999   6.200   7.147   2.167  0.4002 -0.8404 -0.4002
  845MOL0     C14000   6.209   7.083   2.030  0.1181 -0.0860 -0.0400
  845MOL0     C14001   6.344   7.103   1.968  0.7805 -0.5172  0.0993
  845MOL0     C14002   6.364   7.033   1.840 -0.7939 -0.3204  0.4094
  845MOL0     C14003   6.379   6.889   1.861  0.9773 -1.1207 -0.0516
  845MOL0     C14004   6.378   6.767   1.859 -1.0452 -0.3408  0.3349
  845MOL0     C14005   5.959   7.299   2.114  0.9341 -0.0901 -0.2014
  845MOL0     C14006   5.838   7.362   2.085  0.2819  0.2661  0.6519
  845MOL0     C14007   5.854   7.472   1.977  0.6744 -0.4523  0.1674
  845MOL0     H14008   5.337   7.337   1.948  0.6134 -1.2565 -0.6648
  845MOL0     H14009   5.121   7.466   1.844  1.1153 -1.4355  1.0957
  845MOL0     H14010   5.010   7.635   1.680  1.4415 -3.6954  1.6465
  845MOL0     H14011   4.948   7.593   1.842 -3.6785  1.9062  1.9074
  845MOL0     H14012   4.875   7.816   1.893  0.4303  0.6004  0.5425
  845MOL0     H14013   4.781   7.752   1.748 -0.2546  0.2147  0.7536
  845MOL0     H14014   5.022   7.911   1.680  1.2512 -1.9786  2.3734
  845MOL0     H14015   4.914   7.992   1.789  1.6918  0.9102 -0.5275
  845MOL0     H14016   4.869   8.006   1.526  1.1012  1.2563  0.6027
  845MOL0     H14017   4.822   7.833   1.546  1.7333 -0.6921  2.1644
  845MOL0     H14018   4.686   7.951   1.750  2.6439 -0.0235 -0.1982
  845MOL0     H14019   4.708   8.085   1.662 -0.3877  0.4111  1.7552
  845MOL0     H14020   4.488   8.014   1.608 -2.5779 -2.1883 -0.1036
  845MOL0     H14021   4.577   7.982   1.460 -1.1081 -0.3496 -0.6788
  845MOL0     H14022   4.464   7.803   1.651  0.1308 -0.0682  0.4568
  845MOL0     H14023   4.617   7.740   1.594  0.8208  0.9599 -0.8795
  845MOL0     H14024   4.435   7.643   1.452 -0.7620  0.1426  0.2170
  845MOL0     H14025   4.372   7.804   1.428 -0.8881 -0.3291  2.1118
  845MOL0     H14026   4.692   7.580   1.391 -1.0467 -1.1189 -1.5169
  845MOL0     H14027   4.793   7.536   1.071  2.7986 -0.4299 -2.7450
  845MOL0     H14028   4.889   7.696   1.054 -0.8822  2.1236  0.1898
  845MOL0     H14029   4.956   7.503   1.281  4.3238  0.7288  1.9176
  845MOL0     H14030   5.035   7.540   1.127 -1.6144  0.6796 -1.1033
  845MOL0     H14031   4.940   7.740   1.345  1.1345  1.4444  1.7678
  845MOL0     H14032   5.019   7.787   1.194  0.7556 -0.4223 -1.1425
  845MOL0     H14033   5.151   7.757   1.420 -2.1474 -2.1806  2.0365
  845MOL0     H14034   5.231   7.682   1.275  0.4931 -3.6652 -0.8753
  845MOL0     H14035   5.149   7.353   1.581 -0.8655  2.8353  0.2575
  845MOL0     H14036   5.351   7.247   1.671  1.4844 -0.5103 -0.0895
  845MOL0     H14037   5.847   7.200   1.573 -1.4742  0.8383 -0.0988
  845MOL0     H14038   5.986   6.988   1.584 -1.0952 -0.0830 -1.5602
  845MOL0     H14039   5.960   6.756   1.546  1.8048 -4.7689 -1.7122
  845MOL0     H14040   6.096   6.712   1.644  0.5169  1.7842 -1.0016
  845MOL0     H14041   5.875   6.569   1.748  2.1252  1.1575  0.0700
  845MOL0     H14042   5.801   6.629   1.597  0.5001  0.8544 -0.3968
  845MOL0     H14043   5.989   6.528   1.480  0.0615  1.0025  0.0621
  845MOL0     H14044   6.035   6.450   1.636 -0.7650 -0.3273  1.5301
  845MOL0     H14045   5.764   6.434   1.500  2.0927  0.5703 -3.0704
  845MOL0     H14046   5.807   6.341   1.646 -0.2234 -0.0813  0.2420
  845MOL0     H14047   5.797   6.200   1.470  2.0801 -3.0487 -3.8430
  845MOL0     H14048   5.972   6.214   1.498 -1.6606 -1.1118  1.8233
  845MOL0     H14049   5.797   6.332   1.265  0.7641 -0.0229 -2.9646
  845MOL0     H14050   5.961   6.392   1.307  2.8397 -2.6188  3.4774
  845MOL0     H14051   6.068   6.179   1.238  0.6505  1.3111 -1.2116
  845MOL0     H14052   5.948   6.243   1.123  1.5918 -2.7902 -1.2392
  845MOL0     H14053   5.942   5.978   1.176 -2.1050 -0.8823 -1.8330
  845MOL0     H14054   5.869   6.022   1.326  0.5589  4.3451  0.2444
  845MOL0     H14055   5.710   6.832   1.874 -2.1761 -0.6181 -1.3243
  845MOL0     H14056   5.570   7.021   1.836 -0.1662 -0.0367 -2.0828
  845MOL0     H14057   5.579   7.574   1.502 -2.2266  1.9482  0.1354
  845MOL0     H14058   5.396   7.675   1.438  5.2983 -1.6333 -2.0935
  845MOL0     H14059   5.358   7.819   1.869  2.0704 -0.4159 -0.5135
  845MOL0     H14060   5.544   7.702   1.898  1.9089 -1.2148 -2.0388
  845MOL0     H14061   5.618   7.149   2.222  0.6398 -0.0022 -0.4244
  845MOL0     H14062   5.841   7.035   2.281 -0.1070  0.4509  1.0317
  845MOL0     H14063   6.284   7.103   2.223 -0.6036 -1.2984  0.8023
  845MOL0     H14064   6.221   7.254   2.172  1.6196 -1.1067  2.0012
  845MOL0     H14065   6.135   7.122   1.960  1.2234  0.6497 -0.8310
  845MOL0     H14066   6.181   6.978   2.041  0.9872 -0.2926  0.2976
  845MOL0     H14067   6.431   7.076   2.030  0.7742 -0.6855  0.0341
  845MOL0     H14068   6.355   7.207   1.937 -0.4636 -0.3680  0.1294
  845MOL0     H14069   6.292   7.053   1.760  1.4243 -1.1060 -1.9236
  845MOL0     H14070   6.464   7.060   1.805 -1.2160 -1.2442 -1.6605
  845MOL0     H14071   6.392   6.661   1.852  1.7482  0.0677 -3.0902
  845MOL0     H14072   6.051   7.343   2.076 -0.7381  3.0358 -0.9998
  845MOL0     H14073   5.769   7.541   1.983  0.0400 -1.1027 -0.9743
  845MOL0     H14074   5.948   7.526   1.980  1.3699 -1.6768  2.9335
  845MOL0     H14075   5.853   7.423   1.879 -1.2797  0.8180 -0.5160
  846MOL0     O14076  11.091   4.668   9.905  0.3794 -0.7800  0.4803
  846MOL0     C14077  11.133   4.785   9.897 -0.3725  0.3080 -0.1150
  846MOL0     O14078  11.070   4.886   9.834 -0.1139 -0.0184 -0.0606
  846MOL0     C14079  10.960   4.865   9.758 -0.9139 -0.1838  1.0285
  846MOL0     C14080  10.837   4.850   9.824  1.0657 -0.5001 -0.4584
  846MOL0     C14081  10.716   4.866   9.757  0.5709 -0.1889  0.0781
  846MOL0     C14082  10.714   4.874   9.622 -0.1511  0.9973  0.3354
  846MOL0     O14083  10.590   4.873   9.549 -0.5678 -0.7752  0.2478
  846MOL0     C14084  10.588   4.904   9.412  0.2253  0.2235  0.6406
  846MOL0     C14085  10.449   4.903   9.356 -0.1791  0.3566  0.5679
  846MOL0     C14086  10.457   4.946   9.218  0.4730 -0.6076  0.5317
  846MOL0     C14087  10.321   5.001   9.175 -0.4697  0.4949  0.8374
  846MOL0     C14088  10.287   5.143   9.227 -1.4110 -0.6514  0.1273
  846MOL0     C14089  10.146   5.191   9.188 -0.4608  0.7593 -0.1189
  846MOL0     C14090  10.106   5.189   9.037 -0.0041  0.1524 -0.5145
  846MOL0     C14091  10.005   5.293   9.004 -0.6484  0.0852  0.3577
  846MOL0     N14092   9.879   5.259   9.066  1.2322 -0.5084 -0.4302
  846MOL0     C14093   9.851   5.257   9.203  0.2252 -0.1375  0.2081
  846MOL0     C14094   9.722   5.211   9.208  1.8429 -0.4534 -0.6872
  846MOL0     C14095   9.628   5.201   9.339 -1.2351 -1.1746  0.6164
  846MOL0     C14096   9.479   5.155   9.305 -0.7498  0.3890  0.1160
  846MOL0     C14097   9.445   5.026   9.375  0.4773  0.0968 -0.1996
  846MOL0     C14098   9.294   4.993   9.410 -0.6630 -1.2061  1.3728
  846MOL0     O14099   9.298   4.851   9.444  0.1695  0.2199  0.5092
  846MOL0     C14100   9.180   4.796   9.494  0.0103 -0.0620 -0.0928
  846MOL0     C14101   9.197   4.691   9.586 -0.1877  0.2166 -0.0573
  846MOL0     C14102   9.094   4.620   9.650 -0.0017 -1.1092  0.5182
  846MOL0     C14103   8.962   4.656   9.621  0.8308  0.8165 -0.0600
  846MOL0     C14104   8.845   4.586   9.688 -0.1945  0.1844  0.7318
  846MOL0     O14105   8.722   4.584   9.619 -0.6937  0.1756  0.0694
  846MOL0     C14106   8.600   4.560   9.681  0.0395  0.2084  0.4067
  846MOL0     C14107   8.565   4.587   9.811  0.9687  0.9209  0.1605
  846MOL0     C14108   8.438   4.556   9.864  2.1082  0.0221  0.2388
  846MOL0     C14109   8.338   4.490   9.787 -0.1848 -0.1944  0.8228
  846MOL0     O14110   8.217   4.441   9.819 -0.1718  0.1999 -0.0690
  846MOL0     C14111   8.158   4.465   9.954 -0.4018  0.3694  1.0779
  846MOL0     C14112   8.005   4.464   9.953  1.2547 -0.6240 -0.4773
  846MOL0     C14113   7.939   4.340   9.900  0.7398 -0.2857 -0.2511
  846MOL0     C14114   7.795   4.317   9.940 -0.5554 -0.0353  0.2426
  846MOL0     C14115   7.704   4.394   9.846  0.3166  0.6895  0.5555
  846MOL0     C14116   7.551   4.361   9.884  0.2182 -0.6337  0.1203
  846MOL0     C14117   7.444   4.448   9.822  0.0119 -0.1826 -0.2198
  846MOL0     C14118   7.296   4.415   9.854  0.0362 -0.4321  0.0205
  846MOL0    Cl14119   7.229   4.279   9.762  0.0865 -0.2990 -0.0053
  846MOL0     C14120   8.393   4.441   9.665 -0.2358  0.2142 -0.4798
  846MOL0     C14121   8.512   4.477   9.608 -0.5661 -0.3724 -0.2028
  846MOL0     O14122   8.865   4.529   9.796 -0.2499 -0.8248  0.0653
  846MOL0     C14123   8.941   4.758   9.521 -0.4127  0.3852 -0.8192
  846MOL0     C14124   9.048   4.829   9.463 -0.7612  0.0206 -0.1532
  846MOL0     N14125   9.675   5.201   9.077  0.5886 -0.1529 -0.4569
  846MOL0     N14126   9.767   5.233   8.993  0.4637 -0.4825 -0.0474
  846MOL0     C14127  10.832   4.894   9.552  0.3126  0.2663  0.9504
  846MOL0     C14128  10.956   4.888   9.619 -0.3185  0.0848 -0.0534
  846MOL0     C14129  11.279   4.820   9.940 -0.3885  0.8513  1.1022
  846MOL0     C14130  11.337   4.922   9.865 -0.2549 -0.7977  0.0287
  846MOL0     C14131  11.463   4.972   9.893 -0.8064  0.2284  0.3910
  846MOL0     C14132  11.545   4.915   9.989 -0.2499  0.0774  0.7259
  846MOL0     O14133  11.668   4.959  10.029 -0.3628 -0.2507  0.6523
  846MOL0     C14134  11.716   5.082   9.973 -0.0814  0.2813  0.4543
  846MOL0     C14135  11.652   5.206  10.035 -0.3048  0.8283 -0.3555
  846MOL0     C14136  11.709   5.339   9.975  0.0131 -0.7372 -0.4165
  846MOL0     C14137  11.656   5.460  10.054 -0.0046 -0.2930  0.4195
  846MOL0     C14138  11.687   5.437  10.196 -0.6632  0.6312 -0.4526
  846MOL0     C14139  11.735   5.436  10.314  0.7554 -0.4862  0.3963
  846MOL0     C14140  11.495   4.798  10.046  0.3078  1.0583 -0.4775
  846MOL0     C14141  11.360   4.757  10.035 -0.1751  0.4443  0.6733
  846MOL0     C14142  11.313   4.653  10.134  0.7518 -0.2664 -0.7254
  846MOL0     H14143  10.837   4.856   9.932  2.7040  3.4347 -0.4889
  846MOL0     H14144  10.621   4.862   9.809  1.3366 -2.1682  1.4878
  846MOL0     H14145  10.635   5.002   9.399 -1.9040  0.9354 -3.1744
  846MOL0     H14146  10.642   4.831   9.352 -0.1303  0.0639  0.5128
  846MOL0     H14147  10.389   4.973   9.415 -0.8873  0.0669  0.2025
  846MOL0     H14148  10.405   4.803   9.368 -0.1711  0.6097  3.4780
  846MOL0     H14149  10.487   4.867   9.148  2.0471  0.8705 -0.5383
  846MOL0     H14150  10.529   5.027   9.207 -3.0761  2.9833  1.4921
  846MOL0     H14151  10.307   4.995   9.066 -1.0026 -0.4997  0.9536
  846MOL0     H14152  10.242   4.929   9.195 -2.5754  2.2577 -0.6217
  846MOL0     H14153  10.288   5.133   9.336 -0.1404 -0.2977  0.1643
  846MOL0     H14154  10.365   5.213   9.198  0.2025 -2.7835 -0.9702
  846MOL0     H14155  10.078   5.120   9.236 -1.6340  2.5531  1.0154
  846MOL0     H14156  10.124   5.290   9.230  1.6475  0.3885  2.1345
  846MOL0     H14157  10.092   5.084   9.012 -3.0499  0.8639 -2.2155
  846MOL0     H14158  10.195   5.223   8.983  0.8973  0.3513  1.0408
  846MOL0     H14159  10.044   5.389   9.039 -5.4411  2.1961  0.6984
  846MOL0     H14160   9.984   5.296   8.897 -2.8722 -1.1409  0.6841
  846MOL0     H14161   9.924   5.279   9.281 -2.1156  1.1001  2.1687
  846MOL0     H14162   9.674   5.125   9.402 -0.8531 -0.5291  1.1293
  846MOL0     H14163   9.624   5.297   9.391 -0.2907 -0.0255 -1.3125
  846MOL0     H14164   9.399   5.228   9.317 -0.8071  0.2203  0.7829
  846MOL0     H14165   9.472   5.130   9.199  1.1456  2.5588 -0.6298
  846MOL0     H14166   9.495   5.010   9.471 -0.0352  0.1013  0.0723
  846MOL0     H14167   9.478   4.948   9.306  0.6521 -0.5571  0.6057
  846MOL0     H14168   9.232   5.010   9.321  0.6110  6.1119  1.2782
  846MOL0     H14169   9.281   5.059   9.496  2.4747  0.3738  0.7833
  846MOL0     H14170   9.300   4.658   9.595  0.2368  0.1859 -3.5698
  846MOL0     H14171   9.102   4.554   9.736 -1.6814  4.3358  5.5343
  846MOL0     H14172   8.643   4.634   9.871  0.7272 -2.3900  3.4701
  846MOL0     H14173   8.418   4.577   9.968 -0.2338 -0.6991 -0.0212
  846MOL0     H14174   8.191   4.396  10.031 -0.9415  2.4693  3.3119
  846MOL0     H14175   8.193   4.566   9.979 -2.5746  1.0293  1.7041
  846MOL0     H14176   7.973   4.481  10.056  5.3968 -0.4277  0.9708
  846MOL0     H14177   7.970   4.551   9.897 -0.5780 -2.1962 -1.9336
  846MOL0     H14178   7.942   4.341   9.791  1.9774 -0.8188 -0.2392
  846MOL0     H14179   7.997   4.257   9.941 -0.1944  0.4319  2.8077
  846MOL0     H14180   7.786   4.347  10.045  0.1248  0.3982  0.1833
  846MOL0     H14181   7.758   4.215   9.929  0.0472 -0.4661  1.9578
  846MOL0     H14182   7.719   4.350   9.747  4.0214 -1.4082  1.8854
  846MOL0     H14183   7.710   4.503   9.840  1.6781  0.5429 -2.0287
  846MOL0     H14184   7.526   4.261   9.846  2.9273 -1.8449  1.2769
  846MOL0     H14185   7.542   4.364   9.993 -1.2941 -0.5857  0.0109
  846MOL0     H14186   7.460   4.465   9.715  2.0259  2.0941  0.3309
  846MOL0     H14187   7.453   4.542   9.879 -0.7616 -0.3427  0.1801
  846MOL0     H14188   7.299   4.394   9.961  2.8693 -0.1850  0.0705
  846MOL0     H14189   7.232   4.502   9.840  0.5491 -0.0952 -0.2861
  846MOL0     H14190   8.330   4.370   9.612 -0.2725  0.4489 -0.7558
  846MOL0     H14191   8.557   4.439   9.517  2.3094  1.1122  0.4635
  846MOL0     H14192   8.836   4.773   9.495  0.2845  3.7122 -2.2269
  846MOL0     H14193   9.041   4.903   9.383  2.6476  1.7981  1.0166
  846MOL0     H14194  10.828   4.893   9.443 -1.2642 -1.3078  0.9739
  846MOL0     H14195  11.047   4.914   9.566  1.8855  1.2514  3.9199
  846MOL0     H14196  11.295   4.970   9.776  0.7096 -1.8528 -1.0357
  846MOL0     H14197  11.487   5.062   9.837 -0.8895  0.7016  1.1079
  846MOL0     H14198  11.705   5.088   9.864 -0.8903  1.5259  0.5877
  846MOL0     H14199  11.824   5.090   9.986  0.2461  0.1409 -1.8010
  846MOL0     H14200  11.663   5.192  10.143 -1.2155  0.3456 -0.3171
  846MOL0     H14201  11.546   5.209  10.010 -0.1139 -0.0864 -1.3412
  846MOL0     H14202  11.701   5.340   9.866  2.6850 -0.1989 -0.6631
  846MOL0     H14203  11.816   5.333   9.995  0.2241 -0.4148 -1.3987
  846MOL0     H14204  11.718   5.550  10.041  0.7585 -0.5745  1.9409
  846MOL0     H14205  11.551   5.485  10.040 -0.0770 -1.3845 -1.2839
  846MOL0     H14206  11.772   5.441  10.414 -0.4475 -4.5188  1.2319
  846MOL0     H14207  11.557   4.747  10.119 -0.5520  0.6462 -0.0274
  846MOL0     H14208  11.390   4.626  10.207 -0.4801  0.7310  1.0330
  846MOL0     H14209  11.227   4.677  10.198  1.0892 -5.4234  2.2602
  846MOL0     H14210  11.282   4.567  10.074  0.0746  0.3300 -1.2382
  847MOL0     O14211   9.555   4.998   1.532 -0.3133  0.1539 -0.3080
  847MOL0     C14212   9.544   4.901   1.603  0.4916  0.2955 -0.4135
  847MOL0     O14213   9.649   4.850   1.676  0.2652  0.5654 -1.0035
  847MOL0     C14214   9.780   4.890   1.685 -0.0081 -0.6654  0.8924
  847MOL0     C14215   9.826   5.023   1.646  0.8112  0.4037 -1.2979
  847MOL0     C14216   9.954   5.059   1.668  0.2014 -0.1426  0.6471
  847MOL0     C14217  10.041   4.967   1.727  0.0735 -0.5942  0.1701
  847MOL0     O14218  10.161   5.029   1.761 -0.0744  0.0558  0.0796
  847MOL0     C14219  10.230   4.982   1.881 -0.2852 -0.3234  0.5402
  847MOL0     C14220  10.163   5.039   2.012  0.5411 -0.3367 -0.0490
  847MOL0     C14221  10.177   5.187   2.031  1.4773 -0.4402 -0.7325
  847MOL0     C14222  10.058   5.244   2.118 -0.5774 -0.4281  0.2840
  847MOL0     C14223  10.075   5.385   2.134  0.9084 -0.4123 -1.4227
  847MOL0     C14224   9.957   5.456   2.212 -0.1263  0.5344  0.0097
  847MOL0     C14225   9.827   5.466   2.127 -0.8213 -0.2585  0.4866
  847MOL0     C14226   9.745   5.587   2.174  0.6517 -0.6809  0.0576
  847MOL0     N14227   9.638   5.556   2.274 -0.6773 -0.0411  0.5494
  847MOL0     C14228   9.632   5.605   2.402 -0.2754  0.0634 -0.3241
  847MOL0     C14229   9.505   5.580   2.444  0.0760 -0.2672  0.4233
  847MOL0     C14230   9.452   5.614   2.574 -0.2042 -0.5828  0.0770
  847MOL0     C14231   9.525   5.551   2.697 -0.2041 -0.1758 -0.3050
  847MOL0     C14232   9.553   5.398   2.693  0.0763 -1.2996  0.0835
  847MOL0     C14233   9.584   5.357   2.833 -0.2817  0.3770  0.0068
  847MOL0     O14234   9.603   5.216   2.851  0.5697 -0.8937 -0.3015
  847MOL0     C14235   9.660   5.158   2.962  0.3514 -0.7030  0.8225
  847MOL0     C14236   9.671   5.021   2.970  0.6036 -0.3674 -0.5352
  847MOL0     C14237   9.721   4.966   3.094  0.2026 -0.3152  0.1553
  847MOL0     C14238   9.757   5.046   3.200 -0.7311 -0.3058 -0.9916
  847MOL0     C14239   9.828   4.973   3.312  0.3461 -0.5572 -1.0129
  847MOL0     O14240   9.863   4.839   3.292  0.0198  0.1453 -0.1484
  847MOL0     C14241   9.936   4.762   3.380  0.0159  0.4734  0.7544
  847MOL0     C14242   9.977   4.638   3.324  0.3456 -0.3040 -0.3210
  847MOL0     C14243  10.059   4.554   3.403 -0.1363  1.1065  0.7284
  847MOL0     C14244  10.078   4.582   3.540 -0.0796  0.6105  0.7642
  847MOL0     O14245  10.133   4.496   3.636  0.1772 -0.3335  0.1549
  847MOL0     C14246  10.189   4.378   3.588 -0.0927 -0.7474  0.7100
  847MOL0     C14247  10.266   4.321   3.705 -0.3044  0.1402 -0.1804
  847MOL0     C14248  10.276   4.168   3.683 -0.4253 -0.1281  0.4227
  847MOL0     C14249  10.148   4.104   3.717 -0.3468 -0.5468 -0.0980
  847MOL0     C14250  10.179   3.974   3.798  0.5053  1.2377 -0.1283
  847MOL0     C14251  10.190   4.006   3.937  0.1823 -0.3311 -0.7114
  847MOL0     C14252  10.205   3.886   4.041  0.0263 -0.5968  0.2987
  847MOL0     C14253  10.306   3.916   4.148 -0.5314  0.6286 -0.0429
  847MOL0    Cl14254  10.226   4.019   4.269  0.5474 -0.6657  0.0781
  847MOL0     C14255  10.029   4.708   3.593 -0.2056  0.4848 -0.3567
  847MOL0     C14256   9.963   4.800   3.510  0.0897 -0.1791  0.2125
  847MOL0     O14257   9.850   5.042   3.412 -1.1916 -0.0456 -0.5128
  847MOL0     C14258   9.726   5.184   3.189 -0.5419  0.1217  0.1250
  847MOL0     C14259   9.682   5.242   3.075 -0.1669  0.2121  0.0367
  847MOL0     N14260   9.435   5.520   2.339  0.2972  0.1776 -0.2856
  847MOL0     N14261   9.517   5.500   2.240  0.1332  0.2122  0.1732
  847MOL0     C14262  10.009   4.839   1.752  0.9723 -0.6165  0.0652
  847MOL0     C14263   9.873   4.799   1.737  0.0131 -0.0878  0.7932
  847MOL0     C14264   9.418   4.827   1.615 -0.3930 -0.6842 -0.1870
  847MOL0     C14265   9.331   4.828   1.504  0.5571 -0.7213  0.2158
  847MOL0     C14266   9.206   4.775   1.497 -0.0168 -0.0445  0.9338
  847MOL0     C14267   9.159   4.703   1.604 -0.4338  0.7078 -0.5384
  847MOL0     O14268   9.022   4.660   1.603 -0.3647  0.2685  0.2257
  847MOL0     C14269   8.936   4.766   1.643  0.7137 -0.2738  0.6268
  847MOL0     C14270   8.797   4.714   1.661 -0.3561  0.2081  1.0129
  847MOL0     C14271   8.717   4.795   1.760 -0.1340 -0.3954  0.1145
  847MOL0     C14272   8.739   4.747   1.907 -0.4454 -0.1384 -0.2311
  847MOL0     C14273   8.625   4.790   1.983  0.5322  0.2735  0.2802
  847MOL0     C14274   8.527   4.835   2.043 -0.3178 -0.3008  1.4154
  847MOL0     C14275   9.244   4.681   1.713 -0.1455 -0.1709  0.1365
  847MOL0     C14276   9.368   4.757   1.723  0.7765  0.9715  0.2553
  847MOL0     C14277   9.433   4.754   1.858  0.1949 -0.5873 -0.1828
  847MOL0     H14278   9.750   5.095   1.618  0.6659  1.0756  0.6381
  847MOL0     H14279   9.982   5.162   1.650  0.0481 -0.4818 -1.9829
  847MOL0     H14280  10.243   4.873   1.879  1.9050 -0.1612 -2.7619
  847MOL0     H14281  10.329   5.027   1.874 -1.1263  1.3259 -4.1614
  847MOL0     H14282  10.212   4.988   2.096 -1.2568  0.1619  1.3735
  847MOL0     H14283  10.056   5.028   1.994  0.2142  3.0334 -0.8101
  847MOL0     H14284  10.180   5.226   1.929  3.3657 -1.4572 -1.1123
  847MOL0     H14285  10.270   5.209   2.084 -0.4499  4.2003  1.2213
  847MOL0     H14286   9.969   5.240   2.054  0.4714  1.4969 -1.4378
  847MOL0     H14287  10.040   5.192   2.212 -2.3818 -1.4522 -0.5780
  847MOL0     H14288  10.167   5.393   2.193  1.8294  0.7259 -2.9502
  847MOL0     H14289  10.077   5.432   2.035 -1.6356 -1.5895 -2.1219
  847MOL0     H14290   9.932   5.413   2.310 -0.7279 -0.9686 -0.7699
  847MOL0     H14291   9.995   5.557   2.230  1.2584  0.8547 -3.8702
  847MOL0     H14292   9.772   5.371   2.135  2.5256 -2.5300 -1.2057
  847MOL0     H14293   9.861   5.487   2.026  1.1297  1.5037  1.4457
  847MOL0     H14294   9.813   5.662   2.215  0.6331 -1.7534  2.1477
  847MOL0     H14295   9.702   5.624   2.080  2.1251  0.3687 -0.2464
  847MOL0     H14296   9.718   5.642   2.457 -1.5618  1.8016  0.6481
  847MOL0     H14297   9.460   5.721   2.596  0.8651 -1.1944  3.3101
  847MOL0     H14298   9.349   5.580   2.584 -0.5713  1.0791  3.0928
  847MOL0     H14299   9.621   5.600   2.713 -0.6811  0.3884  0.9676
  847MOL0     H14300   9.455   5.566   2.779 -0.2316  2.6478 -0.7409
  847MOL0     H14301   9.643   5.371   2.636  0.7793  3.0305 -1.2790
  847MOL0     H14302   9.465   5.343   2.659 -1.5226  1.8710 -1.3635
  847MOL0     H14303   9.500   5.393   2.895  2.3181  2.2832  2.7031
  847MOL0     H14304   9.671   5.415   2.864 -0.8808  1.8744 -0.9824
  847MOL0     H14305   9.658   4.950   2.889  2.3136 -1.0895 -0.2108
  847MOL0     H14306   9.717   4.857   3.092  1.3513 -0.3667 -1.4605
  847MOL0     H14307   9.946   4.607   3.225  4.4445 -0.4923 -1.7717
  847MOL0     H14308  10.095   4.457   3.372  1.4739  1.3378  1.7816
  847MOL0     H14309  10.110   4.313   3.548 -1.2298  0.4177  0.9922
  847MOL0     H14310  10.256   4.403   3.506 -2.6206 -1.4974 -1.7164
  847MOL0     H14311  10.366   4.364   3.709 -1.2446  2.4387  0.5194
  847MOL0     H14312  10.228   4.350   3.803 -1.1032  1.9918 -0.9785
  847MOL0     H14313  10.288   4.154   3.575 -3.1378 -3.5696  0.3779
  847MOL0     H14314  10.364   4.131   3.736  1.5055  0.5315 -2.1298
  847MOL0     H14315  10.086   4.088   3.628 -3.3572  1.8856  1.4208
  847MOL0     H14316  10.082   4.176   3.765  0.2417 -1.5172  2.2689
  847MOL0     H14317  10.264   3.925   3.750  1.7382  3.7678 -0.6682
  847MOL0     H14318  10.085   3.919   3.788  1.9232 -1.4262  0.3601
  847MOL0     H14319  10.265   4.084   3.950 -0.8641  1.3064 -3.4526
  847MOL0     H14320  10.111   4.076   3.969 -1.8266 -3.4574  1.7714
  847MOL0     H14321  10.251   3.806   3.982  1.1386 -1.2948  2.0308
  847MOL0     H14322  10.106   3.848   4.068 -0.5226 -1.8758 -2.9964
  847MOL0     H14323  10.326   3.819   4.194 -0.3984  0.8257  0.3268
  847MOL0     H14324  10.396   3.968   4.113 -1.3734  1.5847 -0.8532
  847MOL0     H14325  10.039   4.723   3.700 -2.0290  0.9694 -0.2302
  847MOL0     H14326   9.924   4.887   3.561 -1.7763 -0.6325 -0.3660
  847MOL0     H14327   9.745   5.257   3.268 -2.9241  2.0542 -0.9578
  847MOL0     H14328   9.659   5.348   3.073  0.6883  0.4461  1.3018
  847MOL0     H14329  10.060   4.757   1.802 -0.3519 -0.9231  0.9941
  847MOL0     H14330   9.840   4.698   1.757  0.1365  0.0566  1.7834
  847MOL0     H14331   9.369   4.867   1.411 -1.7357  0.2255 -0.3804
  847MOL0     H14332   9.149   4.792   1.406  0.5181 -2.3868  0.1132
  847MOL0     H14333   8.931   4.854   1.578 -2.2455  0.7755  2.1107
  847MOL0     H14334   8.972   4.811   1.736 -0.4033  3.4421 -0.5631
  847MOL0     H14335   8.795   4.607   1.687  2.6125 -0.9793 -2.7367
  847MOL0     H14336   8.749   4.722   1.563  1.6782  1.2905  0.0598
  847MOL0     H14337   8.612   4.781   1.731 -0.0402 -2.7861  0.7364
  847MOL0     H14338   8.741   4.901   1.746  0.2494 -0.3653  0.9210
  847MOL0     H14339   8.755   4.640   1.923 -1.0903  0.0666  2.1599
  847MOL0     H14340   8.835   4.789   1.942 -1.6536  1.5185  1.3063
  847MOL0     H14341   8.448   4.877   2.102 -0.5529 -1.1492  1.7128
  847MOL0     H14342   9.208   4.619   1.794 -0.1922 -1.4225 -0.8129
  847MOL0     H14343   9.392   4.678   1.925  0.6200 -1.2634 -0.6659
  847MOL0     H14344   9.541   4.735   1.849 -0.1150 -4.9715  2.4696
  847MOL0     H14345   9.411   4.849   1.906  2.8865  0.2809 -0.4782
  848MOL0     O14346   4.527   5.150   5.054  0.1206 -0.0459 -0.0400
  848MOL0     C14347   4.509   5.267   5.025  0.1815 -0.6274 -0.8559
  848MOL0     O14348   4.474   5.365   5.110  0.0156 -0.0427 -1.0988
  848MOL0     C14349   4.477   5.326   5.243  0.0984  0.7001 -0.7127
  848MOL0     C14350   4.602   5.326   5.306  0.5329  0.7911  0.0525
  848MOL0     C14351   4.616   5.274   5.439  0.7825  0.6897  0.3639
  848MOL0     C14352   4.499   5.230   5.506 -0.1329  0.1588 -0.2231
  848MOL0     O14353   4.515   5.176   5.633 -0.1869  0.3054  0.2742
  848MOL0     C14354   4.528   5.037   5.623  0.6949  0.1940  0.0362
  848MOL0     C14355   4.416   4.976   5.700 -0.4362 -1.2125  0.0961
  848MOL0     C14356   4.414   4.818   5.699 -0.5372 -0.5048  1.2176
  848MOL0     C14357   4.552   4.770   5.745  0.5023 -0.4953 -0.1246
  848MOL0     C14358   4.535   4.612   5.762 -0.0678  0.1951 -0.6794
  848MOL0     C14359   4.566   4.531   5.633 -0.2253 -0.2570  0.3057
  848MOL0     C14360   4.560   4.378   5.654 -0.4413 -0.0123 -0.0212
  848MOL0     C14361   4.448   4.310   5.737 -0.5131 -0.4886  0.1968
  848MOL0     N14362   4.319   4.325   5.653  0.1574 -0.2025 -0.0687
  848MOL0     C14363   4.252   4.443   5.628 -0.1593 -0.5913 -0.9248
  848MOL0     C14364   4.153   4.405   5.546  0.2002  0.5341  0.4198
  848MOL0     C14365   4.058   4.502   5.485 -0.7403 -0.1060  0.2477
  848MOL0     C14366   3.925   4.437   5.445  0.8834  1.0301 -0.2346
  848MOL0     C14367   3.838   4.409   5.568 -1.0845 -0.4363 -0.3846
  848MOL0     C14368   3.714   4.326   5.538 -0.1729  0.0346 -0.6986
  848MOL0     O14369   3.628   4.401   5.443  0.2135  0.6379 -0.2888
  848MOL0     C14370   3.545   4.317   5.370  0.0536  0.0666 -0.2863
  848MOL0     C14371   3.421   4.277   5.422 -0.2739  0.6177  0.7778
  848MOL0     C14372   3.336   4.194   5.349  0.4516  0.8827  0.3766
  848MOL0     C14373   3.381   4.128   5.230 -0.5091 -0.1671  0.0853
  848MOL0     C14374   3.303   4.033   5.160  0.4989  0.0644 -0.1927
  848MOL0     O14375   3.204   3.989   5.240  0.2581 -0.0772  0.3071
  848MOL0     C14376   3.150   3.865   5.225 -0.0334 -0.1104 -0.4236
  848MOL0     C14377   3.025   3.864   5.163  0.4815 -0.0161 -0.2480
  848MOL0     C14378   2.967   3.735   5.155 -0.2357  0.6600  0.2474
  848MOL0     C14379   3.042   3.614   5.192  0.2213 -0.8838 -0.4869
  848MOL0     O14380   2.997   3.482   5.194 -0.2398 -0.5460  0.9634
  848MOL0     C14381   2.900   3.443   5.084  1.1888  0.7333  0.3045
  848MOL0     C14382   2.775   3.375   5.154  0.2756 -0.5616  0.2845
  848MOL0     C14383   2.713   3.475   5.246  0.3434  0.0256 -0.1635
  848MOL0     C14384   2.584   3.407   5.316 -0.0524 -1.2419 -0.3921
  848MOL0     C14385   2.512   3.520   5.385 -0.4961  0.4505 -0.2708
  848MOL0     C14386   2.378   3.474   5.448 -0.5358 -0.4383  0.2260
  848MOL0     C14387   2.315   3.583   5.536  0.4304 -0.2480  0.1224
  848MOL0     C14388   2.284   3.706   5.466  0.0013 -0.2669  0.0009
  848MOL0    Cl14389   2.246   3.686   5.300 -0.5309 -0.1477  0.0830
  848MOL0     C14390   3.170   3.626   5.245 -0.8165 -0.4150 -0.5928
  848MOL0     C14391   3.231   3.759   5.250  0.8811  0.0164  0.1065
  848MOL0     O14392   3.320   3.988   5.045 -0.4245  0.0921  0.0194
  848MOL0     C14393   3.511   4.159   5.187 -0.6747 -1.3325  0.0080
  848MOL0     C14394   3.593   4.248   5.257  0.5741 -0.1041 -0.2584
  848MOL0     N14395   4.163   4.273   5.523  0.2653 -0.6869  0.2628
  848MOL0     N14396   4.266   4.219   5.582  0.3505  0.2243 -0.5283
  848MOL0     C14397   4.371   5.232   5.444  0.3286 -0.3506 -0.2363
  848MOL0     C14398   4.359   5.280   5.312  0.6852 -1.0506  0.3869
  848MOL0     C14399   4.503   5.303   4.884 -0.2126 -0.7451  0.5005
  848MOL0     C14400   4.433   5.422   4.848  0.0835 -0.9940 -0.6383
  848MOL0     C14401   4.433   5.470   4.715  1.1491  0.5771 -0.6478
  848MOL0     C14402   4.487   5.393   4.615 -0.1557  0.2845  0.4283
  848MOL0     O14403   4.480   5.451   4.492  0.0409  0.2027 -0.3426
  848MOL0     C14404   4.489   5.362   4.384 -0.0123  0.1527  0.6901
  848MOL0     C14405   4.450   5.414   4.239  0.7752 -0.1536 -1.3529
  848MOL0     C14406   4.314   5.469   4.240  0.5502  0.2427  0.4464
  848MOL0     C14407   4.209   5.373   4.298 -0.0769  0.6269  1.2176
  848MOL0     C14408   4.202   5.255   4.199  0.6675  0.6249 -0.0920
  848MOL0     C14409   4.178   5.171   4.111 -0.2017  0.8299 -0.0604
  848MOL0     C14410   4.556   5.274   4.650 -0.5270  0.2731  0.3157
  848MOL0     C14411   4.574   5.231   4.785  0.1301  1.0547  0.5087
  848MOL0     C14412   4.675   5.118   4.819 -0.3488  0.5382 -0.1792
  848MOL0     H14413   4.691   5.349   5.249 -1.1559  4.0130 -1.5873
  848MOL0     H14414   4.711   5.285   5.490  1.4454  2.8182 -1.1607
  848MOL0     H14415   4.510   4.991   5.525 -1.6219  1.0280  0.0032
  848MOL0     H14416   4.630   5.017   5.657  0.8339  2.0905  0.8636
  848MOL0     H14417   4.320   5.013   5.665  1.0542  1.4676 -1.4555
  848MOL0     H14418   4.425   5.012   5.802 -2.5728 -3.1213  1.0539
  848MOL0     H14419   4.391   4.784   5.598 -2.4315  2.2804  0.6057
  848MOL0     H14420   4.327   4.805   5.764 -1.7420 -0.7409 -0.3819
  848MOL0     H14421   4.622   4.792   5.663  0.3481 -0.6693 -0.3040
  848MOL0     H14422   4.588   4.820   5.835 -0.6254 -0.3362  0.2446
  848MOL0     H14423   4.603   4.584   5.844 -3.4424 -0.8141  2.0206
  848MOL0     H14424   4.438   4.583   5.803  0.8434  1.3551  2.6497
  848MOL0     H14425   4.502   4.567   5.552  0.0001 -2.5855 -0.9801
  848MOL0     H14426   4.661   4.560   5.589 -1.8904  0.5867 -3.0166
  848MOL0     H14427   4.661   4.346   5.682 -1.0805 -0.3077  2.1235
  848MOL0     H14428   4.562   4.329   5.556  1.0783  2.4814 -1.3337
  848MOL0     H14429   4.473   4.204   5.748  2.7339  0.1589  0.2404
  848MOL0     H14430   4.428   4.357   5.833 -0.6099 -0.0860 -0.0155
  848MOL0     H14431   4.276   4.544   5.659  1.1348 -0.8529 -1.0345
  848MOL0     H14432   4.036   4.576   5.563  0.2666 -2.1601  2.6070
  848MOL0     H14433   4.098   4.555   5.398 -3.8710  2.0537 -0.0624
  848MOL0     H14434   3.855   4.489   5.379 -3.3582 -3.7763 -0.1274
  848MOL0     H14435   3.945   4.349   5.385  0.1546  1.3080 -0.9059
  848MOL0     H14436   3.800   4.494   5.624 -1.3003 -1.8313  1.7144
  848MOL0     H14437   3.891   4.351   5.644 -1.0323  1.0413  0.7505
  848MOL0     H14438   3.651   4.295   5.622 -0.8329 -0.4383 -1.3594
  848MOL0     H14439   3.744   4.231   5.492  2.7602  0.0545  0.9160
  848MOL0     H14440   3.392   4.328   5.514  1.6791  0.3734  1.5784
  848MOL0     H14441   3.239   4.175   5.394  1.4539  2.2220  3.3278
  848MOL0     H14442   2.963   3.948   5.136 -0.9050 -1.0246 -0.3304
  848MOL0     H14443   2.867   3.723   5.117 -1.2743 -0.2469  2.9943
  848MOL0     H14444   2.863   3.530   5.030  0.6451  1.0486  1.1622
  848MOL0     H14445   2.938   3.362   5.021  1.2439  0.0915  1.1409
  848MOL0     H14446   2.696   3.347   5.083 -0.9552 -0.0681  1.4074
  848MOL0     H14447   2.817   3.298   5.219  1.9662 -0.0364 -0.1336
  848MOL0     H14448   2.790   3.500   5.320  2.5553  0.1175 -2.3736
  848MOL0     H14449   2.701   3.571   5.194 -2.1912 -0.9188 -1.4694
  848MOL0     H14450   2.609   3.319   5.377 -4.4948 -1.7004  1.0940
  848MOL0     H14451   2.506   3.372   5.248 -1.5730  0.5471  0.3299
  848MOL0     H14452   2.492   3.601   5.314 -2.9824  0.3006  0.1775
  848MOL0     H14453   2.583   3.562   5.457  1.5224 -3.0501 -0.0045
  848MOL0     H14454   2.303   3.458   5.370 -1.1746  1.6674  0.3431
  848MOL0     H14455   2.382   3.379   5.502  0.1461  0.7021  2.3065
  848MOL0     H14456   2.394   3.596   5.611  1.3921  0.2813 -0.9618
  848MOL0     H14457   2.223   3.542   5.580  1.5399 -2.5139  0.4774
  848MOL0     H14458   2.199   3.756   5.514  0.0243 -1.4363  1.3185
  848MOL0     H14459   2.367   3.778   5.476 -1.0009  0.9476 -0.1142
  848MOL0     H14460   3.213   3.531   5.272 -1.2537 -0.1272  1.2593
  848MOL0     H14461   3.331   3.768   5.289 -0.3565  0.5498  3.4466
  848MOL0     H14462   3.537   4.129   5.086  0.0855 -0.7233  0.0180
  848MOL0     H14463   3.695   4.267   5.224  1.0185 -1.2424  0.4216
  848MOL0     H14464   4.295   5.192   5.511  1.2552 -0.1476  0.9641
  848MOL0     H14465   4.260   5.277   5.266  1.8418 -1.0595 -2.2681
  848MOL0     H14466   4.379   5.485   4.918 -2.7251 -2.0035 -1.7595
  848MOL0     H14467   4.376   5.556   4.682 -0.9963 -0.8369 -0.8240
  848MOL0     H14468   4.414   5.288   4.413 -1.8097  1.7429  0.2467
  848MOL0     H14469   4.587   5.313   4.382  0.6481  1.3797 -2.4643
  848MOL0     H14470   4.455   5.326   4.174  1.0867 -0.9964 -0.2180
  848MOL0     H14471   4.533   5.473   4.200 -1.0601  2.1784 -1.9731
  848MOL0     H14472   4.287   5.502   4.139  0.1480 -1.1064  0.0889
  848MOL0     H14473   4.311   5.559   4.303  0.8670 -0.5146  1.5659
  848MOL0     H14474   4.231   5.362   4.404 -0.8221  3.2178  1.7178
  848MOL0     H14475   4.107   5.412   4.294 -0.5116 -0.5094 -2.5518
  848MOL0     H14476   4.160   5.101   4.032 -1.9684  1.9972 -0.7392
  848MOL0     H14477   4.595   5.199   4.582 -2.0649 -0.5815  0.3447
  848MOL0     H14478   4.745   5.163   4.889  3.0060 -0.1098 -2.7918
  848MOL0     H14479   4.633   5.021   4.848  0.7840  0.4777  1.4136
  848MOL0     H14480   4.747   5.096   4.739  2.4020  0.7734  2.0582
  849MOL0     O14481   9.990   5.798   1.953 -0.2189 -0.4343 -0.3401
  849MOL0     C14482   9.960   5.883   1.867 -0.0592  0.0409 -0.4787
  849MOL0     O14483   9.976   5.876   1.727 -0.1341 -0.5707 -0.0432
  849MOL0     C14484  10.040   5.774   1.669  0.4278  0.7879 -0.1456
  849MOL0     C14485   9.983   5.643   1.656  1.1021  0.0822 -0.0906
  849MOL0     C14486  10.061   5.538   1.610  0.4105 -0.3047 -0.4061
  849MOL0     C14487  10.193   5.556   1.579  0.0426  0.1022 -0.8965
  849MOL0     O14488  10.286   5.459   1.539  0.4939  0.9703 -0.4510
  849MOL0     C14489  10.277   5.328   1.589  0.3710  0.7567  0.5132
  849MOL0     C14490  10.233   5.228   1.481 -0.5625  0.3762  0.1398
  849MOL0     C14491  10.337   5.205   1.364  0.7148 -0.5309 -0.3248
  849MOL0     C14492  10.327   5.320   1.252 -0.0455  0.2825 -0.0603
  849MOL0     C14493  10.412   5.274   1.139 -0.4873  0.5458  0.0393
  849MOL0     C14494  10.407   5.388   1.031  0.6944 -0.5504  0.2931
  849MOL0     C14495  10.476   5.352   0.905  0.0079 -0.2649 -0.5350
  849MOL0     C14496  10.614   5.295   0.926  0.1997 -0.3649 -1.2798
  849MOL0     N14497  10.686   5.309   0.799  0.4488 -1.1637  0.8530
  849MOL0     C14498  10.694   5.236   0.689  0.0014  0.9430 -0.3598
  849MOL0     C14499  10.787   5.297   0.614 -0.9840  0.5665 -0.6208
  849MOL0     C14500  10.836   5.256   0.480  0.6901 -0.9491  0.0895
  849MOL0     C14501  10.955   5.160   0.500  0.4185 -0.7956  0.1492
  849MOL0     C14502  11.083   5.237   0.471 -0.1040  0.4812  0.3501
  849MOL0     C14503  11.200   5.140   0.431  0.6671  0.5389 -0.1054
  849MOL0     O14504  11.311   5.209   0.374  0.1463  0.5547 -0.8350
  849MOL0     C14505  11.302   5.263   0.248  0.5059  0.5053  0.6308
  849MOL0     C14506  11.194   5.235   0.157 -0.0639 -1.0005 -0.0531
  849MOL0     C14507  11.189   5.303   0.031 -0.4553 -0.2432  0.1256
  849MOL0     C14508  11.292   5.389  -0.005 -0.6668  0.4237  0.1081
  849MOL0     C14509  11.313   5.440  -0.141  0.2529  0.2417 -1.3723
  849MOL0     O14510  11.443   5.474  -0.171 -0.0708 -0.9516 -0.2241
  849MOL0     C14511  11.476   5.554  -0.276  0.2015  0.2744  0.0077
  849MOL0     C14512  11.570   5.496  -0.359 -0.3983  0.6258  0.2107
  849MOL0     C14513  11.623   5.559  -0.469  0.1632  0.4569 -0.3821
  849MOL0     C14514  11.583   5.690  -0.498 -0.2615 -0.3031  0.3897
  849MOL0     O14515  11.634   5.769  -0.595 -0.7188  1.1275 -0.1256
  849MOL0     C14516  11.760   5.737  -0.663  0.5765  0.0281  0.9348
  849MOL0     C14517  11.799   5.855  -0.739  0.2469 -0.6991 -0.4840
  849MOL0     C14518  11.948   5.858  -0.785 -1.1922  0.9723  0.6785
  849MOL0     C14519  11.986   5.788  -0.918  0.8202 -0.1080 -0.4345
  849MOL0     C14520  11.945   5.863  -1.044  0.0568 -0.1174  0.0730
  849MOL0     C14521  11.979   5.766  -1.160  0.4068  0.7323  0.0463
  849MOL0     C14522  11.932   5.822  -1.296 -0.8443 -0.1530 -0.1476
  849MOL0     C14523  11.787   5.870  -1.294 -0.2847 -0.3053 -0.3310
  849MOL0    Cl14524  11.717   5.881  -1.464  0.3320  0.2580 -0.2349
  849MOL0     C14525  11.474   5.750  -0.428  0.1530 -0.6962 -0.3544
  849MOL0     C14526  11.418   5.679  -0.321 -0.9052  0.2256  0.3017
  849MOL0     O14527  11.217   5.453  -0.220  0.0794  0.2348 -0.9510
  849MOL0     C14528  11.395   5.406   0.088 -0.9261  0.1225  0.3129
  849MOL0     C14529  11.407   5.338   0.209 -0.1093 -1.4410  0.3078
  849MOL0     N14530  10.822   5.419   0.669 -0.0629  0.0505 -1.0268
  849MOL0     N14531  10.748   5.428   0.779  0.4657 -0.5563 -0.0736
  849MOL0     C14532  10.239   5.687   1.577 -0.7439 -0.1466  0.3443
  849MOL0     C14533  10.162   5.800   1.620  0.3655  0.3098 -0.0373
  849MOL0     C14534   9.900   6.004   1.925  0.2288  0.3610 -0.1397
  849MOL0     C14535   9.808   6.068   1.840 -0.3622  0.4687  0.4101
  849MOL0     C14536   9.731   6.178   1.871  0.7762  0.1307  0.5432
  849MOL0     C14537   9.743   6.236   1.994  0.4793  0.0362  0.2110
  849MOL0     O14538   9.676   6.356   2.013 -0.3119 -0.1105 -0.4065
  849MOL0     C14539   9.624   6.389   2.145 -0.5404  0.2298 -0.0826
  849MOL0     C14540   9.468   6.354   2.136 -0.2907 -0.0481 -0.5710
  849MOL0     C14541   9.399   6.329   2.264  0.7906  0.3816 -0.6116
  849MOL0     C14542   9.253   6.309   2.247 -1.0113 -0.5219 -0.4892
  849MOL0     C14543   9.182   6.435   2.218  0.0252  0.0564  1.1348
  849MOL0     C14544   9.112   6.532   2.195  0.7217 -0.6080  0.2988
  849MOL0     C14545   9.833   6.175   2.090  0.1103 -0.4880  0.9017
  849MOL0     C14546   9.911   6.062   2.052  0.5531  0.5142 -0.5184
  849MOL0     C14547   9.979   5.995   2.169  0.2291 -0.2701  0.6047
  849MOL0     H14548   9.884   5.622   1.696  0.9002 -2.6661 -1.7923
  849MOL0     H14549  10.011   5.443   1.593  1.9009 -1.0234 -0.9891
  849MOL0     H14550  10.370   5.286   1.628  0.3431 -1.0322 -1.1532
  849MOL0     H14551  10.194   5.328   1.660 -1.7874 -1.1720 -1.7985
  849MOL0     H14552  10.138   5.273   1.450 -1.7121 -0.4020  2.2947
  849MOL0     H14553  10.213   5.135   1.536  1.5870 -0.6834 -0.7684
  849MOL0     H14554  10.318   5.105   1.325 -1.3849 -1.0288  1.7775
  849MOL0     H14555  10.437   5.210   1.408  0.8209 -1.3044 -0.4682
  849MOL0     H14556  10.221   5.332   1.228 -0.8019 -0.1290  2.6712
  849MOL0     H14557  10.373   5.411   1.292  0.5658  0.4265 -1.0468
  849MOL0     H14558  10.516   5.255   1.165 -0.9746 -2.0301  0.3810
  849MOL0     H14559  10.385   5.175   1.101  1.8579 -0.8380  1.7058
  849MOL0     H14560  10.305   5.417   1.004  0.8859  0.0206  0.1667
  849MOL0     H14561  10.465   5.471   1.074 -0.8796  1.4375 -1.2110
  849MOL0     H14562  10.478   5.448   0.852 -3.3021 -0.5320 -1.3898
  849MOL0     H14563  10.425   5.276   0.844  1.6796 -1.4661 -0.4853
  849MOL0     H14564  10.655   5.353   1.009 -3.7108  2.5915 -1.1213
  849MOL0     H14565  10.603   5.188   0.947  0.6402 -0.0225  0.9146
  849MOL0     H14566  10.652   5.140   0.663  0.0787  0.2682  1.7898
  849MOL0     H14567  10.748   5.206   0.439 -0.1467  0.7444 -0.2644
  849MOL0     H14568  10.855   5.343   0.416  0.9248  1.8613  3.6605
  849MOL0     H14569  10.956   5.123   0.603  3.0253 -0.3851  0.3395
  849MOL0     H14570  10.948   5.079   0.427  1.1064 -1.2803  0.6091
  849MOL0     H14571  11.113   5.297   0.557  0.2259 -3.0905  2.9625
  849MOL0     H14572  11.078   5.298   0.380  0.6553  0.9815  0.6373
  849MOL0     H14573  11.171   5.057   0.366  3.8330  1.1642 -2.6100
  849MOL0     H14574  11.234   5.092   0.523 -0.6383  2.1276  1.2782
  849MOL0     H14575  11.102   5.182   0.178 -0.3850 -0.7281 -0.7429
  849MOL0     H14576  11.098   5.285  -0.026  0.0942 -1.0677 -0.5103
  849MOL0     H14577  11.602   5.396  -0.330 -1.7101  0.5399  1.4681
  849MOL0     H14578  11.707   5.508  -0.515  2.4560  0.1720  3.6628
  849MOL0     H14579  11.842   5.711  -0.596  1.8112 -1.3091 -0.9999
  849MOL0     H14580  11.742   5.652  -0.729 -3.3806 -2.0091  4.1798
  849MOL0     H14581  11.730   5.863  -0.823 -0.8865 -1.3213  0.3652
  849MOL0     H14582  11.784   5.934  -0.665 -0.0352 -2.3699  1.3153
  849MOL0     H14583  11.978   5.963  -0.782  0.2531  0.5807  0.8310
  849MOL0     H14584  12.009   5.818  -0.703 -0.3179  2.5757  0.8460
  849MOL0     H14585  11.944   5.687  -0.910 -3.1549  1.4245 -0.1477
  849MOL0     H14586  12.096   5.781  -0.919  0.8282 -0.7464 -3.3255
  849MOL0     H14587  12.008   5.953  -1.046  0.9284 -0.6560  1.4870
  849MOL0     H14588  11.837   5.879  -1.044  0.2268  2.5916  4.1266
  849MOL0     H14589  12.084   5.737  -1.163 -0.3751 -2.5539  0.9259
  849MOL0     H14590  11.921   5.673  -1.151  0.7783  0.1942 -2.4187
  849MOL0     H14591  11.949   5.755  -1.381 -3.0518 -0.5268 -0.3671
  849MOL0     H14592  11.989   5.912  -1.322 -2.5675  0.6521 -1.3926
  849MOL0     H14593  11.716   5.805  -1.242 -0.9692  2.1112  1.9257
  849MOL0     H14594  11.776   5.967  -1.245  0.6520  0.1931 -1.0453
  849MOL0     H14595  11.446   5.849  -0.462  2.0196 -0.3720 -1.0108
  849MOL0     H14596  11.343   5.733  -0.264 -1.6948  0.6253 -1.0707
  849MOL0     H14597  11.471   5.481   0.068 -3.6669  2.5515 -1.6295
  849MOL0     H14598  11.492   5.348   0.275 -0.7178  0.0989  0.9053
  849MOL0     H14599  10.343   5.699   1.549 -0.7841  1.5352  0.8366
  849MOL0     H14600  10.201   5.901   1.609 -1.8868  1.2773  0.2598
  849MOL0     H14601   9.787   6.035   1.739 -1.2305  2.1546  0.0188
  849MOL0     H14602   9.664   6.227   1.800 -0.0866  1.2494  2.0775
  849MOL0     H14603   9.647   6.493   2.171  0.0521  0.0204  0.2550
  849MOL0     H14604   9.665   6.318   2.217 -2.5624  0.8041  1.7294
  849MOL0     H14605   9.444   6.266   2.077 -1.1453 -1.2536  1.4749
  849MOL0     H14606   9.421   6.433   2.076 -2.3165 -1.6720 -1.2272
  849MOL0     H14607   9.424   6.418   2.323 -3.6193  1.9869 -0.7807
  849MOL0     H14608   9.450   6.249   2.318 -0.3630  0.2484  0.3148
  849MOL0     H14609   9.230   6.244   2.162  1.6469  2.0755 -3.4272
  849MOL0     H14610   9.211   6.260   2.335 -0.7051  0.8221  0.4249
  849MOL0     H14611   9.050   6.607   2.152  2.0391 -0.3115 -1.1690
  849MOL0     H14612   9.851   6.222   2.187  1.7895  3.1630 -0.9407
  849MOL0     H14613   9.916   5.917   2.212  0.8002 -1.0235  0.0948
  849MOL0     H14614  10.077   5.953   2.147 -1.0602 -2.3359 -1.6281
  849MOL0     H14615  10.006   6.073   2.241  0.4138  0.2259  0.0092
  850MOL0     O14616   3.912   4.662   0.814  0.2316 -0.1332  0.5674
  850MOL0     C14617   3.803   4.653   0.760 -0.3762 -0.1841 -0.4891
  850MOL0     O14618   3.721   4.751   0.748  0.7556 -0.6636  0.4118
  850MOL0     C14619   3.770   4.878   0.779  0.0988 -0.0597 -0.4889
  850MOL0     C14620   3.884   4.936   0.703  1.2873  0.7651  0.0015
  850MOL0     C14621   3.921   5.069   0.720 -0.9988  0.1603  0.6925
  850MOL0     C14622   3.858   5.151   0.811  0.3617  0.7635  0.1405
  850MOL0     O14623   3.896   5.278   0.838  0.9896 -0.0876  0.6705
  850MOL0     C14624   4.031   5.320   0.816 -0.1809  0.2710 -0.0035
  850MOL0     C14625   4.034   5.449   0.894 -0.0490  0.3426  0.3002
  850MOL0     C14626   4.178   5.467   0.940  0.1287  0.2286  0.0689
  850MOL0     C14627   4.187   5.604   0.986 -0.0401 -0.9076 -0.0721
  850MOL0     C14628   4.324   5.655   1.019  0.1201 -1.2641 -0.0343
  850MOL0     C14629   4.330   5.805   1.026  0.6913  0.0982  0.2235
  850MOL0     C14630   4.467   5.859   1.066  0.0191  0.0349 -0.5008
  850MOL0     C14631   4.505   6.008   1.038  0.8545  0.3161  0.0154
  850MOL0     N14632   4.396   6.110   1.053 -0.3619  0.2005 -0.7402
  850MOL0     C14633   4.320   6.122   1.160  0.3209 -0.7020  0.5551
  850MOL0     C14634   4.238   6.228   1.133 -0.6338  0.8024 -0.9832
  850MOL0     C14635   4.135   6.286   1.222 -0.5694  0.3293  0.1166
  850MOL0     C14636   4.175   6.373   1.341  0.9549 -0.1374 -0.3192
  850MOL0     C14637   4.230   6.513   1.312 -0.4955  0.8156  0.3049
  850MOL0     C14638   4.376   6.533   1.263 -1.0451  0.0226 -0.3893
  850MOL0     O14639   4.471   6.463   1.347 -0.0009  0.4155 -0.2579
  850MOL0     C14640   4.585   6.530   1.395  0.3662  0.2916  0.3025
  850MOL0     C14641   4.680   6.445   1.460  0.4471 -0.9544 -0.3744
  850MOL0     C14642   4.802   6.498   1.512 -0.0448  0.4305  0.4203
  850MOL0     C14643   4.846   6.634   1.483  0.2443  0.7148 -0.7791
  850MOL0     C14644   4.977   6.693   1.528 -0.5290  0.5855 -0.0936
  850MOL0     O14645   4.960   6.827   1.554 -0.6993 -0.7096 -0.1389
  850MOL0     C14646   5.043   6.918   1.607 -1.3316 -0.2253  0.8987
  850MOL0     C14647   5.179   6.893   1.607 -0.2726 -0.1870 -0.1754
  850MOL0     C14648   5.246   6.945   1.718 -0.4632  0.2667  0.6752
  850MOL0     C14649   5.193   7.051   1.790  0.3212  0.1539 -0.2848
  850MOL0     O14650   5.259   7.112   1.891 -0.0850  0.6828  0.2958
  850MOL0     C14651   5.253   7.033   2.014 -0.5307  0.0741  0.2868
  850MOL0     C14652   5.233   7.119   2.139  0.4791 -0.1514 -0.4264
  850MOL0     C14653   5.209   7.014   2.249 -0.1269  0.1880 -0.4905
  850MOL0     C14654   5.195   7.076   2.379 -0.3767  0.3246 -0.7867
  850MOL0     C14655   5.060   7.116   2.432 -0.5439 -0.0923 -0.2101
  850MOL0     C14656   5.060   7.212   2.556  0.4032  0.4558 -0.2685
  850MOL0     C14657   4.925   7.244   2.619 -0.2945 -0.1269 -0.5683
  850MOL0     C14658   4.811   7.270   2.513 -0.3214  0.4603  0.0065
  850MOL0    Cl14659   4.733   7.118   2.448  0.1203 -0.0084  0.5380
  850MOL0     C14660   5.072   7.104   1.764  0.4259  0.0038  0.1316
  850MOL0     C14661   4.990   7.030   1.685  0.3508  0.5909 -0.7223
  850MOL0     O14662   5.082   6.632   1.544  0.1215  0.3132  0.6173
  850MOL0     C14663   4.749   6.709   1.416  0.3780 -0.2817 -0.6903
  850MOL0     C14664   4.617   6.668   1.383  0.0010 -0.5394  0.4191
  850MOL0     N14665   4.272   6.287   1.020 -0.2777  0.3624  0.1044
  850MOL0     N14666   4.376   6.223   0.974  0.1302 -0.1311  1.0180
  850MOL0     C14667   3.761   5.096   0.896  0.8270 -0.8507  0.3203
  850MOL0     C14668   3.720   4.958   0.878  0.0341 -0.5657 -0.9379
  850MOL0     C14669   3.750   4.514   0.719  0.8100  0.1930 -0.4047
  850MOL0     C14670   3.634   4.523   0.636  0.2598  0.8939  0.2615
  850MOL0     C14671   3.576   4.406   0.592  0.6363  0.1247 -0.2690
  850MOL0     C14672   3.634   4.280   0.618  0.2326 -0.1850  0.2078
  850MOL0     O14673   3.578   4.157   0.575 -0.0623 -0.5573 -0.3672
  850MOL0     C14674   3.467   4.140   0.490 -0.0661 -0.7410  0.0070
  850MOL0     C14675   3.445   3.991   0.470  1.2739 -0.2725 -0.0230
  850MOL0     C14676   3.546   3.915   0.389  0.0575 -0.5804  0.3513
  850MOL0     C14677   3.544   3.946   0.240  0.0870 -0.4367 -0.4218
  850MOL0     C14678   3.635   3.847   0.178 -0.5627 -1.2447  0.4439
  850MOL0     C14679   3.710   3.784   0.110 -0.2158 -0.1991 -0.5645
  850MOL0     C14680   3.750   4.271   0.705  0.3974  0.8715 -0.1559
  850MOL0     C14681   3.799   4.388   0.755  0.4997 -0.1108 -0.3770
  850MOL0     C14682   3.910   4.386   0.846 -0.0017  0.0074 -0.1342
  850MOL0     H14683   3.925   4.864   0.634  0.2356  1.1052 -1.0040
  850MOL0     H14684   3.999   5.118   0.663 -1.0656  0.3411  0.7563
  850MOL0     H14685   4.101   5.254   0.867  0.4336  1.1109  0.2575
  850MOL0     H14686   4.060   5.346   0.714 -1.0949  2.3262  0.2223
  850MOL0     H14687   3.972   5.437   0.983  0.5526 -3.7675  0.3569
  850MOL0     H14688   4.013   5.540   0.837 -0.2974  1.4395  2.0777
  850MOL0     H14689   4.251   5.447   0.861  0.4630  0.7994  0.2328
  850MOL0     H14690   4.196   5.393   1.018  4.3517  0.0452 -0.8469
  850MOL0     H14691   4.149   5.664   0.903  1.6317 -1.1053 -1.0280
  850MOL0     H14692   4.121   5.609   1.074  0.9202 -3.1071  0.8390
  850MOL0     H14693   4.363   5.622   1.115  1.3569  3.2285  1.2607
  850MOL0     H14694   4.394   5.616   0.945 -0.3339  1.5743 -2.1684
  850MOL0     H14695   4.312   5.836   0.923 -2.6558  1.2496  1.0196
  850MOL0     H14696   4.259   5.845   1.100  0.0327 -0.9308  0.1736
  850MOL0     H14697   4.539   5.793   1.019 -1.8931 -1.7162 -1.1237
  850MOL0     H14698   4.468   5.844   1.174  2.9358  1.9379 -0.1532
  850MOL0     H14699   4.596   6.041   1.089  0.1299  1.2129  0.7418
  850MOL0     H14700   4.534   6.024   0.933 -0.9566  2.4029 -0.2306
  850MOL0     H14701   4.311   6.050   1.241 -1.8427  2.2145  3.1345
  850MOL0     H14702   4.064   6.348   1.167 -2.5109 -0.5126  1.5429
  850MOL0     H14703   4.093   6.199   1.274  1.0014 -0.2670  0.4343
  850MOL0     H14704   4.084   6.385   1.401  0.6329 -0.5783 -0.7170
  850MOL0     H14705   4.246   6.325   1.409  1.8661  1.6301  0.0395
  850MOL0     H14706   4.216   6.573   1.402  1.5991 -0.0649  1.2687
  850MOL0     H14707   4.169   6.563   1.236  2.7172  2.3189 -1.4574
  850MOL0     H14708   4.399   6.640   1.269 -3.8143  0.7190 -0.8904
  850MOL0     H14709   4.390   6.488   1.164 -2.2787 -1.2791 -0.0116
  850MOL0     H14710   4.652   6.341   1.475 -1.9863 -0.4875 -1.1769
  850MOL0     H14711   4.857   6.424   1.570 -0.2123 -2.0893 -2.3773
  850MOL0     H14712   5.235   6.817   1.553  0.8867 -0.6931  1.6728
  850MOL0     H14713   5.349   6.912   1.730 -0.0794  1.3336  0.4303
  850MOL0     H14714   5.169   6.962   2.016  1.1366 -1.9776  1.1481
  850MOL0     H14715   5.349   6.980   2.010 -0.3439  0.3875 -3.8807
  850MOL0     H14716   5.322   7.171   2.175  1.4679 -1.2167 -1.2340
  850MOL0     H14717   5.153   7.193   2.125  1.0884 -0.0617 -5.1173
  850MOL0     H14718   5.116   6.955   2.241 -0.4223 -0.0972  3.1468
  850MOL0     H14719   5.308   6.968   2.256  0.9119  1.9809 -2.4766
  850MOL0     H14720   5.254   7.168   2.386 -2.5237  1.7267  0.0098
  850MOL0     H14721   5.244   7.016   2.456 -0.9512 -0.9940 -1.4150
  850MOL0     H14722   4.999   7.036   2.475  1.3804 -1.0241  0.9223
  850MOL0     H14723   4.997   7.159   2.353 -0.3028 -0.5682 -0.6714
  850MOL0     H14724   5.128   7.186   2.637 -1.5970  0.5470  1.5437
  850MOL0     H14725   5.102   7.301   2.510  3.3537 -2.4139 -3.7790
  850MOL0     H14726   4.933   7.338   2.674 -2.3776 -1.1944  1.7771
  850MOL0     H14727   4.891   7.166   2.687  2.5264 -1.8205 -0.9807
  850MOL0     H14728   4.745   7.337   2.567  0.2560  0.6219  0.5277
  850MOL0     H14729   4.869   7.315   2.433  0.2826  1.4342  0.9664
  850MOL0     H14730   5.036   7.195   1.812  2.4125  2.0179 -1.9540
  850MOL0     H14731   4.884   7.043   1.669 -0.8603 -3.9548  1.7928
  850MOL0     H14732   4.753   6.817   1.417 -0.8965 -0.1847 -2.2663
  850MOL0     H14733   4.558   6.743   1.332 -1.2412 -1.4099  0.5485
  850MOL0     H14734   3.712   5.156   0.971 -1.2501 -1.8493 -0.1478
  850MOL0     H14735   3.644   4.916   0.944  0.8664  1.2444  1.3179
  850MOL0     H14736   3.589   4.608   0.587 -0.4416 -1.0855 -2.8363
  850MOL0     H14737   3.497   4.412   0.518  1.3153 -0.6904 -1.0725
  850MOL0     H14738   3.476   4.192   0.394 -0.5625  0.6258  0.6862
  850MOL0     H14739   3.383   4.172   0.552  1.3213  1.5793  0.8050
  850MOL0     H14740   3.360   3.979   0.403  1.3090 -3.6749  0.3940
  850MOL0     H14741   3.417   3.950   0.567 -0.4891  3.4305  1.2235
  850MOL0     H14742   3.497   3.817   0.384  0.3236 -0.6724 -0.6996
  850MOL0     H14743   3.651   3.916   0.421  0.8920  1.3709 -2.1361
  850MOL0     H14744   3.444   3.932   0.199  0.2378 -4.4705  0.1926
  850MOL0     H14745   3.582   4.042   0.203 -1.7901 -0.4093 -2.4274
  850MOL0     H14746   3.793   3.747   0.053 -0.1752  1.0085 -1.3183
  850MOL0     H14747   3.788   4.172   0.725 -2.5173 -0.2111  0.5017
  850MOL0     H14748   3.882   4.455   0.926  0.0670 -0.3100  0.1667
  850MOL0     H14749   3.930   4.287   0.889 -2.5524 -0.1766  0.8424
  850MOL0     H14750   3.994   4.438   0.800 -0.3723  0.1244 -0.6851
  851MOL0     O14751   5.993   4.564   6.539  0.2265 -0.2338  0.0168
  851MOL0     C14752   6.061   4.543   6.640 -0.4384  0.4777 -0.4840
  851MOL0     O14753   6.196   4.499   6.644 -0.0001  0.3905  0.3082
  851MOL0     C14754   6.238   4.468   6.518 -0.6016 -0.7602 -0.7712
  851MOL0     C14755   6.320   4.557   6.444 -0.5012 -0.6714 -0.1896
  851MOL0     C14756   6.386   4.531   6.328  0.3778 -0.0924 -0.3648
  851MOL0     C14757   6.379   4.398   6.286 -0.7747  0.1598  0.1471
  851MOL0     O14758   6.434   4.348   6.160  0.7479  0.1377  0.2315
  851MOL0     C14759   6.400   4.422   6.040 -0.4054 -0.0075 -0.8755
  851MOL0     C14760   6.449   4.339   5.914  0.2640 -0.7068 -0.2483
  851MOL0     C14761   6.379   4.199   5.910  0.1643  0.2996 -0.7070
  851MOL0     C14762   6.460   4.092   5.841  0.5180 -0.4568 -0.1317
  851MOL0     C14763   6.361   3.977   5.822  0.2119 -0.4243 -0.6283
  851MOL0     C14764   6.423   3.859   5.753 -0.0280  0.2571 -1.0825
  851MOL0     C14765   6.322   3.744   5.738  0.1170 -0.1682  0.4030
  851MOL0     C14766   6.395   3.608   5.695 -0.5423 -0.5532  0.4983
  851MOL0     N14767   6.322   3.485   5.711 -0.1906  0.2007  0.4413
  851MOL0     C14768   6.335   3.381   5.619 -0.2260 -0.5859  0.2268
  851MOL0     C14769   6.261   3.284   5.679  0.4761 -0.3825  0.2086
  851MOL0     C14770   6.249   3.141   5.640 -0.4261 -0.5911 -0.3162
  851MOL0     C14771   6.292   3.050   5.758 -0.1820 -1.5195 -0.1667
  851MOL0     C14772   6.289   2.901   5.715  0.9343 -0.2760 -0.2828
  851MOL0     C14773   6.433   2.854   5.674  0.2878 -0.1254  0.2313
  851MOL0     O14774   6.433   2.733   5.599 -0.0674 -0.0442 -0.6266
  851MOL0     C14775   6.422   2.608   5.653 -0.3066  0.4900  0.7521
  851MOL0     C14776   6.399   2.564   5.783  0.5574 -0.2547 -0.7174
  851MOL0     C14777   6.378   2.435   5.812  0.1150  0.6452 -0.1798
  851MOL0     C14778   6.380   2.336   5.714  0.1937  0.5910 -0.1642
  851MOL0     C14779   6.340   2.197   5.752  1.0687 -0.2268 -0.0339
  851MOL0     O14780   6.293   2.128   5.636 -0.0243 -0.1520  0.9099
  851MOL0     C14781   6.276   1.996   5.653 -0.3276 -0.4470 -0.2002
  851MOL0     C14782   6.143   1.955   5.669  0.4672  0.3449 -0.3225
  851MOL0     C14783   6.115   1.815   5.701 -0.8435 -0.8966  0.2862
  851MOL0     C14784   6.219   1.721   5.709  0.0386  0.7653  0.1348
  851MOL0     O14785   6.206   1.587   5.747  0.3614 -0.4596  0.5179
  851MOL0     C14786   6.073   1.532   5.774 -0.5992  0.1438  1.2168
  851MOL0     C14787   6.097   1.393   5.837  0.0125 -0.9795  0.8581
  851MOL0     C14788   6.072   1.292   5.726 -1.0014  0.2486  0.0497
  851MOL0     C14789   6.101   1.152   5.769 -0.7682 -0.1620 -0.5930
  851MOL0     C14790   6.067   1.035   5.675  0.0491  0.0747  0.6150
  851MOL0     C14791   6.085   0.901   5.739 -0.0684  0.6894  0.8255
  851MOL0     C14792   6.083   0.778   5.643  0.6275  0.4024 -0.7764
  851MOL0     C14793   6.059   0.651   5.724  0.7777  0.7097 -0.6544
  851MOL0    Cl14794   6.177   0.646   5.862 -0.2636 -0.4188 -0.3754
  851MOL0     C14795   6.352   1.768   5.689  0.4936  0.5336  0.1905
  851MOL0     C14796   6.378   1.900   5.667 -0.3326 -0.3443  0.5439
  851MOL0     O14797   6.358   2.144   5.863 -0.2349  0.6558 -0.0517
  851MOL0     C14798   6.422   2.373   5.585 -0.3967 -0.0016  1.6511
  851MOL0     C14799   6.435   2.508   5.555 -0.0230 -0.3351 -0.7210
  851MOL0     N14800   6.221   3.323   5.812  0.2363  0.1984  0.1029
  851MOL0     N14801   6.254   3.452   5.822 -0.5179 -0.4013 -0.4778
  851MOL0     C14802   6.301   4.303   6.360 -0.2895 -0.1330 -0.2268
  851MOL0     C14803   6.227   4.336   6.474 -1.1630 -0.4571 -0.2861
  851MOL0     C14804   6.011   4.597   6.771 -0.4987 -0.0655 -1.0239
  851MOL0     C14805   6.099   4.639   6.872  0.5025 -0.8614 -0.7207
  851MOL0     C14806   6.045   4.704   6.987  0.8689 -0.7811  0.4765
  851MOL0     C14807   5.906   4.707   7.011  0.8306 -0.1455 -0.2265
  851MOL0     O14808   5.873   4.754   7.139  0.6933 -0.0417  0.3142
  851MOL0     C14809   5.761   4.840   7.155  0.8583 -0.1008  0.2922
  851MOL0     C14810   5.798   4.986   7.153 -0.1379 -0.5745 -0.5798
  851MOL0     C14811   5.874   5.019   7.281 -0.0479  0.5385 -1.8624
  851MOL0     C14812   5.913   5.167   7.292  0.6695  0.2732 -0.3266
  851MOL0     C14813   6.048   5.197   7.242 -0.0886  0.0339 -0.2074
  851MOL0     C14814   6.150   5.245   7.211 -0.6390  0.6727 -0.4434
  851MOL0     C14815   5.820   4.656   6.914  0.0739  0.0193 -0.4688
  851MOL0     C14816   5.866   4.598   6.797 -0.0595  0.0820  0.6442
  851MOL0     C14817   5.772   4.530   6.709 -0.0658 -0.3475  0.5082
  851MOL0     H14818   6.313   4.658   6.484 -1.8092 -1.4742  1.7627
  851MOL0     H14819   6.458   4.596   6.279  1.3120 -1.4459 -0.8277
  851MOL0     H14820   6.295   4.452   6.034  0.4780  4.2853  1.1439
  851MOL0     H14821   6.468   4.508   6.043  0.1549 -0.4229  2.8435
  851MOL0     H14822   6.556   4.315   5.918 -0.1011 -2.4151  0.5874
  851MOL0     H14823   6.425   4.381   5.817 -0.7958 -1.3874 -0.2931
  851MOL0     H14824   6.281   4.220   5.867 -0.4536  4.4408  2.1803
  851MOL0     H14825   6.354   4.176   6.014  1.0170  3.6120  0.3406
  851MOL0     H14826   6.491   4.119   5.740  0.4381  0.7915  0.1607
  851MOL0     H14827   6.542   4.052   5.902 -0.1277 -0.7016  0.5985
  851MOL0     H14828   6.308   3.958   5.916  2.7006 -1.0627  0.7309
  851MOL0     H14829   6.280   4.008   5.755 -1.7817  0.9027  2.1555
  851MOL0     H14830   6.446   3.886   5.650 -2.3163 -0.2797 -1.7928
  851MOL0     H14831   6.509   3.825   5.812 -0.5118 -0.4010 -0.7332
  851MOL0     H14832   6.238   3.765   5.671  0.0071  0.7829  0.8239
  851MOL0     H14833   6.277   3.739   5.838  1.3191 -0.2717  0.9499
  851MOL0     H14834   6.440   3.616   5.596  2.4073  0.1796  1.7753
  851MOL0     H14835   6.481   3.599   5.763 -0.3866  2.9216  0.9583
  851MOL0     H14836   6.387   3.379   5.524  2.5234  0.4247  1.5842
  851MOL0     H14837   6.147   3.123   5.603  0.2056 -0.7555 -2.0830
  851MOL0     H14838   6.318   3.130   5.555  0.1780  2.4674 -0.3334
  851MOL0     H14839   6.393   3.073   5.792  0.9773  0.8014 -4.4655
  851MOL0     H14840   6.227   3.083   5.840  0.9665 -2.6240  1.2513
  851MOL0     H14841   6.217   2.885   5.633  0.2970 -2.9116  0.6858
  851MOL0     H14842   6.246   2.837   5.792 -1.3702 -0.1063 -1.3179
  851MOL0     H14843   6.509   2.848   5.753  1.1747 -0.8635 -0.6582
  851MOL0     H14844   6.468   2.928   5.602  1.9631 -1.6432 -0.5918
  851MOL0     H14845   6.398   2.640   5.861  4.1173 -0.1531 -0.6109
  851MOL0     H14846   6.350   2.418   5.916 -4.6892  0.4915 -1.2558
  851MOL0     H14847   6.056   2.017   5.653  1.0831  1.3117 -0.0511
  851MOL0     H14848   6.013   1.789   5.728 -0.2894 -2.3197  1.1511
  851MOL0     H14849   6.022   1.595   5.848  1.3311  2.3955  0.7180
  851MOL0     H14850   6.017   1.526   5.681  0.3047  0.3753  0.6483
  851MOL0     H14851   6.201   1.387   5.871  1.2566  0.7629 -2.2361
  851MOL0     H14852   6.035   1.379   5.926 -0.4244  0.2310  0.7724
  851MOL0     H14853   5.965   1.287   5.703 -1.3302 -2.6999  1.7466
  851MOL0     H14854   6.139   1.317   5.643 -2.1994  1.6149 -0.5564
  851MOL0     H14855   6.031   1.129   5.850  0.4819 -0.2751  0.4990
  851MOL0     H14856   6.204   1.130   5.800 -1.2363 -0.4238  0.8594
  851MOL0     H14857   6.138   1.052   5.593 -1.3277  1.6083 -0.3417
  851MOL0     H14858   5.964   1.039   5.638  0.7491  1.0299 -1.3940
  851MOL0     H14859   6.183   0.909   5.788 -0.8574  1.5767  2.3567
  851MOL0     H14860   6.014   0.876   5.819 -1.5770  3.1218  0.3645
  851MOL0     H14861   6.177   0.780   5.587  2.0642  0.9845  1.5253
  851MOL0     H14862   6.023   0.775   5.551  1.7233  0.9246 -1.5326
  851MOL0     H14863   5.962   0.652   5.775  1.8062  0.2042  1.4358
  851MOL0     H14864   6.072   0.561   5.664  2.5107  0.0123  0.6805
  851MOL0     H14865   6.427   1.699   5.728  1.2308 -0.0435 -2.0919
  851MOL0     H14866   6.481   1.932   5.653 -0.8491 -0.0371 -4.0632
  851MOL0     H14867   6.439   2.302   5.505  3.9356 -0.6121  2.8617
  851MOL0     H14868   6.483   2.532   5.460 -0.3344 -2.3456 -1.4398
  851MOL0     H14869   6.296   4.203   6.319 -0.3818 -0.9186  1.6040
  851MOL0     H14870   6.164   4.258   6.513 -0.4084 -1.2499 -0.6272
  851MOL0     H14871   6.207   4.628   6.864  0.3237 -2.7046 -1.0360
  851MOL0     H14872   6.111   4.736   7.067 -0.3843 -2.2842  2.1924
  851MOL0     H14873   5.712   4.821   7.251 -0.0522  0.0926 -0.1261
  851MOL0     H14874   5.686   4.808   7.081 -0.3308 -0.1919  1.4945
  851MOL0     H14875   5.711   5.052   7.153  1.0825  1.0922 -0.8426
  851MOL0     H14876   5.855   5.011   7.064 -3.2620  0.7315 -2.3786
  851MOL0     H14877   5.964   4.956   7.286 -0.4935 -0.4474 -4.5976
  851MOL0     H14878   5.813   4.980   7.363  0.7616  1.7824 -0.6334
  851MOL0     H14879   5.853   5.228   7.224  1.4674  0.6519 -0.7013
  851MOL0     H14880   5.891   5.199   7.394 -1.4389  0.9677 -0.9462
  851MOL0     H14881   6.252   5.256   7.181 -0.2836 -0.3131  0.3251
  851MOL0     H14882   5.716   4.647   6.942  0.2595 -0.3159  0.1283
  851MOL0     H14883   5.670   4.526   6.747  0.3542  0.4214  1.7681
  851MOL0     H14884   5.749   4.572   6.610 -1.8338 -0.1655  0.9693
  851MOL0     H14885   5.808   4.429   6.689 -1.2685 -0.3579 -2.1618
  852MOL0     O14886   0.167   8.127   0.417  0.5068  0.8236 -0.6046
  852MOL0     C14887   0.244   8.110   0.510  1.3562  0.3617  0.3401
  852MOL0     O14888   0.368   8.075   0.492 -0.2945 -0.2946 -0.4592
  852MOL0     C14889   0.423   8.078   0.367 -0.6406  0.6694  0.8487
  852MOL0     C14890   0.494   7.964   0.328 -0.6159  0.2403 -0.3725
  852MOL0     C14891   0.565   7.960   0.198 -0.2040 -0.4839 -0.0493
  852MOL0     C14892   0.546   8.061   0.109 -0.4318 -0.6300 -0.4122
  852MOL0     O14893   0.604   8.059  -0.011 -0.8291  0.3995  0.1585
  852MOL0     C14894   0.688   8.168  -0.033 -0.0266 -0.9500 -0.0948
  852MOL0     C14895   0.825   8.122  -0.092 -0.4724 -0.9583  0.5689
  852MOL0     C14896   0.829   8.049  -0.218  1.0355  0.5476  0.5254
  852MOL0     C14897   0.785   8.129  -0.336  0.2413 -0.0327  0.4165
  852MOL0     C14898   0.822   8.054  -0.469 -0.1700 -0.4809  0.2671
  852MOL0     C14899   0.973   8.042  -0.477 -0.5606  0.3271 -0.5220
  852MOL0     C14900   1.023   7.915  -0.543 -0.0830  0.0687 -1.1417
  852MOL0     C14901   1.006   7.894  -0.693 -0.3601 -0.1788 -0.5104
  852MOL0     N14902   1.021   8.025  -0.768  0.1563  0.5627  0.1605
  852MOL0     C14903   1.134   8.078  -0.815  0.1887  0.0671  0.0100
  852MOL0     C14904   1.099   8.182  -0.891 -0.1788  0.3469 -0.5950
  852MOL0     C14905   1.179   8.285  -0.976 -0.8745  0.3969  0.5369
  852MOL0     C14906   1.248   8.219  -1.102  0.0040 -0.4704  0.2880
  852MOL0     C14907   1.159   8.187  -1.215  0.4077 -0.9188 -0.4862
  852MOL0     C14908   1.081   8.298  -1.271  0.5813 -1.4010  0.2305
  852MOL0     O14909   0.972   8.260  -1.365 -0.7694  0.4013  0.3173
  852MOL0     C14910   0.994   8.176  -1.469  0.8166 -0.4844  0.3104
  852MOL0     C14911   1.068   8.215  -1.578  0.5613 -0.6814 -0.2129
  852MOL0     C14912   1.077   8.143  -1.702  0.0824 -0.2103 -0.4760
  852MOL0     C14913   1.016   8.013  -1.705  0.4214 -0.3401  0.4439
  852MOL0     C14914   1.018   7.919  -1.832 -0.6612  0.4590  0.0550
  852MOL0     O14915   1.001   7.782  -1.812 -0.4480  0.0351 -0.2582
  852MOL0     C14916   1.019   7.686  -1.903  0.6060 -0.8816  0.0040
  852MOL0     C14917   1.038   7.555  -1.845 -0.1947 -0.1237  0.4225
  852MOL0     C14918   1.074   7.442  -1.918  0.7527 -0.0155  1.1950
  852MOL0     C14919   1.074   7.455  -2.058 -0.6034  0.7003  0.3139
  852MOL0     O14920   1.104   7.346  -2.138  0.0826  0.2519 -0.1748
  852MOL0     C14921   1.159   7.376  -2.266 -0.3294 -0.5039  0.9441
  852MOL0     C14922   1.247   7.255  -2.309 -0.6726  0.5543 -0.9905
  852MOL0     C14923   1.149   7.150  -2.359 -0.0399  0.3811 -0.1621
  852MOL0     C14924   1.167   7.006  -2.295  0.5813  0.0039  0.5109
  852MOL0     C14925   1.307   6.944  -2.338  0.5798  0.2882  0.3915
  852MOL0     C14926   1.311   6.800  -2.296  0.9336 -0.4464 -0.5079
  852MOL0     C14927   1.441   6.728  -2.297  0.0388  0.3218  0.5263
  852MOL0     C14928   1.435   6.599  -2.213  0.9835  0.7372 -0.4889
  852MOL0    Cl14929   1.311   6.497  -2.268  0.0977  0.0246  0.3433
  852MOL0     C14930   1.035   7.582  -2.119  0.1610  0.1497  1.2065
  852MOL0     C14931   1.010   7.691  -2.039  0.0522 -0.1622 -0.1359
  852MOL0     O14932   1.058   7.976  -1.930 -0.3682  0.4193  0.6331
  852MOL0     C14933   0.964   7.965  -1.585  0.1697 -0.0629 -0.1105
  852MOL0     C14934   0.941   8.052  -1.480 -1.2779  0.2176 -0.5489
  852MOL0     N14935   0.967   8.198  -0.865 -0.3780 -0.3042 -0.0325
  852MOL0     N14936   0.923   8.113  -0.786 -0.6699 -0.3228  0.0048
  852MOL0     C14937   0.466   8.166   0.150 -0.3832  0.1669  0.2232
  852MOL0     C14938   0.402   8.175   0.271 -0.3198  0.0604  0.8242
  852MOL0     C14939   0.198   8.118   0.652 -0.1082 -0.0697 -0.6669
  852MOL0     C14940   0.275   8.172   0.744 -0.0642  0.1000 -0.3995
  852MOL0     C14941   0.235   8.187   0.876 -0.0246 -0.5691  0.3628
  852MOL0     C14942   0.104   8.147   0.916 -0.1186  0.8234 -0.9938
  852MOL0     O14943   0.049   8.153   1.039 -0.9244  0.1180  0.1321
  852MOL0     C14944   0.144   8.182   1.148 -0.1699  0.1636 -0.8054
  852MOL0     C14945   0.249   8.079   1.202  0.1415  0.2178  0.3505
  852MOL0     C14946   0.363   8.143   1.281  0.4704  0.1604  0.8191
  852MOL0     C14947   0.504   8.076   1.248  1.0203  0.2277 -0.1351
  852MOL0     C14948   0.549   8.087   1.114 -1.0617 -0.0070  1.5220
  852MOL0     C14949   0.592   8.074   0.998 -0.1010  0.4097  0.1983
  852MOL0     C14950   0.021   8.082   0.820  1.2610  0.3654 -0.0936
  852MOL0     C14951   0.071   8.063   0.689  0.0497  0.2340  0.5866
  852MOL0     C14952  -0.003   7.992   0.584 -0.1844  0.3566  0.3546
  852MOL0     H14953   0.511   7.878   0.392 -3.3416 -0.1518 -0.0618
  852MOL0     H14954   0.626   7.878   0.162  2.2635  1.5015 -0.6714
  852MOL0     H14955   0.636   8.246  -0.090 -0.2665 -0.3349  0.9310
  852MOL0     H14956   0.715   8.214   0.062 -1.0758  0.7887 -0.5900
  852MOL0     H14957   0.867   8.064  -0.010  2.9223  2.6797  1.6647
  852MOL0     H14958   0.887   8.211  -0.101 -1.3916 -0.3594 -0.0090
  852MOL0     H14959   0.769   7.958  -0.212  2.8670 -0.7033  0.7713
  852MOL0     H14960   0.929   8.005  -0.227  0.9666  0.8071 -4.9551
  852MOL0     H14961   0.679   8.157  -0.336 -0.1036 -1.0302 -2.1173
  852MOL0     H14962   0.839   8.224  -0.340 -0.0456  0.3463  3.2968
  852MOL0     H14963   0.763   7.963  -0.480 -4.3980  2.2522 -2.3014
  852MOL0     H14964   0.792   8.110  -0.557 -0.7808 -1.3292 -0.0747
  852MOL0     H14965   1.017   8.133  -0.518  1.9553  0.4441  2.0998
  852MOL0     H14966   1.023   8.036  -0.380  2.3459 -2.5364 -1.9902
  852MOL0     H14967   0.976   7.839  -0.481 -0.6041  0.1374 -1.4372
  852MOL0     H14968   1.127   7.912  -0.510 -1.6537 -2.2007  4.7786
  852MOL0     H14969   1.077   7.820  -0.730 -1.9515 -1.8697 -0.3224
  852MOL0     H14970   0.902   7.862  -0.708 -0.7724  0.9263 -0.1625
  852MOL0     H14971   1.236   8.040  -0.806 -0.0519 -0.4298  0.7066
  852MOL0     H14972   1.106   8.360  -1.005 -0.2561  0.7699 -0.0912
  852MOL0     H14973   1.258   8.334  -0.920 -0.1905 -0.7391  0.6095
  852MOL0     H14974   1.320   8.288  -1.144 -0.9404  0.2259 -0.2319
  852MOL0     H14975   1.304   8.128  -1.077  2.2700  0.6672 -0.4356
  852MOL0     H14976   1.080   8.120  -1.179 -0.5070  1.1568  1.5994
  852MOL0     H14977   1.215   8.146  -1.300 -0.8018 -1.0971 -1.2365
  852MOL0     H14978   1.157   8.357  -1.323  0.9621 -2.3722 -0.3501
  852MOL0     H14979   1.028   8.360  -1.199 -0.9987 -1.7688 -0.5483
  852MOL0     H14980   1.124   8.307  -1.570  0.0625 -0.4609  0.9378
  852MOL0     H14981   1.128   8.192  -1.784 -0.6682 -0.7596 -1.2887
  852MOL0     H14982   1.026   7.552  -1.737 -1.7472 -2.9785  0.2669
  852MOL0     H14983   1.094   7.340  -1.888 -2.4376 -1.3479 -0.6768
  852MOL0     H14984   1.088   7.405  -2.344  2.2944 -2.6116 -2.4972
  852MOL0     H14985   1.231   7.458  -2.258  0.9199 -1.2218 -1.7648
  852MOL0     H14986   1.320   7.280  -2.386  1.0225 -0.2798  0.2678
  852MOL0     H14987   1.298   7.218  -2.219 -2.0825  0.3454 -0.2440
  852MOL0     H14988   1.043   7.171  -2.342 -0.4576 -1.0453 -0.8488
  852MOL0     H14989   1.166   7.135  -2.466  1.0456  0.8676 -0.0756
  852MOL0     H14990   1.087   6.950  -2.344  1.2546 -0.5961  0.0848
  852MOL0     H14991   1.146   7.016  -2.188 -1.3268  0.0008  0.1631
  852MOL0     H14992   1.383   6.995  -2.278  0.3283  0.0777  0.8905
  852MOL0     H14993   1.320   6.954  -2.446 -2.8034  0.0929 -0.1347
  852MOL0     H14994   1.261   6.780  -2.201 -2.7955 -1.5413 -2.4715
  852MOL0     H14995   1.252   6.740  -2.366 -1.3090 -0.0793  0.9692
  852MOL0     H14996   1.518   6.794  -2.256 -0.6253  0.1639  2.0944
  852MOL0     H14997   1.480   6.699  -2.395 -0.1538 -3.2044  1.3498
  852MOL0     H14998   1.524   6.536  -2.198  0.1828 -0.4334 -0.4949
  852MOL0     H14999   1.406   6.641  -2.117 -0.2715 -1.3999  0.1307
  852MOL0     H15000   1.011   7.590  -2.225 -0.6857  0.9491  1.4507
  852MOL0     H15001   0.987   7.782  -2.094 -3.1358 -1.4206 -1.1226
  852MOL0     H15002   0.931   7.862  -1.573 -1.4659  0.5027  0.5559
  852MOL0     H15003   0.890   8.021  -1.390 -0.7363 -0.4163 -0.4555
  852MOL0     H15004   0.461   8.243   0.073 -1.2318 -0.2498 -0.1651
  852MOL0     H15005   0.349   8.268   0.292  0.1925  0.1334  1.8510
  852MOL0     H15006   0.380   8.197   0.730 -0.7893  2.1126 -2.8437
  852MOL0     H15007   0.294   8.245   0.947 -1.0943 -1.0560  1.7021
  852MOL0     H15008   0.084   8.204   1.237  3.6842 -0.6896  2.2796
  852MOL0     H15009   0.196   8.275   1.126 -1.8666  1.0448 -1.2250
  852MOL0     H15010   0.296   8.027   1.117 -0.1280 -2.1156  1.5320
  852MOL0     H15011   0.190   7.999   1.248 -1.2887 -1.8510 -4.3952
  852MOL0     H15012   0.346   8.132   1.389 -0.9259 -2.1110  0.4638
  852MOL0     H15013   0.364   8.249   1.256 -1.6458 -0.2631 -1.4993
  852MOL0     H15014   0.578   8.126   1.310  1.5639 -1.1096  0.3358
  852MOL0     H15015   0.508   7.969   1.274  0.8829 -0.3785 -2.4390
  852MOL0     H15016   0.617   8.076   0.894  0.1497 -4.1318 -0.0268
  852MOL0     H15017  -0.081   8.047   0.829 -0.0866  3.9488  0.3293
  852MOL0     H15018  -0.053   8.053   0.509 -0.3744 -0.5662 -0.2964
  852MOL0     H15019   0.061   7.922   0.530 -0.2761  1.5942 -1.4439
  852MOL0     H15020  -0.090   7.946   0.633 -1.2172  1.0622 -0.7660
  853MOL0     O15021  10.015   7.777   0.999 -0.0752 -0.3568  0.0722
  853MOL0     C15022   9.904   7.735   0.971  0.9492 -0.1894 -0.1364
  853MOL0     O15023   9.876   7.648   0.870  0.2267 -0.2738 -0.0675
  853MOL0     C15024   9.959   7.638   0.764  0.5156 -1.3107  0.7570
  853MOL0     C15025  10.102   7.626   0.765  0.2422  1.2659 -0.5239
  853MOL0     C15026  10.165   7.602   0.637  0.6422 -0.0694  1.2994
  853MOL0     C15027  10.090   7.604   0.514 -0.1037  0.3619 -0.8239
  853MOL0     O15028  10.159   7.582   0.392 -0.1589  0.6884 -0.1351
  853MOL0     C15029  10.236   7.460   0.378  0.2608 -0.3169  0.1314
  853MOL0     C15030  10.263   7.435   0.227 -0.5852 -0.0654  0.6551
  853MOL0     C15031  10.341   7.306   0.213 -0.2952 -0.0990 -0.5298
  853MOL0     C15032  10.303   7.233   0.080 -1.0065  0.6656  1.5204
  853MOL0     C15033  10.412   7.127   0.040  0.6324 -0.3211 -0.3971
  853MOL0     C15034  10.383   7.036  -0.090 -0.1290 -0.2083  0.5392
  853MOL0     C15035  10.514   6.978  -0.152 -1.2835  0.2320 -1.3329
  853MOL0     C15036  10.488   6.867  -0.251  0.1145 -0.2038 -0.7177
  853MOL0     N15037  10.619   6.790  -0.268 -0.1632  0.3061 -0.3802
  853MOL0     C15038  10.750   6.820  -0.227 -0.0215  0.3412 -0.0389
  853MOL0     C15039  10.824   6.710  -0.231  0.7273  0.3009  0.6558
  853MOL0     C15040  10.969   6.686  -0.181  0.0155 -0.4779 -1.0376
  853MOL0     C15041  10.988   6.708  -0.035 -0.1546 -0.8165 -0.1205
  853MOL0     C15042  10.888   6.657   0.073 -0.8963  0.2580  0.0634
  853MOL0     C15043  10.939   6.672   0.219 -0.0170 -0.1458  0.6828
  853MOL0     O15044  10.978   6.817   0.228 -0.3833  0.1862  0.2143
  853MOL0     C15045  10.910   6.908   0.318  0.1614 -0.3058  0.6248
  853MOL0     C15046  10.793   6.971   0.275 -1.1584 -0.5687  0.1682
  853MOL0     C15047  10.709   7.034   0.369  0.5913  0.0007 -0.0749
  853MOL0     C15048  10.742   7.043   0.501  0.5322 -0.1446  0.7049
  853MOL0     C15049  10.648   7.095   0.606 -0.7110 -0.5529 -0.9994
  853MOL0     O15050  10.528   7.136   0.563 -0.8043  0.3623 -0.1806
  853MOL0     C15051  10.427   7.167   0.652  0.9675  0.0477  0.0216
  853MOL0     C15052  10.300   7.128   0.609  0.0270 -0.0964  1.1859
  853MOL0     C15053  10.192   7.131   0.689  0.6465 -1.8055 -0.5377
  853MOL0     C15054  10.202   7.176   0.823  1.0679 -0.7504 -0.4537
  853MOL0     O15055  10.096   7.172   0.914 -0.1341 -0.0536  0.4659
  853MOL0     C15056   9.978   7.098   0.876  0.1736  0.0185  0.0601
  853MOL0     C15057   9.895   7.112   0.995  0.5436  0.0220 -0.2902
  853MOL0     C15058   9.748   7.073   0.992  0.4476 -0.7414  0.5868
  853MOL0     C15059   9.705   6.950   0.906 -0.1389 -0.3838 -0.3790
  853MOL0     C15060   9.559   6.906   0.936 -0.2094 -0.0725  0.5479
  853MOL0     C15061   9.505   6.825   0.815 -0.3699 -0.4504 -0.5384
  853MOL0     C15062   9.554   6.681   0.789 -0.2017  0.9442  0.2154
  853MOL0     C15063   9.483   6.633   0.658 -0.6052 -0.7974 -0.4254
  853MOL0    Cl15064   9.303   6.671   0.643  0.2437  0.2453 -0.3540
  853MOL0     C15065  10.319   7.227   0.867  0.4094 -0.1373  0.5218
  853MOL0     C15066  10.431   7.229   0.786  0.0798  0.6951  0.0818
  853MOL0     O15067  10.684   7.089   0.725 -0.1646  0.6242 -0.3329
  853MOL0     C15068  10.857   6.974   0.540  0.6365  0.4297 -0.7261
  853MOL0     C15069  10.939   6.906   0.448  0.6034  1.2131 -0.1729
  853MOL0     N15070  10.740   6.610  -0.288  0.7172 -0.3672 -0.2922
  853MOL0     N15071  10.627   6.659  -0.319 -0.4091 -1.1290 -0.0733
  853MOL0     C15072   9.959   7.626   0.521 -0.3245  0.0025 -0.7479
  853MOL0     C15073   9.888   7.642   0.635  0.5681 -0.1346 -0.8434
  853MOL0     C15074   9.792   7.779   1.055 -0.4160 -0.2820 -0.3494
  853MOL0     C15075   9.799   7.914   1.109 -0.7414  0.5690  0.8015
  853MOL0     C15076   9.691   7.968   1.180  0.5925  0.3479 -0.0835
  853MOL0     C15077   9.584   7.892   1.215  0.3779 -0.3108  0.1060
  853MOL0     O15078   9.477   7.934   1.292 -0.7635 -0.1816  0.2797
  853MOL0     C15079   9.455   8.069   1.309  0.0005 -0.0750  0.0390
  853MOL0     C15080   9.311   8.078   1.364 -0.6635  0.3648 -0.1939
  853MOL0     C15081   9.282   8.218   1.404  0.0671  0.2091 -0.3611
  853MOL0     C15082   9.155   8.237   1.482  0.0869 -0.7952  0.5817
  853MOL0     C15083   9.039   8.223   1.394 -0.0327 -1.5811  0.8960
  853MOL0     C15084   8.935   8.228   1.324  0.1101  0.4309 -0.5633
  853MOL0     C15085   9.571   7.759   1.161 -0.5072  0.5496  0.1270
  853MOL0     C15086   9.673   7.699   1.079 -0.0148  0.2329  0.4168
  853MOL0     C15087   9.660   7.555   1.025  0.3352 -0.4008  0.4294
  853MOL0     H15088  10.154   7.618   0.860  0.6317 -2.5400 -0.9229
  853MOL0     H15089  10.273   7.588   0.634  0.7031  0.4395  0.8110
  853MOL0     H15090  10.324   7.472   0.443  1.6842  4.8010 -2.1911
  853MOL0     H15091  10.169   7.379   0.409 -3.1667  0.9166 -3.2243
  853MOL0     H15092  10.321   7.518   0.187  0.5925 -2.2238 -2.4129
  853MOL0     H15093  10.167   7.429   0.175  0.3507 -1.7288 -0.9740
  853MOL0     H15094  10.287   7.246   0.287 -1.2846  3.2452  1.6776
  853MOL0     H15095  10.449   7.317   0.229 -0.1308 -1.6006 -0.4149
  853MOL0     H15096  10.218   7.168   0.107 -0.2214 -0.9419  0.3281
  853MOL0     H15097  10.271   7.294  -0.005  2.3656  3.9747  2.3654
  853MOL0     H15098  10.502   7.183   0.017  0.6132 -0.2161 -0.2150
  853MOL0     H15099  10.436   7.056   0.120  2.5778  0.0693 -0.5924
  853MOL0     H15100  10.315   6.956  -0.060 -1.7520  0.3641 -1.4141
  853MOL0     H15101  10.323   7.089  -0.164  3.5146  0.5305 -2.1457
  853MOL0     H15102  10.563   6.932  -0.065  0.0408  1.3808 -1.4373
  853MOL0     H15103  10.571   7.053  -0.208 -0.1467 -1.6598 -2.8369
  853MOL0     H15104  10.412   6.790  -0.231 -1.9007  1.2058 -2.4748
  853MOL0     H15105  10.456   6.920  -0.341 -0.5289  1.4532  0.4459
  853MOL0     H15106  10.791   6.912  -0.187 -0.2869  1.3207 -1.8976
  853MOL0     H15107  10.995   6.582  -0.205 -1.7945 -1.0706 -0.6019
  853MOL0     H15108  11.042   6.749  -0.232 -0.6773 -0.6464 -2.3040
  853MOL0     H15109  11.087   6.680   0.001 -0.2445  1.6748  2.4461
  853MOL0     H15110  10.990   6.817  -0.020  3.7940 -0.5511 -1.4321
  853MOL0     H15111  10.874   6.549   0.064  1.8334 -0.1962  0.3928
  853MOL0     H15112  10.796   6.715   0.058 -0.2940  1.0704 -0.6267
  853MOL0     H15113  11.032   6.617   0.238 -0.6091 -0.7908  1.8402
  853MOL0     H15114  10.864   6.648   0.295 -1.3194  2.6048  0.3746
  853MOL0     H15115  10.765   6.968   0.171  0.5003 -0.2263 -0.3150
  853MOL0     H15116  10.612   7.065   0.331 -0.0799 -0.1632  1.4301
  853MOL0     H15117  10.307   7.082   0.511  3.0488 -2.9573  2.5289
  853MOL0     H15118  10.096   7.101   0.649 -1.1827  1.9718  0.6473
  853MOL0     H15119   9.922   7.134   0.789  0.7008 -1.1629 -0.7976
  853MOL0     H15120  10.007   6.994   0.857  0.1920  0.0891 -0.3210
  853MOL0     H15121   9.938   7.048   1.073 -0.9683 -1.2845 -0.4741
  853MOL0     H15122   9.898   7.215   1.031  1.3104 -1.0328  2.9687
  853MOL0     H15123   9.705   7.054   1.091 -0.6261 -0.7301  0.1403
  853MOL0     H15124   9.685   7.156   0.959 -1.4306 -1.3292  2.4224
  853MOL0     H15125   9.775   6.867   0.912  1.5754  1.0657  0.4007
  853MOL0     H15126   9.727   6.983   0.804  1.7773 -2.0428 -0.5641
  853MOL0     H15127   9.505   7.001   0.937 -0.1980  0.0038 -1.5089
  853MOL0     H15128   9.542   6.856   1.031 -1.4146 -0.2111  0.2830
  853MOL0     H15129   9.396   6.826   0.822 -0.4701  2.3719 -1.1207
  853MOL0     H15130   9.523   6.887   0.727 -1.0946  0.8877  0.2151
  853MOL0     H15131   9.526   6.623   0.877  2.7301 -0.9102  0.0828
  853MOL0     H15132   9.660   6.677   0.762 -0.9964 -1.1008 -3.1754
  853MOL0     H15133   9.543   6.662   0.571 -1.7218 -1.9133 -1.5989
  853MOL0     H15134   9.487   6.524   0.663 -0.2496 -0.7483  0.7016
  853MOL0     H15135  10.309   7.259   0.970 -2.4186  2.6315 -0.4812
  853MOL0     H15136  10.522   7.273   0.826  0.0884  0.1380  0.6958
  853MOL0     H15137  10.884   6.962   0.645  0.2481 -3.2900 -0.9192
  853MOL0     H15138  11.021   6.843   0.481  0.4459  0.9374 -0.3116
  853MOL0     H15139   9.899   7.641   0.431 -3.2564 -2.0366  0.7159
  853MOL0     H15140   9.781   7.657   0.631  0.8347  1.8189 -3.4097
  853MOL0     H15141   9.890   7.973   1.098  0.7366 -1.4211  1.8619
  853MOL0     H15142   9.695   8.075   1.199 -1.3549  0.5881 -0.7299
  853MOL0     H15143   9.468   8.122   1.214 -0.4781 -0.9643 -0.5276
  853MOL0     H15144   9.536   8.105   1.373  2.2462  0.3301 -2.8306
  853MOL0     H15145   9.304   8.015   1.453  1.8134 -0.5539 -0.5659
  853MOL0     H15146   9.240   8.043   1.288 -2.1123 -2.6668  2.2958
  853MOL0     H15147   9.292   8.286   1.319  0.4542  0.9063  0.2284
  853MOL0     H15148   9.365   8.248   1.469  1.5679 -0.8097 -1.7405
  853MOL0     H15149   9.137   8.163   1.561 -2.2114  0.1926  1.0852
  853MOL0     H15150   9.155   8.338   1.526  4.3064 -0.2367 -0.2581
  853MOL0     H15151   8.849   8.233   1.260 -0.3532 -0.8154 -0.0763
  853MOL0     H15152   9.480   7.704   1.184  0.6422 -1.3114  0.4251
  853MOL0     H15153   9.555   7.530   1.038 -0.3238 -0.5230 -3.8709
  853MOL0     H15154   9.676   7.540   0.918 -2.2265 -0.8570  0.0498
  853MOL0     H15155   9.718   7.479   1.079  1.7811 -0.1453 -0.6881
  854MOL0     O15156   3.040  10.164   8.070 -0.3236  0.5632  1.2133
  854MOL0     C15157   2.924  10.113   8.073  0.0513  0.9565  0.3544
  854MOL0     O15158   2.850  10.093   8.186 -0.6203 -0.4196  0.6169
  854MOL0     C15159   2.843  10.211   8.258 -0.2301 -0.9037 -0.2336
  854MOL0     C15160   2.884  10.210   8.393  0.0137  0.1632  0.4392
  854MOL0     C15161   2.857  10.315   8.474 -0.2084  1.5417 -0.0172
  854MOL0     C15162   2.812  10.438   8.439 -0.2424 -0.4010  0.1696
  854MOL0     O15163   2.817  10.544   8.521  0.2092  0.7810 -0.0846
  854MOL0     C15164   2.817  10.533   8.666  0.2756 -0.1923  0.2912
  854MOL0     C15165   2.794  10.673   8.732  0.1330 -0.0213  0.0630
  854MOL0     C15166   2.907  10.774   8.724  0.1234 -0.1415  0.8535
  854MOL0     C15167   2.911  10.854   8.850 -0.5686 -0.8872  0.5544
  854MOL0     C15168   3.040  10.960   8.846 -0.5590  0.0844  1.4520
  854MOL0     C15169   3.176  10.890   8.830 -0.5216  0.5829  0.3490
  854MOL0     C15170   3.282  11.000   8.813 -0.1125 -0.3659  0.4779
  854MOL0     C15171   3.438  10.956   8.818  0.4264 -0.0830 -1.1701
  854MOL0     N15172   3.457  10.830   8.743 -0.1155  0.5267  0.0986
  854MOL0     C15173   3.428  10.807   8.607  0.4720 -0.2301  0.0952
  854MOL0     C15174   3.441  10.678   8.583 -0.2237 -0.3650 -0.2198
  854MOL0     C15175   3.441  10.614   8.449  0.0431 -0.1071 -0.2640
  854MOL0     C15176   3.308  10.611   8.384  0.8901  0.0233 -0.1219
  854MOL0     C15177   3.286  10.515   8.267  0.2715 -0.7493  0.4684
  854MOL0     C15178   3.370  10.546   8.144  0.9021  0.5788  0.0696
  854MOL0     O15179   3.352  10.684   8.108  0.4047  0.1122 -0.1118
  854MOL0     C15180   3.422  10.729   8.006 -0.4896  0.1163 -0.1809
  854MOL0     C15181   3.397  10.688   7.868  0.0017  0.2459  0.7756
  854MOL0     C15182   3.480  10.716   7.760  0.1335 -0.1124 -0.0848
  854MOL0     C15183   3.599  10.789   7.775  0.4459 -0.7731 -0.9406
  854MOL0     C15184   3.706  10.802   7.679  0.0406  0.2204 -0.1682
  854MOL0     O15185   3.680  10.739   7.565  0.4060  0.5521  0.1604
  854MOL0     C15186   3.752  10.759   7.447 -0.1909 -0.1334 -0.3419
  854MOL0     C15187   3.799  10.880   7.406  0.5821 -0.8806 -0.3568
  854MOL0     C15188   3.865  10.902   7.288  0.0708  0.0120  0.2669
  854MOL0     C15189   3.896  10.790   7.200 -0.2671  0.3253 -0.6656
  854MOL0     O15190   3.953  10.790   7.081  0.2459 -0.1864  0.7456
  854MOL0     C15191   3.989  10.914   7.022 -0.8523  0.7479 -0.2996
  854MOL0     C15192   4.102  10.901   6.909  0.0813 -0.0606 -0.0426
  854MOL0     C15193   4.044  10.810   6.802 -0.8329 -0.1279  0.3372
  854MOL0     C15194   4.089  10.822   6.656  0.3571 -0.6991  0.1782
  854MOL0     C15195   4.237  10.844   6.623  0.2001 -0.3801  0.3140
  854MOL0     C15196   4.338  10.741   6.681  1.2638 -0.1222 -0.5276
  854MOL0     C15197   4.472  10.756   6.624 -0.4531  0.3091  0.0067
  854MOL0     C15198   4.564  10.644   6.674 -0.0760 -0.1725 -0.6793
  854MOL0    Cl15199   4.707  10.615   6.570  0.0692  0.3372 -0.0188
  854MOL0     C15200   3.852  10.665   7.251 -0.4394 -0.0792  0.9088
  854MOL0     C15201   3.793  10.646   7.375 -0.6682 -0.1798 -0.4555
  854MOL0     O15202   3.790  10.896   7.696 -0.0878  0.7844 -0.5788
  854MOL0     C15203   3.623  10.833   7.913  0.3301 -0.9303  0.5332
  854MOL0     C15204   3.542  10.806   8.018 -0.5317 -0.2106 -0.3102
  854MOL0     N15205   3.488  10.621   8.698  0.0887  1.0942 -0.1237
  854MOL0     N15206   3.501  10.711   8.789  0.3452 -0.6032 -0.9112
  854MOL0     C15207   2.774  10.449   8.304  1.0265  0.0185  0.0300
  854MOL0     C15208   2.781  10.334   8.217  0.7858 -0.0249 -0.2755
  854MOL0     C15209   2.873  10.047   7.951  0.3362 -0.1590 -1.8494
  854MOL0     C15210   2.883  10.129   7.839 -0.3802  0.3032  0.1975
  854MOL0     C15211   2.837  10.090   7.715 -0.5209  0.2656 -0.2954
  854MOL0     C15212   2.785   9.962   7.694 -0.0339 -0.0922 -0.6313
  854MOL0     O15213   2.780   9.905   7.573 -0.3921  0.0864 -0.2854
  854MOL0     C15214   2.681   9.963   7.482 -0.6388 -0.1507  1.0733
  854MOL0     C15215   2.758  10.015   7.365 -0.2780  0.1963  0.9612
  854MOL0     C15216   2.675  10.072   7.245  0.0822  0.0896 -0.8755
  854MOL0     C15217   2.629   9.977   7.148  1.1825  0.1121  0.7687
  854MOL0     C15218   2.610  10.045   7.016 -0.0744  0.1844  0.7054
  854MOL0     C15219   2.588  10.083   6.902 -0.3353 -0.0896 -0.2862
  854MOL0     C15220   2.786   9.870   7.807  0.4247 -1.4142 -0.4009
  854MOL0     C15221   2.830   9.913   7.933  1.0227 -0.8323  0.2031
  854MOL0     C15222   2.819   9.808   8.037  0.6705 -0.1880 -0.2522
  854MOL0     H15223   2.926  10.115   8.423 -1.4897 -1.1322 -1.3035
  854MOL0     H15224   2.881  10.285   8.576 -1.3702 -5.0199 -1.2579
  854MOL0     H15225   2.733  10.471   8.699  0.1245 -0.0233  0.2287
  854MOL0     H15226   2.902  10.481   8.712 -0.7103 -2.5525 -0.4306
  854MOL0     H15227   2.766  10.653   8.836 -0.8276  1.2500  0.0644
  854MOL0     H15228   2.716  10.723   8.674  0.1092 -0.5720 -0.3973
  854MOL0     H15229   2.904  10.838   8.636  2.3845 -0.5637  0.4135
  854MOL0     H15230   2.999  10.717   8.712 -1.3295 -2.0593 -2.3606
  854MOL0     H15231   2.816  10.905   8.868 -0.2917 -1.2293  3.4755
  854MOL0     H15232   2.913  10.774   8.925 -1.1227 -2.2392 -0.8080
  854MOL0     H15233   3.021  11.029   8.763  0.4212 -0.3863  0.8168
  854MOL0     H15234   3.048  11.013   8.941  2.7416  1.4098  0.5583
  854MOL0     H15235   3.203  10.836   8.921  0.2401 -1.3365 -0.9384
  854MOL0     H15236   3.178  10.826   8.741 -1.2271 -1.2013  1.5625
  854MOL0     H15237   3.263  11.072   8.892 -1.1746  1.1194 -1.0492
  854MOL0     H15238   3.277  11.061   8.722 -0.2472  1.3612  1.6039
  854MOL0     H15239   3.507  11.033   8.782 -2.9694  3.1171 -1.3983
  854MOL0     H15240   3.459  10.941   8.924  0.3305  3.7204 -0.4873
  854MOL0     H15241   3.425  10.881   8.528 -0.0179  1.3252  1.5223
  854MOL0     H15242   3.513  10.661   8.381  5.9430 -3.3670  2.9338
  854MOL0     H15243   3.475  10.511   8.465  1.5193  0.6774  1.9218
  854MOL0     H15244   3.239  10.590   8.466  0.1189  3.7565  0.3852
  854MOL0     H15245   3.296  10.717   8.358  0.5370 -0.1647 -0.7316
  854MOL0     H15246   3.180  10.512   8.242  0.1190 -0.3205  1.0457
  854MOL0     H15247   3.327  10.418   8.299  1.4186 -0.6591 -0.6125
  854MOL0     H15248   3.334  10.481   8.064  1.9749  1.4088 -1.1299
  854MOL0     H15249   3.475  10.516   8.154  0.5454 -2.0193 -2.4967
  854MOL0     H15250   3.318  10.614   7.856  1.8929 -2.0537  1.7436
  854MOL0     H15251   3.464  10.677   7.660  2.6287  0.3683 -0.7499
  854MOL0     H15252   3.766  10.966   7.463  1.6582 -1.4867  1.2623
  854MOL0     H15253   3.892  11.006   7.273  1.4368 -0.4121 -0.5127
  854MOL0     H15254   3.897  10.956   6.980 -2.3507 -1.2114  0.8267
  854MOL0     H15255   4.028  10.980   7.099 -1.9591 -0.5453  1.4256
  854MOL0     H15256   4.149  10.995   6.878  0.9018  0.8187  3.3992
  854MOL0     H15257   4.187  10.854   6.961  2.1361  3.2631 -0.1221
  854MOL0     H15258   4.077  10.710   6.830  0.5823  1.2016  3.9712
  854MOL0     H15259   3.935  10.805   6.814 -0.8255 -0.0281  0.4487
  854MOL0     H15260   4.045  10.913   6.614  0.9143 -0.5371 -0.0692
  854MOL0     H15261   4.039  10.743   6.600  0.1696 -2.8323  3.1206
  854MOL0     H15262   4.260  10.943   6.663 -1.7487 -0.1584  0.9749
  854MOL0     H15263   4.240  10.840   6.514 -2.9025 -0.7915  0.1479
  854MOL0     H15264   4.354  10.755   6.789  0.1118  0.6188 -0.4415
  854MOL0     H15265   4.303  10.640   6.659 -2.1052  0.5563  1.0573
  854MOL0     H15266   4.501  10.854   6.662 -0.9397  0.7676 -0.7655
  854MOL0     H15267   4.471  10.758   6.514  3.7535  1.6807 -0.1950
  854MOL0     H15268   4.602  10.675   6.771  1.4637  0.2584 -1.3870
  854MOL0     H15269   4.500  10.555   6.679  0.2131 -0.4197 -1.2753
  854MOL0     H15270   3.882  10.590   7.179  0.8183  0.8268  0.4496
  854MOL0     H15271   3.770  10.544   7.404  0.9531 -1.8251 -4.2978
  854MOL0     H15272   3.703  10.901   7.938  0.0668 -0.7621  0.9340
  854MOL0     H15273   3.579  10.846   8.112 -1.0655  2.1136 -1.0235
  854MOL0     H15274   2.720  10.541   8.284 -1.0260 -0.8748  1.1345
  854MOL0     H15275   2.745  10.326   8.115 -2.3922  0.1021  0.7368
  854MOL0     H15276   2.921  10.230   7.850  1.5987 -0.2147 -1.2543
  854MOL0     H15277   2.841  10.145   7.621 -1.0988 -4.6505 -3.6057
  854MOL0     H15278   2.627  10.050   7.520  0.4580  1.1219 -0.1158
  854MOL0     H15279   2.615   9.887   7.439  1.0200 -0.9290 -0.2191
  854MOL0     H15280   2.829   9.938   7.334 -0.7562  0.1458 -0.0389
  854MOL0     H15281   2.810  10.105   7.399 -0.3555  0.6020  0.0074
  854MOL0     H15282   2.738  10.145   7.194 -0.5748 -2.7365 -6.4105
  854MOL0     H15283   2.589  10.126   7.285  0.6481 -1.1956  2.4381
  854MOL0     H15284   2.705   9.900   7.130  0.8312  0.3994 -2.4701
  854MOL0     H15285   2.548   9.922   7.196  0.5010  0.4383 -0.0032
  854MOL0     H15286   2.547  10.111   6.807 -3.0130  0.4050  0.9266
  854MOL0     H15287   2.768   9.764   7.791 -3.7313 -0.8039 -0.7345
  854MOL0     H15288   2.887   9.728   8.008  1.0539 -0.3144  0.9133
  854MOL0     H15289   2.850   9.846   8.135 -1.3662  0.8636  0.0360
  854MOL0     H15290   2.719   9.767   8.055  0.5029 -0.2015 -1.1744
  855MOL0     O15291   1.785   4.354   7.215 -1.0427  0.5179 -0.2405
  855MOL0     C15292   1.774   4.283   7.109  1.1472  0.5755 -0.4104
  855MOL0     O15293   1.841   4.293   6.996  0.3277  0.3331 -0.0092
  855MOL0     C15294   1.938   4.392   6.989  0.9354  1.0901  0.5125
  855MOL0     C15295   1.899   4.523   7.010 -0.4848  0.2948 -0.1678
  855MOL0     C15296   2.002   4.619   7.010  0.7392  0.2762  0.5406
  855MOL0     C15297   2.137   4.587   7.024  1.1862  1.2056 -0.5128
  855MOL0     O15298   2.235   4.681   7.033  0.3586 -0.5355 -0.0711
  855MOL0     C15299   2.206   4.813   6.964 -0.3386  0.2558  0.0286
  855MOL0     C15300   2.340   4.887   6.971 -0.2106 -0.5877 -1.1838
  855MOL0     C15301   2.356   5.021   6.902  0.2423  0.5829  0.3779
  855MOL0     C15302   2.494   5.059   6.894 -0.7477 -0.1990  0.0934
  855MOL0     C15303   2.561   5.086   7.030  0.2132  0.4238  0.4058
  855MOL0     C15304   2.716   5.052   7.004 -0.2702 -0.1229 -0.2577
  855MOL0     C15305   2.814   5.038   7.125 -0.2912  0.0194  0.1504
  855MOL0     C15306   2.754   4.937   7.220  0.5152 -0.8232 -1.1462
  855MOL0     N15307   2.835   4.898   7.330  1.2337 -0.3835 -0.2216
  855MOL0     C15308   2.877   4.988   7.426 -0.3655 -0.2892  0.1115
  855MOL0     C15309   2.941   4.904   7.511 -0.6296 -0.5032 -0.1184
  855MOL0     C15310   3.009   4.943   7.647  1.7163  0.2945 -0.4049
  855MOL0     C15311   3.164   4.954   7.633  1.2645 -0.0351  0.0080
  855MOL0     C15312   3.231   4.819   7.610 -0.4680 -0.1142 -0.4083
  855MOL0     C15313   3.378   4.836   7.598  0.2889  0.9293  0.7644
  855MOL0     O15314   3.448   4.913   7.699  0.5535  0.2170  0.4457
  855MOL0     C15315   3.572   4.944   7.666  0.3035 -1.2690  1.5819
  855MOL0     C15316   3.649   4.926   7.553  0.1772 -0.4777 -0.2896
  855MOL0     C15317   3.784   4.942   7.550 -0.1805 -0.4360 -0.4591
  855MOL0     C15318   3.854   4.996   7.667  0.7415  0.8133 -0.1191
  855MOL0     C15319   4.000   5.031   7.665  0.2297  0.6505  0.7554
  855MOL0     O15320   4.060   5.027   7.541  0.5310 -0.2079 -0.0986
  855MOL0     C15321   4.192   5.056   7.531  0.3431 -0.1069 -0.4307
  855MOL0     C15322   4.291   4.963   7.479  0.5044 -0.1223 -1.5945
  855MOL0     C15323   4.424   4.997   7.467  0.0335 -1.1122 -0.2334
  855MOL0     C15324   4.469   5.131   7.494 -1.0993  0.4954  0.2941
  855MOL0     O15325   4.603   5.150   7.494 -0.7154 -0.0568  0.0345
  855MOL0     C15326   4.658   5.246   7.590  0.4224  0.1878  0.6114
  855MOL0     C15327   4.813   5.241   7.577  0.2306  0.1334  0.8209
  855MOL0     C15328   4.870   5.259   7.428  0.6635 -0.3988 -0.6147
  855MOL0     C15329   5.021   5.233   7.414  0.0157  0.2381  0.3651
  855MOL0     C15330   5.068   5.256   7.272  0.0220  0.5589 -0.2040
  855MOL0     C15331   5.017   5.142   7.181  0.0617  0.5101  0.1275
  855MOL0     C15332   5.057   5.172   7.036  0.0503 -0.2590  0.9072
  855MOL0     C15333   5.085   5.042   6.946  0.7150 -0.6987 -0.6684
  855MOL0    Cl15334   5.131   5.108   6.790 -0.2493 -0.5802 -0.2205
  855MOL0     C15335   4.370   5.220   7.522  0.6004 -0.7349 -0.0572
  855MOL0     C15336   4.233   5.191   7.540 -0.8736  0.3266  0.5874
  855MOL0     O15337   4.052   5.062   7.775 -0.1803 -0.2385 -0.0598
  855MOL0     C15338   3.772   5.023   7.779 -0.3478 -0.8554 -0.9903
  855MOL0     C15339   3.638   4.983   7.780 -0.7927 -0.7731 -0.1222
  855MOL0     N15340   2.948   4.777   7.460 -0.3497  0.5712  0.1200
  855MOL0     N15341   2.882   4.771   7.355  0.1211 -0.2651 -1.4079
  855MOL0     C15342   2.172   4.455   6.997 -0.3882 -0.4506  0.1835
  855MOL0     C15343   2.078   4.356   6.973  0.5467  0.2808 -1.1826
  855MOL0     C15344   1.674   4.175   7.095 -0.7214  0.0235  0.5540
  855MOL0     C15345   1.657   4.106   6.969 -0.3425  0.2737 -0.8987
  855MOL0     C15346   1.562   3.999   6.961 -0.2579 -0.2612  0.2852
  855MOL0     C15347   1.463   3.972   7.060 -1.0165  0.4041  1.3067
  855MOL0     O15348   1.355   3.888   7.054 -0.5248 -0.5261  0.4110
  855MOL0     C15349   1.343   3.802   6.938  0.0652  0.5513 -0.3428
  855MOL0     C15350   1.207   3.733   6.908  0.2620 -0.5976  0.4071
  855MOL0     C15351   1.169   3.631   7.016  0.3838 -0.2112 -0.3521
  855MOL0     C15352   1.045   3.561   6.992  1.2684  0.1355  0.2607
  855MOL0     C15353   1.000   3.473   7.098  0.4396 -0.0669 -0.2447
  855MOL0     C15354   0.984   3.395   7.191 -0.5612  0.7114 -0.3977
  855MOL0     C15355   1.484   4.041   7.173 -1.3421 -0.4747 -0.6790
  855MOL0     C15356   1.587   4.134   7.202  0.2016 -0.7524 -0.9803
  855MOL0     C15357   1.586   4.211   7.340  0.0331 -0.2649  0.1203
  855MOL0     H15358   1.797   4.559   7.019 -0.4195  0.0018  2.7612
  855MOL0     H15359   1.967   4.722   7.000 -0.4287 -0.0733  0.8608
  855MOL0     H15360   2.176   4.800   6.860 -0.7045  2.1662 -0.1285
  855MOL0     H15361   2.125   4.856   7.023 -0.7057 -1.1755  0.6282
  855MOL0     H15362   2.421   4.828   6.927 -0.8757 -1.2956 -1.4891
  855MOL0     H15363   2.373   4.890   7.075 -0.9265 -0.9244 -0.9343
  855MOL0     H15364   2.290   5.095   6.949 -1.4103  1.2359 -2.6853
  855MOL0     H15365   2.320   5.005   6.800  0.3911 -0.3256  0.4604
  855MOL0     H15366   2.553   4.982   6.843  2.9573  0.8797  2.2824
  855MOL0     H15367   2.505   5.148   6.831  0.4899 -1.5978 -1.8185
  855MOL0     H15368   2.536   5.183   7.074 -3.1122  0.6050 -1.5400
  855MOL0     H15369   2.528   5.019   7.110 -1.1375 -0.4360 -0.8128
  855MOL0     H15370   2.722   4.958   6.950 -1.8567 -1.1593  1.2583
  855MOL0     H15371   2.757   5.123   6.931 -0.2419 -2.6059 -2.8005
  855MOL0     H15372   2.822   5.142   7.158 -3.2776  0.7428 -0.9872
  855MOL0     H15373   2.910   5.002   7.088 -0.5547 -0.2433 -0.2909
  855MOL0     H15374   2.669   4.987   7.268  1.4187  1.5895 -1.9424
  855MOL0     H15375   2.722   4.854   7.157 -3.7309 -0.2298 -0.0776
  855MOL0     H15376   2.854   5.094   7.428 -3.6078 -0.8896  1.0127
  855MOL0     H15377   2.974   5.044   7.670  4.6198  1.3197 -0.0306
  855MOL0     H15378   2.981   4.868   7.721 -1.1023  0.1804 -1.4941
  855MOL0     H15379   3.178   5.022   7.548 -2.6582 -0.7587 -1.4497
  855MOL0     H15380   3.206   4.986   7.728  0.5644 -3.2316  1.5215
  855MOL0     H15381   3.190   4.771   7.520  2.4070 -0.1813 -1.7981
  855MOL0     H15382   3.225   4.765   7.705  1.2594  1.9214  0.9508
  855MOL0     H15383   3.393   4.899   7.510  0.9798 -1.6914 -1.1432
  855MOL0     H15384   3.427   4.740   7.577 -2.8074 -0.6409  0.1922
  855MOL0     H15385   3.614   4.877   7.463  3.2326 -3.7382  0.0984
  855MOL0     H15386   3.842   4.917   7.462 -1.6422 -0.7086 -1.3788
  855MOL0     H15387   4.255   4.861   7.470  0.8483 -0.9062  3.1953
  855MOL0     H15388   4.487   4.918   7.427  0.6248 -1.4818  1.3580
  855MOL0     H15389   4.636   5.353   7.578  7.2682  2.0398  0.2999
  855MOL0     H15390   4.632   5.213   7.690  4.2583 -1.3776  1.2593
  855MOL0     H15391   4.862   5.319   7.636  0.7226 -0.7353  1.5802
  855MOL0     H15392   4.850   5.140   7.597  1.8335  0.4952 -0.1050
  855MOL0     H15393   4.811   5.200   7.357 -0.9143  2.5121 -1.8782
  855MOL0     H15394   4.843   5.361   7.399 -0.5859  0.3282  2.6583
  855MOL0     H15395   5.045   5.133   7.450 -1.2241 -0.5736 -0.9488
  855MOL0     H15396   5.072   5.308   7.476  3.7656 -1.1753 -0.7392
  855MOL0     H15397   5.177   5.257   7.273  0.1008 -1.9403 -0.8779
  855MOL0     H15398   5.039   5.356   7.239  0.1681  0.0448 -1.9476
  855MOL0     H15399   5.051   5.045   7.219  4.6344  1.6303 -0.4944
  855MOL0     H15400   4.908   5.149   7.176 -0.1109 -2.0002 -4.6726
  855MOL0     H15401   5.155   5.220   7.033  0.3862 -0.9670 -0.1384
  855MOL0     H15402   4.989   5.237   6.981 -0.4759 -2.8445 -1.8404
  855MOL0     H15403   5.163   4.981   6.994  1.4622  0.7786  0.0561
  855MOL0     H15404   4.996   4.979   6.938  0.1895 -0.0962  0.3870
  855MOL0     H15405   4.391   5.321   7.555  0.5976 -0.8431  0.2829
  855MOL0     H15406   4.180   5.285   7.542 -0.2557  0.6921  0.1949
  855MOL0     H15407   3.818   5.062   7.869  3.1173 -2.0784 -2.0476
  855MOL0     H15408   3.577   4.984   7.869  3.4575 -0.5940  3.0863
  855MOL0     H15409   2.278   4.428   6.997  0.1586  1.2622 -2.9239
  855MOL0     H15410   2.116   4.255   6.977 -1.1076 -0.3441  0.6787
  855MOL0     H15411   1.715   4.137   6.883  0.9720  0.5886  0.0684
  855MOL0     H15412   1.560   3.940   6.869  0.3595 -2.1200  1.4206
  855MOL0     H15413   1.415   3.720   6.936 -1.4066 -0.7945 -0.0892
  855MOL0     H15414   1.350   3.870   6.853  2.8308  1.4092  0.4581
  855MOL0     H15415   1.220   3.674   6.816 -0.3711 -1.4691  0.8600
  855MOL0     H15416   1.131   3.808   6.891  0.8020  0.1962  1.3837
  855MOL0     H15417   1.148   3.693   7.103  0.3885 -0.0680 -0.4538
  855MOL0     H15418   1.254   3.562   7.028  1.8800  0.9882 -3.1408
  855MOL0     H15419   0.962   3.630   6.974  0.8669 -0.8202 -1.8658
  855MOL0     H15420   1.061   3.494   6.907  0.1300 -0.3786  0.4254
  855MOL0     H15421   0.961   3.318   7.261 -0.3536 -1.2443 -2.3681
  855MOL0     H15422   1.413   4.027   7.254  2.5859 -1.9043  2.9091
  855MOL0     H15423   1.502   4.170   7.397  0.9594 -1.8098  0.4233
  855MOL0     H15424   1.677   4.196   7.398  2.2927 -0.2201 -3.1139
  855MOL0     H15425   1.557   4.316   7.331 -1.7561 -0.8239 -1.3860
  856MOL0     O15426   8.905  10.617   4.849  0.5606 -0.7582  0.2435
  856MOL0     C15427   9.023  10.641   4.856 -0.2727  1.0079 -0.0137
  856MOL0     O15428   9.113  10.602   4.760  0.0462  0.2057 -0.5341
  856MOL0     C15429   9.073  10.529   4.646 -0.0974 -0.5515 -0.5005
  856MOL0     C15430   8.973  10.432   4.640  0.2732  0.5360  0.1059
  856MOL0     C15431   8.951  10.361   4.520 -0.0077  0.6749 -0.0658
  856MOL0     C15432   9.021  10.385   4.403 -0.1005  0.2540 -0.0717
  856MOL0     O15433   9.005  10.313   4.294 -0.1975  0.6041  0.5844
  856MOL0     C15434   9.123  10.241   4.245  0.4583 -0.5420  0.6945
  856MOL0     C15435   9.180  10.303   4.114  0.7679 -0.2323  0.2220
  856MOL0     C15436   9.330  10.282   4.080 -0.1147 -0.1529  0.2914
  856MOL0     C15437   9.422  10.383   4.161 -0.1346 -0.5382 -0.5144
  856MOL0     C15438   9.573  10.357   4.141  0.9471  0.6324 -0.4235
  856MOL0     C15439   9.629  10.380   3.992  0.1670  0.2564 -0.2846
  856MOL0     C15440   9.779  10.370   3.983 -0.5543 -0.4846  0.0932
  856MOL0     C15441   9.841  10.237   4.027 -0.4890 -0.4783 -0.3237
  856MOL0     N15442   9.981  10.221   4.005  0.1893  0.1169  0.3591
  856MOL0     C15443  10.044  10.224   3.882 -0.0268 -0.1677  0.7869
  856MOL0     C15444  10.174  10.204   3.906  0.4982 -0.4802  0.9586
  856MOL0     C15445  10.291  10.197   3.810 -0.7341  0.7595 -0.9919
  856MOL0     C15446  10.359  10.337   3.801 -0.1126  0.0648  0.0653
  856MOL0     C15447  10.495  10.332   3.851  0.7815  0.2686 -0.9000
  856MOL0     C15448  10.572  10.467   3.857  1.1504 -0.4340 -0.2398
  856MOL0     O15449  10.580  10.515   3.722 -0.0915 -0.6364 -0.3162
  856MOL0     C15450  10.636  10.634   3.705  0.5585  0.7137  0.6322
  856MOL0     C15451  10.617  10.751   3.788 -0.7817  0.2662  0.3807
  856MOL0     C15452  10.679  10.873   3.746  1.8624  0.0853  0.2307
  856MOL0     C15453  10.760  10.876   3.624 -0.3094  0.5298  0.1818
  856MOL0     C15454  10.846  10.992   3.594  0.4417  0.6010 -0.3278
  856MOL0     O15455  10.929  10.982   3.485 -0.3171 -0.1734  0.4874
  856MOL0     C15456  10.976  11.104   3.437  0.2044  0.5444  0.1601
  856MOL0     C15457  10.890  11.215   3.420  0.2111 -0.1036  0.0221
  856MOL0     C15458  10.932  11.335   3.369  0.3693  1.4780  1.2944
  856MOL0     C15459  11.057  11.342   3.309  0.3166  0.0686  0.2434
  856MOL0     O15460  11.081  11.465   3.247 -0.5072  0.6482 -0.2704
  856MOL0     C15461  11.201  11.494   3.172  0.6823 -0.6344 -0.7034
  856MOL0     C15462  11.185  11.629   3.110 -0.2945  0.3127 -0.6965
  856MOL0     C15463  11.329  11.685   3.058  0.4976  0.0345  0.6044
  856MOL0     C15464  11.401  11.588   2.967 -0.6967  0.0893  0.4913
  856MOL0     C15465  11.525  11.656   2.905 -0.3471  1.0534  0.0367
  856MOL0     C15466  11.484  11.780   2.823 -0.7131 -0.3778  0.6218
  856MOL0     C15467  11.611  11.817   2.742 -0.8322  0.0028  1.5046
  856MOL0     C15468  11.582  11.942   2.668  0.0666  0.1409 -0.2152
  856MOL0    Cl15469  11.721  11.994   2.581 -0.2642 -0.0607 -0.3110
  856MOL0     C15470  11.136  11.234   3.313 -0.1945  0.3049  0.0338
  856MOL0     C15471  11.098  11.115   3.374 -0.7689  0.2905  0.1817
  856MOL0     O15472  10.828  11.093   3.663 -0.4893  0.9474  0.0824
  856MOL0     C15473  10.769  10.763   3.546  0.0517 -0.4638  0.3506
  856MOL0     C15474  10.712  10.642   3.584 -0.3036 -0.0540 -0.4761
  856MOL0     N15475  10.186  10.197   4.045 -0.3700 -0.1234  0.2875
  856MOL0     N15476  10.076  10.200   4.100 -0.6410 -0.6645  0.3826
  856MOL0     C15477   9.114  10.498   4.409  0.1905  0.6084  0.3010
  856MOL0     C15478   9.145  10.558   4.525 -0.6487  0.1401 -0.3610
  856MOL0     C15479   9.078  10.716   4.971  0.4090 -0.0272  0.7277
  856MOL0     C15480   9.202  10.791   4.951 -0.1618  0.4213 -0.2942
  856MOL0     C15481   9.254  10.876   5.059 -0.1030 -1.0172 -0.0921
  856MOL0     C15482   9.188  10.876   5.179  0.4933 -0.2039 -0.5911
  856MOL0     O15483   9.237  10.945   5.284 -0.3575 -0.5032  0.2584
  856MOL0     C15484   9.219  11.090   5.284 -0.4569 -0.0320 -0.9822
  856MOL0     C15485   9.314  11.155   5.212  0.8571  0.5182  0.9378
  856MOL0     C15486   9.307  11.308   5.220  0.7061 -1.0435 -0.9374
  856MOL0     C15487   9.392  11.368   5.328  0.6208 -0.1025 -1.0610
  856MOL0     C15488   9.333  11.357   5.461 -0.3004  0.1297  0.9951
  856MOL0     C15489   9.311  11.369   5.576  0.1586 -0.2206 -0.9015
  856MOL0     C15490   9.078  10.793   5.209  0.1280 -0.0021 -0.0325
  856MOL0     C15491   9.018  10.730   5.098 -0.0298  0.1841 -0.8562
  856MOL0     C15492   8.899  10.638   5.147 -0.6522  0.3949  0.6984
  856MOL0     H15493   8.922  10.393   4.727  0.6516 -0.4402 -0.0967
  856MOL0     H15494   8.889  10.272   4.530 -0.5846  1.0450 -0.3340
  856MOL0     H15495   9.198  10.226   4.324  0.3746 -2.6829  0.4164
  856MOL0     H15496   9.098  10.138   4.220 -1.9196 -0.0399  0.7728
  856MOL0     H15497   9.153  10.408   4.127 -1.9344 -0.8119 -0.1616
  856MOL0     H15498   9.106  10.284   4.035 -1.4865 -0.9424  2.3518
  856MOL0     H15499   9.348  10.298   3.973 -3.5097 -0.0099 -0.3687
  856MOL0     H15500   9.361  10.178   4.095  2.5340  0.3806 -0.9488
  856MOL0     H15501   9.412  10.488   4.132  0.0587 -0.2616  0.4167
  856MOL0     H15502   9.403  10.383   4.268  0.1404  2.5585 -0.3823
  856MOL0     H15503   9.622  10.416   4.219 -0.6344  1.4210  0.0087
  856MOL0     H15504   9.585  10.251   4.167 -0.2838  0.9820  1.7301
  856MOL0     H15505   9.585  10.301   3.931 -2.0128 -0.7740  2.3945
  856MOL0     H15506   9.592  10.478   3.958 -1.5300 -0.6967 -1.2990
  856MOL0     H15507   9.821  10.458   4.033 -1.7143  0.6386 -0.8113
  856MOL0     H15508   9.819  10.370   3.881  1.2526  0.0935  0.7587
  856MOL0     H15509   9.820  10.234   4.135 -2.2728  0.5558 -0.5889
  856MOL0     H15510   9.780  10.155   3.988 -0.7941 -1.5441  2.2267
  856MOL0     H15511   9.998  10.255   3.788 -4.2663 -0.1890  2.6313
  856MOL0     H15512  10.359  10.124   3.853 -2.3284 -0.3561 -0.2733
  856MOL0     H15513  10.264  10.156   3.712  2.5038  0.3899 -1.8491
  856MOL0     H15514  10.365  10.374   3.698 -4.1915 -0.7276 -0.6471
  856MOL0     H15515  10.300  10.407   3.861 -2.2170 -2.6217  1.3776
  856MOL0     H15516  10.544  10.262   3.783  0.6617 -0.4174 -0.2885
  856MOL0     H15517  10.496  10.281   3.948 -1.0088 -1.5591 -1.7761
  856MOL0     H15518  10.673  10.443   3.893  0.6184  0.3131  1.9140
  856MOL0     H15519  10.503  10.521   3.922  0.3381 -2.3145  0.5398
  856MOL0     H15520  10.564  10.731   3.881 -1.0735  0.4942  0.2653
  856MOL0     H15521  10.649  10.961   3.802  0.8140 -0.1701  0.0886
  856MOL0     H15522  10.785  11.214   3.446  0.2702 -1.8186  0.3426
  856MOL0     H15523  10.857  11.413   3.361 -0.0252  0.9017 -1.7219
  856MOL0     H15524  11.274  11.503   3.252 -0.5455  1.8219  0.2549
  856MOL0     H15525  11.223  11.417   3.098  1.9367  1.0750 -2.2101
  856MOL0     H15526  11.106  11.622   3.035  0.5797  2.0402 -1.8418
  856MOL0     H15527  11.158  11.692   3.195 -0.5914 -0.3388 -0.3047
  856MOL0     H15528  11.302  11.776   3.002 -2.2309 -1.2407 -0.3119
  856MOL0     H15529  11.402  11.719   3.132 -0.7774  1.2614  1.3479
  856MOL0     H15530  11.333  11.545   2.893 -0.0926 -2.5007  1.3445
  856MOL0     H15531  11.433  11.508   3.034  2.3811 -0.7864 -1.8045
  856MOL0     H15532  11.585  11.596   2.837  0.1527  2.4978 -0.8412
  856MOL0     H15533  11.592  11.677   2.989  0.0968 -0.7664  0.1725
  856MOL0     H15534  11.395  11.768   2.761 -1.7947  1.3652  1.7630
  856MOL0     H15535  11.458  11.864   2.888  0.1546  0.7106 -0.4055
  856MOL0     H15536  11.636  11.735   2.674  1.0656  1.2591  0.5901
  856MOL0     H15537  11.694  11.832   2.812 -1.4058 -0.5498  2.3304
  856MOL0     H15538  11.504  11.929   2.592  2.6519 -3.3086 -2.5995
  856MOL0     H15539  11.545  12.025   2.728 -2.7270 -0.5723 -0.7960
  856MOL0     H15540  11.235  11.245   3.270 -0.5450 -1.6474 -1.3797
  856MOL0     H15541  11.159  11.025   3.366 -1.1957 -0.0215  0.3914
  856MOL0     H15542  10.819  10.771   3.450 -0.1846  0.8975  0.3141
  856MOL0     H15543  10.728  10.555   3.520  0.2569  1.0397 -1.8644
  856MOL0     H15544   9.174  10.535   4.326  0.2011  3.4246  1.4670
  856MOL0     H15545   9.223  10.633   4.538 -1.4945  0.6265  2.6752
  856MOL0     H15546   9.250  10.786   4.854 -3.2725  2.7331 -2.1547
  856MOL0     H15547   9.345  10.927   5.028 -0.3333 -0.2663  0.4387
  856MOL0     H15548   9.224  11.126   5.387  0.7345 -0.8204 -0.7368
  856MOL0     H15549   9.128  11.125   5.234  0.4941  1.5577 -1.6845
  856MOL0     H15550   9.289  11.122   5.111 -1.3008  0.0528  1.5798
  856MOL0     H15551   9.415  11.117   5.232 -0.1737 -2.4200  1.1011
  856MOL0     H15552   9.208  11.354   5.214  1.6213  1.0264 -0.9493
  856MOL0     H15553   9.353  11.334   5.125 -2.6839  2.0989 -1.9501
  856MOL0     H15554   9.487  11.314   5.326 -0.4285 -2.0071 -1.5041
  856MOL0     H15555   9.420  11.473   5.319  3.8465 -0.6497  1.0122
  856MOL0     H15556   9.295  11.363   5.682 -4.8906 -1.8234 -1.5260
  856MOL0     H15557   9.054  10.762   5.311  3.3931  1.2414  1.2376
  856MOL0     H15558   8.895  10.624   5.256  2.4259 -1.0915  0.7235
  856MOL0     H15559   8.805  10.679   5.110 -1.0726 -0.8555  0.3501
  856MOL0     H15560   8.909  10.533   5.120  2.1331  0.3831  1.4420
  857MOL0     O15561   1.295   9.571  10.016 -0.7849  0.3798  0.1013
  857MOL0     C15562   1.213   9.650   9.974  0.6238  0.5897 -0.9532
  857MOL0     O15563   1.236   9.741   9.888 -0.9782  0.2114  0.0358
  857MOL0     C15564   1.145   9.842   9.869 -0.3700 -0.0506  0.2205
  857MOL0     C15565   1.180   9.965   9.921  0.0348 -1.0204  0.6280
  857MOL0     C15566   1.096  10.073   9.890  0.3438  0.5133 -0.5690
  857MOL0     C15567   0.989  10.062   9.815  0.0391 -1.0737  0.3150
  857MOL0     O15568   0.922  10.175   9.790  0.2405 -0.0771  0.0371
  857MOL0     C15569   0.965  10.243   9.672  0.4272 -0.2158 -0.5940
  857MOL0     C15570   0.948  10.391   9.688 -0.5789  0.1281  0.7232
  857MOL0     C15571   0.956  10.462   9.557 -0.4662 -0.2832  0.3187
  857MOL0     C15572   0.823  10.433   9.473  0.4861 -0.2752 -0.9154
  857MOL0     C15573   0.783  10.547   9.382 -0.4113  0.4545 -0.6863
  857MOL0     C15574   0.642  10.546   9.333  0.3448  0.4495  0.0729
  857MOL0     C15575   0.609  10.419   9.242 -0.2840 -0.2650 -0.3892
  857MOL0     C15576   0.665  10.426   9.103  0.4143  0.0640  0.2982
  857MOL0     N15577   0.686  10.285   9.066  1.0561  1.1048 -0.1345
  857MOL0     C15578   0.813  10.225   9.088  0.5472 -0.8510  0.1526
  857MOL0     C15579   0.795  10.100   9.059  0.0325 -0.5490  0.9088
  857MOL0     C15580   0.911  10.014   9.076  0.2909  0.2486 -0.1734
  857MOL0     C15581   0.896   9.895   8.975 -0.3780  0.2936  0.7076
  857MOL0     C15582   0.994   9.773   8.982 -0.5167 -0.1318  0.0586
  857MOL0     C15583   0.960   9.699   9.111  0.5422 -0.2766  0.2511
  857MOL0     O15584   1.076   9.619   9.157 -0.1253 -0.1871 -0.1005
  857MOL0     C15585   1.033   9.498   9.212 -0.0755 -0.6660  0.8933
  857MOL0     C15586   0.986   9.494   9.345  0.0614  0.4623  0.2797
  857MOL0     C15587   0.939   9.378   9.394  0.2634 -0.4998  0.3548
  857MOL0     C15588   0.935   9.264   9.317  0.2409 -0.2313 -0.2246
  857MOL0     C15589   0.871   9.144   9.374 -0.3823 -0.0192 -0.2652
  857MOL0     O15590   0.925   9.024   9.321  0.2418  0.5668 -0.1204
  857MOL0     C15591   0.844   8.915   9.332 -0.2099  0.5331 -0.1485
  857MOL0     C15592   0.807   8.851   9.450 -0.3664 -1.2731  0.2226
  857MOL0     C15593   0.709   8.751   9.455  0.7169  0.1553  0.6951
  857MOL0     C15594   0.659   8.699   9.334  0.2495 -0.0543  0.5325
  857MOL0     O15595   0.551   8.604   9.335  0.0896 -0.0968  0.2327
  857MOL0     C15596   0.433   8.642   9.256  0.7656  0.1781 -0.5890
  857MOL0     C15597   0.377   8.552   9.158  0.5212  0.4188 -0.5416
  857MOL0     C15598   0.373   8.407   9.208 -0.3626  0.4423 -0.0157
  857MOL0     C15599   0.268   8.329   9.132  0.2304  0.4175 -0.0424
  857MOL0     C15600   0.314   8.319   8.991 -0.1472  0.8574  0.4226
  857MOL0     C15601   0.229   8.234   8.888 -0.4851  0.4862 -0.5541
  857MOL0     C15602   0.254   8.289   8.741 -0.4006  0.0949  0.2443
  857MOL0     C15603   0.179   8.205   8.639 -0.3815 -0.2602  0.5869
  857MOL0    Cl15604   0.206   8.027   8.632 -0.1759  0.1750 -0.2515
  857MOL0     C15605   0.706   8.743   9.216  0.3179  1.2406  0.2159
  857MOL0     C15606   0.799   8.854   9.215  0.3725  0.1121 -0.4363
  857MOL0     O15607   0.779   9.149   9.457  0.2331 -0.1367 -0.3018
  857MOL0     C15608   0.977   9.265   9.184  0.4176  0.0516 -1.1291
  857MOL0     C15609   1.024   9.384   9.134 -0.2717 -0.8434  0.1394
  857MOL0     N15610   0.665  10.081   9.009 -0.1779  0.3164 -0.6828
  857MOL0     N15611   0.600  10.195   9.007  1.1883 -0.4286 -1.0133
  857MOL0     C15612   0.955   9.931   9.764  1.1726  0.1430 -0.3751
  857MOL0     C15613   1.039   9.822   9.779 -0.2439  0.1945 -0.5471
  857MOL0     C15614   1.072   9.626  10.027  0.2912  0.5858  0.5113
  857MOL0     C15615   1.030   9.682  10.149 -1.5034  0.3556  0.4510
  857MOL0     C15616   0.909   9.654  10.220 -0.9355 -0.6395  0.5570
  857MOL0     C15617   0.828   9.549  10.169 -0.3889 -1.1755 -0.1286
  857MOL0     O15618   0.722   9.509  10.244  0.6364  0.6053 -0.3045
  857MOL0     C15619   0.618   9.449  10.163 -0.4586 -1.4793  0.4476
  857MOL0     C15620   0.483   9.488  10.229 -0.0163  0.1837 -0.4135
  857MOL0     C15621   0.355   9.441  10.141 -0.9848 -0.7628  0.3709
  857MOL0     C15622   0.227   9.488  10.213 -0.1695 -0.3527  0.1186
  857MOL0     C15623   0.112   9.464  10.117  0.2843 -0.4998 -0.1765
  857MOL0     C15624   0.013   9.450  10.048  0.8028  0.8568 -0.1640
  857MOL0     C15625   0.870   9.488  10.047 -0.2467  0.5956  0.3399
  857MOL0     C15626   0.990   9.529   9.983  0.0266  0.5381 -0.1882
  857MOL0     C15627   1.037   9.434   9.870  0.3130 -0.2436  0.0162
  857MOL0     H15628   1.267   9.982   9.983  1.3077  2.0258 -1.7461
  857MOL0     H15629   1.124  10.171   9.926  3.1316 -0.2556 -0.4277
  857MOL0     H15630   1.049  10.213   9.609 -0.7069 -2.1887 -1.2748
  857MOL0     H15631   0.874  10.226   9.612 -0.1472  1.9320 -0.3972
  857MOL0     H15632   1.031  10.432   9.746  0.4417  0.6800 -1.0522
  857MOL0     H15633   0.854  10.426   9.734  0.0183  1.0353  1.3005
  857MOL0     H15634   1.049  10.427   9.510 -0.4657 -2.5807  1.8810
  857MOL0     H15635   0.974  10.567   9.577  1.3363 -0.7227  1.1712
  857MOL0     H15636   0.842  10.340   9.419  1.7692 -2.2123  2.5708
  857MOL0     H15637   0.748  10.423   9.552  1.5506  3.4402  0.8290
  857MOL0     H15638   0.770  10.635   9.445 -3.7501 -1.0676  1.0061
  857MOL0     H15639   0.853  10.560   9.299  0.2645  1.9206  0.0770
  857MOL0     H15640   0.580  10.550   9.423 -0.1853 -2.5533 -0.0525
  857MOL0     H15641   0.628  10.640   9.280 -0.8092 -1.0939 -2.5934
  857MOL0     H15642   0.500  10.413   9.248 -0.1654 -1.0190  2.5745
  857MOL0     H15643   0.645  10.333   9.299  2.0141 -0.3689 -1.8445
  857MOL0     H15644   0.589  10.467   9.036 -0.1130 -1.5456 -0.1385
  857MOL0     H15645   0.749  10.495   9.092 -0.3386  0.9074 -0.2118
  857MOL0     H15646   0.896  10.276   9.136  0.7389 -1.2882  0.3002
  857MOL0     H15647   1.008  10.064   9.063  0.1425  0.6817  0.3749
  857MOL0     H15648   0.899   9.978   9.179 -1.0930  0.6143 -0.1919
  857MOL0     H15649   0.795   9.855   8.974  0.2934 -1.6714 -2.7948
  857MOL0     H15650   0.910   9.931   8.873 -0.9840 -1.2236  0.0651
  857MOL0     H15651   1.091   9.823   8.968 -2.4390  3.9845 -0.0682
  857MOL0     H15652   0.992   9.704   8.897  1.4901 -1.5831  1.1192
  857MOL0     H15653   0.868   9.642   9.093  1.2262 -1.4569  0.3494
  857MOL0     H15654   0.943   9.773   9.190 -2.0577 -0.2652 -0.2408
  857MOL0     H15655   0.970   9.586   9.399 -2.5024 -0.0427  0.5074
  857MOL0     H15656   0.910   9.384   9.499  0.8131 -1.8450  0.6029
  857MOL0     H15657   0.857   8.892   9.537  1.0201 -1.0047 -0.6678
  857MOL0     H15658   0.658   8.731   9.549 -0.2330 -1.0783 -0.0362
  857MOL0     H15659   0.351   8.660   9.326  0.0583  1.9548 -1.7927
  857MOL0     H15660   0.451   8.741   9.212  2.2271 -0.3507 -1.2411
  857MOL0     H15661   0.277   8.586   9.132  0.5501 -0.2725 -1.5759
  857MOL0     H15662   0.445   8.566   9.073  0.2947 -1.4038 -1.0472
  857MOL0     H15663   0.471   8.360   9.196 -0.7994 -0.4256 -0.2361
  857MOL0     H15664   0.359   8.402   9.316  0.9525 -2.7426  0.1068
  857MOL0     H15665   0.176   8.388   9.130  0.8763  1.4530 -1.9827
  857MOL0     H15666   0.256   8.228   9.171  0.7488 -0.1741 -1.3510
  857MOL0     H15667   0.416   8.281   8.994 -1.3838 -2.8310  0.2306
  857MOL0     H15668   0.303   8.420   8.948  1.5809  1.6875  1.8083
  857MOL0     H15669   0.242   8.126   8.901 -1.5640  0.6003  2.1698
  857MOL0     H15670   0.125   8.257   8.912 -0.8522 -1.4272 -0.0801
  857MOL0     H15671   0.359   8.320   8.728 -1.3419  5.2288  2.1549
  857MOL0     H15672   0.203   8.384   8.719 -3.0806 -2.0865 -4.4344
  857MOL0     H15673   0.071   8.217   8.655 -0.6128 -1.4513  0.0287
  857MOL0     H15674   0.211   8.243   8.541  0.3656  2.5864  1.8406
  857MOL0     H15675   0.665   8.683   9.135 -1.7118 -2.8872  3.8420
  857MOL0     H15676   0.830   8.890   9.117  0.1653  0.0033 -0.5432
  857MOL0     H15677   0.954   9.171   9.135 -0.0179 -1.8020  2.2949
  857MOL0     H15678   1.047   9.397   9.028 -3.0032 -0.5117 -0.4858
  857MOL0     H15679   0.860   9.938   9.711  1.2869  3.0481 -0.3635
  857MOL0     H15680   1.006   9.723   9.748 -0.7208  0.1681  0.0316
  857MOL0     H15681   1.093   9.757  10.197  0.0648 -1.1496  0.8652
  857MOL0     H15682   0.873   9.699  10.312  1.6947 -0.0170  1.3687
  857MOL0     H15683   0.625   9.340  10.151  0.1360 -1.2839 -1.1771
  857MOL0     H15684   0.613   9.491  10.063  0.0180 -1.0421  0.6034
  857MOL0     H15685   0.485   9.597  10.237  0.0378  0.2209 -0.9088
  857MOL0     H15686   0.489   9.453  10.333  3.5971 -0.3855 -0.7060
  857MOL0     H15687   0.364   9.333  10.126  1.1015 -0.4373 -1.2873
  857MOL0     H15688   0.361   9.486  10.042 -1.8316 -2.4138 -0.4671
  857MOL0     H15689   0.206   9.422  10.296 -0.5177 -2.6660 -1.7121
  857MOL0     H15690   0.245   9.593  10.241  2.2215  0.2323 -2.9894
  857MOL0     H15691  -0.075   9.414   9.997  0.6702 -4.4491  2.9843
  857MOL0     H15692   0.815   9.399  10.016  0.9812 -0.1116  0.1138
  857MOL0     H15693   0.983   9.340   9.881 -2.2672  1.2571  1.1550
  857MOL0     H15694   1.008   9.474   9.772  1.0343 -1.6868 -0.8088
  857MOL0     H15695   1.144   9.414   9.858  0.1436  0.6787 -4.7761
  858MOL0     O15696  10.286   6.905   2.690  0.4483 -0.6103 -0.1149
  858MOL0     C15697  10.317   6.960   2.581  0.5706  0.6517 -1.3459
  858MOL0     O15698  10.315   7.100   2.564 -0.1930  0.0945  0.5344
  858MOL0     C15699  10.261   7.189   2.661 -0.7033 -0.4369  0.7486
  858MOL0     C15700  10.177   7.165   2.765 -0.0903 -0.1692 -1.4530
  858MOL0     C15701  10.122   7.271   2.842 -0.1241 -0.5886 -0.0658
  858MOL0     C15702  10.155   7.406   2.814  0.5049  0.1354 -0.0882
  858MOL0     O15703  10.099   7.506   2.891 -0.2645 -0.0155  0.6143
  858MOL0     C15704  10.072   7.642   2.850  0.0730 -0.2250 -0.2914
  858MOL0     C15705   9.990   7.725   2.954 -0.2927 -0.5900  0.0707
  858MOL0     C15706  10.029   7.702   3.101  0.3579  0.9587 -0.5245
  858MOL0     C15707   9.924   7.751   3.198  0.1839  0.5954  0.2900
  858MOL0     C15708   9.890   7.903   3.195 -0.8100 -0.5190 -0.7792
  858MOL0     C15709   9.832   7.977   3.324  1.2383 -0.4160 -0.1238
  858MOL0     C15710   9.935   8.003   3.430 -0.2212 -0.2859  0.5199
  858MOL0     C15711   9.892   8.064   3.558 -0.1951  0.0807  0.0914
  858MOL0     N15712   9.811   7.968   3.637  0.0349 -0.6093 -0.1167
  858MOL0     C15713   9.700   8.006   3.703  0.7100  0.2442 -0.4739
  858MOL0     C15714   9.647   7.890   3.752 -0.4520 -0.3664  0.7615
  858MOL0     C15715   9.526   7.880   3.842 -0.2004 -0.7299 -0.2800
  858MOL0     C15716   9.534   7.956   3.976 -0.3308 -0.5877 -0.4677
  858MOL0     C15717   9.585   7.862   4.092 -0.2338  0.5674  0.1630
  858MOL0     C15718   9.483   7.748   4.126 -0.3978 -0.0364  1.0211
  858MOL0     O15719   9.361   7.813   4.151  0.2040 -0.8452  0.6093
  858MOL0     C15720   9.262   7.752   4.226  0.2363 -1.0655 -0.7618
  858MOL0     C15721   9.182   7.831   4.310 -0.4559 -0.3214  0.3820
  858MOL0     C15722   9.084   7.787   4.390 -0.8958 -0.3337 -0.0647
  858MOL0     C15723   9.048   7.641   4.392 -0.3261 -0.2395  0.8323
  858MOL0     C15724   8.952   7.589   4.484  0.6477 -0.8213  0.4942
  858MOL0     O15725   8.953   7.450   4.493 -0.6186 -0.3611  0.0796
  858MOL0     C15726   8.935   7.396   4.619 -0.1891 -0.9513 -0.6122
  858MOL0     C15727   8.985   7.449   4.742  0.5173 -0.2635  0.8258
  858MOL0     C15728   8.932   7.382   4.856 -0.2232 -0.1493  0.0116
  858MOL0     C15729   8.835   7.281   4.858  0.9079 -0.3969  0.2325
  858MOL0     O15730   8.779   7.237   4.976 -0.1215 -0.4918  0.5015
  858MOL0     C15731   8.871   7.223   5.082 -0.3392 -0.1625 -0.7093
  858MOL0     C15732   8.811   7.145   5.194 -0.2289 -0.1515  0.0947
  858MOL0     C15733   8.815   6.982   5.185 -0.0257  0.5035  0.5865
  858MOL0     C15734   8.784   6.911   5.324 -1.0514  0.7862 -0.2386
  858MOL0     C15735   8.817   6.755   5.311 -0.4134 -0.1047  1.2490
  858MOL0     C15736   8.852   6.701   5.442 -0.0567  0.5951 -0.2345
  858MOL0     C15737   8.870   6.548   5.439  0.3646 -0.5519 -0.4091
  858MOL0     C15738   8.862   6.481   5.585  0.6729 -0.3712 -1.4063
  858MOL0    Cl15739   8.706   6.476   5.657 -0.4863 -0.1711  0.0540
  858MOL0     C15740   8.788   7.233   4.738  0.8534 -0.9375 -0.6393
  858MOL0     C15741   8.841   7.290   4.622  0.2954 -0.5799 -0.8126
  858MOL0     O15742   8.878   7.664   4.546  0.4840  0.9333 -0.5432
  858MOL0     C15743   9.122   7.563   4.300 -0.1167 -0.1874 -1.1915
  858MOL0     C15744   9.243   7.609   4.224 -0.6186 -0.3938 -0.8906
  858MOL0     N15745   9.729   7.788   3.701 -0.0549  0.0497 -0.3065
  858MOL0     N15746   9.834   7.837   3.648  0.5596  0.6587  0.2699
  858MOL0     C15747  10.231   7.425   2.705 -0.0851 -0.5452 -0.2785
  858MOL0     C15748  10.291   7.324   2.629 -1.0699 -0.3295 -0.8248
  858MOL0     C15749  10.362   6.873   2.466  0.0601 -1.1316 -1.0531
  858MOL0     C15750  10.347   6.730   2.469  0.5533 -0.5110 -0.1520
  858MOL0     C15751  10.382   6.646   2.356  0.5080  0.0109  0.1290
  858MOL0     C15752  10.454   6.703   2.248 -0.1645  0.1330 -0.8916
  858MOL0     O15753  10.497   6.644   2.132 -0.1140 -0.3005 -0.3320
  858MOL0     C15754  10.513   6.499   2.130  0.2482  0.1279  0.6078
  858MOL0     C15755  10.620   6.434   2.218  0.2506 -0.5550 -0.0502
  858MOL0     C15756  10.664   6.296   2.163  0.5599 -0.4695 -0.0783
  858MOL0     C15757  10.812   6.272   2.207  0.2065 -0.6968  0.2365
  858MOL0     C15758  10.850   6.134   2.186 -0.2397 -0.3555 -0.6628
  858MOL0     C15759  10.878   6.013   2.168  0.4734  0.1495 -0.3503
  858MOL0     C15760  10.465   6.844   2.241  0.0072 -0.8172 -0.3784
  858MOL0     C15761  10.423   6.935   2.344 -0.0232  0.1064 -0.6210
  858MOL0     C15762  10.461   7.070   2.323 -0.2294  0.4634 -0.4555
  858MOL0     H15763  10.143   7.065   2.787 -4.0305  1.8410  3.7878
  858MOL0     H15764  10.058   7.257   2.928 -2.2248 -0.4449 -1.5531
  858MOL0     H15765  10.171   7.687   2.843  1.0776 -1.2574  4.0339
  858MOL0     H15766  10.015   7.635   2.757  1.2620  0.2982 -1.0756
  858MOL0     H15767   9.882   7.715   2.941 -0.1665  0.3926 -2.1184
  858MOL0     H15768  10.016   7.827   2.924 -2.4954  0.9223  2.7793
  858MOL0     H15769  10.128   7.746   3.118  2.5104 -3.5773  0.2679
  858MOL0     H15770  10.047   7.595   3.115 -0.5046  0.5856 -2.0909
  858MOL0     H15771   9.827   7.706   3.175 -1.1667  3.3462  0.1691
  858MOL0     H15772   9.941   7.720   3.301  1.7379 -3.1130 -0.9053
  858MOL0     H15773   9.982   7.955   3.167  0.7621 -1.8489  1.5821
  858MOL0     H15774   9.813   7.902   3.117 -2.7435 -1.1168  1.0462
  858MOL0     H15775   9.780   8.068   3.292  2.5629 -0.4974 -2.6677
  858MOL0     H15776   9.752   7.915   3.367 -2.1269  2.9175 -0.9612
  858MOL0     H15777  10.019   8.055   3.381  1.8093 -1.7507  2.2668
  858MOL0     H15778   9.987   7.911   3.458 -1.3241 -0.9418  0.4402
  858MOL0     H15779   9.972   8.092   3.627 -0.0553 -1.9651  0.8354
  858MOL0     H15780   9.840   8.159   3.546 -0.6985  0.2681  3.0216
  858MOL0     H15781   9.657   8.105   3.715 -0.7625 -0.5289  1.0322
  858MOL0     H15782   9.438   7.928   3.800 -0.4408  0.0687  1.0591
  858MOL0     H15783   9.503   7.774   3.856  1.9136 -1.2424 -0.3694
  858MOL0     H15784   9.607   8.037   3.964 -0.3548 -0.4498  0.2805
  858MOL0     H15785   9.437   8.002   3.997  0.8410  1.7475  0.1696
  858MOL0     H15786   9.606   7.917   4.183 -2.4330  0.7268  0.6370
  858MOL0     H15787   9.670   7.813   4.044 -0.2436  1.4177 -0.7629
  858MOL0     H15788   9.513   7.674   4.201  4.1640  1.4672  0.9251
  858MOL0     H15789   9.469   7.685   4.038  0.4070 -0.8794  1.4720
  858MOL0     H15790   9.216   7.934   4.315  1.7291 -0.6732 -3.2851
  858MOL0     H15791   9.024   7.855   4.449  1.5494  1.9487 -0.0120
  858MOL0     H15792   9.060   7.527   4.744 -0.5892  0.8417  0.4766
  858MOL0     H15793   8.974   7.408   4.953 -0.0583 -0.9241  0.1562
  858MOL0     H15794   8.972   7.185   5.061  0.3406  0.8086  0.6407
  858MOL0     H15795   8.893   7.326   5.112 -2.1144  0.2155 -0.6232
  858MOL0     H15796   8.871   7.170   5.281 -1.8742  0.8378  0.9982
  858MOL0     H15797   8.710   7.176   5.224 -0.3708 -1.6127  1.2569
  858MOL0     H15798   8.746   6.956   5.104  0.8465  0.3006 -0.1052
  858MOL0     H15799   8.916   6.956   5.152 -1.5836  0.1909 -4.9590
  858MOL0     H15800   8.681   6.923   5.358 -0.6917  4.7998 -0.0861
  858MOL0     H15801   8.854   6.955   5.396 -0.8145  1.4647 -0.8709
  858MOL0     H15802   8.901   6.746   5.242  1.6610  0.8544  3.4838
  858MOL0     H15803   8.733   6.708   5.259  0.9765 -0.8458 -0.4430
  858MOL0     H15804   8.944   6.747   5.480 -1.1911 -0.4514  4.3465
  858MOL0     H15805   8.779   6.737   5.515  0.4795  1.2520 -0.0129
  858MOL0     H15806   8.968   6.517   5.401  1.7617 -3.4957  4.6515
  858MOL0     H15807   8.780   6.517   5.385  0.0726  0.7261 -0.6770
  858MOL0     H15808   8.883   6.375   5.568  6.8331  0.4838 -1.6355
  858MOL0     H15809   8.926   6.535   5.656 -2.6950  0.8089  0.9956
  858MOL0     H15810   8.702   7.166   4.738 -0.8299  1.1065 -0.7048
  858MOL0     H15811   8.806   7.273   4.520 -0.9814 -1.0556 -0.3186
  858MOL0     H15812   9.108   7.456   4.287  3.5697 -0.6158 -2.9379
  858MOL0     H15813   9.296   7.541   4.158 -2.6492 -0.3284 -2.7175
  858MOL0     H15814  10.255   7.529   2.686  1.2461 -0.1015  3.1560
  858MOL0     H15815  10.346   7.349   2.538  1.0590 -1.8408 -0.0180
  858MOL0     H15816  10.287   6.681   2.545 -1.6404  1.4642 -0.4838
  858MOL0     H15817  10.354   6.542   2.346  1.5306 -0.3918  1.2500
  858MOL0     H15818  10.541   6.481   2.025  0.1803  0.0744  0.5988
  858MOL0     H15819  10.423   6.441   2.150  0.4148 -0.8503 -1.2052
  858MOL0     H15820  10.584   6.426   2.321 -0.6877  3.1854  0.0614
  858MOL0     H15821  10.699   6.510   2.218 -1.2128  1.3706  4.8197
  858MOL0     H15822  10.650   6.267   2.058  0.6950 -1.9568  0.3033
  858MOL0     H15823  10.601   6.228   2.221 -2.5768  1.9902 -0.3283
  858MOL0     H15824  10.878   6.331   2.143  0.0792 -1.3962 -0.5464
  858MOL0     H15825  10.829   6.308   2.309 -0.7911  2.6236 -0.6328
  858MOL0     H15826  10.890   5.911   2.138  4.0624  0.3122 -0.0034
  858MOL0     H15827  10.488   6.890   2.146  2.9789 -1.9679 -0.3433
  858MOL0     H15828  10.523   7.078   2.233 -0.1302 -0.6409 -0.5056
  858MOL0     H15829  10.367   7.123   2.309 -1.4365 -1.2286  0.7442
  858MOL0     H15830  10.511   7.108   2.413 -0.1473  0.5417 -0.5333
  859MOL0     O15831   3.890   0.770   0.784  0.8313 -0.0414 -0.1039
  859MOL0     C15832   3.940   0.881   0.796 -0.6837 -0.0504  1.2158
  859MOL0     O15833   4.066   0.912   0.838 -0.8028  0.3926 -1.1648
  859MOL0     C15834   4.170   0.822   0.852  0.7885  0.4402 -0.7185
  859MOL0     C15835   4.173   0.714   0.766  0.5499  0.4115 -0.4177
  859MOL0     C15836   4.246   0.606   0.788 -0.7633 -0.3330 -0.3130
  859MOL0     C15837   4.346   0.611   0.886  0.3672  1.1163 -0.0353
  859MOL0     O15838   4.431   0.505   0.893  0.1867 -0.6824 -0.1942
  859MOL0     C15839   4.459   0.448   1.024  0.3404  0.3455  0.7258
  859MOL0     C15840   4.579   0.509   1.084 -0.9347  0.7595  0.9290
  859MOL0     C15841   4.703   0.484   0.989  0.0935  0.0422 -0.9431
  859MOL0     C15842   4.780   0.612   0.973  0.1330 -0.6106  0.0424
  859MOL0     C15843   4.852   0.586   0.843  0.7467  0.6075  1.0240
  859MOL0     C15844   4.916   0.715   0.802  0.1893 -0.7621  0.6439
  859MOL0     C15845   4.820   0.789   0.713 -0.6034  0.7458 -0.2716
  859MOL0     C15846   4.888   0.925   0.679 -0.7989  0.9570 -0.3139
  859MOL0     N15847   4.985   0.912   0.566  0.6956  0.0467 -0.4954
  859MOL0     C15848   4.951   0.862   0.453 -0.2653  0.0778 -0.4442
  859MOL0     C15849   5.062   0.823   0.390 -0.7600 -0.3709 -0.2330
  859MOL0     C15850   5.072   0.731   0.269  0.1636 -0.1536  1.0865
  859MOL0     C15851   5.032   0.812   0.146 -0.0207 -0.3306 -0.1488
  859MOL0     C15852   5.031   0.710   0.029  0.3578 -1.2355 -0.5819
  859MOL0     C15853   4.947   0.582   0.045 -0.1366 -0.6579 -0.4781
  859MOL0     O15854   4.834   0.618   0.123 -0.3754  0.1204 -0.3388
  859MOL0     C15855   4.717   0.639   0.054  0.3252 -0.4444 -0.9969
  859MOL0     C15856   4.672   0.551  -0.047 -0.3988 -0.3298  0.7114
  859MOL0     C15857   4.560   0.587  -0.130  0.0594  0.1070 -0.2085
  859MOL0     C15858   4.483   0.704  -0.095  0.0888 -0.5565  0.1304
  859MOL0     C15859   4.349   0.740  -0.155  0.0343  0.0203  0.1276
  859MOL0     O15860   4.325   0.682  -0.268  0.3467 -0.9886  0.7010
  859MOL0     C15861   4.203   0.713  -0.329 -0.9639  0.8534  0.4936
  859MOL0     C15862   4.120   0.594  -0.334  0.5987 -0.8544 -0.0978
  859MOL0     C15863   3.995   0.604  -0.394  0.0875  0.3662  0.8943
  859MOL0     C15864   3.953   0.724  -0.452 -0.3601 -0.0090 -0.8993
  859MOL0     O15865   3.828   0.729  -0.513 -0.3955 -0.0438 -0.5652
  859MOL0     C15866   3.834   0.714  -0.653  0.5144  0.5804  0.7420
  859MOL0     C15867   3.749   0.588  -0.691 -0.2665  0.5082  0.4787
  859MOL0     C15868   3.599   0.622  -0.675  0.1737 -0.2129 -0.6045
  859MOL0     C15869   3.524   0.490  -0.689 -1.5232  0.0952 -0.3356
  859MOL0     C15870   3.376   0.492  -0.668  0.4665  0.1117 -0.5980
  859MOL0     C15871   3.336   0.539  -0.527 -1.1809  0.5657 -0.2715
  859MOL0     C15872   3.186   0.487  -0.500  0.0496  0.2895  0.9082
  859MOL0     C15873   3.186   0.461  -0.352  0.4893 -0.1446  0.2069
  859MOL0    Cl15874   3.250   0.292  -0.306  0.1290 -0.2456 -0.3088
  859MOL0     C15875   4.050   0.826  -0.468  0.5437 -0.3356  0.4439
  859MOL0     C15876   4.173   0.824  -0.398 -0.3099  0.4378 -0.9748
  859MOL0     O15877   4.267   0.805  -0.086  0.5234  0.4802 -0.1855
  859MOL0     C15878   4.533   0.793   0.007 -0.9681 -0.2810  1.1387
  859MOL0     C15879   4.641   0.755   0.082  0.4298  0.4809  1.1997
  859MOL0     N15880   5.163   0.842   0.481 -0.5809 -1.1041 -0.3436
  859MOL0     N15881   5.118   0.910   0.584  0.0991  0.0136 -0.9529
  859MOL0     C15882   4.353   0.727   0.965 -0.6538  0.2117 -0.0420
  859MOL0     C15883   4.270   0.837   0.951  0.4053 -0.1968 -0.4050
  859MOL0     C15884   3.851   0.989   0.758 -0.0454 -0.2336  0.3545
  859MOL0     C15885   3.790   0.977   0.633 -0.3347 -0.1999  0.6212
  859MOL0     C15886   3.714   1.082   0.582  1.2253  0.6154 -0.8388
  859MOL0     C15887   3.688   1.199   0.653 -1.0559 -0.8352 -0.6028
  859MOL0     O15888   3.609   1.308   0.611  0.0530  0.0738  0.3642
  859MOL0     C15889   3.604   1.334   0.474 -0.1093 -0.3811  0.2723
  859MOL0     C15890   3.501   1.447   0.447  0.2016 -0.3977  0.6371
  859MOL0     C15891   3.353   1.415   0.463 -0.3655 -0.6257  0.8603
  859MOL0     C15892   3.296   1.302   0.377  0.8195  0.9887 -0.0769
  859MOL0     C15893   3.300   1.325   0.233 -0.0182 -0.5633  0.4209
  859MOL0     C15894   3.317   1.345   0.109 -0.3249  0.0346  0.4179
  859MOL0     C15895   3.754   1.215   0.776  0.2338 -0.7860  0.0638
  859MOL0     C15896   3.836   1.113   0.822 -0.4314 -0.2882 -0.5917
  859MOL0     C15897   3.903   1.151   0.950 -0.0015  1.0121 -0.3964
  859MOL0     H15898   4.100   0.712   0.685  2.2225  1.1925 -2.0033
  859MOL0     H15899   4.227   0.512   0.739 -0.9090  0.5179 -1.9425
  859MOL0     H15900   4.366   0.470   1.079 -1.1802 -2.5552 -0.4798
  859MOL0     H15901   4.479   0.341   1.018  1.9037  0.6554 -0.1168
  859MOL0     H15902   4.589   0.465   1.184 -1.0296 -0.9591  0.2294
  859MOL0     H15903   4.565   0.616   1.098  1.2194  1.3038 -0.5684
  859MOL0     H15904   4.670   0.437   0.896  1.0632 -0.6145 -0.9713
  859MOL0     H15905   4.757   0.409   1.048 -0.8891  1.1107  1.4531
  859MOL0     H15906   4.710   0.696   0.967  0.9528  0.0246 -1.2507
  859MOL0     H15907   4.851   0.624   1.055 -0.2924 -0.6300  0.4101
  859MOL0     H15908   4.920   0.505   0.871 -1.9654 -2.3544 -0.2790
  859MOL0     H15909   4.792   0.538   0.765 -1.6335  1.6941  2.0774
  859MOL0     H15910   4.940   0.784   0.884 -0.0610  0.3126 -0.1690
  859MOL0     H15911   5.006   0.699   0.741 -0.4249 -0.2899 -0.4068
  859MOL0     H15912   4.731   0.807   0.773  1.2589  0.0997  2.9342
  859MOL0     H15913   4.791   0.730   0.626 -0.5608  2.4995 -1.5335
  859MOL0     H15914   4.805   0.994   0.663  0.0665  2.3097  0.7445
  859MOL0     H15915   4.950   0.956   0.764  0.2869 -3.1044  0.5777
  859MOL0     H15916   4.851   0.830   0.425 -1.9673  2.4829  2.3411
  859MOL0     H15917   5.173   0.692   0.254  0.3871  0.9562 -0.5585
  859MOL0     H15918   5.012   0.642   0.289 -0.5952 -0.3200 -1.6291
  859MOL0     H15919   4.932   0.855   0.161 -0.4690 -1.2364 -0.4717
  859MOL0     H15920   5.108   0.887   0.123 -1.0990  0.7185 -0.3968
  859MOL0     H15921   5.134   0.678   0.012  1.7492  2.5349 -0.2709
  859MOL0     H15922   4.997   0.758  -0.064  0.4490 -3.5456 -1.8739
  859MOL0     H15923   5.011   0.514   0.102  0.9797 -0.1471 -1.0963
  859MOL0     H15924   4.928   0.544  -0.056  2.3553 -2.0368 -0.5045
  859MOL0     H15925   4.731   0.462  -0.066 -0.7620 -0.0647 -2.0493
  859MOL0     H15926   4.546   0.515  -0.210 -1.1356  0.2616 -0.1546
  859MOL0     H15927   4.161   0.495  -0.313  0.4726 -0.7763  0.5590
  859MOL0     H15928   3.931   0.516  -0.397  0.3081  0.0059  3.8373
  859MOL0     H15929   3.785   0.802  -0.697 -2.9177 -0.5907  1.9151
  859MOL0     H15930   3.936   0.703  -0.691  1.0228  4.1178  0.7597
  859MOL0     H15931   3.776   0.539  -0.785  0.3585 -0.8285  1.3203
  859MOL0     H15932   3.767   0.511  -0.615 -2.8569 -0.0968  0.5801
  859MOL0     H15933   3.576   0.657  -0.574 -1.3841  1.0328 -1.3372
  859MOL0     H15934   3.572   0.702  -0.746 -0.9844  0.2727  0.3319
  859MOL0     H15935   3.556   0.426  -0.606  1.9306  1.4113 -0.5191
  859MOL0     H15936   3.540   0.446  -0.787 -0.3638  1.6857 -0.8858
  859MOL0     H15937   3.337   0.391  -0.682 -1.5560  0.9090 -1.0822
  859MOL0     H15938   3.341   0.546  -0.756  1.8772  0.0489 -1.2224
  859MOL0     H15939   3.414   0.495  -0.464 -0.0356  0.8531 -1.4472
  859MOL0     H15940   3.335   0.648  -0.523 -3.4152  0.6480 -1.3678
  859MOL0     H15941   3.160   0.407  -0.570  2.0053  0.4304 -0.0401
  859MOL0     H15942   3.126   0.577  -0.519  0.2852  0.5529  1.4054
  859MOL0     H15943   3.243   0.535  -0.295 -0.5234  0.3224  0.6417
  859MOL0     H15944   3.084   0.468  -0.312  1.2053 -0.7803  2.2593
  859MOL0     H15945   4.026   0.904  -0.538  1.4084 -0.9893 -0.6096
  859MOL0     H15946   4.261   0.883  -0.422 -2.1869  2.4870 -3.3792
  859MOL0     H15947   4.465   0.876   0.030 -1.8637 -0.8449  0.5875
  859MOL0     H15948   4.680   0.815   0.164  4.5279  1.5386 -1.2392
  859MOL0     H15949   4.434   0.740   1.036 -0.8658 -0.1871  0.2779
  859MOL0     H15950   4.264   0.922   1.017 -4.6087 -1.6354  1.4090
  859MOL0     H15951   3.804   0.884   0.580 -0.8905 -1.4149  2.5184
  859MOL0     H15952   3.666   1.075   0.485  0.6171  4.0190 -0.9060
  859MOL0     H15953   3.568   1.246   0.421  0.6739 -0.8006  0.4126
  859MOL0     H15954   3.707   1.357   0.443 -0.5276  0.5271 -0.4944
  859MOL0     H15955   3.507   1.464   0.339 -1.3637  1.4075  0.7746
  859MOL0     H15956   3.512   1.539   0.504 -3.2084 -0.3358  1.4623
  859MOL0     H15957   3.305   1.510   0.437  1.9598  0.2577 -0.4909
  859MOL0     H15958   3.324   1.406   0.568 -3.2023  4.2879  0.7732
  859MOL0     H15959   3.342   1.205   0.395  0.4652  0.5252 -1.5600
  859MOL0     H15960   3.192   1.292   0.408  1.8432 -1.4694  2.9982
  859MOL0     H15961   3.339   1.360   0.005  1.6900  1.8612  1.0314
  859MOL0     H15962   3.744   1.311   0.827  0.1034 -0.4952 -0.5097
  859MOL0     H15963   3.845   1.102   1.029 -0.3889  1.0771 -0.6382
  859MOL0     H15964   4.009   1.126   0.953  0.0663  1.3543  0.4884
  859MOL0     H15965   3.906   1.260   0.958  2.2088  1.4084 -4.3219
  860MOL0     O15966   7.237  10.642  11.105 -0.0425  0.2426  0.4472
  860MOL0     C15967   7.322  10.626  11.017 -0.0401 -0.0296  0.0822
  860MOL0     O15968   7.449  10.576  11.022  0.2046 -0.1022 -0.4060
  860MOL0     C15969   7.500  10.535  11.139  0.1708 -0.0937 -0.9552
  860MOL0     C15970   7.642  10.532  11.162  0.3050  0.3932  0.1046
  860MOL0     C15971   7.699  10.478  11.279 -0.1836  0.2844  0.7422
  860MOL0     C15972   7.621  10.434  11.385  0.0707  0.2553  0.4255
  860MOL0     O15973   7.693  10.375  11.490  0.6949  0.0562 -1.1436
  860MOL0     C15974   7.634  10.400  11.622  0.3690  0.2670 -0.4943
  860MOL0     C15975   7.731  10.335  11.716  0.2166  0.3672 -0.5148
  860MOL0     C15976   7.662  10.303  11.847  0.3505  0.2366 -1.4896
  860MOL0     C15977   7.594  10.431  11.920  0.1534 -0.2636 -0.1003
  860MOL0     C15978   7.466  10.383  12.002 -0.1065 -0.2018  0.4767
  860MOL0     C15979   7.419  10.505  12.088 -0.0389  0.4726 -0.0398
  860MOL0     C15980   7.306  10.451  12.184  0.5443  0.8258 -0.4806
  860MOL0     C15981   7.352  10.382  12.313 -0.6885  0.1007  0.1362
  860MOL0     N15982   7.424  10.470  12.412 -0.4371  0.6981 -0.4836
  860MOL0     C15983   7.466  10.418  12.528  0.1423  0.2297  1.1599
  860MOL0     C15984   7.559  10.516  12.564 -0.2208  0.1548 -0.7227
  860MOL0     C15985   7.623  10.517  12.699 -0.2698 -1.1071 -0.1873
  860MOL0     C15986   7.776  10.516  12.684  0.1417  0.9040  0.1068
  860MOL0     C15987   7.862  10.505  12.815 -0.1128 -0.1702  0.8927
  860MOL0     C15988   7.823  10.396  12.914  0.0095  0.1315 -0.0933
  860MOL0     O15989   7.792  10.271  12.852 -0.7240 -0.7680  0.0699
  860MOL0     C15990   7.697  10.186  12.911 -0.0730  0.0289  0.5128
  860MOL0     C15991   7.590  10.148  12.829 -0.4728 -0.5496  0.1066
  860MOL0     C15992   7.486  10.073  12.886 -0.1835  0.5043  0.1017
  860MOL0     C15993   7.481  10.041  13.026  0.6398 -0.7529  0.3872
  860MOL0     C15994   7.361   9.979  13.089  0.5215 -0.0027  0.1970
  860MOL0     O15995   7.293   9.894  13.014  0.3929  0.5293  0.4154
  860MOL0     C15996   7.189   9.823  13.069  0.0745  1.3917  1.1659
  860MOL0     C15997   7.210   9.699  13.116  0.3302 -0.3420  0.6993
  860MOL0     C15998   7.103   9.634  13.175  0.6592  0.0225  0.0242
  860MOL0     C15999   6.982   9.699  13.213 -0.6957  1.4183  0.2852
  860MOL0     O16000   6.894   9.622  13.285 -0.5372  0.3163 -0.3852
  860MOL0     C16001   6.785   9.580  13.213  0.7907 -0.9671  0.1212
  860MOL0     C16002   6.824   9.461  13.132 -0.0342  0.4634  0.3832
  860MOL0     C16003   6.854   9.332  13.214 -0.6968  0.0783 -0.2748
  860MOL0     C16004   6.736   9.241  13.273 -0.5500 -0.9243 -0.5388
  860MOL0     C16005   6.786   9.110  13.314 -0.1175  0.6018 -0.8675
  860MOL0     C16006   6.677   9.023  13.373  0.8477  0.2351  0.3430
  860MOL0     C16007   6.741   8.894  13.429 -0.5211 -0.6016 -0.1416
  860MOL0     C16008   6.863   8.910  13.515 -0.2359 -0.7654  0.5268
  860MOL0    Cl16009   6.816   9.021  13.659 -0.0872 -0.2515  0.0698
  860MOL0     C16010   6.968   9.826  13.174  0.7576  0.4016 -0.4856
  860MOL0     C16011   7.070   9.886  13.100  0.6232  0.1795 -0.8072
  860MOL0     O16012   7.330  10.017  13.206 -1.0602  0.0315 -0.1807
  860MOL0     C16013   7.588  10.081  13.106 -0.3176  0.1792 -0.0121
  860MOL0     C16014   7.695  10.147  13.053 -0.2175 -0.2040  1.3724
  860MOL0     N16015   7.567  10.623  12.478  0.0572 -0.3978 -0.1182
  860MOL0     N16016   7.482  10.594  12.390 -0.0170 -0.1800  0.1635
  860MOL0     C16017   7.482  10.460  11.372 -0.2265 -0.5493 -0.9741
  860MOL0     C16018   7.427  10.488  11.248  0.5733  0.6100 -0.3314
  860MOL0     C16019   7.276  10.645  10.885 -0.2459  0.1393 -0.1878
  860MOL0     C16020   7.349  10.730  10.801  0.3473 -0.1580  0.2205
  860MOL0     C16021   7.330  10.759  10.672  0.6970  0.5921 -0.1746
  860MOL0     C16022   7.227  10.685  10.610 -0.2969 -0.1897 -1.1911
  860MOL0     O16023   7.219  10.725  10.483  0.2602 -1.0457  0.1844
  860MOL0     C16024   7.098  10.692  10.421 -0.2450 -0.1590  0.4059
  860MOL0     C16025   7.112  10.748  10.277 -0.3745  0.7108  0.3081
  860MOL0     C16026   7.100  10.900  10.272  0.2468 -0.5823  0.3303
  860MOL0     C16027   7.119  10.951  10.123  0.8342 -0.1696  0.0019
  860MOL0     C16028   7.144  11.094  10.117 -0.2234 -0.0429  0.9424
  860MOL0     C16029   7.177  11.214  10.117 -1.0024 -1.2789 -0.1200
  860MOL0     C16030   7.150  10.588  10.680 -0.1914  0.1896  1.1346
  860MOL0     C16031   7.176  10.565  10.818 -0.6503  0.4568  0.0722
  860MOL0     C16032   7.099  10.448  10.878 -0.0414 -0.5997 -1.2381
  860MOL0     H16033   7.707  10.576  11.086  0.6841 -2.3445 -1.2879
  860MOL0     H16034   7.807  10.477  11.277 -0.1310  1.9031 -1.5176
  860MOL0     H16035   7.632  10.508  11.634 -2.3814  0.6332 -3.2176
  860MOL0     H16036   7.530  10.370  11.635  0.0368  0.3516 -2.6898
  860MOL0     H16037   7.821  10.397  11.722  0.4920 -0.0932  0.2836
  860MOL0     H16038   7.760  10.236  11.678  0.8246  0.5127 -0.4397
  860MOL0     H16039   7.730  10.247  11.913  1.4799  2.1665 -0.9416
  860MOL0     H16040   7.577  10.238  11.824  1.2773 -0.9354 -1.7135
  860MOL0     H16041   7.661  10.470  11.997 -0.5186  2.0618 -0.6200
  860MOL0     H16042   7.566  10.515  11.856 -0.9772  0.3130  1.0955
  860MOL0     H16043   7.393  10.354  11.926 -0.8301  1.7817  0.3510
  860MOL0     H16044   7.496  10.300  12.066 -1.8718  0.9091  2.9061
  860MOL0     H16045   7.497  10.545  12.152 -1.8218  0.8050  2.0595
  860MOL0     H16046   7.372  10.586  12.030 -1.8949 -0.9066 -0.5646
  860MOL0     H16047   7.226  10.392  12.138  0.9657 -0.5128  0.4404
  860MOL0     H16048   7.255  10.541  12.218  3.8815  3.4710 -1.8542
  860MOL0     H16049   7.266  10.331  12.358 -1.2440  0.7516 -0.1781
  860MOL0     H16050   7.427  10.315  12.269  1.2225  2.5407 -0.5576
  860MOL0     H16051   7.448  10.323  12.578  1.7823 -0.5575  0.3188
  860MOL0     H16052   7.597  10.611  12.748  0.4216 -0.7864 -0.4117
  860MOL0     H16053   7.592  10.437  12.767  0.8142 -0.8332  0.6603
  860MOL0     H16054   7.804  10.434  12.617  1.1293  0.8033  0.6241
  860MOL0     H16055   7.808  10.610  12.637 -1.8544  1.0025 -1.1664
  860MOL0     H16056   7.865  10.595  12.877 -0.5799  0.6707 -0.2568
  860MOL0     H16057   7.966  10.500  12.783 -0.4726  2.8415 -1.1840
  860MOL0     H16058   7.733  10.426  12.970 -0.5823 -1.9065  0.1203
  860MOL0     H16059   7.903  10.392  12.988  0.7683  0.4928 -0.8817
  860MOL0     H16060   7.589  10.186  12.728  3.2328  1.1875  0.5525
  860MOL0     H16061   7.412  10.037  12.815 -1.8679  0.2717  1.8804
  860MOL0     H16062   7.306   9.648  13.106  1.4087  1.8566 -1.1026
  860MOL0     H16063   7.116   9.535  13.218  1.2175 -0.6931 -1.6958
  860MOL0     H16064   6.709   9.554  13.287 -0.3768 -0.2287 -0.7859
  860MOL0     H16065   6.748   9.662  13.151  1.1101  0.9887  2.3595
  860MOL0     H16066   6.742   9.445  13.061 -0.1822  0.9146  0.4467
  860MOL0     H16067   6.917   9.477  13.077  0.1363  1.8133  1.0161
  860MOL0     H16068   6.913   9.273  13.143  1.1681  1.3101  0.1811
  860MOL0     H16069   6.924   9.346  13.297  1.3710 -5.2392 -0.7352
  860MOL0     H16070   6.656   9.234  13.198 -0.5271 -2.3794 -0.4591
  860MOL0     H16071   6.695   9.287  13.364  2.1449 -2.0733  1.3839
  860MOL0     H16072   6.859   9.129  13.394  1.4289 -1.3529 -1.7147
  860MOL0     H16073   6.843   9.050  13.241  2.9899  0.8840  1.1212
  860MOL0     H16074   6.614   9.080  13.442 -0.3762  0.3914 -0.8715
  860MOL0     H16075   6.601   9.000  13.297 -3.9038  2.1670  3.9905
  860MOL0     H16076   6.774   8.836  13.342  1.0784  0.4908 -0.3200
  860MOL0     H16077   6.666   8.870  13.505 -0.3378  2.0694  0.9687
  860MOL0     H16078   6.887   8.809  13.548 -3.8989 -1.6150  1.0613
  860MOL0     H16079   6.942   8.952  13.452 -2.0167  0.1298 -1.2256
  860MOL0     H16080   6.887   9.882  13.219 -0.7528 -1.1165 -1.1898
  860MOL0     H16081   7.071   9.991  13.072 -1.4712  0.5553  0.3428
  860MOL0     H16082   7.585  10.062  13.213 -0.9639 -4.1317 -0.6051
  860MOL0     H16083   7.758  10.194  13.127  0.2877  1.0284  0.2066
  860MOL0     H16084   7.407  10.448  11.450 -1.1424 -3.1016 -2.1500
  860MOL0     H16085   7.319  10.478  11.250  0.1912  3.8274 -0.1467
  860MOL0     H16086   7.428  10.795  10.839 -0.7018  1.7242 -0.6652
  860MOL0     H16087   7.402  10.824  10.623 -1.8404  3.4910 -0.3201
  860MOL0     H16088   7.026  10.756  10.474  0.7413  0.9153  0.4898
  860MOL0     H16089   7.077  10.585  10.426 -1.7266  0.0835 -0.0031
  860MOL0     H16090   7.034  10.697  10.219  1.3352 -2.1726  0.3741
  860MOL0     H16091   7.205  10.713  10.233 -0.5672 -0.1521  0.5759
  860MOL0     H16092   7.165  10.959  10.339 -1.1642  1.8393 -0.3041
  860MOL0     H16093   7.001  10.936  10.301 -0.3469 -1.9662  0.0989
  860MOL0     H16094   7.188  10.891  10.063  1.4783  1.4596 -0.9470
  860MOL0     H16095   7.026  10.925  10.072  0.6053 -3.8631  1.9367
  860MOL0     H16096   7.219  11.313  10.118 -0.8718 -1.3262  1.3309
  860MOL0     H16097   7.068  10.532  10.636  0.0533  0.2610  0.5683
  860MOL0     H16098   7.169  10.384  10.933  0.1112  1.6726  1.4656
  860MOL0     H16099   7.026  10.490  10.948  1.1592  0.2660 -0.4721
  860MOL0     H16100   7.045  10.380  10.811 -1.9100 -0.7860  0.3660
  861MOL0     O16101   3.848   7.206   8.300  0.0956  0.0185  0.6481
  861MOL0     C16102   3.933   7.194   8.392 -0.1585 -0.0625  0.7501
  861MOL0     O16103   3.942   7.281   8.494 -0.3636  0.4939 -0.4714
  861MOL0     C16104   3.840   7.360   8.548 -0.6926 -0.2425  0.4336
  861MOL0     C16105   3.859   7.395   8.675 -0.1041 -0.3638 -0.1423
  861MOL0     C16106   3.762   7.471   8.726  0.1894 -0.4191 -0.0725
  861MOL0     C16107   3.650   7.524   8.661 -0.1306 -0.2103  0.6857
  861MOL0     O16108   3.562   7.603   8.733 -0.2172 -0.6152 -0.0159
  861MOL0     C16109   3.462   7.692   8.672  0.2085  0.3390 -0.0868
  861MOL0     C16110   3.321   7.619   8.672 -0.2996  0.7346 -0.0456
  861MOL0     C16111   3.220   7.717   8.599 -0.8786 -0.3404 -0.3316
  861MOL0     C16112   3.075   7.675   8.612  0.3278  0.2636  0.1897
  861MOL0     C16113   2.982   7.785   8.657 -0.2749  0.3857 -0.6720
  861MOL0     C16114   2.955   7.786   8.809  0.0433 -0.2056  0.6320
  861MOL0     C16115   2.883   7.911   8.852  0.5158  0.3577  0.4469
  861MOL0     C16116   2.835   7.902   8.997  0.9235 -0.0623  0.2237
  861MOL0     N16117   2.931   7.981   9.076 -0.4499  0.2425  0.3475
  861MOL0     C16118   3.038   7.942   9.161  0.0490 -0.1403  0.3833
  861MOL0     C16119   3.084   8.056   9.217 -0.1530  0.6376  0.2644
  861MOL0     C16120   3.211   8.055   9.292  0.3518  0.0807  0.6045
  861MOL0     C16121   3.321   8.152   9.228  1.6136  0.0658  0.2892
  861MOL0     C16122   3.402   8.103   9.101 -0.3963 -0.8810 -0.6189
  861MOL0     C16123   3.507   8.196   9.057 -0.4772 -0.9924  0.1066
  861MOL0     O16124   3.588   8.155   8.941  0.2133  0.4408 -0.5625
  861MOL0     C16125   3.527   8.123   8.822  0.1768 -0.1722 -0.1274
  861MOL0     C16126   3.590   8.035   8.734 -0.6616  1.0758 -0.8880
  861MOL0     C16127   3.536   8.008   8.609  1.7028 -0.2775  0.4091
  861MOL0     C16128   3.420   8.072   8.566 -0.1044  0.1359  0.1403
  861MOL0     C16129   3.371   8.035   8.435  1.0141  0.1925  0.2015
  861MOL0     O16130   3.268   8.111   8.391 -0.6344 -0.3885 -0.3461
  861MOL0     C16131   3.227   8.089   8.267  0.3334  0.4753 -0.8687
  861MOL0     C16132   3.254   8.198   8.187  0.1060 -0.8117 -0.4803
  861MOL0     C16133   3.195   8.208   8.063 -0.5019  0.8530  0.3498
  861MOL0     C16134   3.127   8.090   8.012  0.1178 -0.2671  1.0957
  861MOL0     O16135   3.062   8.088   7.891  0.6032  0.3403  0.6783
  861MOL0     C16136   3.074   8.194   7.799 -0.0083  0.2713 -0.1692
  861MOL0     C16137   2.989   8.173   7.669 -0.2497  0.7246  0.0368
  861MOL0     C16138   3.071   8.085   7.573 -0.5901 -0.5203  0.0012
  861MOL0     C16139   3.055   7.937   7.600 -0.5359 -0.3787 -0.0816
  861MOL0     C16140   3.108   7.851   7.488  0.6385 -0.6693 -1.0948
  861MOL0     C16141   3.029   7.722   7.499 -0.2908 -0.1186  0.3985
  861MOL0     C16142   3.090   7.610   7.400  0.0404  0.0689 -0.1033
  861MOL0     C16143   3.031   7.601   7.263  0.9834  0.3877 -0.2756
  861MOL0    Cl16144   3.024   7.760   7.179  0.4122  0.2827 -0.3936
  861MOL0     C16145   3.116   7.969   8.074 -0.4896  0.4919 -0.5734
  861MOL0     C16146   3.163   7.971   8.208  0.2887  0.0371 -0.3792
  861MOL0     O16147   3.420   7.941   8.379  0.1793 -0.0932 -0.5643
  861MOL0     C16148   3.349   8.165   8.643  0.1914  0.3681 -0.1586
  861MOL0     C16149   3.405   8.179   8.770 -0.7028  0.9073 -0.8768
  861MOL0     N16150   3.005   8.160   9.175 -0.9564  0.8451 -1.1269
  861MOL0     N16151   2.916   8.114   9.093  0.7378  0.2859 -0.2951
  861MOL0     C16152   3.628   7.483   8.528  0.8962  0.7196 -0.3170
  861MOL0     C16153   3.725   7.402   8.468 -0.1727 -0.4982  0.0222
  861MOL0     C16154   4.035   7.083   8.391 -0.3940 -0.3237 -0.4545
  861MOL0     C16155   4.138   7.073   8.480 -0.0851 -0.2031  0.0925
  861MOL0     C16156   4.217   6.966   8.508  0.7739  0.9258  0.0161
  861MOL0     C16157   4.217   6.864   8.413 -1.3589 -0.1388  0.2524
  861MOL0     O16158   4.290   6.748   8.411 -1.0379  0.7066 -0.4119
  861MOL0     C16159   4.405   6.741   8.486 -0.2269  0.3649  0.0104
  861MOL0     C16160   4.529   6.789   8.394  0.7852  0.2210  0.2414
  861MOL0     C16161   4.512   6.732   8.251 -0.0695 -0.9681  0.4208
  861MOL0     C16162   4.638   6.753   8.162 -0.5458 -0.9256 -0.2624
  861MOL0     C16163   4.649   6.687   8.037  0.4877 -0.3055 -0.2827
  861MOL0     C16164   4.639   6.620   7.931  0.4469 -0.0968  0.3697
  861MOL0     C16165   4.126   6.860   8.312  1.2535  0.2500  0.4414
  861MOL0     C16166   4.031   6.971   8.300 -0.5510 -0.6464 -0.2086
  861MOL0     C16167   3.926   6.945   8.199  0.1108 -0.2861  0.2292
  861MOL0     H16168   3.942   7.357   8.734  2.4616  1.4496 -2.3062
  861MOL0     H16169   3.771   7.503   8.829 -1.0219 -4.3553  1.4497
  861MOL0     H16170   3.454   7.777   8.740 -2.5376  3.4302 -3.8451
  861MOL0     H16171   3.490   7.735   8.575  0.7596  0.1605 -0.0141
  861MOL0     H16172   3.301   7.584   8.774 -0.8302  0.9104 -0.0837
  861MOL0     H16173   3.328   7.524   8.618 -0.7224  1.3225 -1.1888
  861MOL0     H16174   3.250   7.748   8.498 -1.8986 -2.0157 -1.1982
  861MOL0     H16175   3.239   7.818   8.637  4.0927 -0.2130 -2.4268
  861MOL0     H16176   3.046   7.635   8.514 -0.8927 -0.4701  0.8246
  861MOL0     H16177   3.078   7.596   8.687 -1.2538  1.6399  1.7912
  861MOL0     H16178   3.021   7.884   8.631  0.4454  1.9632  5.0305
  861MOL0     H16179   2.884   7.777   8.608 -1.8235  2.4043  1.7893
  861MOL0     H16180   2.881   7.710   8.838  1.1322 -1.1657  0.9653
  861MOL0     H16181   3.059   7.775   8.839 -0.2538 -2.5050  1.0199
  861MOL0     H16182   2.791   7.930   8.798 -0.1941  5.1058  2.8392
  861MOL0     H16183   2.943   8.001   8.836 -1.8589  2.2625  1.6185
  861MOL0     H16184   2.730   7.933   9.007  0.9848  0.1963  0.0743
  861MOL0     H16185   2.827   7.800   9.036 -2.5412 -1.3298 -3.1856
  861MOL0     H16186   3.073   7.840   9.176 -0.2588 -0.1917  0.8002
  861MOL0     H16187   3.193   8.103   9.389  2.7764 -0.1695  1.2591
  861MOL0     H16188   3.256   7.956   9.304 -1.2458 -1.1313 -2.3446
  861MOL0     H16189   3.275   8.249   9.211 -0.4376 -1.3191 -3.2889
  861MOL0     H16190   3.388   8.163   9.314 -1.3722  1.7197  2.6002
  861MOL0     H16191   3.332   8.101   9.017 -2.4813  2.8702  0.7590
  861MOL0     H16192   3.451   8.009   9.127 -3.7760 -1.9941  2.7416
  861MOL0     H16193   3.580   8.219   9.136 -1.4849 -2.0868  1.4216
  861MOL0     H16194   3.461   8.292   9.033 -0.1416 -0.9361 -0.3294
  861MOL0     H16195   3.682   7.982   8.759 -0.5456 -0.0950 -3.4631
  861MOL0     H16196   3.594   7.948   8.539  1.1340  3.4483 -3.7222
  861MOL0     H16197   3.293   8.281   8.245 -0.2546 -0.3831 -0.8479
  861MOL0     H16198   3.212   8.303   8.013  1.6211  0.8625  1.0287
  861MOL0     H16199   3.049   8.283   7.858 -0.7811 -0.4480  0.6067
  861MOL0     H16200   3.178   8.208   7.767  0.1845 -0.5512  0.0797
  861MOL0     H16201   2.891   8.131   7.695  0.9493 -1.3896  1.3887
  861MOL0     H16202   2.978   8.275   7.631  0.5284  1.2477  1.1523
  861MOL0     H16203   3.034   8.109   7.473 -0.1441  0.5772  0.0897
  861MOL0     H16204   3.176   8.115   7.582 -1.1743  1.4820  0.6369
  861MOL0     H16205   2.948   7.926   7.615 -0.6179  1.3865  0.8821
  861MOL0     H16206   3.112   7.906   7.688  0.5270  2.4515  0.3397
  861MOL0     H16207   3.218   7.846   7.481  0.7247 -0.0298 -0.2840
  861MOL0     H16208   3.082   7.901   7.394 -0.1670  2.6690  0.7619
  861MOL0     H16209   3.042   7.689   7.602 -0.2690  1.9666  1.1087
  861MOL0     H16210   2.925   7.746   7.476 -0.2777  1.5299  1.8797
  861MOL0     H16211   3.083   7.511   7.447  3.1862 -2.2121 -3.7465
  861MOL0     H16212   3.196   7.635   7.395  0.3815 -0.4946  2.6226
  861MOL0     H16213   3.085   7.520   7.212 -1.0582 -1.9330  1.0544
  861MOL0     H16214   2.931   7.562   7.284  0.5276  1.5238 -0.2707
  861MOL0     H16215   3.077   7.878   8.028 -1.6629  0.4858  0.3986
  861MOL0     H16216   3.151   7.886   8.274 -0.0452 -0.6167 -1.2805
  861MOL0     H16217   3.255   8.212   8.617  0.1207  1.2284  1.5675
  861MOL0     H16218   3.364   8.255   8.835 -0.5435  1.1756 -1.0859
  861MOL0     H16219   3.552   7.536   8.473  1.0068  0.9806 -0.2210
  861MOL0     H16220   3.709   7.399   8.361 -0.0905 -2.2186  0.0203
  861MOL0     H16221   4.129   7.148   8.558 -1.7279 -0.2454 -0.0164
  861MOL0     H16222   4.278   6.937   8.593  0.2401 -1.2615 -0.2701
  861MOL0     H16223   4.429   6.637   8.506  0.7500  0.9643  2.3548
  861MOL0     H16224   4.411   6.789   8.585  1.0952 -1.8238  1.0656
  861MOL0     H16225   4.630   6.770   8.431  2.8374  1.6827 -3.9736
  861MOL0     H16226   4.525   6.899   8.386 -2.2465  0.0793 -3.7421
  861MOL0     H16227   4.434   6.790   8.200  1.1682  1.6803  1.3663
  861MOL0     H16228   4.472   6.631   8.239 -2.1077 -0.3807  1.8285
  861MOL0     H16229   4.640   6.857   8.126 -1.1525 -0.5327  0.8048
  861MOL0     H16230   4.733   6.739   8.215 -0.3102  3.0702  0.7248
  861MOL0     H16231   4.629   6.562   7.842 -0.0947  0.1754  0.2510
  861MOL0     H16232   4.132   6.789   8.231 -2.7905  1.0599 -0.8023
  861MOL0     H16233   3.955   7.009   8.115  1.2323 -1.0259  0.0318
  861MOL0     H16234   3.937   6.841   8.168  1.9417 -0.0484 -0.0412
  861MOL0     H16235   3.825   6.963   8.235  0.0969  0.9561 -0.3661
  862MOL0     O16236   2.413   7.430   8.582  0.1154  0.7614  0.4567
  862MOL0     C16237   2.461   7.476   8.687 -0.1454  0.1465  0.1704
  862MOL0     O16238   2.582   7.444   8.739 -0.1586  0.4202 -0.0086
  862MOL0     C16239   2.662   7.364   8.667  0.4140  1.0265 -0.5683
  862MOL0     C16240   2.686   7.244   8.721 -0.1172  0.1001 -0.2984
  862MOL0     C16241   2.777   7.159   8.661 -0.1641 -0.2038 -0.0569
  862MOL0     C16242   2.858   7.206   8.554  0.7580 -0.2436 -0.2275
  862MOL0     O16243   2.960   7.129   8.497  0.0825 -0.4591  0.4378
  862MOL0     C16244   2.996   6.999   8.547  0.5986 -0.6858  0.1047
  862MOL0     C16245   3.126   6.950   8.501  0.3372 -0.0853  0.4185
  862MOL0     C16246   3.138   6.938   8.346 -0.2114  0.3730 -0.5934
  862MOL0     C16247   3.287   6.912   8.299 -0.6566 -0.9197  0.2218
  862MOL0     C16248   3.333   7.031   8.217 -0.2079  0.3468  0.3253
  862MOL0     C16249   3.473   7.007   8.154  0.0025  0.4964  0.1403
  862MOL0     C16250   3.506   7.140   8.072  1.2418 -0.4264 -0.7243
  862MOL0     C16251   3.640   7.128   8.007  0.3465  0.0967  1.1788
  862MOL0     N16252   3.672   7.258   7.952  0.7905 -0.2776 -0.2004
  862MOL0     C16253   3.712   7.363   8.031 -0.1911  0.3654 -0.6301
  862MOL0     C16254   3.684   7.470   7.962 -0.1374 -0.1191 -0.5335
  862MOL0     C16255   3.696   7.619   7.991  0.4784 -0.1588  0.0506
  862MOL0     C16256   3.684   7.641   8.142 -0.4576 -1.5303 -0.2451
  862MOL0     C16257   3.678   7.790   8.175  0.3465 -0.0372  0.1403
  862MOL0     C16258   3.815   7.861   8.132 -0.3250  0.0774 -0.2648
  862MOL0     O16259   3.807   7.935   8.007  0.5475  0.2393 -0.0572
  862MOL0     C16260   3.905   8.027   7.973 -0.2246  0.1714 -0.1858
  862MOL0     C16261   3.896   8.099   7.856 -0.0330 -0.5736  1.3437
  862MOL0     C16262   3.985   8.193   7.811 -0.5259 -0.1528 -0.0239
  862MOL0     C16263   4.095   8.220   7.890  0.3272  0.9600  1.1161
  862MOL0     C16264   4.183   8.333   7.855  0.0801 -0.5355 -0.3429
  862MOL0     O16265   4.150   8.410   7.752  0.3260 -0.2512 -0.2098
  862MOL0     C16266   4.249   8.500   7.710 -0.4235 -0.1459 -0.0575
  862MOL0     C16267   4.233   8.635   7.734  0.9417 -0.4259 -0.1269
  862MOL0     C16268   4.333   8.716   7.691  1.1587  0.1460 -0.0497
  862MOL0     C16269   4.439   8.692   7.611 -0.1344 -0.4800 -0.4653
  862MOL0     O16270   4.518   8.793   7.579 -0.6034  0.6256  0.8394
  862MOL0     C16271   4.561   8.810   7.444 -0.3112 -0.0168 -0.7120
  862MOL0     C16272   4.670   8.910   7.421 -0.0102  0.2063  0.5573
  862MOL0     C16273   4.808   8.884   7.497  0.2414 -0.5459 -0.5603
  862MOL0     C16274   4.884   8.772   7.436 -0.2320  0.3489 -0.2024
  862MOL0     C16275   5.037   8.795   7.454 -0.6765  0.0026  0.1416
  862MOL0     C16276   5.076   8.818   7.598  0.9030 -0.1041 -0.6344
  862MOL0     C16277   5.223   8.830   7.615  0.3306  0.9803  0.1153
  862MOL0     C16278   5.274   8.848   7.752 -1.0889  1.0846  0.2151
  862MOL0    Cl16279   5.181   8.783   7.879 -0.3746 -0.2631  0.1152
  862MOL0     C16280   4.453   8.560   7.584 -0.1418 -0.3183  0.1438
  862MOL0     C16281   4.361   8.459   7.634 -0.0629 -1.6260 -0.1873
  862MOL0     O16282   4.288   8.350   7.924  0.3560  0.6117  0.3817
  862MOL0     C16283   4.129   8.135   7.999  0.4658  0.0765 -0.7274
  862MOL0     C16284   4.036   8.038   8.040  0.5131  0.2048 -0.5626
  862MOL0     N16285   3.650   7.426   7.834  0.0525 -0.0334  0.6492
  862MOL0     N16286   3.639   7.301   7.827 -0.9394 -0.4165 -0.0541
  862MOL0     C16287   2.819   7.320   8.487 -0.2421  0.2865  0.7103
  862MOL0     C16288   2.715   7.400   8.542 -1.6148 -0.3148  0.6117
  862MOL0     C16289   2.392   7.584   8.751 -0.1272 -0.0790  0.3969
  862MOL0     C16290   2.263   7.566   8.805  0.5303  0.6477  0.0006
  862MOL0     C16291   2.187   7.670   8.865  0.7348 -0.1097 -0.3281
  862MOL0     C16292   2.250   7.799   8.881 -0.2126 -0.0637 -0.3563
  862MOL0     O16293   2.174   7.894   8.941  0.1669 -0.2512 -0.3469
  862MOL0     C16294   2.163   7.864   9.079  0.1399  0.1587 -0.2812
  862MOL0     C16295   2.030   7.911   9.131  1.1632 -0.1418 -0.7331
  862MOL0     C16296   2.003   8.066   9.096 -0.7073 -0.3036  0.8369
  862MOL0     C16297   1.913   8.131   9.204 -0.9133 -0.5190 -0.2157
  862MOL0     C16298   1.850   8.260   9.173  0.1739  0.2257 -1.5253
  862MOL0     C16299   1.771   8.354   9.149  0.7947  0.2291  0.0164
  862MOL0     C16300   2.378   7.813   8.843 -0.6294 -0.7469 -1.3670
  862MOL0     C16301   2.453   7.712   8.773 -0.6347  0.3324 -1.1486
  862MOL0     C16302   2.583   7.746   8.723  0.3816  0.2858 -0.3790
  862MOL0     H16303   2.633   7.210   8.809  0.8140 -1.9458 -0.4708
  862MOL0     H16304   2.784   7.063   8.711 -1.1405  0.5181  1.5427
  862MOL0     H16305   3.019   7.012   8.653  4.7976 -4.1021 -0.1053
  862MOL0     H16306   2.919   6.927   8.518 -0.2162  0.1988  0.0190
  862MOL0     H16307   3.151   6.856   8.552  1.2126 -1.2054 -1.8935
  862MOL0     H16308   3.206   7.016   8.536 -1.3433  1.5717  1.2609
  862MOL0     H16309   3.088   7.023   8.298  2.4347  2.4084  0.0361
  862MOL0     H16310   3.079   6.854   8.311  0.5564 -0.6795  0.5565
  862MOL0     H16311   3.358   6.885   8.378  0.5591 -0.9478 -0.8580
  862MOL0     H16312   3.289   6.823   8.236 -1.2521 -0.4837 -0.4281
  862MOL0     H16313   3.267   7.027   8.130 -0.2607 -1.5625  0.4074
  862MOL0     H16314   3.337   7.123   8.275  1.3288  0.2674  0.4018
  862MOL0     H16315   3.549   6.985   8.230  1.5993  1.5819 -1.0735
  862MOL0     H16316   3.472   6.915   8.096 -0.5439 -0.6263  1.8433
  862MOL0     H16317   3.497   7.230   8.134  1.4363  1.0649 -2.7283
  862MOL0     H16318   3.425   7.161   8.001  2.0452 -2.4324 -2.3377
  862MOL0     H16319   3.713   7.100   8.083 -0.3073 -2.4087  0.9924
  862MOL0     H16320   3.639   7.056   7.925 -3.5323  1.0209  0.1725
  862MOL0     H16321   3.753   7.359   8.131  1.7251  2.0564 -1.2829
  862MOL0     H16322   3.789   7.649   7.941 -1.4995  0.1933 -3.7568
  862MOL0     H16323   3.606   7.666   7.952 -0.4404 -2.0087 -0.1653
  862MOL0     H16324   3.584   7.609   8.172  0.1571 -1.7358  1.7801
  862MOL0     H16325   3.755   7.590   8.208  0.8187 -1.0989 -1.2460
  862MOL0     H16326   3.671   7.812   8.282 -1.8993  2.5750 -0.4056
  862MOL0     H16327   3.598   7.833   8.114  0.2434 -0.0962  0.2342
  862MOL0     H16328   3.901   7.795   8.143 -0.8867 -0.6382 -0.0551
  862MOL0     H16329   3.843   7.932   8.210 -0.6866 -1.3569  1.2423
  862MOL0     H16330   3.816   8.067   7.790  3.1026 -2.7225 -1.7480
  862MOL0     H16331   3.962   8.252   7.723 -2.2866 -0.4956  0.1793
  862MOL0     H16332   4.163   8.675   7.807  0.9628  0.4595 -0.5908
  862MOL0     H16333   4.312   8.820   7.715 -1.6275 -0.5592  0.8574
  862MOL0     H16334   4.605   8.717   7.407  0.4301  0.5987 -1.4097
  862MOL0     H16335   4.470   8.837   7.389 -1.9844 -0.9236  1.4058
  862MOL0     H16336   4.695   8.926   7.316  1.1332  2.7058  1.1495
  862MOL0     H16337   4.629   9.003   7.463  0.2579 -0.0889  1.5094
  862MOL0     H16338   4.860   8.980   7.494 -1.0017  0.2015  0.4507
  862MOL0     H16339   4.801   8.857   7.603  3.5347 -3.0944 -0.8460
  862MOL0     H16340   4.854   8.770   7.331  0.3611  1.8418 -0.4328
  862MOL0     H16341   4.862   8.674   7.478 -1.4092  0.5163 -0.3718
  862MOL0     H16342   5.065   8.887   7.401 -2.4216 -0.4551 -1.7143
  862MOL0     H16343   5.087   8.703   7.423  0.8608  0.7204  0.4020
  862MOL0     H16344   5.031   8.904   7.649  0.6587 -0.0150 -0.9962
  862MOL0     H16345   5.022   8.738   7.649 -0.4122  2.4575  2.3751
  862MOL0     H16346   5.260   8.907   7.548 -2.4112  1.4721 -0.9532
  862MOL0     H16347   5.265   8.734   7.582  2.2048  1.8148 -0.0534
  862MOL0     H16348   5.376   8.810   7.767 -1.5567  0.7127  2.9587
  862MOL0     H16349   5.275   8.956   7.767 -2.0070  1.5754 -2.6249
  862MOL0     H16350   4.537   8.515   7.533  0.5787 -1.4695  2.2302
  862MOL0     H16351   4.379   8.354   7.614 -0.3022 -1.1954 -3.1606
  862MOL0     H16352   4.217   8.159   8.058 -1.5906  2.5841  1.6443
  862MOL0     H16353   4.080   7.978   8.119  5.0356  2.4913 -1.0081
  862MOL0     H16354   2.870   7.349   8.396  2.2849 -0.6435  1.7394
  862MOL0     H16355   2.675   7.488   8.493 -0.9744 -0.7042 -0.6609
  862MOL0     H16356   2.212   7.473   8.787 -1.3587  1.0944  2.4481
  862MOL0     H16357   2.088   7.652   8.905  0.7487 -0.4432 -0.4398
  862MOL0     H16358   2.240   7.918   9.136  0.1881  0.4871 -0.6462
  862MOL0     H16359   2.170   7.759   9.107 -1.9768 -0.5752 -2.2504
  862MOL0     H16360   2.016   7.886   9.236  1.8004 -2.1684 -1.0766
  862MOL0     H16361   1.970   7.841   9.071  2.0997 -0.6464 -1.1051
  862MOL0     H16362   1.948   8.072   9.002  0.2134  5.8820  0.3136
  862MOL0     H16363   2.103   8.110   9.093 -1.4893  1.5317 -1.2052
  862MOL0     H16364   1.827   8.066   9.225 -2.4961  0.9635 -1.8093
  862MOL0     H16365   1.970   8.130   9.297 -0.4625  1.2522 -0.4487
  862MOL0     H16366   1.698   8.430   9.128 -0.2752 -0.2570  1.8287
  862MOL0     H16367   2.421   7.911   8.861 -0.5488 -0.7136 -1.7454
  862MOL0     H16368   2.586   7.848   8.684 -0.8972  0.4860 -0.0135
  862MOL0     H16369   2.656   7.714   8.798  0.4004  0.0059 -0.5137
  862MOL0     H16370   2.610   7.681   8.639 -2.1333  0.8865 -1.7839
  863MOL0     O16371  10.736   9.564   0.566 -0.0677  0.0610 -0.0481
  863MOL0     C16372  10.828   9.478   0.555 -0.8596 -0.5207 -0.1043
  863MOL0     O16373  10.807   9.351   0.538 -0.5901  1.3145 -0.1613
  863MOL0     C16374  10.695   9.289   0.590  0.4250  0.7865 -0.3182
  863MOL0     C16375  10.567   9.319   0.533  0.0205  1.1062  0.2582
  863MOL0     C16376  10.461   9.247   0.576  0.0355 -0.9201 -0.1205
  863MOL0     C16377  10.460   9.179   0.696  0.7220  0.1774  0.2114
  863MOL0     O16378  10.335   9.138   0.750  0.1107 -0.0614 -0.1290
  863MOL0     C16379  10.329   9.032   0.852 -0.0958 -0.7846  0.2332
  863MOL0     C16380  10.206   8.949   0.823  0.0656 -0.4758  0.9176
  863MOL0     C16381  10.207   8.796   0.870  1.0705  1.0226 -0.0338
  863MOL0     C16382  10.066   8.751   0.883 -0.7425 -0.0352  0.3424
  863MOL0     C16383  10.073   8.600   0.878  0.0359 -0.7327 -0.7145
  863MOL0     C16384   9.940   8.523   0.891  0.0315  0.4718  0.6954
  863MOL0     C16385   9.855   8.549   1.020  0.4838 -0.3126  0.3939
  863MOL0     C16386   9.726   8.464   1.014 -0.0894 -0.6948 -0.4192
  863MOL0     N16387   9.655   8.461   1.137 -0.2740  0.8489  0.2289
  863MOL0     C16388   9.557   8.549   1.181  0.5866  0.6055 -0.7354
  863MOL0     C16389   9.510   8.504   1.304  1.4353 -0.3280 -0.4338
  863MOL0     C16390   9.399   8.558   1.380  0.0414  0.4576 -0.3471
  863MOL0     C16391   9.446   8.639   1.500 -0.0019 -0.1782 -0.6988
  863MOL0     C16392   9.446   8.788   1.462 -0.0578  1.1640 -0.3352
  863MOL0     C16393   9.497   8.861   1.580 -0.9853  0.4206 -0.6579
  863MOL0     O16394   9.382   8.906   1.646 -0.8691 -0.1695 -0.0461
  863MOL0     C16395   9.406   8.962   1.771  0.6500  0.2020  0.1217
  863MOL0     C16396   9.293   9.012   1.831 -0.3652 -0.7201  0.4461
  863MOL0     C16397   9.295   9.058   1.961  0.1254 -0.2213 -0.2432
  863MOL0     C16398   9.418   9.068   2.029 -0.6307  0.6879 -0.2898
  863MOL0     C16399   9.433   9.113   2.174  1.1354 -0.1689  0.6666
  863MOL0     O16400   9.346   9.211   2.220 -0.3891 -0.4279  0.3567
  863MOL0     C16401   9.361   9.260   2.344  0.5581 -0.4728 -0.0258
  863MOL0     C16402   9.318   9.187   2.459  0.2092  0.6506  0.5193
  863MOL0     C16403   9.304   9.235   2.584  0.1195  0.4033  0.0216
  863MOL0     C16404   9.338   9.369   2.610  0.2703 -0.6481  0.0646
  863MOL0     O16405   9.329   9.423   2.736  0.4672 -0.9887  0.8687
  863MOL0     C16406   9.204   9.409   2.800 -0.0936 -0.6926 -0.4577
  863MOL0     C16407   9.232   9.443   2.949 -0.5029 -0.0993 -0.0491
  863MOL0     C16408   9.133   9.531   3.018 -0.0428  0.1517 -0.2287
  863MOL0     C16409   9.191   9.576   3.149 -0.1280  0.3844 -0.4792
  863MOL0     C16410   9.078   9.631   3.244 -0.5884  0.4030  0.1813
  863MOL0     C16411   9.149   9.692   3.364 -0.5567  0.0071  0.0529
  863MOL0     C16412   9.065   9.781   3.459 -0.4424  0.2558 -0.2703
  863MOL0     C16413   8.989   9.708   3.566  0.6043 -0.1124 -1.0004
  863MOL0    Cl16414   8.833   9.629   3.500 -0.3857  0.4584  0.1664
  863MOL0     C16415   9.376   9.452   2.501 -0.6917 -0.4504 -0.1203
  863MOL0     C16416   9.390   9.398   2.373  0.0866  0.2925  0.2099
  863MOL0     O16417   9.529   9.073   2.238  0.6686  0.2697  0.0395
  863MOL0     C16418   9.532   9.014   1.971 -0.3527 -0.2018  0.3430
  863MOL0     C16419   9.522   8.956   1.846 -1.2280  0.2992 -0.0714
  863MOL0     N16420   9.552   8.373   1.317 -0.1359 -0.7841  0.5536
  863MOL0     N16421   9.641   8.357   1.227 -0.1821  0.0896 -0.4760
  863MOL0     C16422  10.577   9.146   0.753  0.0553 -0.0357 -0.2757
  863MOL0     C16423  10.699   9.193   0.696  0.1852 -0.2041  0.0096
  863MOL0     C16424  10.966   9.524   0.541 -0.1291 -1.0078 -0.8498
  863MOL0     C16425  11.067   9.461   0.608  0.5123 -0.3989  0.1836
  863MOL0     C16426  11.194   9.504   0.600 -0.2793 -0.1370 -0.8221
  863MOL0     C16427  11.240   9.613   0.532  0.5644 -0.1138 -1.0973
  863MOL0     O16428  11.375   9.636   0.515  0.5507  0.6610  0.4123
  863MOL0     C16429  11.435   9.735   0.435 -0.2436 -0.5378 -0.3098
  863MOL0     C16430  11.488   9.844   0.530  0.0482 -0.5173 -0.6872
  863MOL0     C16431  11.626   9.810   0.583 -0.2958  0.2259 -0.5375
  863MOL0     C16432  11.631   9.680   0.659 -0.8230  0.3724  0.4140
  863MOL0     C16433  11.754   9.668   0.743  0.7085  0.1186 -1.1285
  863MOL0     C16434  11.849   9.687   0.814 -0.1769  0.2345  0.5560
  863MOL0     C16435  11.134   9.691   0.465  0.0630  0.0323 -0.3902
  863MOL0     C16436  11.000   9.642   0.465 -0.4357 -0.1218 -0.3775
  863MOL0     C16437  10.895   9.716   0.385  0.2929 -1.0019  0.2376
  863MOL0     H16438  10.575   9.389   0.451  2.2595 -0.0360 -0.5879
  863MOL0     H16439  10.373   9.271   0.518 -0.6150 -2.6299  0.1031
  863MOL0     H16440  10.415   8.965   0.863  1.9894  1.6494 -0.0626
  863MOL0     H16441  10.318   9.080   0.950  1.3162  0.6154 -0.2433
  863MOL0     H16442  10.178   8.960   0.718  2.1489  3.3465  0.5943
  863MOL0     H16443  10.120   8.997   0.871  0.9908 -0.7137  2.9004
  863MOL0     H16444  10.255   8.785   0.968  1.7407 -0.8256 -0.5293
  863MOL0     H16445  10.262   8.736   0.797 -0.1912  2.7185 -2.5363
  863MOL0     H16446  10.014   8.800   0.965 -2.6157  1.5220 -1.6486
  863MOL0     H16447  10.006   8.794   0.802  0.5346  0.2310 -0.4989
  863MOL0     H16448  10.127   8.566   0.789  0.8437  1.0947 -0.9691
  863MOL0     H16449  10.143   8.560   0.951  1.4025 -0.3342 -1.7677
  863MOL0     H16450   9.887   8.546   0.798 -0.9354 -4.0794 -0.1314
  863MOL0     H16451   9.942   8.414   0.884  2.6662 -0.0207  5.2467
  863MOL0     H16452   9.821   8.653   1.016 -1.3115 -0.7087  2.7409
  863MOL0     H16453   9.914   8.522   1.108 -1.6544 -2.6651  1.2247
  863MOL0     H16454   9.662   8.498   0.931 -2.0142  0.9946  1.6362
  863MOL0     H16455   9.756   8.361   0.990  0.3438 -0.4415 -0.9993
  863MOL0     H16456   9.532   8.645   1.138  2.8126  1.6842  0.2391
  863MOL0     H16457   9.333   8.625   1.324  1.7287  4.5986  2.1542
  863MOL0     H16458   9.335   8.480   1.422 -2.1022  3.4146  2.3351
  863MOL0     H16459   9.368   8.627   1.576  0.5271  1.1223  0.1086
  863MOL0     H16460   9.541   8.598   1.534  1.6929  3.0779 -1.0678
  863MOL0     H16461   9.347   8.823   1.433 -0.9869 -1.1153 -0.1292
  863MOL0     H16462   9.511   8.801   1.375 -3.0652  1.6344 -2.6800
  863MOL0     H16463   9.548   8.950   1.540 -0.0367 -0.7676 -2.1705
  863MOL0     H16464   9.574   8.807   1.636 -1.1989 -0.2805 -1.0403
  863MOL0     H16465   9.207   9.015   1.766  1.0808  0.2455 -1.5521
  863MOL0     H16466   9.196   9.099   1.983 -0.4086 -0.0761 -2.6416
  863MOL0     H16467   9.296   9.082   2.441 -0.3425  1.1361 -2.1908
  863MOL0     H16468   9.267   9.162   2.655  1.9407  0.0228  0.6324
  863MOL0     H16469   9.150   9.492   2.753  2.4094  0.6044 -1.1841
  863MOL0     H16470   9.142   9.319   2.788 -1.5158  0.5121 -3.1572
  863MOL0     H16471   9.252   9.357   3.013  0.1211  0.9326  1.1946
  863MOL0     H16472   9.323   9.504   2.947 -2.8937  3.7919 -1.6559
  863MOL0     H16473   9.111   9.618   2.955 -0.6968 -1.5458 -2.4678
  863MOL0     H16474   9.046   9.467   3.035  0.5695 -0.6434 -0.0602
  863MOL0     H16475   9.277   9.642   3.134  2.0670 -1.5280  2.5307
  863MOL0     H16476   9.239   9.494   3.203 -0.3607  0.4539 -0.1611
  863MOL0     H16477   9.004   9.556   3.272 -1.5718  0.8331 -1.1740
  863MOL0     H16478   9.026   9.708   3.187 -0.5336  0.0676 -0.3360
  863MOL0     H16479   9.203   9.627   3.432 -1.8893  1.0958  2.2623
  863MOL0     H16480   9.222   9.755   3.311 -0.0332  0.4114  1.2138
  863MOL0     H16481   8.998   9.852   3.410 -0.4020  1.0167  0.7587
  863MOL0     H16482   9.134   9.844   3.516  1.1310 -1.5324 -0.0935
  863MOL0     H16483   9.050   9.630   3.614  1.6567  2.0371  1.3606
  863MOL0     H16484   8.979   9.771   3.655 -0.2293 -0.8144 -0.5715
  863MOL0     H16485   9.400   9.552   2.535  3.0420 -0.2400 -2.7985
  863MOL0     H16486   9.417   9.466   2.292  0.1138  0.3186  0.2406
  863MOL0     H16487   9.618   8.996   2.035 -0.8232  0.4332  1.1728
  863MOL0     H16488   9.615   8.914   1.808 -1.5729  0.1267 -0.7353
  863MOL0     H16489  10.586   9.074   0.833  1.8832 -0.5516 -0.8734
  863MOL0     H16490  10.795   9.166   0.740  0.7100 -0.1699 -1.0581
  863MOL0     H16491  11.040   9.388   0.684 -0.3367  0.4762  0.7600
  863MOL0     H16492  11.265   9.447   0.659 -0.5672  2.2355  2.0595
  863MOL0     H16493  11.365   9.800   0.381  0.5357  1.2425  0.7108
  863MOL0     H16494  11.513   9.694   0.371 -0.7076 -1.1019 -0.5206
  863MOL0     H16495  11.418   9.852   0.614 -1.8680 -0.2561 -2.2372
  863MOL0     H16496  11.505   9.933   0.469  0.8054 -1.0711 -1.3165
  863MOL0     H16497  11.652   9.890   0.653 -0.4445  1.5040 -1.8998
  863MOL0     H16498  11.694   9.815   0.498 -0.6819 -0.9490 -0.9379
  863MOL0     H16499  11.543   9.672   0.723 -0.8845  1.8720  0.5625
  863MOL0     H16500  11.625   9.595   0.591 -2.3432  0.8030 -0.0348
  863MOL0     H16501  11.930   9.717   0.878  1.0781 -0.7593 -0.5139
  863MOL0     H16502  11.153   9.767   0.390 -0.2679  0.1383 -0.3700
  863MOL0     H16503  10.833   9.644   0.331 -1.7072  0.7173  0.1338
  863MOL0     H16504  10.836   9.777   0.453  2.1104 -0.0016  1.0075
  863MOL0     H16505  10.941   9.790   0.319  0.2525  0.2822  1.6189
  864MOL0     O16506   7.152   7.953   8.587 -0.2391  0.2865  0.3130
  864MOL0     C16507   7.086   7.864   8.638 -0.7196  0.5021 -0.1029
  864MOL0     O16508   7.149   7.775   8.724 -0.5353 -0.0043 -0.7642
  864MOL0     C16509   7.285   7.776   8.746  0.8545 -0.9135 -0.0005
  864MOL0     C16510   7.340   7.838   8.856  0.6190 -0.5373  0.6435
  864MOL0     C16511   7.475   7.847   8.865  0.5123  0.4310  0.4515
  864MOL0     C16512   7.560   7.791   8.773 -0.0838 -0.1224  0.8671
  864MOL0     O16513   7.695   7.775   8.783  0.3025  0.6620 -0.1288
  864MOL0     C16514   7.756   7.844   8.880  0.9558 -0.5219 -0.3368
  864MOL0     C16515   7.899   7.795   8.899 -0.3987 -0.0729  0.5649
  864MOL0     C16516   7.909   7.641   8.942  0.6007  0.2522  0.1275
  864MOL0     C16517   8.052   7.589   8.935 -0.1534 -0.0141  0.5686
  864MOL0     C16518   8.137   7.650   9.039  0.3188  0.8627 -0.0583
  864MOL0     C16519   8.288   7.640   9.003  0.3129 -0.0470 -0.3757
  864MOL0     C16520   8.382   7.653   9.123 -0.5495  0.6901 -0.9584
  864MOL0     C16521   8.532   7.615   9.086  0.1337  0.1488 -0.7508
  864MOL0     N16522   8.605   7.738   9.085  0.3285  0.0815  0.9334
  864MOL0     C16523   8.627   7.826   9.185 -0.9377  0.4737  0.5223
  864MOL0     C16524   8.688   7.933   9.129  0.0343 -0.8580 -0.3890
  864MOL0     C16525   8.747   8.055   9.190  0.4995  1.2220 -0.1868
  864MOL0     C16526   8.687   8.079   9.334  0.4034  0.3443  0.0166
  864MOL0     C16527   8.725   8.214   9.390  0.0356  0.3558 -0.2258
  864MOL0     C16528   8.679   8.319   9.297  0.0893  0.4054 -0.3890
  864MOL0     O16529   8.640   8.431   9.378  0.0182  0.5964  0.5398
  864MOL0     C16530   8.738   8.529   9.365  0.2341  0.5135 -0.4838
  864MOL0     C16531   8.848   8.508   9.440 -0.2028 -0.3883 -1.1057
  864MOL0     C16532   8.952   8.601   9.439 -0.5758  0.3068 -0.6558
  864MOL0     C16533   8.931   8.731   9.387 -0.1529  0.1333 -0.4731
  864MOL0     C16534   9.038   8.835   9.394  0.2854  0.5791  0.1150
  864MOL0     O16535   9.146   8.816   9.470  0.8379 -0.4727 -0.4122
  864MOL0     C16536   9.257   8.909   9.447 -1.0100  0.2876 -0.3294
  864MOL0     C16537   9.327   8.956   9.558 -0.4924 -0.4815 -0.9268
  864MOL0     C16538   9.449   9.032   9.539  1.1123  0.0789 -0.2789
  864MOL0     C16539   9.504   9.049   9.414  0.7572 -0.4893  1.1580
  864MOL0     O16540   9.628   9.097   9.396 -1.2755  0.2290  0.1985
  864MOL0     C16541   9.658   9.191   9.295  0.0813  0.2565 -0.0296
  864MOL0     C16542   9.802   9.229   9.316  0.6471  0.0040  0.2026
  864MOL0     C16543   9.874   9.262   9.182  0.5383 -1.0906 -0.5191
  864MOL0     C16544  10.030   9.284   9.192 -0.2182  0.9285 -0.3378
  864MOL0     C16545  10.078   9.363   9.074 -0.8944 -0.3793  0.1228
  864MOL0     C16546  10.237   9.404   9.083  0.3361 -0.2799  0.2990
  864MOL0     C16547  10.291   9.457   8.954 -1.0003  0.0011  0.4231
  864MOL0     C16548  10.441   9.499   8.951 -0.3838  0.4447 -0.2791
  864MOL0    Cl16549  10.469   9.629   9.067 -0.2256  0.0232 -0.2952
  864MOL0     C16550   9.424   9.020   9.301  1.1630  0.5864 -0.4008
  864MOL0     C16551   9.303   8.947   9.321 -0.4031  0.3878 -0.5109
  864MOL0     O16552   9.018   8.922   9.314 -1.2715 -0.2889  0.2210
  864MOL0     C16553   8.814   8.746   9.309 -0.6973  0.3122 -0.6677
  864MOL0     C16554   8.727   8.646   9.293 -0.0608  0.1661 -0.6503
  864MOL0     N16555   8.698   7.903   8.995 -0.0463  0.5549 -0.5673
  864MOL0     N16556   8.647   7.793   8.966  0.0795  0.4842  1.1843
  864MOL0     C16557   7.505   7.742   8.654  0.2791 -0.0317  0.3544
  864MOL0     C16558   7.367   7.735   8.641 -0.0892 -0.8366 -0.0164
  864MOL0     C16559   6.938   7.859   8.624 -0.3068 -0.4969 -0.7855
  864MOL0     C16560   6.869   7.796   8.731 -0.1809 -0.5234  0.6804
  864MOL0     C16561   6.732   7.786   8.728  0.4246 -0.2044  0.0599
  864MOL0     C16562   6.660   7.833   8.618  0.8497 -0.2262 -0.3996
  864MOL0     O16563   6.516   7.834   8.615 -0.4326  0.0982  0.2983
  864MOL0     C16564   6.476   7.693   8.627 -0.1837  0.9651 -0.3836
  864MOL0     C16565   6.332   7.680   8.690 -0.1885  0.2075 -0.3979
  864MOL0     C16566   6.278   7.535   8.689 -0.2945  0.1168 -0.9689
  864MOL0     C16567   6.235   7.499   8.549  0.5366  0.2553  0.1811
  864MOL0     C16568   6.188   7.366   8.522  0.1957 -0.1470 -0.2667
  864MOL0     C16569   6.132   7.259   8.510 -0.6863 -0.2907  0.3054
  864MOL0     C16570   6.731   7.896   8.509 -0.1268  0.1309  0.0730
  864MOL0     C16571   6.866   7.914   8.521 -1.0371 -0.6804  0.6546
  864MOL0     C16572   6.943   7.969   8.406 -0.1848 -0.5604 -0.8526
  864MOL0     H16573   7.288   7.875   8.943  0.5702  0.6292  0.1323
  864MOL0     H16574   7.512   7.908   8.947  1.5982  3.7736 -2.3075
  864MOL0     H16575   7.766   7.944   8.837  2.7268  0.9754  3.1088
  864MOL0     H16576   7.706   7.848   8.977 -0.4524 -1.1320 -1.0181
  864MOL0     H16577   7.943   7.851   8.981 -0.7619  1.8689 -0.5064
  864MOL0     H16578   7.954   7.794   8.804 -0.7566 -0.0012  0.3566
  864MOL0     H16579   7.851   7.593   8.862  0.3678  2.6463 -1.2145
  864MOL0     H16580   7.862   7.635   9.041  2.0589  2.1355  0.9783
  864MOL0     H16581   8.053   7.480   8.943  2.3110 -0.1001 -0.0471
  864MOL0     H16582   8.101   7.614   8.840 -0.3949  1.3801  0.7924
  864MOL0     H16583   8.116   7.756   9.054  1.7910  1.2127 -0.2735
  864MOL0     H16584   8.116   7.596   9.132  0.9405 -1.9139 -1.4099
  864MOL0     H16585   8.299   7.541   8.960  1.7898  0.1417 -0.4785
  864MOL0     H16586   8.318   7.710   8.924  3.5212  0.3375  1.0298
  864MOL0     H16587   8.346   7.594   9.208  1.9526  1.7442  0.9443
  864MOL0     H16588   8.366   7.758   9.146 -3.1451 -0.0854  1.3765
  864MOL0     H16589   8.573   7.548   9.162 -0.8757 -0.4041 -0.6724
  864MOL0     H16590   8.537   7.565   8.989  0.1509 -0.6595 -0.3432
  864MOL0     H16591   8.612   7.819   9.292 -0.3614  2.1334  0.7458
  864MOL0     H16592   8.854   8.042   9.207  0.3976 -0.8401 -0.8702
  864MOL0     H16593   8.725   8.139   9.123 -2.6881  2.6365  2.3919
  864MOL0     H16594   8.578   8.072   9.331  0.3015  1.7195 -0.5192
  864MOL0     H16595   8.717   8.006   9.410 -2.5784 -0.8064  0.2160
  864MOL0     H16596   8.831   8.225   9.413  0.6633  3.0932 -3.6173
  864MOL0     H16597   8.658   8.222   9.476 -0.4696 -1.4616 -0.3937
  864MOL0     H16598   8.596   8.284   9.234  1.7654 -3.6907 -0.6625
  864MOL0     H16599   8.771   8.341   9.241  2.7012 -2.0438  2.5822
  864MOL0     H16600   8.863   8.429   9.513 -0.4705 -0.4807 -1.1506
  864MOL0     H16601   9.045   8.582   9.491 -1.3954 -0.6270  0.5371
  864MOL0     H16602   9.299   8.924   9.658  2.2212 -4.7557 -1.2607
  864MOL0     H16603   9.493   9.087   9.622 -0.1002  2.9244 -1.4296
  864MOL0     H16604   9.644   9.148   9.195 -1.0181  1.2646 -0.3384
  864MOL0     H16605   9.593   9.278   9.298 -3.0483 -1.8457 -1.7880
  864MOL0     H16606   9.812   9.316   9.381 -2.3329  1.9588 -1.7105
  864MOL0     H16607   9.857   9.140   9.349  0.6971 -1.0131 -2.4332
  864MOL0     H16608   9.866   9.183   9.106 -0.6266 -1.2844 -0.2088
  864MOL0     H16609   9.828   9.349   9.135 -3.0206 -1.0524  2.6177
  864MOL0     H16610  10.078   9.186   9.197  0.6942  1.4402  2.6174
  864MOL0     H16611  10.054   9.319   9.293 -1.1160  2.1080 -0.5112
  864MOL0     H16612  10.019   9.455   9.067  0.1510  0.4908  1.9997
  864MOL0     H16613  10.062   9.309   8.981 -1.7297  0.3794 -0.1876
  864MOL0     H16614  10.270   9.470   9.164  3.8002  0.4214 -1.5053
  864MOL0     H16615  10.297   9.313   9.097  2.0313  0.8268  0.4611
  864MOL0     H16616  10.240   9.552   8.935  1.0003  1.3302  1.3954
  864MOL0     H16617  10.268   9.386   8.874 -1.3793 -0.3905  0.8752
  864MOL0     H16618  10.490   9.401   8.958 -3.7995 -1.5640 -2.1561
  864MOL0     H16619  10.473   9.556   8.863  1.8241  3.7904  2.4380
  864MOL0     H16620   9.449   9.039   9.197 -0.5908  1.6173 -0.6665
  864MOL0     H16621   9.261   8.908   9.228  0.3237  0.4944 -0.8885
  864MOL0     H16622   8.789   8.849   9.284 -0.3890  0.3802 -0.7033
  864MOL0     H16623   8.639   8.653   9.231  0.3159 -0.6238 -1.2978
  864MOL0     H16624   7.574   7.696   8.584  1.3173  1.6808  0.2145
  864MOL0     H16625   7.308   7.691   8.562 -2.6079  2.4010 -0.1512
  864MOL0     H16626   6.915   7.754   8.820 -0.5677  0.8046  1.5534
  864MOL0     H16627   6.675   7.730   8.802 -3.3321  0.9902 -1.6638
  864MOL0     H16628   6.544   7.628   8.683 -0.6074 -0.9885 -2.0389
  864MOL0     H16629   6.477   7.645   8.529 -2.0326 -2.1770  0.9882
  864MOL0     H16630   6.257   7.746   8.645 -1.4240 -0.2191  0.9311
  864MOL0     H16631   6.336   7.714   8.794 -0.3900  0.0737 -0.3448
  864MOL0     H16632   6.187   7.545   8.750  0.9280 -0.3223  1.0232
  864MOL0     H16633   6.338   7.456   8.734 -2.1301 -1.0318 -0.4557
  864MOL0     H16634   6.153   7.569   8.533  1.2713  1.0120 -0.3842
  864MOL0     H16635   6.316   7.519   8.478 -1.4807  3.0310 -1.5846
  864MOL0     H16636   6.070   7.173   8.497 -2.4991  1.1583 -1.3101
  864MOL0     H16637   6.696   7.936   8.415 -2.8184 -1.7479  0.1431
  864MOL0     H16638   6.998   8.057   8.441  0.1524 -0.4240 -1.6957
  864MOL0     H16639   7.009   7.886   8.379  1.3291 -0.3615  1.9068
  864MOL0     H16640   6.882   7.998   8.320 -3.1645  0.0176  1.3034
  865MOL0     O16641   1.982   4.260   2.292  0.9492  0.2432 -0.3770
  865MOL0     C16642   1.883   4.239   2.219 -0.0118  0.0987 -0.8053
  865MOL0     O16643   1.824   4.335   2.139  0.4809  0.3156 -0.0262
  865MOL0     C16644   1.871   4.466   2.136  0.5170  0.2789 -0.4620
  865MOL0     C16645   1.784   4.568   2.188  1.3270  0.7997 -0.2523
  865MOL0     C16646   1.838   4.697   2.200  0.7924  0.3846 -0.0569
  865MOL0     C16647   1.970   4.722   2.162 -0.3895 -0.3896  0.8366
  865MOL0     O16648   2.027   4.854   2.179 -0.2170  0.5498 -0.2532
  865MOL0     C16649   2.159   4.882   2.221  0.7371 -0.6717 -0.4191
  865MOL0     C16650   2.164   4.958   2.359  0.4600  0.1424 -0.3791
  865MOL0     C16651   2.078   5.090   2.346 -0.1020  0.5315  1.0318
  865MOL0     C16652   2.106   5.178   2.465  0.2314  0.6227  0.2967
  865MOL0     C16653   2.003   5.300   2.466 -0.8719  0.7178 -0.5695
  865MOL0     C16654   2.032   5.384   2.337 -0.8668 -0.0262 -0.3657
  865MOL0     C16655   1.945   5.512   2.336  0.7713  0.1907  0.0692
  865MOL0     C16656   1.996   5.616   2.441  0.1132  0.5601  1.1765
  865MOL0     N16657   1.913   5.613   2.561 -0.0640  0.4605  0.0420
  865MOL0     C16658   1.959   5.628   2.693  1.0990 -0.9593 -0.1741
  865MOL0     C16659   1.848   5.599   2.763 -0.1817 -0.0216  0.0596
  865MOL0     C16660   1.831   5.562   2.905  0.3424 -0.9260  0.2584
  865MOL0     C16661   1.868   5.669   3.006 -0.2575 -0.1947 -0.0632
  865MOL0     C16662   1.931   5.617   3.134  0.2944 -0.0496 -0.8845
  865MOL0     C16663   1.841   5.532   3.231  0.5575  0.4322  0.0042
  865MOL0     O16664   1.773   5.419   3.157 -0.6423  0.1906 -1.1598
  865MOL0     C16665   1.694   5.343   3.233  0.1920  0.9819 -0.4039
  865MOL0     C16666   1.612   5.380   3.348 -0.1554  0.6534  0.0513
  865MOL0     C16667   1.527   5.287   3.421 -0.4259  0.1238 -0.2400
  865MOL0     C16668   1.513   5.156   3.365 -1.0974 -0.4412 -0.8078
  865MOL0     C16669   1.405   5.068   3.414 -0.5241 -0.4656 -0.5310
  865MOL0     O16670   1.373   5.080   3.546 -0.3416  0.4051  0.1192
  865MOL0     C16671   1.339   4.964   3.619 -0.0726  0.1260 -0.3529
  865MOL0     C16672   1.287   4.980   3.749 -0.3825  0.0297  0.3313
  865MOL0     C16673   1.254   4.868   3.828  0.7289 -1.2749  0.0653
  865MOL0     C16674   1.265   4.735   3.780 -0.5590 -0.3969 -0.0971
  865MOL0     O16675   1.243   4.618   3.847  0.3139 -0.4247 -0.0084
  865MOL0     C16676   1.265   4.631   3.985  0.7915  0.6732  0.1500
  865MOL0     C16677   1.250   4.488   4.055 -0.4511 -0.1546 -0.4279
  865MOL0     C16678   1.128   4.410   4.012 -0.4560  0.7093  0.2917
  865MOL0     C16679   1.091   4.303   4.114 -0.9675 -0.0143  0.1614
  865MOL0     C16680   0.966   4.228   4.077  0.7976  0.0185  0.0802
  865MOL0     C16681   0.894   4.163   4.199 -1.4975 -0.3487  0.9997
  865MOL0     C16682   0.779   4.069   4.159  0.1216 -0.5209 -0.1842
  865MOL0     C16683   0.659   4.136   4.078 -0.4075 -0.1271 -0.3392
  865MOL0    Cl16684   0.574   4.252   4.188  0.5954  0.0603  0.3627
  865MOL0     C16685   1.314   4.720   3.651  0.4069  0.7539 -0.6453
  865MOL0     C16686   1.357   4.830   3.579  0.0266  1.1037  0.3470
  865MOL0     O16687   1.352   4.992   3.336  0.1502  0.0457  0.2368
  865MOL0     C16688   1.595   5.111   3.257  0.6926  1.0204 -0.2181
  865MOL0     C16689   1.677   5.202   3.191 -0.3130 -0.8476  0.0191
  865MOL0     N16690   1.736   5.599   2.680  1.1439  0.2075  0.1195
  865MOL0     N16691   1.773   5.614   2.556 -0.7039  0.0556 -0.4657
  865MOL0     C16692   2.051   4.625   2.104  0.4708  0.8022  0.6645
  865MOL0     C16693   2.003   4.494   2.089  0.9700 -0.9734 -0.2465
  865MOL0     C16694   1.811   4.118   2.221  0.4273  0.0548  0.3877
  865MOL0     C16695   1.730   4.086   2.106  0.4209  0.2577 -0.4876
  865MOL0     C16696   1.652   3.974   2.104  0.8097  0.3794  0.1422
  865MOL0     C16697   1.666   3.884   2.207  0.3075 -0.1731  0.5096
  865MOL0     O16698   1.577   3.781   2.212  0.0276 -0.3231  0.4203
  865MOL0     C16699   1.629   3.650   2.241 -0.0079  0.8065  0.7684
  865MOL0     C16700   1.515   3.560   2.235 -0.0018  1.7178 -0.7204
  865MOL0     C16701   1.548   3.408   2.273 -0.2585  0.0754 -0.0259
  865MOL0     C16702   1.432   3.309   2.258 -1.0130 -1.0707 -0.0432
  865MOL0     C16703   1.454   3.188   2.336 -0.4191 -0.2065 -0.2727
  865MOL0     C16704   1.496   3.093   2.392  0.5321 -0.8354  0.3644
  865MOL0     C16705   1.745   3.906   2.319  0.3260 -0.1879 -0.4096
  865MOL0     C16706   1.823   4.024   2.329  0.1086  0.5241  0.3438
  865MOL0     C16707   1.913   4.028   2.450  0.3731  0.1779  0.3975
  865MOL0     H16708   1.681   4.549   2.215  2.0946 -0.4234  2.1959
  865MOL0     H16709   1.789   4.781   2.248  0.4165 -0.1158  0.4503
  865MOL0     H16710   2.204   4.785   2.244  0.8213 -0.8793 -1.4247
  865MOL0     H16711   2.211   4.936   2.141 -0.5011  0.3926 -0.5469
  865MOL0     H16712   2.267   4.972   2.394 -0.9981  0.7728  4.4279
  865MOL0     H16713   2.123   4.888   2.433  0.0208  1.3475  0.5426
  865MOL0     H16714   1.974   5.058   2.337  0.8503 -3.1353  1.3376
  865MOL0     H16715   2.121   5.134   2.255  2.7444  0.2814  2.1513
  865MOL0     H16716   2.097   5.113   2.553  1.5284 -1.6170 -1.1276
  865MOL0     H16717   2.210   5.211   2.460  0.5448 -0.3704  0.0279
  865MOL0     H16718   1.901   5.262   2.465 -0.2677 -1.0810  0.9869
  865MOL0     H16719   2.012   5.352   2.562  2.8277 -2.7130  1.2445
  865MOL0     H16720   2.138   5.408   2.328 -1.0934  1.5894  0.7847
  865MOL0     H16721   2.012   5.325   2.247  2.6163 -0.3917 -1.0278
  865MOL0     H16722   1.840   5.483   2.344  0.5600  0.6233 -0.9674
  865MOL0     H16723   1.944   5.557   2.236 -1.3434 -0.9728 -0.5024
  865MOL0     H16724   2.102   5.594   2.458  1.2137  1.2259 -3.5093
  865MOL0     H16725   2.000   5.717   2.398  0.5761 -0.2918 -0.8952
  865MOL0     H16726   2.061   5.646   2.726  0.3222  2.4537  0.7092
  865MOL0     H16727   1.725   5.539   2.919  0.6543 -2.0760  0.8850
  865MOL0     H16728   1.900   5.477   2.916  0.4285 -0.8530  0.2807
  865MOL0     H16729   1.942   5.737   2.962  2.5109 -1.1083  2.8322
  865MOL0     H16730   1.778   5.727   3.029 -1.0271 -2.0717  1.9913
  865MOL0     H16731   1.963   5.701   3.196  0.2527 -0.2295 -0.6186
  865MOL0     H16732   2.024   5.565   3.105  0.8753 -1.4275  2.8724
  865MOL0     H16733   1.766   5.600   3.270  0.4711  0.4487 -0.1882
  865MOL0     H16734   1.908   5.503   3.313  1.3187  0.8123 -0.4738
  865MOL0     H16735   1.620   5.483   3.383 -1.2324  0.2402  1.6058
  865MOL0     H16736   1.480   5.312   3.515 -0.9215 -0.3543 -0.3514
  865MOL0     H16737   1.288   5.076   3.798  0.7827 -0.4437  1.3094
  865MOL0     H16738   1.214   4.885   3.927  2.1018 -0.8806  0.5763
  865MOL0     H16739   1.365   4.668   4.006  1.3512  0.9566 -2.6545
  865MOL0     H16740   1.192   4.698   4.032  2.2699  0.0918  3.6068
  865MOL0     H16741   1.340   4.432   4.026 -0.0388 -1.5694  3.0742
  865MOL0     H16742   1.249   4.511   4.162 -0.2500 -1.2487 -0.1781
  865MOL0     H16743   1.049   4.485   4.002  0.3897  1.3827 -1.8822
  865MOL0     H16744   1.148   4.361   3.916  2.6347 -0.1295  1.2462
  865MOL0     H16745   1.085   4.349   4.213  2.5693 -3.6240  2.4037
  865MOL0     H16746   1.172   4.228   4.119  0.8844  1.6926 -1.9855
  865MOL0     H16747   0.982   4.143   4.011 -0.4893 -2.7381  3.0570
  865MOL0     H16748   0.901   4.297   4.022  0.2870 -0.8827 -0.4592
  865MOL0     H16749   0.978   4.110   4.246 -0.7931 -2.5937 -2.4827
  865MOL0     H16750   0.862   4.246   4.263 -1.8770  0.1750  0.1472
  865MOL0     H16751   0.748   4.016   4.250  0.0258  1.4444  0.9944
  865MOL0     H16752   0.817   3.983   4.103 -1.0499 -0.6420 -0.8180
  865MOL0     H16753   0.694   4.179   3.984  1.2537  1.1320  0.7871
  865MOL0     H16754   0.590   4.058   4.045 -0.5813  0.7293 -2.1211
  865MOL0     H16755   1.312   4.621   3.607 -1.0924 -0.6529  2.3318
  865MOL0     H16756   1.389   4.816   3.476 -3.6993 -0.7978 -0.7195
  865MOL0     H16757   1.586   5.008   3.225  1.1079  0.5379  1.1597
  865MOL0     H16758   1.747   5.170   3.115  0.4749 -1.8524  1.1513
  865MOL0     H16759   2.151   4.638   2.062 -0.1460 -2.5851 -2.4147
  865MOL0     H16760   2.068   4.412   2.059 -2.0692 -3.4615 -0.5766
  865MOL0     H16761   1.731   4.148   2.016  1.3423 -2.3494 -2.4126
  865MOL0     H16762   1.589   3.949   2.019 -0.6922 -3.2551  2.0725
  865MOL0     H16763   1.662   3.635   2.344  0.2334  0.6767  0.6716
  865MOL0     H16764   1.702   3.623   2.165  0.3636 -1.6969  1.8978
  865MOL0     H16765   1.481   3.575   2.132  0.8052  0.8128 -1.1378
  865MOL0     H16766   1.452   3.604   2.313 -2.5670 -1.8792 -0.5046
  865MOL0     H16767   1.588   3.407   2.374  0.3092  2.2478 -0.1858
  865MOL0     H16768   1.628   3.371   2.208 -1.3917 -4.0427  0.6391
  865MOL0     H16769   1.343   3.358   2.300 -1.2206 -2.1312  0.7988
  865MOL0     H16770   1.402   3.289   2.155  2.2667  2.9261 -2.0842
  865MOL0     H16771   1.530   3.004   2.441  0.9266 -0.6327  0.4612
  865MOL0     H16772   1.745   3.829   2.396  1.5095 -2.8437 -2.8414
  865MOL0     H16773   1.840   4.009   2.529 -0.6154  1.5363 -0.1461
  865MOL0     H16774   1.974   3.937   2.450 -3.3952 -2.6444 -0.5876
  865MOL0     H16775   1.969   4.112   2.490 -2.0335  1.6171  0.9832
  866MOL0     O16776   6.082   0.421   6.928 -0.2028 -0.4043  0.0631
  866MOL0     C16777   6.031   0.490   6.837 -0.1641  0.9402 -0.8714
  866MOL0     O16778   6.077   0.611   6.796  0.5880 -0.2018 -0.5775
  866MOL0     C16779   6.194   0.659   6.849  0.1323 -0.4669  0.1541
  866MOL0     C16780   6.187   0.724   6.975 -0.4909  0.0659 -0.2088
  866MOL0     C16781   6.307   0.771   7.027 -0.9806  0.5627 -0.1085
  866MOL0     C16782   6.430   0.769   6.965 -0.3601 -1.9449 -0.3278
  866MOL0     O16783   6.535   0.831   7.043  0.1744 -0.1177  0.0924
  866MOL0     C16784   6.657   0.763   7.006 -0.2950  0.3761 -0.3555
  866MOL0     C16785   6.778   0.828   7.089 -0.5631 -0.1353 -0.6473
  866MOL0     C16786   6.782   0.984   7.085  0.1234  0.6402 -0.2340
  866MOL0     C16787   6.777   1.043   6.942 -0.0229  1.0583 -0.7180
  866MOL0     C16788   6.790   1.193   6.946 -0.2901 -0.9016 -0.6194
  866MOL0     C16789   6.670   1.265   7.013  0.3171 -0.6371  0.1332
  866MOL0     C16790   6.680   1.418   6.983  0.1529 -0.3743  0.0705
  866MOL0     C16791   6.742   1.495   7.100 -0.4553  0.7048 -0.1535
  866MOL0     N16792   6.887   1.484   7.095 -0.0513 -0.5062  0.7975
  866MOL0     C16793   6.959   1.402   7.177 -0.7113  0.0832 -0.5455
  866MOL0     C16794   7.086   1.432   7.154 -0.1076  0.4449  0.1450
  866MOL0     C16795   7.194   1.367   7.246 -1.1979  0.1990  0.5541
  866MOL0     C16796   7.200   1.423   7.387 -0.3974 -0.5070  0.3207
  866MOL0     C16797   7.286   1.326   7.477  0.3259 -0.4407 -0.5512
  866MOL0     C16798   7.305   1.370   7.623  0.2072 -0.7454 -0.0461
  866MOL0     O16799   7.179   1.381   7.680  0.3515  0.2781 -0.0927
  866MOL0     C16800   7.116   1.264   7.734 -0.1308 -0.8802  0.2676
  866MOL0     C16801   7.197   1.150   7.759  0.2105 -0.3769 -0.5874
  866MOL0     C16802   7.148   1.042   7.832 -0.1096 -0.2208  0.4200
  866MOL0     C16803   7.020   1.058   7.885  0.6356  0.4481  0.0686
  866MOL0     C16804   6.980   0.946   7.964 -0.1902 -0.9090  0.1271
  866MOL0     O16805   7.065   0.894   8.052 -0.6239 -0.5985  0.1551
  866MOL0     C16806   7.029   0.783   8.121 -0.3524 -0.5023 -1.3651
  866MOL0     C16807   6.985   0.669   8.067  0.0066 -0.9694  0.1533
  866MOL0     C16808   6.954   0.552   8.137 -0.7870  0.3975 -0.0696
  866MOL0     C16809   6.957   0.555   8.283 -1.5863  0.4363  0.5365
  866MOL0     O16810   6.917   0.457   8.374 -0.2182  0.5155  0.4519
  866MOL0     C16811   6.932   0.319   8.338  0.5670 -0.0706  0.0143
  866MOL0     C16812   6.796   0.274   8.291  0.3560  0.0583  0.1731
  866MOL0     C16813   6.690   0.276   8.401 -0.0432 -0.3650 -0.1383
  866MOL0     C16814   6.602   0.404   8.398  0.0082 -1.3760  1.0376
  866MOL0     C16815   6.499   0.425   8.514  0.3838  0.5517  0.7928
  866MOL0     C16816   6.426   0.286   8.537  0.1409 -0.7624 -0.6276
  866MOL0     C16817   6.299   0.300   8.624 -0.9334 -0.9347 -0.0645
  866MOL0     C16818   6.199   0.181   8.602 -0.5635 -1.0471 -0.4595
  866MOL0    Cl16819   6.253   0.049   8.714  0.2036  0.3961  0.2959
  866MOL0     C16820   6.995   0.672   8.338  0.7841 -0.0872 -0.5851
  866MOL0     C16821   7.042   0.788   8.260 -0.2337 -0.1352 -0.3081
  866MOL0     O16822   6.864   0.911   7.946 -0.7239 -0.1161  0.0721
  866MOL0     C16823   6.935   1.168   7.858 -0.5334 -0.3912 -0.8786
  866MOL0     C16824   6.978   1.265   7.777 -0.4841 -1.0365  0.9767
  866MOL0     N16825   7.101   1.541   7.067  0.0949  0.4889  0.2282
  866MOL0     N16826   6.979   1.585   7.045 -0.5769  0.5393  0.4115
  866MOL0     C16827   6.436   0.698   6.840  0.2453  0.0331  0.9284
  866MOL0     C16828   6.320   0.644   6.786 -0.9546 -0.1922 -0.8489
  866MOL0     C16829   5.928   0.437   6.749 -0.2305 -1.0702  0.5829
  866MOL0     C16830   5.893   0.516   6.630 -0.3909  0.8952 -0.3167
  866MOL0     C16831   5.818   0.457   6.527  0.0807 -0.0766  0.0889
  866MOL0     C16832   5.751   0.338   6.534  0.2749 -0.4902 -0.7676
  866MOL0     O16833   5.671   0.298   6.424 -0.4021 -0.2908  0.6007
  866MOL0     C16834   5.616   0.160   6.432  0.1415  0.1384  0.0609
  866MOL0     C16835   5.560   0.117   6.292  0.2916 -0.0815  0.0055
  866MOL0     C16836   5.547  -0.037   6.279  0.0139  0.7225  0.2331
  866MOL0     C16837   5.411  -0.076   6.333  0.5121  0.0222  0.4045
  866MOL0     C16838   5.309  -0.057   6.226 -0.7729  0.4057  0.5901
  866MOL0     C16839   5.242  -0.056   6.130 -0.2900  1.2688  0.1963
  866MOL0     C16840   5.772   0.268   6.655 -0.8039 -0.7326  1.0242
  866MOL0     C16841   5.861   0.316   6.754 -0.3712 -0.3716  0.4954
  866MOL0     C16842   5.865   0.227   6.878  0.0427  0.4722 -0.0543
  866MOL0     H16843   6.093   0.730   7.028  0.4149  3.7549  1.2574
  866MOL0     H16844   6.308   0.806   7.130  3.3917 -2.6029  1.2229
  866MOL0     H16845   6.654   0.659   7.039  0.2226  0.4754  0.0212
  866MOL0     H16846   6.678   0.771   6.899 -1.8573  0.1292 -0.7076
  866MOL0     H16847   6.879   0.792   7.070  0.3080 -0.1390  3.1274
  866MOL0     H16848   6.764   0.799   7.194 -1.5651 -1.1107 -1.0250
  866MOL0     H16849   6.873   1.009   7.140  2.0453 -0.1192 -2.8410
  866MOL0     H16850   6.695   1.029   7.134  0.0688  1.2554 -0.8780
  866MOL0     H16851   6.849   0.987   6.882 -1.3635 -0.4316 -0.9844
  866MOL0     H16852   6.682   1.018   6.893  0.1011 -1.7555  0.3029
  866MOL0     H16853   6.889   1.230   6.976 -0.8207  0.7471 -0.7667
  866MOL0     H16854   6.787   1.224   6.841 -3.0075 -0.7081 -0.5469
  866MOL0     H16855   6.582   1.226   6.960 -1.0719 -0.2571  2.0465
  866MOL0     H16856   6.660   1.245   7.120  0.6362  1.8081  0.6703
  866MOL0     H16857   6.581   1.465   6.976  0.4146  0.5270  1.7601
  866MOL0     H16858   6.715   1.444   6.883  0.7997  0.9471  0.6090
  866MOL0     H16859   6.706   1.597   7.082 -1.8338 -0.1673 -2.8043
  866MOL0     H16860   6.708   1.459   7.197  1.4332 -0.0804  0.2755
  866MOL0     H16861   6.920   1.329   7.247 -1.3181 -0.7143 -1.6914
  866MOL0     H16862   7.175   1.261   7.265 -0.0969 -0.0728  0.2481
  866MOL0     H16863   7.290   1.377   7.195 -2.0118  3.5954 -0.5884
  866MOL0     H16864   7.238   1.526   7.383 -1.4438 -0.0877 -3.5111
  866MOL0     H16865   7.095   1.420   7.415 -0.9096 -1.0620 -1.4892
  866MOL0     H16866   7.385   1.328   7.430 -0.3807 -0.1766 -2.0848
  866MOL0     H16867   7.233   1.231   7.489  1.9701 -1.3050  0.1741
  866MOL0     H16868   7.346   1.471   7.631 -0.6908 -0.5435  2.9804
  866MOL0     H16869   7.383   1.320   7.680  1.5337 -0.0899 -1.2146
  866MOL0     H16870   7.302   1.150   7.733 -0.3175 -1.3247 -2.9491
  866MOL0     H16871   7.223   0.968   7.858  0.8815  0.4916 -0.2960
  866MOL0     H16872   6.982   0.654   7.960  2.3101  2.1907 -0.5034
  866MOL0     H16873   6.932   0.460   8.083  1.5859  0.0619 -0.5468
  866MOL0     H16874   7.018   0.305   8.272  0.4670 -0.6420 -0.0007
  866MOL0     H16875   6.939   0.254   8.426 -1.2671  1.6031  1.4949
  866MOL0     H16876   6.767   0.329   8.201  3.2541 -0.0733 -0.9426
  866MOL0     H16877   6.799   0.173   8.248 -1.1643  1.3429 -3.3698
  866MOL0     H16878   6.629   0.186   8.388 -1.0628 -0.3304  3.5041
  866MOL0     H16879   6.739   0.258   8.497  0.7673 -2.2919 -0.8585
  866MOL0     H16880   6.552   0.395   8.302  3.0464  2.9042 -1.2368
  866MOL0     H16881   6.666   0.492   8.402 -1.6228  0.0312 -1.5967
  866MOL0     H16882   6.419   0.497   8.491  1.2348  0.8506 -1.5241
  866MOL0     H16883   6.547   0.454   8.608  2.6833 -1.5776  0.3764
  866MOL0     H16884   6.390   0.250   8.440 -0.5785  0.5679 -0.8788
  866MOL0     H16885   6.491   0.214   8.588 -0.3444 -0.2474  0.7502
  866MOL0     H16886   6.238   0.384   8.592 -0.9819 -1.3161 -1.0100
  866MOL0     H16887   6.324   0.311   8.730  2.2797  1.0849 -0.9037
  866MOL0     H16888   6.100   0.204   8.643 -1.4558 -2.1171 -1.9325
  866MOL0     H16889   6.203   0.155   8.496  3.2738 -0.8564 -0.4856
  866MOL0     H16890   6.989   0.674   8.447 -2.3376  0.6267 -0.6965
  866MOL0     H16891   7.106   0.859   8.311 -0.7844 -0.6892  1.2258
  866MOL0     H16892   6.835   1.186   7.894 -0.8229  1.0574 -2.3073
  866MOL0     H16893   6.923   1.347   7.732 -0.2863 -0.0049  2.5242
  866MOL0     H16894   6.526   0.702   6.780 -0.5397  2.0065 -0.2294
  866MOL0     H16895   6.318   0.589   6.693 -1.9626 -0.5139 -0.6487
  866MOL0     H16896   5.940   0.609   6.600  0.5082 -0.2173 -2.5726
  866MOL0     H16897   5.796   0.511   6.435  1.8786 -1.9540 -1.5384
  866MOL0     H16898   5.537   0.160   6.507 -0.5208  2.9060 -0.5304
  866MOL0     H16899   5.686   0.081   6.461  1.5651  0.8327 -1.3047
  866MOL0     H16900   5.621   0.158   6.211  0.4546  0.3062  0.3192
  866MOL0     H16901   5.459   0.156   6.274  0.3667  0.6836  1.1721
  866MOL0     H16902   5.623  -0.075   6.346 -1.2874 -0.8632  0.8874
  866MOL0     H16903   5.573  -0.065   6.176 -0.9106  0.0957  0.1591
  866MOL0     H16904   5.422  -0.184   6.348 -2.4019 -0.2741  1.1285
  866MOL0     H16905   5.385  -0.041   6.433 -0.4018  2.6243 -0.6666
  866MOL0     H16906   5.181  -0.058   6.042  1.2509 -0.2280 -0.8878
  866MOL0     H16907   5.715   0.178   6.672 -0.9645 -0.7452  0.4390
  866MOL0     H16908   5.952   0.162   6.868  0.3940  1.1522 -2.2218
  866MOL0     H16909   5.862   0.277   6.975  1.1727  2.7631 -1.1151
  866MOL0     H16910   5.787   0.151   6.881 -1.9359  2.4026  2.8268
  867MOL0     O16911   0.272   5.189   2.513  0.4485  0.6580 -0.4056
  867MOL0     C16912   0.199   5.100   2.466 -0.0783 -1.4259 -0.8566
  867MOL0     O16913   0.170   4.978   2.533 -0.2143 -0.3926 -0.7120
  867MOL0     C16914   0.190   4.967   2.670 -0.2039  0.7240  0.4923
  867MOL0     C16915   0.125   5.051   2.759 -0.0774 -0.5526 -0.5573
  867MOL0     C16916   0.137   5.035   2.897  0.0822  0.4974 -0.1467
  867MOL0     C16917   0.202   4.916   2.949 -0.0921 -1.0573 -0.0024
  867MOL0     O16918   0.194   4.882   3.080  0.2700 -0.0041  0.3455
  867MOL0     C16919   0.305   4.816   3.143  0.1282 -0.7003 -0.6093
  867MOL0     C16920   0.293   4.858   3.288  0.2447  0.2282 -0.4926
  867MOL0     C16921   0.396   4.809   3.387  0.7476  0.6344  0.0449
  867MOL0     C16922   0.532   4.838   3.346 -0.5354  0.2239 -0.1781
  867MOL0     C16923   0.635   4.814   3.454 -0.2920 -0.8578 -0.1070
  867MOL0     C16924   0.737   4.932   3.445 -0.0106 -0.4981 -0.2631
  867MOL0     C16925   0.863   4.930   3.546 -0.0791  0.3074  0.1679
  867MOL0     C16926   0.937   4.794   3.524  0.4113 -0.0923 -0.1262
  867MOL0     N16927   0.981   4.772   3.388 -0.7435  0.4590 -0.4197
  867MOL0     C16928   1.061   4.859   3.314  0.3302  0.4089 -0.2746
  867MOL0     C16929   1.049   4.818   3.183  1.0110 -0.5699 -0.8794
  867MOL0     C16930   1.111   4.865   3.053  0.6773  0.6256  0.8937
  867MOL0     C16931   1.072   4.791   2.924  0.4816  0.1523 -1.0406
  867MOL0     C16932   1.156   4.840   2.809 -0.5973  0.0635 -0.6953
  867MOL0     C16933   1.167   4.720   2.707 -0.8942  0.0924 -0.9036
  867MOL0     O16934   1.266   4.750   2.606  0.8342  0.3745 -0.0984
  867MOL0     C16935   1.259   4.682   2.488 -0.2237  0.4309  0.9447
  867MOL0     C16936   1.256   4.537   2.495  0.6174  0.6062  1.4502
  867MOL0     C16937   1.251   4.462   2.375  0.4952  0.4488 -0.1226
  867MOL0     C16938   1.246   4.530   2.253 -0.2394  0.5811 -0.6222
  867MOL0     C16939   1.250   4.448   2.131  0.6084 -0.2549  0.2367
  867MOL0     O16940   1.292   4.509   2.014  0.6511  0.0017 -0.2290
  867MOL0     C16941   1.331   4.430   1.908  0.3009  1.0903  0.6144
  867MOL0     C16942   1.463   4.399   1.881  0.6325 -1.0876 -0.1678
  867MOL0     C16943   1.492   4.320   1.765 -0.2241  0.4168 -0.2277
  867MOL0     C16944   1.389   4.285   1.673  0.9053 -0.6208 -0.0761
  867MOL0     O16945   1.404   4.232   1.544  0.1271  0.1806 -0.2637
  867MOL0     C16946   1.502   4.140   1.521 -0.0366 -0.3333  0.5972
  867MOL0     C16947   1.460   4.004   1.560 -0.5884  0.0861  0.5993
  867MOL0     C16948   1.578   3.909   1.587 -0.0167 -0.6325 -0.5788
  867MOL0     C16949   1.513   3.780   1.628  0.0475 -0.2464  0.5164
  867MOL0     C16950   1.632   3.689   1.637 -0.8830  0.1326 -0.4493
  867MOL0     C16951   1.608   3.552   1.694 -0.1554 -0.3488  0.3647
  867MOL0     C16952   1.586   3.561   1.846  0.2741 -0.1268  0.3089
  867MOL0     C16953   1.618   3.425   1.907  0.0669  1.0071  0.5472
  867MOL0    Cl16954   1.488   3.308   1.852 -0.3763 -0.7040  0.5329
  867MOL0     C16955   1.263   4.333   1.699  0.7276  0.1148  0.9309
  867MOL0     C16956   1.235   4.405   1.809  0.4709  0.4348  0.1015
  867MOL0     O16957   1.213   4.335   2.140 -0.3381 -0.0106  0.7295
  867MOL0     C16958   1.268   4.672   2.251  0.1800 -0.3925 -0.3421
  867MOL0     C16959   1.272   4.743   2.365 -0.5556 -0.2471  0.2334
  867MOL0     N16960   0.970   4.699   3.195 -0.6003  0.3214  0.1720
  867MOL0     N16961   0.926   4.681   3.313 -0.4498 -0.0507 -0.1895
  867MOL0     C16962   0.254   4.836   2.857  0.1198  0.2089  0.0099
  867MOL0     C16963   0.251   4.856   2.723 -0.0167 -0.3448  0.3300
  867MOL0     C16964   0.160   5.119   2.327  0.3328  0.3429  0.1690
  867MOL0     C16965   0.096   5.010   2.252 -0.2168 -0.1828  0.1698
  867MOL0     C16966   0.060   5.022   2.120  0.6266 -0.1754 -0.3151
  867MOL0     C16967   0.082   5.143   2.053 -0.5936  0.4417  0.8474
  867MOL0     O16968   0.054   5.169   1.922  0.2878  0.0999 -0.2612
  867MOL0     C16969  -0.040   5.091   1.843  0.6375  0.6255  0.8841
  867MOL0     C16970   0.046   5.015   1.735 -0.9375  0.4516 -0.2129
  867MOL0     C16971  -0.018   4.980   1.595 -0.2459  0.5790  0.1137
  867MOL0     C16972  -0.130   4.871   1.608  0.1870 -0.0729  0.1140
  867MOL0     C16973  -0.212   4.837   1.480 -0.4414  0.0895  1.3239
  867MOL0     C16974  -0.275   4.788   1.384 -0.6694 -0.2361 -0.0769
  867MOL0     C16975   0.116   5.251   2.129  0.4947 -0.5736  0.0399
  867MOL0     C16976   0.164   5.245   2.260 -0.5512 -0.1233  0.7023
  867MOL0     C16977   0.214   5.379   2.322 -0.5859  0.2515  0.0985
  867MOL0     H16978   0.073   5.143   2.733 -3.8640 -2.2716  0.3864
  867MOL0     H16979   0.087   5.099   2.969  1.4181  0.1229  1.1816
  867MOL0     H16980   0.305   4.707   3.129  1.2970 -1.0370  1.5286
  867MOL0     H16981   0.395   4.858   3.097  2.0211 -0.8595  2.5889
  867MOL0     H16982   0.201   4.809   3.321  0.3140  0.1238 -0.4522
  867MOL0     H16983   0.296   4.967   3.295  0.7094  0.2489 -0.9910
  867MOL0     H16984   0.373   4.704   3.405 -4.9872  1.5683 -0.1639
  867MOL0     H16985   0.390   4.861   3.483  0.6575 -1.1957  1.0838
  867MOL0     H16986   0.555   4.773   3.261 -1.3324 -0.8497  0.4019
  867MOL0     H16987   0.535   4.942   3.312  2.0643  0.3727  0.2471
  867MOL0     H16988   0.595   4.836   3.554 -2.1295 -1.5180 -0.6613
  867MOL0     H16989   0.674   4.712   3.452  1.1758 -0.3196 -0.1445
  867MOL0     H16990   0.776   4.931   3.343 -1.9873 -0.3789 -1.0858
  867MOL0     H16991   0.688   5.028   3.464  1.9303  0.7848 -1.4018
  867MOL0     H16992   0.832   4.938   3.651  0.5747 -1.5018  0.5354
  867MOL0     H16993   0.937   5.005   3.519  0.3262 -1.1475 -3.2342
  867MOL0     H16994   1.030   4.796   3.580  1.0590 -2.0192 -1.0366
  867MOL0     H16995   0.880   4.706   3.555  3.3729 -1.6237  1.4053
  867MOL0     H16996   1.118   4.945   3.349  0.0218  0.8777 -0.9008
  867MOL0     H16997   1.069   4.963   3.029  1.2308  0.6395 -0.0463
  867MOL0     H16998   1.216   4.893   3.058  0.2949  2.3501  0.0461
  867MOL0     H16999   1.090   4.686   2.948 -0.5700  0.2683  0.3582
  867MOL0     H17000   0.966   4.803   2.902  0.8377 -0.8477 -3.6340
  867MOL0     H17001   1.258   4.867   2.839 -1.0858 -0.3195  1.4670
  867MOL0     H17002   1.099   4.918   2.758 -1.2658 -0.2133 -0.3835
  867MOL0     H17003   1.069   4.709   2.661 -1.8416 -0.1035  1.0628
  867MOL0     H17004   1.187   4.635   2.772 -0.4417  0.7858 -0.1162
  867MOL0     H17005   1.251   4.484   2.590  0.4570 -3.2940 -0.5121
  867MOL0     H17006   1.255   4.353   2.375 -0.4541  0.3924  1.0441
  867MOL0     H17007   1.547   4.433   1.940  1.1281  0.0799 -1.4965
  867MOL0     H17008   1.596   4.290   1.764 -0.8613 -1.9391 -1.1225
  867MOL0     H17009   1.508   4.144   1.412 -3.0857 -2.2107  0.2604
  867MOL0     H17010   1.598   4.154   1.571 -0.6676  2.0824  1.2985
  867MOL0     H17011   1.404   4.015   1.653 -0.7916  0.3720  0.4458
  867MOL0     H17012   1.385   3.968   1.489 -1.4197  0.4726  1.2642
  867MOL0     H17013   1.645   3.904   1.502  0.9329 -1.1032  0.1776
  867MOL0     H17014   1.626   3.961   1.671 -2.9721 -0.5447  1.2385
  867MOL0     H17015   1.440   3.739   1.557 -1.6759 -0.9117  2.5639
  867MOL0     H17016   1.462   3.789   1.725 -2.2099 -0.4274 -0.5856
  867MOL0     H17017   1.714   3.734   1.694 -1.4090  1.2316 -0.5495
  867MOL0     H17018   1.670   3.665   1.536 -0.9534 -0.1522 -0.4094
  867MOL0     H17019   1.532   3.494   1.641  0.6793 -2.5665  1.4902
  867MOL0     H17020   1.698   3.492   1.678 -0.3445 -0.7385  0.7553
  867MOL0     H17021   1.486   3.601   1.867 -0.7755 -3.2710  1.8503
  867MOL0     H17022   1.661   3.629   1.888 -1.4823  1.2842  1.3113
  867MOL0     H17023   1.722   3.392   1.893 -0.3569 -0.8285  1.4026
  867MOL0     H17024   1.609   3.437   2.015  2.6263 -0.6850  1.0460
  867MOL0     H17025   1.183   4.318   1.627 -0.2433 -0.6121  2.1245
  867MOL0     H17026   1.136   4.448   1.821 -0.0133 -0.8736  1.0494
  867MOL0     H17027   1.269   4.711   2.150  0.7965 -4.0620 -1.9273
  867MOL0     H17028   1.276   4.852   2.363  2.7802 -0.2641  0.0666
  867MOL0     H17029   0.311   4.753   2.895  2.8141  2.5886  1.5545
  867MOL0     H17030   0.290   4.779   2.656  3.5718 -0.1231  1.9752
  867MOL0     H17031   0.105   4.915   2.303  3.1929 -0.2104 -0.2998
  867MOL0     H17032   0.007   4.942   2.069  0.3467 -0.0361 -0.2474
  867MOL0     H17033  -0.111   5.159   1.795 -0.5720  0.2305  2.0679
  867MOL0     H17034  -0.091   5.012   1.899  1.6626 -0.0295  0.9277
  867MOL0     H17035   0.100   4.924   1.765 -0.6154  0.2426 -1.3677
  867MOL0     H17036   0.129   5.082   1.709  0.8488 -1.0326  1.3893
  867MOL0     H17037   0.060   4.956   1.521  0.1551 -0.1906  0.7596
  867MOL0     H17038  -0.055   5.078   1.564 -3.4041 -0.0435  1.6035
  867MOL0     H17039  -0.084   4.773   1.624  1.1806  0.1807 -0.9610
  867MOL0     H17040  -0.195   4.894   1.693 -0.1074  0.4776 -0.2481
  867MOL0     H17041  -0.322   4.753   1.294  0.5448 -1.4757 -0.2687
  867MOL0     H17042   0.112   5.345   2.076 -0.9475 -0.0923  0.9267
  867MOL0     H17043   0.127   5.441   2.347 -2.6341 -1.1527 -2.9385
  867MOL0     H17044   0.302   5.377   2.387  1.0628 -1.6819 -1.9888
  867MOL0     H17045   0.253   5.441   2.240 -1.6049 -0.4296 -0.9420
  868MOL0     O17046  10.702  11.134   0.635  0.0921 -0.4484  0.7411
  868MOL0     C17047  10.694  11.033   0.564  0.7796  0.0049  0.0563
  868MOL0     O17048  10.773  11.006   0.459 -0.4933 -0.3366 -0.4132
  868MOL0     C17049  10.905  11.059   0.448  0.0152 -0.6517 -0.8956
  868MOL0     C17050  10.930  11.192   0.473  0.2588 -0.6235 -1.1657
  868MOL0     C17051  11.064  11.233   0.464  0.6233 -0.8581  0.2738
  868MOL0     C17052  11.163  11.143   0.431  1.0075  0.7318 -0.5202
  868MOL0     O17053  11.287  11.186   0.423  0.6849  0.0230  0.6634
  868MOL0     C17054  11.342  11.170   0.289 -0.9164  0.5312  0.6360
  868MOL0     C17055  11.399  11.301   0.227 -0.5725  0.8161 -0.7751
  868MOL0     C17056  11.295  11.385   0.158  0.2516 -0.5789  0.1152
  868MOL0     C17057  11.240  11.486   0.259 -0.1623 -0.5777 -0.4092
  868MOL0     C17058  11.163  11.597   0.185 -0.0493  0.5976 -0.5954
  868MOL0     C17059  11.096  11.696   0.282  0.3001  0.1886  0.3539
  868MOL0     C17060  10.969  11.646   0.350 -0.2849  0.1479  0.6103
  868MOL0     C17061  10.867  11.582   0.261  0.1413 -0.2363 -0.5214
  868MOL0     N17062  10.732  11.567   0.328 -0.5711 -0.6472  0.6833
  868MOL0     C17063  10.675  11.449   0.363 -0.4868 -0.1038 -0.5710
  868MOL0     C17064  10.540  11.480   0.380 -0.3517  0.3076 -0.2512
  868MOL0     C17065  10.427  11.391   0.417 -0.5140  1.3333  0.2819
  868MOL0     C17066  10.322  11.453   0.509  0.3572  0.3023  0.5283
  868MOL0     C17067  10.368  11.470   0.655  0.6382  0.1603  0.9440
  868MOL0     C17068  10.455  11.584   0.698  0.0183 -0.2981  0.3509
  868MOL0     O17069  10.443  11.598   0.836 -0.1144  0.3319  0.4818
  868MOL0     C17070  10.562  11.592   0.908  0.4582 -0.1910 -0.4212
  868MOL0     C17071  10.675  11.522   0.874  0.1254  0.8422  0.4094
  868MOL0     C17072  10.774  11.501   0.968 -0.3717  0.9744  0.5626
  868MOL0     C17073  10.761  11.559   1.097 -0.3229  0.2609  0.2453
  868MOL0     C17074  10.875  11.558   1.190 -0.2197 -0.4021 -0.1478
  868MOL0     O17075  10.862  11.637   1.301 -0.0062  0.3869  0.5043
  868MOL0     C17076  10.969  11.636   1.389 -0.6427  0.0475 -0.1923
  868MOL0     C17077  11.072  11.729   1.355 -0.0009  0.0776 -0.3114
  868MOL0     C17078  11.174  11.752   1.440  0.6491  0.8854  0.2422
  868MOL0     C17079  11.180  11.669   1.555 -0.4197 -0.1215  0.6417
  868MOL0     O17080  11.289  11.684   1.637  0.1815  0.2376  0.1437
  868MOL0     C17081  11.283  11.728   1.776  0.0135  0.7140 -0.3113
  868MOL0     C17082  11.431  11.720   1.829  0.2548  0.4134 -0.2689
  868MOL0     C17083  11.435  11.767   1.975 -0.2345  1.2619 -0.3908
  868MOL0     C17084  11.574  11.748   2.035  0.1621  0.4388 -1.3234
  868MOL0     C17085  11.597  11.819   2.172  0.4904  0.1523  0.0101
  868MOL0     C17086  11.614  11.975   2.144 -0.6426  0.2470  0.1375
  868MOL0     C17087  11.764  12.015   2.146 -0.1519  1.4576 -0.5845
  868MOL0     C17088  11.803  12.118   2.047 -0.7088  0.6485  1.1496
  868MOL0    Cl17089  11.692  12.266   2.063 -0.1131  0.1672  0.3605
  868MOL0     C17090  11.082  11.577   1.586 -0.4208 -0.7194 -0.4271
  868MOL0     C17091  10.973  11.557   1.503  0.0701 -0.2930  0.0007
  868MOL0     O17092  10.972  11.482   1.163  0.3902 -0.0759 -0.6189
  868MOL0     C17093  10.658  11.643   1.130 -0.0883  1.5078 -0.2481
  868MOL0     C17094  10.562  11.654   1.034  0.2966 -1.5022 -0.8859
  868MOL0     N17095  10.513  11.613   0.355  0.7271  0.6074 -0.6182
  868MOL0     N17096  10.629  11.659   0.314 -0.4011 -0.5299  0.6553
  868MOL0     C17097  11.130  11.010   0.394  0.5729  0.9005 -0.5628
  868MOL0     C17098  11.002  10.974   0.415  0.2660  0.2471 -1.2246
  868MOL0     C17099  10.567  10.941   0.580 -0.2417  0.1399  0.2179
  868MOL0     C17100  10.559  10.824   0.502  0.3654  0.8733  0.1169
  868MOL0     C17101  10.444  10.741   0.496 -0.9293  0.1899  0.0809
  868MOL0     C17102  10.337  10.771   0.578 -0.2237  0.2719  0.1028
  868MOL0     O17103  10.226  10.698   0.589  0.8452  0.3068  0.3359
  868MOL0     C17104  10.244  10.559   0.633 -0.3404 -0.4905  0.0726
  868MOL0     C17105  10.200  10.532   0.783  0.3757 -0.7384  0.5654
  868MOL0     C17106  10.142  10.399   0.810 -0.3427  0.5411 -0.3116
  868MOL0     C17107  10.056  10.376   0.936 -0.2794 -0.8735 -0.4301
  868MOL0     C17108   9.950  10.279   0.923  0.4879  0.1011 -1.2042
  868MOL0     C17109   9.859  10.198   0.928 -0.1720  0.0808 -0.2802
  868MOL0     C17110  10.347  10.886   0.654  0.1620  0.4818 -0.3118
  868MOL0     C17111  10.455  10.972   0.655  0.3566  0.6304 -1.2457
  868MOL0     C17112  10.444  11.106   0.733  0.9417 -1.1570 -0.3368
  868MOL0     H17113  10.853  11.265   0.495  0.4068 -0.2254 -1.9163
  868MOL0     H17114  11.092  11.337   0.479  4.3610 -1.1099 -3.1403
  868MOL0     H17115  11.423  11.100   0.312 -1.0933  0.2403  0.3633
  868MOL0     H17116  11.272  11.119   0.223  1.9586 -2.9653  0.0143
  868MOL0     H17117  11.465  11.278   0.142 -2.1704 -0.6603 -1.6848
  868MOL0     H17118  11.446  11.359   0.307  1.9297  0.4955 -1.9187
  868MOL0     H17119  11.214  11.326   0.116  1.2876 -0.7649 -1.6903
  868MOL0     H17120  11.344  11.445   0.081 -3.0667  0.0811 -1.6495
  868MOL0     H17121  11.179  11.427   0.328 -0.9149  0.2605 -0.3428
  868MOL0     H17122  11.318  11.527   0.323  1.5876 -2.1679 -1.4354
  868MOL0     H17123  11.231  11.661   0.127 -0.2143  0.5199 -0.8748
  868MOL0     H17124  11.093  11.537   0.126  0.0623  0.8706 -1.0116
  868MOL0     H17125  11.171  11.723   0.356 -0.6128 -1.1702  1.8307
  868MOL0     H17126  11.067  11.785   0.225  0.4680  0.1085  0.1392
  868MOL0     H17127  10.924  11.720   0.418  1.7853  0.6776  1.4634
  868MOL0     H17128  11.001  11.572   0.423 -0.5383  1.6740  2.3598
  868MOL0     H17129  10.845  11.641   0.172 -2.2156 -0.4596 -0.1595
  868MOL0     H17130  10.899  11.485   0.225  4.2170  0.5856  0.4181
  868MOL0     H17131  10.709  11.346   0.355 -0.5092 -0.0760 -1.0757
  868MOL0     H17132  10.382  11.346   0.328  0.0266  1.0794  0.1362
  868MOL0     H17133  10.481  11.311   0.469 -1.7736  1.5562  2.0275
  868MOL0     H17134  10.285  11.547   0.467 -0.8737 -0.9341 -1.2909
  868MOL0     H17135  10.239  11.382   0.509 -0.1884  0.9171 -0.6372
  868MOL0     H17136  10.420  11.378   0.681  2.3796  0.1410 -2.1767
  868MOL0     H17137  10.277  11.491   0.714  0.8850  0.0866  1.3537
  868MOL0     H17138  10.405  11.661   0.639  2.4952  1.8529  0.8849
  868MOL0     H17139  10.556  11.569   0.659 -0.3797 -0.9638 -0.4642
  868MOL0     H17140  10.686  11.471   0.779  1.0502  3.4036 -0.9483
  868MOL0     H17141  10.870  11.454   0.948  0.0728  2.4124 -0.9998
  868MOL0     H17142  11.085  11.769   1.254 -0.8591  0.7455 -0.1709
  868MOL0     H17143  11.248  11.825   1.409 -2.2022  2.5858 -3.3541
  868MOL0     H17144  11.246  11.831   1.785 -0.9568  0.4429 -1.0913
  868MOL0     H17145  11.216  11.662   1.833 -2.0384  3.0724  0.2078
  868MOL0     H17146  11.470  11.619   1.816  2.1632  1.3252 -2.0917
  868MOL0     H17147  11.504  11.777   1.771  2.6450 -0.5773  1.6027
  868MOL0     H17148  11.401  11.871   1.973 -2.7829  0.5754  1.3889
  868MOL0     H17149  11.366  11.717   2.044 -0.6595  0.8943 -1.0776
  868MOL0     H17150  11.649  11.776   1.960 -0.2034  2.4388 -1.0101
  868MOL0     H17151  11.580  11.641   2.056 -1.0468  0.4770 -0.7306
  868MOL0     H17152  11.681  11.772   2.224  0.5572 -2.6274 -2.3184
  868MOL0     H17153  11.517  11.811   2.245 -1.0995  2.5394 -1.3292
  868MOL0     H17154  11.582  12.002   2.043 -0.0016 -1.0060 -0.4129
  868MOL0     H17155  11.557  12.027   2.221 -0.1505  1.9811 -0.6191
  868MOL0     H17156  11.826  11.927   2.124 -0.7688 -0.2240  3.4501
  868MOL0     H17157  11.797  12.053   2.243 -0.0972 -0.1906  0.0837
  868MOL0     H17158  11.907  12.153   2.049 -1.2796  2.5623  0.2057
  868MOL0     H17159  11.803  12.068   1.950  2.6976  0.3191  1.1931
  868MOL0     H17160  11.094  11.513   1.672 -1.4810 -3.0176 -1.8739
  868MOL0     H17161  10.897  11.485   1.531 -0.9133  0.4540 -0.6703
  868MOL0     H17162  10.647  11.696   1.224 -1.7867 -1.0499  1.1189
  868MOL0     H17163  10.469  11.707   1.047 -1.4178 -4.3914 -0.5302
  868MOL0     H17164  11.202  10.936   0.363 -0.6722 -1.7982  2.4142
  868MOL0     H17165  10.976  10.869   0.406  0.1240 -0.0365  1.6719
  868MOL0     H17166  10.647  10.792   0.447 -0.1882 -2.0287  0.7256
  868MOL0     H17167  10.435  10.654   0.432  0.6032 -0.1727  0.3247
  868MOL0     H17168  10.345  10.519   0.622 -0.2571 -0.0425 -0.9659
  868MOL0     H17169  10.194  10.491   0.563  2.3789 -3.3117  0.6522
  868MOL0     H17170  10.123  10.609   0.791  1.6324  0.8261 -1.2980
  868MOL0     H17171  10.287  10.554   0.846 -0.1973 -0.3526  1.2378
  868MOL0     H17172  10.217  10.319   0.815 -2.2645 -1.2824  2.5440
  868MOL0     H17173  10.079  10.386   0.721 -1.2615 -0.2176  0.4371
  868MOL0     H17174  10.111  10.350   1.028  0.0196  4.1113  1.1178
  868MOL0     H17175  10.010  10.468   0.973  1.2086 -0.0342 -0.5778
  868MOL0     H17176   9.783  10.124   0.941  1.8369 -1.7243  2.2399
  868MOL0     H17177  10.268  10.906   0.726  1.4638 -0.5698  1.4965
  868MOL0     H17178  10.467  11.186   0.662  2.9143  1.2525  2.7572
  868MOL0     H17179  10.349  11.125   0.783  1.3091  0.7592 -0.3035
  868MOL0     H17180  10.526  11.111   0.804 -0.5403  1.7909  1.3396
  869MOL0     O17181   1.415   6.630   0.565  0.3562 -0.6951  0.4440
  869MOL0     C17182   1.484   6.592   0.475 -1.1355  0.3641 -0.9772
  869MOL0     O17183   1.564   6.476   0.478  0.7982  0.0171  1.1631
  869MOL0     C17184   1.521   6.361   0.551 -0.5830  0.2926 -0.0457
  869MOL0     C17185   1.385   6.327   0.541 -0.6305  0.2115 -0.0436
  869MOL0     C17186   1.335   6.211   0.602  0.5134 -0.3995 -1.0311
  869MOL0     C17187   1.413   6.138   0.689 -0.7456  0.5028  0.4773
  869MOL0     O17188   1.358   6.037   0.763  0.8048  0.0498 -0.7027
  869MOL0     C17189   1.429   5.922   0.813  0.9264 -0.7183  0.2314
  869MOL0     C17190   1.315   5.829   0.874 -0.3763 -0.2395  0.2429
  869MOL0     C17191   1.267   5.896   1.011 -0.4866 -0.5273  0.8199
  869MOL0     C17192   1.143   5.827   1.077  0.1417 -0.2117  0.0547
  869MOL0     C17193   1.076   5.895   1.191  0.3302 -1.1762  1.2545
  869MOL0     C17194   1.159   5.980   1.300 -0.3550 -0.0153  0.2986
  869MOL0     C17195   1.266   5.894   1.372 -0.1361  0.5664  0.4254
  869MOL0     C17196   1.208   5.784   1.459 -0.0368  0.3105  0.9686
  869MOL0     N17197   1.316   5.730   1.546  1.1194  0.4359  0.1770
  869MOL0     C17198   1.359   5.771   1.664 -0.4391  0.3021  0.5195
  869MOL0     C17199   1.464   5.703   1.704 -0.0709  0.3888  0.7941
  869MOL0     C17200   1.536   5.724   1.833  0.1251 -0.5887  0.2249
  869MOL0     C17201   1.667   5.787   1.820 -0.1478  0.7554  0.5758
  869MOL0     C17202   1.731   5.816   1.959 -0.0533  0.2706  0.3044
  869MOL0     C17203   1.784   5.712   2.059 -0.0556  0.1647  0.0668
  869MOL0     O17204   1.670   5.633   2.106 -0.1611  0.0808 -1.1516
  869MOL0     C17205   1.581   5.680   2.193 -1.1799  0.0916 -0.3229
  869MOL0     C17206   1.616   5.779   2.291  0.5286 -0.0817  0.5098
  869MOL0     C17207   1.529   5.807   2.392  0.1586  0.3578  0.6813
  869MOL0     C17208   1.400   5.744   2.384  0.2819 -0.0958  0.1503
  869MOL0     C17209   1.298   5.765   2.497  0.3871 -0.9394 -0.1324
  869MOL0     O17210   1.197   5.671   2.510 -0.1658  0.3411  0.2307
  869MOL0     C17211   1.093   5.707   2.589  0.2427  0.8076  0.4162
  869MOL0     C17212   0.974   5.747   2.519  0.0206  0.0336 -0.4108
  869MOL0     C17213   0.866   5.771   2.597 -0.0507 -0.0473  0.1089
  869MOL0     C17214   0.871   5.769   2.741  0.8430 -0.3666 -0.1784
  869MOL0     O17215   0.757   5.801   2.807 -0.2153 -0.9362 -0.6546
  869MOL0     C17216   0.696   5.699   2.888 -0.1635  0.9633  1.4715
  869MOL0     C17217   0.604   5.762   2.986 -0.4464 -0.1862  0.4492
  869MOL0     C17218   0.533   5.666   3.069  0.1573 -0.0549  0.0675
  869MOL0     C17219   0.470   5.728   3.192  0.4777 -0.6260 -0.1590
  869MOL0     C17220   0.439   5.632   3.314 -0.3720 -0.6915  0.3562
  869MOL0     C17221   0.382   5.699   3.431  0.2485 -0.3994  0.9727
  869MOL0     C17222   0.384   5.615   3.554 -0.6953 -0.3860  0.2859
  869MOL0     C17223   0.276   5.653   3.647 -0.4555 -0.2915  0.3381
  869MOL0    Cl17224   0.249   5.533   3.769 -0.1218  0.0320 -0.0282
  869MOL0     C17225   0.987   5.734   2.806 -0.5914  0.0281  0.5620
  869MOL0     C17226   1.101   5.702   2.725 -0.4557 -0.4290 -0.0900
  869MOL0     O17227   1.305   5.868   2.564  0.2366 -0.7015 -0.4650
  869MOL0     C17228   1.362   5.655   2.287 -0.3799  0.0904 -0.0718
  869MOL0     C17229   1.455   5.619   2.196 -1.3402  0.0550 -0.4284
  869MOL0     N17230   1.491   5.616   1.602 -0.6279 -0.7969  0.8767
  869MOL0     N17231   1.396   5.620   1.510  0.3083 -0.4635 -0.5224
  869MOL0     C17232   1.555   6.173   0.688  1.5395 -0.1710  0.7341
  869MOL0     C17233   1.608   6.281   0.620  0.3946 -0.6482 -0.2578
  869MOL0     C17234   1.526   6.695   0.373  0.4077 -0.8543 -0.4693
  869MOL0     C17235   1.665   6.704   0.331  0.1129 -0.4212  0.5521
  869MOL0     C17236   1.709   6.801   0.233  0.5785  1.2510 -0.1705
  869MOL0     C17237   1.625   6.904   0.195  0.5626  0.4237  0.5492
  869MOL0     O17238   1.685   6.996   0.111  0.1293  0.8496  0.2645
  869MOL0     C17239   1.628   7.129   0.103 -0.3087  0.2650  0.0238
  869MOL0     C17240   1.727   7.250   0.082  0.0513  0.8897  0.4595
  869MOL0     C17241   1.654   7.382   0.035  0.3842  0.9105  0.0791
  869MOL0     C17242   1.744   7.504   0.015 -0.7732  0.4588 -0.4479
  869MOL0     C17243   1.688   7.612  -0.078  0.5705  0.3184  0.0635
  869MOL0     C17244   1.631   7.684  -0.153 -1.0862 -0.5716  0.7589
  869MOL0     C17245   1.484   6.892   0.230 -0.4353 -0.0510  1.3046
  869MOL0     C17246   1.441   6.788   0.321 -0.2259 -1.3613  0.6799
  869MOL0     C17247   1.298   6.789   0.364  0.1492 -0.3149  0.3382
  869MOL0     H17248   1.310   6.362   0.471 -0.6474  1.9595  0.7804
  869MOL0     H17249   1.230   6.185   0.597  0.5713 -1.7911  2.2808
  869MOL0     H17250   1.471   5.860   0.733 -3.5379 -2.9054 -0.7367
  869MOL0     H17251   1.503   5.947   0.889  0.8655 -2.3183  0.8602
  869MOL0     H17252   1.344   5.726   0.896  0.8548 -0.1544 -0.8683
  869MOL0     H17253   1.232   5.829   0.803  1.5784  4.4559 -2.5509
  869MOL0     H17254   1.248   6.001   0.986  3.3282 -0.3800 -2.5357
  869MOL0     H17255   1.358   5.893   1.071  1.3138  1.1702 -1.6349
  869MOL0     H17256   1.069   5.813   0.997  1.0099 -0.6869 -0.6767
  869MOL0     H17257   1.175   5.725   1.102 -1.0690 -1.8909 -4.3394
  869MOL0     H17258   1.003   5.969   1.158  3.1536 -0.6109 -5.0895
  869MOL0     H17259   1.025   5.814   1.246 -0.8964 -2.3737 -1.4769
  869MOL0     H17260   1.230   6.047   1.250  2.6443 -4.8660 -2.7777
  869MOL0     H17261   1.094   6.010   1.382 -0.1188 -0.0045  0.4817
  869MOL0     H17262   1.320   5.957   1.444 -0.5033  2.4643 -0.8962
  869MOL0     H17263   1.334   5.852   1.297 -0.3324  1.4985 -0.2891
  869MOL0     H17264   1.127   5.811   1.527  2.0848  0.0065  3.8016
  869MOL0     H17265   1.173   5.704   1.393  1.2816  2.5806 -2.8236
  869MOL0     H17266   1.311   5.855   1.713 -0.0402  2.3149 -2.3311
  869MOL0     H17267   1.468   5.778   1.900 -0.7507  0.8822 -1.7251
  869MOL0     H17268   1.551   5.625   1.878  2.1487  0.3437  1.7299
  869MOL0     H17269   1.735   5.730   1.757  0.7028  3.1948 -0.8480
  869MOL0     H17270   1.652   5.874   1.755 -0.3629 -0.9609 -1.7875
  869MOL0     H17271   1.664   5.880   2.018 -0.1341 -0.0358  0.5487
  869MOL0     H17272   1.823   5.874   1.947 -0.3531  0.5131 -0.9433
  869MOL0     H17273   1.837   5.773   2.133 -0.8758  1.3140 -0.2562
  869MOL0     H17274   1.862   5.649   2.016 -1.7985 -1.2455 -1.1846
  869MOL0     H17275   1.716   5.820   2.292  0.8447 -0.7048 -1.3691
  869MOL0     H17276   1.554   5.875   2.472  5.0715 -0.7459  0.4127
  869MOL0     H17277   0.960   5.724   2.414  0.1825 -2.0950 -0.0210
  869MOL0     H17278   0.773   5.801   2.549 -0.2645  0.7837  0.9986
  869MOL0     H17279   0.642   5.636   2.816  2.5278  2.2764 -2.0367
  869MOL0     H17280   0.771   5.638   2.939 -2.2098 -1.3753  1.8806
  869MOL0     H17281   0.654   5.842   3.042 -1.4394  1.2427 -0.6144
  869MOL0     H17282   0.545   5.820   2.915  1.5776 -3.4202 -4.4339
  869MOL0     H17283   0.463   5.610   3.006  2.4235 -2.3666 -0.5392
  869MOL0     H17284   0.596   5.588   3.112 -0.3429 -0.3069  0.3596
  869MOL0     H17285   0.378   5.772   3.151  0.1275 -1.1753  0.0275
  869MOL0     H17286   0.543   5.805   3.217  0.7402 -1.1464  0.6959
  869MOL0     H17287   0.534   5.591   3.351 -1.7057 -0.6832  4.2409
  869MOL0     H17288   0.377   5.544   3.299 -1.4200 -0.0223  0.6432
  869MOL0     H17289   0.435   5.792   3.454  1.9924 -1.0556 -0.2103
  869MOL0     H17290   0.279   5.731   3.413 -0.9002 -1.6183  4.5432
  869MOL0     H17291   0.477   5.630   3.609 -0.9351  2.1926  0.1109
  869MOL0     H17292   0.375   5.508   3.533  3.4478 -0.7565 -0.4480
  869MOL0     H17293   0.301   5.745   3.700 -2.2390  0.9694 -0.9151
  869MOL0     H17294   0.186   5.665   3.586 -0.6008 -0.0868  0.5916
  869MOL0     H17295   0.985   5.732   2.914  0.1259  2.0156  0.6521
  869MOL0     H17296   1.185   5.658   2.777 -1.0988 -0.6180  0.8053
  869MOL0     H17297   1.261   5.614   2.280 -1.6506  2.9983 -0.3159
  869MOL0     H17298   1.420   5.537   2.133  0.2347 -1.3437  0.4419
  869MOL0     H17299   1.627   6.112   0.742  0.2169 -0.4413  2.2942
  869MOL0     H17300   1.715   6.299   0.624  0.2490  0.1668  0.2072
  869MOL0     H17301   1.742   6.642   0.375 -1.4721 -1.6300  1.7515
  869MOL0     H17302   1.806   6.798   0.186 -0.7576  0.3296 -3.1138
  869MOL0     H17303   1.569   7.147   0.193  0.2059 -1.1135  0.6552
  869MOL0     H17304   1.553   7.130   0.023 -2.1058 -2.2084  1.5371
  869MOL0     H17305   1.804   7.216   0.012 -0.9594 -0.1533 -0.1780
  869MOL0     H17306   1.793   7.269   0.167  2.2508 -3.3235 -0.0515
  869MOL0     H17307   1.587   7.403   0.119  0.3128  1.6139 -0.1527
  869MOL0     H17308   1.602   7.353  -0.057 -1.1931 -0.3599  1.2974
  869MOL0     H17309   1.769   7.539   0.115 -3.1069  0.2579  0.2469
  869MOL0     H17310   1.839   7.467  -0.026 -0.4036 -0.4136  1.1273
  869MOL0     H17311   1.592   7.751  -0.227  0.1777 -0.7742 -0.1180
  869MOL0     H17312   1.413   6.968   0.198  0.8510 -0.0462 -1.9170
  869MOL0     H17313   1.289   6.813   0.470 -0.9944 -0.2097  0.2301
  869MOL0     H17314   1.239   6.846   0.292  0.2336 -0.3613  0.2315
  869MOL0     H17315   1.257   6.688   0.351  2.5481 -1.2420 -0.5173
  870MOL0     O17316   4.097   2.379   7.944 -0.0207  0.2575  0.0271
  870MOL0     C17317   4.096   2.362   7.825 -0.9658  0.1700 -0.0570
  870MOL0     O17318   4.079   2.241   7.763 -0.2442 -0.0357 -0.0155
  870MOL0     C17319   4.101   2.115   7.810  0.5174 -0.1577  0.0329
  870MOL0     C17320   4.126   2.079   7.942 -0.3991  0.5488 -0.4760
  870MOL0     C17321   4.140   1.943   7.977 -0.1687  0.6166  0.0710
  870MOL0     C17322   4.148   1.842   7.876  0.3944  0.2063 -0.0870
  870MOL0     O17323   4.162   1.703   7.897  0.6979 -1.1097 -0.2154
  870MOL0     C17324   4.206   1.651   8.026  0.1788 -1.2725  1.1760
  870MOL0     C17325   4.257   1.512   8.006  0.2015  0.0294 -0.2612
  870MOL0     C17326   4.151   1.412   7.947  0.4676  0.4799 -0.1123
  870MOL0     C17327   4.201   1.268   7.989 -0.2288 -0.0891  0.0116
  870MOL0     C17328   4.155   1.163   7.882  0.5551  0.2450  0.0625
  870MOL0     C17329   4.232   1.031   7.913 -0.7677 -0.0171 -0.6666
  870MOL0     C17330   4.219   0.897   7.815 -0.5198 -0.3280 -0.3869
  870MOL0     C17331   4.113   0.796   7.849 -0.1976 -0.2330 -0.7647
  870MOL0     N17332   4.137   0.745   7.986 -0.3047  0.3140 -0.6194
  870MOL0     C17333   4.062   0.787   8.092  0.0458 -0.2902  0.0964
  870MOL0     C17334   4.094   0.696   8.189 -1.0816 -0.8280 -0.0304
  870MOL0     C17335   4.049   0.699   8.338  0.9367 -0.1389  0.6622
  870MOL0     C17336   4.005   0.564   8.382 -0.7097 -0.0623 -0.7005
  870MOL0     C17337   3.903   0.580   8.495 -0.5210  0.0457 -0.2716
  870MOL0     C17338   3.816   0.455   8.506 -0.3446 -0.1860  0.0819
  870MOL0     O17339   3.755   0.417   8.382  0.7756 -0.0906 -0.2613
  870MOL0     C17340   3.630   0.454   8.369  0.7139 -0.9821 -0.5366
  870MOL0     C17341   3.559   0.574   8.399  0.2664 -0.3601 -0.8630
  870MOL0     C17342   3.423   0.606   8.372  0.1767 -0.0563 -0.2407
  870MOL0     C17343   3.357   0.521   8.281 -0.3552  0.6035 -0.1585
  870MOL0     C17344   3.221   0.555   8.242  0.2804 -0.4336 -0.0565
  870MOL0     O17345   3.197   0.526   8.108  0.2920 -0.1885 -0.5031
  870MOL0     C17346   3.073   0.562   8.052 -0.0282  0.2378 -0.2182
  870MOL0     C17347   3.058   0.688   7.983 -0.1325 -0.0789  0.0137
  870MOL0     C17348   2.943   0.724   7.920 -0.3151  0.4342 -0.4440
  870MOL0     C17349   2.821   0.652   7.933 -0.3861  0.2782  0.8205
  870MOL0     O17350   2.702   0.687   7.868  0.8818 -0.0657 -0.6523
  870MOL0     C17351   2.664   0.826   7.869 -0.2135  0.3640  0.2782
  870MOL0     C17352   2.577   0.854   7.992  0.1937 -0.0137 -0.1078
  870MOL0     C17353   2.528   1.001   8.010  0.2483  0.2510  0.3015
  870MOL0     C17354   2.419   1.038   7.904 -0.2165 -0.2613  0.0176
  870MOL0     C17355   2.316   1.143   7.964  0.2365  0.0268 -0.2946
  870MOL0     C17356   2.389   1.272   7.988 -0.3656  1.0563  0.7142
  870MOL0     C17357   2.287   1.383   8.006 -0.0063  0.6979  0.8808
  870MOL0     C17358   2.346   1.535   8.010  0.1100  0.2200 -0.1612
  870MOL0    Cl17359   2.404   1.587   7.845 -0.1593 -0.2100 -0.1855
  870MOL0     C17360   2.827   0.535   8.001 -0.0417 -0.0273 -0.0971
  870MOL0     C17361   2.959   0.484   8.049 -0.1908  0.0067  0.5740
  870MOL0     O17362   3.144   0.614   8.320 -0.0556  0.0777  0.7766
  870MOL0     C17363   3.419   0.398   8.257  0.4771 -0.0497 -0.5988
  870MOL0     C17364   3.547   0.372   8.297 -0.4554 -0.0649  0.7922
  870MOL0     N17365   4.193   0.609   8.145  0.7275 -0.1902  0.4761
  870MOL0     N17366   4.212   0.633   8.023  0.4075 -0.1441  1.0106
  870MOL0     C17367   4.128   1.880   7.742 -1.0839  0.0008 -0.0537
  870MOL0     C17368   4.107   2.013   7.714  0.1731 -0.1919  0.0059
  870MOL0     C17369   4.102   2.491   7.745  0.2733 -0.3462  0.3820
  870MOL0     C17370   4.073   2.617   7.807  0.0202  0.0195  0.2536
  870MOL0     C17371   4.075   2.740   7.737 -0.9520 -0.3598  0.3810
  870MOL0     C17372   4.088   2.737   7.596 -0.0633  0.5882  0.0494
  870MOL0     O17373   4.097   2.854   7.531  0.3280 -0.6503  0.6457
  870MOL0     C17374   4.166   2.879   7.408  1.0950 -0.4946  0.6416
  870MOL0     C17375   4.184   3.029   7.381 -0.7452 -0.7930  0.7055
  870MOL0     C17376   4.055   3.105   7.369  0.8267  1.0152 -0.2514
  870MOL0     C17377   4.064   3.262   7.369 -0.2740 -0.5452  0.3018
  870MOL0     C17378   4.187   3.314   7.305  0.2024 -0.3130  0.5961
  870MOL0     C17379   4.276   3.358   7.238 -0.1838  0.3993  0.4469
  870MOL0     C17380   4.121   2.617   7.536  0.4229 -0.3164  0.0806
  870MOL0     C17381   4.122   2.493   7.605  0.1558 -0.5518 -0.0899
  870MOL0     C17382   4.156   2.376   7.520 -0.3535 -0.1294 -0.1144
  870MOL0     H17383   4.137   2.150   8.023 -1.0659 -0.4683  0.5291
  870MOL0     H17384   4.144   1.923   8.084  0.8534  1.1891  0.1536
  870MOL0     H17385   4.287   1.716   8.058 -1.5489  3.4015 -2.8090
  870MOL0     H17386   4.118   1.658   8.091  0.1482 -2.2775  1.2705
  870MOL0     H17387   4.269   1.478   8.109 -0.0642 -0.6583 -0.4522
  870MOL0     H17388   4.352   1.507   7.952 -0.2673  0.3142 -1.1362
  870MOL0     H17389   4.138   1.425   7.839 -0.4644 -3.5010 -0.6139
  870MOL0     H17390   4.056   1.434   7.996  2.0552  0.9381  3.0349
  870MOL0     H17391   4.310   1.262   7.991 -0.2183  0.1204  1.6908
  870MOL0     H17392   4.169   1.232   8.087  4.3395 -1.4861  1.2377
  870MOL0     H17393   4.047   1.147   7.881  0.5820 -0.2561 -2.3262
  870MOL0     H17394   4.181   1.207   7.785  1.2005 -0.0244  0.1067
  870MOL0     H17395   4.337   1.056   7.898 -0.4810 -0.9882 -0.3308
  870MOL0     H17396   4.214   1.000   8.016 -1.2593  1.0224 -0.4258
  870MOL0     H17397   4.314   0.843   7.814 -1.7115 -2.5605 -1.4121
  870MOL0     H17398   4.196   0.931   7.714 -2.3835  0.6429  0.3085
  870MOL0     H17399   4.019   0.849   7.827  0.1943 -0.1201 -2.2917
  870MOL0     H17400   4.114   0.711   7.781  1.2620 -0.3388 -0.6383
  870MOL0     H17401   4.001   0.877   8.093 -1.0814 -1.0434  0.9633
  870MOL0     H17402   4.124   0.740   8.406 -0.1389 -1.6543  2.9107
  870MOL0     H17403   3.961   0.765   8.335  0.4986 -0.6049 -4.1724
  870MOL0     H17404   3.974   0.509   8.292 -1.2920  3.2842 -2.7576
  870MOL0     H17405   4.096   0.513   8.411  0.4118  2.4279  0.4759
  870MOL0     H17406   3.832   0.661   8.476 -0.3664 -0.2046 -2.1067
  870MOL0     H17407   3.960   0.603   8.585  0.5770  1.7967 -1.3473
  870MOL0     H17408   3.735   0.472   8.578  1.9103 -0.2494  2.8075
  870MOL0     H17409   3.875   0.372   8.546  0.2827  0.3900  0.3677
  870MOL0     H17410   3.611   0.643   8.464  2.4853 -1.1294 -1.7349
  870MOL0     H17411   3.378   0.698   8.408  1.6213  2.2136 -3.7341
  870MOL0     H17412   3.150   0.746   7.976 -0.4549  1.3360  4.4822
  870MOL0     H17413   2.952   0.819   7.867  2.3735  0.6409  0.2626
  870MOL0     H17414   2.752   0.890   7.869  0.0833 -0.0358  0.4936
  870MOL0     H17415   2.605   0.848   7.780  0.5796 -3.5613 -1.4090
  870MOL0     H17416   2.490   0.787   7.983  0.4909 -0.7196  1.8335
  870MOL0     H17417   2.625   0.830   8.087  1.9703  2.8046 -0.2039
  870MOL0     H17418   2.486   1.013   8.110 -3.3520  3.1646 -1.3016
  870MOL0     H17419   2.605   1.075   7.985 -1.2722  1.9939  0.5411
  870MOL0     H17420   2.358   0.954   7.869 -0.1277  0.1824 -1.2505
  870MOL0     H17421   2.463   1.082   7.815 -1.8200  3.4691  0.8484
  870MOL0     H17422   2.283   1.100   8.059 -0.9716  0.8566 -0.3237
  870MOL0     H17423   2.231   1.160   7.897  0.8477  0.1778 -1.0514
  870MOL0     H17424   2.462   1.265   8.069 -0.8642  3.3711  1.4423
  870MOL0     H17425   2.451   1.305   7.905 -0.4438  0.8993  0.5925
  870MOL0     H17426   2.245   1.364   8.105 -0.1815 -4.0545  0.1118
  870MOL0     H17427   2.205   1.381   7.933 -0.5213  0.4622  1.4588
  870MOL0     H17428   2.275   1.614   8.037  0.1626 -0.1864  1.2504
  870MOL0     H17429   2.431   1.524   8.079 -0.8384 -2.4890  0.7315
  870MOL0     H17430   2.741   0.469   8.005  1.4219 -2.0026  0.2425
  870MOL0     H17431   2.963   0.389   8.102 -1.8839 -0.4344 -0.0552
  870MOL0     H17432   3.375   0.315   8.202  0.1311 -0.1317 -0.2145
  870MOL0     H17433   3.590   0.281   8.257 -0.1497  0.8317 -1.0378
  870MOL0     H17434   4.145   1.822   7.652 -4.1569  0.5206 -1.0747
  870MOL0     H17435   4.098   2.064   7.618  1.6100  5.3087  2.3765
  870MOL0     H17436   4.050   2.622   7.913  1.9765  0.5007  0.7077
  870MOL0     H17437   4.053   2.839   7.775  0.1168 -0.4449  1.2794
  870MOL0     H17438   4.104   2.835   7.329 -0.6428  2.9900 -0.1395
  870MOL0     H17439   4.267   2.838   7.407  2.5553  2.7733  1.2262
  870MOL0     H17440   4.244   3.041   7.291 -0.3824 -5.2020  0.1266
  870MOL0     H17441   4.254   3.077   7.450  4.5238 -2.6867 -2.6738
  870MOL0     H17442   3.984   3.074   7.446 -0.8118 -0.4947 -2.2753
  870MOL0     H17443   4.022   3.063   7.274  2.2183  2.6283 -1.5216
  870MOL0     H17444   3.980   3.308   7.315 -2.3329 -1.2513  2.7006
  870MOL0     H17445   4.049   3.314   7.464 -2.0841  3.6506 -1.9967
  870MOL0     H17446   4.348   3.394   7.169 -0.8959  3.1120  1.0027
  870MOL0     H17447   4.139   2.621   7.429  3.3194  2.1911  0.5065
  870MOL0     H17448   4.216   2.418   7.439  4.8397 -1.6085  2.5243
  870MOL0     H17449   4.228   2.304   7.559 -0.5637  0.1421  0.8046
  870MOL0     H17450   4.065   2.321   7.493  0.8211 -1.5005 -1.4244
  871MOL0     O17451  11.159   1.248   3.587 -0.8929  0.1447  0.2203
  871MOL0     C17452  11.110   1.149   3.535 -0.3187  0.8715  0.1918
  871MOL0     O17453  10.979   1.141   3.507 -0.1172 -0.4939 -0.8174
  871MOL0     C17454  10.896   1.237   3.566 -0.0623  1.1357  0.7864
  871MOL0     C17455  10.916   1.301   3.690 -1.2485 -0.4434 -0.6689
  871MOL0     C17456  10.821   1.389   3.738  0.2032  0.2302  0.1897
  871MOL0     C17457  10.710   1.426   3.668  0.9565  0.1635 -0.0020
  871MOL0     O17458  10.610   1.516   3.709  0.4357  0.1141 -0.0517
  871MOL0     C17459  10.602   1.574   3.840  0.5211 -0.1883 -0.0540
  871MOL0     C17460  10.452   1.571   3.878 -0.3241 -0.3422  0.2735
  871MOL0     C17461  10.428   1.652   4.009 -0.0161  0.9873  0.3384
  871MOL0     C17462  10.302   1.606   4.073  0.1842 -0.5094 -0.7583
  871MOL0     C17463  10.316   1.669   4.216  0.2104  0.6790  0.4220
  871MOL0     C17464  10.198   1.639   4.311  0.4520 -0.1955 -0.6522
  871MOL0     C17465  10.212   1.718   4.435  0.2622  0.0712 -1.1013
  871MOL0     C17466  10.075   1.721   4.506 -1.1116 -1.1732  0.4511
  871MOL0     N17467  10.044   1.608   4.593 -0.1269  0.3239  0.0907
  871MOL0     C17468   9.988   1.490   4.552  0.0931  0.5482 -0.5794
  871MOL0     C17469   9.979   1.408   4.661 -0.8660  0.7388 -0.3706
  871MOL0     C17470   9.914   1.271   4.684 -0.5776  0.0380  0.1100
  871MOL0     C17471   9.981   1.178   4.582  0.2122  1.2601  0.1607
  871MOL0     C17472   9.917   1.031   4.605 -0.5236 -0.5013 -0.5152
  871MOL0     C17473   9.957   0.940   4.484 -0.6333  0.3551  0.7073
  871MOL0     O17474   9.907   0.990   4.356 -0.8869 -0.5636  0.1312
  871MOL0     C17475   9.781   0.954   4.309 -0.4126 -1.3799 -0.1068
  871MOL0     C17476   9.681   0.903   4.391 -0.3477  0.0856  0.4017
  871MOL0     C17477   9.564   0.850   4.323 -0.3781  1.1151 -0.7680
  871MOL0     C17478   9.537   0.872   4.187  0.4029  1.0095 -0.4303
  871MOL0     C17479   9.404   0.832   4.120  0.4986  0.4077  0.6302
  871MOL0     O17480   9.375   0.881   3.993  0.0596 -0.0988  0.1475
  871MOL0     C17481   9.283   0.813   3.914 -0.4613 -0.1391 -0.6791
  871MOL0     C17482   9.178   0.884   3.844 -0.6206  0.3027  0.0534
  871MOL0     C17483   9.087   0.811   3.763  0.1531 -0.1341 -0.0936
  871MOL0     C17484   9.097   0.671   3.758  0.6586 -0.1011 -0.3489
  871MOL0     O17485   9.001   0.602   3.688  0.3548 -0.2062 -0.4140
  871MOL0     C17486   8.982   0.468   3.729 -0.3610  0.7483 -0.9801
  871MOL0     C17487   8.843   0.422   3.704  0.6243  0.5610  0.3895
  871MOL0     C17488   8.761   0.451   3.818  0.3545 -0.2855 -0.1044
  871MOL0     C17489   8.611   0.411   3.799 -0.5047  0.0068 -0.4738
  871MOL0     C17490   8.585   0.267   3.832  0.0352  1.0072  0.9863
  871MOL0     C17491   8.561   0.254   3.989 -0.1699  0.0469  0.0365
  871MOL0     C17492   8.458   0.148   4.016  0.4523 -0.9939 -0.7125
  871MOL0     C17493   8.492   0.003   3.965 -0.1572  0.4204 -0.0108
  871MOL0    Cl17494   8.659  -0.051   4.028  0.4198 -0.1632 -0.4142
  871MOL0     C17495   9.214   0.614   3.808  0.1542 -0.4923 -0.2137
  871MOL0     C17496   9.297   0.678   3.896  0.1917 -0.2113  0.2410
  871MOL0     O17497   9.332   0.751   4.175 -0.3985 -1.0169 -0.1963
  871MOL0     C17498   9.638   0.939   4.116  0.2894 -0.3426 -0.2759
  871MOL0     C17499   9.761   0.982   4.177  0.1731  0.4839 -0.1199
  871MOL0     N17500  10.053   1.469   4.760 -0.3688  0.3364 -0.2708
  871MOL0     N17501  10.068   1.592   4.724 -1.1909 -1.1012 -0.0643
  871MOL0     C17502  10.691   1.367   3.547  0.0517 -0.3065 -0.6793
  871MOL0     C17503  10.783   1.269   3.494 -0.3580  0.9067  0.1340
  871MOL0     C17504  11.203   1.034   3.509  0.5025 -0.0570  0.0054
  871MOL0     C17505  11.323   1.015   3.586 -0.6800 -0.4885 -0.7702
  871MOL0     C17506  11.399   0.902   3.580 -0.4425 -0.7197  0.6844
  871MOL0     C17507  11.367   0.794   3.490 -0.4390 -0.2962  1.0369
  871MOL0     O17508  11.466   0.698   3.465  0.4605 -0.5034 -0.1730
  871MOL0     C17509  11.435   0.583   3.395 -0.4791  0.1160  0.4437
  871MOL0     C17510  11.444   0.588   3.240  0.0953 -0.6774  0.0210
  871MOL0     C17511  11.585   0.645   3.187 -0.2326  0.6742  0.7257
  871MOL0     C17512  11.598   0.615   3.044 -1.4170 -0.9359  0.0484
  871MOL0     C17513  11.693   0.713   2.992 -0.6199 -1.0572  1.3028
  871MOL0     C17514  11.777   0.768   2.920  0.3171 -0.5032  0.9513
  871MOL0     C17515  11.249   0.810   3.413 -0.2742  0.0182 -0.4035
  871MOL0     C17516  11.171   0.929   3.418 -1.0554  0.7124  0.8723
  871MOL0     C17517  11.029   0.906   3.348 -0.5022 -0.3614  0.3947
  871MOL0     H17518  11.003   1.282   3.752 -0.1146  1.5662 -1.5496
  871MOL0     H17519  10.838   1.446   3.829 -1.0889 -1.0650  1.3050
  871MOL0     H17520  10.645   1.517   3.923 -0.5253  1.1743  1.4790
  871MOL0     H17521  10.644   1.674   3.846 -0.5146  0.1648  3.6912
  871MOL0     H17522  10.417   1.468   3.894 -0.0896 -0.8696 -2.1149
  871MOL0     H17523  10.394   1.622   3.801  0.4755  2.3909  1.3902
  871MOL0     H17524  10.424   1.758   3.982 -2.5663  0.7948 -0.2982
  871MOL0     H17525  10.508   1.609   4.071  0.7908  0.7847 -0.7964
  871MOL0     H17526  10.216   1.640   4.013 -1.1450 -1.9919  0.2324
  871MOL0     H17527  10.306   1.498   4.082 -0.6242 -0.3382  5.1485
  871MOL0     H17528  10.397   1.628   4.277 -1.7532 -3.3403  0.6129
  871MOL0     H17529  10.343   1.775   4.205  2.8367  0.2660  2.1736
  871MOL0     H17530  10.100   1.660   4.268 -0.3189  0.1878  1.2013
  871MOL0     H17531  10.200   1.532   4.330  2.8735 -1.2980 -5.5293
  871MOL0     H17532  10.249   1.818   4.410  0.1060  0.1904 -0.8573
  871MOL0     H17533  10.281   1.669   4.505  0.6517  1.3353 -0.5660
  871MOL0     H17534  10.099   1.799   4.579 -1.2793 -0.7197  0.0226
  871MOL0     H17535   9.998   1.771   4.448 -3.5851 -0.6362  3.8810
  871MOL0     H17536   9.935   1.474   4.459  1.1825  2.2511 -1.5311
  871MOL0     H17537   9.956   1.248   4.782  0.0858  2.0958  0.3555
  871MOL0     H17538   9.807   1.288   4.670 -0.5889 -0.8133 -0.9671
  871MOL0     H17539   9.931   1.208   4.489 -0.5134 -1.1436 -0.2932
  871MOL0     H17540  10.090   1.187   4.579  0.2863  0.1800 -0.7616
  871MOL0     H17541   9.808   1.034   4.605 -0.5975 -2.1776  0.1991
  871MOL0     H17542   9.953   0.981   4.695 -3.3688 -0.1959  0.8879
  871MOL0     H17543   9.906   0.844   4.497  1.7665 -1.1553 -0.3218
  871MOL0     H17544  10.062   0.910   4.475 -0.4964  1.1284 -0.4377
  871MOL0     H17545   9.701   0.879   4.494  1.3493  1.2632  0.3864
  871MOL0     H17546   9.485   0.801   4.379 -0.7800 -0.1303 -2.3400
  871MOL0     H17547   9.166   0.991   3.854 -2.3167  0.0017  1.6957
  871MOL0     H17548   8.998   0.850   3.715  2.5200  1.1702 -3.8319
  871MOL0     H17549   9.046   0.410   3.662 -1.8179 -1.0157 -0.9126
  871MOL0     H17550   9.015   0.449   3.831 -0.8479  0.2839 -0.9025
  871MOL0     H17551   8.805   0.475   3.616 -3.3949 -1.9848  0.3333
  871MOL0     H17552   8.849   0.317   3.673  0.4023  0.2579  1.3451
  871MOL0     H17553   8.803   0.416   3.912  0.6597 -2.2247 -0.9184
  871MOL0     H17554   8.767   0.560   3.824  0.3830 -0.2165 -1.1855
  871MOL0     H17555   8.571   0.420   3.698 -1.0715  1.1441 -0.1662
  871MOL0     H17556   8.548   0.475   3.861 -0.6603 -0.2254 -0.3922
  871MOL0     H17557   8.667   0.206   3.794 -0.4734  0.1576  1.2331
  871MOL0     H17558   8.510   0.237   3.758  0.2116  5.1403 -1.1898
  871MOL0     H17559   8.646   0.238   4.056 -4.0726 -0.9665  5.4574
  871MOL0     H17560   8.509   0.346   4.019 -1.3267 -0.9141  1.1025
  871MOL0     H17561   8.369   0.191   3.969  1.1658  0.7057 -0.5661
  871MOL0     H17562   8.431   0.145   4.122 -0.5291 -2.0042 -0.9625
  871MOL0     H17563   8.404  -0.054   3.993 -1.2416  1.2632 -1.5607
  871MOL0     H17564   8.492   0.010   3.856 -1.7519  0.1818 -0.0475
  871MOL0     H17565   9.257   0.520   3.778  2.9278  0.6384 -0.0696
  871MOL0     H17566   9.375   0.622   3.948  0.5299  0.6401  0.6610
  871MOL0     H17567   9.618   0.957   4.011 -0.1688 -1.8632 -0.4736
  871MOL0     H17568   9.836   1.032   4.117 -1.4240  1.5900 -1.2988
  871MOL0     H17569  10.606   1.396   3.487  0.8806  1.1803 -1.1861
  871MOL0     H17570  10.761   1.207   3.408  0.6812  0.3283  0.2776
  871MOL0     H17571  11.342   1.093   3.659  0.6089 -1.3734 -0.1300
  871MOL0     H17572  11.480   0.883   3.650  1.0709 -0.7989 -1.0228
  871MOL0     H17573  11.341   0.542   3.432 -0.0151  0.2477  1.8661
  871MOL0     H17574  11.510   0.513   3.433 -0.9784  0.2625  1.7384
  871MOL0     H17575  11.367   0.648   3.190  0.8855  0.5108  0.1881
  871MOL0     H17576  11.441   0.482   3.212 -4.3843 -0.4726 -1.0158
  871MOL0     H17577  11.668   0.604   3.245  2.0379  2.2948 -1.1991
  871MOL0     H17578  11.588   0.750   3.216 -1.4186  0.5222  1.4502
  871MOL0     H17579  11.635   0.515   3.022  1.4370 -0.0983  0.6329
  871MOL0     H17580  11.504   0.644   2.995 -1.5120  2.4746  1.9484
  871MOL0     H17581  11.858   0.823   2.875  1.2589 -1.4840  1.4048
  871MOL0     H17582  11.221   0.736   3.338  0.0916 -0.4962 -0.0450
  871MOL0     H17583  11.032   0.822   3.279  0.4097 -1.4836  1.7384
  871MOL0     H17584  10.955   0.877   3.423 -1.5719 -1.1198 -0.9259
  871MOL0     H17585  10.992   0.995   3.296 -2.9923  0.3344  3.0970
  872MOL0     O17586   2.121   8.327   7.907  0.7426 -0.0523  0.6216
  872MOL0     C17587   2.028   8.243   7.916 -0.1296 -1.1189  1.1741
  872MOL0     O17588   2.037   8.111   7.883 -0.1390  0.4035  0.2619
  872MOL0     C17589   2.153   8.062   7.828 -0.2538 -1.2634  0.4696
  872MOL0     C17590   2.286   8.076   7.883 -0.2770 -0.3175  0.2291
  872MOL0     C17591   2.400   8.030   7.814  0.4241  0.6636  1.0176
  872MOL0     C17592   2.383   7.940   7.704  1.1116  0.7097 -0.8434
  872MOL0     O17593   2.495   7.890   7.636  0.2141 -0.0059 -0.7176
  872MOL0     C17594   2.568   7.991   7.569  0.7844 -0.9626 -0.4644
  872MOL0     C17595   2.634   7.939   7.442 -0.8066 -0.0463 -0.0894
  872MOL0     C17596   2.655   8.069   7.360  0.2101 -0.4171 -0.2459
  872MOL0     C17597   2.710   8.033   7.214  0.5389 -0.5468  0.1139
  872MOL0     C17598   2.627   7.921   7.144  0.1994 -1.0426 -0.3665
  872MOL0     C17599   2.656   7.916   7.002 -0.4138  0.4034  0.1776
  872MOL0     C17600   2.565   7.802   6.945 -0.9050  1.2505 -0.5780
  872MOL0     C17601   2.636   7.716   6.833 -0.2999 -0.6268 -0.5970
  872MOL0     N17602   2.575   7.604   6.763  0.2365 -0.4056 -0.1500
  872MOL0     C17603   2.444   7.579   6.745  0.4349 -0.6004 -0.4923
  872MOL0     C17604   2.436   7.487   6.651  0.4283 -1.1039  0.3313
  872MOL0     C17605   2.303   7.420   6.616  0.0857 -1.0029  1.0495
  872MOL0     C17606   2.311   7.330   6.495  0.3534  0.2735  0.0763
  872MOL0     C17607   2.173   7.276   6.456 -0.1491 -0.7953  0.0259
  872MOL0     C17608   2.176   7.147   6.379 -0.8960 -0.3408  0.7382
  872MOL0     O17609   2.050   7.077   6.372  0.3794 -0.5626  0.4426
  872MOL0     C17610   1.958   7.122   6.273  0.5036 -0.5898  1.0533
  872MOL0     C17611   1.870   7.012   6.248 -0.7520 -0.1396  0.5604
  872MOL0     C17612   1.766   7.031   6.157  0.8894 -0.2393 -0.2628
  872MOL0     C17613   1.736   7.150   6.093 -0.9182  0.0648  0.3290
  872MOL0     C17614   1.629   7.173   6.004  0.3302 -0.2341  0.3811
  872MOL0     O17615   1.543   7.071   6.001 -0.3124  0.2293  0.9664
  872MOL0     C17616   1.435   7.070   5.926  0.2216  0.5768 -0.1858
  872MOL0     C17617   1.312   7.036   5.992 -0.2133  0.2019  1.3781
  872MOL0     C17618   1.193   7.030   5.912 -0.1015 -0.5529  0.2707
  872MOL0     C17619   1.187   7.053   5.773  0.1688 -1.2177 -0.6187
  872MOL0     O17620   1.073   7.024   5.718 -0.3406  0.1272  0.5938
  872MOL0     C17621   1.056   7.054   5.569  0.4174 -0.3146 -0.9205
  872MOL0     C17622   0.922   7.002   5.517  0.5251 -0.3999 -0.4321
  872MOL0     C17623   0.813   7.096   5.550  0.6456 -0.3076  0.3074
  872MOL0     C17624   0.685   7.038   5.533  0.6715  1.4181 -0.2751
  872MOL0     C17625   0.566   7.131   5.548  0.3079 -0.0870  1.1739
  872MOL0     C17626   0.437   7.058   5.527  0.6587  0.0288  0.9934
  872MOL0     C17627   0.372   7.003   5.647  0.0522  0.3195 -0.0064
  872MOL0     C17628   0.233   6.946   5.619 -1.0018  1.2040 -0.1628
  872MOL0    Cl17629   0.162   6.879   5.759  0.3225 -0.2438 -0.0837
  872MOL0     C17630   1.311   7.087   5.714 -0.0616 -0.4493 -0.1247
  872MOL0     C17631   1.434   7.097   5.794 -0.1855 -0.3486 -0.1494
  872MOL0     O17632   1.619   7.276   5.938  0.2688 -0.6053  0.1734
  872MOL0     C17633   1.834   7.258   6.119 -0.3127 -0.2199  0.3083
  872MOL0     C17634   1.941   7.247   6.210 -0.4607 -0.5855  0.3831
  872MOL0     N17635   2.560   7.443   6.614  0.8594  0.5805  0.0002
  872MOL0     N17636   2.641   7.507   6.684 -0.4031  0.5811 -0.4491
  872MOL0     C17637   2.261   7.916   7.649 -0.3874  0.3365 -0.5471
  872MOL0     C17638   2.150   7.970   7.720  0.1011 -1.6444  1.0152
  872MOL0     C17639   1.891   8.292   7.940  0.1928  0.4196 -0.8932
  872MOL0     C17640   1.788   8.195   7.945  0.3952 -0.1930  0.6937
  872MOL0     C17641   1.661   8.226   7.994  0.3314  0.2339  0.2196
  872MOL0     C17642   1.634   8.354   8.037 -0.5845  0.4013 -0.7867
  872MOL0     O17643   1.514   8.400   8.075 -0.6344  0.6906 -0.3924
  872MOL0     C17644   1.406   8.310   8.080  0.6591  0.6711  0.3372
  872MOL0     C17645   1.273   8.393   8.091  0.0124  0.0887 -0.4396
  872MOL0     C17646   1.259   8.473   8.227 -0.2247  0.2280  0.0624
  872MOL0     C17647   1.134   8.556   8.229  0.3381  0.2088 -0.5060
  872MOL0     C17648   1.021   8.476   8.266  0.8907  0.4976  0.5895
  872MOL0     C17649   0.935   8.386   8.262 -0.1746  0.1168  0.9071
  872MOL0     C17650   1.734   8.447   8.036  0.7994  0.7742 -0.4152
  872MOL0     C17651   1.863   8.421   7.980  0.9085  0.0976  0.2041
  872MOL0     C17652   1.963   8.537   7.984  0.5738 -0.1531 -0.4659
  872MOL0     H17653   2.310   8.128   7.975  1.1107  1.0989 -0.8786
  872MOL0     H17654   2.496   8.058   7.855  0.3265 -0.9967  2.5001
  872MOL0     H17655   2.510   8.081   7.546  2.7953 -0.4773 -4.4115
  872MOL0     H17656   2.646   8.024   7.639  0.1711 -2.3732  0.9540
  872MOL0     H17657   2.578   7.860   7.391  1.0582 -1.1910 -0.4380
  872MOL0     H17658   2.731   7.904   7.477 -0.5089  1.3363  0.5217
  872MOL0     H17659   2.726   8.136   7.409 -3.7289  2.4077  2.1664
  872MOL0     H17660   2.569   8.135   7.355  0.6094  0.0881 -0.5582
  872MOL0     H17661   2.700   8.129   7.163 -0.6262  0.4480  2.0702
  872MOL0     H17662   2.812   7.996   7.201  0.5772  0.1708 -2.0840
  872MOL0     H17663   2.648   7.827   7.195  1.7712  1.2094  3.6262
  872MOL0     H17664   2.522   7.940   7.169  0.3034 -0.2758 -0.4770
  872MOL0     H17665   2.677   8.013   6.956  2.0045  0.8645  2.0263
  872MOL0     H17666   2.758   7.879   6.991 -0.8339 -0.3755 -1.3704
  872MOL0     H17667   2.476   7.848   6.900  0.6105  1.1848 -3.9560
  872MOL0     H17668   2.529   7.739   7.027  2.9708 -0.5222 -0.0257
  872MOL0     H17669   2.658   7.791   6.756  0.4930 -0.5001 -0.2607
  872MOL0     H17670   2.727   7.675   6.878 -1.0432 -1.0739  0.5358
  872MOL0     H17671   2.363   7.637   6.788  1.3153  1.4914 -1.5076
  872MOL0     H17672   2.275   7.357   6.701 -2.0280  1.0433  1.9777
  872MOL0     H17673   2.223   7.488   6.586  2.0104 -0.3075 -3.3681
  872MOL0     H17674   2.362   7.371   6.407 -2.3944  1.0203 -1.2889
  872MOL0     H17675   2.383   7.251   6.517 -0.9542 -0.9410  0.1066
  872MOL0     H17676   2.131   7.355   6.394  0.1769  0.5328  1.4455
  872MOL0     H17677   2.122   7.260   6.551 -0.7038  0.8437  0.0311
  872MOL0     H17678   2.257   7.093   6.428  3.4485  3.8802 -0.9216
  872MOL0     H17679   2.207   7.161   6.275 -1.7324 -0.0686  0.5204
  872MOL0     H17680   1.890   6.909   6.278 -3.4842 -0.5468  1.3005
  872MOL0     H17681   1.691   6.953   6.150 -0.5144  1.1000 -0.8318
  872MOL0     H17682   1.311   7.020   6.099  0.7944  0.8986  1.5054
  872MOL0     H17683   1.095   7.010   5.954 -0.4647  1.2291  0.3324
  872MOL0     H17684   1.062   7.163   5.559  0.6732 -0.0119  1.7470
  872MOL0     H17685   1.119   6.994   5.503 -0.8461 -1.3007 -1.2670
  872MOL0     H17686   0.927   6.992   5.408  4.3971  0.8203 -0.5048
  872MOL0     H17687   0.913   6.901   5.559  1.6959 -0.4104 -0.1869
  872MOL0     H17688   0.833   7.122   5.654 -0.9833  2.1207  0.0949
  872MOL0     H17689   0.827   7.180   5.482  0.1467 -0.7013 -0.2975
  872MOL0     H17690   0.681   6.951   5.599 -1.2333  0.8648 -1.0654
  872MOL0     H17691   0.688   7.016   5.426  0.4415  0.6215 -0.1266
  872MOL0     H17692   0.569   7.216   5.479 -2.5459  0.9502  2.1765
  872MOL0     H17693   0.563   7.164   5.653  2.3113 -0.8198  1.5000
  872MOL0     H17694   0.362   7.126   5.484  1.2452 -0.0778 -0.2451
  872MOL0     H17695   0.448   6.984   5.446 -0.4964 -2.5988  3.0675
  872MOL0     H17696   0.376   7.080   5.725  1.2300 -0.9104  1.2026
  872MOL0     H17697   0.440   6.922   5.675 -1.4549 -0.9385  0.1495
  872MOL0     H17698   0.167   7.030   5.593 -1.1734  1.0593 -0.1919
  872MOL0     H17699   0.227   6.876   5.535 -1.5410 -1.7697  2.1760
  872MOL0     H17700   1.313   7.104   5.606  1.7837 -2.0593 -0.3951
  872MOL0     H17701   1.525   7.127   5.743  0.0829  2.6790  1.8316
  872MOL0     H17702   1.828   7.358   6.076 -1.5112 -0.2850  0.2815
  872MOL0     H17703   2.014   7.327   6.219 -1.9099  0.9154 -0.4962
  872MOL0     H17704   2.253   7.841   7.572  1.8128  0.1933 -0.7052
  872MOL0     H17705   2.049   7.947   7.686  0.1041 -1.0325  0.5672
  872MOL0     H17706   1.804   8.089   7.925 -0.5556  0.2300 -2.9854
  872MOL0     H17707   1.602   8.135   7.995 -0.9137  1.0233  0.5434
  872MOL0     H17708   1.428   8.253   8.171 -4.2071 -0.1105  1.3024
  872MOL0     H17709   1.412   8.251   7.987  3.9033 -0.9181  1.4145
  872MOL0     H17710   1.188   8.324   8.102  1.2415 -1.6039 -1.1660
  872MOL0     H17711   1.266   8.456   8.002  0.8229  0.8363  0.0182
  872MOL0     H17712   1.349   8.532   8.248  0.5118  0.3520 -2.9582
  872MOL0     H17713   1.258   8.401   8.309 -1.9011 -1.5669 -1.4243
  872MOL0     H17714   1.148   8.625   8.313  2.0206 -1.0852  0.3227
  872MOL0     H17715   1.115   8.610   8.136 -0.9068 -0.9659 -0.9650
  872MOL0     H17716   0.874   8.298   8.254  2.2123 -1.4904 -2.9268
  872MOL0     H17717   1.703   8.544   8.074  1.5449  0.4249  1.1919
  872MOL0     H17718   1.915   8.635   7.990  3.5019  1.5536 -2.5701
  872MOL0     H17719   2.015   8.514   8.077 -0.4076  1.0440  0.4003
  872MOL0     H17720   2.019   8.555   7.892 -1.9151  1.1047 -1.8538
  873MOL0     O17721   5.846   7.153   4.286  0.2162  0.0207 -0.0647
  873MOL0     C17722   5.908   7.234   4.351 -0.2471 -0.1986  0.3543
  873MOL0     O17723   6.026   7.291   4.308 -1.2008  0.2788  0.7401
  873MOL0     C17724   6.085   7.244   4.195 -1.7610 -0.3088  0.5067
  873MOL0     C17725   6.113   7.342   4.096  0.8538  0.2635  0.4679
  873MOL0     C17726   6.198   7.317   3.990 -0.4715 -0.4416 -0.4595
  873MOL0     C17727   6.260   7.197   3.974 -0.8415 -0.0374  0.0749
  873MOL0     O17728   6.368   7.179   3.883  0.0231 -0.5140 -0.5918
  873MOL0     C17729   6.350   7.210   3.743  1.1933  0.5437 -0.3390
  873MOL0     C17730   6.464   7.165   3.654 -0.2881 -0.4384  0.4591
  873MOL0     C17731   6.591   7.242   3.671  0.4839  0.8066  0.6677
  873MOL0     C17732   6.700   7.165   3.583  0.4039  0.6592  0.9575
  873MOL0     C17733   6.838   7.233   3.568  0.1624  0.4606 -0.1901
  873MOL0     C17734   6.937   7.160   3.485 -1.3128  0.3898  1.1771
  873MOL0     C17735   7.075   7.228   3.485  0.8834 -0.3423 -0.2027
  873MOL0     C17736   7.185   7.154   3.409 -0.3341 -0.5870 -0.0171
  873MOL0     N17737   7.169   7.129   3.265 -0.0285  0.1056 -1.1355
  873MOL0     C17738   7.190   7.216   3.167  0.1948 -0.0051  0.4276
  873MOL0     C17739   7.176   7.149   3.051 -0.0638  1.1677  0.6552
  873MOL0     C17740   7.221   7.193   2.915 -0.3856 -0.4158 -0.6177
  873MOL0     C17741   7.337   7.301   2.909 -0.0164 -0.5061 -0.0155
  873MOL0     C17742   7.379   7.346   2.768 -0.8196  0.6141 -0.4642
  873MOL0     C17743   7.494   7.443   2.779  0.7090  0.5944  0.5694
  873MOL0     O17744   7.598   7.374   2.845 -0.0015 -0.5159  0.6340
  873MOL0     C17745   7.711   7.443   2.849  0.4697  0.0627 -0.3930
  873MOL0     C17746   7.735   7.556   2.928 -0.1612  0.3410  0.4657
  873MOL0     C17747   7.866   7.626   2.928 -0.3842  0.7097  0.1906
  873MOL0     C17748   7.965   7.579   2.837 -0.0048  0.6301  1.6506
  873MOL0     C17749   8.096   7.655   2.818 -0.7838  0.7651  0.3179
  873MOL0     O17750   8.188   7.590   2.728  0.2448 -0.2381 -0.2425
  873MOL0     C17751   8.277   7.678   2.689  0.0955  0.1427  0.2531
  873MOL0     C17752   8.237   7.799   2.629  0.0109  0.3453 -0.0284
  873MOL0     C17753   8.328   7.898   2.581  0.5597 -0.4808  0.2152
  873MOL0     C17754   8.458   7.869   2.590 -0.8917  0.4154  0.2722
  873MOL0     O17755   8.561   7.954   2.549 -0.1169  1.2016 -0.0500
  873MOL0     C17756   8.541   8.090   2.506 -0.9500  1.6612 -0.3552
  873MOL0     C17757   8.678   8.158   2.508  0.7582 -0.8435  0.2045
  873MOL0     C17758   8.687   8.281   2.414 -1.0541 -0.1116 -0.6850
  873MOL0     C17759   8.696   8.244   2.263 -1.8769 -1.3112 -0.3773
  873MOL0     C17760   8.746   8.363   2.186 -0.1917  0.4480  0.4212
  873MOL0     C17761   8.781   8.313   2.039  0.3787 -0.9392 -0.3712
  873MOL0     C17762   8.932   8.265   2.039  1.4031  0.2828 -0.3294
  873MOL0     C17763   8.989   8.263   1.894  0.8074 -0.7948 -0.8165
  873MOL0    Cl17764   8.922   8.118   1.811 -0.2484  0.5185  0.5824
  873MOL0     C17765   8.501   7.746   2.641 -0.2022  0.6583 -0.5664
  873MOL0     C17766   8.411   7.646   2.693  0.3554 -0.4459 -0.2372
  873MOL0     O17767   8.104   7.767   2.866  0.0450  0.2490 -0.7151
  873MOL0     C17768   7.940   7.461   2.759  0.0073  0.3270 -0.3339
  873MOL0     C17769   7.819   7.392   2.767  0.1285 -0.8747 -0.7770
  873MOL0     N17770   7.140   7.018   3.079  1.1387  0.4773 -0.7115
  873MOL0     N17771   7.130   7.015   3.214 -0.5972 -0.5084 -0.0987
  873MOL0     C17772   6.239   7.099   4.074  0.3900  0.7339 -0.3952
  873MOL0     C17773   6.150   7.120   4.185  0.5028  0.1267  0.4003
  873MOL0     C17774   5.852   7.300   4.472 -0.3190  0.7386 -0.4913
  873MOL0     C17775   5.903   7.426   4.507  0.6669  0.1970 -0.2655
  873MOL0     C17776   5.858   7.506   4.615 -0.3054  0.4928 -0.2086
  873MOL0     C17777   5.757   7.465   4.695  0.0925  0.6342 -0.2930
  873MOL0     O17778   5.735   7.540   4.805  0.0262 -0.4225 -0.0747
  873MOL0     C17779   5.665   7.490   4.914 -0.0789  0.1140  0.3329
  873MOL0     C17780   5.505   7.496   4.905  0.3500 -0.3865 -0.2468
  873MOL0     C17781   5.452   7.365   4.969 -0.4806  0.0502 -0.3505
  873MOL0     C17782   5.307   7.333   4.931 -0.3621  1.0244  0.7321
  873MOL0     C17783   5.235   7.272   5.044  1.4020  0.7375  0.4305
  873MOL0     C17784   5.168   7.247   5.138  0.6070 -0.0435 -0.0070
  873MOL0     C17785   5.699   7.342   4.665 -0.0737 -0.0848 -0.7521
  873MOL0     C17786   5.742   7.264   4.558 -0.3572 -0.1455  0.5267
  873MOL0     C17787   5.650   7.139   4.523  0.5014  0.7561  0.3474
  873MOL0     H17788   6.064   7.439   4.107 -1.1994 -0.7229  0.6165
  873MOL0     H17789   6.212   7.394   3.915  0.4864 -1.0261 -0.9090
  873MOL0     H17790   6.257   7.174   3.699 -0.9653  2.5334  2.2190
  873MOL0     H17791   6.349   7.320   3.749  0.3944  0.4442  3.1142
  873MOL0     H17792   6.434   7.162   3.549  2.7287  0.9404 -0.5484
  873MOL0     H17793   6.479   7.062   3.686  4.7023 -0.4787 -1.1354
  873MOL0     H17794   6.614   7.249   3.778  1.8410  2.0773  0.3258
  873MOL0     H17795   6.583   7.347   3.641 -3.6494  0.7629  1.0452
  873MOL0     H17796   6.715   7.069   3.634 -3.9033 -0.6140  0.2930
  873MOL0     H17797   6.666   7.154   3.479 -0.0478 -1.2919  1.2592
  873MOL0     H17798   6.828   7.335   3.531  4.1451 -0.5166 -4.9664
  873MOL0     H17799   6.883   7.238   3.668  2.9690  2.6062 -1.4403
  873MOL0     H17800   6.932   7.054   3.514  0.0113 -0.7850 -2.3069
  873MOL0     H17801   6.900   7.175   3.383 -2.4235 -1.6075  1.2198
  873MOL0     H17802   7.111   7.233   3.588  1.1001  0.1053 -0.2936
  873MOL0     H17803   7.063   7.332   3.452  1.2790  0.6410  2.4625
  873MOL0     H17804   7.283   7.201   3.422 -1.0144  0.2628  2.8710
  873MOL0     H17805   7.200   7.061   3.465  1.2108 -0.2873  0.1216
  873MOL0     H17806   7.222   7.317   3.188 -0.1366 -0.0880  1.4119
  873MOL0     H17807   7.257   7.100   2.870 -0.9544 -1.2407  0.5751
  873MOL0     H17808   7.147   7.236   2.847  0.4507  3.5551  0.7394
  873MOL0     H17809   7.306   7.391   2.963  0.5006 -0.5754  0.4048
  873MOL0     H17810   7.427   7.274   2.967  0.5077  2.2299  0.5935
  873MOL0     H17811   7.299   7.388   2.706 -1.8510 -2.1564 -1.1841
  873MOL0     H17812   7.407   7.252   2.718 -0.2032  0.4964  0.0858
  873MOL0     H17813   7.477   7.541   2.825 -2.3452 -0.1469  1.2103
  873MOL0     H17814   7.527   7.457   2.676  1.2694 -1.7960  0.3717
  873MOL0     H17815   7.658   7.597   2.994  0.3585  0.8296  0.7777
  873MOL0     H17816   7.887   7.711   2.992 -0.3220 -0.2754  1.5139
  873MOL0     H17817   8.130   7.815   2.636  0.2018  1.6299  0.1967
  873MOL0     H17818   8.286   7.992   2.547 -3.1203 -1.0874  2.4208
  873MOL0     H17819   8.498   8.096   2.406 -1.0341  0.8211 -0.3827
  873MOL0     H17820   8.469   8.139   2.572  0.6006  1.4005  1.6549
  873MOL0     H17821   8.688   8.193   2.611  0.2336  1.7181 -0.5526
  873MOL0     H17822   8.759   8.086   2.492 -0.2799 -2.2559  1.0833
  873MOL0     H17823   8.607   8.349   2.445  1.9439  3.4437 -0.1013
  873MOL0     H17824   8.770   8.338   2.455 -1.7201  1.6051 -1.6343
  873MOL0     H17825   8.595   8.221   2.227 -1.8330 -1.6949 -0.2582
  873MOL0     H17826   8.767   8.161   2.258 -1.5398 -0.9860 -1.0589
  873MOL0     H17827   8.831   8.408   2.236  0.4308 -0.1242 -0.0968
  873MOL0     H17828   8.666   8.438   2.182  1.7779  2.6109 -0.0888
  873MOL0     H17829   8.720   8.228   2.008 -0.0667  0.0022 -2.2557
  873MOL0     H17830   8.762   8.401   1.976 -0.9086 -0.3905  0.7347
  873MOL0     H17831   8.957   8.170   2.087  3.0416  0.5561 -0.5818
  873MOL0     H17832   8.988   8.336   2.100 -0.0380  0.5198  0.7803
  873MOL0     H17833   8.967   8.357   1.844 -0.7295 -2.1844 -2.9176
  873MOL0     H17834   9.098   8.251   1.894  0.9365  0.2593 -1.3556
  873MOL0     H17835   8.606   7.721   2.650 -0.9357 -2.6650 -0.1004
  873MOL0     H17836   8.450   7.556   2.738  0.6730 -0.3345 -0.2853
  873MOL0     H17837   8.010   7.443   2.678 -0.3571  0.8700 -0.7757
  873MOL0     H17838   7.802   7.305   2.706  2.8614 -1.0413 -1.4204
  873MOL0     H17839   6.287   7.002   4.072 -0.4448  0.3197 -2.4643
  873MOL0     H17840   6.141   7.054   4.270  4.2940 -2.5160 -1.0117
  873MOL0     H17841   5.987   7.474   4.457  0.3650  0.6174 -0.3767
  873MOL0     H17842   5.898   7.605   4.635 -0.6026  0.7980 -1.0580
  873MOL0     H17843   5.699   7.540   5.005 -1.4581  0.6314  0.5771
  873MOL0     H17844   5.691   7.385   4.924 -2.4448 -0.4674  1.0186
  873MOL0     H17845   5.478   7.498   4.799 -0.5410 -3.7785 -0.1941
  873MOL0     H17846   5.475   7.590   4.951  1.5894  1.6106 -3.2515
  873MOL0     H17847   5.463   7.385   5.076 -0.7872 -0.1702 -0.2774
  873MOL0     H17848   5.510   7.281   4.928  1.3174  2.0428 -2.1808
  873MOL0     H17849   5.245   7.414   4.894 -2.2561  0.1717  1.9024
  873MOL0     H17850   5.307   7.262   4.848 -0.1071  3.2547 -1.2886
  873MOL0     H17851   5.109   7.227   5.226 -1.3241 -0.2476 -1.2890
  873MOL0     H17852   5.618   7.305   4.727  1.1795  0.4321  1.2770
  873MOL0     H17853   5.700   7.060   4.467 -0.3414 -0.4773  1.2877
  873MOL0     H17854   5.594   7.104   4.610 -0.7940 -0.2430 -0.8472
  873MOL0     H17855   5.568   7.171   4.459 -0.4828  0.0445  1.2283
  874MOL0     O17856   5.545   0.159   5.207  0.6412  1.2377 -0.1891
  874MOL0     C17857   5.653   0.158   5.260  0.0352  0.5578 -0.9176
  874MOL0     O17858   5.764   0.207   5.202  0.5220  0.1822 -0.0104
  874MOL0     C17859   5.742   0.254   5.072 -0.2713 -0.1915  0.1540
  874MOL0     C17860   5.659   0.361   5.035 -0.6239 -0.0209 -0.1685
  874MOL0     C17861   5.648   0.402   4.898  0.0761 -0.0443 -0.2946
  874MOL0     C17862   5.721   0.332   4.796  0.1962  0.5276 -0.7110
  874MOL0     O17863   5.715   0.371   4.657  0.1624  0.3345  0.0737
  874MOL0     C17864   5.604   0.449   4.618  0.9873  0.4486 -0.9530
  874MOL0     C17865   5.585   0.462   4.464 -0.2780  0.3375 -0.6223
  874MOL0     C17866   5.697   0.550   4.400 -0.4217  0.6734 -0.1606
  874MOL0     C17867   5.695   0.703   4.408 -0.7410 -0.3556  0.3698
  874MOL0     C17868   5.809   0.772   4.322  0.7249 -0.5658 -0.4344
  874MOL0     C17869   5.949   0.735   4.350 -0.0987  0.6857  0.1528
  874MOL0     C17870   6.062   0.808   4.264 -0.0414  0.0222 -0.9725
  874MOL0     C17871   6.057   0.759   4.121 -0.9601 -0.4437  0.2720
  874MOL0     N17872   6.093   0.858   4.015 -0.1374  0.5903 -0.5347
  874MOL0     C17873   6.149   0.983   4.036  0.3894 -1.1692 -0.3275
  874MOL0     C17874   6.173   1.024   3.906 -0.3371 -0.2136  0.6126
  874MOL0     C17875   6.241   1.158   3.870  0.5016  0.3669 -0.5840
  874MOL0     C17876   6.150   1.279   3.885  0.2805  1.5372  0.0323
  874MOL0     C17877   6.212   1.415   3.878 -0.8745 -0.5594  0.6062
  874MOL0     C17878   6.103   1.527   3.881  0.2778 -0.3570 -0.1868
  874MOL0     O17879   6.161   1.651   3.851  0.0889 -0.5430 -0.5035
  874MOL0     C17880   6.114   1.754   3.922 -0.0430 -0.3119 -0.3384
  874MOL0     C17881   5.976   1.785   3.923  0.2051 -0.4814  0.6039
  874MOL0     C17882   5.927   1.899   3.985  0.3071  0.0521 -1.0641
  874MOL0     C17883   6.023   1.979   4.069  1.1854  0.1349  0.2936
  874MOL0     C17884   5.959   2.087   4.150 -0.1620 -0.6086 -0.4334
  874MOL0     O17885   5.822   2.107   4.159 -0.2166  0.2772  1.0641
  874MOL0     C17886   5.779   2.218   4.217  0.7503  0.6397 -0.1642
  874MOL0     C17887   5.692   2.307   4.147 -1.4328  0.4250 -0.8568
  874MOL0     C17888   5.632   2.414   4.205  0.0403  0.4686 -0.4946
  874MOL0     C17889   5.629   2.422   4.347  0.7929  0.2470 -0.3249
  874MOL0     O17890   5.557   2.526   4.414  0.2637  0.7823  0.0061
  874MOL0     C17891   5.525   2.490   4.548 -0.3549 -0.9625  0.4613
  874MOL0     C17892   5.419   2.593   4.590  0.6071  0.2282 -0.6729
  874MOL0     C17893   5.390   2.569   4.746 -0.0108 -0.3601  0.4820
  874MOL0     C17894   5.265   2.656   4.796 -0.1727 -0.4616 -0.4335
  874MOL0     C17895   5.228   2.647   4.938  0.1542 -0.5697  0.3583
  874MOL0     C17896   5.119   2.747   4.976 -0.6372  0.1420 -0.2634
  874MOL0     C17897   5.117   2.779   5.124  0.0591  0.0102 -0.8103
  874MOL0     C17898   5.028   2.891   5.176  0.3612  0.3173  1.3165
  874MOL0    Cl17899   5.105   2.990   5.309  0.7971  0.3089 -0.0789
  874MOL0     C17900   5.712   2.329   4.420 -0.6043  0.2771 -1.0638
  874MOL0     C17901   5.789   2.235   4.357  0.7195  0.7805 -0.7594
  874MOL0     O17902   6.042   2.155   4.223 -0.2667 -0.0292  0.2911
  874MOL0     C17903   6.162   1.950   4.056  0.7199 -0.1363 -0.1753
  874MOL0     C17904   6.208   1.839   3.987  0.9952 -0.8240 -0.3146
  874MOL0     N17905   6.142   0.921   3.812 -0.8704  0.2286 -0.1491
  874MOL0     N17906   6.095   0.822   3.883  0.2663  0.5487  0.7321
  874MOL0     C17907   5.810   0.237   4.839 -0.4179  0.7198 -0.5144
  874MOL0     C17908   5.823   0.199   4.976 -0.4406  0.7897  0.9244
  874MOL0     C17909   5.690   0.098   5.391  1.3295  0.0872 -0.5194
  874MOL0     C17910   5.796   0.152   5.470  0.6412  0.7714 -0.0086
  874MOL0     C17911   5.831   0.099   5.587  0.0095  0.6481  0.0037
  874MOL0     C17912   5.773  -0.032   5.626 -0.0730 -0.0546 -0.1814
  874MOL0     O17913   5.817  -0.110   5.734  0.2530 -0.2903 -0.6155
  874MOL0     C17914   5.925  -0.051   5.808  0.1288  0.4853 -0.0087
  874MOL0     C17915   5.982  -0.157   5.895 -0.3590 -0.2359  0.2759
  874MOL0     C17916   6.119  -0.106   5.959  0.3994 -0.8615 -0.8714
  874MOL0     C17917   6.195  -0.208   6.032  0.3558 -0.5119  0.4286
  874MOL0     C17918   6.217  -0.328   5.956  0.8688  0.1730  0.2309
  874MOL0     C17919   6.246  -0.433   5.900 -0.2588 -0.3168  1.2001
  874MOL0     C17920   5.682  -0.088   5.543  0.1497 -0.8442 -0.1246
  874MOL0     C17921   5.633  -0.021   5.430 -0.9995  0.8409 -0.1880
  874MOL0     C17922   5.519  -0.099   5.364 -0.2012  0.3926  0.5151
  874MOL0     H17923   5.609   0.422   5.110  0.6232  3.5837 -2.0217
  874MOL0     H17924   5.573   0.479   4.882 -3.7660 -3.3514  0.3390
  874MOL0     H17925   5.520   0.385   4.644  1.1511  0.3814 -0.5827
  874MOL0     H17926   5.604   0.546   4.669  1.6161 -0.2149  0.3641
  874MOL0     H17927   5.487   0.508   4.443 -0.0003  0.1157 -2.5623
  874MOL0     H17928   5.570   0.362   4.423 -2.2468  0.9896 -1.6370
  874MOL0     H17929   5.696   0.527   4.293  1.0532  2.7643 -0.6758
  874MOL0     H17930   5.788   0.522   4.453 -2.0949 -2.0270  1.4975
  874MOL0     H17931   5.601   0.745   4.371  1.1377  4.6459  0.5417
  874MOL0     H17932   5.699   0.730   4.514  0.0575 -2.1002  0.8368
  874MOL0     H17933   5.787   0.752   4.217 -2.2980 -1.9045  0.3621
  874MOL0     H17934   5.788   0.872   4.359 -1.8746 -1.9762  2.2930
  874MOL0     H17935   5.973   0.762   4.453  0.3776  3.5173 -0.6138
  874MOL0     H17936   5.968   0.628   4.336 -4.0047  0.0475 -1.7859
  874MOL0     H17937   6.157   0.792   4.315  0.0224 -0.7886 -1.3205
  874MOL0     H17938   6.026   0.911   4.271  0.3289  0.0730  0.3279
  874MOL0     H17939   6.115   0.667   4.112 -3.5739 -2.0192 -2.3137
  874MOL0     H17940   5.957   0.721   4.099 -1.9365  2.8078 -1.5068
  874MOL0     H17941   6.167   1.040   4.126  0.8197 -0.8639 -0.6069
  874MOL0     H17942   6.318   1.186   3.942  0.1935  1.0798 -0.5186
  874MOL0     H17943   6.275   1.152   3.767 -1.8778  1.6340 -1.5118
  874MOL0     H17944   6.076   1.270   3.805 -1.8268 -3.2550  2.0919
  874MOL0     H17945   6.095   1.267   3.979 -2.8077 -1.6099 -1.9240
  874MOL0     H17946   6.278   1.415   3.791  0.0660  2.1964  1.2202
  874MOL0     H17947   6.274   1.418   3.968  2.0355  2.6998 -1.2629
  874MOL0     H17948   6.054   1.516   3.978 -0.8703 -2.2500 -0.9184
  874MOL0     H17949   6.024   1.526   3.805 -2.0252  2.1795  2.0071
  874MOL0     H17950   5.910   1.725   3.861 -1.1143  0.6301  0.8924
  874MOL0     H17951   5.821   1.919   3.993  0.0574 -1.8152  1.5917
  874MOL0     H17952   5.660   2.286   4.045 -0.0500 -0.8773 -1.0645
  874MOL0     H17953   5.566   2.484   4.154 -2.8466 -1.6223  0.0794
  874MOL0     H17954   5.499   2.385   4.563  1.0614 -1.2320  1.2150
  874MOL0     H17955   5.621   2.490   4.601 -0.3266 -2.3387  0.4597
  874MOL0     H17956   5.472   2.688   4.574 -0.3444  0.7258 -0.9268
  874MOL0     H17957   5.333   2.569   4.528  0.7686 -3.6642  0.3459
  874MOL0     H17958   5.359   2.466   4.769 -0.7798 -0.2605 -0.0580
  874MOL0     H17959   5.480   2.592   4.803 -0.2469 -0.7015  1.0000
  874MOL0     H17960   5.176   2.615   4.747  2.0722 -2.9413 -2.8341
  874MOL0     H17961   5.285   2.760   4.768  0.7723 -0.6442 -0.4753
  874MOL0     H17962   5.315   2.682   4.994 -0.4216 -1.2779  1.7379
  874MOL0     H17963   5.207   2.548   4.978 -1.6804  0.1703  1.3236
  874MOL0     H17964   5.135   2.841   4.924 -1.7989  1.0996  1.0232
  874MOL0     H17965   5.022   2.710   4.941  0.3756 -2.1555 -0.8322
  874MOL0     H17966   5.221   2.814   5.133 -0.4211  1.0321  1.4686
  874MOL0     H17967   5.106   2.690   5.186 -1.1648  0.6802 -0.0272
  874MOL0     H17968   5.024   2.956   5.089  0.0852  0.6676  1.5890
  874MOL0     H17969   4.929   2.851   5.199 -0.9293  1.5288 -1.5652
  874MOL0     H17970   5.700   2.319   4.528 -3.1424  3.3954 -0.9274
  874MOL0     H17971   5.848   2.169   4.420 -2.5511  0.1775  1.9640
  874MOL0     H17972   6.230   2.002   4.122 -0.3255 -1.4932  2.0816
  874MOL0     H17973   6.314   1.818   3.983  1.9793  2.7056  2.3394
  874MOL0     H17974   5.857   0.171   4.767  0.5889 -2.3236  2.6732
  874MOL0     H17975   5.889   0.120   5.011  2.5286  2.7003  0.0056
  874MOL0     H17976   5.849   0.241   5.435 -0.3795  0.6293 -2.0899
  874MOL0     H17977   5.903   0.151   5.650 -2.5439  4.6835 -0.0426
  874MOL0     H17978   5.885   0.029   5.871 -0.9505 -1.3315  1.7397
  874MOL0     H17979   6.009  -0.011   5.751  0.0408  1.0273  0.2345
  874MOL0     H17980   5.999  -0.246   5.834  0.8539  1.4865 -2.0680
  874MOL0     H17981   5.913  -0.189   5.974  0.4894 -0.5793  0.8951
  874MOL0     H17982   6.111  -0.025   6.032 -0.2106 -0.2229 -1.6263
  874MOL0     H17983   6.172  -0.062   5.874 -1.2980 -0.5202 -1.7987
  874MOL0     H17984   6.289  -0.164   6.068  0.3639  0.1115 -0.3141
  874MOL0     H17985   6.137  -0.222   6.123  3.0298  1.7137  2.6471
  874MOL0     H17986   6.303  -0.517   5.866  0.6047 -0.3544  2.6635
  874MOL0     H17987   5.656  -0.190   5.571  2.9513 -2.1532 -1.8098
  874MOL0     H17988   5.479  -0.167   5.439  0.3130  1.2775  1.6228
  874MOL0     H17989   5.433  -0.040   5.329  0.8699  0.9731 -1.2702
  874MOL0     H17990   5.548  -0.154   5.274 -2.8169  1.2108 -0.9551
  875MOL0     O17991   1.949   6.434   3.444 -0.0774 -0.0971  0.3770
  875MOL0     C17992   1.914   6.394   3.556  0.0104 -0.4863  0.5196
  875MOL0     O17993   1.932   6.466   3.662 -0.2163  0.2762 -0.0974
  875MOL0     C17994   1.996   6.583   3.646 -0.1616 -0.5300 -0.8258
  875MOL0     C17995   2.128   6.599   3.590 -0.2813  0.5132  0.4018
  875MOL0     C17996   2.190   6.724   3.600 -0.6055 -1.0252 -0.4133
  875MOL0     C17997   2.124   6.833   3.659  0.3034 -0.6734 -0.1216
  875MOL0     O17998   2.193   6.949   3.680 -0.5118  0.7487  0.3888
  875MOL0     C17999   2.286   7.000   3.583  0.2284 -0.0014  0.1166
  875MOL0     C18000   2.222   7.047   3.451 -0.0683  0.9028  0.1494
  875MOL0     C18001   2.329   7.112   3.359 -0.6495  1.3400  0.0554
  875MOL0     C18002   2.435   7.012   3.317  0.3495  0.1110  0.6980
  875MOL0     C18003   2.523   7.065   3.210  0.4647 -0.2661 -0.3656
  875MOL0     C18004   2.615   7.177   3.261 -0.0187  0.1659  0.5368
  875MOL0     C18005   2.690   7.231   3.141  0.0117 -0.4577 -0.3640
  875MOL0     C18006   2.770   7.362   3.168 -0.1888  0.6185 -0.2280
  875MOL0     N18007   2.866   7.372   3.059 -0.9701  0.2567  0.0357
  875MOL0     C18008   2.856   7.461   2.953 -0.0179  0.2355 -0.1289
  875MOL0     C18009   2.946   7.417   2.857 -0.1504 -0.3250  0.2034
  875MOL0     C18010   3.001   7.495   2.736 -0.7678 -1.0804 -0.4892
  875MOL0     C18011   2.945   7.441   2.610 -0.9206  0.4213 -0.0655
  875MOL0     C18012   2.996   7.531   2.497 -0.2659  0.1686 -0.1988
  875MOL0     C18013   2.891   7.649   2.489  0.0308 -0.2090  0.7409
  875MOL0     O18014   2.926   7.747   2.381 -0.2817 -0.6466  0.3204
  875MOL0     C18015   3.030   7.833   2.396 -0.9989  0.0335  0.2555
  875MOL0     C18016   3.120   7.846   2.511 -0.0455 -0.8069  0.0228
  875MOL0     C18017   3.213   7.956   2.523 -0.0226 -0.2904 -0.0625
  875MOL0     C18018   3.228   8.039   2.410  0.3007  0.5505 -0.9618
  875MOL0     C18019   3.328   8.154   2.416 -1.1635 -0.6024  0.2596
  875MOL0     O18020   3.292   8.271   2.352 -0.4862  0.0281  0.5499
  875MOL0     C18021   3.380   8.381   2.341  1.2513 -0.1810  0.6752
  875MOL0     C18022   3.413   8.425   2.215 -0.2460  0.0444 -0.9455
  875MOL0     C18023   3.503   8.523   2.196 -0.3562 -0.5419  0.3325
  875MOL0     C18024   3.529   8.614   2.302 -0.0178  0.4148  0.2334
  875MOL0     O18025   3.582   8.742   2.285 -0.4818  0.2886  0.0669
  875MOL0     C18026   3.594   8.794   2.157 -0.2420 -0.0735  0.4344
  875MOL0     C18027   3.541   8.935   2.191 -0.4088 -0.7957  1.2293
  875MOL0     C18028   3.506   9.034   2.077 -0.3061  1.3558 -0.3434
  875MOL0     C18029   3.498   9.182   2.128  0.3627 -0.9078 -0.1741
  875MOL0     C18030   3.454   9.276   2.021 -0.2003 -0.6164  0.8295
  875MOL0     C18031   3.309   9.242   1.973 -0.4279 -0.7179  0.0220
  875MOL0     C18032   3.200   9.217   2.076 -0.4289 -0.5123  0.1214
  875MOL0     C18033   3.058   9.244   2.035  0.1585  0.5405 -0.4749
  875MOL0    Cl18034   3.031   9.418   2.030  0.1060 -0.2361  0.6858
  875MOL0     C18035   3.496   8.575   2.429  0.4030  0.4226  0.3026
  875MOL0     C18036   3.428   8.451   2.450 -0.1479 -0.4336 -0.0452
  875MOL0     O18037   3.430   8.140   2.484 -0.4113 -0.2512 -0.4666
  875MOL0     C18038   3.141   8.022   2.301 -0.4915 -0.0666 -0.0251
  875MOL0     C18039   3.045   7.920   2.289 -1.2983 -0.1940  0.0239
  875MOL0     N18040   3.003   7.310   2.907  0.8921  0.2457 -0.1096
  875MOL0     N18041   2.973   7.292   3.026  0.2915  0.2684 -0.0130
  875MOL0     C18042   1.995   6.827   3.719  0.1605  0.0714  0.8027
  875MOL0     C18043   1.937   6.696   3.709  1.0235 -0.4603 -0.6629
  875MOL0     C18044   1.876   6.255   3.576  0.7202  0.5969  0.7846
  875MOL0     C18045   1.880   6.206   3.704  0.7467  0.4988 -0.0104
  875MOL0     C18046   1.832   6.077   3.733 -0.0822 -0.4829 -0.0956
  875MOL0     C18047   1.806   5.994   3.629  0.3663 -0.2625  0.4704
  875MOL0     O18048   1.743   5.883   3.676  0.0436  1.0451 -0.3498
  875MOL0     C18049   1.673   5.807   3.583 -0.9527 -0.0832 -0.2733
  875MOL0     C18050   1.599   5.689   3.649  0.6490  0.8053 -0.2323
  875MOL0     C18051   1.689   5.582   3.710 -0.4769  0.1865  0.3203
  875MOL0     C18052   1.792   5.510   3.619 -0.8118  0.1335  0.0641
  875MOL0     C18053   1.909   5.460   3.694 -0.6796  0.7923 -0.2119
  875MOL0     C18054   2.004   5.418   3.758  0.4811 -0.0006  0.4128
  875MOL0     C18055   1.810   6.028   3.496 -0.4919  0.1779  0.4144
  875MOL0     C18056   1.855   6.159   3.468  0.6397  0.1117  0.0075
  875MOL0     C18057   1.864   6.201   3.323  0.0298  0.4886  0.0368
  875MOL0     H18058   2.174   6.518   3.534 -0.7359 -0.1732  1.0007
  875MOL0     H18059   2.292   6.726   3.564  0.2043 -1.5891  1.7249
  875MOL0     H18060   2.336   7.080   3.638  0.7191  0.7831 -1.4080
  875MOL0     H18061   2.362   6.921   3.576  2.1581  1.7238  0.5805
  875MOL0     H18062   2.140   7.118   3.464 -1.9565 -1.3307  1.3928
  875MOL0     H18063   2.195   6.959   3.392  2.2230  0.3715 -0.1950
  875MOL0     H18064   2.368   7.198   3.413 -0.6169  3.8138 -3.5040
  875MOL0     H18065   2.283   7.150   3.267 -0.0954  2.0776  0.0782
  875MOL0     H18066   2.509   6.989   3.394  2.9090 -1.0203 -1.8761
  875MOL0     H18067   2.385   6.922   3.280  3.0005 -0.9439 -0.6312
  875MOL0     H18068   2.595   6.989   3.180  1.5516  0.5725  0.0728
  875MOL0     H18069   2.464   7.093   3.122 -1.1276 -1.6611  0.2053
  875MOL0     H18070   2.540   7.249   3.297  2.0699  1.3570  2.8612
  875MOL0     H18071   2.672   7.147   3.349  0.9888  1.4957  0.3774
  875MOL0     H18072   2.633   7.239   3.048 -1.1606  0.6477  0.4173
  875MOL0     H18073   2.753   7.152   3.098 -2.1806 -2.5721  0.1183
  875MOL0     H18074   2.698   7.445   3.171 -0.0123  0.7480  0.5853
  875MOL0     H18075   2.823   7.353   3.262  1.0985 -0.2835 -1.0135
  875MOL0     H18076   2.812   7.560   2.944  2.6816  1.5530  0.2193
  875MOL0     H18077   2.975   7.599   2.760  3.2277  0.1777 -0.9199
  875MOL0     H18078   3.110   7.495   2.726 -0.9355 -3.2002 -3.5906
  875MOL0     H18079   2.981   7.339   2.591 -2.7034 -0.0497 -1.1427
  875MOL0     H18080   2.836   7.437   2.616 -0.8116 -2.1485  2.9060
  875MOL0     H18081   2.978   7.470   2.407 -1.7896  1.5481 -0.8959
  875MOL0     H18082   3.097   7.573   2.496  0.1403 -0.6020 -3.1885
  875MOL0     H18083   2.896   7.704   2.583  1.7729  1.6021 -0.3189
  875MOL0     H18084   2.787   7.617   2.486 -0.5987  1.6042  1.5801
  875MOL0     H18085   3.098   7.796   2.605  1.0592 -0.4117  0.5169
  875MOL0     H18086   3.273   7.982   2.610  1.8390  0.7336 -1.5682
  875MOL0     H18087   3.377   8.361   2.135 -2.7989  1.3834 -0.9659
  875MOL0     H18088   3.544   8.546   2.098 -0.7343  2.6711  0.8026
  875MOL0     H18089   3.689   8.806   2.106 -1.6823  2.5810 -1.9237
  875MOL0     H18090   3.520   8.754   2.086  0.6113 -0.5722 -0.1852
  875MOL0     H18091   3.452   8.929   2.254  0.0545 -1.0807  1.8696
  875MOL0     H18092   3.623   8.967   2.257 -1.7512 -0.0156  2.5677
  875MOL0     H18093   3.580   9.014   1.998  0.7464  0.2305  0.8723
  875MOL0     H18094   3.409   8.993   2.047  0.0134 -0.9629  1.4663
  875MOL0     H18095   3.596   9.212   2.165 -0.7793  1.7266  1.0073
  875MOL0     H18096   3.437   9.199   2.218  1.4523  0.0726  0.4036
  875MOL0     H18097   3.519   9.274   1.934 -3.8618 -0.6223 -2.1770
  875MOL0     H18098   3.453   9.379   2.059  0.6412 -0.6384  0.9322
  875MOL0     H18099   3.272   9.322   1.908 -0.6274  1.3220  2.4928
  875MOL0     H18100   3.312   9.156   1.905  0.0321 -0.5828 -0.1318
  875MOL0     H18101   3.226   9.258   2.174  0.2160  1.5289 -0.8638
  875MOL0     H18102   3.209   9.109   2.093 -0.4823 -0.6031 -0.4223
  875MOL0     H18103   3.028   9.206   1.937 -2.1012 -0.5962  0.5915
  875MOL0     H18104   2.991   9.188   2.100  0.1881 -0.8187 -1.5792
  875MOL0     H18105   3.546   8.631   2.506  0.6712  0.3252  0.1988
  875MOL0     H18106   3.403   8.437   2.555  4.0039 -3.1278  0.8582
  875MOL0     H18107   3.159   8.088   2.216  3.7256 -1.0845 -0.1820
  875MOL0     H18108   2.976   7.900   2.207 -2.2142 -2.0346  1.1763
  875MOL0     H18109   1.942   6.907   3.769 -1.9946 -1.5681  1.2792
  875MOL0     H18110   1.834   6.682   3.740  1.3255  0.9082  1.1160
  875MOL0     H18111   1.910   6.268   3.788  1.3987  1.2070 -0.7528
  875MOL0     H18112   1.830   6.050   3.838  3.5341  0.6005  0.3887
  875MOL0     H18113   1.737   5.763   3.505  1.9484  1.6935  0.9512
  875MOL0     H18114   1.594   5.864   3.533 -0.9429  0.8361  0.7243
  875MOL0     H18115   1.544   5.639   3.569  1.8273  2.0650 -1.8772
  875MOL0     H18116   1.538   5.729   3.732 -1.1823  0.6669 -1.4549
  875MOL0     H18117   1.622   5.507   3.755 -0.8563  0.5138  0.3070
  875MOL0     H18118   1.748   5.632   3.788 -0.3531 -1.6871  1.4952
  875MOL0     H18119   1.740   5.428   3.570  1.1666 -0.8293 -0.5358
  875MOL0     H18120   1.838   5.587   3.556  0.9711 -0.1661  0.9283
  875MOL0     H18121   2.091   5.379   3.807 -0.9626 -0.8628  2.4081
  875MOL0     H18122   1.771   5.970   3.414  2.7179  1.7852 -2.5174
  875MOL0     H18123   1.781   6.266   3.295 -2.7260 -3.7022 -2.5979
  875MOL0     H18124   1.964   6.244   3.315 -0.1776  1.3857  1.7434
  875MOL0     H18125   1.848   6.118   3.254  0.6200  0.4436 -0.0533
  876MOL0     O18126   0.980  10.754   2.845  0.4222 -0.2331 -0.3765
  876MOL0     C18127   0.959  10.726   2.963  0.1063 -0.6572 -0.4395
  876MOL0     O18128   0.848  10.708   3.034  0.6494  0.5098 -0.6061
  876MOL0     C18129   0.734  10.776   2.987  0.9231 -0.5896  0.0504
  876MOL0     C18130   0.732  10.911   2.953 -0.3423 -0.0000 -0.2666
  876MOL0     C18131   0.616  10.967   2.903  0.0442  1.1183  1.1155
  876MOL0     C18132   0.506  10.892   2.863 -0.4636  0.2842 -0.1713
  876MOL0     O18133   0.400  10.956   2.809  0.0182  0.2731 -0.2037
  876MOL0     C18134   0.361  10.903   2.682  0.2712  1.3032  1.2450
  876MOL0     C18135   0.300  11.013   2.588 -0.0791 -1.1741 -1.3425
  876MOL0     C18136   0.246  10.963   2.455 -0.4956 -0.5245  0.1114
  876MOL0     C18137   0.226  11.088   2.366  0.0328 -0.2939 -0.2446
  876MOL0     C18138   0.202  11.039   2.217  0.1058  0.4492 -0.8731
  876MOL0     C18139   0.165  11.166   2.125  0.5718 -0.1039 -0.7522
  876MOL0     C18140   0.279  11.254   2.072 -0.6806  0.0404 -0.1089
  876MOL0     C18141   0.243  11.395   2.036  0.3022 -0.1665  0.6165
  876MOL0     N18142   0.228  11.411   1.890  0.0613 -0.2811  0.0645
  876MOL0     C18143   0.153  11.340   1.791  0.1797  0.1859 -0.1930
  876MOL0     C18144   0.135  11.424   1.687  0.0957 -0.7536  0.9400
  876MOL0     C18145   0.042  11.398   1.574 -0.9034  0.7248  0.3006
  876MOL0     C18146   0.074  11.490   1.458  0.2589  0.8904  0.0947
  876MOL0     C18147   0.001  11.429   1.338 -0.3691 -0.4727  0.4278
  876MOL0     C18148   0.069  11.503   1.216  0.6670 -0.3082 -0.2345
  876MOL0     O18149   0.005  11.639   1.192 -0.0541 -0.1484 -0.2144
  876MOL0     C18150  -0.091  11.654   1.093  0.4574  0.3700 -0.1511
  876MOL0     C18151  -0.156  11.549   1.027  0.1501 -0.1997  0.3489
  876MOL0     C18152  -0.253  11.562   0.925  0.6679  0.6236 -0.6979
  876MOL0     C18153  -0.281  11.694   0.881 -0.5580 -0.1829 -1.2403
  876MOL0     C18154  -0.388  11.715   0.778 -0.2781 -0.7705 -0.5541
  876MOL0     O18155  -0.454  11.834   0.789 -0.2719 -0.8314  0.6621
  876MOL0     C18156  -0.540  11.884   0.696 -0.4943 -0.4101 -0.3391
  876MOL0     C18157  -0.666  11.825   0.663  0.0158  0.6593  0.7417
  876MOL0     C18158  -0.745  11.877   0.564  0.1689  0.5040  1.5285
  876MOL0     C18159  -0.706  11.982   0.488 -1.1807 -0.0921  0.4101
  876MOL0     O18160  -0.774  11.992   0.371 -0.1962  0.1956 -0.0584
  876MOL0     C18161  -0.707  12.026   0.252  0.3117  0.4600  0.1414
  876MOL0     C18162  -0.808  12.050   0.129 -0.0702 -0.0441 -0.2179
  876MOL0     C18163  -0.887  11.923   0.091  0.1404 -0.1690  0.4680
  876MOL0     C18164  -0.850  11.867  -0.044 -0.3997 -0.5100  0.5817
  876MOL0     C18165  -0.971  11.791  -0.099 -0.7753 -0.1099 -0.6469
  876MOL0     C18166  -0.993  11.661  -0.014 -1.6341 -0.5737  0.2001
  876MOL0     C18167  -1.083  11.567  -0.090 -0.1227 -0.1226 -1.0267
  876MOL0     C18168  -1.127  11.439  -0.000 -0.3313 -0.2935 -0.4854
  876MOL0    Cl18169  -0.984  11.338   0.064 -0.3530  0.5085  0.1025
  876MOL0     C18170  -0.588  12.048   0.526 -0.1292  0.0388  0.0827
  876MOL0     C18171  -0.511  11.998   0.628  0.0769  0.7820 -0.0153
  876MOL0     O18172  -0.416  11.629   0.702 -0.2115  0.1328  0.2774
  876MOL0     C18173  -0.204  11.802   0.936  0.2762  0.1530  0.5511
  876MOL0     C18174  -0.122  11.789   1.048  0.2798  0.4846 -0.3531
  876MOL0     N18175   0.199  11.547   1.727 -0.0326  0.2458  0.1358
  876MOL0     N18176   0.258  11.533   1.848 -0.1119  0.2130 -0.0652
  876MOL0     C18177   0.508  10.761   2.894  0.5911  0.1571  0.2016
  876MOL0     C18178   0.624  10.703   2.953 -0.1750  0.3113 -0.0081
  876MOL0     C18179   1.076  10.727   3.056  0.2234 -0.0546  0.5804
  876MOL0     C18180   1.063  10.799   3.174 -0.7349 -1.1274 -0.1476
  876MOL0     C18181   1.173  10.814   3.257  0.0952 -1.2999  0.7993
  876MOL0     C18182   1.298  10.772   3.215  0.5132  0.6054 -0.0592
  876MOL0     O18183   1.400  10.794   3.294  0.3439  0.1104 -0.0135
  876MOL0     C18184   1.494  10.673   3.293 -0.6098 -1.1071  0.3567
  876MOL0     C18185   1.559  10.646   3.425  0.3300 -0.8100 -0.1668
  876MOL0     C18186   1.513  10.739   3.542  0.2730  0.0129  0.0132
  876MOL0     C18187   1.610  10.750   3.658 -0.6956  0.5778  0.2851
  876MOL0     C18188   1.538  10.809   3.771 -0.2485  1.0053 -0.3973
  876MOL0     C18189   1.482  10.851   3.868  1.1019  1.1153  0.3180
  876MOL0     C18190   1.309  10.707   3.092 -0.1720  0.3552  0.7253
  876MOL0     C18191   1.196  10.679   3.007 -0.6080  0.7198 -0.3120
  876MOL0     C18192   1.212  10.592   2.893 -0.5013  0.3932  0.1989
  876MOL0     H18193   0.814  10.978   2.976 -0.5476  0.2921 -0.3871
  876MOL0     H18194   0.602  11.074   2.898 -0.6821  0.9796 -0.7069
  876MOL0     H18195   0.445  10.852   2.633  0.8775 -0.2142  3.6922
  876MOL0     H18196   0.280  10.832   2.695  3.2335 -2.8374 -0.6210
  876MOL0     H18197   0.379  11.085   2.566 -2.0423  1.3295 -0.6038
  876MOL0     H18198   0.221  11.058   2.650  1.2441 -3.2710  2.1617
  876MOL0     H18199   0.153  10.910   2.473 -0.1485 -1.3256 -0.4200
  876MOL0     H18200   0.323  10.903   2.406 -0.7120 -0.8168  0.1261
  876MOL0     H18201   0.146  11.147   2.411 -0.9263 -1.2678 -0.6167
  876MOL0     H18202   0.317  11.148   2.371 -0.3944  0.4876 -1.3941
  876MOL0     H18203   0.283  10.978   2.177  1.0538  0.4678  0.9228
  876MOL0     H18204   0.113  10.976   2.223  0.2872  0.2725  0.0927
  876MOL0     H18205   0.096  11.138   2.045 -0.6460  2.4050 -0.6680
  876MOL0     H18206   0.098  11.235   2.177  0.5440  1.3435 -2.6228
  876MOL0     H18207   0.339  11.203   1.996  0.6040  1.2768  0.0568
  876MOL0     H18208   0.356  11.260   2.149 -1.2647 -0.8108  0.5678
  876MOL0     H18209   0.157  11.435   2.090  1.3675 -0.6541  2.7873
  876MOL0     H18210   0.327  11.463   2.054  0.5327 -0.8362  2.1777
  876MOL0     H18211   0.093  11.250   1.805  1.7559 -0.6635  1.5814
  876MOL0     H18212   0.040  11.292   1.546  0.1518  1.1060 -1.3946
  876MOL0     H18213  -0.063  11.417   1.595 -2.0413 -3.3030 -0.7988
  876MOL0     H18214   0.030  11.589   1.474 -2.7768 -0.3875  0.3433
  876MOL0     H18215   0.183  11.482   1.449  0.0750 -3.2102 -0.3823
  876MOL0     H18216  -0.108  11.433   1.339 -0.3590  1.4658 -0.6620
  876MOL0     H18217   0.024  11.325   1.314 -0.8225 -0.7682  1.2484
  876MOL0     H18218   0.051  11.436   1.131 -0.6267  2.2138 -2.0571
  876MOL0     H18219   0.177  11.521   1.223  0.0574  3.8454  1.8980
  876MOL0     H18220  -0.145  11.446   1.059 -0.2584 -0.4533 -0.3005
  876MOL0     H18221  -0.316  11.474   0.915  0.2609  0.8810 -0.3797
  876MOL0     H18222  -0.705  11.735   0.709  0.5006  0.9529  1.7578
  876MOL0     H18223  -0.828  11.820   0.524 -0.0915  1.3666  0.7823
  876MOL0     H18224  -0.649  12.118   0.263 -0.0362  0.6727  0.2089
  876MOL0     H18225  -0.641  11.941   0.233 -0.2862 -0.3917  1.6887
  876MOL0     H18226  -0.869  12.140   0.136  2.3677  1.5745  1.7640
  876MOL0     H18227  -0.750  12.082   0.042  4.8688 -2.1779  1.9032
  876MOL0     H18228  -0.877  11.845   0.167  0.7262  0.0700  0.6456
  876MOL0     H18229  -0.991  11.954   0.082 -0.9223 -3.6899 -0.9746
  876MOL0     H18230  -0.756  11.810  -0.048  0.5364  0.9686 -3.2954
  876MOL0     H18231  -0.832  11.950  -0.113 -2.4147  0.4059  1.1115
  876MOL0     H18232  -0.948  11.777  -0.205  2.6614 -0.2547 -0.0159
  876MOL0     H18233  -1.066  11.845  -0.092 -0.7686 -0.2683  3.3086
  876MOL0     H18234  -0.893  11.618  -0.005 -1.6336 -0.4042  1.0536
  876MOL0     H18235  -1.028  11.687   0.086 -1.2127 -1.6047  0.6279
  876MOL0     H18236  -1.043  11.524  -0.183 -2.0799  2.6478 -3.3073
  876MOL0     H18237  -1.167  11.630  -0.118  0.6820  1.5606  0.2148
  876MOL0     H18238  -1.184  11.473   0.087  1.3187 -1.6017  1.1957
  876MOL0     H18239  -1.190  11.381  -0.068  1.0946 -1.8100 -0.5881
  876MOL0     H18240  -0.545  12.125   0.463 -0.6637  1.2882  1.1948
  876MOL0     H18241  -0.422  12.055   0.652  0.8350 -0.2735 -0.2697
  876MOL0     H18242  -0.230  11.901   0.898  0.1289  0.3412  1.1383
  876MOL0     H18243  -0.082  11.872   1.105 -0.6734 -0.2890  1.5641
  876MOL0     H18244   0.421  10.701   2.867  0.8784  0.9467 -2.7449
  876MOL0     H18245   0.615  10.596   2.968  3.5384  0.1951  2.7701
  876MOL0     H18246   0.971  10.852   3.199 -1.1256  0.3167 -3.9548
  876MOL0     H18247   1.164  10.867   3.352  2.8361  1.4024 -0.2845
  876MOL0     H18248   1.572  10.678   3.216 -0.4456 -1.6610  0.4803
  876MOL0     H18249   1.447  10.581   3.259 -0.1188 -1.1787 -0.1547
  876MOL0     H18250   1.667  10.643   3.410  0.1605 -2.2319 -1.4512
  876MOL0     H18251   1.541  10.540   3.449 -3.3334  0.3571  3.2308
  876MOL0     H18252   1.417  10.694   3.570  1.8048 -2.9509  1.0312
  876MOL0     H18253   1.495  10.841   3.508 -0.2255  0.3662  1.2718
  876MOL0     H18254   1.653  10.654   3.686  0.1243  0.6031 -0.8405
  876MOL0     H18255   1.693  10.814   3.626  0.5769 -0.9779  0.3462
  876MOL0     H18256   1.430  10.860   3.962  1.0104 -1.3965  0.5729
  876MOL0     H18257   1.404  10.666   3.060  1.0091 -0.6069  4.8842
  876MOL0     H18258   1.213  10.657   2.804  2.9626 -2.4341 -2.1034
  876MOL0     H18259   1.304  10.534   2.889 -1.7802 -1.7158 -3.7114
  876MOL0     H18260   1.129  10.521   2.883 -2.2449  1.9619  2.3964
  877MOL0     O18261   2.522   8.276   5.380  0.3503  0.2842  0.0958
  877MOL0     C18262   2.530   8.186   5.466 -0.2215 -0.2100  0.6026
  877MOL0     O18263   2.429   8.127   5.534 -1.2579 -0.5958 -0.2711
  877MOL0     C18264   2.297   8.157   5.503 -0.4936 -0.0565  0.0525
  877MOL0     C18265   2.248   8.290   5.526  0.5494 -0.1017 -0.6726
  877MOL0     C18266   2.115   8.324   5.511 -0.2601  0.6960  0.2732
  877MOL0     C18267   2.023   8.224   5.468  0.1934  0.3027 -0.7911
  877MOL0     O18268   1.898   8.254   5.432  0.0147  0.4376 -0.0533
  877MOL0     C18269   1.838   8.383   5.446  0.4112 -0.0758  0.4453
  877MOL0     C18270   1.690   8.370   5.404 -0.3492 -0.4269 -0.1143
  877MOL0     C18271   1.594   8.445   5.493 -0.7532  0.0816 -0.1060
  877MOL0     C18272   1.448   8.450   5.446 -0.6600 -0.0774 -0.4192
  877MOL0     C18273   1.360   8.459   5.569 -0.5746 -0.8272  0.4694
  877MOL0     C18274   1.225   8.430   5.526  1.1321 -0.3398  0.0332
  877MOL0     C18275   1.119   8.481   5.632 -0.0208 -0.2895 -0.5588
  877MOL0     C18276   1.105   8.630   5.640 -0.4306 -0.7843 -0.4002
  877MOL0     N18277   0.981   8.680   5.706  0.1155 -0.1292 -1.4079
  877MOL0     C18278   0.853   8.660   5.655 -0.1423  0.8850  0.6044
  877MOL0     C18279   0.765   8.669   5.761 -0.0689  0.4057 -0.0628
  877MOL0     C18280   0.617   8.646   5.743 -1.0348  0.5362 -0.8774
  877MOL0     C18281   0.536   8.679   5.875 -0.0807  0.0718 -0.1822
  877MOL0     C18282   0.389   8.649   5.839  0.0406 -0.1937 -0.6699
  877MOL0     C18283   0.313   8.662   5.975  0.8752  0.6749  1.1777
  877MOL0     O18284   0.354   8.561   6.061  0.5666  0.7419  0.6910
  877MOL0     C18285   0.292   8.562   6.178  1.0048 -0.6639  0.3656
  877MOL0     C18286   0.207   8.662   6.235 -0.7632  0.5500 -0.2104
  877MOL0     C18287   0.153   8.647   6.360 -0.0416 -0.6900  0.5080
  877MOL0     C18288   0.223   8.561   6.450 -0.4888 -0.9482  0.3643
  877MOL0     C18289   0.196   8.556   6.593 -0.0009 -1.1325  0.1006
  877MOL0     O18290   0.259   8.465   6.664  0.3141 -0.8093  0.9480
  877MOL0     C18291   0.217   8.463   6.794 -0.9211  0.2239  0.3886
  877MOL0     C18292   0.095   8.432   6.834  0.4623 -1.0544 -1.0094
  877MOL0     C18293   0.059   8.440   6.970  0.4362  0.8136  0.9309
  877MOL0     C18294   0.154   8.448   7.073  0.0426  0.0759  0.2462
  877MOL0     O18295   0.133   8.449   7.202  0.0384 -0.0420  0.0791
  877MOL0     C18296   0.051   8.548   7.261 -0.0284  0.9414 -0.1432
  877MOL0     C18297  -0.025   8.478   7.378 -0.3582 -0.2699  0.4115
  877MOL0     C18298  -0.020   8.562   7.505 -0.6397 -0.4871  0.0954
  877MOL0     C18299  -0.108   8.517   7.621 -0.4840  0.9450  0.0839
  877MOL0     C18300  -0.058   8.389   7.695 -1.0589 -0.3672  0.1192
  877MOL0     C18301  -0.167   8.300   7.756 -0.0463  0.2057 -0.3248
  877MOL0     C18302  -0.087   8.191   7.836  0.2970  0.5564 -0.3317
  877MOL0     C18303  -0.020   8.077   7.756  0.1580  0.2973  0.3463
  877MOL0    Cl18304  -0.147   7.979   7.684  0.1388  0.1900 -0.4903
  877MOL0     C18305   0.290   8.472   7.040  0.1389  0.2846  0.7931
  877MOL0     C18306   0.318   8.481   6.898  0.6127 -0.0230  0.6189
  877MOL0     O18307   0.104   8.637   6.638  0.3449  0.3697 -0.0488
  877MOL0     C18308   0.301   8.459   6.393 -0.0915 -0.3823 -0.0206
  877MOL0     C18309   0.323   8.458   6.258  0.6245  1.1069 -0.1370
  877MOL0     N18310   0.836   8.723   5.866 -0.2652 -0.0281 -0.9309
  877MOL0     N18311   0.959   8.735   5.831 -0.0912  0.6773 -0.0207
  877MOL0     C18312   2.073   8.092   5.443 -0.0248  0.1466  0.3651
  877MOL0     C18313   2.213   8.063   5.460 -0.8489 -0.3721 -0.0142
  877MOL0     C18314   2.655   8.123   5.488  0.3497 -0.2198  0.1334
  877MOL0     C18315   2.653   7.988   5.535  0.4621  0.1800 -0.4160
  877MOL0     C18316   2.772   7.923   5.556 -0.3411 -1.0773  0.1577
  877MOL0     C18317   2.899   7.979   5.514 -0.3072  0.0503 -0.3501
  877MOL0     O18318   3.023   7.922   5.515 -0.7622  0.5024 -0.1802
  877MOL0     C18319   3.041   7.787   5.561 -0.2153  0.5452 -0.4198
  877MOL0     C18320   3.137   7.704   5.475  0.2843 -0.0170 -0.5505
  877MOL0     C18321   3.068   7.629   5.358  0.1628  0.4292 -0.9530
  877MOL0     C18322   3.162   7.535   5.282 -0.6546 -0.4714  0.7131
  877MOL0     C18323   3.292   7.600   5.254 -0.5884  0.1434  0.1126
  877MOL0     C18324   3.403   7.648   5.259  1.0871 -0.8587 -0.0848
  877MOL0     C18325   2.890   8.106   5.468 -0.1715 -0.6479 -0.2052
  877MOL0     C18326   2.780   8.188   5.454  0.1617  0.5162  0.5210
  877MOL0     C18327   2.795   8.327   5.402  0.2557  0.3924  0.2113
  877MOL0     H18328   2.306   8.375   5.561 -2.5788  0.6913  3.2698
  877MOL0     H18329   2.074   8.424   5.519  0.0192  0.8414 -0.1136
  877MOL0     H18330   1.847   8.421   5.549 -0.6951 -0.1121  0.5657
  877MOL0     H18331   1.888   8.462   5.388 -0.9859  0.7127  0.2585
  877MOL0     H18332   1.656   8.267   5.411  1.1296 -0.8270  3.5826
  877MOL0     H18333   1.675   8.410   5.303 -0.0514  0.9273  0.3455
  877MOL0     H18334   1.635   8.546   5.501 -0.0217 -0.0542 -1.7546
  877MOL0     H18335   1.601   8.409   5.596  3.9056 -0.5934 -0.4669
  877MOL0     H18336   1.437   8.537   5.381 -3.8929  0.2076  0.3138
  877MOL0     H18337   1.427   8.353   5.400 -1.8703  0.7415 -1.6622
  877MOL0     H18338   1.378   8.382   5.644  0.3977  0.1511  1.2622
  877MOL0     H18339   1.365   8.558   5.615 -1.3551 -1.1318  1.2174
  877MOL0     H18340   1.200   8.493   5.440 -2.2817 -0.7587  0.6061
  877MOL0     H18341   1.214   8.326   5.496  2.2969 -0.2406 -0.8054
  877MOL0     H18342   1.112   8.442   5.734 -0.1668  2.2664  0.5119
  877MOL0     H18343   1.027   8.456   5.579 -0.9832 -2.5776  1.9777
  877MOL0     H18344   1.202   8.673   5.664  1.3704 -2.3775 -4.1183
  877MOL0     H18345   1.084   8.661   5.537 -2.0833 -0.3138  0.0368
  877MOL0     H18346   0.836   8.625   5.553 -2.2419  0.2331  1.1304
  877MOL0     H18347   0.590   8.710   5.659 -1.0570  2.1688  0.3206
  877MOL0     H18348   0.600   8.539   5.727  1.4035 -0.5116  2.3824
  877MOL0     H18349   0.573   8.611   5.953  0.9113  0.2430 -0.4867
  877MOL0     H18350   0.549   8.785   5.897 -2.7558  0.2979  0.6518
  877MOL0     H18351   0.386   8.554   5.785  1.9405  0.9763 -3.0273
  877MOL0     H18352   0.346   8.729   5.779  0.8651  1.8390  1.2974
  877MOL0     H18353   0.208   8.658   5.946  1.5724 -3.5317 -1.6283
  877MOL0     H18354   0.347   8.754   6.023  3.9237  0.8402 -1.0323
  877MOL0     H18355   0.153   8.738   6.180  1.7148  2.5712 -0.0575
  877MOL0     H18356   0.087   8.727   6.392 -0.8468 -0.6507 -1.1879
  877MOL0     H18357   0.013   8.417   6.764 -0.6347  3.3478 -0.9421
  877MOL0     H18358  -0.048   8.431   6.989 -0.2099 -0.0847 -2.4389
  877MOL0     H18359   0.112   8.632   7.294  0.3486  1.1347 -1.2605
  877MOL0     H18360  -0.019   8.579   7.183  0.5460 -2.6407 -2.3527
  877MOL0     H18361  -0.127   8.470   7.339 -0.1228 -0.8774 -0.1016
  877MOL0     H18362   0.027   8.384   7.396 -0.7448 -0.5518  0.0697
  877MOL0     H18363   0.085   8.564   7.534 -0.9742  1.6922  1.3989
  877MOL0     H18364  -0.055   8.662   7.477 -0.8822 -1.4138 -3.4028
  877MOL0     H18365  -0.210   8.499   7.587  0.0386 -0.2655 -0.9039
  877MOL0     H18366  -0.121   8.598   7.694  0.8317 -0.9553  2.5835
  877MOL0     H18367   0.007   8.444   7.763 -0.8773  0.0912 -0.4155
  877MOL0     H18368   0.012   8.337   7.628  0.4478  2.4582 -0.6730
  877MOL0     H18369  -0.224   8.369   7.818 -0.3772  1.1477 -1.6327
  877MOL0     H18370  -0.231   8.259   7.678 -0.0345  1.6327 -1.1293
  877MOL0     H18371  -0.153   8.135   7.902  2.6911 -2.3665 -0.1986
  877MOL0     H18372  -0.024   8.238   7.912  2.2564 -1.6474 -0.4806
  877MOL0     H18373   0.051   8.112   7.680 -1.8976 -2.6715 -3.2765
  877MOL0     H18374   0.042   8.017   7.823  0.3321 -0.0894 -0.1516
  877MOL0     H18375   0.369   8.464   7.114  0.6403  1.1374  0.3620
  877MOL0     H18376   0.415   8.483   6.850  0.0284  0.3487 -0.5756
  877MOL0     H18377   0.356   8.392   6.458 -0.5800  0.2961  1.1257
  877MOL0     H18378   0.398   8.382   6.236  3.0170  2.0626  3.6270
  877MOL0     H18379   2.020   8.005   5.405 -1.6007  0.7492  1.0565
  877MOL0     H18380   2.239   7.959   5.441  0.5752 -0.8973  3.7738
  877MOL0     H18381   2.569   7.923   5.558  1.0295 -0.3088  0.3076
  877MOL0     H18382   2.767   7.819   5.587 -2.5796 -0.5988  1.6336
  877MOL0     H18383   2.944   7.737   5.554  0.4457 -0.6807 -1.3580
  877MOL0     H18384   3.081   7.786   5.663  1.2151  0.3019 -0.9536
  877MOL0     H18385   3.191   7.640   5.546 -1.8552  1.9100  3.1718
  877MOL0     H18386   3.203   7.779   5.430  2.4009 -1.3909  0.1041
  877MOL0     H18387   3.023   7.703   5.290 -1.7206  0.7170  0.5369
  877MOL0     H18388   2.992   7.567   5.406 -1.5829  1.6463 -1.9999
  877MOL0     H18389   3.176   7.450   5.349 -2.7675 -0.6413  1.0002
  877MOL0     H18390   3.107   7.515   5.190 -0.3001  0.8925  0.1755
  877MOL0     H18391   3.502   7.689   5.248  1.4318 -1.8858 -0.9254
  877MOL0     H18392   2.984   8.143   5.428 -0.0788 -0.8962 -0.2227
  877MOL0     H18393   2.900   8.354   5.417  0.3814  0.2189 -0.3651
  877MOL0     H18394   2.756   8.348   5.302 -0.6540  1.9313  0.8349
  877MOL0     H18395   2.733   8.390   5.467  0.9188 -0.9185  2.2120
  878MOL0     O18396  11.163   6.159   6.482 -0.1528  0.6285 -0.1925
  878MOL0     C18397  11.086   6.256   6.490  0.7442  0.0043 -0.7871
  878MOL0     O18398  11.004   6.303   6.384  0.6963 -0.3095  0.2135
  878MOL0     C18399  11.021   6.244   6.258 -0.1234 -0.3385 -0.6301
  878MOL0     C18400  11.033   6.329   6.152  0.2384  0.0018  0.5396
  878MOL0     C18401  11.061   6.278   6.026 -0.4256  0.8248  0.0410
  878MOL0     C18402  11.071   6.141   5.995  0.6795 -0.1807  0.1300
  878MOL0     O18403  11.078   6.116   5.859  0.7187  0.0563 -0.4148
  878MOL0     C18404  11.109   5.986   5.811  0.0809  0.3894 -1.1019
  878MOL0     C18405  11.256   5.931   5.819  0.3724 -0.5395 -0.0298
  878MOL0     C18406  11.364   6.029   5.762 -0.0513  0.1940  0.3946
  878MOL0     C18407  11.468   6.061   5.870 -0.0061  0.6836 -0.0928
  878MOL0     C18408  11.604   6.106   5.809 -0.1403 -0.5787 -0.4141
  878MOL0     C18409  11.627   6.225   5.714  0.8702 -0.5968  0.3580
  878MOL0     C18410  11.573   6.359   5.775 -0.0365 -0.5754 -0.1501
  878MOL0     C18411  11.605   6.492   5.711  0.0492 -0.6486 -0.1321
  878MOL0     N18412  11.743   6.510   5.663  0.5766 -0.3284  0.6359
  878MOL0     C18413  11.851   6.573   5.730 -0.2549 -0.3714  0.1257
  878MOL0     C18414  11.938   6.602   5.625 -0.4428  0.9202 -0.3152
  878MOL0     C18415  12.067   6.678   5.607  0.5873  0.0663 -0.5978
  878MOL0     C18416  12.200   6.580   5.596  0.7872  0.4820  0.5639
  878MOL0     C18417  12.262   6.590   5.460  0.2211 -0.5402  0.4420
  878MOL0     C18418  12.382   6.500   5.436 -0.7262 -0.2631 -0.3598
  878MOL0     O18419  12.512   6.573   5.450 -0.9351  0.0882 -0.3440
  878MOL0     C18420  12.587   6.553   5.556 -0.3999  0.0187  0.0269
  878MOL0     C18421  12.605   6.648   5.657 -0.9021 -0.1262 -0.0564
  878MOL0     C18422  12.715   6.628   5.740 -0.2238 -0.1212  0.3657
  878MOL0     C18423  12.808   6.522   5.718  0.1372  1.0265  0.6407
  878MOL0     C18424  12.920   6.494   5.816 -1.2079  0.0414  0.2570
  878MOL0     O18425  12.902   6.553   5.936  0.4832 -0.3854 -1.0332
  878MOL0     C18426  13.011   6.539   6.024  0.4009 -0.5977  1.1263
  878MOL0     C18427  13.108   6.636   6.026 -0.7019 -0.3440  0.7691
  878MOL0     C18428  13.213   6.646   6.111 -0.8425 -0.2530 -0.1436
  878MOL0     C18429  13.231   6.544   6.208 -0.2655  0.4139  0.3647
  878MOL0     O18430  13.335   6.565   6.297  0.4844  0.0253  0.5455
  878MOL0     C18431  13.379   6.460   6.378  0.6498  0.3147 -0.2174
  878MOL0     C18432  13.501   6.496   6.459  0.2031 -0.3719 -0.4894
  878MOL0     C18433  13.623   6.539   6.387 -0.1198 -0.3908  0.7542
  878MOL0     C18434  13.612   6.646   6.284 -0.1765  0.2976  1.0007
  878MOL0     C18435  13.753   6.678   6.220 -0.2271  0.2348 -0.5841
  878MOL0     C18436  13.846   6.784   6.294  0.5343 -0.6103  0.1276
  878MOL0     C18437  13.971   6.810   6.213  0.2634 -0.4157 -0.1714
  878MOL0     C18438  14.075   6.848   6.317 -0.0627  0.5726 -0.1986
  878MOL0    Cl18439  14.041   7.013   6.377 -0.6466 -0.2482  0.3643
  878MOL0     C18440  13.138   6.438   6.207  0.1291 -0.7992  0.4531
  878MOL0     C18441  13.031   6.437   6.120 -0.5134  0.3577 -0.7901
  878MOL0     O18442  13.011   6.414   5.793  0.6562  0.4653 -0.8327
  878MOL0     C18443  12.783   6.428   5.623  0.1827 -0.1846 -0.0968
  878MOL0     C18444  12.673   6.447   5.541 -0.9722  0.1179 -0.2170
  878MOL0     N18445  11.890   6.545   5.508 -0.8521 -0.0548 -0.1087
  878MOL0     N18446  11.782   6.496   5.535  0.9010  0.8017  0.7131
  878MOL0     C18447  11.055   6.052   6.103  0.2859  0.4340 -0.5579
  878MOL0     C18448  11.028   6.103   6.232  0.4544 -0.5617 -0.9907
  878MOL0     C18449  11.077   6.341   6.615  0.7852 -0.0391 -0.8928
  878MOL0     C18450  11.000   6.459   6.618  0.2685  0.4694 -0.5733
  878MOL0     C18451  11.003   6.544   6.723  0.8763 -0.8660 -0.1358
  878MOL0     C18452  11.079   6.519   6.835  0.1078  0.4502  0.6062
  878MOL0     O18453  11.074   6.594   6.946 -0.6338  0.6865  0.5005
  878MOL0     C18454  11.055   6.737   6.928  0.3916  0.0350 -0.0232
  878MOL0     C18455  11.102   6.827   7.043 -0.0827  0.3413 -0.4633
  878MOL0     C18456  11.036   6.795   7.177  0.2777  1.0342  0.3103
  878MOL0     C18457  10.884   6.810   7.194  0.5721  0.0556  0.0978
  878MOL0     C18458  10.839   6.933   7.131 -0.1391  0.4484 -0.0153
  878MOL0     C18459  10.800   7.040   7.096  1.1011  0.2832  0.8263
  878MOL0     C18460  11.157   6.402   6.841 -0.5907  0.2545  0.1301
  878MOL0     C18461  11.164   6.317   6.731 -0.9438  0.2068 -0.6281
  878MOL0     C18462  11.257   6.204   6.741  0.6318 -0.7078  0.0520
  878MOL0     H18463  11.028   6.436   6.166  0.2767  0.2806 -1.3297
  878MOL0     H18464  11.071   6.353   5.947 -0.0639  0.0097 -0.7042
  878MOL0     H18465  11.054   5.923   5.883 -0.0276  0.4103 -1.1670
  878MOL0     H18466  11.062   5.974   5.713 -3.5224  0.6967  0.4434
  878MOL0     H18467  11.239   5.837   5.766 -0.2554  1.6020 -4.0216
  878MOL0     H18468  11.275   5.903   5.923  1.2579  1.9621  0.5364
  878MOL0     H18469  11.333   6.128   5.728  0.8251  0.1336 -0.6405
  878MOL0     H18470  11.423   5.978   5.685 -2.7668 -0.2496 -1.5290
  878MOL0     H18471  11.429   6.140   5.935 -2.1176 -2.1048  2.2814
  878MOL0     H18472  11.482   5.980   5.942 -0.0727 -0.8694 -1.7446
  878MOL0     H18473  11.673   6.137   5.888 -1.1092  4.5423 -1.1770
  878MOL0     H18474  11.646   6.015   5.767 -0.6486 -0.9895 -0.0422
  878MOL0     H18475  11.730   6.250   5.687  0.9437  0.3844  1.4487
  878MOL0     H18476  11.578   6.204   5.619  2.2716  0.1619 -0.5631
  878MOL0     H18477  11.610   6.355   5.878 -0.8897  0.0540  0.1930
  878MOL0     H18478  11.464   6.347   5.772  0.0878 -2.8419  1.7354
  878MOL0     H18479  11.544   6.510   5.623  0.5788  1.0342 -0.1839
  878MOL0     H18480  11.580   6.569   5.784  1.8755 -0.6843  0.5843
  878MOL0     H18481  11.856   6.610   5.832 -0.5320 -2.2537  0.8543
  878MOL0     H18482  12.062   6.754   5.528 -0.0292  0.3271 -0.3195
  878MOL0     H18483  12.074   6.736   5.700  0.0234 -1.3965  0.3794
  878MOL0     H18484  12.274   6.584   5.676  0.8648  0.0486  0.5139
  878MOL0     H18485  12.166   6.476   5.594  0.4136  0.6042  0.3641
  878MOL0     H18486  12.296   6.693   5.450 -1.6518  0.0570 -0.1578
  878MOL0     H18487  12.186   6.573   5.383 -0.6533 -1.4699  1.4652
  878MOL0     H18488  12.379   6.470   5.331  1.2895 -0.0258 -0.5354
  878MOL0     H18489  12.387   6.416   5.506 -0.1280  1.0610  1.2818
  878MOL0     H18490  12.542   6.736   5.663 -1.4440 -0.6103  1.8005
  878MOL0     H18491  12.749   6.695   5.817  2.7444 -1.2635  0.1883
  878MOL0     H18492  13.099   6.714   5.952  2.6218 -0.6497 -0.1372
  878MOL0     H18493  13.277   6.734   6.103 -1.1037  0.2496  2.4424
  878MOL0     H18494  13.300   6.430   6.448  1.9370  3.9425  3.2055
  878MOL0     H18495  13.400   6.369   6.322 -1.1312 -2.0593  2.6703
  878MOL0     H18496  13.483   6.586   6.519 -2.0336 -0.3796 -1.0405
  878MOL0     H18497  13.531   6.409   6.518 -1.5514 -0.7701 -0.1203
  878MOL0     H18498  13.691   6.564   6.469 -3.6216  2.9414  2.9935
  878MOL0     H18499  13.663   6.449   6.340  0.1368 -1.0216  2.1379
  878MOL0     H18500  13.564   6.738   6.319 -0.9981 -0.0515  0.8175
  878MOL0     H18501  13.548   6.608   6.204 -0.4593  3.9274 -0.7099
  878MOL0     H18502  13.736   6.716   6.119 -0.7403 -0.5131 -0.7836
  878MOL0     H18503  13.800   6.579   6.211 -2.7712 -0.8718 -3.3722
  878MOL0     H18504  13.795   6.881   6.299  1.3038 -0.2613  1.9881
  878MOL0     H18505  13.872   6.742   6.391 -1.0727 -0.4891  0.6334
  878MOL0     H18506  13.960   6.896   6.145 -2.8958 -0.7292 -0.2093
  878MOL0     H18507  14.001   6.725   6.151 -2.3668 -1.7663  0.2785
  878MOL0     H18508  14.091   6.775   6.397 -1.4446  1.6400  1.1020
  878MOL0     H18509  14.163   6.834   6.253 -0.9991  0.8038 -1.5653
  878MOL0     H18510  13.140   6.360   6.283 -0.1089 -1.3317 -0.0737
  878MOL0     H18511  12.966   6.353   6.139  1.4856 -0.9901  0.4634
  878MOL0     H18512  12.842   6.337   5.619 -1.4459 -1.5574  3.5235
  878MOL0     H18513  12.657   6.374   5.462  1.4654 -0.6257 -0.1028
  878MOL0     H18514  11.074   5.947   6.082  1.1223  0.6991 -1.1513
  878MOL0     H18515  11.002   6.038   6.315 -0.8255 -2.4892 -2.7802
  878MOL0     H18516  10.927   6.487   6.542 -1.7828 -2.6699  0.0658
  878MOL0     H18517  10.950   6.638   6.710 -1.4775 -1.9762  0.8176
  878MOL0     H18518  10.959   6.773   6.890  2.6734  2.4684 -4.2326
  878MOL0     H18519  11.126   6.749   6.846 -0.4074  1.3269 -0.5543
  878MOL0     H18520  11.080   6.932   7.024 -2.4426  0.4444  2.1748
  878MOL0     H18521  11.208   6.814   7.064  0.6717  2.6953 -2.4853
  878MOL0     H18522  11.087   6.866   7.243  0.2918  1.8030 -0.5098
  878MOL0     H18523  11.058   6.691   7.205  0.8736  0.3351 -2.4465
  878MOL0     H18524  10.830   6.724   7.153 -0.0332 -0.5781  2.1496
  878MOL0     H18525  10.848   6.812   7.297 -0.4062  0.8665 -0.2370
  878MOL0     H18526  10.762   7.130   7.051 -1.6172 -2.0147 -1.9167
  878MOL0     H18527  11.217   6.396   6.931 -0.0200  4.9019  0.2774
  878MOL0     H18528  11.282   6.186   6.846 -3.2101  2.4195  1.7664
  878MOL0     H18529  11.206   6.114   6.707 -1.7429  0.3317  0.6629
  878MOL0     H18530  11.344   6.224   6.678  0.7135 -2.7383 -0.5638
  879MOL0     O18531   8.916   1.887   0.817  0.3266  0.0178  0.4741
  879MOL0     C18532   9.026   1.913   0.778 -1.0471 -0.4265  0.7112
  879MOL0     O18533   9.090   2.041   0.809 -0.0022 -0.6097  0.3654
  879MOL0     C18534   9.042   2.104   0.926 -0.9494 -0.2695 -0.0731
  879MOL0     C18535   8.943   2.201   0.917 -0.7187  0.4218 -0.5009
  879MOL0     C18536   8.902   2.274   1.030  0.0156  0.6360  0.7594
  879MOL0     C18537   8.970   2.266   1.154  0.4350  0.4963 -0.6487
  879MOL0     O18538   8.930   2.340   1.263 -0.2250  0.3785 -0.0243
  879MOL0     C18539   9.026   2.403   1.338  0.3523  0.1298 -1.6475
  879MOL0     C18540   8.955   2.478   1.458  0.3004  0.0321  0.3529
  879MOL0     C18541   8.907   2.384   1.561 -0.1539  0.4951  0.4658
  879MOL0     C18542   8.823   2.468   1.653 -0.5812 -0.0625 -0.6204
  879MOL0     C18543   8.731   2.394   1.749  0.4556  0.0075  0.1570
  879MOL0     C18544   8.675   2.482   1.865 -0.0874  0.7774  0.4103
  879MOL0     C18545   8.770   2.586   1.910 -0.3358 -0.9104  0.9449
  879MOL0     C18546   8.706   2.649   2.033  0.9377  0.2702 -0.6088
  879MOL0     N18547   8.807   2.702   2.130  0.4414  1.1974 -0.5535
  879MOL0     C18548   8.890   2.622   2.214  0.1583 -0.4639  1.4693
  879MOL0     C18549   8.973   2.712   2.270 -0.2404 -0.1294 -0.1757
  879MOL0     C18550   9.094   2.677   2.352 -0.0413  0.8115 -0.3472
  879MOL0     C18551   9.227   2.720   2.303 -0.1858 -0.4855 -0.3552
  879MOL0     C18552   9.250   2.692   2.156 -0.1769 -0.1757  0.1951
  879MOL0     C18553   9.406   2.704   2.116 -1.1803  0.5980  0.6100
  879MOL0     O18554   9.481   2.627   2.200  0.1746  0.3048  0.3284
  879MOL0     C18555   9.617   2.630   2.195 -0.0435 -0.2657  0.3723
  879MOL0     C18556   9.683   2.680   2.084  0.7974  0.0004 -0.6335
  879MOL0     C18557   9.828   2.683   2.085 -0.3354  0.1649  0.1974
  879MOL0     C18558   9.889   2.623   2.197 -0.6145  0.5074  0.1648
  879MOL0     C18559  10.035   2.628   2.189  0.1069  0.8736 -0.6419
  879MOL0     O18560  10.100   2.586   2.303  0.5047 -0.3406  0.0589
  879MOL0     C18561  10.242   2.586   2.329  0.0678  0.2136  0.0155
  879MOL0     C18562  10.336   2.674   2.268 -0.3026 -0.1050 -0.3366
  879MOL0     C18563  10.468   2.668   2.304 -0.1487 -0.6044  0.1565
  879MOL0     C18564  10.516   2.582   2.405 -0.1808  0.1861 -1.1965
  879MOL0     O18565  10.645   2.565   2.450  0.3497 -0.4096 -0.0251
  879MOL0     C18566  10.739   2.673   2.432 -0.5165  0.2001  0.2780
  879MOL0     C18567  10.823   2.647   2.313 -0.0753 -0.6222  0.1716
  879MOL0     C18568  10.894   2.785   2.291 -0.1706 -0.0393 -0.0974
  879MOL0     C18569  10.947   2.788   2.147 -0.1281 -0.2315 -0.0665
  879MOL0     C18570  11.039   2.912   2.124  0.5919  0.0991  0.9652
  879MOL0     C18571  10.975   2.991   2.006 -0.3251  0.8387  0.4445
  879MOL0     C18572  11.018   3.133   1.988 -0.0782 -0.2592  0.3497
  879MOL0     C18573  10.931   3.202   1.882  0.0024 -0.7643 -0.4523
  879MOL0    Cl18574  10.806   3.281   1.971  0.2458  0.0701  0.4932
  879MOL0     C18575  10.432   2.477   2.450  0.6007  0.4386  0.3676
  879MOL0     C18576  10.293   2.481   2.410 -0.9291  0.6040  0.1223
  879MOL0     O18577  10.094   2.667   2.091  0.8279  0.5909 -0.4967
  879MOL0     C18578   9.819   2.580   2.313 -0.8397 -0.3006  0.4218
  879MOL0     C18579   9.683   2.586   2.307  0.5236  0.9907 -1.4753
  879MOL0     N18580   8.921   2.839   2.234 -0.1213 -0.1071 -0.0681
  879MOL0     N18581   8.835   2.839   2.140  0.5835  0.6891  0.7884
  879MOL0     C18582   9.069   2.170   1.164 -1.4173 -1.5414  0.4655
  879MOL0     C18583   9.107   2.096   1.048  0.3288  0.1778  0.1594
  879MOL0     C18584   9.120   1.805   0.739  0.4971 -0.1747  0.1446
  879MOL0     C18585   9.091   1.671   0.785  0.2168 -0.0478  0.4488
  879MOL0     C18586   9.176   1.561   0.755 -0.7776 -0.3086 -0.6254
  879MOL0     C18587   9.301   1.586   0.696 -0.1974 -0.0508  1.2029
  879MOL0     O18588   9.386   1.486   0.653  0.6182 -0.6801  0.4454
  879MOL0     C18589   9.316   1.393   0.562 -0.0119 -0.5019  0.1964
  879MOL0     C18590   9.406   1.355   0.448 -0.0415  0.0915  0.2623
  879MOL0     C18591   9.538   1.288   0.472  0.4796  0.6207 -0.0108
  879MOL0     C18592   9.512   1.155   0.531  1.0393 -0.5393 -0.1389
  879MOL0     C18593   9.636   1.081   0.549 -0.8670 -0.8269 -0.4241
  879MOL0     C18594   9.746   1.035   0.568  0.2324  0.1688 -0.5020
  879MOL0     C18595   9.323   1.720   0.652 -0.4640  0.2409 -0.1178
  879MOL0     C18596   9.237   1.828   0.668  0.1011 -0.0357 -0.3270
  879MOL0     C18597   9.247   1.962   0.596 -1.5108  0.7089 -0.6668
  879MOL0     H18598   8.892   2.216   0.822  0.4395  0.9250 -1.0639
  879MOL0     H18599   8.819   2.343   1.024 -1.3536 -1.0532 -3.2597
  879MOL0     H18600   9.090   2.325   1.381 -0.0926  0.5151 -0.2316
  879MOL0     H18601   9.098   2.468   1.286  1.9087  2.6618  3.0852
  879MOL0     H18602   8.870   2.534   1.418 -0.0457 -0.3322  0.5725
  879MOL0     H18603   9.031   2.543   1.503 -1.4874  3.7281 -1.5333
  879MOL0     H18604   8.992   2.343   1.616 -1.0112 -1.0861  0.6860
  879MOL0     H18605   8.847   2.309   1.510  0.4010  0.9252 -0.8544
  879MOL0     H18606   8.896   2.535   1.699  1.4946 -2.2245 -0.5409
  879MOL0     H18607   8.754   2.513   1.582 -0.1729  2.0788  0.2507
  879MOL0     H18608   8.655   2.350   1.684  1.0762  0.4428 -0.8930
  879MOL0     H18609   8.781   2.317   1.810 -1.1893 -0.1392  1.3936
  879MOL0     H18610   8.580   2.524   1.831 -0.5886  1.6514  2.7240
  879MOL0     H18611   8.648   2.412   1.944 -4.5668 -1.2620 -2.5328
  879MOL0     H18612   8.780   2.669   1.839 -0.5762 -3.1458 -1.8852
  879MOL0     H18613   8.861   2.526   1.921  0.1335 -0.1185  1.4372
  879MOL0     H18614   8.637   2.725   1.997  2.9396  0.2273 -5.2526
  879MOL0     H18615   8.655   2.573   2.093 -1.8873 -0.3459 -3.5235
  879MOL0     H18616   8.888   2.514   2.205 -1.6111 -0.4933  1.9360
  879MOL0     H18617   9.083   2.713   2.455  2.4068 -1.1743  0.7155
  879MOL0     H18618   9.097   2.568   2.363  1.8858  1.0235  2.1137
  879MOL0     H18619   9.230   2.827   2.324 -0.1153 -0.2414 -1.5320
  879MOL0     H18620   9.306   2.671   2.360  0.6434 -0.9598 -1.8608
  879MOL0     H18621   9.198   2.758   2.086  3.4965  0.7847 -1.8404
  879MOL0     H18622   9.214   2.592   2.133  0.1701 -0.7341  1.8888
  879MOL0     H18623   9.432   2.809   2.128 -3.2167  0.9602  2.9439
  879MOL0     H18624   9.429   2.675   2.013  1.6404 -1.1313  1.6299
  879MOL0     H18625   9.629   2.715   1.997 -0.8684 -0.6220  0.1158
  879MOL0     H18626   9.882   2.723   2.000 -1.4584  1.8360  0.2072
  879MOL0     H18627  10.311   2.736   2.183 -0.6882  0.6852  0.3389
  879MOL0     H18628  10.541   2.734   2.259 -0.6475  1.5461  2.2799
  879MOL0     H18629  10.689   2.770   2.428 -0.9045 -0.0488 -1.8604
  879MOL0     H18630  10.809   2.686   2.516  1.3956  1.8976 -1.4597
  879MOL0     H18631  10.892   2.564   2.331 -1.2734 -1.4327  1.2375
  879MOL0     H18632  10.755   2.626   2.230  0.5908  0.3890 -0.6588
  879MOL0     H18633  10.833   2.872   2.316 -1.8267 -0.9900 -0.6228
  879MOL0     H18634  10.972   2.800   2.365  0.3339  2.5439 -1.0467
  879MOL0     H18635  10.850   2.789   2.097 -0.9924  0.3243  1.5683
  879MOL0     H18636  10.998   2.693   2.127  1.0466  0.6945 -1.6785
  879MOL0     H18637  11.138   2.873   2.097  0.0198 -2.6471  2.4901
  879MOL0     H18638  11.046   2.978   2.211  0.6219  1.1477  0.1922
  879MOL0     H18639  10.995   2.935   1.914  0.2019 -0.4811  1.3274
  879MOL0     H18640  10.866   2.990   2.017 -0.2455  1.5712  1.4362
  879MOL0     H18641  11.119   3.122   1.948  0.3024  1.0979  0.8862
  879MOL0     H18642  11.011   3.191   2.081  3.1584  0.2216  0.3988
  879MOL0     H18643  10.987   3.284   1.835  1.1839  0.2523  2.5337
  879MOL0     H18644  10.883   3.138   1.807 -2.4096  1.9015 -1.3686
  879MOL0     H18645  10.476   2.410   2.524  1.9300  1.5725  0.6402
  879MOL0     H18646  10.228   2.405   2.451 -1.9018  1.7160  0.7028
  879MOL0     H18647   9.855   2.520   2.395 -0.0947 -1.7075 -0.8884
  879MOL0     H18648   9.628   2.539   2.389 -2.9797  3.4178 -2.2203
  879MOL0     H18649   9.134   2.155   1.250  1.8875 -2.8595 -2.0232
  879MOL0     H18650   9.204   2.048   1.045 -0.8413 -2.5774  2.1923
  879MOL0     H18651   8.999   1.638   0.832  0.5818 -1.6052  0.1138
  879MOL0     H18652   9.135   1.465   0.786  0.2389 -0.8179 -0.8310
  879MOL0     H18653   9.227   1.445   0.526 -1.0547 -1.9055  0.6716
  879MOL0     H18654   9.270   1.311   0.618  1.0533 -2.2450 -1.3739
  879MOL0     H18655   9.431   1.447   0.394 -1.5546 -0.9168 -2.3430
  879MOL0     H18656   9.348   1.303   0.372 -0.7284  0.9629  0.1784
  879MOL0     H18657   9.587   1.352   0.546  4.3547 -0.1289 -1.6565
  879MOL0     H18658   9.584   1.286   0.372 -1.5512 -0.3252 -0.9783
  879MOL0     H18659   9.471   1.176   0.630 -1.6140 -0.8732 -1.0826
  879MOL0     H18660   9.445   1.101   0.465  0.7346  1.2327 -1.3476
  879MOL0     H18661   9.842   0.994   0.593 -0.2041  0.3003  1.5249
  879MOL0     H18662   9.412   1.724   0.590  0.3559 -0.8069  0.9237
  879MOL0     H18663   9.323   1.957   0.517 -1.7693 -0.3482 -0.8704
  879MOL0     H18664   9.157   1.998   0.546 -0.7260  2.0905 -1.1419
  879MOL0     H18665   9.273   2.029   0.677 -1.6151  0.2240 -0.2274
  880MOL0     O18666   5.353   8.065   7.840 -0.1272 -0.6996  0.3756
  880MOL0     C18667   5.300   7.978   7.907 -0.8193  0.2868  0.0009
  880MOL0     O18668   5.201   7.903   7.864 -0.0371 -0.3260  0.6572
  880MOL0     C18669   5.139   7.935   7.744  0.4016  0.0511 -0.2651
  880MOL0     C18670   4.999   7.945   7.762 -1.3710 -0.4422 -0.2162
  880MOL0     C18671   4.913   7.962   7.654 -1.0029 -0.0735  0.6153
  880MOL0     C18672   4.966   7.976   7.527  1.2518  0.1955 -0.4919
  880MOL0     O18673   4.872   7.994   7.421 -0.1892 -0.0399  0.9271
  880MOL0     C18674   4.922   8.030   7.288 -0.3727  0.4457 -0.2296
  880MOL0     C18675   4.818   8.087   7.198 -0.1379  0.2779  0.1023
  880MOL0     C18676   4.700   7.987   7.176  0.3436  0.2108  0.0831
  880MOL0     C18677   4.594   8.056   7.081 -0.4760 -0.1526  0.5072
  880MOL0     C18678   4.445   8.023   7.113 -0.2493  0.6111  0.5837
  880MOL0     C18679   4.410   8.086   7.243 -0.6388 -0.5052  0.7970
  880MOL0     C18680   4.267   8.107   7.273 -0.0605 -0.3032 -0.1039
  880MOL0     C18681   4.232   8.151   7.415 -0.0909  1.0541  0.6782
  880MOL0     N18682   4.223   8.033   7.510 -0.1320  0.2134  0.4008
  880MOL0     C18683   4.111   7.950   7.537  0.3145 -0.3615 -0.2064
  880MOL0     C18684   4.149   7.875   7.638 -0.5795  0.3207 -0.0678
  880MOL0     C18685   4.060   7.782   7.711  0.0137  0.1791  0.0558
  880MOL0     C18686   4.032   7.661   7.626  0.5737  0.1057  0.5926
  880MOL0     C18687   3.970   7.551   7.712 -0.0058  0.0606  1.0141
  880MOL0     C18688   3.977   7.407   7.652 -0.3534 -0.9866  0.1406
  880MOL0     O18689   4.119   7.353   7.653  0.1872  0.3401 -0.1010
  880MOL0     C18690   4.174   7.250   7.574  0.6198  0.3201 -0.2601
  880MOL0     C18691   4.310   7.243   7.566 -0.1956  0.2935  0.1472
  880MOL0     C18692   4.373   7.149   7.475  0.4591 -0.2006  0.5595
  880MOL0     C18693   4.295   7.069   7.388 -0.1086  0.4228  0.1470
  880MOL0     C18694   4.348   6.969   7.292  0.0189 -0.2836  0.5343
  880MOL0     O18695   4.259   6.918   7.206  0.9995 -0.2066  0.0209
  880MOL0     C18696   4.291   6.809   7.127 -0.0577 -0.1335 -0.1847
  880MOL0     C18697   4.405   6.728   7.117  0.4915 -0.0502 -0.2045
  880MOL0     C18698   4.434   6.635   7.020 -1.0040 -0.1420  0.6309
  880MOL0     C18699   4.333   6.616   6.924  0.1529 -0.8525 -0.3488
  880MOL0     O18700   4.359   6.538   6.816  0.1535 -0.1903  0.0422
  880MOL0     C18701   4.354   6.619   6.694 -0.4550  0.0811 -0.1534
  880MOL0     C18702   4.475   6.715   6.676 -0.3300 -0.0131  0.4268
  880MOL0     C18703   4.611   6.659   6.701  0.4517 -0.1558  0.2630
  880MOL0     C18704   4.659   6.562   6.600  0.1197  0.0308 -0.2223
  880MOL0     C18705   4.801   6.509   6.654  0.8122  0.7769 -0.2214
  880MOL0     C18706   4.796   6.400   6.761  0.8780 -0.0082 -0.3365
  880MOL0     C18707   4.730   6.262   6.723  0.1771 -1.3780  0.9224
  880MOL0     C18708   4.830   6.150   6.751  0.0726 -0.5060 -0.4495
  880MOL0    Cl18709   4.758   5.987   6.708  0.2340  0.0782 -0.1993
  880MOL0     C18710   4.210   6.679   6.936  0.2391 -0.5563 -0.3269
  880MOL0     C18711   4.190   6.781   7.039 -0.0851  0.3715 -0.3484
  880MOL0     O18712   4.458   6.927   7.324 -0.3115  0.4488 -0.0034
  880MOL0     C18713   4.154   7.078   7.401 -0.6315 -0.4423 -0.2477
  880MOL0     C18714   4.096   7.166   7.493  0.0743 -0.0840 -0.5079
  880MOL0     N18715   4.283   7.903   7.674 -0.1523  0.1217 -1.0102
  880MOL0     N18716   4.318   7.998   7.597 -0.9529 -0.2041 -0.0774
  880MOL0     C18717   5.109   7.971   7.510 -0.7623 -0.6671  0.9827
  880MOL0     C18718   5.189   7.936   7.615  0.1314  0.8733 -0.2268
  880MOL0     C18719   5.357   7.973   8.055  0.6347  0.2883 -0.2311
  880MOL0     C18720   5.450   8.068   8.095 -0.7679  0.2093  0.1494
  880MOL0     C18721   5.506   8.050   8.222 -1.3303  1.1189  0.0809
  880MOL0     C18722   5.473   7.948   8.317  0.0101 -1.5611  0.1810
  880MOL0     O18723   5.549   7.943   8.429  0.4803  0.3619  0.3509
  880MOL0     C18724   5.544   7.829   8.513 -0.1700  0.3486 -0.5846
  880MOL0     C18725   5.617   7.703   8.451  0.4401 -0.5932 -0.5701
  880MOL0     C18726   5.638   7.600   8.557  0.3238 -0.4319  0.7067
  880MOL0     C18727   5.691   7.465   8.497  0.0439  0.9158 -0.0319
  880MOL0     C18728   5.582   7.379   8.429 -0.2147  0.0572  0.3669
  880MOL0     C18729   5.480   7.329   8.393  0.0457 -0.7880  0.2866
  880MOL0     C18730   5.372   7.867   8.273  0.5245  0.1999 -0.3509
  880MOL0     C18731   5.329   7.868   8.143  0.0284 -0.7691 -0.1767
  880MOL0     C18732   5.249   7.742   8.113 -0.5639  0.5447  0.0265
  880MOL0     H18733   4.960   7.944   7.864 -0.4116  3.2439  0.3438
  880MOL0     H18734   4.808   7.947   7.676 -0.8468 -2.1036  0.1614
  880MOL0     H18735   5.003   8.103   7.295 -0.4753  0.4672  0.9820
  880MOL0     H18736   4.962   7.937   7.247 -2.9012 -2.1353  2.6052
  880MOL0     H18737   4.864   8.097   7.099  4.2682  2.2031  2.0693
  880MOL0     H18738   4.785   8.182   7.241  2.1551  0.4483  1.6752
  880MOL0     H18739   4.647   7.963   7.268  0.4660  3.7104  1.2020
  880MOL0     H18740   4.732   7.892   7.133 -1.7642 -1.1860  1.4309
  880MOL0     H18741   4.600   8.165   7.093  3.0499 -0.2747  0.6743
  880MOL0     H18742   4.619   8.034   6.977  3.6856  4.6346  0.1526
  880MOL0     H18743   4.378   8.046   7.030 -0.3961 -2.3904 -0.2556
  880MOL0     H18744   4.436   7.915   7.129  2.8175  0.1280 -0.2538
  880MOL0     H18745   4.446   8.025   7.326  1.4850 -2.8542 -1.6535
  880MOL0     H18746   4.458   8.184   7.258  1.4000 -1.6809  2.5886
  880MOL0     H18747   4.213   8.017   7.241  0.2203 -1.1451  1.6296
  880MOL0     H18748   4.223   8.176   7.201 -3.0855 -0.4382  1.4179
  880MOL0     H18749   4.307   8.219   7.457  1.9783 -0.8375  0.2387
  880MOL0     H18750   4.135   8.202   7.419 -1.0313 -0.7064  1.7634
  880MOL0     H18751   4.008   7.964   7.507  0.2132 -2.0352 -0.7052
  880MOL0     H18752   4.107   7.744   7.802  0.9434 -0.1613 -0.5475
  880MOL0     H18753   3.964   7.820   7.747 -0.1650  0.8302 -1.0585
  880MOL0     H18754   3.984   7.679   7.529  0.5595 -1.9580  0.1596
  880MOL0     H18755   4.133   7.628   7.602  0.2409  1.3681 -3.2677
  880MOL0     H18756   3.861   7.559   7.712  0.1018  3.1467  2.8425
  880MOL0     H18757   4.012   7.550   7.813 -2.0053  0.3974  1.8938
  880MOL0     H18758   3.939   7.421   7.550 -2.5120  1.3676  1.1418
  880MOL0     H18759   3.915   7.335   7.706 -0.8824 -1.2421 -0.7939
  880MOL0     H18760   4.378   7.308   7.621  0.5408  2.2557 -2.7741
  880MOL0     H18761   4.479   7.132   7.457  0.0530  0.2128 -3.2472
  880MOL0     H18762   4.488   6.766   7.175  1.6259  2.5197 -3.2156
  880MOL0     H18763   4.530   6.585   7.021 -0.4894  0.8135 -0.0920
  880MOL0     H18764   4.352   6.560   6.602  0.7964  0.5641 -0.5142
  880MOL0     H18765   4.265   6.682   6.694  0.2874  1.1575 -1.1825
  880MOL0     H18766   4.464   6.758   6.576 -0.6487  0.1232  0.5180
  880MOL0     H18767   4.458   6.801   6.742 -0.3033 -0.6263  1.2595
  880MOL0     H18768   4.670   6.751   6.693 -0.9281  0.6138 -2.6365
  880MOL0     H18769   4.624   6.626   6.804 -0.0626  0.9189  0.6926
  880MOL0     H18770   4.669   6.605   6.499 -1.7407  0.3046 -0.3121
  880MOL0     H18771   4.587   6.481   6.588  0.4777 -0.6188  1.7058
  880MOL0     H18772   4.857   6.594   6.693  1.5454 -0.0062  0.4784
  880MOL0     H18773   4.865   6.464   6.578 -0.3717 -1.7292  0.1460
  880MOL0     H18774   4.901   6.388   6.791  0.5505 -0.2951  0.7739
  880MOL0     H18775   4.731   6.443   6.838 -4.3432 -1.4947 -3.4330
  880MOL0     H18776   4.700   6.260   6.618 -3.6155  1.4014  1.7714
  880MOL0     H18777   4.640   6.265   6.784  1.1018 -0.4587  2.3098
  880MOL0     H18778   4.927   6.158   6.701 -0.0088 -2.2310 -0.9318
  880MOL0     H18779   4.847   6.162   6.859 -2.5438 -1.6563  0.1746
  880MOL0     H18780   4.125   6.658   6.871 -1.1617  2.6788  0.2805
  880MOL0     H18781   4.087   6.814   7.035 -0.3859 -0.5489 -0.4121
  880MOL0     H18782   4.088   7.019   7.337  1.7631 -1.2449 -2.1319
  880MOL0     H18783   3.988   7.174   7.504 -0.1815 -1.3555 -1.7672
  880MOL0     H18784   5.155   7.995   7.415 -0.8256 -0.7295  0.9360
  880MOL0     H18785   5.293   7.925   7.588  0.6185  0.4916  1.6210
  880MOL0     H18786   5.475   8.154   8.033 -3.0450  1.2501  0.5782
  880MOL0     H18787   5.588   8.121   8.225  1.7319 -2.0145 -1.8732
  880MOL0     H18788   5.439   7.808   8.537 -0.2686 -0.3587 -1.5913
  880MOL0     H18789   5.601   7.864   8.600 -0.8367  1.7256 -0.6678
  880MOL0     H18790   5.709   7.735   8.402 -0.7713  2.1281 -1.2581
  880MOL0     H18791   5.548   7.659   8.378  0.6355  0.3636 -1.3510
  880MOL0     H18792   5.542   7.579   8.605 -0.5702  0.0829 -0.7893
  880MOL0     H18793   5.714   7.628   8.631  2.1597 -2.7748 -0.2001
  880MOL0     H18794   5.756   7.498   8.415 -0.8684  2.1002 -0.2993
  880MOL0     H18795   5.750   7.410   8.572 -0.9464  0.0832  0.1571
  880MOL0     H18796   5.380   7.292   8.381 -0.8188  1.4246  0.2599
  880MOL0     H18797   5.341   7.782   8.333 -0.8871  1.3313  0.5975
  880MOL0     H18798   5.302   7.656   8.156 -1.2999  0.0702  0.0117
  880MOL0     H18799   5.153   7.754   8.164  0.2259  1.4956  1.3223
  880MOL0     H18800   5.227   7.719   8.008 -2.6282  0.8186  0.3609
  881MOL0     O18801   1.056   8.084   2.835  1.1203  0.0847  0.3912
  881MOL0     C18802   0.999   8.166   2.904  1.0070 -1.1870  0.6247
  881MOL0     O18803   0.893   8.148   2.987 -0.6558 -0.5599 -0.0398
  881MOL0     C18804   0.807   8.041   2.974 -0.3452 -0.2317 -0.6417
  881MOL0     C18805   0.805   7.936   2.874  0.1975 -0.9084  1.3593
  881MOL0     C18806   0.714   7.833   2.874  0.6403  0.2985 -0.2702
  881MOL0     C18807   0.610   7.838   2.976  0.0300  1.5068  0.1781
  881MOL0     O18808   0.514   7.742   2.972  0.1723 -0.3365 -0.7153
  881MOL0     C18809   0.433   7.714   3.089 -0.0320 -0.7958  0.5352
  881MOL0     C18810   0.361   7.578   3.080  0.6526  0.9365 -0.2542
  881MOL0     C18811   0.461   7.461   3.081 -0.0852 -0.1550  0.0317
  881MOL0     C18812   0.396   7.325   3.103 -0.7219  0.0118 -0.1232
  881MOL0     C18813   0.493   7.201   3.107  0.9280  0.5422  0.3700
  881MOL0     C18814   0.415   7.072   3.115  0.4830 -0.1985  0.0511
  881MOL0     C18815   0.512   6.956   3.082 -0.0537 -0.2548 -0.7061
  881MOL0     C18816   0.446   6.821   3.089  0.1594 -0.2089 -0.5555
  881MOL0     N18817   0.444   6.755   3.224 -0.7019 -0.0915  0.1575
  881MOL0     C18818   0.568   6.699   3.274  0.2156  0.9639  0.6568
  881MOL0     C18819   0.554   6.691   3.404 -0.7151 -0.6842  0.2378
  881MOL0     C18820   0.662   6.696   3.498 -0.3402  0.1336  0.2053
  881MOL0     C18821   0.670   6.554   3.561 -0.0356  0.2527 -0.0661
  881MOL0     C18822   0.800   6.542   3.631 -0.3266 -0.6745 -0.1926
  881MOL0     C18823   0.912   6.522   3.533 -0.1557  0.1488  0.9821
  881MOL0     O18824   0.886   6.432   3.423 -0.5195 -0.0159 -0.4430
  881MOL0     C18825   0.858   6.303   3.447  0.1297 -0.5044 -0.3632
  881MOL0     C18826   0.894   6.228   3.563  0.2724  0.6732  0.4334
  881MOL0     C18827   0.876   6.093   3.559 -0.0550  0.1318  0.2980
  881MOL0     C18828   0.813   6.026   3.459 -0.1181  1.2142  0.9498
  881MOL0     C18829   0.782   5.881   3.487 -0.6545 -0.0531 -0.0391
  881MOL0     O18830   0.791   5.839   3.611 -0.2295  0.3750 -0.2336
  881MOL0     C18831   0.754   5.710   3.654 -0.2476 -0.6696 -0.5791
  881MOL0     C18832   0.677   5.685   3.768  1.4159  0.1071 -0.2058
  881MOL0     C18833   0.627   5.561   3.809  0.4792 -0.9101  0.1208
  881MOL0     C18834   0.687   5.445   3.748  0.0253  1.0317  0.7437
  881MOL0     O18835   0.654   5.316   3.773  0.4085 -0.1816 -0.3552
  881MOL0     C18836   0.571   5.288   3.882 -0.1911  0.4734 -0.1858
  881MOL0     C18837   0.508   5.146   3.891 -0.1558 -0.1176 -0.0392
  881MOL0     C18838   0.609   5.030   3.906 -0.3490 -0.3099  0.5084
  881MOL0     C18839   0.522   4.912   3.891 -0.5692 -0.6122 -0.1673
  881MOL0     C18840   0.597   4.776   3.892  0.3022 -0.0895  0.9848
  881MOL0     C18841   0.508   4.654   3.881 -0.0822 -0.4478 -0.1204
  881MOL0     C18842   0.450   4.615   4.018 -0.1866  0.8261 -0.1151
  881MOL0     C18843   0.350   4.497   4.007 -0.9545 -0.0483  1.1014
  881MOL0    Cl18844   0.204   4.542   3.918 -0.1887  0.6240 -0.1974
  881MOL0     C18845   0.766   5.464   3.632 -0.0765 -0.4240  0.2098
  881MOL0     C18846   0.799   5.596   3.581 -0.2147 -0.1707 -0.9755
  881MOL0     O18847   0.748   5.819   3.392  0.1161  0.4340  0.4894
  881MOL0     C18848   0.772   6.095   3.340  0.0864  0.2185 -0.6715
  881MOL0     C18849   0.788   6.231   3.347 -0.4490  0.5751 -0.4947
  881MOL0     N18850   0.422   6.719   3.441 -0.6112  0.5203 -0.0243
  881MOL0     N18851   0.359   6.766   3.327  0.0233  0.0959  0.2214
  881MOL0     C18852   0.592   7.948   3.051  0.5569 -0.9428 -0.6013
  881MOL0     C18853   0.691   8.044   3.058  0.6880  0.5040  0.0682
  881MOL0     C18854   1.067   8.297   2.906  0.3944  0.0458 -0.4843
  881MOL0     C18855   1.079   8.368   3.027 -0.1572  0.1844  0.3271
  881MOL0     C18856   1.159   8.489   3.053  0.4829  0.2768  1.1411
  881MOL0     C18857   1.202   8.553   2.934  0.0975  0.2653  0.1383
  881MOL0     O18858   1.265   8.676   2.963  0.3930 -0.4674  0.0834
  881MOL0     C18859   1.254   8.777   2.862  0.1573  0.1805 -0.2434
  881MOL0     C18860   1.386   8.804   2.792  0.0097  0.1121 -0.0887
  881MOL0     C18861   1.507   8.804   2.877 -0.4049 -0.3162 -0.6429
  881MOL0     C18862   1.644   8.826   2.804 -0.4709 -0.4917 -0.1261
  881MOL0     C18863   1.661   8.944   2.715 -0.3069  0.6473 -0.3980
  881MOL0     C18864   1.692   9.034   2.647  0.3755 -0.6873  0.3908
  881MOL0     C18865   1.190   8.493   2.805 -0.4438 -0.5576 -1.0794
  881MOL0     C18866   1.131   8.362   2.793  0.0929 -0.5754  0.0282
  881MOL0     C18867   1.135   8.306   2.652 -0.3712 -0.0272 -0.9709
  881MOL0     H18868   0.880   7.944   2.796 -1.2518  0.3286  0.0385
  881MOL0     H18869   0.714   7.753   2.801  0.6884  1.2719 -1.3677
  881MOL0     H18870   0.492   7.718   3.181 -0.0912  0.0739  0.5443
  881MOL0     H18871   0.362   7.798   3.089  0.9148  0.0258  0.7838
  881MOL0     H18872   0.312   7.572   2.982  2.5938  0.7038 -1.2472
  881MOL0     H18873   0.279   7.563   3.152  0.4738 -1.5340 -0.8745
  881MOL0     H18874   0.534   7.468   3.162  0.1062 -3.7411  0.3441
  881MOL0     H18875   0.512   7.447   2.986 -0.2418  2.6747 -0.5439
  881MOL0     H18876   0.339   7.334   3.197 -0.5020 -3.7238  0.4865
  881MOL0     H18877   0.322   7.317   3.023 -3.5495  2.8821  1.9309
  881MOL0     H18878   0.555   7.206   3.017  2.4489  1.6532  1.4348
  881MOL0     H18879   0.571   7.202   3.184  0.0107 -2.1997  1.4771
  881MOL0     H18880   0.365   7.073   3.212 -0.9331 -0.1947 -0.6497
  881MOL0     H18881   0.339   7.075   3.036  2.6286  0.9251 -2.0960
  881MOL0     H18882   0.595   6.959   3.154 -0.6987 -0.2466  0.0556
  881MOL0     H18883   0.550   6.972   2.981 -0.7313  1.9648 -0.6437
  881MOL0     H18884   0.343   6.831   3.053 -0.4205 -1.9914  0.4959
  881MOL0     H18885   0.495   6.754   3.016  1.4471  1.3771 -1.2017
  881MOL0     H18886   0.656   6.680   3.214 -0.0797  0.4838  0.3775
  881MOL0     H18887   0.756   6.728   3.451  0.1025 -3.0707 -1.3410
  881MOL0     H18888   0.636   6.773   3.572  0.2485  0.1429  0.4110
  881MOL0     H18889   0.588   6.542   3.631 -0.3931 -1.1464 -0.6994
  881MOL0     H18890   0.661   6.479   3.482  1.9572  0.9386 -1.0339
  881MOL0     H18891   0.781   6.458   3.697  0.0804 -1.5715 -1.1802
  881MOL0     H18892   0.811   6.630   3.695 -0.3690  0.3822 -1.5887
  881MOL0     H18893   1.000   6.512   3.598 -2.5707  1.1951  4.7675
  881MOL0     H18894   0.920   6.619   3.483 -1.5508  0.5580  1.4839
  881MOL0     H18895   0.936   6.284   3.646 -0.2414  0.8385  0.5907
  881MOL0     H18896   0.910   6.039   3.646 -1.8011 -1.2658  0.1766
  881MOL0     H18897   0.650   5.768   3.833 -0.4344  1.1827 -2.2114
  881MOL0     H18898   0.549   5.549   3.884  0.7231  0.3882  0.6072
  881MOL0     H18899   0.626   5.292   3.976  1.2243 -0.8141 -0.9295
  881MOL0     H18900   0.479   5.347   3.871 -0.2054  0.7322  1.1124
  881MOL0     H18901   0.445   5.155   3.980 -1.2207  1.1220 -0.8813
  881MOL0     H18902   0.435   5.132   3.811 -3.1420  1.1096  2.2580
  881MOL0     H18903   0.685   5.036   3.828  1.0468 -5.3732  1.1709
  881MOL0     H18904   0.659   5.033   4.003  2.1738  1.6898 -0.7531
  881MOL0     H18905   0.464   4.922   3.799  1.5100  3.6943 -1.2405
  881MOL0     H18906   0.457   4.922   3.979  0.8362  0.4453  0.8034
  881MOL0     H18907   0.652   4.769   3.985  1.3344 -0.0299  0.3886
  881MOL0     H18908   0.681   4.780   3.822  2.5396  0.4730  3.5426
  881MOL0     H18909   0.425   4.664   3.810  0.0989  0.8931 -0.1742
  881MOL0     H18910   0.575   4.576   3.844  2.9243  1.9759 -0.2645
  881MOL0     H18911   0.408   4.701   4.071 -2.4382 -0.0353 -0.3682
  881MOL0     H18912   0.534   4.582   4.079  0.2159  0.0974 -1.0404
  881MOL0     H18913   0.399   4.406   3.971  0.1735 -0.9512  4.5288
  881MOL0     H18914   0.326   4.485   4.113 -1.2259 -1.2994  0.9099
  881MOL0     H18915   0.797   5.384   3.565  1.9208  2.9421 -3.3487
  881MOL0     H18916   0.865   5.607   3.496  0.5211 -1.2828 -0.5748
  881MOL0     H18917   0.726   6.055   3.251 -1.2225  1.2083 -0.4694
  881MOL0     H18918   0.747   6.281   3.259 -0.1319 -5.9675 -5.0289
  881MOL0     H18919   0.506   7.961   3.116  1.1835  0.6034 -0.0255
  881MOL0     H18920   0.689   8.116   3.140 -0.7576 -1.8433  2.2314
  881MOL0     H18921   1.034   8.337   3.121  5.1267 -2.3002  2.3869
  881MOL0     H18922   1.188   8.532   3.148  2.0123 -0.1924  0.9167
  881MOL0     H18923   1.231   8.866   2.922  0.7579 -0.3798  0.8384
  881MOL0     H18924   1.173   8.755   2.792 -2.9060  1.4897  2.5860
  881MOL0     H18925   1.368   8.903   2.749 -0.3516  0.9798  1.9579
  881MOL0     H18926   1.395   8.729   2.713 -1.1356  1.4983 -1.6036
  881MOL0     H18927   1.499   8.707   2.927  0.4262 -0.1697 -0.2168
  881MOL0     H18928   1.504   8.879   2.956  3.0022 -0.4742 -0.2111
  881MOL0     H18929   1.725   8.840   2.877 -0.2615  2.8005 -0.8011
  881MOL0     H18930   1.656   8.733   2.748 -0.8732  0.0233 -1.0856
  881MOL0     H18931   1.722   9.105   2.573  0.1400  2.1980  2.8643
  881MOL0     H18932   1.227   8.535   2.712  2.0075  1.3788  0.6161
  881MOL0     H18933   1.197   8.364   2.583  0.1892 -1.3062 -1.5594
  881MOL0     H18934   1.172   8.204   2.663 -1.4582 -0.4255 -0.8961
  881MOL0     H18935   1.035   8.298   2.610 -0.9750  0.5755  0.2758
  882MOL0     O18936   7.839   3.183   1.181 -0.2247  0.5771 -0.5427
  882MOL0     C18937   7.866   3.259   1.270  0.5432 -0.6404 -0.5261
  882MOL0     O18938   7.827   3.238   1.400  0.2377 -0.6030  0.2067
  882MOL0     C18939   7.717   3.159   1.416  1.1096  0.1024 -0.2378
  882MOL0     C18940   7.593   3.204   1.358  0.9889  0.1392  0.8915
  882MOL0     C18941   7.474   3.129   1.392 -1.1730  0.1886  0.8950
  882MOL0     C18942   7.481   3.017   1.476  0.0062 -0.6503  0.0712
  882MOL0     O18943   7.361   2.942   1.495 -1.1032 -0.6599  0.2591
  882MOL0     C18944   7.363   2.802   1.528  0.5052 -0.1240  0.0441
  882MOL0     C18945   7.334   2.777   1.676 -0.2099  0.3089  0.1563
  882MOL0     C18946   7.224   2.864   1.735 -0.1689  0.1948 -0.0250
  882MOL0     C18947   7.131   2.772   1.813  0.0432  0.5778  0.3205
  882MOL0     C18948   7.031   2.866   1.877  0.7951 -0.9463 -0.8567
  882MOL0     C18949   6.941   2.799   1.991 -0.2526  1.5384  0.2128
  882MOL0     C18950   6.863   2.899   2.059 -0.0351 -0.3266 -0.1394
  882MOL0     C18951   6.779   2.827   2.165  1.1103  0.0150  0.0619
  882MOL0     N18952   6.636   2.808   2.130 -1.1210  0.0720  0.0279
  882MOL0     C18953   6.535   2.841   2.211  0.1322  0.1380  0.2674
  882MOL0     C18954   6.426   2.804   2.137  0.1332 -0.5809 -0.5198
  882MOL0     C18955   6.286   2.808   2.176  0.1344 -0.0671 -0.2569
  882MOL0     C18956   6.251   2.966   2.178  0.2554  0.4119  0.4074
  882MOL0     C18957   6.284   3.032   2.038  0.6056  0.1515 -0.5870
  882MOL0     C18958   6.229   3.175   2.021  0.0739 -0.3590  0.3304
  882MOL0     O18959   6.237   3.219   1.876 -0.5664  0.4243 -0.1689
  882MOL0     C18960   6.179   3.335   1.840  0.1151  0.7830 -0.3287
  882MOL0     C18961   6.118   3.416   1.932  0.0726  0.8183 -0.7494
  882MOL0     C18962   6.062   3.531   1.885 -1.0179  0.2599  0.0872
  882MOL0     C18963   6.062   3.569   1.748  0.2500  0.5517  0.3577
  882MOL0     C18964   5.975   3.682   1.690  0.1417 -0.3781 -0.2891
  882MOL0     O18965   5.944   3.688   1.559 -0.3613  0.4307 -0.2472
  882MOL0     C18966   5.859   3.783   1.513 -0.3445  0.1152  0.6281
  882MOL0     C18967   5.886   3.923   1.511 -1.4418  0.3141 -0.6384
  882MOL0     C18968   5.783   4.015   1.490 -0.0634 -0.0324 -0.3648
  882MOL0     C18969   5.648   3.980   1.461 -0.5107 -1.0936  0.6396
  882MOL0     O18970   5.544   4.067   1.442  0.0224  0.0262  0.1173
  882MOL0     C18971   5.549   4.201   1.474  0.0426 -0.6580 -0.8014
  882MOL0     C18972   5.486   4.235   1.605  1.3422 -0.6685 -0.4624
  882MOL0     C18973   5.476   4.392   1.631  0.1540 -0.4369 -1.0962
  882MOL0     C18974   5.609   4.440   1.713 -0.6957  0.9475 -0.1264
  882MOL0     C18975   5.623   4.581   1.739 -0.6556 -0.1066 -0.6072
  882MOL0     C18976   5.596   4.668   1.620 -0.5480 -0.3589  0.5780
  882MOL0     C18977   5.623   4.822   1.643  0.1357  0.8074  0.3065
  882MOL0     C18978   5.623   4.908   1.517 -0.9413 -0.2479  0.0538
  882MOL0    Cl18979   5.782   4.872   1.442 -0.5988 -0.4674 -0.4867
  882MOL0     C18980   5.626   3.847   1.462 -0.2840 -0.0860  1.0226
  882MOL0     C18981   5.725   3.751   1.483 -0.1329 -0.2143  0.6421
  882MOL0     O18982   5.927   3.761   1.775  0.4746 -0.3145  0.4828
  882MOL0     C18983   6.128   3.486   1.662  0.5479  0.1424  0.2290
  882MOL0     C18984   6.188   3.366   1.706  0.4062 -0.7719 -0.3637
  882MOL0     N18985   6.463   2.766   2.012 -0.1002 -0.4379  0.0582
  882MOL0     N18986   6.597   2.782   2.003  0.3365  0.4177 -0.1235
  882MOL0     C18987   7.607   2.974   1.528  0.4479  0.2141  0.0488
  882MOL0     C18988   7.722   3.055   1.507  0.6951 -0.1361 -0.3588
  882MOL0     C18989   7.972   3.362   1.247  0.5328 -0.1349  0.1166
  882MOL0     C18990   8.096   3.322   1.189 -0.1181 -0.4873 -0.9041
  882MOL0     C18991   8.200   3.415   1.182 -0.1052  0.0734  0.2429
  882MOL0     C18992   8.171   3.552   1.205  0.2374  0.1147  0.4077
  882MOL0     O18993   8.264   3.652   1.188 -0.7240  0.0288  0.1066
  882MOL0     C18994   8.283   3.756   1.289 -0.6554  0.5600 -1.3987
  882MOL0     C18995   8.403   3.741   1.390  0.2047  0.0675 -0.2340
  882MOL0     C18996   8.389   3.611   1.468 -1.0143 -0.3754  0.8338
  882MOL0     C18997   8.494   3.501   1.423  0.1401 -0.9038  0.1916
  882MOL0     C18998   8.454   3.361   1.454 -0.9955  0.7923  0.0178
  882MOL0     C18999   8.421   3.251   1.490  0.5612  0.3430 -0.1309
  882MOL0     C19000   8.040   3.586   1.250 -0.5493 -0.5345 -0.1193
  882MOL0     C19001   7.942   3.495   1.278  0.3334  0.7225 -0.1840
  882MOL0     C19002   7.804   3.549   1.319 -0.0118 -0.6931 -0.0891
  882MOL0     H19003   7.569   3.292   1.299  1.1267 -0.1008  0.4698
  882MOL0     H19004   7.375   3.154   1.357  0.5976  1.5298 -4.0944
  882MOL0     H19005   7.276   2.769   1.472  0.6299 -0.5739  0.1105
  882MOL0     H19006   7.451   2.745   1.496  0.5759 -0.2090  0.3861
  882MOL0     H19007   7.427   2.789   1.732 -0.2143  2.6136 -0.2334
  882MOL0     H19008   7.316   2.669   1.686  1.1190  0.0281 -0.2274
  882MOL0     H19009   7.168   2.909   1.652  3.6884  3.2442 -1.2804
  882MOL0     H19010   7.277   2.938   1.796  1.6190 -0.4352 -0.7352
  882MOL0     H19011   7.096   2.699   1.739  3.4783  0.1196 -1.0863
  882MOL0     H19012   7.185   2.717   1.891  1.0530  4.2076  2.4059
  882MOL0     H19013   7.084   2.951   1.921  2.1871 -2.6958  0.9970
  882MOL0     H19014   6.976   2.899   1.788  0.0910  1.4466  0.3801
  882MOL0     H19015   6.878   2.722   1.945 -0.3896  0.8115  1.5587
  882MOL0     H19016   7.001   2.751   2.069  2.0607  1.4270 -1.5335
  882MOL0     H19017   6.802   2.947   1.983  0.9682 -0.2603 -0.9167
  882MOL0     H19018   6.916   2.984   2.103 -2.9886  0.6342  1.8736
  882MOL0     H19019   6.822   2.729   2.185  1.4114  0.6042  2.7159
  882MOL0     H19020   6.776   2.882   2.260 -0.7432 -0.8651  0.5751
  882MOL0     H19021   6.540   2.880   2.312  0.6152  0.1113  0.2516
  882MOL0     H19022   6.229   2.759   2.097 -1.2065  1.2989 -0.1665
  882MOL0     H19023   6.260   2.760   2.271 -1.8849 -1.2250 -1.3353
  882MOL0     H19024   6.144   2.974   2.199 -0.3929  3.4005 -3.0433
  882MOL0     H19025   6.306   3.019   2.257  3.0682 -1.7706  0.0956
  882MOL0     H19026   6.220   2.986   1.962  1.6959  0.6421 -1.8494
  882MOL0     H19027   6.391   3.029   2.017  1.1281  0.3211  1.8191
  882MOL0     H19028   6.286   3.251   2.075 -1.0400  0.4622  0.3770
  882MOL0     H19029   6.126   3.171   2.059 -0.2019 -1.1475 -0.4715
  882MOL0     H19030   6.122   3.404   2.040 -0.4841  0.7813 -0.7297
  882MOL0     H19031   6.026   3.590   1.969  0.2507 -1.5735  2.0393
  882MOL0     H19032   5.986   3.955   1.538 -0.5817 -0.6930 -2.4286
  882MOL0     H19033   5.803   4.122   1.489 -2.3219  0.6148  3.5434
  882MOL0     H19034   5.647   4.247   1.458 -2.1547  3.4446 -4.6198
  882MOL0     H19035   5.477   4.245   1.405 -2.5719 -0.6469  1.7550
  882MOL0     H19036   5.393   4.177   1.609  3.4003 -4.3756 -1.4440
  882MOL0     H19037   5.551   4.197   1.685 -0.4534 -1.1080  0.8754
  882MOL0     H19038   5.474   4.444   1.534  0.8034 -2.5228 -2.2986
  882MOL0     H19039   5.387   4.417   1.689  0.8746 -1.9229  0.7600
  882MOL0     H19040   5.698   4.418   1.653  0.3340  2.0058  0.9601
  882MOL0     H19041   5.622   4.381   1.804 -1.6085  2.3280  0.9373
  882MOL0     H19042   5.726   4.607   1.764 -0.7881 -0.1183 -0.0305
  882MOL0     H19043   5.553   4.598   1.821 -1.5220 -3.8674 -0.3902
  882MOL0     H19044   5.664   4.637   1.540  2.4184  4.8881  0.5577
  882MOL0     H19045   5.493   4.655   1.587 -1.3395  0.4873  2.5748
  882MOL0     H19046   5.712   4.844   1.703  0.4726  0.4223 -0.0442
  882MOL0     H19047   5.537   4.858   1.700  1.6372  2.9642  1.3462
  882MOL0     H19048   5.532   4.895   1.457  0.3297  0.1692 -2.0462
  882MOL0     H19049   5.624   5.015   1.542  0.1259 -0.7743  2.6272
  882MOL0     H19050   5.522   3.814   1.458 -0.1165 -1.0142  2.8397
  882MOL0     H19051   5.698   3.646   1.485 -0.5052 -0.2021 -1.2683
  882MOL0     H19052   6.132   3.506   1.556 -2.1875  2.5701  0.4628
  882MOL0     H19053   6.234   3.298   1.635  0.1260 -0.7828 -0.5331
  882MOL0     H19054   7.603   2.884   1.589 -2.5990  0.8674  1.0199
  882MOL0     H19055   7.813   3.032   1.560 -1.3502 -4.0057  2.0225
  882MOL0     H19056   8.116   3.217   1.173  0.5212 -0.4685 -0.3135
  882MOL0     H19057   8.297   3.386   1.145 -0.9267  0.4291 -2.3929
  882MOL0     H19058   8.196   3.779   1.351  0.9878  2.8733  0.2039
  882MOL0     H19059   8.299   3.849   1.234  1.4323  0.5023 -0.9769
  882MOL0     H19060   8.391   3.812   1.472  0.9664 -2.4756  2.1988
  882MOL0     H19061   8.502   3.754   1.344  0.7017  0.0384  0.8026
  882MOL0     H19062   8.282   3.586   1.469 -1.2774  0.3569 -1.6225
  882MOL0     H19063   8.425   3.617   1.571 -0.9759 -3.3773  1.0885
  882MOL0     H19064   8.502   3.508   1.314  2.8206 -1.9828  0.2216
  882MOL0     H19065   8.594   3.520   1.463  0.0531 -0.6842  0.3087
  882MOL0     H19066   8.403   3.154   1.533  0.8312  0.3958  0.1071
  882MOL0     H19067   8.018   3.691   1.271  0.5239 -0.1085 -1.0262
  882MOL0     H19068   7.807   3.658   1.304 -2.1552 -0.6205 -0.3630
  882MOL0     H19069   7.737   3.521   1.237  1.1941  0.9137 -1.7029
  882MOL0     H19070   7.777   3.514   1.419  2.9800 -4.2260 -0.3147
  883MOL0     O19071  11.428   8.078   8.833 -1.1308 -0.0157  0.0680
  883MOL0     C19072  11.323   8.105   8.881 -0.0100  0.4989 -0.8300
  883MOL0     O19073  11.296   8.140   9.008 -0.3810 -0.0575  0.3325
  883MOL0     C19074  11.385   8.133   9.108 -0.6185 -0.2651 -0.1848
  883MOL0     C19075  11.374   8.238   9.203  0.2479  0.0804  0.8181
  883MOL0     C19076  11.462   8.248   9.315 -0.1481 -0.9296 -0.8098
  883MOL0     C19077  11.564   8.152   9.333 -0.2150  0.7697  0.3972
  883MOL0     O19078  11.642   8.173   9.450 -0.4741  0.5830 -0.5017
  883MOL0     C19079  11.761   8.092   9.453  0.2237  0.3494  0.2136
  883MOL0     C19080  11.828   8.116   9.587  0.0673  0.0150 -0.0784
  883MOL0     C19081  11.910   8.245   9.577 -0.3167  0.1596 -0.0309
  883MOL0     C19082  12.018   8.247   9.690  0.3902 -0.2820 -0.1835
  883MOL0     C19083  12.092   8.382   9.691 -1.0150  0.0417  0.3606
  883MOL0     C19084  12.220   8.369   9.767 -0.0283 -0.1437 -0.1967
  883MOL0     C19085  12.266   8.510   9.803  0.5933 -0.7553  0.8033
  883MOL0     C19086  12.404   8.500   9.862 -1.1772 -0.5594 -0.2445
  883MOL0     N19087  12.484   8.626   9.882  0.3820 -0.0353  0.0822
  883MOL0     C19088  12.511   8.719   9.785  1.2477 -0.2695 -0.1835
  883MOL0     C19089  12.605   8.799   9.835  0.2030 -0.1501  0.0480
  883MOL0     C19090  12.682   8.898   9.757  0.7100  0.3027  0.1197
  883MOL0     C19091  12.607   9.034   9.755 -0.5662  0.3452  0.0104
  883MOL0     C19092  12.673   9.133   9.650 -0.6171 -0.4053 -0.2814
  883MOL0     C19093  12.800   9.195   9.715  0.1602 -0.1082 -0.3791
  883MOL0     O19094  12.881   9.266   9.625 -0.0301 -0.1718 -0.1822
  883MOL0     C19095  12.857   9.400   9.599 -1.3033  0.3899  0.8017
  883MOL0     C19096  12.914   9.492   9.695  0.8470  0.6524  0.7991
  883MOL0     C19097  12.908   9.627   9.660  0.1720  1.0308 -0.7038
  883MOL0     C19098  12.845   9.675   9.541  0.2298 -0.7553 -0.9348
  883MOL0     C19099  12.853   9.815   9.501 -0.7886  0.2062  0.1119
  883MOL0     O19100  12.737   9.870   9.446 -0.1370  0.0919 -0.2685
  883MOL0     C19101  12.727   9.986   9.377 -0.5257 -0.3563  0.4206
  883MOL0     C19102  12.606  10.040   9.383 -0.4881 -0.1588  0.3621
  883MOL0     C19103  12.578  10.156   9.314  0.2909 -0.8028  0.0303
  883MOL0     C19104  12.675  10.226   9.247 -0.2986 -0.6697  0.1740
  883MOL0     O19105  12.636  10.348   9.195 -0.4240  0.3052  1.1078
  883MOL0     C19106  12.722  10.457   9.199 -0.4941  0.3049 -0.1992
  883MOL0     C19107  12.659  10.587   9.155 -0.0314  0.1974 -0.2408
  883MOL0     C19108  12.607  10.569   9.009  0.4907  0.6253 -0.6386
  883MOL0     C19109  12.549  10.689   8.943  0.2519  0.0465 -0.2039
  883MOL0     C19110  12.430  10.643   8.856 -0.1495  0.6476  0.5068
  883MOL0     C19111  12.365  10.750   8.764 -0.4963  0.6822 -0.7450
  883MOL0     C19112  12.266  10.828   8.841 -1.0281  0.4129  0.0023
  883MOL0     C19113  12.208  10.953   8.767 -0.6163  0.6278  0.1015
  883MOL0    Cl19114  12.341  11.048   8.694 -0.0197 -0.5356 -0.3647
  883MOL0     C19115  12.808  10.175   9.236 -0.2207  0.2204 -0.8222
  883MOL0     C19116  12.833  10.047   9.297  0.2759  0.1442  0.8713
  883MOL0     O19117  12.960   9.882   9.508 -0.5036  0.4683 -0.7194
  883MOL0     C19118  12.788   9.578   9.456 -0.9929 -0.3891  0.1931
  883MOL0     C19119  12.786   9.443   9.487 -0.5471  1.0210 -1.1965
  883MOL0     N19120  12.644   8.742   9.958 -0.3998 -0.0665 -0.0219
  883MOL0     N19121  12.562   8.654   9.989 -0.4552  0.1235 -0.7419
  883MOL0     C19122  11.574   8.048   9.239  0.1863  0.5473 -0.0347
  883MOL0     C19123  11.491   8.038   9.123 -1.0435 -1.1083 -0.2984
  883MOL0     C19124  11.198   8.102   8.797 -0.2061  0.4172  0.3008
  883MOL0     C19125  11.131   7.977   8.765 -0.3338 -0.9232 -0.5823
  883MOL0     C19126  11.027   7.979   8.677  0.5935  1.3972  0.0288
  883MOL0     C19127  10.965   8.099   8.628  0.2746  0.0957 -0.5860
  883MOL0     O19128  10.862   8.091   8.543 -0.2161  0.2105 -0.2260
  883MOL0     C19129  10.806   8.213   8.482 -0.7854  0.5261 -0.4668
  883MOL0     C19130  10.685   8.177   8.390  0.2452 -0.2566 -0.3808
  883MOL0     C19131  10.566   8.281   8.410 -0.1187  0.3778 -0.7757
  883MOL0     C19132  10.469   8.246   8.523 -0.5534 -0.2166  0.0620
  883MOL0     C19133  10.334   8.290   8.511 -0.1567 -0.8178 -0.7313
  883MOL0     C19134  10.233   8.349   8.500 -0.8752  0.8214 -0.1063
  883MOL0     C19135  11.034   8.223   8.659  0.9600 -0.2812 -0.7594
  883MOL0     C19136  11.150   8.217   8.736 -0.5627 -0.2902 -0.4235
  883MOL0     C19137  11.230   8.342   8.765 -0.0973  0.0092 -0.5645
  883MOL0     H19138  11.310   8.323   9.184  0.9719  0.4368 -0.1089
  883MOL0     H19139  11.445   8.344   9.362  0.6971  0.1930 -2.7131
  883MOL0     H19140  11.733   7.987   9.464  0.3504  0.3794  0.8785
  883MOL0     H19141  11.826   8.105   9.366  0.4384  2.3850  0.6247
  883MOL0     H19142  11.899   8.034   9.604 -1.4440 -1.4085 -0.3464
  883MOL0     H19143  11.757   8.135   9.667 -1.7627  2.8055 -2.1801
  883MOL0     H19144  11.853   8.338   9.589  1.5287  1.1785  1.6470
  883MOL0     H19145  11.953   8.247   9.477 -0.8254  2.3880 -0.2583
  883MOL0     H19146  11.980   8.228   9.791  1.5682 -0.9950  0.1465
  883MOL0     H19147  12.087   8.168   9.658 -0.9595 -0.8571 -1.8302
  883MOL0     H19148  12.115   8.407   9.587  0.5102  2.2390  1.1541
  883MOL0     H19149  12.028   8.456   9.740 -0.8969  0.2779  0.1590
  883MOL0     H19150  12.203   8.321   9.864  0.2870  0.8307  0.3503
  883MOL0     H19151  12.302   8.324   9.711  0.8840  2.8532 -1.4827
  883MOL0     H19152  12.196   8.555   9.874  1.1898  0.1879  0.8085
  883MOL0     H19153  12.273   8.568   9.711  1.7149  1.1064  1.9933
  883MOL0     H19154  12.411   8.443   9.955  4.1371  0.4556  0.2968
  883MOL0     H19155  12.470   8.448   9.791 -0.8685  0.8824 -1.0574
  883MOL0     H19156  12.467   8.717   9.686 -0.8225  0.4163  0.6670
  883MOL0     H19157  12.784   8.908   9.794  2.0719  1.2042 -3.4313
  883MOL0     H19158  12.699   8.876   9.651 -0.8136  1.3873 -0.4000
  883MOL0     H19159  12.502   9.015   9.729 -0.8384  1.6399  0.1068
  883MOL0     H19160  12.613   9.073   9.857 -1.4528 -0.2116  0.2880
  883MOL0     H19161  12.608   9.217   9.623 -0.7282 -0.7507 -1.1021
  883MOL0     H19162  12.689   9.087   9.552  3.0845 -0.0464  0.0051
  883MOL0     H19163  12.856   9.108   9.750 -0.1753  0.0396  0.5517
  883MOL0     H19164  12.764   9.242   9.808 -4.0829  1.5456 -2.5599
  883MOL0     H19165  12.970   9.460   9.782 -3.6067 -1.8282  3.1352
  883MOL0     H19166  12.961   9.686   9.734  0.1463  0.5834 -0.3189
  883MOL0     H19167  12.529   9.993   9.444 -3.8609  3.1228 -1.0032
  883MOL0     H19168  12.477  10.193   9.333  1.8394  2.4351  3.1598
  883MOL0     H19169  12.760  10.475   9.300 -1.4824  1.7429 -0.0479
  883MOL0     H19170  12.801  10.431   9.128 -1.7529 -1.0308 -1.1466
  883MOL0     H19171  12.588  10.622   9.230  1.8130  2.6428  0.4939
  883MOL0     H19172  12.733  10.667   9.146 -0.8261  0.7100 -2.7982
  883MOL0     H19173  12.690  10.533   8.948 -0.4796  0.1277 -1.7062
  883MOL0     H19174  12.530  10.491   9.019  0.5963  0.1899 -2.7108
  883MOL0     H19175  12.622  10.755   8.894  1.3113 -0.5063  0.5968
  883MOL0     H19176  12.494  10.745   9.019 -4.1191 -1.6359 -1.7988
  883MOL0     H19177  12.355  10.605   8.926  3.5090 -1.2285  3.7733
  883MOL0     H19178  12.455  10.555   8.796 -0.7857  0.9476 -0.2171
  883MOL0     H19179  12.435  10.818   8.716  0.1148  0.6088  0.0243
  883MOL0     H19180  12.313  10.695   8.685 -3.0131 -1.4420  2.1362
  883MOL0     H19181  12.323  10.876   8.920 -0.8636  0.1181  0.0643
  883MOL0     H19182  12.179  10.779   8.884 -2.5053  0.5298 -2.5977
  883MOL0     H19183  12.146  10.923   8.682  2.4254  1.4350 -2.5950
  883MOL0     H19184  12.140  11.007   8.834 -0.3748 -0.4365  1.2387
  883MOL0     H19185  12.888  10.227   9.184  0.8522  2.2388  2.5134
  883MOL0     H19186  12.921   9.984   9.282 -0.3638 -0.9504  1.5707
  883MOL0     H19187  12.731   9.609   9.370 -3.4695 -0.5056  1.7152
  883MOL0     H19188  12.742   9.367   9.424  0.4422 -0.0941 -0.5710
  883MOL0     H19189  11.651   7.973   9.251  0.5490  0.1822 -3.4654
  883MOL0     H19190  11.506   7.958   9.051  0.2354 -3.5109  2.4655
  883MOL0     H19191  11.150   7.886   8.821  0.7745 -0.0071  0.5724
  883MOL0     H19192  10.970   7.889   8.654 -2.5962  3.5828 -1.3624
  883MOL0     H19193  10.887   8.258   8.423  1.0310 -0.1960  1.3435
  883MOL0     H19194  10.781   8.295   8.550 -0.8050 -1.2575  1.7610
  883MOL0     H19195  10.649   8.078   8.421  0.1647  0.1991  1.0563
  883MOL0     H19196  10.714   8.172   8.285  2.6739 -0.2566  0.2235
  883MOL0     H19197  10.505   8.288   8.320 -0.8323  0.2418 -0.3063
  883MOL0     H19198  10.614   8.377   8.431  3.6607 -1.6929  1.2678
  883MOL0     H19199  10.459   8.138   8.541  2.7300 -1.3378 -3.4307
  883MOL0     H19200  10.499   8.286   8.621  0.9736 -1.6371  0.2278
  883MOL0     H19201  10.142   8.401   8.476 -0.3472  1.2524 -1.2527
  883MOL0     H19202  10.992   8.321   8.637 -0.1371 -0.0336  1.9918
  883MOL0     H19203  11.327   8.338   8.713  1.0218  0.3081  1.3894
  883MOL0     H19204  11.171   8.431   8.744 -2.4865 -1.1508  0.7526
  883MOL0     H19205  11.244   8.353   8.873 -1.5385 -0.0296 -0.3542
  884MOL0     O19206   5.356  11.485   9.289 -0.9600  0.6268 -0.0153
  884MOL0     C19207   5.395  11.375   9.247  0.9010 -0.5040 -0.3875
  884MOL0     O19208   5.343  11.258   9.291  0.5464  0.5405 -1.3441
  884MOL0     C19209   5.210  11.264   9.343  0.2266  0.6929 -0.4113
  884MOL0     C19210   5.140  11.149   9.304  0.2353 -0.2454  0.1173
  884MOL0     C19211   5.001  11.148   9.328 -0.2541  0.4099  1.6395
  884MOL0     C19212   4.933  11.241   9.404  1.1258  0.0695  0.6114
  884MOL0     O19213   4.793  11.227   9.425 -0.0939  0.0749 -0.5635
  884MOL0     C19214   4.719  11.346   9.427  0.3315  0.1987 -0.2982
  884MOL0     C19215   4.577  11.347   9.480 -0.5736 -0.7550 -0.6512
  884MOL0     C19216   4.487  11.439   9.409  0.3914  0.4734 -0.1984
  884MOL0     C19217   4.348  11.425   9.475  0.3441 -0.6880 -0.3096
  884MOL0     C19218   4.255  11.509   9.386  0.6662  0.4825  0.5444
  884MOL0     C19219   4.097  11.487   9.413 -0.7537 -0.1623  1.5256
  884MOL0     C19220   4.053  11.525   9.550  0.4189 -0.1269  0.1138
  884MOL0     C19221   3.905  11.564   9.562 -0.8437 -0.1968 -0.2769
  884MOL0     N19222   3.833  11.443   9.560  1.3110  0.0780 -0.3538
  884MOL0     C19223   3.757  11.401   9.663 -0.1303 -0.1696 -0.7145
  884MOL0     C19224   3.709  11.274   9.633  0.7728 -0.2289 -0.1865
  884MOL0     C19225   3.632  11.200   9.738  0.4036 -0.0222  0.5496
  884MOL0     C19226   3.719  11.099   9.816  0.1936  0.1373  0.3930
  884MOL0     C19227   3.843  11.174   9.863  0.4680  0.4798 -1.3994
  884MOL0     C19228   3.928  11.073   9.943 -0.0853  0.5031  0.1447
  884MOL0     O19229   3.859  11.022  10.055  0.4915 -0.0053 -0.7097
  884MOL0     C19230   3.911  10.914  10.120  0.4528  0.1608 -0.7479
  884MOL0     C19231   3.834  10.888  10.234 -0.0027  1.0685  0.3818
  884MOL0     C19232   3.872  10.773  10.305 -1.0123 -1.0934  1.0705
  884MOL0     C19233   3.968  10.682  10.255  0.0682 -0.7452 -0.6031
  884MOL0     C19234   3.978  10.556  10.325 -1.3240 -0.3947 -0.4482
  884MOL0     O19235   3.885  10.536  10.431  0.3062 -0.4781 -0.1791
  884MOL0     C19236   3.885  10.425  10.506 -0.1622  0.3949  0.6957
  884MOL0     C19237   3.885  10.301  10.454 -0.1302 -0.2846 -0.4804
  884MOL0     C19238   3.901  10.192  10.541 -0.0007 -0.5606  0.0734
  884MOL0     C19239   3.894  10.200  10.682 -0.5829 -0.3369  0.5624
  884MOL0     O19240   3.904  10.093  10.767  0.7315 -0.4766  0.3930
  884MOL0     C19241   3.820   9.989  10.736 -0.2225  0.8435  0.9131
  884MOL0     C19242   3.826   9.861  10.824 -0.6009  0.4050 -0.3758
  884MOL0     C19243   3.838   9.725  10.752  0.0195  0.3718 -0.1320
  884MOL0     C19244   3.971   9.656  10.751 -1.0991  0.9323 -1.2301
  884MOL0     C19245   3.972   9.513  10.705 -0.2707  0.3822 -0.8528
  884MOL0     C19246   3.914   9.483  10.567  0.9975  0.0661 -0.1273
  884MOL0     C19247   3.952   9.335  10.524  0.3960  0.2525  0.7390
  884MOL0     C19248   4.094   9.280  10.530  0.2091 -0.6908  0.3920
  884MOL0    Cl19249   4.184   9.397  10.434 -0.0333  0.0793 -0.1123
  884MOL0     C19250   3.873  10.326  10.743  0.2609  0.9876 -0.3330
  884MOL0     C19251   3.868  10.441  10.650  0.4790 -0.0651 -0.4357
  884MOL0     O19252   4.058  10.472  10.291  0.0585 -0.1886 -0.0625
  884MOL0     C19253   4.043  10.724  10.145  0.3204  1.1019  0.2838
  884MOL0     C19254   4.026  10.843  10.080 -0.4195 -0.5771 -0.1172
  884MOL0     N19255   3.748  11.236   9.504 -0.1397  0.0406  0.8949
  884MOL0     N19256   3.818  11.344   9.462 -0.1011  0.5989  0.6287
  884MOL0     C19257   5.011  11.335   9.471  0.8278  0.0835  0.7948
  884MOL0     C19258   5.146  11.360   9.434 -0.4437  0.9004  0.1474
  884MOL0     C19259   5.507  11.368   9.146 -1.4350 -0.6069  0.4404
  884MOL0     C19260   5.574  11.253   9.128  0.0228 -0.2956  0.2181
  884MOL0     C19261   5.686  11.247   9.045 -0.2850  0.4364  0.0598
  884MOL0     C19262   5.736  11.352   8.970  0.6566 -0.5474 -0.3611
  884MOL0     O19263   5.840  11.342   8.883 -1.4207  0.4149 -0.1898
  884MOL0     C19264   5.898  11.215   8.851  0.2546 -0.2872 -0.0266
  884MOL0     C19265   6.010  11.241   8.743  0.7547  0.5983 -0.0148
  884MOL0     C19266   6.059  11.114   8.692 -0.4925  0.1604  0.6939
  884MOL0     C19267   6.118  11.122   8.545  0.5304 -0.4005 -0.3739
  884MOL0     C19268   6.207  11.010   8.509 -0.2643 -0.7330  0.3411
  884MOL0     C19269   6.295  10.935   8.477  0.2633  1.2493 -0.3125
  884MOL0     C19270   5.665  11.476   8.980  0.2047  0.7442  0.8831
  884MOL0     C19271   5.549  11.480   9.064 -0.1326  0.0017 -0.8902
  884MOL0     C19272   5.487  11.613   9.069 -0.3937  0.7136  0.1720
  884MOL0     H19273   5.191  11.079   9.239  1.6395 -0.5435  1.4795
  884MOL0     H19274   4.950  11.061   9.289  0.6372  0.6143 -0.0790
  884MOL0     H19275   4.775  11.416   9.490 -0.1284  0.0074  0.3391
  884MOL0     H19276   4.713  11.389   9.327  3.3268 -4.7730 -3.0180
  884MOL0     H19277   4.580  11.366   9.587 -1.7371  2.5405 -1.1179
  884MOL0     H19278   4.535  11.247   9.467 -0.7348 -0.6821 -0.6861
  884MOL0     H19279   4.479  11.390   9.312  1.5131 -2.1831  0.9623
  884MOL0     H19280   4.525  11.541   9.399 -1.5848  0.9898 -4.0764
  884MOL0     H19281   4.319  11.320   9.475  0.1636 -0.6447 -1.3679
  884MOL0     H19282   4.349  11.463   9.578  0.0088 -1.2558 -0.0958
  884MOL0     H19283   4.264  11.617   9.402  1.3941  1.0278 -2.8318
  884MOL0     H19284   4.271  11.494   9.279  1.7984  3.4614  0.2136
  884MOL0     H19285   4.041  11.552   9.346 -2.1623  1.1488  3.8520
  884MOL0     H19286   4.073  11.382   9.392  3.1086 -0.8714 -0.1945
  884MOL0     H19287   4.117  11.601   9.595  0.1628 -1.6426  3.4010
  884MOL0     H19288   4.079  11.435   9.606 -1.7863 -1.9139 -1.5450
  884MOL0     H19289   3.890  11.624   9.652  1.4575 -1.2307  0.8921
  884MOL0     H19290   3.889  11.625   9.473  4.1590  2.1004  0.0558
  884MOL0     H19291   3.744  11.438   9.764 -4.6084  1.1269 -1.5462
  884MOL0     H19292   3.591  11.266   9.815  0.2966 -2.6333  2.8805
  884MOL0     H19293   3.554  11.139   9.691  0.3432  0.3267  0.1902
  884MOL0     H19294   3.651  11.054   9.889 -2.0820 -0.2229 -1.8012
  884MOL0     H19295   3.751  11.021   9.747 -1.9954  0.8548 -1.5691
  884MOL0     H19296   3.816  11.255   9.932  1.1323  0.9827 -1.7245
  884MOL0     H19297   3.895  11.214   9.775  0.4651 -0.2252 -1.7302
  884MOL0     H19298   4.026  11.110   9.972  0.4865 -1.7556  1.2817
  884MOL0     H19299   3.943  10.998   9.864  0.0024  2.7399 -2.1126
  884MOL0     H19300   3.748  10.940  10.276 -0.1309 -0.1482  1.7063
  884MOL0     H19301   3.815  10.741  10.392 -0.1330  0.2745  2.1917
  884MOL0     H19302   3.868  10.290  10.347 -4.8399  3.2745 -0.4277
  884MOL0     H19303   3.910  10.095  10.493  0.3342 -0.7391  0.4868
  884MOL0     H19304   3.718  10.028  10.729 -0.7657 -0.2055  2.5182
  884MOL0     H19305   3.847   9.949  10.638 -1.6341 -0.7539  1.1319
  884MOL0     H19306   3.902   9.877  10.900  0.2555  0.5110 -1.2311
  884MOL0     H19307   3.738   9.863  10.890 -0.0166  1.0970  0.3961
  884MOL0     H19308   3.777   9.654  10.809  1.4178 -1.3284 -0.6421
  884MOL0     H19309   3.806   9.743  10.649  2.1235  2.4856 -0.5051
  884MOL0     H19310   4.021   9.650  10.849 -0.4360 -1.9941 -1.6646
  884MOL0     H19311   4.033   9.720  10.687  0.9319 -1.7327 -2.1324
  884MOL0     H19312   3.923   9.451  10.781  1.9275 -2.1415 -1.3656
  884MOL0     H19313   4.072   9.469  10.714 -1.1377 -1.9064 -1.6172
  884MOL0     H19314   3.807   9.502  10.578  1.6480  3.1050  2.4019
  884MOL0     H19315   3.946   9.563  10.500  3.0077  0.2695  0.9756
  884MOL0     H19316   3.920   9.310  10.422  0.2629 -2.0255  1.2928
  884MOL0     H19317   3.894   9.268  10.588  0.0917  1.7819  2.1102
  884MOL0     H19318   4.121   9.266  10.635 -0.1462  0.9677  0.7462
  884MOL0     H19319   4.103   9.183  10.482  0.6057 -0.0337 -0.9125
  884MOL0     H19320   3.831  10.324  10.843  0.6551 -3.3526 -0.0696
  884MOL0     H19321   3.842  10.538  10.690  3.4105  1.4209 -1.8401
  884MOL0     H19322   4.126  10.661  10.114  0.4125  1.6914 -0.7143
  884MOL0     H19323   4.088  10.877   9.997  0.8536  0.3040  1.1448
  884MOL0     H19324   4.962  11.404   9.538  0.6180  0.3209  0.3995
  884MOL0     H19325   5.193  11.448   9.477  0.2498  1.4237 -1.6051
  884MOL0     H19326   5.543  11.165   9.183  2.6711  0.6687  3.5862
  884MOL0     H19327   5.747  11.158   9.042  1.1299  1.3908 -2.1222
  884MOL0     H19328   5.819  11.155   8.807 -1.7034  1.5822  0.7620
  884MOL0     H19329   5.925  11.148   8.933  0.4752 -2.4100 -1.7364
  884MOL0     H19330   6.094  11.294   8.788 -0.3475  1.7871  0.7136
  884MOL0     H19331   5.981  11.304   8.659 -0.8520 -0.1731 -0.0753
  884MOL0     H19332   5.969  11.052   8.684 -1.7921  2.1973 -1.5361
  884MOL0     H19333   6.129  11.066   8.761 -0.6816 -2.6096 -0.9086
  884MOL0     H19334   6.024  11.114   8.490 -1.4261  0.0360  2.6472
  884MOL0     H19335   6.159  11.223   8.534  0.4373 -0.4076 -0.7850
  884MOL0     H19336   6.383  10.877   8.459  1.0959  2.3875 -0.0605
  884MOL0     H19337   5.689  11.563   8.920 -1.7656  0.0736 -0.9713
  884MOL0     H19338   5.490  11.673   8.977  1.0368 -1.6358 -1.4262
  884MOL0     H19339   5.379  11.603   9.085  0.0091 -1.2897  2.0417
  884MOL0     H19340   5.511  11.681   9.151 -2.6743  0.5901  1.0272
  885MOL0     O19341   1.575   6.975   8.922  0.9102 -0.2402 -0.3515
  885MOL0     C19342   1.672   7.031   8.962  0.1695 -0.3572  0.2958
  885MOL0     O19343   1.732   7.143   8.903  0.4687 -0.1165  0.3146
  885MOL0     C19344   1.670   7.197   8.794  0.4210  0.2237 -0.5590
  885MOL0     C19345   1.698   7.149   8.676  0.6987  0.4126  0.0295
  885MOL0     C19346   1.644   7.223   8.566  0.2797  0.9133 -0.1156
  885MOL0     C19347   1.546   7.324   8.583 -0.1263  0.0610 -0.9902
  885MOL0     O19348   1.476   7.371   8.479 -0.7130 -0.5276  0.2942
  885MOL0     C19349   1.504   7.328   8.344  0.0692  0.4022 -0.1641
  885MOL0     C19350   1.399   7.405   8.250  0.1304  0.2664  0.4341
  885MOL0     C19351   1.383   7.332   8.119  0.1470 -0.3820 -0.2907
  885MOL0     C19352   1.273   7.402   8.030 -0.6455  0.7319  0.3251
  885MOL0     C19353   1.271   7.356   7.888  0.6705 -1.0126  0.5383
  885MOL0     C19354   1.227   7.211   7.866  0.3706 -0.0166 -0.3182
  885MOL0     C19355   1.244   7.187   7.714 -0.4945 -0.0814  0.0677
  885MOL0     C19356   1.247   7.031   7.686  0.9698  0.1876 -0.3826
  885MOL0     N19357   1.110   6.968   7.695 -0.1187 -0.2485 -0.7123
  885MOL0     C19358   0.992   7.036   7.723  0.0483  0.1507 -0.5239
  885MOL0     C19359   0.898   6.935   7.720 -0.0895 -0.7737 -0.3652
  885MOL0     C19360   0.747   6.944   7.729  0.4001  0.1054 -0.8830
  885MOL0     C19361   0.681   6.853   7.833 -0.5030 -0.0429  0.6726
  885MOL0     C19362   0.630   6.924   7.957 -0.3090 -0.0403  0.0931
  885MOL0     C19363   0.564   6.823   8.042 -0.4435  1.0063 -0.1277
  885MOL0     O19364   0.488   6.891   8.148 -0.7995  0.1280  0.4518
  885MOL0     C19365   0.434   6.810   8.244 -0.8938  0.3058  0.6085
  885MOL0     C19366   0.438   6.859   8.374 -0.0250 -0.1228  0.2499
  885MOL0     C19367   0.360   6.812   8.483  0.2112  0.0404  0.8584
  885MOL0     C19368   0.299   6.687   8.460 -0.9767  0.1053 -0.6520
  885MOL0     C19369   0.230   6.630   8.576 -0.8079 -0.1989  0.2555
  885MOL0     O19370   0.189   6.717   8.676 -0.7622  0.3255 -0.5152
  885MOL0     C19371   0.086   6.673   8.766 -0.5626 -0.2641  0.6329
  885MOL0     C19372  -0.045   6.685   8.731  0.3140 -0.0066 -0.4005
  885MOL0     C19373  -0.148   6.645   8.821  0.9391 -0.1456 -0.4706
  885MOL0     C19374  -0.117   6.592   8.945  0.8917  0.3632 -0.0513
  885MOL0     O19375  -0.217   6.541   9.026  0.1105  0.2047 -0.0436
  885MOL0     C19376  -0.350   6.535   8.984  0.6419  0.2604 -1.2257
  885MOL0     C19377  -0.437   6.460   9.092  0.3209 -0.4439  0.7972
  885MOL0     C19378  -0.398   6.315   9.098 -0.7284  0.7056  0.3844
  885MOL0     C19379  -0.466   6.228   8.998  0.4998 -0.8018 -0.5865
  885MOL0     C19380  -0.426   6.077   8.982 -0.9474  0.2438 -0.4015
  885MOL0     C19381  -0.456   5.998   9.113 -0.2793  1.6041  0.3668
  885MOL0     C19382  -0.383   5.863   9.120 -0.3934  0.9297  0.1819
  885MOL0     C19383  -0.351   5.815   9.257 -0.6181  0.5490 -0.0660
  885MOL0    Cl19384  -0.488   5.797   9.365 -0.0293 -0.0337 -0.2975
  885MOL0     C19385   0.020   6.596   8.989  0.9569  0.9568 -1.2352
  885MOL0     C19386   0.122   6.629   8.904  1.0445 -0.3372  0.2458
  885MOL0     O19387   0.211   6.509   8.575 -0.5650 -1.0040  0.5826
  885MOL0     C19388   0.313   6.622   8.333 -0.3914  0.2478  0.6463
  885MOL0     C19389   0.367   6.691   8.218  0.7883  0.4590  0.3886
  885MOL0     N19390   0.967   6.820   7.708 -0.7423  1.1191 -0.4275
  885MOL0     N19391   1.086   6.834   7.696  0.3490 -1.1655 -0.5744
  885MOL0     C19392   1.518   7.366   8.715  0.0072 -0.4684  0.6019
  885MOL0     C19393   1.590   7.303   8.819  0.0049 -0.0729  0.4198
  885MOL0     C19394   1.727   7.012   9.088 -0.2920  0.0902 -0.2101
  885MOL0     C19395   1.729   7.124   9.175  0.0153  0.3240  0.1256
  885MOL0     C19396   1.794   7.114   9.299 -0.0384  1.1286 -0.6168
  885MOL0     C19397   1.844   6.996   9.347 -0.8313 -0.0564 -0.0508
  885MOL0     O19398   1.889   6.981   9.473  0.9995  0.2520  0.5438
  885MOL0     C19399   1.795   6.993   9.580 -0.2538  0.2100  0.6005
  885MOL0     C19400   1.853   6.962   9.719 -0.1152  0.6228  0.4252
  885MOL0     C19401   1.923   7.078   9.782  0.8895 -0.0323  0.6117
  885MOL0     C19402   1.964   7.041   9.923 -0.2873 -0.4831  0.4419
  885MOL0     C19403   2.078   7.121   9.969  0.1675 -0.2162  0.4774
  885MOL0     C19404   2.169   7.187  10.022 -0.4649  0.4135 -0.0185
  885MOL0     C19405   1.842   6.888   9.264  0.3125 -0.2702  0.5102
  885MOL0     C19406   1.788   6.887   9.133  0.1770  0.5426 -0.3545
  885MOL0     C19407   1.799   6.765   9.052  0.0244  0.4670  0.6154
  885MOL0     H19408   1.768   7.066   8.675  1.3127  0.9224 -1.4810
  885MOL0     H19409   1.684   7.197   8.469  1.1871 -3.8446  1.3043
  885MOL0     H19410   1.609   7.333   8.314  0.1108 -2.3179 -0.7697
  885MOL0     H19411   1.477   7.223   8.330  0.4746  0.2139  0.4545
  885MOL0     H19412   1.437   7.506   8.230  2.5997 -0.5856  0.4359
  885MOL0     H19413   1.300   7.398   8.296  0.6433 -0.9469  1.4097
  885MOL0     H19414   1.361   7.226   8.135 -2.0118  0.3405  2.3246
  885MOL0     H19415   1.479   7.346   8.068 -0.0705  0.0110 -0.5898
  885MOL0     H19416   1.173   7.386   8.072 -0.9889  2.9731  0.5122
  885MOL0     H19417   1.291   7.510   8.037  0.5428  0.6155 -0.6304
  885MOL0     H19418   1.192   7.412   7.837  2.3274 -0.1925 -1.2708
  885MOL0     H19419   1.360   7.373   7.827 -0.5432 -0.8706 -1.3049
  885MOL0     H19420   1.291   7.143   7.923  1.1061  1.6908  0.9942
  885MOL0     H19421   1.122   7.211   7.897  1.4734  2.0153  4.1859
  885MOL0     H19422   1.347   7.218   7.694 -0.4949  1.4877  2.1520
  885MOL0     H19423   1.169   7.232   7.649 -2.4140 -2.9022  0.1613
  885MOL0     H19424   1.288   7.018   7.586 -2.1397 -1.4012 -1.5765
  885MOL0     H19425   1.314   6.981   7.757 -1.8153 -2.3419  0.6718
  885MOL0     H19426   0.980   7.143   7.739  0.9390  0.2512 -0.4799
  885MOL0     H19427   0.710   7.046   7.741 -2.2631 -0.9391  0.6421
  885MOL0     H19428   0.704   6.911   7.634 -2.1264  0.7522 -0.0426
  885MOL0     H19429   0.591   6.807   7.790  1.5910 -4.2772  0.2714
  885MOL0     H19430   0.763   6.784   7.854 -0.5305 -0.5025 -0.6416
  885MOL0     H19431   0.556   7.002   7.942  1.8185  1.7807 -1.4632
  885MOL0     H19432   0.707   6.977   8.014 -0.2731 -0.6559  0.6420
  885MOL0     H19433   0.621   6.738   8.081 -1.3100  0.1019 -0.7830
  885MOL0     H19434   0.484   6.774   7.986  0.8448  1.6381 -2.6622
  885MOL0     H19435   0.491   6.952   8.391 -0.8774  0.7316 -1.4409
  885MOL0     H19436   0.356   6.864   8.578  1.4602 -1.0402  1.5287
  885MOL0     H19437  -0.068   6.737   8.638 -0.4482  0.6117  0.1219
  885MOL0     H19438  -0.250   6.666   8.792  1.0353  1.6490  0.3143
  885MOL0     H19439  -0.392   6.635   8.975  1.7297  0.7469 -1.0201
  885MOL0     H19440  -0.346   6.491   8.884  3.5253  0.7786 -1.4260
  885MOL0     H19441  -0.425   6.495   9.195  0.0855 -0.1278  0.7190
  885MOL0     H19442  -0.543   6.478   9.071  0.3387  0.0993  1.1563
  885MOL0     H19443  -0.291   6.315   9.075 -1.3351 -0.2497 -3.0880
  885MOL0     H19444  -0.405   6.271   9.198 -3.0827  2.8740  1.2816
  885MOL0     H19445  -0.460   6.267   8.896 -1.0981 -2.1322 -1.2368
  885MOL0     H19446  -0.571   6.227   9.031  0.3393  0.7695 -0.9697
  885MOL0     H19447  -0.319   6.068   8.961 -1.3476 -4.1848 -1.5016
  885MOL0     H19448  -0.483   6.045   8.894 -4.6054  1.1319  1.4769
  885MOL0     H19449  -0.419   6.057   9.197  4.0196 -1.5319  1.0425
  885MOL0     H19450  -0.563   5.980   9.128 -0.0536 -1.3625 -0.9764
  885MOL0     H19451  -0.287   5.860   9.068 -0.3693 -2.4049  0.1927
  885MOL0     H19452  -0.440   5.780   9.079 -1.7008  2.2811 -0.8419
  885MOL0     H19453  -0.300   5.721   9.236  2.2290  1.6116  1.5137
  885MOL0     H19454  -0.274   5.884   9.294  2.0383 -2.6674  0.8776
  885MOL0     H19455   0.050   6.557   9.086 -0.7579 -2.8276 -2.0177
  885MOL0     H19456   0.226   6.636   8.932  1.9789 -1.2343 -2.6244
  885MOL0     H19457   0.258   6.528   8.328  0.6965 -0.3571 -0.7916
  885MOL0     H19458   0.369   6.646   8.119  1.6021 -0.9278  0.9896
  885MOL0     H19459   1.443   7.444   8.726 -1.2180 -1.4032 -0.7324
  885MOL0     H19460   1.594   7.344   8.919 -1.7483 -0.9082  0.8624
  885MOL0     H19461   1.689   7.220   9.146  1.7341  1.7442  2.2052
  885MOL0     H19462   1.805   7.187   9.379  2.1963 -0.2933  0.4654
  885MOL0     H19463   1.715   6.918   9.570  1.1811 -2.0805  4.1998
  885MOL0     H19464   1.741   7.088   9.583 -1.4419 -0.4598  1.1187
  885MOL0     H19465   1.921   6.879   9.702 -2.8169 -1.7699  0.4790
  885MOL0     H19466   1.780   6.922   9.790  2.6670  0.7747  3.6183
  885MOL0     H19467   1.853   7.162   9.779  0.6811 -0.1674 -2.6030
  885MOL0     H19468   1.999   7.108   9.708 -0.3545  1.0464 -0.2820
  885MOL0     H19469   1.878   7.045   9.990  0.0783 -5.0228  1.5644
  885MOL0     H19470   2.004   6.939   9.921  1.0663 -0.0571  2.2043
  885MOL0     H19471   2.241   7.252  10.067 -0.4188 -0.5370  1.3309
  885MOL0     H19472   1.880   6.794   9.302 -0.6781 -0.5878  0.7283
  885MOL0     H19473   1.813   6.673   9.109 -2.4444  0.6582  1.6383
  885MOL0     H19474   1.702   6.758   9.002  0.2846  0.6038  0.0833
  885MOL0     H19475   1.877   6.764   8.975 -0.0575  1.0466  0.5183
  886MOL0     O19476   6.359  10.905   4.972  0.1412  0.0989  0.6099
  886MOL0     C19477   6.417  10.820   5.033 -0.2169  0.3797  0.2161
  886MOL0     O19478   6.439  10.694   4.998  0.0129  0.5571  0.6152
  886MOL0     C19479   6.410  10.637   4.875  0.4725  0.1328  1.4275
  886MOL0     C19480   6.383  10.497   4.870 -0.1248  0.9314 -0.9916
  886MOL0     C19481   6.357  10.435   4.747 -0.4060  0.3316  0.0286
  886MOL0     C19482   6.340  10.506   4.627 -0.1615  0.7142 -0.7214
  886MOL0     O19483   6.316  10.446   4.506  0.3056 -0.5156  0.5179
  886MOL0     C19484   6.237  10.522   4.412 -0.4904  0.4054  0.8868
  886MOL0     C19485   6.145  10.435   4.326 -0.2149  0.3881 -0.2328
  886MOL0     C19486   6.209  10.382   4.195  0.0262 -0.1405 -0.5108
  886MOL0     C19487   6.093  10.298   4.132 -0.3340  0.0715 -0.2177
  886MOL0     C19488   6.139  10.217   4.002  0.5568  0.5598 -0.8270
  886MOL0     C19489   6.168  10.294   3.873 -0.1459  0.6807 -0.6598
  886MOL0     C19490   6.071  10.258   3.763 -0.4180 -0.7110 -0.0742
  886MOL0     C19491   6.077  10.336   3.626  0.3855  0.7005  0.1032
  886MOL0     N19492   6.046  10.483   3.652  0.2071 -0.1655  0.4214
  886MOL0     C19493   5.930  10.535   3.663  0.0328 -0.1884  0.3297
  886MOL0     C19494   5.953  10.657   3.724  0.7421 -1.0649  0.4380
  886MOL0     C19495   5.847  10.750   3.775 -1.0848 -0.1441  0.4355
  886MOL0     C19496   5.907  10.889   3.778  0.6459 -0.6177  0.4025
  886MOL0     C19497   5.787  10.988   3.767  0.5419  1.2035  0.1910
  886MOL0     C19498   5.831  11.133   3.748  0.8724 -0.9915 -0.6127
  886MOL0     O19499   5.721  11.213   3.783 -0.0924  0.5962  0.0430
  886MOL0     C19500   5.728  11.349   3.758 -0.3734 -0.7285  0.3216
  886MOL0     C19501   5.625  11.427   3.794  0.8735 -0.4263  0.6873
  886MOL0     C19502   5.635  11.566   3.786 -0.8244 -0.1333 -0.3881
  886MOL0     C19503   5.749  11.637   3.741 -0.3094 -0.0326 -0.2838
  886MOL0     C19504   5.754  11.783   3.728 -0.1700 -0.6053  0.3753
  886MOL0     O19505   5.639  11.849   3.757 -0.2093  0.6193  1.1255
  886MOL0     C19506   5.635  11.980   3.800 -0.8961  0.5807  0.5625
  886MOL0     C19507   5.527  12.057   3.746  0.6350 -1.1069 -0.9128
  886MOL0     C19508   5.500  12.183   3.804  0.5140  0.1674  0.4994
  886MOL0     C19509   5.591  12.234   3.903  0.3701 -0.6960  0.6909
  886MOL0     O19510   5.564  12.369   3.945  0.1375 -0.4119 -0.7490
  886MOL0     C19511   5.576  12.396   4.092  0.5357  0.6657  0.5277
  886MOL0     C19512   5.507  12.516   4.146 -0.1913 -0.0702 -0.4581
  886MOL0     C19513   5.356  12.524   4.125 -0.6623  0.2149  0.5877
  886MOL0     C19514   5.298  12.661   4.152 -0.5032  0.6251  0.2915
  886MOL0     C19515   5.145  12.671   4.131  0.5740 -0.2649 -0.6567
  886MOL0     C19516   5.101  12.810   4.182  0.2311  0.0193  0.1757
  886MOL0     C19517   5.140  12.935   4.092 -0.3402  0.4628  0.3607
  886MOL0     C19518   5.247  13.031   4.145 -1.6464 -0.4801  0.1865
  886MOL0    Cl19519   5.237  13.187   4.061  0.1898  0.1292 -0.0184
  886MOL0     C19520   5.694  12.160   3.956  0.0067 -1.0765 -0.4340
  886MOL0     C19521   5.713  12.028   3.907 -0.6199  0.3255  0.4569
  886MOL0     O19522   5.864  11.840   3.713 -0.4289 -0.0205 -0.4501
  886MOL0     C19523   5.851  11.556   3.702 -0.1840 -0.5606 -0.1749
  886MOL0     C19524   5.840  11.415   3.710 -0.4218  0.4434 -0.8924
  886MOL0     N19525   6.099  10.681   3.732  1.1635  0.8118 -0.1802
  886MOL0     N19526   6.144  10.569   3.688  0.1562 -0.6053 -0.4777
  886MOL0     C19527   6.359  10.644   4.632 -0.2180  0.2560  0.1365
  886MOL0     C19528   6.399  10.709   4.757 -1.2070  0.2357  0.3304
  886MOL0     C19529   6.448  10.862   5.174  0.0367 -1.6873 -0.5178
  886MOL0     C19530   6.439  10.996   5.215 -1.1150  0.5511  0.1386
  886MOL0     C19531   6.447  11.040   5.347 -1.4005  0.0638 -1.1031
  886MOL0     C19532   6.459  10.947   5.452  1.1857  0.0947 -0.0234
  886MOL0     O19533   6.436  10.988   5.581  0.8385  0.6320 -0.4180
  886MOL0     C19534   6.533  10.945   5.676 -0.0713  0.4451 -0.2205
  886MOL0     C19535   6.597  11.063   5.757  0.1728  0.2637  0.4078
  886MOL0     C19536   6.608  11.194   5.672  0.2111  0.4839 -0.3025
  886MOL0     C19537   6.664  11.311   5.739 -0.1260  0.3260 -0.2190
  886MOL0     C19538   6.811  11.304   5.748 -0.0337 -0.0118  0.8295
  886MOL0     C19539   6.934  11.322   5.764  0.2317 -0.1197 -0.5674
  886MOL0     C19540   6.471  10.816   5.412 -0.4544  0.1862  0.2604
  886MOL0     C19541   6.454  10.772   5.278 -0.1672  0.2597  0.1916
  886MOL0     C19542   6.430  10.622   5.268  0.7573 -0.6012 -0.4622
  886MOL0     H19543   6.369  10.443   4.963 -0.5690  3.2493  0.3663
  886MOL0     H19544   6.334  10.329   4.747  0.8679 -0.0122  2.4811
  886MOL0     H19545   6.177  10.603   4.456  1.2007  1.3212  1.6232
  886MOL0     H19546   6.294  10.564   4.328  2.2597 -4.2529  0.0858
  886MOL0     H19547   6.056  10.491   4.296 -0.4661  0.3804  0.4755
  886MOL0     H19548   6.122  10.345   4.385 -0.6954  1.1975  0.8427
  886MOL0     H19549   6.293  10.315   4.216  0.2023  0.9097  2.7128
  886MOL0     H19550   6.237  10.471   4.138 -1.6846  1.6187  1.2753
  886MOL0     H19551   6.061  10.220   4.202  2.5762 -3.4556 -2.4445
  886MOL0     H19552   6.010  10.365   4.106  0.9866  2.7101  1.9241
  886MOL0     H19553   6.228  10.160   4.029  1.6289  2.9615  1.0963
  886MOL0     H19554   6.057  10.148   3.980  0.8219 -0.3252  0.8233
  886MOL0     H19555   6.174  10.398   3.908 -1.3322 -0.5247  3.6724
  886MOL0     H19556   6.268  10.263   3.841 -1.4784 -3.2428 -1.5183
  886MOL0     H19557   5.971  10.279   3.804 -0.3619 -0.9646  0.1976
  886MOL0     H19558   6.062  10.150   3.748 -3.6529 -0.7095  1.0814
  886MOL0     H19559   6.177  10.320   3.585  0.0037 -6.6406  0.7045
  886MOL0     H19560   6.017  10.297   3.544 -0.4341  2.5186 -0.2319
  886MOL0     H19561   5.842  10.478   3.638  1.3602 -1.2924 -2.2448
  886MOL0     H19562   5.758  10.738   3.712  1.0192 -2.3052 -2.4135
  886MOL0     H19563   5.824  10.713   3.875  0.6222  0.3980  1.0576
  886MOL0     H19564   5.970  10.899   3.866 -3.1900 -1.2614  3.4950
  886MOL0     H19565   5.969  10.903   3.689  0.4537  0.6683  0.4505
  886MOL0     H19566   5.723  10.990   3.856  0.1811  2.0694 -0.0740
  886MOL0     H19567   5.717  10.959   3.688  0.8503 -0.1239  0.3938
  886MOL0     H19568   5.880  11.145   3.652  2.0584 -2.1568 -0.1826
  886MOL0     H19569   5.916  11.156   3.813 -0.1548  2.1758 -0.2061
  886MOL0     H19570   5.541  11.376   3.840 -0.8552  2.9110  1.5387
  886MOL0     H19571   5.549  11.624   3.816 -2.9540 -3.5287  0.6777
  886MOL0     H19572   5.472  12.005   3.668 -2.6955 -0.3076  0.7291
  886MOL0     H19573   5.406  12.233   3.783  0.9842  0.0610 -2.2662
  886MOL0     H19574   5.533  12.308   4.140  1.5852  0.0221  0.3194
  886MOL0     H19575   5.681  12.399   4.121  0.5404 -2.7455  1.2321
  886MOL0     H19576   5.522  12.507   4.254  0.5098 -0.9745 -0.6215
  886MOL0     H19577   5.566  12.605   4.124 -0.1156 -0.4786 -2.0422
  886MOL0     H19578   5.329  12.499   4.022 -0.6671  1.6485  0.2180
  886MOL0     H19579   5.313  12.448   4.190 -1.2962  0.7483  0.8095
  886MOL0     H19580   5.338  12.749   4.100  0.7373  0.2437  0.5687
  886MOL0     H19581   5.313  12.675   4.259  0.5171 -4.1956  0.9917
  886MOL0     H19582   5.088  12.592   4.180 -0.4325  0.4694 -0.6121
  886MOL0     H19583   5.123  12.666   4.024  1.9844  2.6667 -1.1916
  886MOL0     H19584   4.992  12.812   4.179  0.1859  0.8767  1.5041
  886MOL0     H19585   5.138  12.824   4.284  0.6648  1.9382 -0.1893
  886MOL0     H19586   5.048  12.990   4.070  0.6794  1.0213 -3.1208
  886MOL0     H19587   5.178  12.906   3.994  2.7613  3.1777  0.5878
  886MOL0     H19588   5.251  13.058   4.251  1.5902  3.5479 -0.6924
  886MOL0     H19589   5.350  12.995   4.134 -1.7046 -0.2118 -1.4636
  886MOL0     H19590   5.765  12.219   4.012 -1.4565 -0.4470  0.8158
  886MOL0     H19591   5.796  11.964   3.935 -0.9906 -1.5322 -2.3065
  886MOL0     H19592   5.944  11.604   3.670 -0.2351 -1.0572 -1.0918
  886MOL0     H19593   5.931  11.358   3.700 -1.6701 -1.7701 -0.2350
  886MOL0     H19594   6.331  10.698   4.543 -3.0865 -1.1099  0.0935
  886MOL0     H19595   6.420  10.815   4.752  1.0852 -0.2002 -0.3137
  886MOL0     H19596   6.420  11.081   5.150  2.4096  0.6698 -0.9342
  886MOL0     H19597   6.450  11.142   5.385 -1.4704 -0.9401  1.8951
  886MOL0     H19598   6.610  10.888   5.623 -3.5610 -3.8275 -1.3200
  886MOL0     H19599   6.483  10.866   5.732  1.8190 -3.2996 -3.3449
  886MOL0     H19600   6.690  11.044   5.813 -1.1457  1.0053  3.0384
  886MOL0     H19601   6.535  11.088   5.844  1.1769  2.6892  0.5352
  886MOL0     H19602   6.509  11.234   5.645 -1.8438 -2.9553  1.4564
  886MOL0     H19603   6.669  11.174   5.583  1.2372  1.1508  0.2306
  886MOL0     H19604   6.635  11.404   5.688  0.0124  1.2100  1.2609
  886MOL0     H19605   6.615  11.302   5.836 -0.3857  2.5490 -0.0937
  886MOL0     H19606   7.026  11.376   5.774  0.1571 -0.1235  0.2080
  886MOL0     H19607   6.492  10.739   5.486  2.9392 -2.7200 -3.2245
  886MOL0     H19608   6.414  10.574   5.365  2.5363 -3.0408 -1.2685
  886MOL0     H19609   6.342  10.606   5.205  2.7509 -0.9845 -3.3354
  886MOL0     H19610   6.508  10.563   5.217  1.0999  0.6222 -1.4037
  887MOL0     O19611   1.681   7.161   4.654 -0.4159  0.2854  0.3799
  887MOL0     C19612   1.717   7.077   4.578  0.2855  0.0931  0.3845
  887MOL0     O19613   1.844   7.077   4.521  0.2997 -0.0038 -0.6025
  887MOL0     C19614   1.942   7.163   4.579  0.0099  0.4329 -0.4691
  887MOL0     C19615   2.007   7.257   4.497 -0.0362 -0.1690 -0.2241
  887MOL0     C19616   2.104   7.339   4.560  0.0540  0.1526  0.4883
  887MOL0     C19617   2.154   7.308   4.691 -0.7331  0.1839 -0.5986
  887MOL0     O19618   2.264   7.372   4.750 -0.4461 -0.2219 -0.0704
  887MOL0     C19619   2.346   7.463   4.675 -0.3647  0.4338 -0.0927
  887MOL0     C19620   2.288   7.609   4.658  0.1362  0.0306 -0.2567
  887MOL0     C19621   2.355   7.716   4.567  0.6124  0.4644 -0.1305
  887MOL0     C19622   2.279   7.850   4.597  0.0477  1.0578 -0.4535
  887MOL0     C19623   2.333   7.944   4.500  0.3315  0.2535 -0.3944
  887MOL0     C19624   2.277   8.081   4.503  0.0489 -1.6340 -0.5105
  887MOL0     C19625   2.361   8.186   4.428 -0.1238 -0.5057  1.1216
  887MOL0     C19626   2.272   8.295   4.360  0.0748 -0.2540  0.8574
  887MOL0     N19627   2.346   8.368   4.256  0.4930 -0.7783 -0.0614
  887MOL0     C19628   2.407   8.490   4.276 -0.3350 -0.7388  0.4841
  887MOL0     C19629   2.468   8.530   4.164 -0.2243 -0.0192  0.2722
  887MOL0     C19630   2.548   8.645   4.128  0.7423 -0.0101 -0.4419
  887MOL0     C19631   2.485   8.784   4.159 -0.5117  1.0624  0.9772
  887MOL0     C19632   2.379   8.811   4.066  1.1436 -0.5653 -0.8955
  887MOL0     C19633   2.299   8.941   4.069  0.2638 -0.1680  0.2378
  887MOL0     O19634   2.264   8.963   4.208 -0.3517  0.8354  0.2284
  887MOL0     C19635   2.321   9.066   4.268  1.1901  0.9933  0.5160
  887MOL0     C19636   2.439   9.123   4.241  0.2903 -0.5071  0.0486
  887MOL0     C19637   2.482   9.239   4.302  0.2407 -0.3402  0.1536
  887MOL0     C19638   2.407   9.297   4.403  0.5391 -0.4201 -0.7082
  887MOL0     C19639   2.472   9.400   4.484  0.5147  0.8064 -0.5513
  887MOL0     O19640   2.595   9.446   4.437  1.1290  0.0871  0.2150
  887MOL0     C19641   2.692   9.508   4.514 -0.5240  0.2769  0.1170
  887MOL0     C19642   2.814   9.534   4.450 -0.5593 -0.6279 -0.7788
  887MOL0     C19643   2.914   9.604   4.522 -0.2861  0.3064 -0.6068
  887MOL0     C19644   2.898   9.645   4.655  0.8908  0.7071 -0.1718
  887MOL0     O19645   3.005   9.706   4.707  1.1161  0.2602  0.2162
  887MOL0     C19646   2.993   9.803   4.812 -0.7648  0.0992  1.0596
  887MOL0     C19647   3.121   9.887   4.812 -0.8741  0.1970 -0.4588
  887MOL0     C19648   3.236   9.801   4.870  0.1919 -1.4144  0.7477
  887MOL0     C19649   3.374   9.872   4.865  1.0857  0.2477 -0.2589
  887MOL0     C19650   3.491   9.784   4.913 -0.5806 -0.4679  0.1630
  887MOL0     C19651   3.612   9.864   4.950  0.1770 -0.8061  0.0194
  887MOL0     C19652   3.734   9.776   4.954  0.3337 -0.0741  0.3860
  887MOL0     C19653   3.840   9.834   5.041 -0.5631  0.5853  0.3628
  887MOL0    Cl19654   3.985   9.741   5.018 -0.2563 -0.3093 -0.1047
  887MOL0     C19655   2.775   9.629   4.713  0.2459 -0.4151 -0.0074
  887MOL0     C19656   2.672   9.565   4.641 -0.5019 -0.1305 -0.1488
  887MOL0     O19657   2.424   9.418   4.592  0.0414  0.3389  0.4660
  887MOL0     C19658   2.281   9.235   4.427  0.8040 -0.6357  0.6657
  887MOL0     C19659   2.237   9.121   4.361 -0.4481  0.4214 -0.3516
  887MOL0     N19660   2.447   8.421   4.078 -1.6704 -0.2254 -0.4320
  887MOL0     N19661   2.385   8.329   4.130 -0.0573 -0.0516 -0.2835
  887MOL0     C19662   2.092   7.208   4.765  0.3067  0.3842  0.0068
  887MOL0     C19663   1.995   7.129   4.707 -0.7237  0.2649 -0.7931
  887MOL0     C19664   1.619   6.985   4.515  0.3041  0.1352 -0.4115
  887MOL0     C19665   1.656   6.901   4.404  0.0478  0.0691 -0.0453
  887MOL0     C19666   1.569   6.823   4.334 -0.8068  0.0373  0.5752
  887MOL0     C19667   1.433   6.818   4.364 -0.1532 -0.2851 -0.0925
  887MOL0     O19668   1.328   6.761   4.295  0.2481  0.8265 -0.1619
  887MOL0     C19669   1.357   6.710   4.172 -0.1588 -0.0823  0.8407
  887MOL0     C19670   1.226   6.657   4.099  0.7855 -0.1233  0.1831
  887MOL0     C19671   1.177   6.526   4.167 -1.0352 -0.7068  0.2202
  887MOL0     C19672   1.033   6.491   4.114 -0.5359  0.0085 -0.1870
  887MOL0     C19673   1.039   6.442   3.972  0.2428  0.0884 -0.0275
  887MOL0     C19674   1.077   6.385   3.871  1.1529  0.2281 -0.5519
  887MOL0     C19675   1.389   6.901   4.470 -0.3391  0.0178  0.2233
  887MOL0     C19676   1.478   6.975   4.542  0.2106 -0.7594 -1.0943
  887MOL0     C19677   1.404   7.040   4.659  0.6834 -0.5019 -0.3768
  887MOL0     H19678   1.971   7.275   4.397  1.8700  1.5951 -0.6733
  887MOL0     H19679   2.151   7.408   4.491  0.2953 -1.7203 -1.3269
  887MOL0     H19680   2.445   7.469   4.719  0.0100  0.0420 -0.8664
  887MOL0     H19681   2.367   7.432   4.573 -2.7190  0.2634 -0.5900
  887MOL0     H19682   2.267   7.656   4.755 -3.8039 -0.8143 -0.5106
  887MOL0     H19683   2.187   7.609   4.616 -1.3972  1.8388  3.0108
  887MOL0     H19684   2.342   7.676   4.466 -1.5216 -1.2330  0.7499
  887MOL0     H19685   2.462   7.719   4.591  0.4817  0.9985  0.4111
  887MOL0     H19686   2.170   7.837   4.597  0.0673  0.5429  1.4542
  887MOL0     H19687   2.309   7.884   4.697 -1.9669  2.7577 -0.3413
  887MOL0     H19688   2.440   7.947   4.520  0.2601  0.1602  0.0282
  887MOL0     H19689   2.318   7.898   4.402  2.9825 -4.5163  1.1236
  887MOL0     H19690   2.176   8.071   4.463 -2.2953  1.5929  3.7960
  887MOL0     H19691   2.260   8.124   4.602 -0.8217  0.8252 -1.6422
  887MOL0     H19692   2.428   8.145   4.352  1.8064  0.6087  2.1421
  887MOL0     H19693   2.425   8.233   4.503 -1.7420  2.3269  0.8820
  887MOL0     H19694   2.197   8.236   4.306  0.8749  0.5653 -1.2511
  887MOL0     H19695   2.227   8.360   4.436  0.6315  0.3663  0.6599
  887MOL0     H19696   2.405   8.545   4.370 -0.0347 -0.4783  0.3391
  887MOL0     H19697   2.644   8.627   4.176 -0.0172 -1.1491  0.7262
  887MOL0     H19698   2.554   8.636   4.019  0.5516  1.5780 -0.6199
  887MOL0     H19699   2.447   8.780   4.262 -0.4914 -1.5129  0.9649
  887MOL0     H19700   2.571   8.850   4.146  0.8714 -0.8872 -0.3877
  887MOL0     H19701   2.295   8.743   4.082  0.3606 -0.0060 -2.4664
  887MOL0     H19702   2.419   8.807   3.964  4.8830  1.1315  0.3208
  887MOL0     H19703   2.205   8.945   4.013 -0.8506  0.3522  2.0617
  887MOL0     H19704   2.376   9.011   4.033  1.6269 -0.5972  2.1744
  887MOL0     H19705   2.508   9.072   4.174 -0.8444 -0.2161 -1.3913
  887MOL0     H19706   2.580   9.277   4.276  1.3818 -0.7795  3.4279
  887MOL0     H19707   2.827   9.498   4.349  0.8054 -0.6542 -0.6145
  887MOL0     H19708   3.006   9.632   4.471 -0.6251 -1.6435 -2.4338
  887MOL0     H19709   2.902   9.862   4.797  0.0096  1.6646  2.1624
  887MOL0     H19710   2.979   9.760   4.911  2.6000 -0.7152  1.3200
  887MOL0     H19711   3.145   9.921   4.711  0.4444 -1.2558 -0.6781
  887MOL0     H19712   3.102   9.970   4.880  1.6383 -0.3879  1.0474
  887MOL0     H19713   3.218   9.771   4.973 -0.0411 -2.0979  0.5140
  887MOL0     H19714   3.229   9.706   4.817 -3.0128 -1.6950  1.4534
  887MOL0     H19715   3.360   9.965   4.921  3.0485  2.1454 -2.7198
  887MOL0     H19716   3.389   9.901   4.761 -2.7854  0.2433 -0.9852
  887MOL0     H19717   3.512   9.707   4.839  3.3844 -0.6142  1.2326
  887MOL0     H19718   3.470   9.733   5.007  3.1501  2.4523  2.8995
  887MOL0     H19719   3.629   9.949   4.883 -0.8709  0.7178  1.6190
  887MOL0     H19720   3.588   9.908   5.047 -0.9449 -1.4402  0.0473
  887MOL0     H19721   3.772   9.766   4.851 -0.5877  0.2152  0.0081
  887MOL0     H19722   3.694   9.676   4.975 -1.8706  0.4734 -0.8716
  887MOL0     H19723   3.858   9.938   5.013  0.7650 -0.6307 -4.1372
  887MOL0     H19724   3.815   9.840   5.147 -0.1362  3.8060  0.3546
  887MOL0     H19725   2.759   9.676   4.809  4.1813  1.7329 -0.1920
  887MOL0     H19726   2.573   9.582   4.683  0.0239  1.7878  0.3891
  887MOL0     H19727   2.213   9.273   4.502  2.3526  0.1005  1.7589
  887MOL0     H19728   2.136   9.087   4.380 -0.5488  1.6561  1.6051
  887MOL0     H19729   2.130   7.191   4.865 -1.2578  2.8972  1.1236
  887MOL0     H19730   1.959   7.046   4.767  2.4996 -2.4350 -2.2286
  887MOL0     H19731   1.760   6.902   4.374  0.4427  3.0212  1.0728
  887MOL0     H19732   1.603   6.760   4.253  0.5897 -2.0596  2.6729
  887MOL0     H19733   1.432   6.632   4.188  3.3996  3.0837  1.1940
  887MOL0     H19734   1.398   6.785   4.104 -0.9870  0.7091  1.1958
  887MOL0     H19735   1.244   6.639   3.992 -1.2877 -1.1278 -0.0382
  887MOL0     H19736   1.151   6.733   4.122  2.7120  2.1714 -0.6772
  887MOL0     H19737   1.170   6.542   4.275  5.0804  2.2412  0.5943
  887MOL0     H19738   1.254   6.450   4.146 -2.6644 -2.7387  1.2393
  887MOL0     H19739   0.981   6.418   4.177 -1.1978  1.8282  1.4913
  887MOL0     H19740   0.976   6.584   4.113 -1.5646 -0.6067 -0.7215
  887MOL0     H19741   1.127   6.324   3.798  1.6017  0.8133 -0.7438
  887MOL0     H19742   1.283   6.904   4.495 -0.2169 -0.6967  0.9004
  887MOL0     H19743   1.298   7.017   4.649  0.7157 -0.0525 -1.9773
  887MOL0     H19744   1.457   7.002   4.747  0.7777 -1.9428 -1.0292
  887MOL0     H19745   1.408   7.149   4.655  1.0443 -0.4760  0.3402
  888MOL0     O19746  10.155   0.789  10.832  0.1708  0.3117 -0.6055
  888MOL0     C19747  10.050   0.848  10.817 -0.1543 -0.4424  0.2071
  888MOL0     O19748   9.938   0.792  10.774  0.3102 -0.0593 -0.7663
  888MOL0     C19749   9.947   0.666  10.725  0.6321  0.7034 -0.2923
  888MOL0     C19750   9.883   0.561  10.801 -0.1442 -0.0988 -0.5011
  888MOL0     C19751   9.864   0.427  10.739  0.9920 -1.2322 -1.2966
  888MOL0     C19752   9.914   0.403  10.616  0.2217  0.0640 -0.7699
  888MOL0     O19753   9.891   0.274  10.576 -0.0149  0.0913 -0.0309
  888MOL0     C19754   9.946   0.229  10.454  0.1129  0.5298 -0.1676
  888MOL0     C19755   9.923   0.076  10.433 -0.0792  0.1762  1.4823
  888MOL0     C19756   9.785   0.024  10.481 -0.5200  1.0624  0.1924
  888MOL0     C19757   9.772  -0.121  10.429  0.3307 -0.0064 -0.3152
  888MOL0     C19758   9.664  -0.201  10.505  0.3455 -0.7003  0.9218
  888MOL0     C19759   9.660  -0.346  10.447  0.3468  0.0177 -1.2652
  888MOL0     C19760   9.557  -0.432  10.531 -0.6087 -1.4247  0.5441
  888MOL0     C19761   9.619  -0.449  10.670  0.1983 -0.3660  0.1472
  888MOL0     N19762   9.556  -0.535  10.764 -1.0075  0.2113  0.2587
  888MOL0     C19763   9.420  -0.559  10.767 -0.5734  0.4230  0.2730
  888MOL0     C19764   9.410  -0.656  10.863  0.0445  0.4503  1.2695
  888MOL0     C19765   9.276  -0.698  10.906  0.2144 -0.6991 -0.6352
  888MOL0     C19766   9.208  -0.815  10.829  0.2014 -0.4128 -0.3131
  888MOL0     C19767   9.299  -0.940  10.822  0.5841  1.0409 -0.6121
  888MOL0     C19768   9.284  -1.021  10.954 -0.5394 -0.8167 -0.6126
  888MOL0     O19769   9.342  -1.156  10.937 -0.2512  0.2857 -0.1643
  888MOL0     C19770   9.247  -1.258  10.927  0.1676  0.0655  0.0094
  888MOL0     C19771   9.293  -1.390  10.934 -0.3815 -0.4386  0.5256
  888MOL0     C19772   9.210  -1.495  10.922  0.4674 -0.1640  0.6944
  888MOL0     C19773   9.067  -1.480  10.911  0.2014  0.4568 -0.0005
  888MOL0     C19774   8.972  -1.596  10.896  0.5877 -0.4085  0.2323
  888MOL0     O19775   9.024  -1.722  10.899 -0.5179 -0.0477 -0.4163
  888MOL0     C19776   8.948  -1.827  10.942  0.0392 -0.5868  0.1622
  888MOL0     C19777   8.875  -1.808  11.058  0.6436  0.2065 -0.8945
  888MOL0     C19778   8.806  -1.917  11.116  0.2693 -0.2612  0.5085
  888MOL0     C19779   8.820  -2.039  11.064 -0.7539 -0.5714  0.0854
  888MOL0     O19780   8.736  -2.143  11.113  0.1758 -0.3776 -0.3740
  888MOL0     C19781   8.708  -2.248  11.029  0.5503  0.2144 -1.1933
  888MOL0     C19782   8.594  -2.342  11.090 -1.5781  0.2348  0.4301
  888MOL0     C19783   8.509  -2.417  10.987  0.3632  0.4066  0.3309
  888MOL0     C19784   8.392  -2.481  11.051 -0.2392  0.2706  0.7743
  888MOL0     C19785   8.307  -2.557  10.953  0.3210  0.0257 -0.5480
  888MOL0     C19786   8.188  -2.614  11.034 -0.3706 -0.3849 -1.2233
  888MOL0     C19787   8.088  -2.693  10.947  0.2675 -0.6849 -0.1460
  888MOL0     C19788   7.984  -2.764  11.033  0.9709 -0.2746  0.4671
  888MOL0    Cl19789   8.061  -2.916  11.105 -0.0138 -0.1875 -0.1432
  888MOL0     C19790   8.907  -2.065  10.956  0.0776 -0.1739  0.0625
  888MOL0     C19791   8.974  -1.960  10.903 -0.1368 -0.3909  0.5592
  888MOL0     O19792   8.851  -1.570  10.905  0.4904 -0.0408 -0.1811
  888MOL0     C19793   9.017  -1.350  10.898  0.6658 -0.4193  0.5369
  888MOL0     C19794   9.103  -1.241  10.906  0.0706 -0.2478 -0.2602
  888MOL0     N19795   9.523  -0.680  10.925 -0.6403  0.3163  0.3990
  888MOL0     N19796   9.615  -0.595  10.879  0.5511 -0.5754  0.1747
  888MOL0     C19797   9.972   0.515  10.543  0.9862  0.6320 -0.3531
  888MOL0     C19798   9.985   0.636  10.597 -1.0201  0.3089 -0.3094
  888MOL0     C19799  10.043   0.993  10.857 -0.4007 -0.1729  0.1536
  888MOL0     C19800  10.145   1.043  10.943 -0.1234  0.8518 -0.8099
  888MOL0     C19801  10.138   1.180  10.977  0.2184  0.6439 -0.3083
  888MOL0     C19802  10.042   1.264  10.922  1.1322  0.0809 -0.6959
  888MOL0     O19803  10.024   1.397  10.948  0.8308 -0.8011 -0.8119
  888MOL0     C19804  10.092   1.465  11.054  0.5278 -0.6760 -0.1526
  888MOL0     C19805  10.067   1.616  11.059  0.3909  0.5943  1.0318
  888MOL0     C19806  10.019   1.668  11.197  0.1933 -0.0447  0.3295
  888MOL0     C19807  10.018   1.811  11.203  0.1487  1.3073 -0.2441
  888MOL0     C19808   9.949   1.847  11.322 -0.2113 -0.4412  0.1139
  888MOL0     C19809   9.885   1.865  11.422  0.7923 -0.1625  0.5375
  888MOL0     C19810   9.952   1.207  10.845 -0.7995  0.2646 -0.2505
  888MOL0     C19811   9.944   1.075  10.808  0.1921  1.2830 -0.0795
  888MOL0     C19812   9.851   1.031  10.694  0.1169 -0.2165 -0.2094
  888MOL0     H19813   9.840   0.573  10.900  0.3708 -2.8634  0.1603
  888MOL0     H19814   9.816   0.344  10.790  3.5740 -1.8487  0.3399
  888MOL0     H19815   9.898   0.299  10.384 -2.4892  0.4124  1.3680
  888MOL0     H19816  10.052   0.254  10.441  0.3057 -0.7882 -1.4793
  888MOL0     H19817  10.002   0.033  10.495  2.2372  0.2735 -1.1830
  888MOL0     H19818   9.934   0.057  10.326 -0.8462  2.2092  0.9906
  888MOL0     H19819   9.699   0.079  10.442  0.3117  1.2912 -1.3811
  888MOL0     H19820   9.787   0.026  10.591  3.2645  0.0314  0.2874
  888MOL0     H19821   9.754  -0.124  10.321  0.5227  0.1338 -0.3506
  888MOL0     H19822   9.865  -0.176  10.442 -0.3153 -2.6962 -4.9579
  888MOL0     H19823   9.695  -0.189  10.609  0.7935 -1.1737  0.8444
  888MOL0     H19824   9.568  -0.151  10.488  1.6954  1.3418 -1.3479
  888MOL0     H19825   9.630  -0.349  10.342 -3.8006 -2.0499 -0.2314
  888MOL0     H19826   9.760  -0.392  10.449  1.5098  2.4215 -0.5229
  888MOL0     H19827   9.555  -0.531  10.485  1.8007 -1.0228 -0.5621
  888MOL0     H19828   9.452  -0.401  10.526 -1.1561 -3.3492 -1.1111
  888MOL0     H19829   9.722  -0.485  10.658  0.9800  1.5023  0.8333
  888MOL0     H19830   9.610  -0.350  10.715 -0.9680  0.8889 -2.6065
  888MOL0     H19831   9.337  -0.541  10.700  1.0810  0.2107 -1.9364
  888MOL0     H19832   9.287  -0.732  11.009 -2.4454 -0.7010 -0.2782
  888MOL0     H19833   9.204  -0.617  10.923 -0.3408 -1.1171 -0.9734
  888MOL0     H19834   9.112  -0.839  10.875  0.8693  0.0167  1.3601
  888MOL0     H19835   9.184  -0.774  10.730 -3.0265 -3.5439 -1.0367
  888MOL0     H19836   9.401  -0.902  10.807  0.7097  0.6702 -0.7257
  888MOL0     H19837   9.285  -1.014  10.742  1.9619 -1.2945  1.1452
  888MOL0     H19838   9.183  -1.022  10.997 -0.7998 -0.9296 -1.2219
  888MOL0     H19839   9.344  -0.971  11.030  0.7196 -0.9299 -1.5154
  888MOL0     H19840   9.400  -1.406  10.936  0.2080  1.6110 -3.8328
  888MOL0     H19841   9.249  -1.596  10.932 -1.3582 -1.0791 -0.7576
  888MOL0     H19842   8.868  -1.711  11.106  1.5725 -1.2424  2.4411
  888MOL0     H19843   8.743  -1.885  11.198 -0.4278  1.4274 -0.6263
  888MOL0     H19844   8.652  -2.202  10.947  0.0473 -1.9340 -2.1340
  888MOL0     H19845   8.783  -2.315  10.986  0.1524 -1.3745  0.4698
  888MOL0     H19846   8.646  -2.416  11.153  1.2887 -2.4636 -4.4720
  888MOL0     H19847   8.525  -2.283  11.150 -0.7499  2.5214 -0.7463
  888MOL0     H19848   8.475  -2.344  10.912 -1.5206 -0.5319  0.2212
  888MOL0     H19849   8.573  -2.496  10.949  2.9602  0.8676  3.4142
  888MOL0     H19850   8.341  -2.391  11.084  0.5596  0.9488  0.2084
  888MOL0     H19851   8.417  -2.545  11.136  0.4575 -1.3317 -0.5675
  888MOL0     H19852   8.374  -2.628  10.904  0.0322  0.2123 -1.2304
  888MOL0     H19853   8.260  -2.495  10.875 -0.2509  0.2831 -0.0061
  888MOL0     H19854   8.226  -2.678  11.115  0.3492  4.1322  2.4241
  888MOL0     H19855   8.137  -2.528  11.078 -0.1865 -0.9091  0.0489
  888MOL0     H19856   8.138  -2.773  10.892 -0.0540 -2.0140  1.4013
  888MOL0     H19857   8.046  -2.632  10.868 -0.7417 -1.0382  0.1056
  888MOL0     H19858   7.953  -2.704  11.119 -1.5764 -0.8632  0.0309
  888MOL0     H19859   7.895  -2.791  10.975 -1.5341  1.2703  3.2986
  888MOL0     H19860   8.935  -2.160  10.911  0.2733 -0.4624  0.7838
  888MOL0     H19861   9.043  -1.992  10.826  0.3117 -1.1234  1.2454
  888MOL0     H19862   8.913  -1.345  10.867  0.0795  0.4766  2.4952
  888MOL0     H19863   9.055  -1.145  10.888  2.4558  1.7307  2.8618
  888MOL0     H19864   9.992   0.492  10.438 -1.3346 -1.1950 -0.4737
  888MOL0     H19865  10.028   0.718  10.541  1.9324  0.3465  1.8088
  888MOL0     H19866  10.223   0.981  10.985  2.1709  2.7201 -2.0374
  888MOL0     H19867  10.209   1.234  11.039  0.1197 -1.4204  1.7039
  888MOL0     H19868  10.200   1.456  11.038  0.1054 -5.0643 -1.8681
  888MOL0     H19869  10.061   1.418  11.148  0.1080 -1.0241 -0.4590
  888MOL0     H19870   9.994   1.631  10.980  0.7236  1.1172  0.8192
  888MOL0     H19871  10.155   1.667  11.020 -1.4399  0.9255 -3.1211
  888MOL0     H19872  10.085   1.638  11.278 -1.7652 -3.4455  0.8386
  888MOL0     H19873   9.919   1.625  11.210 -0.2769 -0.3492 -3.2780
  888MOL0     H19874  10.118   1.855  11.201  1.5016 -1.3646  1.7724
  888MOL0     H19875   9.956   1.859  11.126  0.1709  1.8267  0.0603
  888MOL0     H19876   9.825   1.875  11.510 -0.3810 -2.6902  0.1159
  888MOL0     H19877   9.884   1.272  10.790  3.9474  1.4614 -5.7069
  888MOL0     H19878   9.772   0.968  10.734 -1.9521  2.8789  0.9068
  888MOL0     H19879   9.813   1.120  10.643 -0.4518  0.9298  2.0920
  888MOL0     H19880   9.914   0.970  10.628  2.3969 -0.9654  2.4501
  889MOL0     O19881   3.946   2.542   6.045 -0.4413  0.0031  0.4255
  889MOL0     C19882   3.913   2.658   6.064 -0.0229 -0.7121  1.2001
  889MOL0     O19883   3.834   2.698   6.167 -0.6187 -0.1887 -0.2835
  889MOL0     C19884   3.801   2.616   6.273  0.2446  0.5061 -0.0952
  889MOL0     C19885   3.894   2.576   6.366 -1.4383  0.0220  0.4846
  889MOL0     C19886   3.868   2.507   6.483 -0.5182  1.0486 -0.8413
  889MOL0     C19887   3.738   2.473   6.509 -0.4700  0.1155 -0.1113
  889MOL0     O19888   3.719   2.410   6.633  0.7386 -0.4175 -0.8706
  889MOL0     C19889   3.582   2.364   6.662  0.0701 -0.0344 -0.5777
  889MOL0     C19890   3.526   2.413   6.801  0.0792 -0.0858 -0.4268
  889MOL0     C19891   3.486   2.561   6.787 -0.5736 -0.5153  0.3205
  889MOL0     C19892   3.432   2.617   6.918 -0.2876 -0.4976  0.3460
  889MOL0     C19893   3.355   2.741   6.899  0.1951  0.0831  0.0718
  889MOL0     C19894   3.303   2.808   7.027 -0.6145  0.2029  2.0838
  889MOL0     C19895   3.201   2.707   7.095  0.3666 -0.1254 -1.1376
  889MOL0     C19896   3.123   2.787   7.199 -0.4354 -0.8509 -0.5740
  889MOL0     N19897   3.056   2.712   7.306  0.1612  0.7016 -0.2742
  889MOL0     C19898   3.106   2.651   7.421 -0.2013  0.0840 -0.2004
  889MOL0     C19899   2.997   2.605   7.487  0.5720  0.6667  0.5965
  889MOL0     C19900   2.992   2.533   7.615 -0.6315  0.7746  0.2746
  889MOL0     C19901   3.082   2.604   7.719 -0.3661  0.1389 -0.2256
  889MOL0     C19902   3.017   2.743   7.759  1.1368 -0.4304  0.8251
  889MOL0     C19903   2.865   2.738   7.790 -0.5150 -0.2813  0.0878
  889MOL0     O19904   2.805   2.847   7.867  0.2611 -0.6144  0.6568
  889MOL0     C19905   2.734   2.932   7.790 -0.0032 -1.5628 -0.4157
  889MOL0     C19906   2.794   3.013   7.686  0.0259  0.9571 -0.5477
  889MOL0     C19907   2.721   3.120   7.619 -0.3484 -0.2388  0.5930
  889MOL0     C19908   2.588   3.138   7.652 -0.6718  0.6663  0.8498
  889MOL0     C19909   2.505   3.234   7.569 -0.6829  0.2207 -0.0440
  889MOL0     O19910   2.368   3.232   7.571 -0.1513  0.3929 -0.7435
  889MOL0     C19911   2.306   3.333   7.499 -0.1339 -0.4431 -0.5290
  889MOL0     C19912   2.259   3.311   7.364  0.0997 -0.0038 -0.6463
  889MOL0     C19913   2.209   3.412   7.281  0.3586  0.5514 -0.1534
  889MOL0     C19914   2.197   3.541   7.338  1.2478 -0.1183  0.4115
  889MOL0     O19915   2.140   3.645   7.269 -0.5187 -0.5737 -0.3389
  889MOL0     C19916   2.206   3.704   7.163  0.1436 -0.4256  0.4514
  889MOL0     C19917   2.230   3.853   7.188  0.1021 -0.0960 -0.9917
  889MOL0     C19918   2.121   3.929   7.255  0.4984  0.0832  0.6038
  889MOL0     C19919   2.170   4.077   7.274  0.0722  0.3810  0.2914
  889MOL0     C19920   2.051   4.157   7.337  0.6904 -0.1466  0.4096
  889MOL0     C19921   2.070   4.186   7.486 -0.1253  0.5272  0.5621
  889MOL0     C19922   1.967   4.287   7.545 -0.1118  0.7192  0.3990
  889MOL0     C19923   1.984   4.322   7.688 -0.0535 -0.7439 -0.1026
  889MOL0    Cl19924   1.859   4.449   7.743  0.2558  0.1265  0.7275
  889MOL0     C19925   2.251   3.573   7.465 -0.1917  0.5786  0.1496
  889MOL0     C19926   2.305   3.468   7.541 -0.5528  0.1522  0.6247
  889MOL0     O19927   2.566   3.309   7.498 -0.1301 -0.1624 -0.3802
  889MOL0     C19928   2.536   3.067   7.760  0.4373 -0.1688 -0.0097
  889MOL0     C19929   2.607   2.964   7.830  0.1398  0.2904 -0.3759
  889MOL0     N19930   2.889   2.638   7.411  0.0222 -0.2746  1.0001
  889MOL0     N19931   2.923   2.709   7.312 -0.1782  0.7526  1.2203
  889MOL0     C19932   3.644   2.508   6.407  0.2681 -0.0614 -0.6378
  889MOL0     C19933   3.668   2.579   6.287 -0.3112 -0.1591  0.0471
  889MOL0     C19934   3.960   2.765   5.970  0.2886 -0.1246  0.0102
  889MOL0     C19935   3.872   2.867   5.945  0.4329 -0.7221 -0.7046
  889MOL0     C19936   3.906   2.967   5.850  0.0305  0.2283 -0.4479
  889MOL0     C19937   4.029   2.965   5.779 -0.1712 -0.5186  0.4243
  889MOL0     O19938   4.060   3.063   5.685 -0.3003  0.2499 -0.5006
  889MOL0     C19939   4.177   3.145   5.702  0.1132 -0.0171 -0.5898
  889MOL0     C19940   4.151   3.297   5.686 -0.2050  1.0930  0.4457
  889MOL0     C19941   4.051   3.355   5.796 -0.2773 -0.0409  0.5760
  889MOL0     C19942   4.118   3.347   5.932 -1.1281  0.4559 -0.1806
  889MOL0     C19943   4.261   3.390   5.949  0.1409 -0.0365  0.6000
  889MOL0     C19944   4.381   3.420   5.967  0.3335 -0.7081 -0.5984
  889MOL0     C19945   4.108   2.857   5.803  0.3928 -0.0083 -1.3882
  889MOL0     C19946   4.077   2.756   5.890 -0.0142  0.5648 -1.1322
  889MOL0     C19947   4.177   2.643   5.887  1.0615 -0.4028 -0.2294
  889MOL0     H19948   3.997   2.611   6.356 -1.2337  0.1531  2.5679
  889MOL0     H19949   3.950   2.465   6.540 -0.1385  2.3159 -0.4143
  889MOL0     H19950   3.511   2.409   6.591 -1.1550  0.6563  1.0156
  889MOL0     H19951   3.591   2.255   6.661  0.6516  0.0043 -2.2911
  889MOL0     H19952   3.599   2.394   6.880  0.1373  1.0586 -0.1897
  889MOL0     H19953   3.438   2.351   6.821 -0.2382  0.7015  0.7093
  889MOL0     H19954   3.406   2.566   6.713  1.8192  2.3837 -2.4140
  889MOL0     H19955   3.570   2.628   6.763  1.5546 -1.6423  3.7767
  889MOL0     H19956   3.366   2.539   6.958  0.3039 -1.8704 -1.2111
  889MOL0     H19957   3.511   2.628   6.993  0.3246 -3.3762  0.2386
  889MOL0     H19958   3.409   2.829   6.862  0.0665  0.1892  0.1358
  889MOL0     H19959   3.262   2.731   6.843 -0.5971 -1.4872  1.6021
  889MOL0     H19960   3.390   2.834   7.089 -0.4540  0.4601  1.7547
  889MOL0     H19961   3.244   2.896   7.002 -0.5363 -0.2785  0.0577
  889MOL0     H19962   3.250   2.620   7.139  0.6506 -0.1457 -1.4837
  889MOL0     H19963   3.130   2.676   7.018  1.1166 -0.2259 -1.8062
  889MOL0     H19964   3.189   2.856   7.252 -2.4396  0.8779 -0.1957
  889MOL0     H19965   3.051   2.856   7.155 -0.0792  3.6509  4.8026
  889MOL0     H19966   3.207   2.644   7.459  0.2402 -0.3248 -1.4215
  889MOL0     H19967   2.888   2.531   7.648 -0.3954 -0.9986  1.0207
  889MOL0     H19968   3.030   2.431   7.604  2.7053  1.8462  0.7683
  889MOL0     H19969   3.071   2.544   7.810  1.7979  0.9591  0.6431
  889MOL0     H19970   3.184   2.606   7.681 -0.7574 -1.8140 -1.5445
  889MOL0     H19971   3.021   2.796   7.663 -2.0123 -3.0842 -1.0178
  889MOL0     H19972   3.061   2.805   7.837 -1.1717  1.1108  1.0083
  889MOL0     H19973   2.847   2.651   7.855  1.4539 -3.1761 -2.9068
  889MOL0     H19974   2.814   2.720   7.695 -0.4781  4.2621 -1.0031
  889MOL0     H19975   2.894   2.984   7.656  0.1509  1.3837 -0.5542
  889MOL0     H19976   2.771   3.179   7.543  0.4276 -0.3915  0.9753
  889MOL0     H19977   2.277   3.211   7.325  1.8295 -1.2255  2.8396
  889MOL0     H19978   2.191   3.390   7.176 -1.2301 -1.8593  0.5266
  889MOL0     H19979   2.302   3.655   7.148  1.0884  1.1796  1.0543
  889MOL0     H19980   2.141   3.693   7.076 -2.6112  4.4279  1.5233
  889MOL0     H19981   2.313   3.867   7.258 -2.2666 -0.0975  2.0226
  889MOL0     H19982   2.261   3.885   7.088 -0.2548  1.2604 -0.6926
  889MOL0     H19983   2.044   3.929   7.177  3.3742 -2.0737 -2.5259
  889MOL0     H19984   2.081   3.882   7.344  3.0782  1.7736  2.8315
  889MOL0     H19985   2.210   4.135   7.190 -0.9472  2.1315  0.9592
  889MOL0     H19986   2.249   4.071   7.350  0.2976 -2.9971 -0.0636
  889MOL0     H19987   1.951   4.115   7.327 -0.0394  1.7768 -0.7421
  889MOL0     H19988   2.045   4.250   7.281 -0.7900 -0.4508  0.0209
  889MOL0     H19989   2.065   4.101   7.555 -2.7938  1.1575  1.2300
  889MOL0     H19990   2.170   4.231   7.487  0.8687 -1.4985 -0.6487
  889MOL0     H19991   1.874   4.230   7.534 -0.5191  1.0272  2.0052
  889MOL0     H19992   1.956   4.379   7.487  1.5465  2.8022  3.1495
  889MOL0     H19993   1.951   4.240   7.753 -1.8020  0.7237  0.9604
  889MOL0     H19994   2.087   4.353   7.707 -0.1470 -1.3463  1.6429
  889MOL0     H19995   2.248   3.676   7.499 -1.4884  1.4797 -2.4345
  889MOL0     H19996   2.357   3.516   7.623  0.5720  2.0144 -1.0706
  889MOL0     H19997   2.434   3.093   7.787 -0.0766  0.3883 -2.2240
  889MOL0     H19998   2.556   2.923   7.916 -2.6711  1.8332 -1.1871
  889MOL0     H19999   3.540   2.481   6.421  0.6230 -0.6444  1.1613
  889MOL0     H20000   3.603   2.618   6.210  2.0218  3.3985 -0.3415
  889MOL0     H20001   3.773   2.863   5.989  1.6958 -1.9060  2.3061
  889MOL0     H20002   3.829   3.036   5.817 -1.3196 -1.7969 -1.7802
  889MOL0     H20003   4.237   3.097   5.625 -2.1380  2.8870 -4.5177
  889MOL0     H20004   4.228   3.127   5.797 -0.0611 -3.0798 -0.9840
  889MOL0     H20005   4.121   3.312   5.582  3.0797  1.2283 -0.5942
  889MOL0     H20006   4.245   3.350   5.701  0.9867 -0.8750  0.2791
  889MOL0     H20007   3.959   3.296   5.802 -0.2968  0.0666  1.7192
  889MOL0     H20008   4.010   3.455   5.779 -3.1467 -1.2444 -0.2195
  889MOL0     H20009   4.058   3.386   6.014 -0.3746 -1.9283  1.5911
  889MOL0     H20010   4.121   3.239   5.950  1.9773  0.5307  0.3033
  889MOL0     H20011   4.482   3.453   5.980 -0.1658  0.6413  0.0939
  889MOL0     H20012   4.206   2.849   5.756  0.4453 -0.1295 -1.2613
  889MOL0     H20013   4.273   2.687   5.857  0.1905  1.0910 -0.9866
  889MOL0     H20014   4.191   2.594   5.983  0.9495 -2.6094 -1.2719
  889MOL0     H20015   4.162   2.558   5.819 -2.4964 -1.7003  1.9163
  890MOL0     O20016   0.684   4.968   5.709 -0.0530 -0.7495 -0.0313
  890MOL0     C20017   0.742   4.860   5.712  0.6753  0.1087  0.2660
  890MOL0     O20018   0.883   4.843   5.726 -0.5941 -1.1972 -0.3953
  890MOL0     C20019   0.964   4.956   5.723 -0.2842  0.5993 -0.2067
  890MOL0     C20020   1.025   5.002   5.839  0.1745  0.7091 -0.6490
  890MOL0     C20021   1.107   5.121   5.843  0.0367 -0.3049  0.1296
  890MOL0     C20022   1.126   5.190   5.722 -0.4249 -0.4274  0.3310
  890MOL0     O20023   1.220   5.293   5.702  0.1297 -0.2466 -0.0075
  890MOL0     C20024   1.309   5.329   5.815  0.3568  0.0106  0.4253
  890MOL0     C20025   1.430   5.415   5.780 -0.6722 -0.7401  0.5505
  890MOL0     C20026   1.513   5.446   5.911  0.2214  0.2865 -1.4054
  890MOL0     C20027   1.452   5.568   5.983 -0.1283  0.4665 -0.3014
  890MOL0     C20028   1.542   5.617   6.103 -0.2243 -0.5141 -0.4848
  890MOL0     C20029   1.495   5.755   6.150 -0.8871  0.8738  0.8502
  890MOL0     C20030   1.547   5.874   6.060 -0.1731  0.8949 -0.7045
  890MOL0     C20031   1.502   6.011   6.098 -0.2195 -1.1897  0.4736
  890MOL0     N20032   1.541   6.048   6.232  0.7313  0.1199 -0.3926
  890MOL0     C20033   1.669   6.079   6.265  0.1823 -0.1239 -0.1053
  890MOL0     C20034   1.659   6.103   6.395 -0.1534  0.4343 -0.6007
  890MOL0     C20035   1.787   6.122   6.474 -0.0040 -1.1207  0.4565
  890MOL0     C20036   1.828   6.006   6.564  0.0686  0.0118 -0.9793
  890MOL0     C20037   1.850   5.864   6.503  0.7312 -0.3730 -0.4668
  890MOL0     C20038   1.844   5.749   6.605  0.3969  0.3478 -0.6485
  890MOL0     O20039   1.873   5.630   6.544 -0.7897 -0.0041  0.2928
  890MOL0     C20040   1.790   5.541   6.478  0.3916 -0.2287 -0.7130
  890MOL0     C20041   1.651   5.559   6.483 -0.0901 -0.3505 -0.2004
  890MOL0     C20042   1.569   5.456   6.435 -0.6650 -0.7665  0.1888
  890MOL0     C20043   1.616   5.327   6.408 -0.1262 -0.4338 -0.2906
  890MOL0     C20044   1.529   5.207   6.380  0.2370 -1.7585  0.5866
  890MOL0     O20045   1.398   5.222   6.408  0.7904  0.6950 -0.2890
  890MOL0     C20046   1.312   5.125   6.353 -0.4426  0.5604  0.9234
  890MOL0     C20047   1.213   5.073   6.437  0.2205 -0.3720 -0.3599
  890MOL0     C20048   1.121   4.976   6.401  1.1851  0.3634  0.5284
  890MOL0     C20049   1.133   4.917   6.266 -0.5775 -0.9368 -0.4617
  890MOL0     O20050   1.059   4.815   6.219  0.1722  0.3898 -0.4949
  890MOL0     C20051   0.933   4.789   6.299 -0.6112 -0.4806  0.2577
  890MOL0     C20052   0.857   4.676   6.232 -0.3201 -0.0670 -0.1685
  890MOL0     C20053   0.805   4.723   6.094 -0.1749 -0.4913 -0.1983
  890MOL0     C20054   0.684   4.638   6.043 -0.2097  0.1888  0.1100
  890MOL0     C20055   0.550   4.706   6.086 -0.3021  0.2568  0.6995
  890MOL0     C20056   0.424   4.605   6.065 -0.2078  0.0712 -0.7323
  890MOL0     C20057   0.416   4.483   6.169  0.0100 -0.1865  0.6199
  890MOL0     C20058   0.282   4.424   6.158  0.2848 -0.3274  0.5238
  890MOL0    Cl20059   0.175   4.535   6.228  0.2070  0.1418  0.0025
  890MOL0     C20060   1.230   4.970   6.183 -0.4010  0.5146 -0.0946
  890MOL0     C20061   1.317   5.074   6.221 -0.0109  1.0031  0.8454
  890MOL0     O20062   1.584   5.107   6.346 -0.0032  0.4016 -0.1042
  890MOL0     C20063   1.756   5.317   6.386  0.2446 -0.6118 -0.5893
  890MOL0     C20064   1.842   5.426   6.421 -0.4450  0.2036  0.9274
  890MOL0     N20065   1.525   6.087   6.445  0.5731 -0.3601 -0.1613
  890MOL0     N20066   1.456   6.062   6.341  0.6966  0.0781  1.0578
  890MOL0     C20067   1.059   5.147   5.601 -0.2936  0.5274 -1.0131
  890MOL0     C20068   0.980   5.031   5.607  0.0122 -0.4605  0.2058
  890MOL0     C20069   0.673   4.732   5.686 -0.2372  0.3213 -0.5981
  890MOL0     C20070   0.749   4.625   5.652 -0.4182  0.0153 -0.5975
  890MOL0     C20071   0.685   4.507   5.625  0.7734  0.6493 -0.3526
  890MOL0     C20072   0.558   4.482   5.636  0.8312  0.2328 -0.2790
  890MOL0     O20073   0.517   4.355   5.611  0.4611 -0.4826  0.7210
  890MOL0     C20074   0.385   4.315   5.650 -0.1959 -0.3711 -0.6468
  890MOL0     C20075   0.400   4.186   5.724 -0.8723  0.2867  0.2254
  890MOL0     C20076   0.294   4.154   5.825 -0.4508 -1.6221 -0.5449
  890MOL0     C20077   0.152   4.185   5.778 -0.0338 -0.1817  0.3323
  890MOL0     C20078   0.129   4.140   5.643 -0.0253 -0.2406  0.4380
  890MOL0     C20079   0.098   4.104   5.533 -0.2167  0.6881  0.0237
  890MOL0     C20080   0.475   4.592   5.664 -0.2278 -0.3800  0.4203
  890MOL0     C20081   0.534   4.714   5.698 -0.7732 -0.1386 -0.1910
  890MOL0     C20082   0.435   4.816   5.757 -1.2211 -0.0254 -0.7808
  890MOL0     H20083   1.015   4.952   5.935  0.2173  0.5246 -0.7421
  890MOL0     H20084   1.146   5.148   5.940 -5.8382 -0.8739  3.1108
  890MOL0     H20085   1.252   5.367   5.900  3.4972 -2.3175  3.8564
  890MOL0     H20086   1.349   5.234   5.852  2.6944  0.0881 -1.5992
  890MOL0     H20087   1.410   5.507   5.724  1.8850 -0.1809  0.4058
  890MOL0     H20088   1.488   5.353   5.711 -2.9550 -2.6256  0.1808
  890MOL0     H20089   1.619   5.461   5.890  0.3789 -1.5981 -2.1004
  890MOL0     H20090   1.509   5.361   5.979  1.1597  2.2428  1.2407
  890MOL0     H20091   1.446   5.648   5.909 -1.1215  0.2894 -0.4260
  890MOL0     H20092   1.350   5.557   6.022 -0.0862  1.8015  0.2325
  890MOL0     H20093   1.533   5.554   6.192 -0.2582  0.3109  0.1113
  890MOL0     H20094   1.640   5.621   6.056  0.1278 -0.2657  0.2543
  890MOL0     H20095   1.388   5.760   6.171 -1.6590  0.2132 -2.4264
  890MOL0     H20096   1.544   5.774   6.246  2.3999  4.4631 -1.2396
  890MOL0     H20097   1.511   5.851   5.959  0.7616  0.2846 -0.9082
  890MOL0     H20098   1.656   5.875   6.060  0.1189 -1.4462  4.1268
  890MOL0     H20099   1.534   6.089   6.028 -2.6656  0.0634  0.6618
  890MOL0     H20100   1.395   6.020   6.077 -0.0601  0.7192  0.3505
  890MOL0     H20101   1.764   6.072   6.214 -0.7631 -3.6771 -1.6136
  890MOL0     H20102   1.869   6.144   6.406 -1.7906 -1.0224 -1.7790
  890MOL0     H20103   1.763   6.212   6.532  0.5536 -0.3184 -0.5215
  890MOL0     H20104   1.912   6.026   6.631  0.7157 -1.2720 -1.3620
  890MOL0     H20105   1.745   5.998   6.635  1.6715  2.7056  1.3997
  890MOL0     H20106   1.945   5.862   6.449  0.6878 -0.0604 -0.5564
  890MOL0     H20107   1.783   5.848   6.419  2.4405  1.1607 -2.2406
  890MOL0     H20108   1.740   5.757   6.640  1.2563 -0.3174  2.4038
  890MOL0     H20109   1.908   5.758   6.694  1.7763  0.0816 -1.5871
  890MOL0     H20110   1.617   5.660   6.501 -1.7545 -0.6222 -1.5708
  890MOL0     H20111   1.462   5.475   6.437 -0.7917 -1.4381  2.0107
  890MOL0     H20112   1.214   5.110   6.539  0.9037  0.7524 -0.7466
  890MOL0     H20113   1.046   4.933   6.467 -0.5967  1.7299 -0.5164
  890MOL0     H20114   0.957   4.757   6.401  1.5675 -3.3261 -1.0325
  890MOL0     H20115   0.878   4.884   6.303  1.0321  0.5198  3.4081
  890MOL0     H20116   0.915   4.583   6.238 -2.5712 -1.6891 -1.6594
  890MOL0     H20117   0.766   4.667   6.293 -0.6086  0.3878 -0.5261
  890MOL0     H20118   0.778   4.829   6.102  2.3939  0.2804 -0.8898
  890MOL0     H20119   0.889   4.726   6.024 -1.0193 -0.9068 -1.2591
  890MOL0     H20120   0.693   4.538   6.087  0.2666  0.5021  0.7436
  890MOL0     H20121   0.683   4.614   5.937  0.5048  0.9011 -0.0714
  890MOL0     H20122   0.536   4.796   6.025  2.0923 -1.3690 -2.5693
  890MOL0     H20123   0.555   4.746   6.188  1.7986  1.8110  0.0601
  890MOL0     H20124   0.330   4.660   6.066  0.5679  1.4874  1.0202
  890MOL0     H20125   0.423   4.571   5.961  0.4284  2.3614 -1.5570
  890MOL0     H20126   0.439   4.514   6.272 -1.0332  0.6690  0.6211
  890MOL0     H20127   0.486   4.405   6.140  1.9585  1.6261  0.2250
  890MOL0     H20128   0.260   4.408   6.052 -2.4074  0.3447  0.8888
  890MOL0     H20129   0.281   4.325   6.205  1.6570 -0.7648 -0.3200
  890MOL0     H20130   1.238   4.924   6.084 -2.2003  1.1657 -0.5709
  890MOL0     H20131   1.386   5.125   6.155 -0.7226  1.3989  0.3969
  890MOL0     H20132   1.800   5.220   6.361 -0.6641 -0.9447 -0.9329
  890MOL0     H20133   1.951   5.425   6.422 -0.3566 -2.9171  3.6984
  890MOL0     H20134   1.076   5.195   5.505 -1.7742 -0.8386 -2.0077
  890MOL0     H20135   0.935   4.991   5.517  2.2364 -1.2954 -0.6179
  890MOL0     H20136   0.851   4.652   5.630 -0.3040 -0.4745 -0.6778
  890MOL0     H20137   0.753   4.431   5.586  0.0555  0.5735 -1.5097
  890MOL0     H20138   0.327   4.313   5.557  0.4335 -0.4283 -1.0465
  890MOL0     H20139   0.337   4.384   5.720  1.3123 -1.3637  1.4908
  890MOL0     H20140   0.501   4.182   5.767 -0.9305 -1.9159  0.2724
  890MOL0     H20141   0.397   4.094   5.665  1.3587  0.2505  0.0876
  890MOL0     H20142   0.310   4.210   5.918 -0.2395 -0.4410 -1.2720
  890MOL0     H20143   0.302   4.046   5.841 -3.0231 -1.7907  0.0161
  890MOL0     H20144   0.071   4.148   5.842  0.9078 -2.5088  0.2562
  890MOL0     H20145   0.147   4.294   5.775 -1.3935 -0.2088  0.9177
  890MOL0     H20146   0.049   4.065   5.446 -1.0338 -0.3859  0.9464
  890MOL0     H20147   0.367   4.594   5.672 -0.3550  1.8969 -1.0166
  890MOL0     H20148   0.454   4.924   5.763  0.4149 -0.3250  4.6468
  890MOL0     H20149   0.349   4.814   5.690 -2.0723 -1.4987  0.3234
  890MOL0     H20150   0.402   4.799   5.860 -2.2335  1.6720 -0.7851
  891MOL0     O20151  10.658   9.590   1.750  0.7374  0.6107  0.4359
  891MOL0     C20152  10.587   9.504   1.699  0.9967  0.3252 -1.7690
  891MOL0     O20153  10.522   9.512   1.580 -0.0821 -0.6795 -0.4137
  891MOL0     C20154  10.527   9.632   1.516  0.7560  0.4739  0.1116
  891MOL0     C20155  10.496   9.755   1.571 -0.3176  0.4165 -1.3190
  891MOL0     C20156  10.500   9.874   1.508 -0.1636  0.0672  0.1541
  891MOL0     C20157  10.522   9.869   1.367 -0.5183  0.1086 -0.4268
  891MOL0     O20158  10.517   9.990   1.301 -0.4310 -0.1800 -0.0235
  891MOL0     C20159  10.619  10.022   1.205 -0.6007 -0.9715 -0.3675
  891MOL0     C20160  10.626  10.180   1.175  0.4923  1.0507  0.0670
  891MOL0     C20161  10.499  10.227   1.089  0.2683 -0.2720 -0.1046
  891MOL0     C20162  10.547  10.244   0.938  0.2105  0.6112 -0.2266
  891MOL0     C20163  10.542  10.111   0.852  0.4926  1.0119  0.0073
  891MOL0     C20164  10.584  10.127   0.713  0.1016 -0.2196 -0.6574
  891MOL0     C20165  10.532  10.012   0.628  0.0774 -0.4329  0.1314
  891MOL0     C20166  10.380  10.029   0.598 -0.7453 -0.0163  0.7289
  891MOL0     N20167  10.368  10.132   0.500  0.1203  0.1303  0.1239
  891MOL0     C20168  10.387  10.127   0.363 -1.0579 -0.1545  0.2110
  891MOL0     C20169  10.340  10.246   0.323 -0.0519 -0.4074  0.2295
  891MOL0     C20170  10.352  10.307   0.189 -0.6890  1.3344  0.3655
  891MOL0     C20171  10.483  10.393   0.198 -0.2344  0.0468  0.5398
  891MOL0     C20172  10.532  10.451   0.061 -0.3045 -0.0139 -0.3518
  891MOL0     C20173  10.660  10.528   0.094 -0.0019  0.2606 -0.3771
  891MOL0     O20174  10.626  10.649   0.159 -0.0084  0.7183  0.4005
  891MOL0     C20175  10.699  10.751   0.105  0.2191  0.3443 -0.4578
  891MOL0     C20176  10.627  10.871   0.085 -0.4777  0.3183 -0.0070
  891MOL0     C20177  10.696  10.987   0.045  0.5087 -0.4460 -0.5097
  891MOL0     C20178  10.834  10.991   0.034 -0.7681 -0.0029 -0.3527
  891MOL0     C20179  10.903  11.110  -0.010  0.2541 -0.2709  0.9880
  891MOL0     O20180  10.837  11.213  -0.062 -0.1593 -0.0766 -0.8004
  891MOL0     C20181  10.910  11.328  -0.100 -1.4436 -0.0924 -0.1993
  891MOL0     C20182  10.997  11.317  -0.218 -0.6586  0.5573  0.4182
  891MOL0     C20183  11.073  11.425  -0.271  0.1413 -0.0703  0.0141
  891MOL0     C20184  11.045  11.546  -0.205  0.0466 -0.3237  0.8976
  891MOL0     O20185  11.119  11.664  -0.244  0.0435  0.9111 -0.6054
  891MOL0     C20186  11.095  11.697  -0.385  0.1517  0.1027 -0.1892
  891MOL0     C20187  10.953  11.751  -0.401  0.0487  0.6636 -0.3880
  891MOL0     C20188  10.849  11.641  -0.446  0.4178 -0.5826 -0.0253
  891MOL0     C20189  10.704  11.699  -0.472  0.5981 -0.4038  1.1855
  891MOL0     C20190  10.655  11.669  -0.617  0.1265  0.2252  0.0867
  891MOL0     C20191  10.517  11.738  -0.645  0.7121  0.0223  0.0692
  891MOL0     C20192  10.449  11.687  -0.773  0.4842 -0.6150 -0.9989
  891MOL0     C20193  10.308  11.753  -0.806  0.2860 -0.0437 -0.0231
  891MOL0    Cl20194  10.279  11.923  -0.770 -0.0426  0.0720 -0.1290
  891MOL0     C20195  10.948  11.566  -0.110  0.2500  0.8400 -0.0441
  891MOL0     C20196  10.881  11.458  -0.054  0.4156 -0.8429 -0.0837
  891MOL0     O20197  11.021  11.101   0.002  0.0012 -0.1989 -0.0538
  891MOL0     C20198  10.909  10.858   0.058  0.0352 -0.2471 -0.3899
  891MOL0     C20199  10.837  10.748   0.088 -0.7922 -0.5087 -0.3430
  891MOL0     N20200  10.271  10.309   0.427 -0.3682 -0.0525  0.5957
  891MOL0     N20201  10.291  10.235   0.531  0.5170  0.0232  0.2821
  891MOL0     C20202  10.561   9.754   1.304  0.7056  0.2743  0.3549
  891MOL0     C20203  10.565   9.630   1.378  0.6608  0.0273 -0.1160
  891MOL0     C20204  10.576   9.372   1.776 -0.0909 -0.1718 -0.9757
  891MOL0     C20205  10.580   9.258   1.701 -0.3340  0.3430  0.1979
  891MOL0     C20206  10.583   9.134   1.760  0.5252  0.2797  0.5323
  891MOL0     C20207  10.601   9.129   1.898 -0.1035  0.1362 -0.0582
  891MOL0     O20208  10.615   9.009   1.967  0.1993 -0.4906  0.3078
  891MOL0     C20209  10.760   9.003   1.990 -0.0771  1.2215  0.4386
  891MOL0     C20210  10.831   8.933   1.870 -0.0826 -0.3669  0.4784
  891MOL0     C20211  10.981   8.902   1.891 -0.0495  0.0685 -0.5337
  891MOL0     C20212  11.021   8.755   1.919 -1.0784  0.2073 -0.4843
  891MOL0     C20213  11.165   8.750   1.929  0.4044 -0.1244 -1.2327
  891MOL0     C20214  11.288   8.738   1.936 -0.4445 -0.3611 -0.9050
  891MOL0     C20215  10.605   9.248   1.971  0.5050 -0.1857 -0.4359
  891MOL0     C20216  10.577   9.376   1.915 -0.9439 -0.3336 -0.6881
  891MOL0     C20217  10.580   9.494   2.007  0.4962  0.3591  0.5750
  891MOL0     H20218  10.459   9.764   1.672  1.2441  1.8092 -0.8202
  891MOL0     H20219  10.476   9.963   1.565 -1.2694 -0.3300  0.3427
  891MOL0     H20220  10.714   9.993   1.252 -2.0573 -2.3113  1.8972
  891MOL0     H20221  10.606   9.975   1.107 -2.6709 -2.7964  0.6946
  891MOL0     H20222  10.715  10.202   1.116  0.6716  2.5514  0.8322
  891MOL0     H20223  10.631  10.237   1.269 -1.7851  2.5070 -0.6013
  891MOL0     H20224  10.471  10.330   1.113 -2.7867 -0.1416 -3.3360
  891MOL0     H20225  10.416  10.157   1.100  1.4600 -1.7016  0.1368
  891MOL0     H20226  10.475  10.318   0.900  2.2370  3.6140  1.3124
  891MOL0     H20227  10.648  10.287   0.932 -0.3116  1.8719 -0.2132
  891MOL0     H20228  10.608  10.034   0.893 -1.0912 -1.8128 -2.3325
  891MOL0     H20229  10.442  10.067   0.862  1.4032 -0.5430  3.9691
  891MOL0     H20230  10.543  10.217   0.666 -4.3487 -1.9176 -0.4969
  891MOL0     H20231  10.692  10.142   0.711 -0.1266  2.2478  1.1692
  891MOL0     H20232  10.542   9.918   0.682  0.0220  0.9142  2.6464
  891MOL0     H20233  10.592  10.000   0.537  1.5246 -2.3362  1.2677
  891MOL0     H20234  10.334   9.940   0.553 -2.7798  1.4578 -0.2458
  891MOL0     H20235  10.325  10.054   0.689 -0.4073  2.4031  0.3344
  891MOL0     H20236  10.434  10.058   0.294  0.8621  3.6744 -2.7083
  891MOL0     H20237  10.374  10.230   0.115 -1.3004  1.7770 -0.2842
  891MOL0     H20238  10.263  10.361   0.159 -1.0685  2.5565  3.3187
  891MOL0     H20239  10.473  10.474   0.271  1.3770 -0.2469  1.1267
  891MOL0     H20240  10.565  10.330   0.234 -0.7845 -1.1346 -0.2384
  891MOL0     H20241  10.461  10.516   0.009 -0.1552  1.9999  1.7843
  891MOL0     H20242  10.565  10.366   0.000  1.7203  0.7470 -0.3835
  891MOL0     H20243  10.711  10.548  -0.001  0.2814  0.4696 -0.1814
  891MOL0     H20244  10.726  10.472   0.161 -0.5678 -1.3742 -1.1500
  891MOL0     H20245  10.521  10.863   0.108  0.3775 -2.6773  4.0386
  891MOL0     H20246  10.636  11.076   0.027  1.4452  0.7339  1.7451
  891MOL0     H20247  11.016  11.222  -0.267  5.3192  0.8772  1.3613
  891MOL0     H20248  11.145  11.416  -0.351  1.2496  0.8692  0.8706
  891MOL0     H20249  11.166  11.770  -0.424  1.8455 -2.4673 -2.2714
  891MOL0     H20250  11.112  11.605  -0.442 -3.2287 -1.0051  0.3586
  891MOL0     H20251  10.926  11.802  -0.307  1.9921 -0.2184  0.7130
  891MOL0     H20252  10.961  11.823  -0.483 -1.1155  1.1232 -0.1226
  891MOL0     H20253  10.890  11.600  -0.539  0.5594 -0.6882  0.0839
  891MOL0     H20254  10.846  11.563  -0.370 -0.9466  2.3142  3.1110
  891MOL0     H20255  10.705  11.806  -0.451 -2.8742 -0.3805  1.8379
  891MOL0     H20256  10.630  11.657  -0.403 -3.2640  2.8723 -0.5344
  891MOL0     H20257  10.632  11.561  -0.613  1.3948 -0.0716 -0.3642
  891MOL0     H20258  10.731  11.703  -0.687  0.0566  1.2407  0.4948
  891MOL0     H20259  10.448  11.736  -0.560  0.3157 -2.0132 -0.2544
  891MOL0     H20260  10.542  11.844  -0.648 -0.2767  0.5936  4.6209
  891MOL0     H20261  10.440  11.579  -0.787  0.3353 -0.4732 -2.0849
  891MOL0     H20262  10.517  11.728  -0.849  0.0239  1.2772 -0.4585
  891MOL0     H20263  10.277  11.739  -0.910 -3.5387 -0.4029  0.9893
  891MOL0     H20264  10.235  11.685  -0.760 -1.8739  0.5335 -2.3325
  891MOL0     H20265  10.921  11.670  -0.094 -1.6656  0.2885  0.4824
  891MOL0     H20266  10.793  11.455   0.010  0.1359 -0.5762 -0.4502
  891MOL0     H20267  11.017  10.847   0.059  0.2436  0.7126 -3.1219
  891MOL0     H20268  10.900  10.663   0.111 -1.0227 -0.8748 -1.0369
  891MOL0     H20269  10.586   9.761   1.199 -1.0758 -1.2502 -0.2259
  891MOL0     H20270  10.593   9.541   1.323  0.0632  0.8228 -1.7656
  891MOL0     H20271  10.586   9.267   1.593  0.1546 -3.3925 -0.2290
  891MOL0     H20272  10.564   9.051   1.693 -1.2347 -0.4330  1.8392
  891MOL0     H20273  10.793   8.943   2.076  3.3253  0.3711 -1.2640
  891MOL0     H20274  10.811   9.098   2.006  0.7459  0.7807  0.4795
  891MOL0     H20275  10.834   8.998   1.783  0.5057 -0.5535  0.3562
  891MOL0     H20276  10.781   8.841   1.837 -0.3286 -0.1964  0.3749
  891MOL0     H20277  11.023   8.975   1.961  0.4594  1.4510 -2.2086
  891MOL0     H20278  11.025   8.930   1.795 -0.0593  1.8652 -0.0472
  891MOL0     H20279  10.996   8.722   2.021  1.8096  0.9885  0.5875
  891MOL0     H20280  10.999   8.683   1.840 -2.7922 -0.7635  0.8060
  891MOL0     H20281  11.394   8.726   1.952 -1.0882 -2.2149  3.4235
  891MOL0     H20282  10.590   9.244   2.079  0.2324 -1.1292 -0.4961
  891MOL0     H20283  10.523   9.573   1.959  2.3309  2.5300  1.7686
  891MOL0     H20284  10.534   9.471   2.103 -1.2059 -2.3040 -0.7539
  891MOL0     H20285  10.685   9.527   2.005  0.4461  0.6906 -2.6006
  892MOL0     O20286   1.110   1.697   7.974 -0.7892  0.5736  0.8774
  892MOL0     C20287   1.147   1.706   7.852  0.5305  0.6966 -0.2940
  892MOL0     O20288   1.130   1.817   7.774  0.5835  0.6494  0.3659
  892MOL0     C20289   1.095   1.936   7.828  0.2362  0.1021 -1.1653
  892MOL0     C20290   1.160   1.991   7.945  0.2960 -0.5566 -0.7817
  892MOL0     C20291   1.119   2.111   8.003 -0.8965  0.1598 -0.3005
  892MOL0     C20292   1.025   2.186   7.938  0.1353  0.1046  0.6320
  892MOL0     O20293   0.978   2.305   7.987  0.4233 -0.2257 -0.4670
  892MOL0     C20294   1.009   2.343   8.120  0.5424 -0.1564 -0.9012
  892MOL0     C20295   1.140   2.436   8.144  0.2474  0.5101  0.0958
  892MOL0     C20296   1.165   2.486   8.289  0.3123  0.7383 -0.0830
  892MOL0     C20297   1.069   2.597   8.352  0.2900  0.4777 -0.5128
  892MOL0     C20298   1.117   2.739   8.301 -0.7744  0.4628 -0.1268
  892MOL0     C20299   1.233   2.781   8.409  0.2476  1.2092  1.0441
  892MOL0     C20300   1.270   2.938   8.388  1.3348 -0.1137 -0.3691
  892MOL0     C20301   1.333   2.971   8.250  0.0077  0.4053 -0.1367
  892MOL0     N20302   1.387   3.106   8.245 -0.1074 -0.0210  0.4014
  892MOL0     C20303   1.333   3.224   8.300 -0.1525  0.1033 -0.2685
  892MOL0     C20304   1.429   3.315   8.299 -0.4438 -0.1091 -0.6324
  892MOL0     C20305   1.428   3.447   8.367  0.5885  0.3100  0.3001
  892MOL0     C20306   1.430   3.438   8.521  0.5082  0.0819  0.4300
  892MOL0     C20307   1.532   3.343   8.586  0.4508  0.2050  0.1705
  892MOL0     C20308   1.492   3.332   8.735 -0.5674 -0.0290  0.0240
  892MOL0     O20309   1.373   3.253   8.750 -0.5140  0.2714  0.9446
  892MOL0     C20310   1.380   3.116   8.751  0.0054  0.0347  0.0155
  892MOL0     C20311   1.490   3.033   8.745 -0.4652  0.1423 -0.3820
  892MOL0     C20312   1.482   2.899   8.760  0.4679 -0.5000  0.3374
  892MOL0     C20313   1.357   2.838   8.771 -0.2552 -0.5089  0.0502
  892MOL0     C20314   1.345   2.689   8.762 -0.7305  0.5191 -0.5440
  892MOL0     O20315   1.225   2.636   8.730 -0.4928 -0.2051 -0.4795
  892MOL0     C20316   1.212   2.500   8.740 -1.0090  0.2614  0.4519
  892MOL0     C20317   1.152   2.446   8.849  0.5465 -0.3968  0.2059
  892MOL0     C20318   1.127   2.309   8.858 -0.0688 -0.4992  0.2232
  892MOL0     C20319   1.175   2.226   8.755 -0.1305 -0.2827  0.0811
  892MOL0     O20320   1.163   2.090   8.747  0.7591  0.0051  0.1571
  892MOL0     C20321   1.045   2.036   8.803 -0.1849  0.4405  0.6904
  892MOL0     C20322   1.029   1.895   8.744 -0.0610  0.7484 -0.2057
  892MOL0     C20323   0.905   1.818   8.808  0.4961 -0.0300  0.0057
  892MOL0     C20324   0.939   1.662   8.810 -0.4328 -0.9130  0.4484
  892MOL0     C20325   0.806   1.578   8.824  0.8022 -0.2487  0.0580
  892MOL0     C20326   0.731   1.607   8.950 -0.3223 -0.0078 -0.5165
  892MOL0     C20327   0.595   1.537   8.948 -0.6465 -0.1940 -0.0160
  892MOL0     C20328   0.513   1.598   9.061 -0.5374  0.2839  0.0260
  892MOL0    Cl20329   0.347   1.534   9.032  0.2481  0.0219 -0.5790
  892MOL0     C20330   1.249   2.281   8.648  0.2277 -0.0583  0.0922
  892MOL0     C20331   1.266   2.418   8.637  1.0140 -0.0548 -0.5724
  892MOL0     O20332   1.455   2.631   8.775 -0.7073 -0.7126  0.7182
  892MOL0     C20333   1.242   2.917   8.772  0.5757  0.6862 -0.4462
  892MOL0     C20334   1.251   3.054   8.764  0.0529 -0.5105 -1.3383
  892MOL0     N20335   1.525   3.268   8.225 -0.3047  1.2009 -0.2014
  892MOL0     N20336   1.509   3.140   8.187 -0.4073  0.7139  0.2069
  892MOL0     C20337   0.955   2.130   7.826  0.0458  0.4436  0.9997
  892MOL0     C20338   0.989   2.004   7.780 -0.3322 -0.1731 -0.2329
  892MOL0     C20339   1.238   1.597   7.799  0.1901  0.1479  0.7468
  892MOL0     C20340   1.310   1.625   7.681 -0.3707  0.0315  0.0971
  892MOL0     C20341   1.402   1.534   7.632 -0.5723  0.1930  0.1126
  892MOL0     C20342   1.427   1.416   7.698  0.8389 -0.2586 -0.5188
  892MOL0     O20343   1.514   1.333   7.648 -0.2201 -0.3674  0.9618
  892MOL0     C20344   1.492   1.297   7.506 -0.8782 -0.6070 -0.2114
  892MOL0     C20345   1.375   1.199   7.495 -0.6099 -0.3296 -0.3349
  892MOL0     C20346   1.373   1.094   7.601  0.0758 -0.3648  0.3811
  892MOL0     C20347   1.269   0.986   7.557 -1.1776 -0.5528  0.1812
  892MOL0     C20348   1.312   0.913   7.436 -0.0563 -0.5265 -0.2789
  892MOL0     C20349   1.352   0.844   7.345 -0.8603  0.8624  0.1560
  892MOL0     C20350   1.351   1.377   7.802  0.2428  0.8568 -0.2159
  892MOL0     C20351   1.250   1.463   7.851  0.7060 -0.1430 -0.1746
  892MOL0     C20352   1.174   1.421   7.969  0.3107  0.1493  0.5328
  892MOL0     H20353   1.241   1.938   7.994 -0.2342 -0.4603  0.2342
  892MOL0     H20354   1.166   2.140   8.097  2.4682 -0.2686 -1.6845
  892MOL0     H20355   0.931   2.405   8.164 -0.5545 -1.0837 -1.4547
  892MOL0     H20356   1.011   2.262   8.193  0.4893  1.9159  1.5044
  892MOL0     H20357   1.123   2.527   8.085 -2.9271  1.3044  2.0171
  892MOL0     H20358   1.236   2.399   8.106  0.1002  2.5424 -2.6380
  892MOL0     H20359   1.269   2.522   8.287 -0.2891  2.5784 -2.2290
  892MOL0     H20360   1.151   2.398   8.353 -4.3442  3.1306  2.7127
  892MOL0     H20361   0.970   2.574   8.313  0.8038  0.0080 -1.5966
  892MOL0     H20362   1.070   2.595   8.461  1.2575  1.8462 -0.4628
  892MOL0     H20363   1.144   2.747   8.195 -0.1646 -2.2265 -0.2315
  892MOL0     H20364   1.038   2.814   8.311 -1.3949 -0.2546  0.4627
  892MOL0     H20365   1.193   2.754   8.507 -3.6520 -3.4995 -1.3667
  892MOL0     H20366   1.320   2.715   8.401 -0.3599  0.4309  0.6772
  892MOL0     H20367   1.338   2.970   8.467  1.9339 -2.8083  0.3011
  892MOL0     H20368   1.175   2.992   8.399  1.7823  0.4220  1.1221
  892MOL0     H20369   1.408   2.899   8.217 -1.7117 -1.2617 -0.6343
  892MOL0     H20370   1.254   2.969   8.174 -3.4017  1.6387  3.1043
  892MOL0     H20371   1.241   3.229   8.357  0.8906  3.2085  1.3993
  892MOL0     H20372   1.509   3.511   8.333 -1.1962  3.1180  0.9531
  892MOL0     H20373   1.332   3.490   8.335  1.2408 -0.5214 -3.1528
  892MOL0     H20374   1.446   3.538   8.563  0.6832  0.2376 -0.0010
  892MOL0     H20375   1.329   3.422   8.561 -0.1017  3.9859  0.8828
  892MOL0     H20376   1.628   3.395   8.579  0.7394 -0.5648 -3.3629
  892MOL0     H20377   1.537   3.240   8.550  1.6101  0.1176  0.5360
  892MOL0     H20378   1.461   3.429   8.773 -1.8686 -1.6327  3.3866
  892MOL0     H20379   1.562   3.283   8.803  0.4559 -1.3882 -1.8913
  892MOL0     H20380   1.585   3.083   8.728 -1.5741  1.9356 -1.6304
  892MOL0     H20381   1.569   2.835   8.770  0.1414 -0.6597  2.7165
  892MOL0     H20382   1.125   2.498   8.941 -0.3627  1.1862 -0.9207
  892MOL0     H20383   1.088   2.254   8.943  0.7004  1.3152  1.8170
  892MOL0     H20384   1.054   2.035   8.912 -0.7468 -0.0117  0.7375
  892MOL0     H20385   0.950   2.084   8.777 -1.1388  0.0319  3.1858
  892MOL0     H20386   1.030   1.883   8.636  1.6102  0.0837 -0.1483
  892MOL0     H20387   1.124   1.846   8.770 -0.6051  0.5997  1.6767
  892MOL0     H20388   0.904   1.864   8.908  0.6807  2.8227 -1.2139
  892MOL0     H20389   0.814   1.841   8.752  0.7335 -0.3875 -0.5287
  892MOL0     H20390   1.007   1.637   8.893 -0.0140  0.9710  0.7180
  892MOL0     H20391   0.996   1.629   8.723  0.6785 -2.8172  1.8232
  892MOL0     H20392   0.837   1.474   8.834  1.2313  0.1339  5.1338
  892MOL0     H20393   0.734   1.600   8.744 -1.1933  4.0535  2.6216
  892MOL0     H20394   0.773   1.561   9.040 -1.1415 -3.9297 -1.9658
  892MOL0     H20395   0.716   1.716   8.953 -0.0151  0.0685 -1.4985
  892MOL0     H20396   0.615   1.433   8.977  0.7463 -0.4616 -1.7679
  892MOL0     H20397   0.549   1.542   8.849 -0.4292  0.8729 -0.0713
  892MOL0     H20398   0.542   1.566   9.162 -0.9943 -3.4392 -0.8964
  892MOL0     H20399   0.514   1.708   9.065 -0.4260  0.2779  0.1626
  892MOL0     H20400   1.295   2.209   8.582 -1.5545 -0.4286 -0.8362
  892MOL0     H20401   1.316   2.459   8.550 -1.4515  1.4897 -1.3726
  892MOL0     H20402   1.144   2.870   8.776  1.5029 -1.3528 -0.7875
  892MOL0     H20403   1.165   3.109   8.798  0.7259 -1.7383  2.9503
  892MOL0     H20404   0.866   2.179   7.789 -0.2836 -0.6401  0.3049
  892MOL0     H20405   0.925   1.973   7.698  1.2567 -0.6846 -1.3241
  892MOL0     H20406   1.316   1.723   7.634  2.6973 -0.5596 -0.9321
  892MOL0     H20407   1.468   1.550   7.548  1.2206 -4.6323  0.2690
  892MOL0     H20408   1.586   1.252   7.472  0.9212  2.2286  0.6030
  892MOL0     H20409   1.477   1.379   7.436  1.0830 -1.2031 -1.4279
  892MOL0     H20410   1.368   1.156   7.395 -0.0022 -2.1079  0.3498
  892MOL0     H20411   1.281   1.253   7.510 -1.4288 -1.7240 -0.2767
  892MOL0     H20412   1.361   1.120   7.707  0.4709 -2.9198  1.1260
  892MOL0     H20413   1.469   1.042   7.593 -0.9628 -2.2164 -0.6168
  892MOL0     H20414   1.266   0.896   7.620 -2.9172 -1.0580 -0.5745
  892MOL0     H20415   1.167   1.021   7.542 -0.6775 -0.1473 -2.9246
  892MOL0     H20416   1.398   0.784   7.270  0.5260  0.5277  1.2420
  892MOL0     H20417   1.375   1.275   7.833 -0.2804  0.1456 -2.0039
  892MOL0     H20418   1.188   1.473   8.064 -1.2770  0.1229  0.8020
  892MOL0     H20419   1.070   1.442   7.943  0.7471  0.5136 -1.0310
  892MOL0     H20420   1.185   1.313   7.982  1.2180  0.1253 -0.2694
  893MOL0     O20421  11.478   6.226   0.708  0.1176 -0.1772  0.4624
  893MOL0     C20422  11.555   6.307   0.660 -0.3732  0.1895 -0.1564
  893MOL0     O20423  11.631   6.380   0.740 -0.4333  0.1310  0.1615
  893MOL0     C20424  11.595   6.434   0.864 -0.0294  0.3950 -0.8197
  893MOL0     C20425  11.576   6.362   0.980 -0.2540  0.0974 -0.0666
  893MOL0     C20426  11.545   6.423   1.101  0.5035  0.6084 -0.0417
  893MOL0     C20427  11.519   6.561   1.113  0.1300  0.2604 -0.6223
  893MOL0     O20428  11.467   6.607   1.235  0.2047 -0.5083  0.5137
  893MOL0     C20429  11.324   6.663   1.220  0.2463  0.4281 -0.2972
  893MOL0     C20430  11.256   6.681   1.360 -0.2402  0.9700 -0.0861
  893MOL0     C20431  11.283   6.810   1.428 -0.7349  0.1467 -0.5259
  893MOL0     C20432  11.162   6.867   1.506  0.0323  0.5381  0.3739
  893MOL0     C20433  11.193   6.990   1.592  0.1931  1.0013 -0.0019
  893MOL0     C20434  11.125   7.115   1.542 -0.4028  0.6256  0.5691
  893MOL0     C20435  11.195   7.185   1.427 -0.8165  0.3059  0.2052
  893MOL0     C20436  11.102   7.282   1.359  0.0680  0.0638 -0.2193
  893MOL0     N20437  11.068   7.389   1.447 -0.3011 -0.1143 -0.2110
  893MOL0     C20438  10.950   7.445   1.456  0.5908 -0.4151 -0.4225
  893MOL0     C20439  10.964   7.540   1.552 -1.1315  0.3705  0.5843
  893MOL0     C20440  10.858   7.634   1.600 -0.3554  0.4044 -0.3584
  893MOL0     C20441  10.711   7.578   1.582 -0.9317 -0.1204 -0.3813
  893MOL0     C20442  10.664   7.574   1.440 -1.1558 -1.2465  0.8988
  893MOL0     C20443  10.538   7.662   1.401 -0.3468  0.2115 -0.3495
  893MOL0     O20444  10.535   7.780   1.484 -0.1380 -0.1234 -0.0230
  893MOL0     C20445  10.597   7.896   1.442  0.5129 -0.7458 -1.0265
  893MOL0     C20446  10.542   7.961   1.324 -0.1996  0.3091  0.4355
  893MOL0     C20447  10.598   8.088   1.291 -0.7816 -0.2546 -0.7985
  893MOL0     C20448  10.686   8.153   1.385  0.2846  0.7478 -0.1310
  893MOL0     C20449  10.744   8.287   1.361 -0.1069  0.9673  0.3786
  893MOL0     O20450  10.827   8.340   1.446 -0.4162 -0.9182 -0.7734
  893MOL0     C20451  10.854   8.476   1.422 -0.1135  0.7480  1.6329
  893MOL0     C20452  10.957   8.519   1.332  0.6529 -0.0809 -0.0292
  893MOL0     C20453  11.006   8.653   1.333 -0.0578 -0.4283 -0.4750
  893MOL0     C20454  10.941   8.743   1.427 -0.4513 -0.5238  0.8136
  893MOL0     O20455  10.989   8.870   1.406  0.3756  0.3211  0.7572
  893MOL0     C20456  10.932   8.983   1.466  0.8920  0.5163 -0.1411
  893MOL0     C20457  11.004   9.110   1.421  0.0034 -0.8070 -0.2233
  893MOL0     C20458  10.938   9.231   1.481  0.5495  0.3575 -0.1069
  893MOL0     C20459  11.006   9.367   1.445 -0.8177  0.3172  0.3836
  893MOL0     C20460  10.928   9.496   1.504 -0.2092  0.8445  0.3059
  893MOL0     C20461  11.028   9.615   1.486 -0.2114  0.9319 -0.1992
  893MOL0     C20462  10.970   9.747   1.547  0.3065  0.6931  0.8508
  893MOL0     C20463  10.935   9.752   1.700 -0.3335  0.2900  0.8163
  893MOL0    Cl20464  11.088   9.775   1.781 -0.6653  0.5569 -0.1023
  893MOL0     C20465  10.831   8.702   1.495 -0.2192 -0.6820 -0.3561
  893MOL0     C20466  10.788   8.569   1.497 -0.0728 -0.2307  0.2768
  893MOL0     O20467  10.695   8.345   1.263  0.6773  0.3636  0.4226
  893MOL0     C20468  10.722   8.091   1.504 -0.1743  0.1017  0.1864
  893MOL0     C20469  10.684   7.962   1.527  0.5628 -0.2535  0.8958
  893MOL0     N20470  11.092   7.545   1.596 -0.1800  0.7983  0.6358
  893MOL0     N20471  11.159   7.462   1.519  1.5789  0.6085 -0.5148
  893MOL0     C20472  11.539   6.633   1.003  0.2132 -0.1659  0.4351
  893MOL0     C20473  11.578   6.569   0.880  0.4272 -0.6570 -0.4241
  893MOL0     C20474  11.583   6.308   0.515 -0.5314 -0.5963  0.4073
  893MOL0     C20475  11.681   6.391   0.458  0.0840 -0.2383  0.3227
  893MOL0     C20476  11.693   6.414   0.320  1.0714 -0.7226 -0.5166
  893MOL0     C20477  11.618   6.344   0.233  0.5269 -0.7895 -0.0774
  893MOL0     O20478  11.651   6.352   0.105  0.0768 -0.4655  0.9333
  893MOL0     C20479  11.731   6.241   0.057 -0.5116 -0.0264 -1.0230
  893MOL0     C20480  11.876   6.283   0.068  0.1560 -0.5470  0.3487
  893MOL0     C20481  11.913   6.398  -0.015  0.2795  0.1599  0.0191
  893MOL0     C20482  12.056   6.433  -0.005  0.5111 -0.2821  0.2422
  893MOL0     C20483  12.083   6.559  -0.071  0.2437  0.1045  1.4358
  893MOL0     C20484  12.135   6.656  -0.133  0.6722 -0.6380  0.0376
  893MOL0     C20485  11.525   6.252   0.282  0.0735 -0.7700  0.2847
  893MOL0     C20486  11.496   6.237   0.419 -0.3861 -0.2885 -0.2061
  893MOL0     C20487  11.379   6.146   0.464 -0.5572  0.2422 -0.7499
  893MOL0     H20488  11.591   6.256   0.966 -0.2833 -0.0199  0.7824
  893MOL0     H20489  11.530   6.360   1.188 -1.3195  1.3804  0.2522
  893MOL0     H20490  11.324   6.754   1.159 -2.2032 -0.8907 -2.4689
  893MOL0     H20491  11.261   6.585   1.175 -1.0822  0.9150  0.6421
  893MOL0     H20492  11.303   6.606   1.424  0.5466  1.3729 -0.1778
  893MOL0     H20493  11.150   6.656   1.347 -0.4241  0.2444  2.2799
  893MOL0     H20494  11.315   6.885   1.356 -1.2183  0.3521 -0.5243
  893MOL0     H20495  11.367   6.796   1.497 -1.9468  3.1653  1.7565
  893MOL0     H20496  11.109   6.902   1.417 -1.3537  2.1004  1.7278
  893MOL0     H20497  11.101   6.791   1.555  0.0746 -0.6466 -1.3086
  893MOL0     H20498  11.151   6.968   1.691 -3.0878 -0.7255 -1.6069
  893MOL0     H20499  11.300   7.012   1.593  1.2526 -3.2656  0.9195
  893MOL0     H20500  11.020   7.090   1.525 -0.4973  0.2662  1.6115
  893MOL0     H20501  11.120   7.190   1.621  0.7591 -1.4326  2.7027
  893MOL0     H20502  11.211   7.114   1.344 -2.2624  1.0301 -0.7289
  893MOL0     H20503  11.290   7.235   1.448  0.0771 -1.2739  0.1049
  893MOL0     H20504  11.132   7.328   1.265  0.7727  1.8889  0.8371
  893MOL0     H20505  11.018   7.220   1.326 -1.0702 -0.2606  2.8820
  893MOL0     H20506  10.860   7.417   1.401 -0.4434 -0.5969  1.2816
  893MOL0     H20507  10.886   7.655   1.704  2.3145  0.2408 -0.9818
  893MOL0     H20508  10.867   7.733   1.556  0.8393  2.0881  3.2616
  893MOL0     H20509  10.704   7.479   1.627 -1.7708 -0.7282 -1.7739
  893MOL0     H20510  10.659   7.645   1.651  1.3062 -1.8153  3.2771
  893MOL0     H20511  10.631   7.470   1.433 -0.4820 -1.3948 -0.4532
  893MOL0     H20512  10.745   7.607   1.373 -1.7464 -1.5388  0.0259
  893MOL0     H20513  10.452   7.598   1.423 -0.3289  1.0071  2.3858
  893MOL0     H20514  10.536   7.685   1.294  1.8307  2.3352 -0.0183
  893MOL0     H20515  10.468   7.919   1.257  0.5581  1.9075 -1.5194
  893MOL0     H20516  10.588   8.125   1.190 -0.2552  1.2404 -0.3350
  893MOL0     H20517  10.991   8.442   1.264  1.1559 -1.1378  1.3881
  893MOL0     H20518  11.075   8.679   1.254 -0.6280 -2.7261 -1.8267
  893MOL0     H20519  10.831   8.982   1.424  0.0155  1.9121  1.7855
  893MOL0     H20520  10.933   8.966   1.574 -0.2743  0.1591 -0.1792
  893MOL0     H20521  11.105   9.110   1.461 -0.1008 -0.9507  0.0439
  893MOL0     H20522  11.012   9.125   1.313  1.5271  3.8612  0.3223
  893MOL0     H20523  10.835   9.234   1.442 -0.5843 -2.7927  2.1810
  893MOL0     H20524  10.939   9.212   1.589  0.0046  2.0221  0.2137
  893MOL0     H20525  11.020   9.378   1.337 -1.5633 -1.2024  0.0940
  893MOL0     H20526  11.098   9.371   1.504 -1.2925  1.1666  1.0867
  893MOL0     H20527  10.912   9.476   1.611  1.5205 -4.7148 -0.1528
  893MOL0     H20528  10.837   9.516   1.447  0.1509  1.1100 -0.1861
  893MOL0     H20529  11.124   9.591   1.531 -0.7471 -0.7652  0.1261
  893MOL0     H20530  11.048   9.625   1.379  0.1355  1.4373 -0.0864
  893MOL0     H20531  10.873   9.754   1.496  0.3691  0.6657  0.7276
  893MOL0     H20532  11.033   9.833   1.520 -1.9245  2.0298 -0.4211
  893MOL0     H20533  10.869   9.837   1.719  0.3647  0.6087  1.8989
  893MOL0     H20534  10.882   9.668   1.746  0.7437 -0.4797  0.6945
  893MOL0     H20535  10.770   8.773   1.549 -0.5207 -2.2749  1.5019
  893MOL0     H20536  10.698   8.533   1.544 -0.1159  1.6961  1.8261
  893MOL0     H20537  10.788   8.140   1.575  1.8487  1.3545 -2.4169
  893MOL0     H20538  10.711   7.905   1.615 -0.0672 -3.2091 -0.6770
  893MOL0     H20539  11.535   6.741   1.010 -0.2575 -0.2302  1.2793
  893MOL0     H20540  11.596   6.637   0.797 -1.1710  0.7659  0.3163
  893MOL0     H20541  11.751   6.444   0.522 -0.5319 -1.0547  1.7091
  893MOL0     H20542  11.770   6.483   0.287 -1.3211  1.6250 -1.5302
  893MOL0     H20543  11.703   6.239  -0.049  2.1060  1.0095 -1.8014
  893MOL0     H20544  11.700   6.157   0.120 -1.2622  2.5531  2.3109
  893MOL0     H20545  11.940   6.199   0.038 -1.0156 -1.1083 -0.6819
  893MOL0     H20546  11.891   6.309   0.173 -5.2592  0.5745  1.1424
  893MOL0     H20547  11.859   6.490   0.009  0.8556  1.0205 -1.8544
  893MOL0     H20548  11.886   6.366  -0.116  4.8245 -2.1274 -0.7289
  893MOL0     H20549  12.082   6.437   0.102 -0.5050  0.3602  0.4761
  893MOL0     H20550  12.129   6.370  -0.056  1.5443  1.4007 -0.4100
  893MOL0     H20551  12.174   6.739  -0.189  2.8680 -2.0212 -0.6175
  893MOL0     H20552  11.459   6.211   0.206 -0.9658  1.9615 -0.3939
  893MOL0     H20553  11.403   6.056   0.520  1.0409  0.7185 -0.6468
  893MOL0     H20554  11.323   6.199   0.542  0.2564 -0.8219  0.6007
  893MOL0     H20555  11.307   6.129   0.383 -1.1941  0.6919 -0.2921
  894MOL0     O20556   1.280   8.689   4.421  0.2537 -0.4245  0.0373
  894MOL0     C20557   1.337   8.638   4.327  0.5081  0.1012  0.8198
  894MOL0     O20558   1.322   8.506   4.292 -0.2121  0.5231  0.1718
  894MOL0     C20559   1.228   8.426   4.352 -0.3675  0.6825  1.2304
  894MOL0     C20560   1.244   8.368   4.481 -0.8274  0.4099  1.4701
  894MOL0     C20561   1.133   8.292   4.531  0.3110 -0.8652  0.3706
  894MOL0     C20562   1.014   8.275   4.460  0.8443  0.4930  0.7982
  894MOL0     O20563   0.899   8.202   4.497 -0.5832 -0.5733  0.0350
  894MOL0     C20564   0.881   8.139   4.618 -0.0944 -0.1531 -0.1454
  894MOL0     C20565   0.745   8.068   4.615  0.6057 -0.6384  0.3443
  894MOL0     C20566   0.698   8.010   4.755  0.5172 -0.2918 -0.0093
  894MOL0     C20567   0.761   7.875   4.787  0.0362  0.4181 -0.5831
  894MOL0     C20568   0.751   7.820   4.936  0.6037  0.7502  0.3665
  894MOL0     C20569   0.859   7.719   4.963  0.2091  0.7874  0.5277
  894MOL0     C20570   0.991   7.790   4.983  1.3823 -1.0608  0.1880
  894MOL0     C20571   1.098   7.686   5.040 -0.6595  0.3235 -0.5700
  894MOL0     N20572   1.135   7.599   4.937  0.7135  0.0288  0.0938
  894MOL0     C20573   1.236   7.612   4.842  0.2329 -0.4241  0.1332
  894MOL0     C20574   1.236   7.500   4.768 -0.2779  0.2667 -0.2960
  894MOL0     C20575   1.320   7.456   4.652 -0.1617 -0.2241 -0.3866
  894MOL0     C20576   1.467   7.481   4.651 -0.0110 -0.1774 -0.1476
  894MOL0     C20577   1.529   7.485   4.509  0.5236 -1.3903  0.4666
  894MOL0     C20578   1.498   7.362   4.424 -0.2475 -0.3203  0.0970
  894MOL0     O20579   1.564   7.389   4.299 -0.0883 -0.4381 -0.0339
  894MOL0     C20580   1.568   7.296   4.199 -0.3926  0.2839 -0.2948
  894MOL0     C20581   1.628   7.334   4.082 -0.4271 -1.2637 -0.0453
  894MOL0     C20582   1.643   7.256   3.975  0.2283  0.3605  0.2417
  894MOL0     C20583   1.575   7.127   3.970 -0.3082 -0.0591 -0.6630
  894MOL0     C20584   1.568   7.044   3.843 -0.2222  0.5416 -0.1146
  894MOL0     O20585   1.616   7.094   3.725  1.3121 -0.0600  0.3471
  894MOL0     C20586   1.631   7.022   3.615 -0.1493  0.9911  1.5441
  894MOL0     C20587   1.757   7.006   3.554  0.3602 -0.6240  0.5733
  894MOL0     C20588   1.781   6.909   3.456  0.6388 -0.3755  0.4724
  894MOL0     C20589   1.674   6.841   3.393  0.6131 -0.3978  0.2151
  894MOL0     O20590   1.698   6.761   3.278 -0.1787  0.3053  0.5036
  894MOL0     C20591   1.591   6.680   3.218 -0.7679 -0.3635 -0.5002
  894MOL0     C20592   1.670   6.636   3.093 -0.9906 -0.4617 -0.9280
  894MOL0     C20593   1.595   6.516   3.030  0.6513  0.3748  0.9397
  894MOL0     C20594   1.487   6.565   2.934  0.3014  0.3177  0.3123
  894MOL0     C20595   1.391   6.451   2.881  0.6491 -0.3456 -1.2525
  894MOL0     C20596   1.448   6.393   2.757 -0.7344  0.3562  0.0616
  894MOL0     C20597   1.356   6.285   2.704 -0.3712 -0.8550 -0.1438
  894MOL0     C20598   1.400   6.212   2.575  0.7181 -0.5199 -0.0787
  894MOL0    Cl20599   1.379   6.332   2.444  0.5675 -0.3593 -0.0880
  894MOL0     C20600   1.544   6.850   3.455 -0.6813 -0.7904 -0.1188
  894MOL0     C20601   1.522   6.947   3.560 -0.1988 -0.3782  0.5459
  894MOL0     O20602   1.534   6.922   3.856 -0.0143 -0.2955 -0.2205
  894MOL0     C20603   1.515   7.082   4.089 -0.0779  0.0585  0.7028
  894MOL0     C20604   1.515   7.166   4.205  0.8254 -0.6541 -0.4594
  894MOL0     N20605   1.140   7.415   4.823 -1.0390  0.7030  0.1703
  894MOL0     N20606   1.088   7.469   4.925  1.1237 -0.5112  0.0729
  894MOL0     C20607   1.003   8.323   4.330 -1.1712  0.6507 -0.2081
  894MOL0     C20608   1.107   8.406   4.281  0.0340 -0.4679 -0.7276
  894MOL0     C20609   1.438   8.712   4.233 -0.0316  0.1620 -0.5005
  894MOL0     C20610   1.531   8.634   4.160 -1.3671  0.2927 -0.5059
  894MOL0     C20611   1.641   8.691   4.108 -0.4880  0.7864 -0.9835
  894MOL0     C20612   1.674   8.829   4.138  0.1797 -0.1876  0.3384
  894MOL0     O20613   1.783   8.902   4.094  0.1407  0.2508 -0.3652
  894MOL0     C20614   1.885   8.846   4.006  0.4712  0.3577 -0.3942
  894MOL0     C20615   1.979   8.737   4.060 -0.9183 -1.0950 -0.2104
  894MOL0     C20616   2.047   8.665   3.937  0.8158 -0.3075  0.0675
  894MOL0     C20617   2.125   8.533   3.970 -0.1168 -0.3765  0.4087
  894MOL0     C20618   2.026   8.440   4.040  1.0811  0.0535  0.5047
  894MOL0     C20619   1.942   8.373   4.104  0.5901 -0.6970 -0.1809
  894MOL0     C20620   1.572   8.910   4.186 -0.1221 -0.8502 -1.2445
  894MOL0     C20621   1.454   8.852   4.241  0.5645 -0.7349  0.6466
  894MOL0     C20622   1.349   8.944   4.306 -0.3177 -0.5653 -0.6197
  894MOL0     H20623   1.339   8.374   4.533  1.7725 -2.5598 -2.2941
  894MOL0     H20624   1.148   8.248   4.629  2.6287  0.1895  0.5364
  894MOL0     H20625   0.949   8.063   4.656 -1.8087 -1.0401  1.3265
  894MOL0     H20626   0.878   8.215   4.696 -1.9382  0.4257 -0.7253
  894MOL0     H20627   0.739   7.985   4.543 -0.3704 -0.8374  0.6476
  894MOL0     H20628   0.673   8.144   4.581  3.0975  1.5390 -0.4042
  894MOL0     H20629   0.591   7.992   4.740  0.3321 -0.4863  1.3702
  894MOL0     H20630   0.713   8.084   4.834  1.8306  0.1863 -0.6746
  894MOL0     H20631   0.714   7.802   4.720 -2.7351  2.2582 -0.8042
  894MOL0     H20632   0.868   7.877   4.764  0.0972 -2.9199 -1.0575
  894MOL0     H20633   0.752   7.909   5.000 -4.3127  2.9515 -2.0582
  894MOL0     H20634   0.652   7.781   4.965  1.4543  0.6386  3.5506
  894MOL0     H20635   0.837   7.660   5.052  0.6897  1.1669  0.9044
  894MOL0     H20636   0.869   7.651   4.878 -0.0268  1.9210 -0.4360
  894MOL0     H20637   0.985   7.868   5.059  1.1655  1.6963 -2.4876
  894MOL0     H20638   1.038   7.823   4.890  0.6069 -4.1538 -1.4450
  894MOL0     H20639   1.187   7.738   5.077 -0.4668  0.9430 -1.8324
  894MOL0     H20640   1.056   7.640   5.130  1.2859 -0.9834 -0.2625
  894MOL0     H20641   1.307   7.691   4.819 -1.9311  0.9721 -2.2896
  894MOL0     H20642   1.296   7.355   4.618  0.6137  0.9333 -5.2544
  894MOL0     H20643   1.283   7.513   4.566  0.4980  1.8852  0.6556
  894MOL0     H20644   1.478   7.577   4.703 -0.7756  0.1687 -0.6205
  894MOL0     H20645   1.513   7.406   4.716 -0.9315 -1.0539 -0.5050
  894MOL0     H20646   1.638   7.478   4.516  0.5561 -0.9928  0.4007
  894MOL0     H20647   1.502   7.583   4.470 -0.6684 -2.6682 -2.1182
  894MOL0     H20648   1.391   7.347   4.409 -0.7515  1.7549  1.1403
  894MOL0     H20649   1.531   7.267   4.467 -1.3778 -0.2164  1.2464
  894MOL0     H20650   1.667   7.434   4.064  2.0709 -2.4560 -1.7250
  894MOL0     H20651   1.694   7.304   3.891 -1.3890  3.2993  0.7790
  894MOL0     H20652   1.845   7.056   3.594  1.3264  0.8765 -3.0205
  894MOL0     H20653   1.876   6.910   3.403 -0.0921  0.1309 -0.8907
  894MOL0     H20654   1.583   6.593   3.284 -0.0721 -0.4828 -0.5738
  894MOL0     H20655   1.499   6.735   3.195 -0.2119  1.2855  0.9856
  894MOL0     H20656   1.677   6.722   3.024  0.9815  1.3796  1.3961
  894MOL0     H20657   1.770   6.602   3.123 -0.3973  0.9691 -1.1726
  894MOL0     H20658   1.656   6.443   2.977  1.3878  0.9669  0.9641
  894MOL0     H20659   1.548   6.465   3.116 -1.2295  2.7280  1.3953
  894MOL0     H20660   1.535   6.616   2.849  1.2581 -1.1014 -0.0478
  894MOL0     H20661   1.422   6.632   2.990 -0.3488  1.4659 -1.7237
  894MOL0     H20662   1.291   6.492   2.862  0.7580  0.5472 -0.0095
  894MOL0     H20663   1.387   6.376   2.961  1.9703  1.9484  1.1294
  894MOL0     H20664   1.485   6.462   2.679  1.8201 -2.3139 -1.2880
  894MOL0     H20665   1.539   6.343   2.789 -1.2860  0.2223  1.4782
  894MOL0     H20666   1.251   6.317   2.705 -0.1831 -0.1361  2.4422
  894MOL0     H20667   1.360   6.210   2.784  2.3378 -2.5066 -1.6737
  894MOL0     H20668   1.506   6.186   2.583  1.3425  1.2807 -1.6870
  894MOL0     H20669   1.336   6.125   2.560 -0.8848  0.9426 -2.4358
  894MOL0     H20670   1.470   6.799   3.394  0.6452  0.3458 -2.8080
  894MOL0     H20671   1.423   6.969   3.600  0.5731  0.7812  1.8886
  894MOL0     H20672   1.460   6.988   4.086  0.2707 -0.1283 -1.2298
  894MOL0     H20673   1.466   7.140   4.298 -0.2896  2.6170  0.0118
  894MOL0     H20674   0.913   8.297   4.277 -0.2275 -0.2062 -1.4335
  894MOL0     H20675   1.099   8.445   4.180 -1.2018  0.1764 -0.3938
  894MOL0     H20676   1.517   8.527   4.152  0.0999  0.0069  0.3985
  894MOL0     H20677   1.715   8.630   4.056  1.1065  2.0372 -0.2268
  894MOL0     H20678   1.946   8.932   3.977 -0.4018  0.9167 -0.6342
  894MOL0     H20679   1.824   8.808   3.923 -2.8599  0.5848  1.7833
  894MOL0     H20680   1.920   8.661   4.112  0.8268 -2.4080 -0.0261
  894MOL0     H20681   2.044   8.790   4.130 -1.6886 -0.8022  0.2961
  894MOL0     H20682   2.115   8.734   3.886  0.3799  2.5306  2.9762
  894MOL0     H20683   1.972   8.654   3.859  0.7113  1.5124 -0.1345
  894MOL0     H20684   2.179   8.493   3.883  0.1293 -0.2195  0.4881
  894MOL0     H20685   2.205   8.564   4.038 -2.2983  1.1538  2.4083
  894MOL0     H20686   1.863   8.322   4.157 -1.6711  0.9393 -1.7787
  894MOL0     H20687   1.588   9.017   4.198  1.5266 -1.3123  1.7298
  894MOL0     H20688   1.360   8.927   4.413 -3.9232 -1.1187 -0.2001
  894MOL0     H20689   1.360   9.050   4.278  1.0313 -0.5181  0.0469
  894MOL0     H20690   1.249   8.910   4.276 -0.2282  0.1876 -1.8479
  895MOL0     O20691  11.087  11.160   1.679  0.1835  0.9517 -0.1692
  895MOL0     C20692  11.198  11.129   1.647 -0.1954  0.4082 -0.5458
  895MOL0     O20693  11.306  11.122   1.736  0.2970  0.7320  0.3261
  895MOL0     C20694  11.313  11.184   1.854 -0.3611 -0.3380 -0.1226
  895MOL0     C20695  11.329  11.107   1.969  1.1302  0.1057 -0.8043
  895MOL0     C20696  11.328  11.163   2.100  0.1316  0.6582 -0.1253
  895MOL0     C20697  11.324  11.302   2.123 -0.9672  0.3067 -0.4311
  895MOL0     O20698  11.344  11.348   2.256 -0.4213 -0.5925 -0.2079
  895MOL0     C20699  11.372  11.487   2.272  0.0476  0.0399 -0.4828
  895MOL0     C20700  11.369  11.539   2.423  0.1251  0.9269 -0.1691
  895MOL0     C20701  11.484  11.470   2.503  0.7332  0.2688 -0.1818
  895MOL0     C20702  11.615  11.527   2.461 -0.2130  0.1561  0.1479
  895MOL0     C20703  11.720  11.469   2.558 -0.2432 -0.2092  1.5768
  895MOL0     C20704  11.852  11.452   2.481  0.6829  0.0599  0.0360
  895MOL0     C20705  11.901  11.571   2.408  0.6440 -0.4358  0.9131
  895MOL0     C20706  12.054  11.575   2.373 -0.4052  0.2206  0.0645
  895MOL0     N20707  12.099  11.459   2.282 -0.3333 -0.0359 -0.1140
  895MOL0     C20708  12.188  11.477   2.175  0.2685 -0.3356  0.1854
  895MOL0     C20709  12.226  11.353   2.137  0.0489  0.2389  0.8987
  895MOL0     C20710  12.298  11.309   2.010 -0.3043  0.2268 -0.2076
  895MOL0     C20711  12.220  11.286   1.881 -0.0177 -0.2547  0.0342
  895MOL0     C20712  12.099  11.379   1.848  0.5303  0.1518  0.2915
  895MOL0     C20713  12.045  11.360   1.701  0.2817  0.1047  0.2303
  895MOL0     O20714  12.149  11.409   1.619 -0.3941  0.0532  0.3815
  895MOL0     C20715  12.152  11.352   1.497  0.5080  0.6094  0.3571
  895MOL0     C20716  12.256  11.266   1.477 -0.3600  0.8887 -0.1811
  895MOL0     C20717  12.269  11.207   1.353 -1.2675 -0.1899 -0.7712
  895MOL0     C20718  12.174  11.228   1.254 -1.2786  0.3856 -0.0338
  895MOL0     C20719  12.211  11.173   1.118  0.0316 -0.1273  0.4929
  895MOL0     O20720  12.348  11.146   1.091  0.1011  0.4165 -0.5534
  895MOL0     C20721  12.403  11.093   0.979  0.9721 -0.7967  0.3359
  895MOL0     C20722  12.538  11.067   0.987 -0.8092  0.1561  0.2172
  895MOL0     C20723  12.603  11.002   0.886 -1.2599  0.0348  0.2030
  895MOL0     C20724  12.544  10.987   0.760  0.6389 -0.0677  0.5844
  895MOL0     O20725  12.599  10.915   0.652  0.1516  0.0327  0.0482
  895MOL0     C20726  12.687  11.000   0.574  1.4330  0.4329 -0.3756
  895MOL0     C20727  12.756  10.890   0.491  0.6189  0.5158 -0.7041
  895MOL0     C20728  12.855  10.935   0.389  0.3576 -0.2335  0.3606
  895MOL0     C20729  12.811  11.049   0.285  0.3528 -0.8558 -0.8003
  895MOL0     C20730  12.910  11.094   0.187 -1.3593 -0.0272  0.4873
  895MOL0     C20731  12.955  10.990   0.075  0.4884 -0.6967 -0.3644
  895MOL0     C20732  12.989  11.058  -0.058 -0.5114 -0.5407  0.2402
  895MOL0     C20733  13.122  11.130  -0.052  0.3154 -0.3305  0.0582
  895MOL0    Cl20734  13.248  11.020  -0.014 -0.8109  0.3079 -0.0090
  895MOL0     C20735  12.416  11.033   0.744 -1.4429 -0.4619 -0.5634
  895MOL0     C20736  12.341  11.086   0.850  0.8079  0.7205 -0.1122
  895MOL0     O20737  12.127  11.161   1.033 -0.0951 -0.0254  0.2829
  895MOL0     C20738  12.055  11.303   1.278  0.3980 -0.1458 -0.3387
  895MOL0     C20739  12.047  11.367   1.406 -0.1888  0.4474  0.5857
  895MOL0     N20740  12.182  11.265   2.231 -0.2943  0.2396 -0.6099
  895MOL0     N20741  12.112  11.329   2.325  0.3936  0.0868  0.5010
  895MOL0     C20742  11.313  11.382   2.011  0.6504 -0.0419  0.5118
  895MOL0     C20743  11.303  11.328   1.883  0.0456  0.5324 -0.5294
  895MOL0     C20744  11.221  11.053   1.520 -0.3257 -0.4027 -0.1937
  895MOL0     C20745  11.301  10.936   1.523  0.1701 -0.5558 -0.4553
  895MOL0     C20746  11.332  10.859   1.409  0.2251 -0.1313  0.8454
  895MOL0     C20747  11.287  10.908   1.282  2.2078 -0.3417  0.5004
  895MOL0     O20748  11.320  10.859   1.153  0.3932 -0.0877 -0.7812
  895MOL0     C20749  11.398  10.731   1.150  0.3457 -0.0662 -0.0232
  895MOL0     C20750  11.397  10.678   1.001  1.0560 -0.6438  0.6352
  895MOL0     C20751  11.455  10.777   0.894 -0.0474  0.4511  0.7991
  895MOL0     C20752  11.489  10.715   0.761  0.1757 -0.4450  0.7819
  895MOL0     C20753  11.367  10.687   0.675  0.6091 -0.3574  0.1273
  895MOL0     C20754  11.279  10.691   0.590 -0.3611 -0.0322 -0.0780
  895MOL0     C20755  11.204  11.018   1.276  0.6728 -0.5341 -0.4416
  895MOL0     C20756  11.174  11.099   1.393  0.1203  0.3730 -0.2792
  895MOL0     C20757  11.087  11.220   1.382 -0.1970 -0.4338 -0.4747
  895MOL0     H20758  11.333  10.998   1.963  0.0952  0.0992 -1.8025
  895MOL0     H20759  11.339  11.093   2.182  0.5161 -2.1767 -2.4360
  895MOL0     H20760  11.473  11.507   2.234 -0.0341 -0.9012 -1.2288
  895MOL0     H20761  11.292  11.547   2.229  1.5530  3.1858  0.7686
  895MOL0     H20762  11.273  11.506   2.464  1.4922 -1.0076  1.7070
  895MOL0     H20763  11.383  11.647   2.420 -2.3209  1.3451  1.1923
  895MOL0     H20764  11.477  11.361   2.493 -0.1089  0.2505  0.4793
  895MOL0     H20765  11.475  11.488   2.611  2.2507  0.7500 -0.1141
  895MOL0     H20766  11.640  11.500   2.358 -1.0824  4.0711 -1.2726
  895MOL0     H20767  11.601  11.635   2.477  1.9711  0.6731 -0.9800
  895MOL0     H20768  11.740  11.539   2.639 -0.5944  0.0399  1.4541
  895MOL0     H20769  11.700  11.366   2.588  1.0085 -1.6547 -1.9569
  895MOL0     H20770  11.933  11.429   2.551  0.7227  2.2132  0.7722
  895MOL0     H20771  11.849  11.371   2.408  0.4033  1.5979 -1.7205
  895MOL0     H20772  11.864  11.661   2.458 -3.4500 -0.9203 -0.7771
  895MOL0     H20773  11.853  11.583   2.310 -2.5205 -0.2153  2.3640
  895MOL0     H20774  12.070  11.673   2.328  1.6229 -0.3277 -0.4776
  895MOL0     H20775  12.110  11.549   2.463  0.7161 -1.7773 -1.1335
  895MOL0     H20776  12.217  11.569   2.125 -0.5391 -0.4737 -0.5596
  895MOL0     H20777  12.364  11.392   1.981 -4.2020  3.1077 -1.7647
  895MOL0     H20778  12.346  11.211   2.023  0.0433  0.0370 -2.4458
  895MOL0     H20779  12.299  11.292   1.806  1.0747 -2.8890  0.8845
  895MOL0     H20780  12.186  11.183   1.887 -0.2187 -0.5188 -3.3374
  895MOL0     H20781  12.118  11.485   1.864 -0.5774  0.8789 -2.5381
  895MOL0     H20782  12.027  11.340   1.920  0.3942  0.7451  0.4762
  895MOL0     H20783  11.953  11.418   1.687  0.1643 -0.3587 -1.0659
  895MOL0     H20784  12.027  11.259   1.665  2.9886  0.3326 -2.1574
  895MOL0     H20785  12.321  11.235   1.558 -1.5562 -4.9610 -0.9889
  895MOL0     H20786  12.361  11.156   1.324 -1.0445  1.6056 -3.7257
  895MOL0     H20787  12.591  11.071   1.081 -1.6063 -0.3099  0.7051
  895MOL0     H20788  12.704  10.962   0.891 -1.7100 -1.1494  0.0881
  895MOL0     H20789  12.629  11.064   0.507  1.5794 -1.0098 -1.9673
  895MOL0     H20790  12.763  11.060   0.624  4.4546 -1.5604 -2.2863
  895MOL0     H20791  12.804  10.815   0.555  0.8647  1.3491  0.1069
  895MOL0     H20792  12.677  10.849   0.428  0.2230  1.5769 -0.9198
  895MOL0     H20793  12.936  10.987   0.441  1.6751 -0.2970 -1.4955
  895MOL0     H20794  12.896  10.854   0.328  1.5457  1.4937 -1.2708
  895MOL0     H20795  12.787  11.135   0.349 -0.6140 -0.1259 -2.0895
  895MOL0     H20796  12.718  11.021   0.234  0.2860 -0.2084 -1.0437
  895MOL0     H20797  12.999  11.129   0.241 -0.6855 -0.5859 -0.2213
  895MOL0     H20798  12.859  11.179   0.141  0.8123  1.4599  0.6292
  895MOL0     H20799  13.022  10.917   0.120 -1.5227 -2.0220  0.6559
  895MOL0     H20800  12.866  10.929   0.058  0.6315 -1.9554  2.8086
  895MOL0     H20801  12.908  11.127  -0.086  0.7174  0.6189 -0.5584
  895MOL0     H20802  12.993  10.972  -0.126 -0.5205 -1.0702  0.8988
  895MOL0     H20803  13.162  11.167  -0.147  1.6261 -1.3846  0.1601
  895MOL0     H20804  13.120  11.214   0.018  3.9603  0.7413 -0.8796
  895MOL0     H20805  12.380  11.021   0.642 -0.5992 -1.7157 -0.7420
  895MOL0     H20806  12.242  11.124   0.826  0.9881  3.0522  2.2837
  895MOL0     H20807  11.973  11.287   1.210 -2.0619 -0.3804  2.4638
  895MOL0     H20808  11.967  11.431   1.441  0.5445 -0.7583  5.1472
  895MOL0     H20809  11.310  11.489   2.032 -0.7085  0.2099 -0.8032
  895MOL0     H20810  11.290  11.405   1.808  0.8080  2.2694  1.0185
  895MOL0     H20811  11.334  10.915   1.624 -2.9558 -1.1937  0.5288
  895MOL0     H20812  11.406  10.779   1.413  1.3857  0.8993  0.6796
  895MOL0     H20813  11.361  10.658   1.223  0.2335 -0.5832 -0.5891
  895MOL0     H20814  11.502  10.752   1.177  0.1515 -0.5138  1.1268
  895MOL0     H20815  11.293  10.656   0.976  1.0191 -0.5975  0.7474
  895MOL0     H20816  11.448  10.582   0.999 -1.8572 -2.2977 -0.4363
  895MOL0     H20817  11.537  10.841   0.928 -2.6501  3.4411  1.9762
  895MOL0     H20818  11.369  10.843   0.879  0.0724  1.0141  2.3239
  895MOL0     H20819  11.551  10.789   0.709 -1.3120  0.6729  0.5471
  895MOL0     H20820  11.552  10.628   0.778 -1.2864 -1.4731  1.1412
  895MOL0     H20821  11.200  10.682   0.519 -1.0875 -0.5214  0.7838
  895MOL0     H20822  11.176  11.045   1.175 -2.3060 -1.4287  0.0658
  895MOL0     H20823  11.130  11.310   1.428  1.0454 -1.3307  0.1587
  895MOL0     H20824  11.082  11.261   1.281 -1.1447 -0.0124 -0.2731
  895MOL0     H20825  10.988  11.211   1.429 -0.3683  2.1775 -0.1412
  896MOL0     O20826   0.719   3.783  11.360  0.6440  0.4597  0.5167
  896MOL0     C20827   0.691   3.676  11.306  0.5858  0.0311  0.3491
  896MOL0     O20828   0.713   3.558  11.359  0.1900 -0.0249  0.2532
  896MOL0     C20829   0.753   3.539  11.488  0.2357 -0.2570 -1.1737
  896MOL0     C20830   0.840   3.438  11.516  0.7750 -0.0221 -0.1435
  896MOL0     C20831   0.905   3.431  11.646 -0.3088  0.4651 -0.4257
  896MOL0     C20832   0.854   3.514  11.751  0.4363  0.2767  0.8487
  896MOL0     O20833   0.897   3.512  11.877 -0.3592  0.4857  0.3033
  896MOL0     C20834   1.011   3.430  11.914  0.6665  0.7339 -0.5042
  896MOL0     C20835   1.076   3.483  12.040  0.2962 -0.4508  0.0241
  896MOL0     C20836   1.184   3.393  12.092  1.1503 -0.4104  1.2842
  896MOL0     C20837   1.258   3.464  12.208 -0.4704 -0.3026  0.5836
  896MOL0     C20838   1.381   3.393  12.273  1.0064 -0.7060  0.0655
  896MOL0     C20839   1.498   3.401  12.180  0.6364  0.0433  0.2746
  896MOL0     C20840   1.599   3.287  12.205 -0.5984 -0.1571  0.4804
  896MOL0     C20841   1.748   3.337  12.185  0.3368  0.3229  0.4582
  896MOL0     N20842   1.756   3.363  12.047 -1.0693 -0.0515  1.5095
  896MOL0     C20843   1.741   3.266  11.941  0.7432  0.2695 -0.8758
  896MOL0     C20844   1.799   3.335  11.839 -0.3219  0.6584 -0.2125
  896MOL0     C20845   1.819   3.277  11.693  0.3496 -0.9909  0.2402
  896MOL0     C20846   1.939   3.187  11.687  0.0385 -0.0382 -0.1954
  896MOL0     C20847   1.979   3.158  11.535  0.2469 -0.1419  0.3557
  896MOL0     C20848   2.052   3.280  11.464 -0.3862  0.0641  0.2668
  896MOL0     O20849   1.963   3.376  11.410 -0.7056  0.0174  0.3371
  896MOL0     C20850   1.917   3.356  11.284 -0.0579 -0.0102  0.6381
  896MOL0     C20851   1.918   3.229  11.219  0.7128  0.2023  1.0714
  896MOL0     C20852   1.840   3.204  11.106  0.5833  0.1170  0.5679
  896MOL0     C20853   1.770   3.304  11.034 -0.0811 -0.0742  0.0091
  896MOL0     C20854   1.718   3.295  10.900 -0.5063  0.6992  0.9737
  896MOL0     O20855   1.743   3.176  10.824 -0.9474 -0.1608 -1.3489
  896MOL0     C20856   1.704   3.180  10.693  0.2277  0.3510 -0.8370
  896MOL0     C20857   1.571   3.178  10.652  0.0828 -0.2978  1.3167
  896MOL0     C20858   1.527   3.179  10.516 -1.7260 -0.0335 -0.2561
  896MOL0     C20859   1.619   3.217  10.416  0.3254  0.0447 -1.2450
  896MOL0     O20860   1.572   3.224  10.290 -0.3500  0.6686 -0.3223
  896MOL0     C20861   1.654   3.272  10.178  0.0878  0.5263 -0.9919
  896MOL0     C20862   1.606   3.417  10.149  0.6821  1.2546  0.5689
  896MOL0     C20863   1.676   3.484  10.023  0.6321 -0.0503 -1.1295
  896MOL0     C20864   1.608   3.608   9.977  0.6956 -0.6199 -0.1321
  896MOL0     C20865   1.465   3.579   9.923  1.2345 -0.7488 -0.0311
  896MOL0     C20866   1.364   3.694   9.928  0.5552 -0.8739 -0.1812
  896MOL0     C20867   1.412   3.828   9.858 -0.4705  1.1616 -0.4652
  896MOL0     C20868   1.333   3.956   9.912 -0.8454  0.7412 -0.5075
  896MOL0    Cl20869   1.381   3.968  10.079  0.6755  0.2289  0.2999
  896MOL0     C20870   1.758   3.227  10.457  0.2406 -1.0000 -0.1207
  896MOL0     C20871   1.797   3.207  10.585  0.4137 -0.7622 -0.3154
  896MOL0     O20872   1.653   3.387  10.860 -0.4431  0.2115  0.5197
  896MOL0     C20873   1.789   3.433  11.089  0.2868  0.9026 -0.4848
  896MOL0     C20874   1.844   3.450  11.215  0.6378  0.0675  0.0863
  896MOL0     N20875   1.852   3.456  11.870 -0.9015 -0.4630 -1.0529
  896MOL0     N20876   1.832   3.468  11.999 -0.9003 -0.7412 -0.5779
  896MOL0     C20877   0.753   3.607  11.724  0.9300  0.0899  0.9632
  896MOL0     C20878   0.704   3.618  11.591  0.1737  0.8210  0.4976
  896MOL0     C20879   0.633   3.674  11.169 -0.3992  0.0223 -0.5874
  896MOL0     C20880   0.591   3.547  11.116  0.7805 -0.6062 -0.2857
  896MOL0     C20881   0.545   3.528  10.988  0.0602  0.4606 -0.2478
  896MOL0     C20882   0.550   3.635  10.891 -0.4702  0.2003  0.1916
  896MOL0     O20883   0.517   3.640  10.752  0.0741 -0.1299  0.7734
  896MOL0     C20884   0.489   3.510  10.690 -1.1497 -0.2711  0.6645
  896MOL0     C20885   0.478   3.515  10.539  0.5960 -0.6008  0.7547
  896MOL0     C20886   0.351   3.595  10.497  0.7515  0.5231  0.0040
  896MOL0     C20887   0.324   3.584  10.349  0.2314 -0.0310 -0.5099
  896MOL0     C20888   0.182   3.609  10.313 -0.3285 -0.7871  0.4451
  896MOL0     C20889   0.066   3.613  10.281  0.0104 -0.6832 -0.1755
  896MOL0     C20890   0.587   3.755  10.945 -0.7390 -0.1526 -0.5490
  896MOL0     C20891   0.627   3.779  11.077  0.0202 -0.0895 -0.2421
  896MOL0     C20892   0.670   3.917  11.101 -0.4922 -0.4676  0.4257
  896MOL0     H20893   0.878   3.372  11.439  1.3218  0.1922 -0.0648
  896MOL0     H20894   0.978   3.352  11.663  0.9956  1.6917 -0.0593
  896MOL0     H20895   0.976   3.327  11.930  1.2461 -0.3506 -4.8668
  896MOL0     H20896   1.085   3.446  11.835  1.3108  2.0439  0.3272
  896MOL0     H20897   1.005   3.496  12.122 -0.3908 -3.5746  0.0310
  896MOL0     H20898   1.123   3.579  12.015 -2.1466  1.2065  1.4597
  896MOL0     H20899   1.255   3.366  12.013  0.9913 -0.9324  1.3123
  896MOL0     H20900   1.152   3.290  12.111  1.3994 -2.2859 -5.6490
  896MOL0     H20901   1.281   3.567  12.179 -2.6523  0.5998  1.8384
  896MOL0     H20902   1.179   3.480  12.281 -0.3625 -1.9386  1.0836
  896MOL0     H20903   1.392   3.443  12.370 -2.4469  2.5019 -0.9611
  896MOL0     H20904   1.349   3.289  12.279 -0.5066 -0.3146 -0.6886
  896MOL0     H20905   1.460   3.406  12.078  1.0178  0.8929  0.1654
  896MOL0     H20906   1.544   3.499  12.193  1.2634 -0.3880  1.5237
  896MOL0     H20907   1.584   3.192  12.153  1.9678 -0.7797  0.7686
  896MOL0     H20908   1.595   3.266  12.312 -1.5677 -0.9997  0.2972
  896MOL0     H20909   1.774   3.415  12.256 -0.0113  1.9245 -1.1154
  896MOL0     H20910   1.814   3.255  12.214 -2.3771 -0.6576  4.8552
  896MOL0     H20911   1.684   3.174  11.951 -1.0473  1.4193  0.0799
  896MOL0     H20912   1.729   3.218  11.672 -0.0610  0.2491 -1.7536
  896MOL0     H20913   1.834   3.360  11.624  0.4212 -0.6848  0.6232
  896MOL0     H20914   2.026   3.229  11.739 -1.1297  2.9055 -0.4629
  896MOL0     H20915   1.918   3.089  11.732  3.1473 -1.3592 -1.2995
  896MOL0     H20916   1.891   3.128  11.478  0.2153  2.3717 -1.0685
  896MOL0     H20917   2.038   3.066  11.538  2.0793  0.9215 -1.0037
  896MOL0     H20918   2.115   3.238  11.384 -0.2486  0.4801  0.1530
  896MOL0     H20919   2.122   3.329  11.533 -0.1499 -2.5992  2.0679
  896MOL0     H20920   1.968   3.148  11.271  2.8399  1.4358  1.0630
  896MOL0     H20921   1.842   3.105  11.062 -2.1875 -0.9179  2.5784
  896MOL0     H20922   1.493   3.171  10.727  0.8304  1.7172  2.3640
  896MOL0     H20923   1.424   3.172  10.483 -1.1601 -1.2859 -1.9503
  896MOL0     H20924   1.761   3.268  10.198  0.3284 -0.3620 -2.3646
  896MOL0     H20925   1.627   3.208  10.094  0.2796 -0.1558 -0.5467
  896MOL0     H20926   1.497   3.420  10.141  0.5913 -2.7158 -2.5527
  896MOL0     H20927   1.616   3.475  10.241 -3.0199  0.8302  1.3857
  896MOL0     H20928   1.779   3.498  10.058  1.2831 -2.1550 -2.0366
  896MOL0     H20929   1.698   3.422   9.936  0.8704  1.0806 -1.9000
  896MOL0     H20930   1.670   3.656   9.901  0.3637  3.8227  2.0940
  896MOL0     H20931   1.601   3.687  10.052 -0.0231 -1.2360  0.4589
  896MOL0     H20932   1.420   3.497   9.980  3.1119 -0.5484  1.8768
  896MOL0     H20933   1.465   3.549   9.818 -1.2580  2.9659 -1.2946
  896MOL0     H20934   1.260   3.677   9.900  0.2593  1.4625 -0.7571
  896MOL0     H20935   1.358   3.704  10.037  2.8427 -2.1246  0.1354
  896MOL0     H20936   1.394   3.802   9.753  1.6042 -3.2169  0.0128
  896MOL0     H20937   1.515   3.847   9.890 -0.7335 -1.7200  2.7703
  896MOL0     H20938   1.363   4.044   9.854  0.1036 -0.0643 -1.2771
  896MOL0     H20939   1.224   3.950   9.920 -0.7535  0.8487  1.2684
  896MOL0     H20940   1.845   3.262  10.401  0.9424  0.6612  1.8612
  896MOL0     H20941   1.900   3.226  10.614  0.9099 -2.6352 -0.7507
  896MOL0     H20942   1.738   3.515  11.039 -0.3773  0.3729 -0.7026
  896MOL0     H20943   1.847   3.553  11.251  0.5842  1.8828 -4.3471
  896MOL0     H20944   0.704   3.666  11.800 -0.4855 -2.1910  1.9149
  896MOL0     H20945   0.619   3.681  11.565  0.8799  1.6641  0.1407
  896MOL0     H20946   0.580   3.464  11.185 -4.3987  1.2241  1.5664
  896MOL0     H20947   0.504   3.430  10.968 -0.4508  0.5891  0.1500
  896MOL0     H20948   0.410   3.460  10.747 -0.0055 -0.1517  2.4533
  896MOL0     H20949   0.581   3.453  10.706 -0.7336 -0.3594 -1.7273
  896MOL0     H20950   0.469   3.413  10.503 -2.4699 -0.1439 -0.0105
  896MOL0     H20951   0.571   3.557  10.498  0.3397  1.0549  1.7739
  896MOL0     H20952   0.370   3.693  10.539  0.0135  1.1119 -0.9674
  896MOL0     H20953   0.266   3.557  10.555  1.1225 -0.6437 -0.1962
  896MOL0     H20954   0.391   3.659  10.306 -1.7183  2.1566  0.0240
  896MOL0     H20955   0.358   3.489  10.307  1.9143  0.3877 -0.1395
  896MOL0     H20956  -0.034   3.611  10.241  0.7870  2.4717 -2.6762
  896MOL0     H20957   0.596   3.839  10.877  0.0949 -1.2202 -1.8001
  896MOL0     H20958   0.610   3.964  11.180  1.8292  0.8127  1.5461
  896MOL0     H20959   0.774   3.925  11.133 -0.1334 -0.2235 -0.7615
  896MOL0     H20960   0.665   3.987  11.017  0.7544  0.9507  1.4842
  897MOL0     O20961  10.625   5.674   7.048  0.4677 -0.6345 -0.5143
  897MOL0     C20962  10.544   5.590   7.086 -0.6705 -0.1965 -0.7233
  897MOL0     O20963  10.459   5.527   6.997 -0.9267  0.4126 -0.3966
  897MOL0     C20964  10.438   5.565   6.864  1.0461 -0.0264  0.6372
  897MOL0     C20965  10.356   5.475   6.804 -0.3715 -0.6222 -0.3719
  897MOL0     C20966  10.304   5.504   6.674 -0.5790  0.0991 -0.3601
  897MOL0     C20967  10.332   5.622   6.612 -0.3280 -0.2629  0.3006
  897MOL0     O20968  10.289   5.636   6.486  0.7196 -0.0619  0.5968
  897MOL0     C20969  10.355   5.710   6.384  0.1596 -0.9409  0.1770
  897MOL0     C20970  10.494   5.646   6.346 -0.2864 -0.2198 -0.4285
  897MOL0     C20971  10.567   5.723   6.242  0.0716 -1.1395 -1.4256
  897MOL0     C20972  10.716   5.707   6.276 -0.2148  0.2877  1.0121
  897MOL0     C20973  10.810   5.748   6.161  0.7599  0.5884 -0.8148
  897MOL0     C20974  10.872   5.618   6.097  1.7839  1.7193 -0.7920
  897MOL0     C20975  10.963   5.648   5.983 -0.7274 -0.4520 -0.7191
  897MOL0     C20976  11.047   5.534   5.947  0.0600  0.6866 -0.6170
  897MOL0     N20977  10.960   5.431   5.890 -0.1797  0.5853 -0.0728
  897MOL0     C20978  10.895   5.440   5.767 -1.0379  0.1308  0.5857
  897MOL0     C20979  10.840   5.311   5.760  0.7072  0.4459 -0.1530
  897MOL0     C20980  10.738   5.255   5.660  0.0156 -0.2093 -0.0374
  897MOL0     C20981  10.598   5.267   5.710 -0.3285 -0.4405 -0.0104
  897MOL0     C20982  10.527   5.129   5.756  0.5014 -0.7819 -0.6471
  897MOL0     C20983  10.373   5.139   5.767 -0.5857 -0.9031 -0.3281
  897MOL0     O20984  10.324   5.190   5.645  0.8610 -0.7416  0.4320
  897MOL0     C20985  10.223   5.280   5.646  0.5154 -0.3736  0.3762
  897MOL0     C20986  10.115   5.284   5.747 -0.3033 -1.0926 -0.5551
  897MOL0     C20987  10.010   5.371   5.743 -0.1303 -0.0092 -0.4238
  897MOL0     C20988   9.984   5.449   5.629 -0.7885  0.1239  1.3462
  897MOL0     C20989   9.887   5.559   5.637  0.9558 -1.0787  0.2540
  897MOL0     O20990   9.805   5.562   5.746 -0.8856 -0.2437  0.3418
  897MOL0     C20991   9.689   5.636   5.745 -0.2794 -0.3996 -0.9350
  897MOL0     C20992   9.688   5.773   5.769  0.1939  0.4732  0.0064
  897MOL0     C20993   9.570   5.847   5.762  0.0443  0.3815 -0.0769
  897MOL0     C20994   9.454   5.780   5.722  0.1586  0.4404  0.5557
  897MOL0     O20995   9.339   5.849   5.704 -0.0396  0.0026 -0.2321
  897MOL0     C20996   9.203   5.792   5.704 -0.4563  0.4825  0.4303
  897MOL0     C20997   9.094   5.900   5.723  0.0045 -0.2960 -0.7618
  897MOL0     C20998   9.084   5.945   5.870  1.1157 -0.8462 -0.2028
  897MOL0     C20999   8.995   5.853   5.953 -0.0565 -0.1643  0.6673
  897MOL0     C21000   9.015   5.882   6.100 -0.5476  0.0280 -0.0596
  897MOL0     C21001   8.957   6.016   6.149 -0.1777  0.1359  0.9679
  897MOL0     C21002   8.982   6.024   6.300 -0.2861  0.0836  0.1056
  897MOL0     C21003   8.956   6.169   6.357  0.0868  0.2290 -0.3117
  897MOL0    Cl21004   8.776   6.200   6.386  0.5112 -0.5688 -0.2607
  897MOL0     C21005   9.462   5.643   5.688 -0.2826 -0.0820  0.1767
  897MOL0     C21006   9.575   5.571   5.702 -0.1067 -0.2257 -0.1483
  897MOL0     O21007   9.892   5.650   5.548 -0.1978 -0.8124 -0.0095
  897MOL0     C21008  10.077   5.433   5.523 -0.9137  0.6722  0.0797
  897MOL0     C21009  10.195   5.357   5.532  0.5791 -0.0118  0.9013
  897MOL0     N21010  10.897   5.238   5.860 -0.4217  1.0168  0.8255
  897MOL0     N21011  10.963   5.308   5.943 -0.7862  0.6991  0.0028
  897MOL0     C21012  10.413   5.716   6.666 -0.3510 -0.5101 -1.1338
  897MOL0     C21013  10.482   5.688   6.791  0.4857  1.0169 -0.1327
  897MOL0     C21014  10.543   5.540   7.227  0.4972 -0.0094  0.3895
  897MOL0     C21015  10.431   5.473   7.276 -0.8455 -0.0022  0.2862
  897MOL0     C21016  10.441   5.424   7.404  0.0872  1.3493  0.2338
  897MOL0     C21017  10.541   5.445   7.492 -0.3359 -0.5849 -0.3045
  897MOL0     O21018  10.534   5.395   7.618  0.4133  0.0741 -0.4546
  897MOL0     C21019  10.606   5.445   7.725  0.5843 -0.1769  0.2656
  897MOL0     C21020  10.742   5.373   7.722  0.2472 -0.0365 -0.3963
  897MOL0     C21021  10.836   5.422   7.827 -0.3678  0.1791  0.2454
  897MOL0     C21022  10.918   5.545   7.767 -0.4610  0.1431  0.3790
  897MOL0     C21023  11.035   5.592   7.842 -0.1122  1.0516 -0.0638
  897MOL0     C21024  11.139   5.645   7.885  0.1311 -0.2277  0.1700
  897MOL0     C21025  10.646   5.528   7.438 -0.3438  0.2752 -1.0351
  897MOL0     C21026  10.652   5.577   7.311 -0.8228  0.3695 -0.4377
  897MOL0     C21027  10.777   5.656   7.274  0.3027  0.5636 -0.3857
  897MOL0     H21028  10.321   5.385   6.853 -0.8168  0.0978  0.6681
  897MOL0     H21029  10.238   5.427   6.635 -2.8514  1.9549 -0.4181
  897MOL0     H21030  10.298   5.722   6.291 -2.2772 -0.0308  1.7163
  897MOL0     H21031  10.363   5.811   6.424 -0.4230 -0.1066 -1.6737
  897MOL0     H21032  10.496   5.539   6.323 -1.2875 -0.1603 -0.8407
  897MOL0     H21033  10.552   5.657   6.439  0.4707  4.7468 -1.2386
  897MOL0     H21034  10.544   5.828   6.257  2.9252 -0.3712 -1.8211
  897MOL0     H21035  10.543   5.693   6.140  0.8106  1.2719 -2.3502
  897MOL0     H21036  10.744   5.756   6.370  0.6812  1.2621  0.2668
  897MOL0     H21037  10.740   5.607   6.311  2.7974 -0.2512 -2.0706
  897MOL0     H21038  10.743   5.798   6.090 -2.7576  0.1676  1.8699
  897MOL0     H21039  10.885   5.823   6.188  1.6527 -0.5016 -0.1945
  897MOL0     H21040  10.921   5.558   6.175  0.9972  1.9730 -0.0900
  897MOL0     H21041  10.784   5.561   6.066  2.3844  1.1713 -1.5256
  897MOL0     H21042  11.030   5.725   6.024 -2.8569  2.3729 -2.1578
  897MOL0     H21043  10.912   5.693   5.897 -0.0680  1.0911 -0.3286
  897MOL0     H21044  11.130   5.555   5.880  0.3566 -4.3234 -2.2733
  897MOL0     H21045  11.093   5.500   6.041  2.0901  0.7145 -1.5745
  897MOL0     H21046  10.872   5.517   5.694  0.3571 -0.3269 -0.3774
  897MOL0     H21047  10.752   5.312   5.568 -0.8128  0.4379  0.2190
  897MOL0     H21048  10.754   5.150   5.631  0.0235 -1.7154  4.6577
  897MOL0     H21049  10.599   5.344   5.789 -0.6871  0.1171 -0.5425
  897MOL0     H21050  10.539   5.307   5.627  0.1822 -1.8941 -1.1040
  897MOL0     H21051  10.571   5.098   5.851  0.3673  2.6013  0.6454
  897MOL0     H21052  10.556   5.045   5.692 -3.5408 -1.5216 -1.7783
  897MOL0     H21053  10.356   5.210   5.848  0.7820 -2.5269  1.5102
  897MOL0     H21054  10.323   5.042   5.781 -1.7241 -0.6385 -2.2972
  897MOL0     H21055  10.125   5.237   5.845  3.1079  2.1101  0.8756
  897MOL0     H21056   9.948   5.372   5.833  3.2582 -0.1760  2.0838
  897MOL0     H21057   9.784   5.820   5.787  0.4123  0.1105 -0.1810
  897MOL0     H21058   9.576   5.954   5.780 -1.3114  0.7077 -1.3040
  897MOL0     H21059   9.194   5.736   5.610 -1.6652 -0.2586  0.9640
  897MOL0     H21060   9.187   5.718   5.783 -3.2631  0.9231  0.3854
  897MOL0     H21061   9.117   5.990   5.664 -3.2021 -0.3077 -2.2467
  897MOL0     H21062   8.995   5.872   5.686 -2.3001  3.5726  1.7756
  897MOL0     H21063   9.184   5.955   5.912  2.1547  2.5557 -3.0403
  897MOL0     H21064   9.048   6.048   5.869 -1.4434 -1.6604 -0.3548
  897MOL0     H21065   9.025   5.749   5.935 -2.3413 -0.6545 -0.6638
  897MOL0     H21066   8.886   5.852   5.944  0.0223  3.0473 -2.1340
  897MOL0     H21067   9.122   5.869   6.119 -0.6423 -1.0330 -0.1727
  897MOL0     H21068   8.972   5.812   6.172  1.4995  0.5816  1.8151
  897MOL0     H21069   9.012   6.095   6.098  2.8277 -2.0703  0.5328
  897MOL0     H21070   8.849   6.024   6.130 -0.6098 -0.9461  2.6995
  897MOL0     H21071   9.082   5.991   6.328  0.6982  1.4314 -1.6013
  897MOL0     H21072   8.911   5.965   6.359  0.0705 -2.5577 -1.9025
  897MOL0     H21073   9.017   6.178   6.448  3.0630 -0.3980 -2.1133
  897MOL0     H21074   8.998   6.246   6.292  1.9630 -0.5591 -0.0997
  897MOL0     H21075   9.370   5.596   5.654 -0.3794 -0.6811  1.2204
  897MOL0     H21076   9.562   5.467   5.673  1.0979 -0.1810 -0.8952
  897MOL0     H21077  10.060   5.477   5.425 -0.2692 -0.1673 -0.4195
  897MOL0     H21078  10.270   5.347   5.454 -0.9381  1.0429 -0.7898
  897MOL0     H21079  10.435   5.815   6.628 -1.2852  2.8445  5.6019
  897MOL0     H21080  10.540   5.765   6.841  1.4955  1.7272 -2.2750
  897MOL0     H21081  10.346   5.460   7.210 -0.7438 -0.3765  0.2269
  897MOL0     H21082  10.357   5.369   7.445  1.2407 -0.5482  0.1816
  897MOL0     H21083  10.553   5.434   7.820 -0.5239  0.4848 -0.2616
  897MOL0     H21084  10.623   5.551   7.707  4.9715 -1.0864 -2.7943
  897MOL0     H21085  10.788   5.360   7.624  0.3382 -0.7922 -0.2629
  897MOL0     H21086  10.724   5.268   7.747 -0.0649 -0.6848 -3.1094
  897MOL0     H21087  10.904   5.339   7.852  3.0884  2.0180 -2.1396
  897MOL0     H21088  10.787   5.460   7.917  1.3136  0.2569  1.1655
  897MOL0     H21089  10.951   5.524   7.665  0.4730  1.0384  0.4817
  897MOL0     H21090  10.846   5.627   7.760  1.1241  1.6021  0.3855
  897MOL0     H21091  11.233   5.681   7.920  0.6908  1.9078 -3.1027
  897MOL0     H21092  10.729   5.560   7.501 -0.4608  0.5266 -1.0098
  897MOL0     H21093  10.850   5.638   7.353  0.8194  1.4486 -0.6424
  897MOL0     H21094  10.834   5.623   7.186  3.8777  2.8253  0.8322
  897MOL0     H21095  10.763   5.764   7.282  0.7477  0.5067  1.6336
  898MOL0     O21096   2.101   9.683   8.468  0.0026  0.1436 -0.4109
  898MOL0     C21097   2.055   9.619   8.377  0.2810  0.2726 -0.0968
  898MOL0     O21098   1.928   9.585   8.364  0.5611  0.1321  0.4681
  898MOL0     C21099   1.833   9.604   8.458 -0.0855 -0.2675  0.7783
  898MOL0     C21100   1.860   9.572   8.592 -0.0838 -0.3696  0.2317
  898MOL0     C21101   1.757   9.569   8.684  0.3427 -0.0535  1.2913
  898MOL0     C21102   1.636   9.638   8.652 -0.6107 -0.1367 -0.1667
  898MOL0     O21103   1.534   9.646   8.748 -0.2256 -0.5111  0.1870
  898MOL0     C21104   1.527   9.783   8.789  0.0753  0.3693 -0.2506
  898MOL0     C21105   1.420   9.788   8.903 -0.4050 -0.4197  0.8085
  898MOL0     C21106   1.457   9.703   9.026  0.0240 -0.3112  0.1369
  898MOL0     C21107   1.575   9.776   9.114 -0.4920  0.1446  0.4969
  898MOL0     C21108   1.606   9.706   9.240 -0.3376 -1.0372 -0.4303
  898MOL0     C21109   1.701   9.790   9.324 -0.2048 -1.0950  1.0170
  898MOL0     C21110   1.719   9.717   9.454 -0.2402  0.3596 -0.2625
  898MOL0     C21111   1.842   9.633   9.462  0.3953  0.6488  0.5399
  898MOL0     N21112   1.826   9.490   9.517  1.2287  0.0016  1.0354
  898MOL0     C21113   1.774   9.459   9.642 -0.1009  0.6737  1.2836
  898MOL0     C21114   1.803   9.326   9.654  0.3254  0.8070 -0.5386
  898MOL0     C21115   1.790   9.256   9.782  0.1170 -0.2742  0.1326
  898MOL0     C21116   1.798   9.105   9.774 -0.5326 -0.2632  0.5991
  898MOL0     C21117   1.934   9.045   9.754 -0.1218  0.2861  0.1261
  898MOL0     C21118   2.038   9.060   9.860 -1.1272 -0.1173  0.0091
  898MOL0     O21119   1.990   9.015   9.977  0.4364 -0.1225 -0.2078
  898MOL0     C21120   2.060   8.920  10.046 -0.1959  0.1938 -0.2284
  898MOL0     C21121   2.200   8.913  10.042  0.2622 -0.0268 -0.1679
  898MOL0     C21122   2.265   8.806  10.104  0.2516 -0.7065  0.1952
  898MOL0     C21123   2.192   8.709  10.176 -0.5744 -0.5070 -0.9166
  898MOL0     C21124   2.268   8.605  10.243 -0.3045 -0.2267 -0.4581
  898MOL0     O21125   2.391   8.630  10.283  0.3102 -0.4099  0.0362
  898MOL0     C21126   2.451   8.511  10.333  0.3787 -0.9425  0.2703
  898MOL0     C21127   2.526   8.431  10.239 -0.6840 -0.6468 -0.3250
  898MOL0     C21128   2.585   8.317  10.285 -0.8235 -0.4398 -0.5867
  898MOL0     C21129   2.572   8.279  10.417  0.1312  0.1027  0.4614
  898MOL0     O21130   2.623   8.153  10.442 -0.7098  0.3920  0.3059
  898MOL0     C21131   2.752   8.173  10.505  0.8388  0.1593  0.1101
  898MOL0     C21132   2.808   8.036  10.519  0.6343 -0.4553 -0.5924
  898MOL0     C21133   2.847   7.975  10.380 -0.1629  0.1371 -0.9182
  898MOL0     C21134   2.884   7.833  10.378 -0.2912  0.3712  0.0743
  898MOL0     C21135   2.932   7.784  10.247  0.2685  0.6201 -0.3318
  898MOL0     C21136   2.904   7.629  10.222 -0.1833 -0.1957 -0.4996
  898MOL0     C21137   2.959   7.596  10.076  0.7005  0.0848  0.0695
  898MOL0     C21138   2.929   7.449  10.039  0.4452  0.1600 -0.0092
  898MOL0    Cl21139   2.987   7.446   9.871 -0.1112  0.0302  0.3956
  898MOL0     C21140   2.498   8.357  10.514  0.0747  0.2740  0.9861
  898MOL0     C21141   2.421   8.461  10.464 -1.0178 -1.6630  0.2157
  898MOL0     O21142   2.204   8.496  10.252  0.2048  0.1882  0.0226
  898MOL0     C21143   2.051   8.713  10.191  0.0366  0.6420  0.4223
  898MOL0     C21144   1.999   8.829  10.122 -0.3478  0.3220 -0.1685
  898MOL0     N21145   1.869   9.277   9.542  0.2120 -0.3991 -0.1510
  898MOL0     N21146   1.881   9.375   9.459  0.7356 -0.1776 -0.5708
  898MOL0     C21147   1.604   9.669   8.514 -0.3367 -0.6726 -0.7381
  898MOL0     C21148   1.707   9.646   8.424 -1.0023  0.3815  0.5910
  898MOL0     C21149   2.154   9.560   8.279 -0.4689  0.5869 -0.7655
  898MOL0     C21150   2.105   9.535   8.152  0.4414 -0.5255  0.5632
  898MOL0     C21151   2.181   9.494   8.052 -0.3616  0.7321  0.3821
  898MOL0     C21152   2.326   9.482   8.071  0.0297  0.6300 -0.3810
  898MOL0     O21153   2.394   9.458   7.952  0.9087  0.1589  0.3159
  898MOL0     C21154   2.532   9.422   7.964  0.6605  0.5537 -0.1544
  898MOL0     C21155   2.590   9.396   7.835 -0.7401  0.7553  0.5541
  898MOL0     C21156   2.590   9.523   7.752 -0.3011 -0.7470  1.1921
  898MOL0     C21157   2.652   9.517   7.608  0.6903  0.8932 -0.1250
  898MOL0     C21158   2.789   9.458   7.584  0.4050 -0.1338 -0.0582
  898MOL0     C21159   2.892   9.408   7.534  0.4202  0.5502 -0.2002
  898MOL0     C21160   2.378   9.492   8.202  0.6493 -0.7125  0.1162
  898MOL0     C21161   2.291   9.539   8.308 -0.1693  0.1018 -0.0918
  898MOL0     C21162   2.349   9.561   8.452 -0.1263  0.0445  0.4448
  898MOL0     H21163   1.962   9.538   8.608  0.0948 -0.3856 -0.8670
  898MOL0     H21164   1.755   9.519   8.780  0.0432 -0.6947  0.9538
  898MOL0     H21165   1.625   9.807   8.832 -0.8513  0.7181  1.7683
  898MOL0     H21166   1.495   9.849   8.708  0.9928 -0.2744 -1.1676
  898MOL0     H21167   1.318   9.763   8.871 -0.6202  1.7713 -0.4098
  898MOL0     H21168   1.420   9.892   8.936  1.9552  0.0457 -0.4573
  898MOL0     H21169   1.486   9.600   9.003  1.3510  0.3681 -1.4590
  898MOL0     H21170   1.368   9.711   9.089  0.8132 -0.6341  1.3168
  898MOL0     H21171   1.664   9.783   9.050 -0.8082  3.8361  0.2642
  898MOL0     H21172   1.532   9.874   9.138  1.1331  0.7301  1.1265
  898MOL0     H21173   1.513   9.691   9.295  0.3793  1.0184  1.4924
  898MOL0     H21174   1.638   9.606   9.207 -0.8299 -0.5155 -2.6841
  898MOL0     H21175   1.792   9.816   9.267 -1.0696 -4.7285 -2.5102
  898MOL0     H21176   1.652   9.883   9.356  3.6167  2.3700 -2.0156
  898MOL0     H21177   1.629   9.659   9.476  0.1002 -0.3452 -0.6942
  898MOL0     H21178   1.731   9.791   9.535  0.5420 -1.4301  1.3381
  898MOL0     H21179   1.906   9.634   9.373 -1.1069  0.8912 -0.5679
  898MOL0     H21180   1.903   9.687   9.535 -1.1427 -1.6704  3.8155
  898MOL0     H21181   1.726   9.526   9.713 -1.3527  3.1112 -1.6379
  898MOL0     H21182   1.862   9.297   9.854 -1.2546  0.3852  1.1702
  898MOL0     H21183   1.694   9.284   9.826 -0.7952 -1.6127 -0.9181
  898MOL0     H21184   1.767   9.065   9.871  0.5984  0.4107  1.2647
  898MOL0     H21185   1.722   9.072   9.702  1.3960 -2.0657 -0.7265
  898MOL0     H21186   1.970   9.080   9.656  3.9579  1.2230  1.7317
  898MOL0     H21187   1.937   8.935   9.749  0.3009  0.1810  1.8813
  898MOL0     H21188   2.059   9.167   9.874  0.0811 -0.0772 -1.8234
  898MOL0     H21189   2.134   9.016   9.832 -0.3188  1.5482  0.0174
  898MOL0     H21190   2.257   8.997  10.005  0.0692 -1.0114 -2.9627
  898MOL0     H21191   2.374   8.801  10.106  0.3665  0.4813 -1.1995
  898MOL0     H21192   2.552   8.456  10.137  1.8468 -3.3647 -0.4834
  898MOL0     H21193   2.642   8.254  10.218  1.8380  1.3430 -0.1532
  898MOL0     H21194   2.826   8.234  10.453 -0.3036  0.9206 -0.6770
  898MOL0     H21195   2.731   8.207  10.607  1.8600 -2.8608  1.4321
  898MOL0     H21196   2.894   8.047  10.586 -0.6478 -1.3407  1.2928
  898MOL0     H21197   2.731   7.976  10.568 -0.6071 -0.6336 -2.6725
  898MOL0     H21198   2.752   7.989  10.326 -2.7814 -2.6936  2.4455
  898MOL0     H21199   2.927   8.038  10.341  0.7587  0.1118  0.8416
  898MOL0     H21200   2.794   7.778  10.409 -2.4054  1.0575 -4.1186
  898MOL0     H21201   2.958   7.816  10.457 -2.6994  0.7748  2.6212
  898MOL0     H21202   3.038   7.803  10.227  0.6694  0.1901  1.2945
  898MOL0     H21203   2.883   7.844  10.169 -1.6366  2.1576  1.8871
  898MOL0     H21204   2.955   7.568  10.296  0.0636  2.8650  2.0523
  898MOL0     H21205   2.798   7.600  10.225 -0.4496  0.8235  0.7758
  898MOL0     H21206   3.065   7.624  10.067  0.6565  0.2784  0.1568
  898MOL0     H21207   2.900   7.660  10.011  2.3390  0.2353 -1.3449
  898MOL0     H21208   2.990   7.392  10.109  1.7370  2.1664  0.5530
  898MOL0     H21209   2.824   7.418  10.043  0.9330 -1.5868  0.0447
  898MOL0     H21210   2.506   8.330  10.619  0.7785 -2.5490  0.2883
  898MOL0     H21211   2.362   8.529  10.525 -1.3894  0.8886 -2.7293
  898MOL0     H21212   1.992   8.646  10.252 -1.8816  0.5394 -1.4573
  898MOL0     H21213   1.891   8.833  10.121 -0.5564 -2.5393 -2.9316
  898MOL0     H21214   1.515   9.726   8.490  1.0623  1.6980 -0.6972
  898MOL0     H21215   1.683   9.672   8.322  0.1328 -3.4925 -0.8282
  898MOL0     H21216   2.001   9.560   8.134  0.7146  0.2558 -0.0350
  898MOL0     H21217   2.145   9.481   7.950  2.3480 -0.1811 -0.5611
  898MOL0     H21218   2.533   9.326   8.017  1.5650  0.0903 -0.9635
  898MOL0     H21219   2.594   9.507   7.993 -0.7478  1.5604  0.0021
  898MOL0     H21220   2.535   9.320   7.779 -1.8267  3.0590 -1.7128
  898MOL0     H21221   2.694   9.362   7.842  0.2125  2.9108 -1.6056
  898MOL0     H21222   2.638   9.610   7.798  0.9630 -0.3754 -0.6840
  898MOL0     H21223   2.490   9.558   7.725  1.0440  1.6813 -1.3197
  898MOL0     H21224   2.586   9.465   7.537 -2.0495  1.6095  1.7568
  898MOL0     H21225   2.662   9.623   7.581 -0.4463  1.7870  2.6102
  898MOL0     H21226   2.975   9.362   7.485 -0.0816  1.5888 -2.1388
  898MOL0     H21227   2.482   9.467   8.219  0.6232 -0.8917  0.0186
  898MOL0     H21228   2.289   9.510   8.527 -2.1601  2.6751  0.7462
  898MOL0     H21229   2.451   9.521   8.450  1.6686  3.1045  6.6059
  898MOL0     H21230   2.350   9.668   8.473  0.5113  0.3395 -0.9841
  899MOL0     O21231   1.899   1.878   5.830 -0.3009 -0.6552  0.2070
  899MOL0     C21232   1.991   1.944   5.894 -0.1500  0.8261 -0.2377
  899MOL0     O21233   2.070   1.893   5.995  0.8394  0.0546  0.2326
  899MOL0     C21234   2.058   1.757   6.001  0.1535 -0.2490 -0.3748
  899MOL0     C21235   2.029   1.701   6.130  0.3626 -0.0101  0.3418
  899MOL0     C21236   2.035   1.561   6.150 -0.6479 -0.3593 -0.3946
  899MOL0     C21237   2.067   1.477   6.036  0.8257  0.0628 -0.2802
  899MOL0     O21238   2.096   1.343   6.064  0.2578 -0.3031  0.2313
  899MOL0     C21239   2.018   1.251   5.991  0.7200  0.4207  0.1661
  899MOL0     C21240   2.079   1.112   5.987  0.6839 -0.6539 -0.1522
  899MOL0     C21241   2.065   1.046   6.129 -0.6037  0.4346  0.1803
  899MOL0     C21242   2.112   0.894   6.139 -0.5125 -0.2102  0.0693
  899MOL0     C21243   2.172   0.839   6.260  0.4448  0.1589 -0.3241
  899MOL0     C21244   2.058   0.793   6.354  0.0754  0.3141  0.3770
  899MOL0     C21245   2.129   0.729   6.467  0.2574 -0.3520 -0.3887
  899MOL0     C21246   2.160   0.583   6.439 -0.0625 -0.6491 -0.0972
  899MOL0     N21247   2.176   0.503   6.561 -0.5163  0.4332 -0.0076
  899MOL0     C21248   2.079   0.487   6.652  0.8798 -0.3164 -1.1412
  899MOL0     C21249   2.130   0.420   6.754 -0.0994  0.9170  1.2045
  899MOL0     C21250   2.052   0.358   6.875  0.0085 -0.7992 -0.2358
  899MOL0     C21251   2.128   0.397   7.006  0.4159 -0.7101  0.1851
  899MOL0     C21252   2.109   0.551   7.044  0.0894 -0.4120 -0.6787
  899MOL0     C21253   2.245   0.588   7.106 -0.0005 -0.2974 -0.0134
  899MOL0     O21254   2.245   0.732   7.116 -0.1925  0.2990  0.4763
  899MOL0     C21255   2.286   0.805   7.008  0.0155 -0.5047  0.3186
  899MOL0     C21256   2.276   0.944   7.021 -0.7760  0.3662 -0.1284
  899MOL0     C21257   2.292   1.034   6.907 -0.0019  0.3173  0.2675
  899MOL0     C21258   2.342   0.993   6.784  0.6323  0.2985  0.0017
  899MOL0     C21259   2.372   1.073   6.667 -0.2677  0.1451  0.1263
  899MOL0     O21260   2.350   1.202   6.679  0.1041  0.0369  0.5994
  899MOL0     C21261   2.379   1.288   6.579 -1.2688  0.4194  0.3759
  899MOL0     C21262   2.327   1.279   6.450 -0.5066 -0.2458 -0.1192
  899MOL0     C21263   2.364   1.376   6.352 -0.8100 -0.1909 -0.3250
  899MOL0     C21264   2.450   1.481   6.387 -0.2469 -1.2200  0.0356
  899MOL0     O21265   2.477   1.588   6.306  0.0021 -0.5141 -0.8532
  899MOL0     C21266   2.403   1.596   6.189 -0.1042  1.0144  0.2826
  899MOL0     C21267   2.422   1.727   6.106  0.1186 -0.3608  0.2128
  899MOL0     C21268   2.560   1.753   6.046  0.4070 -0.8307 -0.2728
  899MOL0     C21269   2.662   1.800   6.149  0.3186 -0.2741  0.3892
  899MOL0     C21270   2.805   1.805   6.085 -0.0548  0.2825  1.1499
  899MOL0     C21271   2.830   1.910   5.976 -0.7145 -0.3455 -0.1330
  899MOL0     C21272   2.976   1.943   5.943 -0.0615 -0.3396 -0.9373
  899MOL0     C21273   2.987   2.071   5.861  0.6183 -1.2294 -1.0162
  899MOL0    Cl21274   2.912   2.220   5.933 -0.1673  0.5235  0.5608
  899MOL0     C21275   2.498   1.489   6.523  0.1091 -0.1788  0.6544
  899MOL0     C21276   2.470   1.383   6.611  0.6797 -1.2308  0.1906
  899MOL0     O21277   2.426   1.019   6.569 -0.5510 -0.7410 -0.6833
  899MOL0     C21278   2.371   0.852   6.776 -0.5945  0.3625 -1.1147
  899MOL0     C21279   2.337   0.765   6.884 -0.2884 -0.0569 -0.4353
  899MOL0     N21280   2.262   0.391   6.711  0.6520 -0.2566 -0.4334
  899MOL0     N21281   2.294   0.441   6.604 -0.0861 -0.1309  0.2376
  899MOL0     C21282   2.097   1.542   5.918 -1.0477  0.7537 -0.0688
  899MOL0     C21283   2.092   1.671   5.899  0.5300  0.1030  0.1649
  899MOL0     C21284   2.009   2.090   5.854  0.4555 -0.0690 -0.3732
  899MOL0     C21285   1.905   2.145   5.780 -0.1611  0.6153 -0.0290
  899MOL0     C21286   1.907   2.282   5.744 -0.4429  0.5175 -0.1386
  899MOL0     C21287   2.020   2.357   5.772  1.4366 -0.2017 -0.5393
  899MOL0     O21288   2.024   2.475   5.710 -0.0018 -1.1804 -0.0088
  899MOL0     C21289   2.147   2.542   5.666  0.0082  1.0569  0.0025
  899MOL0     C21290   2.166   2.520   5.512  0.5660 -0.4584 -0.9776
  899MOL0     C21291   2.191   2.376   5.486 -0.3824  0.3723 -0.7929
  899MOL0     C21292   2.199   2.371   5.331 -0.0077  1.0262  0.2020
  899MOL0     C21293   2.277   2.252   5.283  0.6464  0.8410 -0.1516
  899MOL0     C21294   2.324   2.146   5.237 -0.4884 -0.0761  0.2605
  899MOL0     C21295   2.120   2.307   5.840  0.0518 -0.4363 -0.0697
  899MOL0     C21296   2.117   2.180   5.897  0.3828 -0.3966 -0.5546
  899MOL0     C21297   2.245   2.143   5.981  0.8762 -0.2985  0.2782
  899MOL0     H21298   1.992   1.752   6.218 -1.9885 -0.1291 -0.5241
  899MOL0     H21299   2.022   1.532   6.253  1.2137  0.0532 -0.0124
  899MOL0     H21300   1.918   1.260   6.034  1.0444  4.3396  0.4066
  899MOL0     H21301   2.006   1.274   5.885 -0.8042 -1.5154 -0.1270
  899MOL0     H21302   2.182   1.100   5.952 -0.4158 -5.3060 -2.7540
  899MOL0     H21303   2.027   1.043   5.918  0.4586 -0.6154 -0.0224
  899MOL0     H21304   1.959   1.041   6.155 -0.9875  1.7225 -1.0320
  899MOL0     H21305   2.119   1.107   6.202 -0.5389  0.5994 -0.0037
  899MOL0     H21306   2.027   0.836   6.101 -0.3531  0.1825 -0.9282
  899MOL0     H21307   2.192   0.897   6.064  0.9806  2.6404  1.6335
  899MOL0     H21308   2.225   0.745   6.245 -0.6876 -0.6751  0.6593
  899MOL0     H21309   2.242   0.911   6.302 -0.3374  0.1282  1.0767
  899MOL0     H21310   2.002   0.879   6.392 -0.6281  0.5776 -1.1797
  899MOL0     H21311   1.992   0.724   6.301  2.1169  0.4997 -2.6771
  899MOL0     H21312   2.069   0.737   6.558  2.0254 -1.1386  0.8979
  899MOL0     H21313   2.226   0.770   6.497  0.6826 -0.6903 -1.2461
  899MOL0     H21314   2.073   0.541   6.387  0.5099 -1.7831 -0.1765
  899MOL0     H21315   2.248   0.570   6.376 -1.1504 -0.7485 -1.6583
  899MOL0     H21316   1.974   0.516   6.645  0.9320  0.4902  0.7032
  899MOL0     H21317   1.947   0.387   6.873 -0.3312 -1.9916 -1.3728
  899MOL0     H21318   2.047   0.249   6.865 -0.3693 -0.7302 -0.8584
  899MOL0     H21319   2.085   0.345   7.092  2.3467 -1.0763  0.9846
  899MOL0     H21320   2.233   0.370   6.995  0.3306 -1.7516  1.6166
  899MOL0     H21321   2.027   0.556   7.116  0.5013 -0.2073 -0.2174
  899MOL0     H21322   2.083   0.603   6.951 -0.1532 -1.1996 -1.0570
  899MOL0     H21323   2.334   0.553   7.053  0.9369 -0.8253  1.8026
  899MOL0     H21324   2.258   0.540   7.204 -1.8288 -0.7556  0.0374
  899MOL0     H21325   2.245   0.989   7.114  0.0855  4.7880 -1.7364
  899MOL0     H21326   2.263   1.138   6.921 -5.5223 -0.8277 -0.0880
  899MOL0     H21327   2.269   1.189   6.434 -0.1854 -0.1997 -1.7494
  899MOL0     H21328   2.326   1.372   6.250 -0.4989  0.1572 -0.4588
  899MOL0     H21329   2.425   1.510   6.126  2.4056  1.6870  0.1670
  899MOL0     H21330   2.296   1.585   6.210 -0.8468 -0.0820 -3.3457
  899MOL0     H21331   2.349   1.719   6.025  0.3978  0.7166 -0.1639
  899MOL0     H21332   2.406   1.810   6.176  0.2700 -0.1092 -0.0505
  899MOL0     H21333   2.600   1.669   5.990 -2.0420 -1.4094 -1.3018
  899MOL0     H21334   2.553   1.837   5.975 -1.6435 -0.6037  0.1195
  899MOL0     H21335   2.660   1.728   6.232 -0.7136 -0.5687  0.1153
  899MOL0     H21336   2.611   1.887   6.190 -0.9014 -0.0783 -1.4416
  899MOL0     H21337   2.836   1.708   6.045  0.5500 -0.0304  2.3119
  899MOL0     H21338   2.872   1.825   6.170  1.9085 -2.8363  0.5062
  899MOL0     H21339   2.776   1.874   5.888 -4.3941 -0.1094  1.8580
  899MOL0     H21340   2.780   2.004   6.003 -0.7187  0.1449 -1.7691
  899MOL0     H21341   3.023   1.862   5.886 -0.3164 -2.7471  1.9923
  899MOL0     H21342   3.027   1.945   6.039 -2.2479 -0.8484  0.3061
  899MOL0     H21343   3.090   2.105   5.848 -0.3060  1.6483 -1.6632
  899MOL0     H21344   2.948   2.053   5.760  0.4952 -2.3991 -0.7749
  899MOL0     H21345   2.566   1.565   6.562 -1.5491  0.9471  1.4562
  899MOL0     H21346   2.507   1.391   6.712  1.6824  0.7910 -0.2825
  899MOL0     H21347   2.419   0.800   6.694  3.1262  0.7629  0.5992
  899MOL0     H21348   2.363   0.661   6.863 -2.4837 -0.7855  0.2569
  899MOL0     H21349   2.135   1.477   5.840 -0.4212  0.1385  0.7186
  899MOL0     H21350   2.113   1.721   5.804  3.0833  0.8320  1.0289
  899MOL0     H21351   1.816   2.086   5.758 -0.1088  1.4995 -3.0220
  899MOL0     H21352   1.823   2.325   5.691 -0.5307  0.4574 -0.0497
  899MOL0     H21353   2.246   2.516   5.706  1.1037  2.2080 -1.7915
  899MOL0     H21354   2.131   2.647   5.690 -0.9792  1.5335 -2.4222
  899MOL0     H21355   2.240   2.588   5.468 -2.3187  0.5082 -4.8495
  899MOL0     H21356   2.065   2.523   5.470 -0.9648 -5.0198  1.6502
  899MOL0     H21357   2.118   2.303   5.522  0.0856  0.7229  0.9227
  899MOL0     H21358   2.283   2.349   5.538  0.8036  1.9101 -1.9908
  899MOL0     H21359   2.098   2.365   5.291  1.2821  0.2855 -3.2245
  899MOL0     H21360   2.247   2.454   5.279  0.0249 -0.1171 -1.6923
  899MOL0     H21361   2.371   2.059   5.195  0.1096 -0.5398  1.8077
  899MOL0     H21362   2.208   2.365   5.867  1.6703 -3.5668  1.8559
  899MOL0     H21363   2.232   2.072   6.063 -1.5166  2.0956  2.1370
  899MOL0     H21364   2.327   2.111   5.915 -0.5646  0.5102 -2.0443
  899MOL0     H21365   2.280   2.229   6.039  1.1533 -1.1997  1.4723
  900MOL0     O21366   0.234   1.436  11.269 -0.0608  0.6625 -0.0060
  900MOL0     C21367   0.322   1.427  11.190  0.0607 -0.1376  1.0073
  900MOL0     O21368   0.455   1.473  11.208 -0.3191  0.4942 -0.3785
  900MOL0     C21369   0.486   1.507  11.330  0.2562 -0.0141  0.0151
  900MOL0     C21370   0.509   1.645  11.358 -1.3870 -0.1601 -0.3050
  900MOL0     C21371   0.550   1.681  11.481 -0.2256  0.4080 -0.1970
  900MOL0     C21372   0.535   1.595  11.590  0.0367  0.9954  0.7222
  900MOL0     O21373   0.573   1.629  11.719 -0.0126 -0.8292  0.2699
  900MOL0     C21374   0.470   1.587  11.817  0.2150 -0.7933  0.6042
  900MOL0     C21375   0.335   1.648  11.806  0.1871 -0.7097  0.0567
  900MOL0     C21376   0.341   1.801  11.836 -0.6982  0.0225  0.1753
  900MOL0     C21377   0.198   1.867  11.810  0.1801  0.2522  0.0814
  900MOL0     C21378   0.101   1.861  11.922 -0.7203  0.3380  0.9069
  900MOL0     C21379  -0.035   1.931  11.894  0.6179  0.9083 -0.2103
  900MOL0     C21380  -0.145   1.880  11.997 -0.0395 -0.1462 -0.0994
  900MOL0     C21381  -0.292   1.891  11.946 -0.8008  0.2243 -0.6302
  900MOL0     N21382  -0.339   2.030  11.902 -0.7629  0.4143 -0.7785
  900MOL0     C21383  -0.318   2.151  11.976  0.8184  0.3960  0.6563
  900MOL0     C21384  -0.350   2.242  11.883 -0.5017 -0.0315 -1.1217
  900MOL0     C21385  -0.349   2.382  11.935 -0.5372  0.5640 -0.1627
  900MOL0     C21386  -0.297   2.481  11.834  0.4184  0.0781  0.7286
  900MOL0     C21387  -0.281   2.625  11.881  0.0415  0.2038 -0.4514
  900MOL0     C21388  -0.202   2.698  11.770  0.0297  0.1789  0.9245
  900MOL0     O21389  -0.301   2.745  11.673 -0.2802 -1.0144  0.5023
  900MOL0     C21390  -0.260   2.827  11.559  0.0801  1.0965 -0.3625
  900MOL0     C21391  -0.348   2.911  11.498  0.6491 -0.2930 -0.1006
  900MOL0     C21392  -0.321   2.991  11.383 -0.3179  0.7925  0.2690
  900MOL0     C21393  -0.196   2.973  11.318  0.9134  0.9878 -0.3014
  900MOL0     C21394  -0.162   3.052  11.198  0.1613  0.8435 -0.2932
  900MOL0     O21395  -0.262   3.136  11.148  0.1349 -0.0525  0.9144
  900MOL0     C21396  -0.258   3.175  11.010  0.2483  0.6434 -0.0811
  900MOL0     C21397  -0.341   3.276  10.972  0.2839  0.6069  0.8542
  900MOL0     C21398  -0.351   3.328  10.843  0.3771  0.4246  0.7359
  900MOL0     C21399  -0.298   3.258  10.729  0.0556 -0.1326  0.5571
  900MOL0     O21400  -0.297   3.295  10.597  0.1445  0.6392  0.1403
  900MOL0     C21401  -0.380   3.402  10.554 -0.4362 -0.7983  1.4208
  900MOL0     C21402  -0.292   3.524  10.519  0.6487 -0.1843  0.2946
  900MOL0     C21403  -0.232   3.607  10.634 -0.7546  1.2940  0.6533
  900MOL0     C21404  -0.126   3.703  10.606  0.0186  0.4214  0.3853
  900MOL0     C21405  -0.180   3.830  10.536  0.7112  0.0420  0.0946
  900MOL0     C21406  -0.061   3.901  10.463  0.9869  0.0829 -0.7324
  900MOL0     C21407   0.040   3.946  10.566 -0.2079  0.6002 -0.1186
  900MOL0     C21408   0.161   4.012  10.497  0.6924 -0.0693  0.2506
  900MOL0    Cl21409   0.265   4.022  10.638 -0.4101 -0.4017  0.4291
  900MOL0     C21410  -0.216   3.144  10.759 -0.1057 -0.8087  0.6558
  900MOL0     C21411  -0.206   3.094  10.894  1.3580 -0.5785  0.2022
  900MOL0     O21412  -0.047   3.047  11.155  0.2716  0.4924  0.6521
  900MOL0     C21413  -0.109   2.885  11.379 -0.4690  0.5695 -0.5077
  900MOL0     C21414  -0.133   2.808  11.501 -0.4509 -0.3661 -0.6752
  900MOL0     N21415  -0.395   2.191  11.770  0.2758  0.6117  0.3812
  900MOL0     N21416  -0.388   2.061  11.784 -0.4119  0.1176  0.3807
  900MOL0     C21417   0.502   1.454  11.565 -0.4579  0.4403 -0.0412
  900MOL0     C21418   0.488   1.408  11.437  0.5792 -1.0615  0.7330
  900MOL0     C21419   0.287   1.374  11.057  0.4374  0.3030  0.1501
  900MOL0     C21420   0.167   1.306  11.035  0.2842  0.0538 -0.6721
  900MOL0     C21421   0.126   1.259  10.909  0.3332  0.3526 -1.4786
  900MOL0     C21422   0.202   1.282  10.798  0.3005 -0.2018  0.6119
  900MOL0     O21423   0.152   1.223  10.678  0.0593  0.4508  1.2501
  900MOL0     C21424   0.207   1.270  10.550 -0.2455  0.6684  0.4899
  900MOL0     C21425   0.160   1.170  10.446  0.6085  0.0088 -0.7859
  900MOL0     C21426   0.016   1.195  10.402  0.4270  0.4605 -0.2991
  900MOL0     C21427  -0.053   1.075  10.328  0.1058 -0.6621 -0.7798
  900MOL0     C21428  -0.192   1.103  10.316  0.0824  0.9733  0.4243
  900MOL0     C21429  -0.316   1.129  10.303 -0.2750  0.0848 -0.4146
  900MOL0     C21430   0.325   1.351  10.820 -0.9598 -0.4145  0.9452
  900MOL0     C21431   0.362   1.410  10.943  0.1434  0.3315  0.8951
  900MOL0     C21432   0.489   1.501  10.937 -0.2713 -0.4233 -0.0422
  900MOL0     H21433   0.506   1.718  11.277  0.6458  1.2745  0.8273
  900MOL0     H21434   0.578   1.780  11.517 -0.4397 -0.5480  2.9397
  900MOL0     H21435   0.456   1.478  11.819  1.4472 -1.1101 -2.7748
  900MOL0     H21436   0.517   1.603  11.915  1.2377 -0.2840  0.0469
  900MOL0     H21437   0.272   1.593  11.877 -0.3879 -0.8121 -0.5204
  900MOL0     H21438   0.298   1.634  11.704  1.3334  1.9982 -0.8144
  900MOL0     H21439   0.409   1.841  11.760 -1.5459  2.3937  0.5776
  900MOL0     H21440   0.374   1.839  11.933  2.3028  1.9693 -1.4259
  900MOL0     H21441   0.208   1.975  11.794  1.7138  0.2559  0.9069
  900MOL0     H21442   0.161   1.816  11.721  1.4830 -2.9256  1.2265
  900MOL0     H21443   0.072   1.760  11.951 -1.8825 -0.2992 -2.0865
  900MOL0     H21444   0.146   1.915  12.006 -0.0987 -2.3046  2.3733
  900MOL0     H21445  -0.040   2.041  11.900  0.0291  0.8283  0.9011
  900MOL0     H21446  -0.072   1.904  11.795  2.3637  2.2147 -1.2899
  900MOL0     H21447  -0.137   1.908  12.102 -0.9825  0.1357 -0.0978
  900MOL0     H21448  -0.122   1.773  12.007  0.5556 -0.0944 -0.8417
  900MOL0     H21449  -0.307   1.819  11.865 -3.3810  1.0071 -0.9182
  900MOL0     H21450  -0.342   1.852  12.035 -0.7247  1.2973 -0.1009
  900MOL0     H21451  -0.289   2.152  12.081  0.5649 -1.6702  0.7883
  900MOL0     H21452  -0.458   2.395  11.942 -1.1795 -2.5243 -2.2388
  900MOL0     H21453  -0.295   2.379  12.030  1.4297  1.0217 -1.2360
  900MOL0     H21454  -0.208   2.428  11.798  1.1853 -0.1442  2.8078
  900MOL0     H21455  -0.364   2.484  11.748  0.5388 -1.5556  0.5403
  900MOL0     H21456  -0.219   2.623  11.972 -0.7617 -1.5381  0.1017
  900MOL0     H21457  -0.382   2.663  11.899 -1.0964 -3.0548  0.6662
  900MOL0     H21458  -0.136   2.628  11.718  1.0094  1.6945  0.0548
  900MOL0     H21459  -0.151   2.787  11.807  3.5772 -0.2995 -2.1712
  900MOL0     H21460  -0.442   2.920  11.551  0.0536 -3.8989 -0.2671
  900MOL0     H21461  -0.389   3.066  11.346  1.2466  2.2291  0.1544
  900MOL0     H21462  -0.399   3.334  11.043 -6.9043 -0.2118 -3.2550
  900MOL0     H21463  -0.392   3.429  10.846  0.4747  0.4369  1.7938
  900MOL0     H21464  -0.426   3.367  10.461  0.1647  2.0957 -0.0830
  900MOL0     H21465  -0.450   3.429  10.634 -0.0120 -1.4196  2.0086
  900MOL0     H21466  -0.217   3.493  10.446 -0.6965 -3.9164  0.2710
  900MOL0     H21467  -0.361   3.585  10.460 -0.2471 -0.4886  1.0036
  900MOL0     H21468  -0.311   3.659  10.688  0.1660  3.1685  0.2643
  900MOL0     H21469  -0.184   3.536  10.703 -1.6089 -0.4061 -0.4229
  900MOL0     H21470  -0.056   3.656  10.537 -2.2929  0.0197 -1.8292
  900MOL0     H21471  -0.076   3.738  10.697  3.5743  0.2006 -1.3146
  900MOL0     H21472  -0.243   3.893  10.600  0.4736  0.2376 -0.3185
  900MOL0     H21473  -0.250   3.787  10.463  3.1091  0.9321 -2.9677
  900MOL0     H21474  -0.016   3.830  10.394  0.2606  0.6875 -1.8544
  900MOL0     H21475  -0.095   3.988  10.406  3.2521  1.5556  0.0086
  900MOL0     H21476   0.080   3.860  10.621 -0.3687  1.8603  2.0902
  900MOL0     H21477  -0.012   4.022  10.625 -0.6214 -1.0931  1.8228
  900MOL0     H21478   0.192   3.938  10.423  0.2680  0.1324 -0.1357
  900MOL0     H21479   0.137   4.110  10.454  3.3899  0.2998 -0.5918
  900MOL0     H21480  -0.163   3.090  10.681 -1.1558  0.3410 -0.9015
  900MOL0     H21481  -0.151   3.001  10.905  3.1176  0.3539 -0.1944
  900MOL0     H21482  -0.010   2.879  11.335  0.0964  0.3743  0.7431
  900MOL0     H21483  -0.066   2.746  11.560 -1.1950  0.2343  0.8882
  900MOL0     H21484   0.501   1.385  11.649 -2.0700 -1.2904 -1.3932
  900MOL0     H21485   0.482   1.305  11.401  2.2576 -0.5727 -1.1264
  900MOL0     H21486   0.102   1.280  11.118  1.5792  1.3434  0.8200
  900MOL0     H21487   0.028   1.213  10.895 -0.2155  0.6324  0.9823
  900MOL0     H21488   0.315   1.284  10.555 -0.1127  0.3870 -1.0885
  900MOL0     H21489   0.158   1.367  10.537 -0.5587  0.5737  0.9101
  900MOL0     H21490   0.182   1.073  10.491  0.7614  1.4231  2.4534
  900MOL0     H21491   0.224   1.179  10.358 -0.9969 -0.6003 -2.0690
  900MOL0     H21492   0.030   1.284  10.339 -1.1641  0.7278 -0.3287
  900MOL0     H21493  -0.049   1.225  10.484 -2.8110 -4.1087 -0.8015
  900MOL0     H21494  -0.008   1.052  10.231  0.0371  0.0762 -0.9960
  900MOL0     H21495  -0.049   0.981  10.383 -0.3608 -1.8463 -2.6891
  900MOL0     H21496  -0.420   1.155  10.303  0.2677  2.4477  0.1625
  900MOL0     H21497   0.381   1.372  10.729 -3.2536  0.1025 -0.4153
  900MOL0     H21498   0.494   1.550  10.840 -0.5295 -0.8962 -0.2970
  900MOL0     H21499   0.497   1.579  11.014  1.1571  2.1167 -2.5611
  900MOL0     H21500   0.582   1.443  10.949  0.1612  0.5975  2.1417
  901MOL0     O21501   8.662   8.253   4.218 -0.3334  0.4029  0.3507
  901MOL0     C21502   8.755   8.222   4.145 -0.4748  0.0434  0.1726
  901MOL0     O21503   8.736   8.181   4.015  0.3545 -0.0585 -0.4591
  901MOL0     C21504   8.613   8.195   3.960 -0.1553 -0.1204 -0.1355
  901MOL0     C21505   8.539   8.083   3.940 -0.7959 -0.0156  0.1931
  901MOL0     C21506   8.412   8.089   3.884  0.2883  0.6563 -0.5719
  901MOL0     C21507   8.360   8.207   3.826 -0.0502  0.7266  0.7210
  901MOL0     O21508   8.241   8.185   3.763  0.0081  0.9516 -0.1936
  901MOL0     C21509   8.192   8.291   3.683 -0.6745  0.2330  0.2283
  901MOL0     C21510   8.081   8.247   3.590  0.6226  0.3752  0.3898
  901MOL0     C21511   8.129   8.145   3.479  0.4196 -0.4381 -0.9712
  901MOL0     C21512   8.010   8.113   3.383 -0.2967 -0.2346  0.0010
  901MOL0     C21513   8.051   8.049   3.246 -0.2152  0.4244 -0.4552
  901MOL0     C21514   7.979   7.911   3.217  0.5403  0.4143 -0.8713
  901MOL0     C21515   7.856   7.946   3.133  0.2321  0.2099 -0.5449
  901MOL0     C21516   7.738   7.844   3.166 -0.0805 -0.0935 -0.5980
  901MOL0     N21517   7.616   7.880   3.097 -0.0148  0.1909 -0.7417
  901MOL0     C21518   7.552   8.004   3.095  0.7445  0.0480 -0.2095
  901MOL0     C21519   7.445   7.994   3.008 -0.3420  0.8489  0.2381
  901MOL0     C21520   7.344   8.097   2.982 -0.3970 -0.3782  1.1227
  901MOL0     C21521   7.339   8.133   2.830  1.2061 -0.1632  0.1626
  901MOL0     C21522   7.252   8.249   2.779 -0.0389  0.5247  0.2652
  901MOL0     C21523   7.266   8.381   2.848  0.5973 -0.2589  0.1999
  901MOL0     O21524   7.161   8.469   2.806 -0.1823 -0.5940  0.2921
  901MOL0     C21525   7.041   8.473   2.872 -0.1914 -0.3056 -1.1803
  901MOL0     C21526   6.995   8.369   2.953 -0.1369  0.1805 -0.2049
  901MOL0     C21527   6.873   8.384   3.019 -0.5727 -0.7539 -1.1466
  901MOL0     C21528   6.784   8.490   3.006  0.8204 -0.0327 -0.3056
  901MOL0     C21529   6.643   8.487   3.051 -0.9771  0.5175  0.2415
  901MOL0     O21530   6.563   8.588   3.018 -0.2423 -0.6856 -0.0706
  901MOL0     C21531   6.429   8.600   3.052 -0.9992  1.5799  0.2686
  901MOL0     C21532   6.377   8.725   3.069 -0.4177  0.4183 -0.3189
  901MOL0     C21533   6.236   8.736   3.089 -0.6644 -0.0065  0.8370
  901MOL0     C21534   6.153   8.630   3.102  0.0441 -0.6663  0.6927
  901MOL0     O21535   6.028   8.644   3.124  0.7135  0.8058 -0.5103
  901MOL0     C21536   5.945   8.593   3.015 -0.4724  0.4273 -1.0321
  901MOL0     C21537   5.814   8.667   3.016  0.1257 -0.4239  0.1800
  901MOL0     C21538   5.838   8.817   3.003 -0.9437 -0.4632  1.1476
  901MOL0     C21539   5.716   8.905   3.025 -0.6899  0.9826  0.1376
  901MOL0     C21540   5.739   9.045   2.976  0.1649 -1.7105 -0.1200
  901MOL0     C21541   5.617   9.135   2.983 -0.4911 -1.1021  0.4958
  901MOL0     C21542   5.545   9.150   3.121 -0.2152 -0.0160 -0.7772
  901MOL0     C21543   5.630   9.195   3.237 -0.2078  0.8587 -0.0180
  901MOL0    Cl21544   5.513   9.211   3.372  0.1261  0.9587 -0.0077
  901MOL0     C21545   6.205   8.499   3.083  0.1476 -0.1514  0.0638
  901MOL0     C21546   6.344   8.485   3.052 -0.1547  0.4256  0.6603
  901MOL0     O21547   6.621   8.390   3.125  0.4387 -0.4299  0.2579
  901MOL0     C21548   6.833   8.592   2.933  0.0626  0.3023  0.5641
  901MOL0     C21549   6.956   8.576   2.862 -0.8149 -0.2638  0.0830
  901MOL0     N21550   7.442   7.862   2.969 -0.0950  0.3867 -0.2270
  901MOL0     N21551   7.552   7.803   2.994  0.2843 -0.4889 -0.3401
  901MOL0     C21552   8.439   8.323   3.836  0.5340  1.0560 -0.4551
  901MOL0     C21553   8.559   8.317   3.910  0.4456  0.2167 -0.0354
  901MOL0     C21554   8.889   8.213   4.203  0.1524 -0.1079 -1.1017
  901MOL0     C21555   8.918   8.277   4.324  0.2021  0.0059 -0.5110
  901MOL0     C21556   9.055   8.280   4.374  0.3929  0.6105  0.2785
  901MOL0     C21557   9.153   8.212   4.317 -0.6700  0.0687 -1.1877
  901MOL0     O21558   9.280   8.220   4.378  0.0946 -0.0891  0.3449
  901MOL0     C21559   9.394   8.178   4.303  0.4641 -0.5509 -1.1817
  901MOL0     C21560   9.515   8.259   4.363  0.1227  0.1458 -0.8950
  901MOL0     C21561   9.517   8.396   4.293  0.8156 -0.4949 -0.2204
  901MOL0     C21562   9.658   8.462   4.296 -0.4743  1.0280  1.5576
  901MOL0     C21563   9.741   8.393   4.193 -1.2249  0.6627 -0.9235
  901MOL0     C21564   9.816   8.322   4.124  0.0967  1.1993  1.3810
  901MOL0     C21565   9.125   8.150   4.201 -0.2604  0.2661  0.1672
  901MOL0     C21566   8.995   8.145   4.139 -0.4894  0.0306 -0.1976
  901MOL0     C21567   8.981   8.060   4.010 -0.8510 -0.0669  0.3976
  901MOL0     H21568   8.572   7.984   3.969 -0.6931  0.3199  1.2805
  901MOL0     H21569   8.360   7.997   3.859 -1.2390  1.5580 -0.8145
  901MOL0     H21570   8.150   8.356   3.761 -1.7578 -2.6217  2.2203
  901MOL0     H21571   8.275   8.331   3.625 -1.2384 -1.3546 -1.8042
  901MOL0     H21572   8.041   8.332   3.534  1.0045 -0.5899 -1.4187
  901MOL0     H21573   7.993   8.208   3.642 -0.3701 -0.4816 -1.7824
  901MOL0     H21574   8.166   8.058   3.535 -0.0044 -0.0528 -0.0714
  901MOL0     H21575   8.208   8.179   3.412  0.3705 -4.0950 -3.1598
  901MOL0     H21576   7.939   8.049   3.437 -0.6433 -0.3930 -0.6347
  901MOL0     H21577   7.954   8.203   3.354  1.5683  0.4086 -1.8268
  901MOL0     H21578   8.022   8.119   3.167  2.7565  3.1302  0.6349
  901MOL0     H21579   8.159   8.047   3.235 -0.3276 -0.4948 -1.5779
  901MOL0     H21580   8.046   7.842   3.166 -0.6783  0.1868 -2.2723
  901MOL0     H21581   7.953   7.869   3.314  0.3488  0.2647 -0.9857
  901MOL0     H21582   7.886   7.937   3.028  0.9894 -0.3511 -0.2931
  901MOL0     H21583   7.829   8.052   3.138  0.4165  0.3677 -2.3927
  901MOL0     H21584   7.771   7.741   3.151  1.4580  0.4673 -1.3086
  901MOL0     H21585   7.708   7.869   3.268 -0.0646  1.3698 -0.9215
  901MOL0     H21586   7.566   8.085   3.166 -0.5136 -0.2956  0.4749
  901MOL0     H21587   7.246   8.055   3.006 -1.7930  1.4328 -0.9611
  901MOL0     H21588   7.359   8.188   3.040 -3.7332  0.9411  0.1560
  901MOL0     H21589   7.443   8.159   2.809  0.6108  2.1780 -0.1916
  901MOL0     H21590   7.329   8.046   2.765  0.4993 -0.6385  0.8818
  901MOL0     H21591   7.148   8.216   2.767  0.0259  0.1864  0.6165
  901MOL0     H21592   7.284   8.259   2.675  1.6860  3.7339  0.9807
  901MOL0     H21593   7.363   8.430   2.834 -0.9537  4.3797  3.3812
  901MOL0     H21594   7.272   8.372   2.957 -0.0406  1.4941  0.4010
  901MOL0     H21595   7.052   8.280   2.980 -0.0288  1.0212  2.6249
  901MOL0     H21596   6.838   8.310   3.091 -3.1753  1.3247 -0.1330
  901MOL0     H21597   6.441   8.812   3.066  0.7739 -0.4419 -0.3200
  901MOL0     H21598   6.196   8.835   3.109 -0.1023 -0.2262  3.4546
  901MOL0     H21599   5.999   8.587   2.920  2.4534 -0.1456  0.5288
  901MOL0     H21600   5.932   8.488   3.042 -0.8282  0.7768  0.2090
  901MOL0     H21601   5.740   8.625   2.949 -3.4887  1.8244  2.4164
  901MOL0     H21602   5.761   8.659   3.111 -0.8086  0.0651 -0.2938
  901MOL0     H21603   5.915   8.851   3.073 -0.9155  0.9606  0.4729
  901MOL0     H21604   5.872   8.841   2.901 -1.5901  3.9584  1.7651
  901MOL0     H21605   5.689   8.909   3.131 -1.3558  0.0675  0.0109
  901MOL0     H21606   5.633   8.857   2.973  0.1791 -3.8527  2.6214
  901MOL0     H21607   5.793   9.060   2.882  4.4323  2.2366  2.5460
  901MOL0     H21608   5.813   9.089   3.043 -1.2766 -0.3451  0.6530
  901MOL0     H21609   5.638   9.232   2.938 -0.5813 -0.0776  2.5093
  901MOL0     H21610   5.543   9.087   2.918 -0.1295  0.0559 -0.8196
  901MOL0     H21611   5.500   9.053   3.144 -5.0339  1.5245 -2.4437
  901MOL0     H21612   5.463   9.221   3.108 -0.4314 -0.2920 -0.9440
  901MOL0     H21613   5.691   9.108   3.263 -1.3411  1.0446  4.0043
  901MOL0     H21614   5.682   9.289   3.221 -1.6700  2.0718  1.9145
  901MOL0     H21615   6.143   8.411   3.093 -1.1826  0.6761 -0.6060
  901MOL0     H21616   6.391   8.387   3.056 -1.2191 -0.1551 -0.4730
  901MOL0     H21617   6.772   8.681   2.925 -0.7505 -0.2266  0.7747
  901MOL0     H21618   6.975   8.655   2.790 -0.6564 -0.8807 -0.5644
  901MOL0     H21619   8.416   8.418   3.788  2.3457  3.9099  3.7005
  901MOL0     H21620   8.619   8.406   3.922 -1.6909  2.0192 -1.9297
  901MOL0     H21621   8.843   8.327   4.385 -0.2206 -1.1741 -0.0241
  901MOL0     H21622   9.087   8.341   4.458  0.6091  2.1899 -0.9239
  901MOL0     H21623   9.377   8.186   4.195 -4.5605 -1.6355 -0.7385
  901MOL0     H21624   9.407   8.069   4.305 -3.1296 -1.1498 -2.9526
  901MOL0     H21625   9.610   8.213   4.335  0.3644  1.2608 -2.0017
  901MOL0     H21626   9.501   8.265   4.471 -1.0997  7.2135 -0.9884
  901MOL0     H21627   9.456   8.474   4.340  0.2060  0.4129 -2.4341
  901MOL0     H21628   9.473   8.387   4.194 -1.5845 -0.2173  0.7487
  901MOL0     H21629   9.641   8.557   4.244 -1.3997  0.4969  0.8428
  901MOL0     H21630   9.714   8.458   4.390 -0.6237 -0.9298  1.6122
  901MOL0     H21631   9.899   8.275   4.074 -1.4149 -0.2527  0.0845
  901MOL0     H21632   9.211   8.115   4.144  0.4902 -0.7547  1.8339
  901MOL0     H21633   9.070   8.007   3.977  2.2818  3.4187  2.3652
  901MOL0     H21634   8.895   7.993   4.018 -2.3189  1.8644  2.0135
  901MOL0     H21635   8.960   8.135   3.933 -3.4188  0.3149  1.3829
  902MOL0     O21636  10.134  11.273   5.558 -0.8264 -0.1145  0.3166
  902MOL0     C21637  10.017  11.257   5.534  1.5984  0.3104  0.5806
  902MOL0     O21638   9.968  11.201   5.429 -0.3537  0.6790 -0.2853
  902MOL0     C21639  10.063  11.164   5.331  0.5125 -0.8643  0.6398
  902MOL0     C21640  10.067  11.233   5.207 -0.3876 -0.0688  1.4849
  902MOL0     C21641  10.168  11.213   5.109 -0.1942 -0.0747  0.0499
  902MOL0     C21642  10.262  11.110   5.138 -0.7735  0.2977  0.9212
  902MOL0     O21643  10.372  11.080   5.057 -0.4533 -0.5586  0.1735
  902MOL0     C21644  10.347  11.069   4.921  0.1812 -0.0628  0.1976
  902MOL0     C21645  10.475  11.016   4.861 -0.7196 -0.0905  0.4343
  902MOL0     C21646  10.446  10.959   4.719  0.1297  0.0895 -0.1138
  902MOL0     C21647  10.441  11.069   4.623  0.7131  1.4780 -0.4342
  902MOL0     C21648  10.409  11.021   4.478  1.1417 -0.5918 -0.7138
  902MOL0     C21649  10.519  10.940   4.415  0.8905  0.1500  0.1844
  902MOL0     C21650  10.483  10.927   4.271  0.6693 -0.3580 -0.1863
  902MOL0     C21651  10.493  11.060   4.182 -0.6622 -0.0162 -0.1637
  902MOL0     N21652  10.445  11.041   4.047  0.1832 -0.3521  0.8674
  902MOL0     C21653  10.493  11.120   3.943 -0.2944 -0.1082  0.1548
  902MOL0     C21654  10.413  11.103   3.840  0.8424  0.2657  0.2374
  902MOL0     C21655  10.418  11.180   3.715 -0.7331 -0.0956  0.4289
  902MOL0     C21656  10.410  11.079   3.598 -0.3598 -0.0033  0.5295
  902MOL0     C21657  10.483  11.119   3.462 -0.5924 -0.2633 -0.0295
  902MOL0     C21658  10.436  11.254   3.399  0.1412 -0.2861 -0.0117
  902MOL0     O21659  10.545  11.315   3.337  0.9983 -0.4087  0.1666
  902MOL0     C21660  10.551  11.307   3.204  0.2533 -0.5575  0.4731
  902MOL0     C21661  10.649  11.228   3.146  0.1983 -0.4202 -0.1032
  902MOL0     C21662  10.655  11.210   3.009 -0.3236 -0.2437  0.2680
  902MOL0     C21663  10.556  11.269   2.928  0.3784  0.7510  0.0746
  902MOL0     C21664  10.546  11.248   2.785 -1.4444  0.6297 -0.3685
  902MOL0     O21665  10.440  11.289   2.722 -0.1789 -0.7230 -0.4148
  902MOL0     C21666  10.428  11.275   2.591 -0.3008 -0.8443  0.2711
  902MOL0     C21667  10.385  11.160   2.528  0.1244  0.3638 -0.3922
  902MOL0     C21668  10.373  11.151   2.392 -0.1335 -0.3403  0.3788
  902MOL0     C21669  10.390  11.265   2.310 -0.5369 -0.2474 -0.0863
  902MOL0     O21670  10.361  11.258   2.179  0.5548  0.0108 -0.1621
  902MOL0     C21671  10.263  11.357   2.132  0.6220  0.2946  0.2068
  902MOL0     C21672  10.196  11.311   1.999  0.2166  0.0049 -0.2881
  902MOL0     C21673  10.301  11.279   1.894  0.0326  0.8352 -0.5204
  902MOL0     C21674  10.242  11.224   1.762 -0.4164 -0.4389  0.9118
  902MOL0     C21675  10.135  11.317   1.704  0.1241 -0.3100 -0.9434
  902MOL0     C21676  10.106  11.258   1.566 -0.6042 -0.4320 -0.5003
  902MOL0     C21677   9.966  11.299   1.508 -0.5200 -0.1434 -0.6095
  902MOL0     C21678   9.968  11.441   1.474  0.5297  0.0043 -0.0024
  902MOL0    Cl21679  10.092  11.490   1.361 -0.0027 -0.2230  0.1362
  902MOL0     C21680  10.435  11.385   2.374  0.3588 -0.2903  0.1656
  902MOL0     C21681  10.451  11.388   2.513  0.4689  0.7582  0.6772
  902MOL0     O21682  10.643  11.186   2.733  0.2085  0.0197 -0.1855
  902MOL0     C21683  10.460  11.349   2.984  0.2829 -0.4679  0.0204
  902MOL0     C21684  10.464  11.381   3.124 -0.5650  0.7783  0.1566
  902MOL0     N21685  10.335  10.993   3.871  0.2359  0.2716 -0.0253
  902MOL0     N21686  10.353  10.965   3.996 -0.9075 -0.2142 -0.6863
  902MOL0     C21687  10.256  11.036   5.257  0.3152 -0.2469 -0.9352
  902MOL0     C21688  10.161  11.067   5.358  0.5169 -0.2420  0.5876
  902MOL0     C21689   9.915  11.312   5.627 -0.8584 -0.2928 -1.0102
  902MOL0     C21690   9.790  11.347   5.583 -0.4006 -0.3830 -0.5172
  902MOL0     C21691   9.708  11.390   5.685  0.1133  0.1046 -0.7707
  902MOL0     C21692   9.744  11.405   5.824  0.6643  0.2464 -0.0653
  902MOL0     O21693   9.639  11.437   5.905  0.3938 -0.2836 -0.0379
  902MOL0     C21694   9.665  11.503   6.035  0.6784 -0.0221 -0.1793
  902MOL0     C21695   9.577  11.628   6.049 -0.1390  0.0973 -0.0367
  902MOL0     C21696   9.583  11.727   5.928  0.7343  0.2439  0.3469
  902MOL0     C21697   9.465  11.707   5.822 -0.4906  0.0963 -0.3803
  902MOL0     C21698   9.486  11.785   5.703 -0.4707  0.4341  0.2807
  902MOL0     C21699   9.508  11.831   5.598  0.5768  0.6337  0.2391
  902MOL0     C21700   9.869  11.370   5.862 -0.7959 -0.7550 -0.5690
  902MOL0     C21701   9.948  11.310   5.767  0.6141 -0.5455 -1.0911
  902MOL0     C21702  10.065  11.243   5.827 -0.2566 -0.9120  0.3045
  902MOL0     H21703   9.999  11.314   5.182 -1.6522 -1.6617 -0.5389
  902MOL0     H21704  10.164  11.270   5.017  2.0887 -1.0648 -0.7184
  902MOL0     H21705  10.262  11.001   4.908  0.0203  0.3556 -1.0506
  902MOL0     H21706  10.320  11.162   4.870  0.1645  0.3946  1.0198
  902MOL0     H21707  10.525  10.935   4.915  4.2842 -1.0401 -4.7642
  902MOL0     H21708  10.550  11.094   4.847 -0.0068 -0.8862 -0.2668
  902MOL0     H21709  10.353  10.902   4.722 -0.4827  0.8562 -2.4479
  902MOL0     H21710  10.532  10.895   4.696  0.6218  1.0341 -0.9903
  902MOL0     H21711  10.355  11.126   4.660  0.7710  0.8939  0.6318
  902MOL0     H21712  10.533  11.127   4.620  0.0373  2.5722 -0.5859
  902MOL0     H21713  10.318  10.961   4.485 -0.0171  0.9046 -2.0712
  902MOL0     H21714  10.380  11.109   4.420 -0.3370 -0.4778  0.1621
  902MOL0     H21715  10.616  10.990   4.422  0.0692  1.6556  1.3637
  902MOL0     H21716  10.542  10.841   4.456 -1.3956 -1.1956 -1.5694
  902MOL0     H21717  10.377  10.898   4.265  0.0806  0.7204  2.9986
  902MOL0     H21718  10.543  10.846   4.230  1.0063 -0.0865 -0.2328
  902MOL0     H21719  10.438  11.146   4.221  2.8143  1.6615  1.4136
  902MOL0     H21720  10.596  11.091   4.163 -1.6199  1.6320 -3.3477
  902MOL0     H21721  10.573  11.193   3.948 -0.3331  0.0033 -0.6979
  902MOL0     H21722  10.342  11.259   3.712  1.7524  2.4120 -0.1513
  902MOL0     H21723  10.517  11.224   3.710  0.2730 -2.0203  2.0782
  902MOL0     H21724  10.454  10.982   3.625  0.8384  0.0358 -1.0757
  902MOL0     H21725  10.308  11.047   3.574 -1.1153  1.5668  1.5388
  902MOL0     H21726  10.476  11.042   3.385  1.7052 -0.9513  0.3739
  902MOL0     H21727  10.588  11.139   3.486 -1.4798  0.9077  3.4361
  902MOL0     H21728  10.402  11.327   3.474 -0.9034  0.2929 -1.0213
  902MOL0     H21729  10.357  11.236   3.326 -0.2647  0.9947  0.0727
  902MOL0     H21730  10.719  11.185   3.217  0.1579  1.2627  1.0091
  902MOL0     H21731  10.739  11.151   2.975 -0.6724 -1.0747  0.8238
  902MOL0     H21732  10.370  11.072   2.589 -1.1435  1.4331  0.8993
  902MOL0     H21733  10.337  11.059   2.348 -1.8755 -0.4301  1.8951
  902MOL0     H21734  10.189  11.360   2.213  0.7889  0.5663  0.3526
  902MOL0     H21735  10.311  11.450   2.099 -3.0507  1.5903 -1.9974
  902MOL0     H21736  10.123  11.230   2.010 -2.1104  1.9573 -0.5893
  902MOL0     H21737  10.142  11.395   1.955 -2.0550 -1.4030 -0.3621
  902MOL0     H21738  10.363  11.368   1.879  0.2034  1.2288  2.0298
  902MOL0     H21739  10.371  11.205   1.935  0.4007  1.4106 -0.0909
  902MOL0     H21740  10.207  11.131   1.809  1.5426 -0.4219  2.5148
  902MOL0     H21741  10.323  11.201   1.692 -1.1777 -1.6185  0.3835
  902MOL0     H21742  10.180  11.416   1.691  1.8723 -0.2002  3.9030
  902MOL0     H21743  10.053  11.315   1.776  1.7972 -0.3065  1.0549
  902MOL0     H21744  10.182  11.284   1.491  0.5350 -0.6569  0.5397
  902MOL0     H21745  10.103  11.149   1.577 -2.6408 -0.2581  1.3032
  902MOL0     H21746   9.883  11.267   1.571  2.1314  1.2706  4.0184
  902MOL0     H21747   9.955  11.235   1.419  1.2664 -1.3428 -0.0316
  902MOL0     H21748   9.872  11.456   1.424  0.3721 -0.0357  0.2832
  902MOL0     H21749   9.981  11.490   1.571  0.8411 -3.1648  1.7251
  902MOL0     H21750  10.455  11.480   2.326 -0.9943 -0.0482  0.0386
  902MOL0     H21751  10.491  11.472   2.568 -2.4844  1.9335  1.2052
  902MOL0     H21752  10.385  11.403   2.926  0.7705  3.2509  2.4924
  902MOL0     H21753  10.398  11.449   3.177  2.1519  1.6762  2.6892
  902MOL0     H21754  10.334  10.964   5.278 -0.2102 -1.2563 -2.3069
  902MOL0     H21755  10.166  11.016   5.454 -0.4345 -0.4124  0.5556
  902MOL0     H21756   9.751  11.326   5.484 -0.5035  0.0335 -0.5679
  902MOL0     H21757   9.607  11.416   5.656 -0.4293 -0.6912  0.3131
  902MOL0     H21758   9.766  11.535   6.061  0.7103 -2.0560  2.6159
  902MOL0     H21759   9.637  11.433   6.114 -3.1060  4.0033  2.5331
  902MOL0     H21760   9.608  11.672   6.144  1.4343 -0.1068 -0.4253
  902MOL0     H21761   9.477  11.587   6.062 -0.6526  1.2346 -0.2766
  902MOL0     H21762   9.687  11.726   5.896  0.7669  2.6004  0.1571
  902MOL0     H21763   9.564  11.830   5.960 -1.4852  1.0066 -2.9190
  902MOL0     H21764   9.456  11.601   5.800  1.3801 -0.8133  2.7091
  902MOL0     H21765   9.372  11.744   5.868  0.4079  3.4859 -1.0087
  902MOL0     H21766   9.526  11.873   5.501  2.1346 -0.4581  0.0313
  902MOL0     H21767   9.903  11.367   5.965 -0.2450  1.9223 -0.5902
  902MOL0     H21768  10.145  11.317   5.838 -0.1583 -1.1898  1.6632
  902MOL0     H21769  10.049  11.207   5.929  0.5050 -0.1472  0.7088
  902MOL0     H21770  10.104  11.155   5.776  2.5755 -1.5406  3.2249
  903MOL0     O21771   6.050   2.885   3.673  0.0327  0.8955 -0.2791
  903MOL0     C21772   5.942   2.828   3.646  0.2123  0.9515 -1.0157
  903MOL0     O21773   5.860   2.776   3.745  0.1263 -0.1009  0.1112
  903MOL0     C21774   5.873   2.804   3.873  0.7542 -0.1298  0.4573
  903MOL0     C21775   5.881   2.941   3.913 -0.3320  0.5840 -0.5346
  903MOL0     C21776   5.874   2.975   4.053  0.7943 -0.3589 -0.1515
  903MOL0     C21777   5.871   2.872   4.148  0.2736 -0.7311  0.3672
  903MOL0     O21778   5.861   2.894   4.284  0.2141  0.3173  0.0539
  903MOL0     C21779   5.950   3.000   4.342 -0.1111 -0.7227  0.4678
  903MOL0     C21780   5.864   3.080   4.440 -0.2120  0.4961 -0.1579
  903MOL0     C21781   5.881   3.227   4.423  0.2515 -0.1139  0.2182
  903MOL0     C21782   5.824   3.302   4.547  0.0848  0.3757  0.4824
  903MOL0     C21783   5.850   3.455   4.530  0.3789  0.6534  0.1236
  903MOL0     C21784   5.828   3.538   4.652 -0.8267  0.9978  0.7123
  903MOL0     C21785   5.895   3.684   4.636 -1.1817  0.1509 -0.4346
  903MOL0     C21786   5.815   3.753   4.534  0.3225 -1.0118  0.4875
  903MOL0     N21787   5.838   3.903   4.539 -0.4717  0.5087  0.2511
  903MOL0     C21788   5.853   3.972   4.655  0.1384 -0.0808  0.5516
  903MOL0     C21789   5.898   4.092   4.617  0.5528  0.8392  0.1766
  903MOL0     C21790   5.914   4.218   4.701  0.6731  0.9818  0.5020
  903MOL0     C21791   6.045   4.294   4.683  0.1252 -0.3138 -0.6589
  903MOL0     C21792   6.162   4.200   4.689 -0.4900  0.2051  0.6352
  903MOL0     C21793   6.296   4.274   4.697 -0.0914 -0.7604 -0.2592
  903MOL0     O21794   6.308   4.339   4.571  0.5062 -0.1978 -0.4142
  903MOL0     C21795   6.422   4.400   4.529  0.1962  0.2635  0.1705
  903MOL0     C21796   6.536   4.416   4.612 -0.4367 -0.1087 -0.7375
  903MOL0     C21797   6.645   4.498   4.571  1.1005  0.1255 -0.3839
  903MOL0     C21798   6.646   4.546   4.434 -0.3185  0.4618 -0.1343
  903MOL0     C21799   6.754   4.637   4.383  0.3774  0.3620  0.6899
  903MOL0     O21800   6.841   4.691   4.474 -0.1250 -0.7309  0.9119
  903MOL0     C21801   6.948   4.765   4.431  0.3567  0.9267 -0.0894
  903MOL0     C21802   6.944   4.865   4.343  0.1658 -0.6315  0.4994
  903MOL0     C21803   7.056   4.958   4.323  0.6321 -0.1822  0.3754
  903MOL0     C21804   7.182   4.921   4.372  0.2639 -1.4674 -0.2376
  903MOL0     O21805   7.297   5.006   4.354 -0.4774 -0.1212 -0.0455
  903MOL0     C21806   7.270   5.141   4.346  0.2839 -0.4754 -0.4468
  903MOL0     C21807   7.250   5.212   4.479  0.4163 -1.2080 -0.6912
  903MOL0     C21808   7.208   5.360   4.462  0.3001  0.9013  0.5709
  903MOL0     C21809   7.058   5.378   4.423  0.2609  0.6238  0.0711
  903MOL0     C21810   7.001   5.522   4.457  0.6121  0.6110  0.0267
  903MOL0     C21811   6.851   5.519   4.474 -0.1293  0.5528 -0.7836
  903MOL0     C21812   6.788   5.519   4.328  0.0561 -0.3859 -0.2571
  903MOL0     C21813   6.635   5.546   4.313  0.6461 -0.1719 -0.0347
  903MOL0    Cl21814   6.599   5.710   4.373 -0.3749  0.7858 -0.3773
  903MOL0     C21815   7.185   4.810   4.451 -0.2746  0.0135 -0.0250
  903MOL0     C21816   7.073   4.732   4.476 -0.3303 -0.1387 -0.5899
  903MOL0     O21817   6.765   4.643   4.260  0.0573 -0.9606 -0.0205
  903MOL0     C21818   6.537   4.518   4.351  0.5231 -0.4489 -0.4954
  903MOL0     C21819   6.428   4.448   4.403 -1.0770 -0.4772 -0.3303
  903MOL0     N21820   5.928   4.091   4.481  0.5856 -1.1050 -0.4167
  903MOL0     N21821   5.880   3.977   4.433 -1.1949 -0.5218 -0.0433
  903MOL0     C21822   5.869   2.736   4.111  0.3460 -1.2452  0.4718
  903MOL0     C21823   5.865   2.707   3.971 -1.1504 -0.1804  0.0056
  903MOL0     C21824   5.906   2.817   3.504  0.5944  0.1186 -0.3761
  903MOL0     C21825   5.777   2.757   3.479 -0.9155  0.7944 -0.2467
  903MOL0     C21826   5.735   2.744   3.347  0.7759 -0.1820 -0.2523
  903MOL0     C21827   5.816   2.749   3.238  0.5475 -1.1564 -0.6063
  903MOL0     O21828   5.779   2.704   3.112 -0.2627  0.0847 -0.3584
  903MOL0     C21829   5.705   2.577   3.108  0.4968 -0.6988  0.3556
  903MOL0     C21830   5.771   2.458   3.168  0.0267  0.3762 -0.5905
  903MOL0     C21831   5.896   2.414   3.096  0.2311 -0.2517  0.4467
  903MOL0     C21832   5.967   2.308   3.180 -0.0234 -0.8133 -0.3552
  903MOL0     C21833   5.901   2.190   3.222  0.0120 -0.2177 -0.5882
  903MOL0     C21834   5.836   2.095   3.264  0.7263  0.8522  0.1679
  903MOL0     C21835   5.939   2.808   3.261  1.8203  0.1651  0.0734
  903MOL0     C21836   5.987   2.835   3.387  0.9974 -0.0015  0.5279
  903MOL0     C21837   6.130   2.886   3.386  0.2095  0.1681 -0.3571
  903MOL0     H21838   5.885   3.031   3.851 -1.3085  2.4509  1.9374
  903MOL0     H21839   5.866   3.081   4.077 -0.2337 -0.8742  2.0370
  903MOL0     H21840   6.019   2.950   4.411  1.0192 -0.7890 -0.6546
  903MOL0     H21841   6.019   3.061   4.283  2.4006  0.4312  4.2569
  903MOL0     H21842   5.900   3.048   4.539  0.8784  2.0063 -0.0331
  903MOL0     H21843   5.757   3.060   4.440 -0.0262 -0.8343  1.8706
  903MOL0     H21844   5.834   3.259   4.330  1.0914  1.3076  0.2555
  903MOL0     H21845   5.985   3.260   4.423  0.5736 -0.8259  3.0717
  903MOL0     H21846   5.717   3.286   4.562  0.2867 -1.0135  0.5528
  903MOL0     H21847   5.877   3.279   4.640 -2.2896  0.0155  1.8418
  903MOL0     H21848   5.958   3.459   4.513  0.0253 -1.0272 -3.5601
  903MOL0     H21849   5.801   3.491   4.439 -1.6903 -3.1708 -0.4458
  903MOL0     H21850   5.727   3.534   4.693 -0.4625  1.9247  1.7697
  903MOL0     H21851   5.888   3.488   4.728  0.5986  3.5536  1.3902
  903MOL0     H21852   6.000   3.675   4.607 -1.4695 -2.4232 -0.9703
  903MOL0     H21853   5.908   3.740   4.729  3.0310  0.5426 -1.0843
  903MOL0     H21854   5.846   3.719   4.434 -0.3729  0.0219 -0.1034
  903MOL0     H21855   5.709   3.729   4.547  0.1238  0.4046  1.7366
  903MOL0     H21856   5.827   3.929   4.752 -0.8758 -0.5202  0.0990
  903MOL0     H21857   5.827   4.285   4.706  0.7017  0.9565  1.6875
  903MOL0     H21858   5.922   4.178   4.802  0.5552  0.7947  0.4378
  903MOL0     H21859   6.039   4.357   4.594  1.9995  0.3293 -0.3708
  903MOL0     H21860   6.061   4.358   4.770 -1.2792 -1.4688  0.5133
  903MOL0     H21861   6.166   4.135   4.602  1.5890  1.3317 -0.1967
  903MOL0     H21862   6.158   4.136   4.778 -2.0681  1.6386  1.6550
  903MOL0     H21863   6.370   4.194   4.698 -1.1342 -1.8493 -2.3872
  903MOL0     H21864   6.319   4.342   4.780  2.8266 -0.7704 -0.9693
  903MOL0     H21865   6.520   4.372   4.710 -0.1690  1.4423  0.0376
  903MOL0     H21866   6.730   4.516   4.636  2.5324  0.3645 -2.2141
  903MOL0     H21867   6.853   4.898   4.294  2.3783 -0.2869 -3.8735
  903MOL0     H21868   7.038   5.044   4.260 -1.8345  0.9769  2.4891
  903MOL0     H21869   7.360   5.182   4.300  1.0485 -0.0265  1.3595
  903MOL0     H21870   7.197   5.183   4.276 -0.3629  1.4726  1.2735
  903MOL0     H21871   7.175   5.159   4.539  0.4300 -0.5463 -0.0771
  903MOL0     H21872   7.339   5.208   4.543  0.7502 -6.7209 -0.9700
  903MOL0     H21873   7.226   5.412   4.556  1.7394 -4.0175  3.3763
  903MOL0     H21874   7.273   5.411   4.391  2.9258 -2.2245  0.5375
  903MOL0     H21875   6.997   5.315   4.488  1.1023 -0.1865  0.1010
  903MOL0     H21876   7.043   5.365   4.315 -1.3657  1.1404  0.2100
  903MOL0     H21877   7.035   5.596   4.384  1.6196  2.5833  2.3370
  903MOL0     H21878   7.050   5.552   4.550  2.0543 -1.1533 -0.1147
  903MOL0     H21879   6.822   5.433   4.535  0.1534  2.3384  2.0485
  903MOL0     H21880   6.821   5.600   4.540  0.7489  0.5366 -0.3629
  903MOL0     H21881   6.802   5.424   4.276 -2.3687 -1.1513  0.3781
  903MOL0     H21882   6.848   5.593   4.273  2.0489 -0.8476  1.1742
  903MOL0     H21883   6.604   5.533   4.208 -0.9790 -0.9587  0.4997
  903MOL0     H21884   6.583   5.468   4.370  3.7189 -1.3500  1.3310
  903MOL0     H21885   7.282   4.795   4.497 -0.4022 -3.1599 -0.5830
  903MOL0     H21886   7.081   4.643   4.538 -0.4224  0.4639  0.3149
  903MOL0     H21887   6.535   4.570   4.256  0.4509  0.8270  0.1882
  903MOL0     H21888   6.346   4.426   4.336  0.5354  1.6636 -3.2290
  903MOL0     H21889   5.841   2.667   4.190  4.7200 -1.3090  2.2281
  903MOL0     H21890   5.835   2.608   3.937 -3.0992  1.1809 -2.6598
  903MOL0     H21891   5.700   2.754   3.556 -1.0270 -0.1158 -0.3883
  903MOL0     H21892   5.637   2.695   3.349  1.2850 -1.3351 -1.9788
  903MOL0     H21893   5.705   2.556   3.001  0.3305 -3.5418  0.8357
  903MOL0     H21894   5.607   2.596   3.152  0.2924  1.2042 -0.7898
  903MOL0     H21895   5.700   2.375   3.178  0.9879 -0.5411 -1.1516
  903MOL0     H21896   5.795   2.480   3.273 -2.1803 -1.3824  0.3808
  903MOL0     H21897   5.959   2.498   3.067  1.5082 -1.5483 -0.6938
  903MOL0     H21898   5.872   2.367   3.000  1.2541  1.2152 -0.5642
  903MOL0     H21899   6.042   2.273   3.108 -2.6881 -2.2623 -2.6102
  903MOL0     H21900   6.008   2.360   3.267 -1.7650  1.5375 -0.8328
  903MOL0     H21901   5.785   2.010   3.303  1.5515 -0.2687 -1.1037
  903MOL0     H21902   6.008   2.821   3.178  2.7823  1.7482  1.0849
  903MOL0     H21903   6.177   2.887   3.287  3.9380  1.1626  1.2498
  903MOL0     H21904   6.126   2.991   3.415  2.6082 -0.1325  1.3959
  903MOL0     H21905   6.199   2.842   3.458 -1.0077  0.3283  0.9317
  904MOL0     O21906   8.608   0.617  10.812 -0.7571  0.5731  0.6287
  904MOL0     C21907   8.576   0.546  10.718  0.3432  0.2649  0.0667
  904MOL0     O21908   8.579   0.407  10.719 -0.8024 -0.0898  0.0607
  904MOL0     C21909   8.589   0.327  10.825 -0.4047 -0.4017  0.4497
  904MOL0     C21910   8.552   0.199  10.790  0.5575 -0.3801  0.9360
  904MOL0     C21911   8.565   0.089  10.873  0.1718 -0.1955  0.2746
  904MOL0     C21912   8.606   0.107  11.003 -0.3421  0.2401 -0.0477
  904MOL0     O21913   8.616   0.008  11.104 -0.3146  0.2056  0.2406
  904MOL0     C21914   8.557  -0.127  11.069  0.1926 -0.3311 -0.8494
  904MOL0     C21915   8.546  -0.211  11.193  0.2316  1.1543  0.1334
  904MOL0     C21916   8.672  -0.224  11.274 -1.0103 -0.3406 -0.5183
  904MOL0     C21917   8.648  -0.317  11.400  0.5447 -1.0479 -0.3765
  904MOL0     C21918   8.759  -0.325  11.500 -0.0248  0.1852 -1.2349
  904MOL0     C21919   8.734  -0.417  11.623 -0.2119 -0.6936 -0.3526
  904MOL0     C21920   8.848  -0.432  11.729  0.0009 -0.2941  0.8058
  904MOL0     C21921   8.811  -0.504  11.863 -0.0048 -0.5125 -0.9979
  904MOL0     N21922   8.903  -0.476  11.966 -0.2456 -0.2495 -0.4438
  904MOL0     C21923   9.041  -0.441  11.956 -0.5955  0.2301 -0.0043
  904MOL0     C21924   9.082  -0.413  12.085  0.6674 -0.6642 -0.1189
  904MOL0     C21925   9.210  -0.371  12.134 -0.3275  0.0812  0.2957
  904MOL0     C21926   9.240  -0.440  12.264  0.0178 -0.3877 -0.7356
  904MOL0     C21927   9.382  -0.413  12.306 -0.5713 -0.1770 -0.1852
  904MOL0     C21928   9.429  -0.501  12.421 -0.0964  0.4228 -0.3662
  904MOL0     O21929   9.404  -0.438  12.547 -0.5212  0.3300 -0.5320
  904MOL0     C21930   9.281  -0.465  12.613 -0.1389  0.7643  0.3670
  904MOL0     C21931   9.232  -0.365  12.688 -0.0617 -0.0168 -0.1646
  904MOL0     C21932   9.092  -0.354  12.721 -0.1734 -0.1032 -0.2134
  904MOL0     C21933   9.012  -0.474  12.700 -0.3903 -1.5581 -0.0957
  904MOL0     C21934   8.889  -0.485  12.768 -0.2893 -0.3590  0.4526
  904MOL0     O21935   8.830  -0.367  12.794  0.6315  0.0708 -0.1469
  904MOL0     C21936   8.719  -0.368  12.876  0.0014 -0.8767  0.2899
  904MOL0     C21937   8.598  -0.359  12.809  0.8066 -0.5340 -0.6534
  904MOL0     C21938   8.476  -0.338  12.876 -0.4767  0.4097 -0.2589
  904MOL0     C21939   8.483  -0.316  13.011 -0.6010  0.6969  0.1403
  904MOL0     O21940   8.376  -0.305  13.096  0.4747  0.1777  1.0276
  904MOL0     C21941   8.373  -0.178  13.164  0.0946 -0.8697 -0.2085
  904MOL0     C21942   8.246  -0.099  13.116 -0.5147  0.5120 -0.0268
  904MOL0     C21943   8.256  -0.056  12.977 -0.0360  0.0794 -0.5541
  904MOL0     C21944   8.232   0.097  12.967  0.0146  0.0273  0.5302
  904MOL0     C21945   8.216   0.137  12.823  0.0640  0.1973  0.2439
  904MOL0     C21946   8.066   0.142  12.801 -0.3452 -0.0356  0.3646
  904MOL0     C21947   8.020   0.177  12.657  0.4643  0.1029 -0.1534
  904MOL0     C21948   7.870   0.173  12.646 -0.3679 -0.3322  0.6375
  904MOL0    Cl21949   7.796   0.020  12.688 -0.3327  0.5505 -0.2463
  904MOL0     C21950   8.610  -0.338  13.089  0.9604  0.7953  0.3762
  904MOL0     C21951   8.724  -0.361  13.012  0.9277  0.6412 -0.1729
  904MOL0     O21952   8.855  -0.593  12.812 -0.0785  0.1391 -0.0957
  904MOL0     C21953   9.067  -0.588  12.644  0.4350 -0.0052  0.3023
  904MOL0     C21954   9.201  -0.578  12.593 -0.0679 -1.7536  1.4771
  904MOL0     N21955   8.968  -0.431  12.170  1.1482 -0.8849  0.0238
  904MOL0     N21956   8.864  -0.476  12.096  0.4331 -0.5450 -0.4670
  904MOL0     C21957   8.642   0.234  11.045  0.5109  0.2199  0.7582
  904MOL0     C21958   8.624   0.345  10.963 -0.6452  0.5840 -0.0568
  904MOL0     C21959   8.541   0.604  10.586  0.1249  0.4716 -0.2175
  904MOL0     C21960   8.564   0.740  10.581  1.4166 -0.8404 -0.0401
  904MOL0     C21961   8.522   0.827  10.474  0.0142 -0.2016  0.5749
  904MOL0     C21962   8.445   0.765  10.364 -0.1667 -0.1883 -0.3567
  904MOL0     O21963   8.384   0.830  10.259  0.6401  0.4801 -0.2419
  904MOL0     C21964   8.330   0.960  10.273 -0.1519 -0.8138  0.3329
  904MOL0     C21965   8.213   0.969  10.379 -0.8776 -0.6976  0.8750
  904MOL0     C21966   8.175   1.113  10.416  0.3856  0.2878  0.5145
  904MOL0     C21967   8.020   1.118  10.458  0.5498 -0.5144 -0.2669
  904MOL0     C21968   7.987   1.258  10.515 -0.6178 -0.1206 -0.1771
  904MOL0     C21969   7.978   1.368  10.558  1.0306  0.0125 -0.2757
  904MOL0     C21970   8.446   0.626  10.362  0.3011  0.0352 -0.4198
  904MOL0     C21971   8.481   0.539  10.472 -0.1035  0.1919 -0.5784
  904MOL0     C21972   8.468   0.388  10.454 -0.0567 -0.7563 -0.4175
  904MOL0     H21973   8.498   0.205  10.697  0.0199 -0.4596  1.2411
  904MOL0     H21974   8.527  -0.006  10.835  2.2361  0.5930 -4.4967
  904MOL0     H21975   8.458  -0.118  11.024 -0.0369  0.7889 -0.1724
  904MOL0     H21976   8.626  -0.181  11.003  1.2110 -0.6911  0.4650
  904MOL0     H21977   8.514  -0.311  11.164  1.4643 -0.4462  3.7020
  904MOL0     H21978   8.479  -0.158  11.261 -0.3400 -1.2109  1.5202
  904MOL0     H21979   8.712  -0.127  11.304 -0.0947 -0.6218 -0.8052
  904MOL0     H21980   8.751  -0.277  11.221  0.8729 -0.6333  2.3231
  904MOL0     H21981   8.563  -0.277  11.455  0.9451  0.4379 -0.8079
  904MOL0     H21982   8.616  -0.411  11.353  0.9239 -0.3704 -2.0753
  904MOL0     H21983   8.844  -0.367  11.446 -1.7750 -2.8806 -1.8998
  904MOL0     H21984   8.782  -0.226  11.539 -0.5442 -0.7271  1.6380
  904MOL0     H21985   8.652  -0.384  11.687  1.1861 -0.2830  1.2943
  904MOL0     H21986   8.704  -0.514  11.581  1.4545 -0.6077 -1.8480
  904MOL0     H21987   8.903  -0.337  11.737 -0.4065  0.3600 -2.6191
  904MOL0     H21988   8.933  -0.490  11.691  0.1682  0.0748  0.6114
  904MOL0     H21989   8.714  -0.463  11.893  0.2597 -0.6633  0.1049
  904MOL0     H21990   8.799  -0.612  11.852  0.8920 -0.3714 -4.5098
  904MOL0     H21991   9.115  -0.432  11.877  1.1129  0.0760  1.5116
  904MOL0     H21992   9.286  -0.375  12.055 -2.4233  2.2820 -2.0371
  904MOL0     H21993   9.202  -0.264  12.156 -1.3548  0.2449 -0.7771
  904MOL0     H21994   9.191  -0.392  12.350  0.8221 -1.2906  0.2540
  904MOL0     H21995   9.214  -0.546  12.259  0.1323 -0.4165 -0.7105
  904MOL0     H21996   9.392  -0.306  12.324 -2.9274  0.5571 -2.6727
  904MOL0     H21997   9.448  -0.440  12.223 -0.9305 -0.4640 -0.3788
  904MOL0     H21998   9.537  -0.518  12.424 -0.1734 -0.3944 -1.6423
  904MOL0     H21999   9.394  -0.604  12.411  2.2001 -0.3423 -1.0095
  904MOL0     H22000   9.286  -0.273  12.711  1.6173 -0.4045 -2.1934
  904MOL0     H22001   9.055  -0.275  12.785 -0.9634  0.6741 -1.5855
  904MOL0     H22002   8.600  -0.372  12.701 -0.9440  0.8975 -0.9099
  904MOL0     H22003   8.390  -0.334  12.811  0.7386 -0.3959 -1.9855
  904MOL0     H22004   8.364  -0.192  13.272 -2.2464  1.7151  0.0451
  904MOL0     H22005   8.465  -0.122  13.146  0.9954 -3.3091 -4.5030
  904MOL0     H22006   8.161  -0.166  13.130 -1.0746  1.3032  0.3822
  904MOL0     H22007   8.218  -0.021  13.186 -2.7096 -1.5761  1.5924
  904MOL0     H22008   8.355  -0.076  12.934  0.5801  5.2560 -2.1564
  904MOL0     H22009   8.176  -0.104  12.919 -1.1442 -0.4114  1.3148
  904MOL0     H22010   8.313   0.154  13.014  0.2082  1.8935 -1.8731
  904MOL0     H22011   8.142   0.122  13.024 -0.6363  5.6178 -2.2394
  904MOL0     H22012   8.266   0.073  12.751  0.2275  2.4046 -1.7282
  904MOL0     H22013   8.257   0.236  12.800  0.2180 -0.2335 -1.3934
  904MOL0     H22014   8.023   0.043  12.819 -1.9917  0.6696  0.4480
  904MOL0     H22015   8.014   0.211  12.867 -1.2291  0.7270 -1.0693
  904MOL0     H22016   8.071   0.116  12.581  1.5665 -1.0481  1.4445
  904MOL0     H22017   8.056   0.280  12.646  1.9938 -0.2539  1.1750
  904MOL0     H22018   7.837   0.258  12.705  0.1343 -0.7970  1.6043
  904MOL0     H22019   7.844   0.197  12.542  1.0819  1.0011  0.5520
  904MOL0     H22020   8.617  -0.342  13.197 -0.3465  0.5778  0.4722
  904MOL0     H22021   8.810  -0.344  13.075 -1.9792  1.5354  3.9952
  904MOL0     H22022   9.010  -0.676  12.618  3.1187 -1.6235 -0.4674
  904MOL0     H22023   9.237  -0.660  12.532  1.2932  1.3185 -2.1783
  904MOL0     H22024   8.678   0.249  11.146 -1.9363 -1.3222  1.9730
  904MOL0     H22025   8.656   0.440  11.003 -1.1770  1.6079 -1.9534
  904MOL0     H22026   8.612   0.794  10.661 -1.1465  1.5522  0.0473
  904MOL0     H22027   8.543   0.933  10.473 -5.4805  1.1545  1.1455
  904MOL0     H22028   8.306   0.999  10.174  1.0735 -0.6964  0.0583
  904MOL0     H22029   8.410   1.027  10.306  1.6186 -2.3468 -0.6635
  904MOL0     H22030   8.242   0.910  10.466  0.4632 -2.5275 -0.7354
  904MOL0     H22031   8.126   0.920  10.334 -2.3934  3.0857 -0.8339
  904MOL0     H22032   8.187   1.179  10.329 -0.0727 -2.5687 -1.8652
  904MOL0     H22033   8.241   1.148  10.496  2.9376 -0.0152 -1.3289
  904MOL0     H22034   7.957   1.103  10.369 -0.6691  0.4234  0.4007
  904MOL0     H22035   7.992   1.044  10.533  0.8188  0.6807  1.0618
  904MOL0     H22036   7.956   1.466  10.596  1.4574  0.9223 -2.2463
  904MOL0     H22037   8.402   0.570  10.280 -3.3075  1.5009  0.3110
  904MOL0     H22038   8.432   0.371  10.352  0.9674  0.6405 -1.0475
  904MOL0     H22039   8.569   0.348  10.469  0.1728  0.0447  0.2430
  904MOL0     H22040   8.397   0.344  10.524 -0.6972  2.2394  0.9879
  905MOL0     O22041   4.120   8.114   8.800  0.0786 -0.1474  0.1440
  905MOL0     C22042   4.100   8.155   8.918 -0.4872  0.1335  0.2435
  905MOL0     O22043   4.062   8.077   9.029  0.5638  0.4363 -0.5292
  905MOL0     C22044   4.035   7.943   9.012  0.2327 -0.1115  0.2959
  905MOL0     C22045   4.140   7.857   8.989  0.8025 -0.2470 -0.1554
  905MOL0     C22046   4.115   7.725   8.998 -0.8830  0.6125  0.4619
  905MOL0     C22047   3.985   7.667   9.002 -0.2375 -0.9302 -0.1665
  905MOL0     O22048   3.953   7.532   8.977 -0.0508 -0.1637 -0.0170
  905MOL0     C22049   4.030   7.433   9.041 -0.5802  0.4202 -0.2044
  905MOL0     C22050   3.943   7.342   9.134  0.0661 -0.6975  0.0011
  905MOL0     C22051   3.838   7.255   9.049 -0.0276  0.3709 -0.1914
  905MOL0     C22052   3.908   7.123   9.005 -1.2981 -0.6057  0.1243
  905MOL0     C22053   3.820   7.037   8.917  0.7808  0.1789  0.2673
  905MOL0     C22054   3.884   6.921   8.842 -0.5315  0.4120  0.2995
  905MOL0     C22055   3.917   6.809   8.937  0.4864 -0.3218 -0.0992
  905MOL0     C22056   3.916   6.672   8.878  0.6750 -0.0798 -0.4249
  905MOL0     N22057   4.056   6.620   8.846 -0.3855 -0.5740 -0.2060
  905MOL0     C22058   4.125   6.510   8.895 -0.7798 -0.4478 -1.4557
  905MOL0     C22059   4.225   6.496   8.815  0.1562  0.9295 -0.2422
  905MOL0     C22060   4.326   6.383   8.806  0.4855 -0.1846 -0.3207
  905MOL0     C22061   4.298   6.245   8.877 -0.1566  0.3680  0.1855
  905MOL0     C22062   4.423   6.153   8.909  0.0564  0.1644  0.2714
  905MOL0     C22063   4.564   6.209   8.919 -0.3921  0.0276 -0.4886
  905MOL0     O22064   4.579   6.288   9.036 -0.3491 -0.5428 -0.4473
  905MOL0     C22065   4.615   6.239   9.155 -0.4488  0.4718 -0.7598
  905MOL0     C22066   4.629   6.330   9.262  0.3589 -0.2839  0.9182
  905MOL0     C22067   4.675   6.284   9.386 -0.3282 -0.3199 -0.3279
  905MOL0     C22068   4.703   6.150   9.401  0.3450  0.9323  0.5398
  905MOL0     C22069   4.737   6.094   9.531 -0.2136 -0.5009  0.0643
  905MOL0     O22070   4.725   6.180   9.634  0.1410 -0.1371  0.1096
  905MOL0     C22071   4.761   6.130   9.760 -0.9945 -1.2345  0.2772
  905MOL0     C22072   4.667   6.140   9.862  0.3604  1.0834  0.1241
  905MOL0     C22073   4.715   6.110   9.995  1.3818 -0.4643  0.0055
  905MOL0     C22074   4.843   6.073  10.029 -0.3271 -0.0810 -0.2336
  905MOL0     O22075   4.864   6.052  10.159 -0.4884  0.2849  0.5097
  905MOL0     C22076   5.003   6.054  10.204  0.4825 -0.0537  0.9067
  905MOL0     C22077   5.007   6.024  10.353 -0.2687 -0.0820 -0.4171
  905MOL0     C22078   5.045   5.888  10.393 -0.3627  0.3889  0.9301
  905MOL0     C22079   5.171   5.878  10.476  0.6632 -0.6423  0.0393
  905MOL0     C22080   5.219   5.744  10.496  0.0490  0.7225  0.0799
  905MOL0     C22081   5.352   5.755  10.560  0.2665 -0.5383 -0.4595
  905MOL0     C22082   5.376   5.615  10.621 -1.1065  0.6906 -0.3356
  905MOL0     C22083   5.497   5.620  10.714  0.2809  0.4940  0.0260
  905MOL0    Cl22084   5.543   5.452  10.744 -0.2617 -0.2043  0.5744
  905MOL0     C22085   4.942   6.067   9.918 -0.2323 -0.3380 -0.7059
  905MOL0     C22086   4.896   6.092   9.793 -0.5422 -0.3908  1.6118
  905MOL0     O22087   4.800   5.988   9.543 -0.0585  0.1728  0.5135
  905MOL0     C22088   4.695   6.053   9.302 -0.6729  0.0964  0.4802
  905MOL0     C22089   4.654   6.102   9.179  0.3165 -0.6609  0.1322
  905MOL0     N22090   4.228   6.594   8.721 -0.1252  0.2265 -0.5091
  905MOL0     N22091   4.119   6.669   8.736  0.9358 -0.0195  0.1982
  905MOL0     C22092   3.883   7.759   9.018 -0.0433 -0.1139 -0.7917
  905MOL0     C22093   3.910   7.895   9.027  0.7520  0.0459 -0.1911
  905MOL0     C22094   4.140   8.291   8.960 -0.3955 -0.5491  0.5555
  905MOL0     C22095   4.054   8.354   9.051  0.2518 -0.6894 -0.4880
  905MOL0     C22096   4.075   8.482   9.094 -0.4633 -0.3037 -0.6719
  905MOL0     C22097   4.180   8.569   9.047  0.1215  0.5116  0.3284
  905MOL0     O22098   4.203   8.703   9.076  0.1093 -0.4522 -0.5318
  905MOL0     C22099   4.144   8.760   9.195 -0.7229  0.4234  0.6535
  905MOL0     C22100   4.219   8.705   9.318  0.3038 -0.9072 -0.5395
  905MOL0     C22101   4.206   8.782   9.450  0.0394 -0.2315  0.0773
  905MOL0     C22102   4.242   8.934   9.439 -0.0352  0.9308  1.0558
  905MOL0     C22103   4.257   8.991   9.574 -0.4191  0.1132  0.0987
  905MOL0     C22104   4.283   9.033   9.692 -0.2053 -0.4831  0.0689
  905MOL0     C22105   4.260   8.509   8.944 -0.4394  0.0458 -0.3834
  905MOL0     C22106   4.239   8.378   8.905 -1.0976  0.4323  0.0855
  905MOL0     C22107   4.323   8.331   8.789  0.4020  0.4283 -0.3431
  905MOL0     H22108   4.237   7.903   8.977  0.6718  0.1273  0.1788
  905MOL0     H22109   4.181   7.645   8.967 -3.0933 -0.4985 -1.7966
  905MOL0     H22110   4.076   7.370   8.964  0.6899 -1.2780  1.8310
  905MOL0     H22111   4.119   7.470   9.093  0.3383  0.0378 -1.4599
  905MOL0     H22112   3.905   7.396   9.221  2.0715 -3.3606  2.7114
  905MOL0     H22113   4.005   7.284   9.202  1.5059  2.3196  1.4679
  905MOL0     H22114   3.813   7.320   8.964  1.2356  2.2179  0.7664
  905MOL0     H22115   3.753   7.234   9.114 -0.5325  0.0242 -0.9563
  905MOL0     H22116   3.999   7.146   8.950 -0.9652 -1.8923  0.1207
  905MOL0     H22117   3.936   7.074   9.099  0.1533 -0.0028  0.0231
  905MOL0     H22118   3.747   6.996   8.987  0.6901 -2.1577 -1.1099
  905MOL0     H22119   3.757   7.096   8.849  1.0706 -1.4405 -1.5014
  905MOL0     H22120   3.809   6.890   8.769 -0.6451 -1.4437  1.1573
  905MOL0     H22121   3.968   6.971   8.794  0.6812 -1.3749  0.4610
  905MOL0     H22122   3.840   6.813   9.015 -1.6246  0.8523 -2.1123
  905MOL0     H22123   4.015   6.827   8.982  0.6690 -0.3224 -0.4985
  905MOL0     H22124   3.879   6.594   8.944  0.7245 -1.9023 -2.4204
  905MOL0     H22125   3.850   6.666   8.790 -1.1433  0.8274  0.8089
  905MOL0     H22126   4.106   6.439   8.974 -0.1924 -2.1047 -2.7505
  905MOL0     H22127   4.343   6.369   8.698  2.3062  0.4108 -0.1484
  905MOL0     H22128   4.409   6.437   8.852 -0.9857  0.8342  1.2369
  905MOL0     H22129   4.245   6.264   8.971 -0.5957  0.6759 -0.1178
  905MOL0     H22130   4.228   6.178   8.827  2.1400  0.6224 -3.7796
  905MOL0     H22131   4.430   6.079   8.829  3.1553 -1.2747  1.6941
  905MOL0     H22132   4.397   6.097   9.000  1.9763 -0.1028  0.7021
  905MOL0     H22133   4.583   6.272   8.831  0.6447  0.9698  0.3788
  905MOL0     H22134   4.639   6.129   8.907 -0.4154 -0.0570 -0.0729
  905MOL0     H22135   4.598   6.433   9.251  1.1238 -0.2729 -2.3275
  905MOL0     H22136   4.685   6.357   9.465  1.7763 -0.5774 -0.3114
  905MOL0     H22137   4.563   6.165   9.847 -1.4052 -4.2833  1.1596
  905MOL0     H22138   4.631   6.117  10.063  0.8903 -1.0480 -0.5399
  905MOL0     H22139   5.058   5.974  10.154 -1.2759 -1.2412  0.7682
  905MOL0     H22140   5.052   6.147  10.172  2.7748 -2.1221 -2.1776
  905MOL0     H22141   5.078   6.097  10.393 -2.0077  1.6555 -0.3267
  905MOL0     H22142   4.916   6.068  10.396  1.8350  3.4506  0.9175
  905MOL0     H22143   4.964   5.851  10.455 -0.3535  2.5664  2.3489
  905MOL0     H22144   5.055   5.830  10.301  1.9893  0.2538  1.2059
  905MOL0     H22145   5.145   5.934  10.567 -2.0585 -1.2089 -0.3048
  905MOL0     H22146   5.253   5.927  10.423  0.8190 -2.7786 -1.8148
  905MOL0     H22147   5.215   5.680  10.407 -1.1785 -3.4404  2.8166
  905MOL0     H22148   5.143   5.695  10.558 -0.2210 -1.2831 -1.7204
  905MOL0     H22149   5.422   5.785  10.481  0.2177 -0.9209 -0.6508
  905MOL0     H22150   5.349   5.831  10.638  1.1094 -2.3917  1.4724
  905MOL0     H22151   5.391   5.542  10.542 -0.0197  1.1233 -0.5479
  905MOL0     H22152   5.288   5.588  10.681  0.2420  0.4424  1.6578
  905MOL0     H22153   5.591   5.653  10.670  1.0094 -1.7323 -0.1845
  905MOL0     H22154   5.471   5.686  10.797  0.8915 -0.0118  0.6348
  905MOL0     H22155   5.049   6.051   9.927 -0.6984 -2.5485  3.1106
  905MOL0     H22156   4.978   6.089   9.722 -0.8459  2.7652  1.0072
  905MOL0     H22157   4.716   5.947   9.314 -1.7689 -0.0603  1.2377
  905MOL0     H22158   4.646   6.034   9.095  0.2467 -4.2542  2.7736
  905MOL0     H22159   3.782   7.737   9.052  0.6518 -1.7412  0.3713
  905MOL0     H22160   3.835   7.969   9.055 -0.0725 -0.5919 -0.6586
  905MOL0     H22161   3.964   8.305   9.088 -0.5129 -0.4895 -1.9992
  905MOL0     H22162   4.014   8.527   9.172  0.6679  0.3418 -0.1298
  905MOL0     H22163   4.038   8.737   9.206 -1.5108  3.0226 -0.5651
  905MOL0     H22164   4.139   8.869   9.191 -0.6135  0.4960  1.9608
  905MOL0     H22165   4.323   8.709   9.285  1.1872  0.3419  2.0811
  905MOL0     H22166   4.188   8.605   9.349 -1.9713  0.4835  2.0735
  905MOL0     H22167   4.274   8.729   9.518  1.5081 -3.1476 -3.3100
  905MOL0     H22168   4.101   8.785   9.479  0.0726  0.6278  0.1170
  905MOL0     H22169   4.338   8.930   9.387  0.5417 -0.8905  2.1626
  905MOL0     H22170   4.179   8.994   9.373  0.3382 -0.1377 -0.3225
  905MOL0     H22171   4.298   9.069   9.792 -1.0435  0.9519 -0.2918
  905MOL0     H22172   4.335   8.576   8.904 -2.0946  0.8965 -2.2074
  905MOL0     H22173   4.410   8.394   8.769  0.8074 -0.3654 -1.2290
  905MOL0     H22174   4.360   8.230   8.810  2.8821  0.9859 -1.6811
  905MOL0     H22175   4.261   8.327   8.698 -0.1642  0.8221  0.0189
  906MOL0     O22176   8.432   4.704   0.236 -0.0229  0.5455 -0.7750
  906MOL0     C22177   8.434   4.772   0.335  1.0680  0.3123  0.2742
  906MOL0     O22178   8.358   4.756   0.447 -0.4518  0.7753  0.2421
  906MOL0     C22179   8.272   4.651   0.441  0.1364 -0.2235 -0.1135
  906MOL0     C22180   8.134   4.671   0.425 -0.1816  0.0482 -0.5047
  906MOL0     C22181   8.044   4.565   0.440 -0.3796 -1.5306  0.3109
  906MOL0     C22182   8.083   4.440   0.466 -0.7317  0.9009 -0.2793
  906MOL0     O22183   7.988   4.343   0.486  0.4042 -0.3130 -0.6648
  906MOL0     C22184   8.006   4.204   0.463  0.4825  0.3863  0.6476
  906MOL0     C22185   7.871   4.131   0.469 -0.5242 -0.9265  0.7080
  906MOL0     C22186   7.903   3.990   0.417  0.9756 -0.4472 -0.4181
  906MOL0     C22187   7.787   3.882   0.441 -0.3682 -0.1028  0.0367
  906MOL0     C22188   7.825   3.753   0.364  0.2295  0.5241 -0.0921
  906MOL0     C22189   7.715   3.652   0.391 -0.0326  0.3968 -0.3277
  906MOL0     C22190   7.736   3.526   0.298  0.2220 -0.4672  0.2608
  906MOL0     C22191   7.822   3.410   0.356 -0.4508  0.5571  0.2685
  906MOL0     N22192   7.822   3.292   0.260 -0.3699 -0.1388 -0.2933
  906MOL0     C22193   7.934   3.244   0.204 -0.3098 -0.5934 -0.7196
  906MOL0     C22194   7.893   3.172   0.100 -0.1878 -0.6468  0.1385
  906MOL0     C22195   7.999   3.111   0.015  0.2502  0.9799 -0.1405
  906MOL0     C22196   8.007   2.952   0.060  0.5892 -0.8911  0.0163
  906MOL0     C22197   8.097   2.872  -0.031  0.2518 -0.0831  0.6492
  906MOL0     C22198   8.237   2.948  -0.031 -0.7750 -1.6044  1.2336
  906MOL0     O22199   8.342   2.863  -0.076 -0.3047  0.6561  0.0835
  906MOL0     C22200   8.388   2.852  -0.209  0.1669  0.2366  0.2744
  906MOL0     C22201   8.503   2.768  -0.231 -0.2969 -0.0056 -0.1730
  906MOL0     C22202   8.547   2.749  -0.361 -0.5262  0.7288 -1.0331
  906MOL0     C22203   8.482   2.825  -0.465 -0.1807 -0.4283 -0.0282
  906MOL0     C22204   8.535   2.813  -0.605  0.6132  0.7104  0.0794
  906MOL0     O22205   8.642   2.723  -0.618  0.0814  0.2046  0.0763
  906MOL0     C22206   8.672   2.687  -0.745 -0.6937 -0.4259 -0.3707
  906MOL0     C22207   8.790   2.739  -0.804  0.4018  1.7231 -0.5466
  906MOL0     C22208   8.815   2.698  -0.939  0.0322 -0.1313 -1.4122
  906MOL0     C22209   8.728   2.617  -1.008  0.1247  0.0192 -0.4908
  906MOL0     O22210   8.761   2.593  -1.132  0.3554  0.2183  0.3867
  906MOL0     C22211   8.668   2.650  -1.224 -0.4251 -0.5546  0.2163
  906MOL0     C22212   8.744   2.642  -1.360 -0.7306 -0.9826 -0.1160
  906MOL0     C22213   8.717   2.511  -1.427  0.7316 -0.1890  0.2649
  906MOL0     C22214   8.825   2.504  -1.547 -0.3073  0.0672 -0.9894
  906MOL0     C22215   8.793   2.379  -1.627  0.1753  0.5266  0.8208
  906MOL0     C22216   8.889   2.350  -1.743  0.2903 -0.4686 -0.6032
  906MOL0     C22217   8.857   2.222  -1.824 -0.2650 -0.0644  0.1046
  906MOL0     C22218   8.940   2.215  -1.956 -1.2932  0.2918 -0.0342
  906MOL0    Cl22219   8.908   2.050  -2.046  0.1920 -0.0289 -0.4189
  906MOL0     C22220   8.628   2.564  -0.937  0.2968  0.6445 -0.2117
  906MOL0     C22221   8.590   2.593  -0.808 -0.1752 -1.4713  0.2431
  906MOL0     O22222   8.471   2.865  -0.699 -0.5048 -0.0016  0.1787
  906MOL0     C22223   8.373   2.906  -0.446 -0.3876 -1.5508 -0.0539
  906MOL0     C22224   8.317   2.915  -0.313  0.4836  0.0080  0.5493
  906MOL0     N22225   7.753   3.168   0.104  0.0087  0.1387  0.3579
  906MOL0     N22226   7.712   3.246   0.197 -0.8608  0.6179  0.3652
  906MOL0     C22227   8.220   4.421   0.473  0.0057  0.5423  0.3088
  906MOL0     C22228   8.316   4.521   0.461  0.1953  0.2487  0.1397
  906MOL0     C22229   8.532   4.881   0.333  0.2826 -0.0891  0.1200
  906MOL0     C22230   8.596   4.903   0.450  0.8257  0.1733  0.3807
  906MOL0     C22231   8.678   5.020   0.451 -1.2350  1.4005  1.1281
  906MOL0     C22232   8.699   5.105   0.339  0.4380  0.0823 -1.1060
  906MOL0     O22233   8.763   5.228   0.342  0.0611 -0.4497  0.1808
  906MOL0     C22234   8.766   5.292   0.469 -0.5976  0.5410 -0.1732
  906MOL0     C22235   8.805   5.442   0.445  0.4339 -0.0206 -0.3261
  906MOL0     C22236   8.703   5.524   0.366  0.2707 -0.8541 -0.0317
  906MOL0     C22237   8.736   5.676   0.379  0.5766  0.0429  0.1552
  906MOL0     C22238   8.651   5.761   0.299 -0.4596 -0.2425 -0.6872
  906MOL0     C22239   8.583   5.843   0.245 -0.8324 -0.4129 -0.2367
  906MOL0     C22240   8.648   5.061   0.219 -0.3159  0.2597 -0.5643
  906MOL0     C22241   8.563   4.949   0.213 -0.6797  0.0850  0.5120
  906MOL0     C22242   8.501   4.922   0.088  0.1589 -0.5710 -0.0033
  906MOL0     H22243   8.087   4.768   0.422  0.2681  0.2798 -0.2416
  906MOL0     H22244   7.940   4.594   0.433  0.6132  1.9974 -2.8852
  906MOL0     H22245   8.042   4.180   0.362  0.1971 -1.9421  1.0247
  906MOL0     H22246   8.069   4.162   0.542 -0.4189 -0.4581  0.9405
  906MOL0     H22247   7.809   4.191   0.402 -3.1803 -2.4861  1.6299
  906MOL0     H22248   7.833   4.150   0.570 -0.2448  3.2334  0.2192
  906MOL0     H22249   7.990   3.960   0.477 -0.4570 -3.5468  0.2964
  906MOL0     H22250   7.926   3.997   0.310  2.5631 -2.3734 -0.2639
  906MOL0     H22251   7.773   3.876   0.549 -0.2634 -3.0207 -0.0171
  906MOL0     H22252   7.683   3.895   0.408 -0.7011 -1.9385  0.2284
  906MOL0     H22253   7.831   3.773   0.257  2.4229  0.8719  0.0356
  906MOL0     H22254   7.923   3.710   0.388  0.6808  1.6351  0.1077
  906MOL0     H22255   7.708   3.622   0.496 -1.9980 -0.9729 -0.7927
  906MOL0     H22256   7.615   3.689   0.371 -2.0730 -3.1813  2.0283
  906MOL0     H22257   7.770   3.561   0.200 -1.9621  0.4242 -0.2502
  906MOL0     H22258   7.636   3.497   0.264  0.3368  0.3766 -0.8228
  906MOL0     H22259   7.925   3.443   0.372 -0.6358  3.5307 -3.2817
  906MOL0     H22260   7.791   3.378   0.456  3.7219 -0.3698  1.4573
  906MOL0     H22261   8.034   3.274   0.236  0.1685 -3.6314  0.9277
  906MOL0     H22262   7.966   3.115  -0.090 -1.6483 -1.1909  0.2962
  906MOL0     H22263   8.095   3.161   0.028  1.7307 -1.2785 -1.8212
  906MOL0     H22264   8.047   2.939   0.161 -1.4654  1.3172  1.2248
  906MOL0     H22265   7.908   2.908   0.050  1.6784 -3.5349  0.2644
  906MOL0     H22266   8.035   2.852  -0.119 -2.1574 -1.2315  2.5146
  906MOL0     H22267   8.116   2.770   0.005  0.0332 -1.6251 -3.1552
  906MOL0     H22268   8.264   2.991   0.065  2.6148  2.2466 -1.0946
  906MOL0     H22269   8.224   3.037  -0.094 -1.6945 -1.4087  1.7023
  906MOL0     H22270   8.570   2.730  -0.155 -1.6408 -4.1937 -0.8408
  906MOL0     H22271   8.632   2.687  -0.387 -1.3869 -1.0480  0.1928
  906MOL0     H22272   8.852   2.814  -0.756  2.2738 -0.2060  0.2011
  906MOL0     H22273   8.902   2.729  -0.996 -1.1614 -0.2269 -3.3963
  906MOL0     H22274   8.578   2.588  -1.224 -0.7518 -0.3436 -3.5028
  906MOL0     H22275   8.654   2.757  -1.205  2.5180  0.2620 -1.5146
  906MOL0     H22276   8.710   2.719  -1.430  0.6865 -2.2960 -2.3541
  906MOL0     H22277   8.852   2.652  -1.346 -0.6643 -0.2260 -1.0489
  906MOL0     H22278   8.736   2.426  -1.360  3.2891  0.5468  0.5806
  906MOL0     H22279   8.616   2.496  -1.467  0.2753 -0.6808  1.5609
  906MOL0     H22280   8.928   2.504  -1.511 -0.5988  0.6309 -0.1387
  906MOL0     H22281   8.812   2.590  -1.614 -1.0680  1.9193  1.3799
  906MOL0     H22282   8.698   2.394  -1.678  2.9315  0.7020 -5.0432
  906MOL0     H22283   8.790   2.299  -1.552 -3.0034 -0.3113 -0.0717
  906MOL0     H22284   8.884   2.433  -1.814 -1.5054  1.4600  1.6164
  906MOL0     H22285   8.986   2.351  -1.691 -1.1871  1.1454  2.4068
  906MOL0     H22286   8.752   2.232  -1.854 -0.6700 -3.9537 -0.2475
  906MOL0     H22287   8.882   2.137  -1.760 -0.2153 -0.3493 -0.2887
  906MOL0     H22288   8.900   2.289  -2.025  0.6470  0.2843 -1.2190
  906MOL0     H22289   9.046   2.225  -1.932 -1.8088  1.7451  1.8742
  906MOL0     H22290   8.565   2.489  -0.985 -0.0903  0.3191  0.7552
  906MOL0     H22291   8.497   2.569  -0.757 -0.4061 -0.9649  0.0632
  906MOL0     H22292   8.334   2.960  -0.532  4.9545  1.6161 -0.9839
  906MOL0     H22293   8.233   2.980  -0.291 -0.7007 -1.6694  1.1452
  906MOL0     H22294   8.263   4.324   0.497 -0.5763 -1.0830 -4.1293
  906MOL0     H22295   8.419   4.497   0.483 -0.0249 -1.6452 -0.6935
  906MOL0     H22296   8.572   4.836   0.531 -0.5873  3.2579  2.7429
  906MOL0     H22297   8.718   5.049   0.548 -1.6005 -0.4743  1.8802
  906MOL0     H22298   8.854   5.253   0.521  0.3271  2.6231 -0.0785
  906MOL0     H22299   8.677   5.286   0.534  1.5718 -0.4664  2.9599
  906MOL0     H22300   8.890   5.429   0.377  1.1809 -1.6042  0.8455
  906MOL0     H22301   8.834   5.482   0.542 -1.4346 -0.2286  0.3590
  906MOL0     H22302   8.600   5.507   0.397  0.0375 -3.9141 -2.0932
  906MOL0     H22303   8.716   5.503   0.259  1.5451  3.8470 -1.0714
  906MOL0     H22304   8.714   5.717   0.477 -0.8048  1.4854 -0.7141
  906MOL0     H22305   8.837   5.690   0.339  0.2223  3.8321  0.2595
  906MOL0     H22306   8.526   5.917   0.193 -1.7113 -0.1885  1.0167
  906MOL0     H22307   8.683   5.115   0.132  1.8728 -0.7447 -0.3607
  906MOL0     H22308   8.540   4.827   0.050 -3.9399 -2.3807 -0.1635
  906MOL0     H22309   8.394   4.906   0.103  0.8246 -3.3212  2.8559
  906MOL0     H22310   8.522   5.004   0.019 -1.1199  0.3880  0.7114
  907MOL0     O22311   1.506   8.274   0.485  0.2039  0.1003  0.6380
  907MOL0     C22312   1.525   8.351   0.579 -0.0908  0.7989  0.2153
  907MOL0     O22313   1.572   8.311   0.708  0.1595  0.1116  0.3074
  907MOL0     C22314   1.633   8.190   0.735 -0.2603 -1.2190 -0.4807
  907MOL0     C22315   1.586   8.107   0.840 -1.3101  0.3127 -0.1907
  907MOL0     C22316   1.650   8.002   0.894 -0.8319  0.3545 -0.1085
  907MOL0     C22317   1.759   7.952   0.818 -0.0497 -0.6206  0.5194
  907MOL0     O22318   1.829   7.848   0.873 -0.7806 -0.2440  0.1473
  907MOL0     C22319   1.936   7.770   0.804 -0.2866 -0.7285 -1.0664
  907MOL0     C22320   1.900   7.678   0.679  0.5551 -0.1128  0.2174
  907MOL0     C22321   2.025   7.599   0.633  0.6536  0.2418  0.6038
  907MOL0     C22322   1.993   7.483   0.535  0.3105  0.0534  0.4245
  907MOL0     C22323   2.002   7.539   0.390 -0.7185  0.8658 -0.4098
  907MOL0     C22324   2.047   7.435   0.291 -0.1377 -0.6969  0.5374
  907MOL0     C22325   2.128   7.492   0.162 -0.2744 -0.7325  0.0794
  907MOL0     C22326   2.151   7.370   0.069  0.4030 -0.3632 -0.6506
  907MOL0     N22327   2.230   7.408  -0.045  0.4315 -0.2240  0.9535
  907MOL0     C22328   2.347   7.453  -0.047 -0.8926 -0.2525 -0.3004
  907MOL0     C22329   2.374   7.509  -0.167  0.1095  0.0551 -0.3262
  907MOL0     C22330   2.501   7.566  -0.209 -0.0035 -0.0493  0.3565
  907MOL0     C22331   2.519   7.707  -0.167 -0.6074 -0.0330 -0.6297
  907MOL0     C22332   2.663   7.761  -0.167 -0.1601 -0.0743 -0.2725
  907MOL0     C22333   2.701   7.915  -0.143 -0.4174  0.2251 -0.6861
  907MOL0     O22334   2.591   7.988  -0.195 -0.0356 -0.5829 -0.0241
  907MOL0     C22335   2.613   8.083  -0.294  1.0493  1.1645  0.2148
  907MOL0     C22336   2.498   8.114  -0.374 -0.1984  0.2174  0.6503
  907MOL0     C22337   2.498   8.231  -0.461  0.7125 -1.2760  0.4821
  907MOL0     C22338   2.613   8.310  -0.480 -0.3778  0.4381 -0.3062
  907MOL0     C22339   2.609   8.424  -0.555  0.5281 -0.7632 -0.0747
  907MOL0     O22340   2.485   8.479  -0.600 -0.2298 -0.4483  0.1327
  907MOL0     C22341   2.468   8.607  -0.654  0.1544  0.7321 -0.6351
  907MOL0     C22342   2.558   8.714  -0.655  0.8853  0.0007  0.5200
  907MOL0     C22343   2.515   8.832  -0.712 -1.0691  0.4297  0.3230
  907MOL0     C22344   2.389   8.841  -0.777  0.2789 -1.3268 -1.6683
  907MOL0     O22345   2.352   8.962  -0.822  0.5116  0.8549 -0.3493
  907MOL0     C22346   2.377   8.970  -0.962  0.6530 -1.0582 -0.1942
  907MOL0     C22347   2.389   9.116  -1.006 -0.7901 -0.3023 -0.3735
  907MOL0     C22348   2.250   9.184  -0.989  0.6508 -0.3238 -0.4744
  907MOL0     C22349   2.242   9.278  -1.102 -0.2692 -0.0173  0.5181
  907MOL0     C22350   2.192   9.207  -1.231 -0.8848  0.4801  0.6795
  907MOL0     C22351   2.196   9.315  -1.349 -0.2673 -0.1425  0.2062
  907MOL0     C22352   2.103   9.447  -1.332 -0.1547  0.5507  0.2320
  907MOL0     C22353   2.070   9.507  -1.466  0.2100 -0.1204  0.7175
  907MOL0    Cl22354   2.225   9.558  -1.546 -0.5192  0.0479 -0.3711
  907MOL0     C22355   2.298   8.736  -0.768  0.0370  0.2267 -0.0179
  907MOL0     C22356   2.334   8.621  -0.702  0.1232  0.1124 -0.2863
  907MOL0     O22357   2.724   8.469  -0.585  0.4528  0.4991 -1.4405
  907MOL0     C22358   2.729   8.267  -0.405 -0.0381 -0.0979 -0.1386
  907MOL0     C22359   2.726   8.159  -0.313  0.6351  0.2280 -0.4978
  907MOL0     N22360   2.264   7.478  -0.242 -0.4918  0.4382 -0.7412
  907MOL0     N22361   2.172   7.423  -0.169 -0.8315  1.1202  0.5742
  907MOL0     C22362   1.818   8.025   0.712  0.6612 -0.0684 -0.3575
  907MOL0     C22363   1.754   8.148   0.676 -0.4474  0.1085  0.4800
  907MOL0     C22364   1.470   8.483   0.558  0.1826 -0.0013 -0.2702
  907MOL0     C22365   1.455   8.570   0.667 -0.2435  0.3671  0.2167
  907MOL0     C22366   1.421   8.704   0.650  0.3571  0.8875  0.4793
  907MOL0     C22367   1.394   8.753   0.514  0.6053  0.3810  0.5806
  907MOL0     O22368   1.390   8.883   0.485 -0.1027  0.3310  0.5719
  907MOL0     C22369   1.349   8.958   0.595  0.6048  0.0688 -0.8945
  907MOL0     C22370   1.313   9.100   0.564  0.2556  1.1581  0.3249
  907MOL0     C22371   1.267   9.183   0.684 -0.5431 -1.0343 -1.6148
  907MOL0     C22372   1.282   9.334   0.674 -0.2994 -0.3065  0.1056
  907MOL0     C22373   1.205   9.387   0.556  0.0451  0.3196  0.0348
  907MOL0     C22374   1.155   9.436   0.450  0.8277  0.0569  0.3957
  907MOL0     C22375   1.399   8.667   0.405 -0.0291  0.7941 -0.2625
  907MOL0     C22376   1.438   8.535   0.425  0.7760 -0.3799 -0.4696
  907MOL0     C22377   1.439   8.455   0.294 -0.2711  0.3899 -0.6368
  907MOL0     H22378   1.491   8.133   0.886 -0.4438  1.2763  1.1025
  907MOL0     H22379   1.609   7.941   0.974 -0.8682 -3.1499 -2.5628
  907MOL0     H22380   2.030   7.825   0.790 -0.6630  0.1552 -0.2043
  907MOL0     H22381   1.977   7.689   0.865  0.0695 -0.4833 -0.9765
  907MOL0     H22382   1.865   7.743   0.598  3.7574 -0.9295 -2.0044
  907MOL0     H22383   1.814   7.620   0.714 -0.3924  1.1389  0.0588
  907MOL0     H22384   2.070   7.558   0.724  3.4882  0.4196 -0.6058
  907MOL0     H22385   2.088   7.680   0.596 -0.2309 -0.0257 -1.6610
  907MOL0     H22386   2.068   7.406   0.556 -0.5999 -1.2519 -0.9622
  907MOL0     H22387   1.891   7.444   0.543 -0.1440  0.2783 -2.8461
  907MOL0     H22388   1.910   7.590   0.361  0.2215  2.6999 -0.3462
  907MOL0     H22389   2.082   7.613   0.390 -0.8814  1.2491  3.3167
  907MOL0     H22390   2.118   7.369   0.341  0.1587  0.8720  2.2864
  907MOL0     H22391   1.966   7.369   0.257  0.0319 -0.8563  0.4393
  907MOL0     H22392   2.214   7.554   0.192 -0.2698 -0.5373 -0.3354
  907MOL0     H22393   2.071   7.565   0.105  0.5741  1.3244  1.6913
  907MOL0     H22394   2.205   7.295   0.129  2.4670  2.6064  1.5082
  907MOL0     H22395   2.050   7.338   0.043 -1.1820  1.7064  2.3843
  907MOL0     H22396   2.415   7.448   0.037 -1.7146  0.4866  0.4300
  907MOL0     H22397   2.589   7.510  -0.174  0.4637  0.3516 -0.1598
  907MOL0     H22398   2.501   7.557  -0.318  1.6211 -0.9824  0.3882
  907MOL0     H22399   2.464   7.769  -0.238  0.5445 -1.3671 -2.7822
  907MOL0     H22400   2.488   7.716  -0.062  1.2759 -2.5309  0.2483
  907MOL0     H22401   2.709   7.735  -0.262 -0.8959 -0.8598 -0.4289
  907MOL0     H22402   2.718   7.696  -0.099 -1.2788 -1.8485 -0.9771
  907MOL0     H22403   2.801   7.942  -0.178 -0.9688  3.5410 -0.0940
  907MOL0     H22404   2.702   7.924  -0.034 -1.7326  1.8286 -0.7675
  907MOL0     H22405   2.408   8.054  -0.363 -0.1966  0.1546  0.3443
  907MOL0     H22406   2.408   8.241  -0.520  3.5519  0.0584 -4.0347
  907MOL0     H22407   2.661   8.700  -0.622  0.9326 -2.0631 -0.4026
  907MOL0     H22408   2.571   8.921  -0.682 -1.1293  1.1352 -1.5378
  907MOL0     H22409   2.467   8.915  -0.989  2.4481  0.2646  2.6798
  907MOL0     H22410   2.292   8.939  -1.024  1.6564 -0.3240 -2.0504
  907MOL0     H22411   2.468   9.173  -0.955 -0.6919 -2.6014  2.2645
  907MOL0     H22412   2.423   9.113  -1.110 -1.0052  0.4190 -0.4744
  907MOL0     H22413   2.175   9.104  -0.991  1.0400 -0.7479  0.6443
  907MOL0     H22414   2.236   9.239  -0.896  2.0657  0.4442 -0.6963
  907MOL0     H22415   2.337   9.324  -1.128 -0.9420  0.0658 -2.0962
  907MOL0     H22416   2.173   9.358  -1.073  0.3470  1.2928 -1.4693
  907MOL0     H22417   2.086   9.179  -1.221 -1.8740  4.2714  2.4013
  907MOL0     H22418   2.262   9.125  -1.248 -1.8678 -0.1538 -0.5059
  907MOL0     H22419   2.298   9.347  -1.368 -1.6268  4.2376 -1.0095
  907MOL0     H22420   2.168   9.250  -1.433 -1.6912  0.0311  0.5083
  907MOL0     H22421   2.149   9.512  -1.257  0.0599 -2.8047  3.2845
  907MOL0     H22422   2.011   9.411  -1.286 -0.1001  2.0692  1.6387
  907MOL0     H22423   2.022   9.427  -1.523 -3.3999  1.2559  1.5621
  907MOL0     H22424   2.003   9.593  -1.455 -1.4054 -1.2612  0.2328
  907MOL0     H22425   2.196   8.740  -0.805 -1.3875 -1.4964  3.2322
  907MOL0     H22426   2.258   8.544  -0.699  0.3334 -0.1457 -1.2286
  907MOL0     H22427   2.824   8.309  -0.436  0.0284  1.4450  1.9863
  907MOL0     H22428   2.808   8.126  -0.250  1.5836 -2.3966 -2.8931
  907MOL0     H22429   1.908   7.995   0.660 -0.3022 -0.4282 -1.8797
  907MOL0     H22430   1.801   8.212   0.602 -1.0082 -1.5083 -1.3471
  907MOL0     H22431   1.459   8.529   0.768 -2.1272  3.5808  1.7644
  907MOL0     H22432   1.427   8.769   0.737 -1.1860 -0.4994  1.7068
  907MOL0     H22433   1.434   8.951   0.664  0.1551  0.0049 -0.3345
  907MOL0     H22434   1.270   8.911   0.655  0.5105  1.3243  0.0200
  907MOL0     H22435   1.247   9.111   0.477 -0.6584 -1.6668  0.5522
  907MOL0     H22436   1.402   9.148   0.522  1.1823  0.5174  1.4904
  907MOL0     H22437   1.324   9.148   0.770  0.0305 -0.5447 -1.7961
  907MOL0     H22438   1.160   9.164   0.703 -0.4801 -1.7078 -1.9183
  907MOL0     H22439   1.251   9.372   0.772 -1.6701 -2.4856  0.5848
  907MOL0     H22440   1.385   9.362   0.653 -0.9885  2.6763  0.2702
  907MOL0     H22441   1.106   9.493   0.373 -0.9549  0.2693  1.6126
  907MOL0     H22442   1.376   8.711   0.309  1.0048  0.0290 -0.8852
  907MOL0     H22443   1.534   8.402   0.279  0.8320  2.4520 -1.3229
  907MOL0     H22444   1.360   8.380   0.302 -1.0169  1.2633  0.2993
  907MOL0     H22445   1.431   8.521   0.207 -1.1989 -0.3744 -1.1574
  908MOL0     O22446  10.049   8.246   9.248 -0.3438  0.0580 -0.3136
  908MOL0     C22447  10.159   8.184   9.243  0.0630  0.3193  0.5557
  908MOL0     O22448  10.278   8.245   9.241 -0.6524 -0.5446 -0.7759
  908MOL0     C22449  10.277   8.377   9.269 -0.2726  0.5687 -0.1989
  908MOL0     C22450  10.267   8.413   9.404  0.5712  0.1254  0.1472
  908MOL0     C22451  10.293   8.543   9.446 -1.0006  0.2577  0.1852
  908MOL0     C22452  10.345   8.640   9.353 -0.0690 -0.7175  1.1593
  908MOL0     O22453  10.379   8.773   9.376 -0.4426 -0.2438 -0.2083
  908MOL0     C22454  10.416   8.786   9.512 -0.3425  0.9801  0.2322
  908MOL0     C22455  10.456   8.931   9.530 -0.2568 -0.5543  0.1531
  908MOL0     C22456  10.474   8.960   9.688 -0.0169  0.3691  0.3810
  908MOL0     C22457  10.625   8.977   9.720  0.4748 -0.3362 -0.7061
  908MOL0     C22458  10.640   8.998   9.863  0.6383  0.1813  0.0989
  908MOL0     C22459  10.788   9.004   9.899  0.7721 -0.0678 -0.2274
  908MOL0     C22460  10.867   9.123   9.840  0.3876  1.1210 -0.0597
  908MOL0     C22461  11.018   9.121   9.868 -0.2650 -0.6132  0.5379
  908MOL0     N22462  11.071   9.246   9.821  0.1301  0.2851  1.1782
  908MOL0     C22463  11.054   9.371   9.885 -0.0362  0.1046  0.4926
  908MOL0     C22464  11.108   9.460   9.808  0.3213  0.1351  0.1515
  908MOL0     C22465  11.100   9.607   9.824  0.1395  0.8522 -0.0296
  908MOL0     C22466  11.206   9.667   9.920  0.2067  0.4588 -0.0874
  908MOL0     C22467  11.191   9.824   9.932 -0.6534  0.2400 -0.7582
  908MOL0     C22468  11.311   9.898   9.997 -0.9919  0.0410  0.7823
  908MOL0     O22469  11.422   9.903   9.895 -0.0590 -0.7032 -0.1396
  908MOL0     C22470  11.548   9.933   9.944 -0.1715 -0.6708 -0.3825
  908MOL0     C22471  11.626   9.828   9.983  0.0648 -0.4491 -1.1228
  908MOL0     C22472  11.753   9.859  10.032 -0.1763 -0.2922 -0.1918
  908MOL0     C22473  11.805   9.987  10.024 -0.0365 -0.2245  0.3913
  908MOL0     C22474  11.938  10.013  10.090  0.6994  0.6660 -0.5989
  908MOL0     O22475  11.985   9.913  10.168  0.1374  0.0239 -0.3922
  908MOL0     C22476  12.120   9.931  10.205  0.3635 -0.1068 -0.2546
  908MOL0     C22477  12.166   9.949  10.335  0.8923 -0.1056  0.4406
  908MOL0     C22478  12.293   9.994  10.372  0.1411  0.2423 -0.6930
  908MOL0     C22479  12.396   9.986  10.270  1.3154  0.9843  0.4059
  908MOL0     O22480  12.534  10.001  10.303  0.4598  0.1592  0.6709
  908MOL0     C22481  12.562   9.975  10.435  0.4619 -0.3470 -0.6014
  908MOL0     C22482  12.717   9.989  10.456  0.4674  0.4728  0.5431
  908MOL0     C22483  12.797   9.889  10.367 -0.6127  0.0338 -0.7654
  908MOL0     C22484  12.940   9.885  10.416 -0.4043  0.0110 -0.0642
  908MOL0     C22485  13.032   9.829  10.317 -0.4669  0.0766 -0.0527
  908MOL0     C22486  13.028   9.680  10.348 -0.0615  0.6473 -0.4202
  908MOL0     C22487  13.137   9.595  10.263 -0.2432  0.6898 -0.5438
  908MOL0     C22488  13.101   9.599  10.110 -0.0366  0.1044 -0.2396
  908MOL0    Cl22489  13.242   9.580   9.996  0.0298 -0.6032 -0.1485
  908MOL0     C22490  12.358   9.947  10.139 -0.2910  0.2096  0.0146
  908MOL0     C22491  12.220   9.934  10.106  0.2375  0.3936 -0.0051
  908MOL0     O22492  11.996  10.112  10.052 -0.2684 -0.1403  0.1974
  908MOL0     C22493  11.729  10.087   9.963 -0.8809  0.3145  0.3205
  908MOL0     C22494  11.591  10.063   9.933 -0.4254  0.7579  0.0400
  908MOL0     N22495  11.174   9.388   9.702 -0.0055  0.2674  0.4656
  908MOL0     N22496  11.144   9.265   9.712 -0.1689  0.8433  0.2240
  908MOL0     C22497  10.364   8.601   9.222 -0.1380 -0.2329  0.2667
  908MOL0     C22498  10.316   8.471   9.176  0.4854  0.9973 -0.1623
  908MOL0     C22499  10.171   8.035   9.198 -0.1152  0.0216  0.3093
  908MOL0     C22500  10.291   7.993   9.136 -0.3375  0.9235  0.4758
  908MOL0     C22501  10.315   7.859   9.092  0.2188 -1.0920  0.1417
  908MOL0     C22502  10.214   7.764   9.115  0.1169  0.3841  0.1086
  908MOL0     O22503  10.252   7.633   9.091  0.5761  0.0808 -0.7978
  908MOL0     C22504  10.207   7.592   8.958 -0.3319  0.9834 -0.4849
  908MOL0     C22505  10.284   7.464   8.918 -0.1429  0.2502  0.0550
  908MOL0     C22506  10.236   7.349   9.009 -0.9648  0.1300 -0.8547
  908MOL0     C22507  10.332   7.218   8.988  0.5855 -1.1901 -0.6063
  908MOL0     C22508  10.341   7.186   8.847  0.0772  0.5697  0.0851
  908MOL0     C22509  10.369   7.169   8.732  0.0959  0.5804  0.2249
  908MOL0     C22510  10.087   7.808   9.160 -0.3607 -0.9948 -1.6599
  908MOL0     C22511  10.061   7.940   9.203  0.3952  0.2486  0.2095
  908MOL0     C22512   9.912   7.969   9.245 -0.8856 -0.3011 -0.3063
  908MOL0     H22513  10.240   8.338   9.477 -1.9194 -1.5568 -2.3088
  908MOL0     H22514  10.284   8.554   9.553 -5.3189  2.0258 -0.1669
  908MOL0     H22515  10.330   8.762   9.575  0.3350  2.3827  1.7877
  908MOL0     H22516  10.503   8.728   9.545  0.7131  3.3399  1.9167
  908MOL0     H22517  10.367   8.987   9.496 -1.9728 -3.0371  0.3113
  908MOL0     H22518  10.533   8.971   9.463 -1.0269 -0.2184 -0.5496
  908MOL0     H22519  10.424   8.880   9.743  0.1118  0.7760  1.1049
  908MOL0     H22520  10.420   9.049   9.724  0.4271  0.5258  0.6595
  908MOL0     H22521  10.678   8.884   9.695 -0.6290 -0.8085 -1.3912
  908MOL0     H22522  10.665   9.063   9.666 -0.7507  1.1050  0.6170
  908MOL0     H22523  10.594   9.091   9.896  0.2554  0.0314 -0.0058
  908MOL0     H22524  10.603   8.914   9.922  0.3478  0.7759  0.7753
  908MOL0     H22525  10.791   9.001  10.008 -3.3885 -2.6947  0.0612
  908MOL0     H22526  10.828   8.903   9.886 -3.7578 -2.3912  1.5838
  908MOL0     H22527  10.828   9.223   9.862  3.3810  2.0082  1.8545
  908MOL0     H22528  10.855   9.109   9.732  1.2772 -1.4830  0.1013
  908MOL0     H22529  11.043   9.109   9.974 -0.7450  1.1050  0.8615
  908MOL0     H22530  11.061   9.039   9.810 -2.1256 -0.6098 -0.9252
  908MOL0     H22531  11.002   9.399   9.977 -0.3879 -1.2392  0.7196
  908MOL0     H22532  11.119   9.640   9.721  4.2064 -2.2995 -0.5644
  908MOL0     H22533  10.999   9.637   9.850  0.2126 -0.1486  1.5112
  908MOL0     H22534  11.221   9.612  10.013  1.0903 -0.7845 -0.9256
  908MOL0     H22535  11.301   9.649   9.868  1.4285 -0.9147  2.4081
  908MOL0     H22536  11.107   9.858   9.993  0.5628 -0.4517  1.4132
  908MOL0     H22537  11.192   9.865   9.831  3.7935  1.4639 -0.4292
  908MOL0     H22538  11.353   9.856  10.089  1.3242 -0.9469 -0.6329
  908MOL0     H22539  11.300  10.005  10.018  0.5223 -0.4066  4.7180
  908MOL0     H22540  11.591   9.725   9.977 -2.6984 -0.1219  3.6580
  908MOL0     H22541  11.796   9.782  10.096 -1.0012 -2.0913 -1.7202
  908MOL0     H22542  12.087   9.951  10.409  0.0734 -1.8374 -0.3252
  908MOL0     H22543  12.306  10.031  10.473  1.4905  2.3455 -1.5787
  908MOL0     H22544  12.515  10.046  10.504 -1.2914 -2.8422  0.9678
  908MOL0     H22545  12.517   9.877  10.456 -0.8391  0.1173 -1.0958
  908MOL0     H22546  12.736  10.094  10.433 -3.8278  1.0372 -1.3888
  908MOL0     H22547  12.740   9.979  10.563 -0.9504  1.8888  1.0154
  908MOL0     H22548  12.742   9.795  10.378 -1.0770  0.4179  0.3165
  908MOL0     H22549  12.792   9.918  10.262 -1.5235  1.4783 -0.3482
  908MOL0     H22550  12.953   9.846  10.517  0.4226  0.1774 -0.0981
  908MOL0     H22551  12.974   9.985  10.443  1.8163 -1.6012  4.0458
  908MOL0     H22552  13.133   9.871  10.328 -0.1304 -1.1523  2.0424
  908MOL0     H22553  12.987   9.849  10.220 -2.8201  1.2752  1.1988
  908MOL0     H22554  13.061   9.675  10.453 -2.1453  2.1267  0.3700
  908MOL0     H22555  12.932   9.629  10.337 -0.4788  0.9714  1.4403
  908MOL0     H22556  13.180   9.501  10.299  1.6887  1.4230 -0.7998
  908MOL0     H22557  13.226   9.658  10.275  0.3677  0.2295 -2.3190
  908MOL0     H22558  13.030   9.517  10.101 -2.2183  2.0562 -1.7330
  908MOL0     H22559  13.053   9.687  10.067  1.2830  0.0614 -1.9312
  908MOL0     H22560  12.443   9.923  10.075 -0.5049 -0.9251  0.1241
  908MOL0     H22561  12.196   9.891  10.009 -2.4466  2.7500 -0.5123
  908MOL0     H22562  11.776  10.183   9.980  1.1382 -0.9094  2.2167
  908MOL0     H22563  11.534  10.141   9.883  1.3971  0.0935 -3.3589
  908MOL0     H22564  10.397   8.666   9.141  2.4503 -2.0421 -0.2351
  908MOL0     H22565  10.328   8.438   9.074  3.2785  0.7705  0.1476
  908MOL0     H22566  10.365   8.067   9.106 -2.6692  2.2541 -2.5488
  908MOL0     H22567  10.413   7.826   9.059 -0.2259 -3.2547  0.8319
  908MOL0     H22568  10.210   7.667   8.878  0.3318 -0.4127 -1.8159
  908MOL0     H22569  10.104   7.558   8.966 -0.1551  1.0063  3.1852
  908MOL0     H22570  10.391   7.480   8.934 -0.6822  2.2221  2.2376
  908MOL0     H22571  10.265   7.432   8.815  1.0857  0.1096 -0.1358
  908MOL0     H22572  10.133   7.320   8.987 -0.9222 -2.5736  1.7531
  908MOL0     H22573  10.236   7.384   9.113 -0.7986  1.2832 -1.2347
  908MOL0     H22574  10.431   7.246   9.026  0.4435 -0.0408 -1.0404
  908MOL0     H22575  10.286   7.131   9.035 -1.4181  1.7713  3.5199
  908MOL0     H22576  10.377   7.147   8.628 -0.9858  2.4881 -0.3142
  908MOL0     H22577  10.008   7.734   9.173 -2.4323  1.6450  4.0569
  908MOL0     H22578   9.871   7.993   9.147  3.2499  1.8296 -1.7857
  908MOL0     H22579   9.874   7.879   9.293  1.3430 -0.8018  0.6735
  908MOL0     H22580   9.896   8.062   9.300  0.9646 -1.3940  2.2515
  909MOL0     O22581   7.827   5.953   7.940  0.8663 -0.2946  0.1840
  909MOL0     C22582   7.705   5.949   7.927 -0.1361  0.4627 -1.2210
  909MOL0     O22583   7.621   5.860   7.986 -0.6225 -0.3966  0.2555
  909MOL0     C22584   7.649   5.765   8.079 -0.5752  0.4913  0.4980
  909MOL0     C22585   7.546   5.698   8.134 -0.0941 -0.1448  0.1071
  909MOL0     C22586   7.565   5.619   8.248 -0.7449  0.9644 -0.3953
  909MOL0     C22587   7.690   5.587   8.299 -0.3143  0.3596 -0.1502
  909MOL0     O22588   7.692   5.493   8.393  0.5922 -0.2381 -0.4012
  909MOL0     C22589   7.825   5.429   8.418  0.7487  0.2322  0.0363
  909MOL0     C22590   7.828   5.344   8.541  0.0127  0.9477  0.2895
  909MOL0     C22591   7.803   5.426   8.667  0.0748  0.2247  0.9975
  909MOL0     C22592   7.926   5.477   8.744 -0.6670 -0.4504  0.8690
  909MOL0     C22593   7.994   5.364   8.826  0.0288  0.0566 -0.4257
  909MOL0     C22594   8.116   5.420   8.901  0.3470  0.5386  0.1733
  909MOL0     C22595   8.166   5.302   8.991  0.0264 -0.2002  0.5223
  909MOL0     C22596   8.308   5.322   9.044 -0.2713 -0.3513  0.1752
  909MOL0     N22597   8.400   5.329   8.927  0.9916 -0.9052  0.7208
  909MOL0     C22598   8.431   5.221   8.852 -0.9060  0.0634  1.4546
  909MOL0     C22599   8.546   5.255   8.781  0.9856 -1.4183  0.7961
  909MOL0     C22600   8.634   5.183   8.679 -0.5111 -0.2597 -0.9285
  909MOL0     C22601   8.623   5.243   8.538 -0.3116  0.6124  0.5896
  909MOL0     C22602   8.479   5.204   8.479 -0.2503 -0.2554 -0.6195
  909MOL0     C22603   8.483   5.183   8.329 -0.5012 -0.2007  0.6905
  909MOL0     O22604   8.560   5.283   8.262 -0.1541  0.6493  0.8059
  909MOL0     C22605   8.563   5.275   8.124 -0.0072 -0.1158 -0.5039
  909MOL0     C22606   8.593   5.401   8.059  0.5111  0.0333 -0.3704
  909MOL0     C22607   8.591   5.412   7.925 -0.3986  0.8023 -0.0972
  909MOL0     C22608   8.557   5.298   7.848  0.4491 -1.0093 -0.0021
  909MOL0     C22609   8.558   5.306   7.701 -0.1495 -0.0523  0.5353
  909MOL0     O22610   8.552   5.423   7.638  0.2106  0.0833  0.0004
  909MOL0     C22611   8.540   5.415   7.496  0.6427 -0.0468 -0.6277
  909MOL0     C22612   8.659   5.408   7.435 -0.9221 -0.4006 -0.3737
  909MOL0     C22613   8.671   5.431   7.301 -0.7441  0.4330  0.1107
  909MOL0     C22614   8.554   5.454   7.232  0.5840  0.0029 -0.2790
  909MOL0     O22615   8.571   5.500   7.106 -0.0273  0.3808 -0.0560
  909MOL0     C22616   8.493   5.434   7.002 -0.5445  0.0736  0.4826
  909MOL0     C22617   8.532   5.300   6.955 -0.7934  0.6995  0.9172
  909MOL0     C22618   8.424   5.249   6.850  0.4255  0.3984  1.0929
  909MOL0     C22619   8.306   5.197   6.920 -0.1020 -0.2582 -0.3744
  909MOL0     C22620   8.201   5.147   6.823  0.1571  0.4457  0.2749
  909MOL0     C22621   8.082   5.094   6.900 -0.4719 -0.3784 -0.4587
  909MOL0     C22622   8.010   5.193   6.986  0.7864  0.6772 -0.0496
  909MOL0     C22623   7.892   5.129   7.056 -0.7766 -0.5421 -0.4823
  909MOL0    Cl22624   7.929   5.031   7.201 -0.1973  0.1846  0.4245
  909MOL0     C22625   8.428   5.446   7.289 -0.5567 -0.3213 -1.1817
  909MOL0     C22626   8.422   5.433   7.427 -0.4044  0.2522 -0.9694
  909MOL0     O22627   8.552   5.198   7.638 -0.3090 -0.0387  0.1193
  909MOL0     C22628   8.546   5.166   7.912 -0.2088 -0.6310 -0.7597
  909MOL0     C22629   8.536   5.160   8.050  0.2435 -0.1719  0.0274
  909MOL0     N22630   8.568   5.389   8.797 -0.8739 -0.3612 -0.7369
  909MOL0     N22631   8.483   5.426   8.892  0.1875 -0.0467 -0.4050
  909MOL0     C22632   7.797   5.654   8.243 -0.2363 -0.7583 -0.5163
  909MOL0     C22633   7.774   5.744   8.136 -1.0246  0.3932 -0.0148
  909MOL0     C22634   7.640   6.049   7.843 -0.6336  0.7042  0.0731
  909MOL0     C22635   7.711   6.160   7.790  0.0258  0.2073 -0.0600
  909MOL0     C22636   7.652   6.252   7.704  0.2617  0.5087  0.3508
  909MOL0     C22637   7.519   6.223   7.654 -0.3216 -0.2080  0.9061
  909MOL0     O22638   7.464   6.297   7.560  0.4747 -0.1275 -0.4159
  909MOL0     C22639   7.525   6.404   7.483 -0.1384  0.9232 -0.5668
  909MOL0     C22640   7.458   6.443   7.349  0.2446  0.0801  0.0497
  909MOL0     C22641   7.504   6.367   7.224  0.1422  0.2602  0.1401
  909MOL0     C22642   7.447   6.222   7.217  0.3083 -0.3961 -0.2549
  909MOL0     C22643   7.443   6.174   7.080  0.2382 -0.3031 -0.0227
  909MOL0     C22644   7.429   6.127   6.969  0.1003  0.5961  0.4114
  909MOL0     C22645   7.449   6.110   7.706  0.9688 -1.3243  0.8421
  909MOL0     C22646   7.501   6.025   7.798 -0.6264 -0.0506 -0.4548
  909MOL0     C22647   7.416   5.910   7.832  0.4847 -0.1976  0.0636
  909MOL0     H22648   7.444   5.710   8.101 -0.2757 -1.5481  0.0909
  909MOL0     H22649   7.477   5.578   8.298 -0.3543  1.4944  0.7658
  909MOL0     H22650   7.840   5.360   8.335 -0.9717  1.1704 -1.1176
  909MOL0     H22651   7.906   5.502   8.419  1.8518 -0.9343  2.2173
  909MOL0     H22652   7.913   5.276   8.552  0.6486  1.8805  1.5009
  909MOL0     H22653   7.743   5.276   8.530 -0.1709  0.4775  3.6013
  909MOL0     H22654   7.743   5.363   8.732  0.9307 -0.5398  1.0592
  909MOL0     H22655   7.739   5.506   8.628 -0.7134 -1.2235 -0.8198
  909MOL0     H22656   7.995   5.530   8.678  1.3799  0.6279  3.6755
  909MOL0     H22657   7.888   5.541   8.824 -1.0973 -2.2582  2.1680
  909MOL0     H22658   7.919   5.329   8.897 -1.2354  1.6375 -0.9323
  909MOL0     H22659   8.022   5.279   8.763  0.9621 -0.1682  0.2763
  909MOL0     H22660   8.190   5.445   8.825  0.8315 -2.0593 -0.2938
  909MOL0     H22661   8.096   5.516   8.950 -0.9960  1.7293 -2.5324
  909MOL0     H22662   8.168   5.208   8.935  2.3729  0.2911 -0.3245
  909MOL0     H22663   8.104   5.297   9.081  3.7023  3.0975  3.6052
  909MOL0     H22664   8.305   5.418   9.095  0.8850 -0.7185  0.9967
  909MOL0     H22665   8.326   5.239   9.112 -4.6332 -0.5659  1.3396
  909MOL0     H22666   8.386   5.122   8.848  0.2523 -0.4312 -1.4312
  909MOL0     H22667   8.737   5.188   8.717  0.0598 -3.5993 -1.7240
  909MOL0     H22668   8.591   5.083   8.676  0.0169 -0.5636  0.7015
  909MOL0     H22669   8.626   5.352   8.535 -1.4677  0.7785  3.1673
  909MOL0     H22670   8.706   5.207   8.475 -0.2182  0.1576  0.9698
  909MOL0     H22671   8.401   5.278   8.502 -1.7570 -2.0618  0.3452
  909MOL0     H22672   8.436   5.118   8.531  2.7102 -0.5674  1.5573
  909MOL0     H22673   8.384   5.177   8.283 -0.8393 -1.4184  1.5279
  909MOL0     H22674   8.536   5.088   8.326 -3.0552 -2.0998  5.2197
  909MOL0     H22675   8.620   5.484   8.124 -1.6436  1.1196 -0.7593
  909MOL0     H22676   8.644   5.502   7.896  0.9605  0.2507  0.5833
  909MOL0     H22677   8.750   5.383   7.489 -1.7217 -1.7092  0.4050
  909MOL0     H22678   8.766   5.426   7.250  0.0612  1.5603  1.4341
  909MOL0     H22679   8.387   5.452   7.025 -0.8317 -1.6704  0.6440
  909MOL0     H22680   8.501   5.486   6.906 -4.5123 -1.1019 -0.6984
  909MOL0     H22681   8.633   5.307   6.913  0.3444  0.7791  3.5105
  909MOL0     H22682   8.539   5.225   7.033 -4.3448 -0.9957 -0.2083
  909MOL0     H22683   8.392   5.314   6.768  0.0101 -0.3206  0.6740
  909MOL0     H22684   8.472   5.161   6.805 -0.9337  0.0695  0.2309
  909MOL0     H22685   8.276   5.284   6.980  2.1347  0.6263 -0.4430
  909MOL0     H22686   8.330   5.110   6.981  0.1558 -1.5328 -2.2079
  909MOL0     H22687   8.253   5.068   6.769  2.9160  1.2043  1.6173
  909MOL0     H22688   8.179   5.233   6.760  2.3804  1.1574  0.3820
  909MOL0     H22689   8.019   5.041   6.827  0.3856 -2.2096  0.0823
  909MOL0     H22690   8.129   5.023   6.969 -0.2760 -5.1696 -4.8817
  909MOL0     H22691   7.959   5.259   6.915 -0.1619 -0.8163 -0.8271
  909MOL0     H22692   8.072   5.241   7.062  1.5330 -0.5925  0.1826
  909MOL0     H22693   7.820   5.204   7.090 -1.6719 -1.7577  0.3884
  909MOL0     H22694   7.836   5.062   6.989  0.1778 -2.2443  0.3625
  909MOL0     H22695   8.342   5.462   7.223  1.7216  1.7049 -3.9227
  909MOL0     H22696   8.343   5.440   7.502  1.9024 -1.2409  1.8221
  909MOL0     H22697   8.549   5.070   7.862 -0.1424 -1.2734  0.4261
  909MOL0     H22698   8.513   5.065   8.096  0.6315 -0.8578 -1.1605
  909MOL0     H22699   7.898   5.651   8.282 -0.7330  1.0139  1.0787
  909MOL0     H22700   7.865   5.794   8.103 -1.2383  0.3394 -0.6824
  909MOL0     H22701   7.815   6.173   7.820 -0.3635 -1.1761  2.1378
  909MOL0     H22702   7.710   6.340   7.677 -0.5992  1.9030  2.7677
  909MOL0     H22703   7.629   6.384   7.456 -0.0820 -0.7605  0.7451
  909MOL0     H22704   7.501   6.490   7.547 -4.5554  1.0611 -2.0654
  909MOL0     H22705   7.479   6.547   7.323  0.1378 -0.0798 -0.7240
  909MOL0     H22706   7.349   6.434   7.355  0.3554 -1.2611  0.3750
  909MOL0     H22707   7.613   6.367   7.220  0.2340 -2.8914  0.4091
  909MOL0     H22708   7.462   6.423   7.140  0.5612  0.7351  0.2457
  909MOL0     H22709   7.517   6.162   7.276 -1.2940 -0.3276  1.8069
  909MOL0     H22710   7.347   6.213   7.260  0.1385  0.8111 -0.3578
  909MOL0     H22711   7.411   6.097   6.868  0.4801 -1.9558  1.0293
  909MOL0     H22712   7.355   6.099   7.654  1.6793 -1.6564 -0.3970
  909MOL0     H22713   7.397   5.893   7.938  3.3025 -2.1318  0.3512
  909MOL0     H22714   7.316   5.920   7.787  0.0898  1.3870  1.2063
  909MOL0     H22715   7.462   5.820   7.792 -0.1257 -1.7094  2.5758
  910MOL0     O22716   5.938   5.221   3.518 -0.2608  0.2891  0.6175
  910MOL0     C22717   5.984   5.256   3.623 -1.0138  0.5151 -0.0805
  910MOL0     O22718   6.068   5.357   3.638  0.6024  0.0739  0.9632
  910MOL0     C22719   6.083   5.459   3.546 -0.4576  0.1702 -0.4760
  910MOL0     C22720   6.060   5.589   3.593  0.3363  0.4747  0.5615
  910MOL0     C22721   6.092   5.696   3.503  0.0583 -0.7183 -0.0544
  910MOL0     C22722   6.153   5.680   3.379 -0.2361 -0.5175  0.6012
  910MOL0     O22723   6.198   5.776   3.287  0.1732 -0.5301 -0.1256
  910MOL0     C22724   6.280   5.886   3.348  0.2757 -0.8650 -1.3155
  910MOL0     C22725   6.435   5.850   3.358  1.2758  0.6525 -0.2448
  910MOL0     C22726   6.528   5.953   3.424  0.5382  0.5470  0.8584
  910MOL0     C22727   6.683   5.905   3.438  0.0432  0.1299 -0.1247
  910MOL0     C22728   6.727   5.846   3.311  1.3067  0.1870 -0.4971
  910MOL0     C22729   6.877   5.821   3.303 -0.4503 -0.2120 -1.0370
  910MOL0     C22730   6.907   5.722   3.185  0.2411 -0.2438 -0.2146
  910MOL0     C22731   7.050   5.680   3.181 -0.6402  0.7051  0.2525
  910MOL0     N22732   7.056   5.579   3.081  0.0103 -0.2848  0.0809
  910MOL0     C22733   7.092   5.451   3.107 -0.1980  0.5023  0.9983
  910MOL0     C22734   7.078   5.378   2.993 -0.0395  0.2700  0.0906
  910MOL0     C22735   7.072   5.234   2.982  0.6531 -0.5841 -0.2136
  910MOL0     C22736   7.194   5.189   2.898 -0.5773  0.0517  0.0167
  910MOL0     C22737   7.169   5.062   2.823 -0.4140  1.1482 -0.8018
  910MOL0     C22738   7.281   5.020   2.722  0.1970  0.2203  0.4492
  910MOL0     O22739   7.268   4.884   2.684 -0.1322  0.7905 -0.7738
  910MOL0     C22740   7.347   4.798   2.747  0.3097  0.2954  1.0720
  910MOL0     C22741   7.480   4.802   2.734 -0.8291  0.7472 -0.4622
  910MOL0     C22742   7.578   4.732   2.811  0.5413  0.6963 -0.0598
  910MOL0     C22743   7.528   4.624   2.894 -0.2170  0.5283 -0.4008
  910MOL0     C22744   7.613   4.532   2.971 -0.3934  1.2067 -0.2234
  910MOL0     O22745   7.749   4.525   2.938 -0.0108 -0.3429 -0.2597
  910MOL0     C22746   7.819   4.450   3.020 -0.0991  0.4467 -0.1383
  910MOL0     C22747   7.924   4.501   3.090  0.7433 -0.9919 -0.8440
  910MOL0     C22748   8.021   4.415   3.149  0.7689 -0.1142  1.4426
  910MOL0     C22749   8.003   4.274   3.148 -0.1523  0.0353  0.3916
  910MOL0     O22750   8.100   4.206   3.214 -0.5023  1.0621  0.1391
  910MOL0     C22751   8.124   4.073   3.158 -0.3058  0.3015 -0.1548
  910MOL0     C22752   8.059   3.957   3.247 -0.6329 -0.2747  0.3394
  910MOL0     C22753   8.163   3.928   3.357 -0.1864 -1.2476 -0.0925
  910MOL0     C22754   8.158   3.783   3.416 -0.6227 -0.1045 -0.3327
  910MOL0     C22755   8.264   3.772   3.530  0.0022  1.1761 -0.5005
  910MOL0     C22756   8.233   3.834   3.666  0.8445 -0.2461  0.9939
  910MOL0     C22757   8.319   3.798   3.785 -0.7310 -0.0087  0.5672
  910MOL0     C22758   8.281   3.676   3.867 -0.2933  0.0855  0.2312
  910MOL0    Cl22759   8.281   3.525   3.765  0.6882 -0.9572 -0.4027
  910MOL0     C22760   7.884   4.220   3.091 -0.0123 -0.4596  0.6782
  910MOL0     C22761   7.805   4.308   3.020  0.3221  0.2835  0.3162
  910MOL0     O22762   7.558   4.464   3.060  0.1007  0.7689  0.5654
  910MOL0     C22763   7.380   4.617   2.907  0.0368  0.6643 -1.1819
  910MOL0     C22764   7.297   4.697   2.830  0.4501 -0.6981 -0.5302
  910MOL0     N22765   7.035   5.471   2.891 -0.6626 -0.8364 -0.3054
  910MOL0     N22766   7.035   5.597   2.944  0.6390 -0.1056 -0.2510
  910MOL0     C22767   6.161   5.551   3.332 -0.3219  0.1510  0.0906
  910MOL0     C22768   6.123   5.439   3.415  0.5159  0.2262  0.6697
  910MOL0     C22769   5.945   5.173   3.745 -0.0025  0.2224 -0.3627
  910MOL0     C22770   5.900   5.042   3.735  0.0544  0.3697  1.1764
  910MOL0     C22771   5.875   4.960   3.843 -0.1206  0.4431  0.5564
  910MOL0     C22772   5.892   5.002   3.977  0.3159 -0.3174  0.8813
  910MOL0     O22773   5.873   4.925   4.087  0.1869 -0.0140  0.6990
  910MOL0     C22774   5.922   4.963   4.220  0.7325 -0.1799 -0.4401
  910MOL0     C22775   5.851   4.890   4.334 -0.7663 -1.0126  0.2067
  910MOL0     C22776   5.697   4.906   4.329 -0.9072  0.1779  0.9081
  910MOL0     C22777   5.618   4.851   4.454  0.0310  0.0577  0.5648
  910MOL0     C22778   5.676   4.743   4.527 -0.6655  0.3437 -0.7524
  910MOL0     C22779   5.740   4.646   4.564  0.7180 -0.0272  0.6967
  910MOL0     C22780   5.914   5.144   3.988 -0.6540 -0.4631  0.3871
  910MOL0     C22781   5.950   5.227   3.874 -0.3294 -0.0583 -0.4452
  910MOL0     C22782   5.992   5.370   3.907  0.1731 -0.2291 -1.0875
  910MOL0     H22783   6.025   5.602   3.695  2.0889  4.0778  0.8512
  910MOL0     H22784   6.070   5.798   3.531 -0.1376 -1.2102  1.6957
  910MOL0     H22785   6.267   5.977   3.290 -1.9917  1.2138  2.0907
  910MOL0     H22786   6.238   5.929   3.440  2.3867  0.8419 -1.0606
  910MOL0     H22787   6.465   5.830   3.255 -1.0987 -0.6174 -0.7554
  910MOL0     H22788   6.436   5.758   3.416  1.1242 -0.7356 -2.3144
  910MOL0     H22789   6.491   5.955   3.526 -1.7608 -2.7600  0.2639
  910MOL0     H22790   6.510   6.047   3.370  0.1806 -1.2959 -2.5652
  910MOL0     H22791   6.757   5.980   3.466 -0.2423  0.5331 -0.4360
  910MOL0     H22792   6.687   5.834   3.521 -2.1007 -0.2243 -0.2491
  910MOL0     H22793   6.683   5.746   3.309 -0.5503  0.8670  1.6332
  910MOL0     H22794   6.690   5.891   3.218  0.2422 -0.4980 -0.4284
  910MOL0     H22795   6.932   5.914   3.285  0.5338  0.5614  4.2192
  910MOL0     H22796   6.912   5.785   3.400 -0.3347  0.5816 -0.7798
  910MOL0     H22797   6.893   5.775   3.091  0.8107 -3.4555 -2.2642
  910MOL0     H22798   6.842   5.634   3.184  1.1722 -0.9497 -1.2639
  910MOL0     H22799   7.116   5.764   3.161  4.3534 -2.5496  1.1540
  910MOL0     H22800   7.093   5.646   3.275 -1.4368 -0.7022  0.1465
  910MOL0     H22801   7.121   5.408   3.202  2.8105  0.9198  0.3523
  910MOL0     H22802   7.071   5.192   3.083  0.9618 -2.6793 -1.0319
  910MOL0     H22803   6.977   5.206   2.936  1.5215  0.2017 -2.6332
  910MOL0     H22804   7.206   5.270   2.826 -0.9819  2.0128  2.0387
  910MOL0     H22805   7.289   5.177   2.953  0.0288  2.3152 -0.4159
  910MOL0     H22806   7.072   5.062   2.772 -0.2666 -2.0189 -1.2381
  910MOL0     H22807   7.176   4.983   2.898  0.3887  0.7753 -1.2577
  910MOL0     H22808   7.382   5.037   2.760  0.1168  1.2553  0.2248
  910MOL0     H22809   7.270   5.080   2.631  2.9095 -0.7396 -0.6007
  910MOL0     H22810   7.521   4.872   2.662 -3.7386  3.0360 -0.1375
  910MOL0     H22811   7.685   4.747   2.797  0.8293 -0.9524  0.1044
  910MOL0     H22812   7.942   4.608   3.093  1.1785 -0.9014 -3.8850
  910MOL0     H22813   8.112   4.453   3.195  1.6099 -1.5550  1.0545
  910MOL0     H22814   8.083   4.060   3.057  2.4079 -3.9373 -0.9382
  910MOL0     H22815   8.232   4.054   3.150 -0.6733 -1.5419 -1.2142
  910MOL0     H22816   7.977   4.004   3.302 -0.7353 -0.9109  0.7402
  910MOL0     H22817   8.024   3.871   3.189 -1.6243  0.7851 -0.6732
  910MOL0     H22818   8.262   3.944   3.314 -1.7333  0.5497 -3.3801
  910MOL0     H22819   8.148   3.996   3.442 -0.5602 -2.8335  1.1535
  910MOL0     H22820   8.174   3.705   3.340  0.6782 -0.6858  0.4975
  910MOL0     H22821   8.060   3.775   3.463 -1.5780 -1.1453 -2.3921
  910MOL0     H22822   8.366   3.801   3.502  0.1471  0.7469 -0.4327
  910MOL0     H22823   8.273   3.663   3.543 -4.4599  0.5031 -1.4528
  910MOL0     H22824   8.232   3.943   3.663  1.0935 -0.2646 -1.1340
  910MOL0     H22825   8.129   3.809   3.689 -0.4704  0.6550 -3.1262
  910MOL0     H22826   8.320   3.885   3.851  1.2500  0.9406 -0.6273
  910MOL0     H22827   8.416   3.769   3.743 -0.6700 -0.5243  1.0438
  910MOL0     H22828   8.360   3.662   3.942  1.1984  1.4574 -1.0087
  910MOL0     H22829   8.190   3.688   3.925  1.4855 -0.8362  3.4951
  910MOL0     H22830   7.845   4.120   3.109  1.4372 -1.6331 -2.1398
  910MOL0     H22831   7.728   4.257   2.963 -0.4275 -0.1661  1.6876
  910MOL0     H22832   7.331   4.541   2.966  0.5132  2.3469  1.5543
  910MOL0     H22833   7.190   4.700   2.846  0.1038  1.0104 -2.5537
  910MOL0     H22834   6.199   5.553   3.230 -0.5185  3.4496 -0.0144
  910MOL0     H22835   6.121   5.338   3.374 -1.0271 -1.1399  3.8042
  910MOL0     H22836   5.883   5.005   3.635 -2.0912  2.7274  0.5840
  910MOL0     H22837   5.840   4.859   3.826 -0.1670  0.4518  0.5979
  910MOL0     H22838   5.908   5.072   4.225  0.3137 -0.2418 -0.2175
  910MOL0     H22839   6.031   4.955   4.230  0.6999  1.8738  3.9082
  910MOL0     H22840   5.891   4.926   4.430 -1.9052 -2.1827  1.1583
  910MOL0     H22841   5.878   4.784   4.332  0.9918 -0.5983  0.6831
  910MOL0     H22842   5.665   4.855   4.237 -2.9374  1.9418  0.5594
  910MOL0     H22843   5.671   5.011   4.317 -1.1500 -0.0772 -1.2947
  910MOL0     H22844   5.597   4.929   4.527  1.2386  1.4928 -0.5468
  910MOL0     H22845   5.520   4.817   4.419  0.8741 -0.0024 -1.9608
  910MOL0     H22846   5.797   4.563   4.601  1.4105 -0.1694 -0.6552
  910MOL0     H22847   5.920   5.203   4.079  1.6166 -0.8089  0.5120
  910MOL0     H22848   6.101   5.373   3.915  0.2056  2.5075 -1.4500
  910MOL0     H22849   5.965   5.453   3.841  1.1589  1.1946  0.2357
  910MOL0     H22850   5.961   5.403   4.007 -0.9707 -1.0541 -1.1476
  911MOL0     O22851   4.305   1.997   3.939  0.1223 -0.3633  0.7742
  911MOL0     C22852   4.321   1.896   3.864 -0.2884 -1.7723  0.3439
  911MOL0     O22853   4.213   1.834   3.804 -0.2353 -0.8194  0.2549
  911MOL0     C22854   4.100   1.912   3.790  0.3583  0.1847 -0.3460
  911MOL0     C22855   4.056   1.930   3.659 -0.1146  0.3275 -0.1765
  911MOL0     C22856   3.934   1.993   3.628 -0.9808 -0.5007  0.3886
  911MOL0     C22857   3.840   2.023   3.736  0.1812  0.6005  0.3824
  911MOL0     O22858   3.723   2.096   3.713  0.1823  0.1537 -0.8996
  911MOL0     C22859   3.654   2.081   3.582 -0.1373 -0.0754 -0.3566
  911MOL0     C22860   3.520   2.154   3.597  0.1788 -0.7391 -0.0245
  911MOL0     C22861   3.552   2.304   3.590  0.4931  0.2805  0.2702
  911MOL0     C22862   3.426   2.380   3.542  0.3945 -0.1294 -0.1106
  911MOL0     C22863   3.465   2.519   3.492  0.2441  0.6796 -0.7666
  911MOL0     C22864   3.357   2.574   3.397  0.1720 -0.7712 -0.5112
  911MOL0     C22865   3.388   2.712   3.325  0.0940 -0.6094 -0.0708
  911MOL0     C22866   3.402   2.818   3.447 -0.5778 -0.8211  0.9571
  911MOL0     N22867   3.396   2.954   3.390  0.6440 -0.6341 -0.3786
  911MOL0     C22868   3.501   2.996   3.325 -0.9185 -0.8162  0.7341
  911MOL0     C22869   3.448   3.107   3.257  0.2049  0.4693 -0.4015
  911MOL0     C22870   3.522   3.205   3.172  0.4376  1.3001  0.1396
  911MOL0     C22871   3.573   3.159   3.034  0.5443  1.3373 -0.4633
  911MOL0     C22872   3.621   3.290   2.962 -0.1441  0.2671  0.3312
  911MOL0     C22873   3.609   3.285   2.809 -0.4315  0.2537  0.3205
  911MOL0     O22874   3.675   3.399   2.759  0.1059  0.7314 -0.1192
  911MOL0     C22875   3.654   3.427   2.627  0.0439 -0.2028 -0.0931
  911MOL0     C22876   3.736   3.508   2.571  0.5459 -0.3185 -0.3043
  911MOL0     C22877   3.726   3.541   2.434  0.7902  1.3507  0.2696
  911MOL0     C22878   3.616   3.501   2.357  1.4933 -0.0091  0.4153
  911MOL0     C22879   3.608   3.537   2.213 -0.7635 -0.9713  0.4552
  911MOL0     O22880   3.718   3.595   2.153 -0.6430  0.3321  0.3303
  911MOL0     C22881   3.720   3.632   2.012  0.8030  0.3278  0.5416
  911MOL0     C22882   3.609   3.667   1.929 -0.1361 -0.1900 -0.1475
  911MOL0     C22883   3.628   3.696   1.796 -0.7263 -0.0694  0.0681
  911MOL0     C22884   3.758   3.692   1.734  0.7056  0.7132  0.0767
  911MOL0     O22885   3.799   3.709   1.608  0.3354 -0.4356 -0.0118
  911MOL0     C22886   3.692   3.707   1.506  0.0186  0.2119 -0.2450
  911MOL0     C22887   3.735   3.640   1.367  0.5395  0.0351  0.3519
  911MOL0     C22888   3.781   3.487   1.383  0.7089 -0.1750 -1.2575
  911MOL0     C22889   3.922   3.482   1.434  0.6400 -1.2937  0.7112
  911MOL0     C22890   3.982   3.339   1.427  0.6372  0.1285  0.1775
  911MOL0     C22891   3.975   3.275   1.296 -0.2708  0.1964  0.2487
  911MOL0     C22892   4.052   3.360   1.197  0.2649  0.4368 -0.5209
  911MOL0     C22893   4.061   3.291   1.065  0.2363 -0.0161  0.1620
  911MOL0    Cl22894   4.159   3.144   1.070 -0.6158 -0.0362 -0.3498
  911MOL0     C22895   3.870   3.672   1.820 -0.0462  0.8313 -1.1202
  911MOL0     C22896   3.855   3.643   1.954 -0.3221 -0.7051  0.1808
  911MOL0     O22897   3.505   3.502   2.158 -0.3847 -0.2620 -0.7639
  911MOL0     C22898   3.526   3.423   2.414  0.2092  0.5459  0.2092
  911MOL0     C22899   3.536   3.387   2.549 -0.0229  0.7164  0.9075
  911MOL0     N22900   3.316   3.122   3.293 -0.0518  0.1575  0.5031
  911MOL0     N22901   3.282   3.023   3.370 -1.0998  0.2422 -0.4339
  911MOL0     C22902   3.889   2.002   3.867 -0.3380  0.6981 -0.1192
  911MOL0     C22903   4.016   1.947   3.896 -0.1827  1.4441  0.1236
  911MOL0     C22904   4.465   1.856   3.844 -0.0806 -0.2140  0.2520
  911MOL0     C22905   4.496   1.770   3.740  1.0850 -0.3590  0.0157
  911MOL0     C22906   4.617   1.701   3.731  0.0266  0.5184 -0.0044
  911MOL0     C22907   4.722   1.732   3.811  0.2817  0.6674  0.1458
  911MOL0     O22908   4.848   1.671   3.786 -0.2445 -0.4239  0.1484
  911MOL0     C22909   4.972   1.721   3.833  0.1447  0.4627  0.1618
  911MOL0     C22910   5.021   1.841   3.755 -0.1544  0.0145 -1.0287
  911MOL0     C22911   5.142   1.905   3.840 -0.4210  0.5308  0.0197
  911MOL0     C22912   5.161   2.047   3.803  0.6498  0.2950 -0.1794
  911MOL0     C22913   5.089   2.138   3.891  0.5975 -0.0987 -0.8355
  911MOL0     C22914   5.034   2.231   3.943  0.6270 -0.2540  0.4352
  911MOL0     C22915   4.688   1.819   3.918 -0.5727  0.0424 -0.2375
  911MOL0     C22916   4.572   1.884   3.938 -1.1040 -0.7010  0.5797
  911MOL0     C22917   4.575   1.973   4.071  1.1545 -0.2622  0.1936
  911MOL0     H22918   4.123   1.908   3.577 -0.1603  2.0748 -0.7143
  911MOL0     H22919   3.899   2.008   3.526 -0.2385  3.5185  0.5658
  911MOL0     H22920   3.715   2.128   3.505 -1.0266  1.0228 -0.4217
  911MOL0     H22921   3.638   1.977   3.552 -1.7819  0.8906 -3.2511
  911MOL0     H22922   3.468   2.131   3.691 -1.3376  3.1859  0.2900
  911MOL0     H22923   3.457   2.128   3.512  1.4151  0.6941 -1.4175
  911MOL0     H22924   3.619   2.319   3.505 -1.1726  1.0342 -0.9573
  911MOL0     H22925   3.595   2.332   3.687 -2.4230 -0.4369  1.9228
  911MOL0     H22926   3.380   2.323   3.460 -1.5869  2.9220 -1.3024
  911MOL0     H22927   3.354   2.396   3.622 -0.0364  1.6045 -0.7929
  911MOL0     H22928   3.466   2.579   3.583 -1.5216  0.8089 -0.8083
  911MOL0     H22929   3.558   2.522   3.434 -0.5884 -0.8378 -2.2835
  911MOL0     H22930   3.340   2.504   3.314  1.5781 -1.1254 -0.5318
  911MOL0     H22931   3.272   2.579   3.465  0.5461  0.7267 -0.1237
  911MOL0     H22932   3.305   2.758   3.271  1.9835  0.9481 -1.8153
  911MOL0     H22933   3.471   2.715   3.253  0.4569 -2.0222  0.2478
  911MOL0     H22934   3.330   2.812   3.529  2.0795 -0.3616  3.4968
  911MOL0     H22935   3.503   2.793   3.481  0.0792  0.2836 -0.0769
  911MOL0     H22936   3.606   2.968   3.326 -1.2476 -2.1445  0.4814
  911MOL0     H22937   3.450   3.285   3.150 -3.5773 -2.0535 -0.1518
  911MOL0     H22938   3.604   3.240   3.235  1.2909 -1.0441  0.4307
  911MOL0     H22939   3.659   3.091   3.035 -1.0166 -0.7778  1.1508
  911MOL0     H22940   3.496   3.102   2.980  0.8326 -1.1266  1.5121
  911MOL0     H22941   3.728   3.303   2.984 -0.7099  0.2643  3.6993
  911MOL0     H22942   3.562   3.376   2.994 -1.6957 -0.9827  0.9364
  911MOL0     H22943   3.506   3.283   2.771 -0.5872 -2.8704  0.6983
  911MOL0     H22944   3.649   3.191   2.771 -0.5396  0.8563 -1.3802
  911MOL0     H22945   3.816   3.535   2.639  0.3362 -0.5152  0.0201
  911MOL0     H22946   3.803   3.599   2.384  0.4600 -0.4460 -2.5559
  911MOL0     H22947   3.509   3.693   1.961 -0.5309  2.3366 -2.9337
  911MOL0     H22948   3.543   3.718   1.732 -1.5658 -2.4899  0.2471
  911MOL0     H22949   3.607   3.646   1.535  1.2255 -1.3420  0.1530
  911MOL0     H22950   3.653   3.809   1.492 -0.4687 -0.2611 -2.9691
  911MOL0     H22951   3.654   3.642   1.294 -2.9535  0.4901  3.8717
  911MOL0     H22952   3.819   3.684   1.311  1.2692 -1.4378  0.2518
  911MOL0     H22953   3.711   3.435   1.449  0.4757  2.1610  0.4597
  911MOL0     H22954   3.776   3.451   1.280  0.9067  1.0632 -1.7202
  911MOL0     H22955   3.925   3.506   1.540  0.7853  2.8799 -0.0798
  911MOL0     H22956   3.989   3.558   1.391  0.6392 -1.3253  0.6526
  911MOL0     H22957   3.921   3.281   1.497  2.1936 -2.2538 -0.3327
  911MOL0     H22958   4.084   3.329   1.465  0.3093 -4.1109  0.3685
  911MOL0     H22959   4.026   3.178   1.299 -1.6106 -0.5595 -0.4161
  911MOL0     H22960   3.877   3.267   1.250  1.3073  0.6064 -3.5083
  911MOL0     H22961   4.152   3.378   1.239  0.9917 -4.1936  0.2920
  911MOL0     H22962   3.996   3.451   1.177 -1.1587 -0.5056 -1.0206
  911MOL0     H22963   3.956   3.269   1.041  0.1305  1.2989 -0.7716
  911MOL0     H22964   4.089   3.361   0.986 -2.6441  0.3867 -0.6470
  911MOL0     H22965   3.971   3.679   1.782  0.7597 -0.9986  0.4741
  911MOL0     H22966   3.948   3.641   2.011  0.6415  1.4938 -1.1703
  911MOL0     H22967   3.434   3.402   2.360 -0.0312  4.5741 -1.2831
  911MOL0     H22968   3.453   3.330   2.590 -0.2082  1.3935  1.4995
  911MOL0     H22969   3.817   2.020   3.946 -1.0328  1.9318 -0.9859
  911MOL0     H22970   4.058   1.928   3.994  3.8100  0.7710 -1.5528
  911MOL0     H22971   4.413   1.738   3.678  1.1676 -1.5353  0.4986
  911MOL0     H22972   4.637   1.636   3.646 -3.7597 -3.1439  1.5370
  911MOL0     H22973   5.042   1.638   3.819 -0.1836  0.1148  0.5334
  911MOL0     H22974   4.959   1.738   3.941 -1.8010 -1.5736  0.3373
  911MOL0     H22975   4.933   1.906   3.750 -1.2766 -1.4214 -0.8660
  911MOL0     H22976   5.047   1.814   3.652 -0.5439  0.1740 -1.1691
  911MOL0     H22977   5.232   1.852   3.809 -2.7217 -1.8418 -3.3717
  911MOL0     H22978   5.120   1.895   3.947 -0.1578 -0.4737 -0.0191
  911MOL0     H22979   5.270   2.061   3.807  0.8389 -0.8366 -1.0039
  911MOL0     H22980   5.125   2.065   3.701  1.0453 -0.7611 -0.5219
  911MOL0     H22981   4.989   2.323   3.978  1.5839 -0.0302  1.1174
  911MOL0     H22982   4.774   1.847   3.977  0.7151 -1.9271 -1.0846
  911MOL0     H22983   4.673   2.019   4.084  0.2275  1.2968  2.4004
  911MOL0     H22984   4.509   2.059   4.061  1.5520  0.0274  0.0529
  911MOL0     H22985   4.545   1.926   4.165 -0.6119 -0.4834 -0.4433
  912MOL0     O22986   8.149   2.015   3.933  0.3093  0.5976 -0.1383
  912MOL0     C22987   8.114   2.129   3.931 -0.2020  0.9268  0.4612
  912MOL0     O22988   8.145   2.220   4.019 -0.7021 -1.2815  0.3554
  912MOL0     C22989   8.190   2.182   4.145  0.8987  0.3669  0.7664
  912MOL0     C22990   8.329   2.177   4.180  1.1850 -0.3054 -1.1429
  912MOL0     C22991   8.369   2.152   4.312 -0.8771  0.5891  0.9926
  912MOL0     C22992   8.273   2.116   4.409 -0.1998 -0.1428  0.2752
  912MOL0     O22993   8.304   2.118   4.545 -0.6338 -0.7593 -0.1863
  912MOL0     C22994   8.437   2.089   4.581  0.1926 -0.5168 -0.3400
  912MOL0     C22995   8.460   2.113   4.722  0.0362 -0.0065  0.0503
  912MOL0     C22996   8.406   2.248   4.778 -0.0617 -1.0154  0.3452
  912MOL0     C22997   8.430   2.253   4.933 -0.9114 -0.1879  0.1754
  912MOL0     C22998   8.396   2.391   4.994 -0.3164 -0.8550 -0.0628
  912MOL0     C22999   8.454   2.506   4.913  0.1181 -0.7296  0.5577
  912MOL0     C23000   8.436   2.642   4.996  0.2675 -0.6519  0.4886
  912MOL0     C23001   8.336   2.736   4.938 -0.2344  0.0207  0.7866
  912MOL0     N23002   8.271   2.827   5.031 -0.0739  0.0566 -0.2430
  912MOL0     C23003   8.206   2.795   5.152 -0.1950  0.0868  0.3319
  912MOL0     C23004   8.158   2.908   5.212  0.6312  0.2728 -0.0955
  912MOL0     C23005   8.054   2.905   5.323 -0.2052 -0.2815 -0.4031
  912MOL0     C23006   8.088   2.960   5.462  0.4360  0.1240  0.4059
  912MOL0     C23007   7.965   2.933   5.558 -0.3802 -0.5690  0.9369
  912MOL0     C23008   7.996   2.966   5.701 -0.3111  0.3010  0.5597
  912MOL0     O23009   8.032   3.107   5.733 -0.0054 -0.4282 -0.1038
  912MOL0     C23010   8.025   3.148   5.863 -0.3589 -0.2802  0.0893
  912MOL0     C23011   8.047   3.065   5.968  0.3125 -0.7769 -0.3550
  912MOL0     C23012   8.044   3.135   6.091  0.2143  0.2740 -0.7628
  912MOL0     C23013   8.034   3.275   6.111  0.0536  0.0984 -0.0601
  912MOL0     C23014   8.014   3.332   6.239 -1.1393 -0.2403 -0.5057
  912MOL0     O23015   8.034   3.469   6.239  0.1494 -0.4210 -0.2690
  912MOL0     C23016   8.025   3.542   6.364 -0.0547 -0.2657 -0.5421
  912MOL0     C23017   8.052   3.499   6.493  0.1758  0.1361 -0.7955
  912MOL0     C23018   8.014   3.571   6.607  0.1287 -0.0925 -0.3289
  912MOL0     C23019   7.953   3.699   6.597 -0.4826  0.2171 -0.0048
  912MOL0     O23020   7.912   3.760   6.706  0.1877 -0.4869  0.9856
  912MOL0     C23021   7.872   3.898   6.685 -0.4120 -0.5422 -0.5642
  912MOL0     C23022   7.877   3.969   6.817 -0.5568  0.8075 -0.5659
  912MOL0     C23023   7.748   4.048   6.848 -0.5183 -0.6470 -0.3571
  912MOL0     C23024   7.753   4.136   6.972  0.0838 -0.5500  0.5033
  912MOL0     C23025   7.635   4.237   6.966 -0.0497  1.0517  0.1842
  912MOL0     C23026   7.649   4.367   7.047  0.4715  0.0464 -0.0803
  912MOL0     C23027   7.733   4.468   6.985  0.4250  0.3943  1.2039
  912MOL0     C23028   7.724   4.591   7.070 -1.1595  0.4599  0.2603
  912MOL0    Cl23029   7.824   4.702   7.000 -0.2626 -0.1319  0.5389
  912MOL0     C23030   7.929   3.747   6.462  0.1805  1.0970 -0.1755
  912MOL0     C23031   7.964   3.667   6.354  0.4870  0.0373  0.5473
  912MOL0     O23032   7.974   3.262   6.337 -0.3068 -0.0327 -0.8338
  912MOL0     C23033   8.013   3.347   5.998 -0.0421 -0.0329  0.0744
  912MOL0     C23034   8.007   3.284   5.873  0.1439 -0.6312  0.9376
  912MOL0     N23035   8.189   3.009   5.117  0.2250  0.0489 -0.2275
  912MOL0     N23036   8.253   2.958   5.012  0.3782 -0.3702  0.0013
  912MOL0     C23037   8.136   2.128   4.375  0.0384 -0.1510 -0.1506
  912MOL0     C23038   8.096   2.159   4.250 -0.8884  0.0476  0.2645
  912MOL0     C23039   8.039   2.166   3.809  1.0683  0.0224 -0.3526
  912MOL0     C23040   7.939   2.078   3.754 -0.2315  0.5416 -0.0308
  912MOL0     C23041   7.844   2.120   3.661 -0.2584 -0.5046  0.3352
  912MOL0     C23042   7.851   2.257   3.609 -0.4954  0.1181  0.9813
  912MOL0     O23043   7.778   2.305   3.507 -1.0966 -0.1529  0.0932
  912MOL0     C23044   7.641   2.260   3.505  0.3900 -0.7053  0.9754
  912MOL0     C23045   7.567   2.349   3.403  0.4879 -0.1231 -0.6319
  912MOL0     C23046   7.594   2.498   3.422 -0.5390 -0.0514  0.1671
  912MOL0     C23047   7.498   2.579   3.496 -0.0605 -0.0286 -0.1845
  912MOL0     C23048   7.494   2.531   3.630 -0.1258 -0.4182 -0.3802
  912MOL0     C23049   7.486   2.504   3.757  0.2992  0.4252  0.7942
  912MOL0     C23050   7.960   2.339   3.643 -0.7674  0.5927  0.5642
  912MOL0     C23051   8.046   2.301   3.746  0.1396  0.5495  0.2518
  912MOL0     C23052   8.151   2.393   3.795  0.7255 -0.0283 -0.2536
  912MOL0     H23053   8.402   2.198   4.102  0.5005 -0.5960 -1.8858
  912MOL0     H23054   8.474   2.145   4.338  0.1913 -1.0205 -2.8795
  912MOL0     H23055   8.434   1.981   4.561 -0.7376 -0.5321 -0.1831
  912MOL0     H23056   8.518   2.137   4.525  0.1584  0.8547  0.7306
  912MOL0     H23057   8.566   2.112   4.746 -0.0271  0.9029  0.3936
  912MOL0     H23058   8.418   2.025   4.773  2.3662 -0.0433  2.0654
  912MOL0     H23059   8.299   2.272   4.768  0.5025  1.0127 -1.6052
  912MOL0     H23060   8.463   2.326   4.726 -0.6794  0.9136  2.3726
  912MOL0     H23061   8.364   2.188   4.992 -0.0306  0.9732  2.5915
  912MOL0     H23062   8.533   2.222   4.954 -0.7940  0.9940  1.5455
  912MOL0     H23063   8.288   2.406   5.003 -0.1344  1.0629 -0.5866
  912MOL0     H23064   8.447   2.376   5.090 -0.6550 -2.5683 -0.1307
  912MOL0     H23065   8.561   2.497   4.889 -0.3430 -1.2942 -1.4822
  912MOL0     H23066   8.391   2.525   4.826 -1.5557 -3.0517  1.1821
  912MOL0     H23067   8.530   2.698   5.005  1.0210 -1.9386  0.7729
  912MOL0     H23068   8.414   2.605   5.096  0.2181 -0.6009  0.4962
  912MOL0     H23069   8.381   2.777   4.847 -3.2393 -2.6356 -2.1630
  912MOL0     H23070   8.251   2.684   4.893 -0.2975  0.0716  0.8469
  912MOL0     H23071   8.192   2.692   5.184 -1.7903 -0.0699 -0.7338
  912MOL0     H23072   7.962   2.955   5.291 -1.5958 -1.4247  1.5805
  912MOL0     H23073   8.029   2.798   5.329 -3.7269  0.5021  2.1713
  912MOL0     H23074   8.182   2.925   5.507  0.3820  3.9872  4.2066
  912MOL0     H23075   8.105   3.068   5.458  0.9914  0.0078 -0.7830
  912MOL0     H23076   7.931   2.830   5.543  1.5670 -1.2326  0.7544
  912MOL0     H23077   7.885   3.002   5.528  1.6683  2.2569  1.4914
  912MOL0     H23078   8.077   2.897   5.726  0.4128  0.8778 -0.1326
  912MOL0     H23079   7.910   2.932   5.759 -0.8276  1.1851  0.3255
  912MOL0     H23080   8.067   2.959   5.975  0.3346 -0.7620 -0.1668
  912MOL0     H23081   8.057   3.070   6.177 -0.5726  0.1926 -0.7005
  912MOL0     H23082   8.084   3.397   6.506 -0.0414  0.2592  0.9868
  912MOL0     H23083   8.021   3.529   6.706  1.2585  2.6191  0.8240
  912MOL0     H23084   7.932   3.951   6.611 -0.4212  0.0713 -0.1394
  912MOL0     H23085   7.769   3.896   6.647  0.3329  2.2905 -3.1014
  912MOL0     H23086   7.882   3.907   6.907  2.6750 -0.6932 -1.6673
  912MOL0     H23087   7.970   4.025   6.806  0.4722 -1.1674 -2.7092
  912MOL0     H23088   7.720   4.117   6.768 -1.1268 -2.1987 -1.5153
  912MOL0     H23089   7.668   3.976   6.867 -0.6032 -1.1411 -2.4257
  912MOL0     H23090   7.841   4.200   6.965  0.9790 -1.7967  0.0419
  912MOL0     H23091   7.752   4.081   7.067  2.1705 -0.5023  0.5975
  912MOL0     H23092   7.551   4.178   7.005  0.7626 -0.0034  0.3629
  912MOL0     H23093   7.612   4.275   6.865  2.2647  3.3520  0.4322
  912MOL0     H23094   7.546   4.401   7.059  1.1125  1.7954  0.8470
  912MOL0     H23095   7.682   4.348   7.150  0.5969 -2.8595 -0.5698
  912MOL0     H23096   7.700   4.486   6.882 -0.1110 -4.1317  0.3659
  912MOL0     H23097   7.833   4.425   6.974 -0.3309 -1.2891  0.6145
  912MOL0     H23098   7.625   4.637   7.080 -2.8144 -3.0531  1.7247
  912MOL0     H23099   7.767   4.557   7.165  0.8832  1.4963 -0.2231
  912MOL0     H23100   7.881   3.841   6.440 -3.3259 -0.0207  1.8327
  912MOL0     H23101   7.970   3.711   6.255  1.0765 -1.7438 -0.2577
  912MOL0     H23102   7.995   3.454   5.991  1.0616  0.1352 -0.4350
  912MOL0     H23103   7.986   3.332   5.779  1.8935 -2.7989 -0.6892
  912MOL0     H23104   8.059   2.102   4.447  1.3733  0.2444  1.4830
  912MOL0     H23105   7.990   2.180   4.236 -0.9751 -0.6387 -0.1250
  912MOL0     H23106   7.915   1.981   3.795  1.1214  1.1983  2.5714
  912MOL0     H23107   7.763   2.048   3.651  1.3658 -2.6208  1.5694
  912MOL0     H23108   7.596   2.276   3.603 -0.7161 -0.4669  0.4477
  912MOL0     H23109   7.638   2.151   3.495  2.1933 -0.6086 -1.9967
  912MOL0     H23110   7.461   2.328   3.419  0.8735  0.4156  3.5841
  912MOL0     H23111   7.598   2.321   3.302  1.2405 -2.2773  0.1460
  912MOL0     H23112   7.581   2.539   3.321 -0.2308 -0.0947  0.1104
  912MOL0     H23113   7.691   2.529   3.461 -1.1457  2.5691 -0.1756
  912MOL0     H23114   7.519   2.686   3.489  0.6724 -0.2861 -3.7447
  912MOL0     H23115   7.396   2.571   3.458 -0.1381  2.1894 -0.5785
  912MOL0     H23116   7.478   2.483   3.862  2.2321  2.7073  1.5045
  912MOL0     H23117   7.964   2.439   3.600  0.4522 -1.0105 -3.5981
  912MOL0     H23118   8.112   2.459   3.873 -0.4582 -0.1505 -0.7215
  912MOL0     H23119   8.237   2.338   3.834 -1.7501 -3.6186  0.6083
  912MOL0     H23120   8.187   2.450   3.708 -1.1105 -1.7820 -2.2863
  913MOL0     O23121  10.864   8.135  10.270 -0.5696 -0.1560  0.1251
  913MOL0     C23122  10.963   8.076  10.240  0.5434 -0.6606  0.6290
  913MOL0     O23123  11.080   8.098  10.294 -0.1477 -0.1518  0.0171
  913MOL0     C23124  11.088   8.158  10.420  0.3227  0.1733 -0.4075
  913MOL0     C23125  11.114   8.298  10.438 -0.0203  0.2205 -0.1420
  913MOL0     C23126  11.113   8.350  10.565 -0.1918 -0.3660 -0.9276
  913MOL0     C23127  11.106   8.260  10.675 -1.2045 -0.2623 -0.0886
  913MOL0     O23128  11.140   8.308  10.797  0.3554  0.0442  0.1549
  913MOL0     C23129  11.066   8.424  10.844  0.2748 -0.5395 -1.0226
  913MOL0     C23130  11.171   8.536  10.838 -0.3353  0.1397  1.0321
  913MOL0     C23131  11.118   8.652  10.919 -0.4572 -0.4927 -0.3230
  913MOL0     C23132  11.004   8.729  10.845  0.6298  1.3821 -0.7629
  913MOL0     C23133  10.971   8.860  10.911  0.2884 -0.2810 -1.1112
  913MOL0     C23134  10.860   8.943  10.851  0.9071  0.0630 -0.8011
  913MOL0     C23135  10.881   8.989  10.711 -0.4509  0.1343 -0.0918
  913MOL0     C23136  10.792   9.114  10.683 -0.2501  0.5409  1.0365
  913MOL0     N23137  10.803   9.172  10.548  0.3990  0.1789  0.1610
  913MOL0     C23138  10.894   9.263  10.506 -0.9132  0.1939 -0.8210
  913MOL0     C23139  10.884   9.276  10.368  0.4691  0.9806 -0.8189
  913MOL0     C23140  10.969   9.352  10.272 -0.0646  0.6182  0.3486
  913MOL0     C23141  11.087   9.427  10.339 -1.2706 -0.5069 -0.0716
  913MOL0     C23142  11.208   9.329  10.388 -0.4400  0.0474  0.2677
  913MOL0     C23143  11.339   9.406  10.367 -0.5733 -0.0215 -0.5360
  913MOL0     O23144  11.345   9.518  10.468 -0.0171 -0.7211  0.3370
  913MOL0     C23145  11.480   9.573  10.469 -0.1783  0.0640  0.3218
  913MOL0     C23146  11.504   9.695  10.401 -0.1993  0.3482 -0.1968
  913MOL0     C23147  11.627   9.751  10.419 -0.0404 -0.2714  0.3045
  913MOL0     C23148  11.732   9.701  10.502 -1.0224 -0.3366  0.5591
  913MOL0     C23149  11.864   9.766  10.501 -0.5246  0.3932 -0.1367
  913MOL0     O23150  11.970   9.687  10.543 -0.4144  0.0078 -0.0939
  913MOL0     C23151  12.093   9.742  10.593  0.8605  0.6768  0.1897
  913MOL0     C23152  12.103   9.849  10.683  0.6705  0.6074 -0.1760
  913MOL0     C23153  12.225   9.892  10.732  0.3619  0.9807 -0.2720
  913MOL0     C23154  12.338   9.834  10.679 -0.0803 -0.2007 -0.4340
  913MOL0     O23155  12.456   9.901  10.713 -0.6951 -0.0920 -0.0869
  913MOL0     C23156  12.574   9.826  10.734 -0.3500  0.1101 -0.1893
  913MOL0     C23157  12.547   9.732  10.862 -1.1798  1.6466 -0.4909
  913MOL0     C23158  12.670   9.653  10.884 -0.0098 -0.2913 -0.4317
  913MOL0     C23159  12.783   9.729  10.965  0.4177  0.1980  0.9844
  913MOL0     C23160  12.911   9.663  10.993  0.2469 -0.3985  0.0593
  913MOL0     C23161  12.910   9.534  11.067 -0.8596  0.2474  0.1105
  913MOL0     C23162  13.058   9.491  11.107  1.2414 -0.8169 -0.0059
  913MOL0     C23163  13.053   9.351  11.156 -0.2490  0.1622  0.3330
  913MOL0    Cl23164  12.993   9.234  11.029 -0.4894 -0.2417  0.1244
  913MOL0     C23165  12.328   9.714  10.595 -0.0382 -0.2547  0.1493
  913MOL0     C23166  12.203   9.678  10.552 -0.0566  0.9513  0.5935
  913MOL0     O23167  11.866   9.887  10.487  0.6323 -1.2435 -1.4868
  913MOL0     C23168  11.699   9.580  10.561 -1.2404 -0.1302  0.2948
  913MOL0     C23169  11.581   9.512  10.542 -0.5004  0.3493  0.3385
  913MOL0     N23170  10.782   9.186  10.324 -0.0365 -0.6667 -0.4452
  913MOL0     N23171  10.740   9.127  10.430  0.2751 -0.0089 -0.2791
  913MOL0     C23172  11.076   8.128  10.666 -1.0034  0.0948  1.1354
  913MOL0     C23173  11.067   8.074  10.532  0.6647 -0.3134 -0.3177
  913MOL0     C23174  10.962   7.988  10.121  0.3311  0.1589 -0.6157
  913MOL0     C23175  11.084   7.925  10.093  0.0461  0.4010 -0.5235
  913MOL0     C23176  11.094   7.834   9.995  1.0810 -0.4281 -1.2986
  913MOL0     C23177  10.995   7.815   9.905 -0.6406  1.0404  1.2859
  913MOL0     O23178  11.023   7.738   9.796 -0.0182 -0.1328 -0.2793
  913MOL0     C23179  10.925   7.704   9.697  0.9371 -0.6486  0.0932
  913MOL0     C23180  10.947   7.566   9.639 -0.6902 -0.5914  0.4332
  913MOL0     C23181  11.083   7.551   9.567  0.0084 -0.1489  0.4874
  913MOL0     C23182  11.110   7.424   9.488  0.1424 -0.3843 -0.6617
  913MOL0     C23183  11.078   7.448   9.348 -0.5089 -0.0798  0.1836
  913MOL0     C23184  11.038   7.465   9.233  0.4215  0.0578 -0.3262
  913MOL0     C23185  10.872   7.876   9.917 -0.2807 -1.2920 -1.2729
  913MOL0     C23186  10.858   7.964  10.027 -0.2462  0.1450  0.3879
  913MOL0     C23187  10.728   8.039  10.029  0.4453 -0.6514 -0.1677
  913MOL0     H23188  11.127   8.354  10.346 -5.7963  2.7542  0.1229
  913MOL0     H23189  11.124   8.457  10.583  1.1231 -1.0304  3.3222
  913MOL0     H23190  10.976   8.461  10.796 -0.0829  1.9133  1.2784
  913MOL0     H23191  11.032   8.396  10.944  2.5737 -1.3425 -0.3942
  913MOL0     H23192  11.182   8.573  10.736 -1.1694  3.9246  2.1577
  913MOL0     H23193  11.271   8.503  10.868 -0.7698 -1.2241  1.0796
  913MOL0     H23194  11.203   8.719  10.939 -1.3557  0.8776 -0.9407
  913MOL0     H23195  11.086   8.622  11.019 -1.6465  0.7145 -0.3229
  913MOL0     H23196  11.036   8.742  10.741  0.7585  0.6137 -0.8266
  913MOL0     H23197  10.916   8.664  10.847  1.7566 -0.5253 -4.2619
  913MOL0     H23198  10.946   8.840  11.016  2.2827  1.0489 -0.3138
  913MOL0     H23199  11.058   8.925  10.924 -1.8503  2.7255 -0.7390
  913MOL0     H23200  10.770   8.881  10.859 -0.0262  1.4626  0.0719
  913MOL0     H23201  10.851   9.037  10.905 -1.8554 -0.0411 -0.8958
  913MOL0     H23202  10.860   8.904  10.645 -1.8651  0.0501  0.4337
  913MOL0     H23203  10.988   9.010  10.707 -0.1283 -0.8594  2.0062
  913MOL0     H23204  10.688   9.078  10.674 -0.8109  2.3737 -0.5553
  913MOL0     H23205  10.800   9.188  10.762  3.2793 -2.1922  3.5560
  913MOL0     H23206  10.975   9.306  10.565 -1.8284 -0.3724  0.9178
  913MOL0     H23207  11.014   9.278  10.206  0.6184  0.8360  0.5531
  913MOL0     H23208  10.905   9.426  10.224 -2.0212 -0.5134  1.0994
  913MOL0     H23209  11.138   9.492  10.267  1.4006 -2.5600 -0.1702
  913MOL0     H23210  11.054   9.486  10.425  1.5595 -1.0085  1.4934
  913MOL0     H23211  11.213   9.241  10.324  0.8240  0.4366 -0.2100
  913MOL0     H23212  11.198   9.298  10.493 -2.4323  0.2010  0.1593
  913MOL0     H23213  11.362   9.430  10.263 -0.0247 -3.3441 -1.3214
  913MOL0     H23214  11.421   9.342  10.401  1.3851  3.3077  1.5313
  913MOL0     H23215  11.424   9.732  10.338 -1.9173 -2.8954 -0.1804
  913MOL0     H23216  11.646   9.836  10.355 -1.9281 -0.6256 -0.8048
  913MOL0     H23217  12.014   9.900  10.719  0.8352  0.7710 -0.0025
  913MOL0     H23218  12.235   9.977  10.798 -0.5864 -0.8312  2.3518
  913MOL0     H23219  12.598   9.762  10.649 -0.5774  3.1046 -2.6783
  913MOL0     H23220  12.659   9.893  10.750 -0.2154  0.5111 -2.3062
  913MOL0     H23221  12.517   9.794  10.947 -2.9686 -0.3477  0.4280
  913MOL0     H23222  12.475   9.653  10.838  1.5430 -0.9342 -0.6871
  913MOL0     H23223  12.648   9.562  10.940  1.6850 -2.2662 -2.7135
  913MOL0     H23224  12.712   9.610  10.792 -0.0238 -0.8419 -0.1883
  913MOL0     H23225  12.736   9.776  11.052  0.9696  1.4174  0.6416
  913MOL0     H23226  12.806   9.811  10.896 -0.1904 -0.2608  0.2119
  913MOL0     H23227  12.965   9.733  11.058 -2.2754  0.7790  1.0198
  913MOL0     H23228  12.963   9.648  10.898  0.6162 -2.8359  0.5823
  913MOL0     H23229  12.844   9.545  11.154 -2.1855 -1.7340 -0.5890
  913MOL0     H23230  12.861   9.460  11.004  0.4236  1.5332 -2.5298
  913MOL0     H23231  13.088   9.546  11.196  3.0214 -0.1114 -1.0131
  913MOL0     H23232  13.120   9.514  11.021  0.7504  2.5258  0.4193
  913MOL0     H23233  13.150   9.317  11.195 -0.5827  1.0855  2.0327
  913MOL0     H23234  12.978   9.351  11.235  2.3730  4.2870  3.2528
  913MOL0     H23235  12.418   9.661  10.567  1.3324  2.1389 -0.2641
  913MOL0     H23236  12.187   9.594  10.485  2.2627  0.2568  0.8118
  913MOL0     H23237  11.769   9.546  10.637  0.4928  2.6192  0.0988
  913MOL0     H23238  11.546   9.416  10.578 -2.5287  0.4329 -1.2303
  913MOL0     H23239  11.061   8.054  10.744 -0.3154 -2.0859 -0.6836
  913MOL0     H23240  11.048   7.969  10.511  2.6594 -0.6152 -0.7354
  913MOL0     H23241  11.171   7.924  10.157 -0.2171 -0.2122 -0.1596
  913MOL0     H23242  11.190   7.783   9.988  1.9523  0.6746  1.2165
  913MOL0     H23243  10.929   7.769   9.609  0.2426 -1.5247 -0.6056
  913MOL0     H23244  10.819   7.706   9.725  1.3300 -0.8140  1.6617
  913MOL0     H23245  10.870   7.547   9.563  0.3241 -1.3043 -0.4591
  913MOL0     H23246  10.945   7.484   9.712  4.1435  2.3029  4.3955
  913MOL0     H23247  11.166   7.568   9.637  0.3124  2.8708 -0.4721
  913MOL0     H23248  11.096   7.638   9.502  1.4273 -0.0461  0.8713
  913MOL0     H23249  11.209   7.379   9.495 -0.3425 -1.7180 -1.9994
  913MOL0     H23250  11.038   7.347   9.515  1.5146 -0.4664  3.4967
  913MOL0     H23251  10.990   7.472   9.138  1.5317 -0.0644 -0.9181
  913MOL0     H23252  10.796   7.856   9.842 -3.4762 -1.5144  1.7637
  913MOL0     H23253  10.671   8.026  10.121 -1.3341  2.5816 -0.6390
  913MOL0     H23254  10.738   8.148  10.016 -2.3910 -0.0532  1.8037
  913MOL0     H23255  10.652   8.008   9.956  1.2935  1.1726 -1.9294
  914MOL0     O23256   2.090   1.170   2.466 -0.1086  0.0792 -0.7675
  914MOL0     C23257   2.212   1.180   2.463  0.7772  1.6650  0.7809
  914MOL0     O23258   2.283   1.255   2.365 -0.8610  0.0238 -0.3357
  914MOL0     C23259   2.216   1.342   2.284 -0.2278 -0.2177  0.5102
  914MOL0     C23260   2.116   1.438   2.316  0.0362  0.6058  0.2203
  914MOL0     C23261   2.047   1.505   2.217 -0.8855 -0.0052  0.7023
  914MOL0     C23262   2.085   1.496   2.082 -0.0370  0.5621  0.5693
  914MOL0     O23263   2.012   1.559   1.987 -0.1559  0.4761 -0.1793
  914MOL0     C23264   2.064   1.564   1.853 -0.6016 -0.3437  1.5643
  914MOL0     C23265   2.025   1.704   1.793  0.0315 -0.2470 -0.8398
  914MOL0     C23266   1.875   1.718   1.755  0.6780  0.1468 -0.0177
  914MOL0     C23267   1.779   1.763   1.876 -0.1392  0.0466 -0.6217
  914MOL0     C23268   1.649   1.781   1.808  0.1790 -0.7090  0.2160
  914MOL0     C23269   1.545   1.884   1.881 -0.8776 -0.0482 -0.0735
  914MOL0     C23270   1.533   1.864   2.033 -0.0846  0.5728  0.7083
  914MOL0     C23271   1.431   1.951   2.107  0.0348 -0.3253 -1.2303
  914MOL0     N23272   1.287   1.916   2.084 -0.2532  0.5580  0.1274
  914MOL0     C23273   1.221   1.801   2.024 -0.0222  0.0520 -1.2112
  914MOL0     C23274   1.087   1.832   2.013  0.7654  0.4687 -0.6893
  914MOL0     C23275   0.968   1.758   1.956 -0.1667 -0.9490 -0.4066
  914MOL0     C23276   0.954   1.807   1.817  0.6546  0.8711  0.2865
  914MOL0     C23277   0.800   1.806   1.786 -0.2135  0.0021  0.2726
  914MOL0     C23278   0.762   1.828   1.631 -1.1185 -0.5131  0.3157
  914MOL0     O23279   0.784   1.968   1.591 -0.0182 -0.2065 -0.6105
  914MOL0     C23280   0.859   2.000   1.482 -0.4528  0.7840  0.1810
  914MOL0     C23281   0.842   2.130   1.425  0.6187 -0.3632 -0.1565
  914MOL0     C23282   0.894   2.167   1.307  0.4408 -0.3286  0.1448
  914MOL0     C23283   0.987   2.081   1.245 -0.2772 -0.1295  0.2546
  914MOL0     C23284   1.076   2.120   1.129 -0.7696  0.3128 -0.4387
  914MOL0     O23285   1.101   2.254   1.108  0.7569 -0.4005  0.1214
  914MOL0     C23286   1.151   2.295   0.988 -0.3570 -0.5762 -0.8659
  914MOL0     C23287   1.112   2.234   0.870 -0.0861  0.4970 -0.6632
  914MOL0     C23288   1.180   2.274   0.752  0.1985 -0.5118  0.4175
  914MOL0     C23289   1.283   2.371   0.758 -0.7894  0.2609  0.7182
  914MOL0     O23290   1.362   2.398   0.648 -0.0800  0.1298  1.0018
  914MOL0     C23291   1.348   2.339   0.515 -0.0910 -0.6133 -0.1811
  914MOL0     C23292   1.408   2.196   0.509 -0.1402  0.1234  0.4128
  914MOL0     C23293   1.423   2.144   0.362 -0.3780  0.2367 -0.1575
  914MOL0     C23294   1.518   2.019   0.351  0.1855  0.1944  0.3851
  914MOL0     C23295   1.537   1.978   0.201  0.1229 -0.7296 -0.3012
  914MOL0     C23296   1.434   1.879   0.160 -0.1249 -0.0703  0.5214
  914MOL0     C23297   1.446   1.827   0.020 -0.3297 -0.1520 -0.6364
  914MOL0     C23298   1.400   1.681  -0.005 -0.6001 -0.9311 -0.5526
  914MOL0    Cl23299   1.401   1.631  -0.180  0.1465  0.0091 -0.1638
  914MOL0     C23300   1.334   2.407   0.875 -0.1511 -0.3776  0.5268
  914MOL0     C23301   1.265   2.387   0.989  0.0087  1.4294  0.1031
  914MOL0     O23302   1.126   2.030   1.063 -0.0043  0.2331  0.1975
  914MOL0     C23303   1.018   1.967   1.321  0.0368  0.6464 -0.5895
  914MOL0     C23304   0.952   1.915   1.428 -0.1090 -0.9830 -0.6808
  914MOL0     N23305   1.072   1.949   2.077 -0.6448 -0.1856  0.2562
  914MOL0     N23306   1.187   2.003   2.112 -0.4775  0.8784  0.3101
  914MOL0     C23307   2.188   1.403   2.054  0.0266  0.7536 -0.2992
  914MOL0     C23308   2.245   1.324   2.159 -0.6852 -0.2533  0.5656
  914MOL0     C23309   2.291   1.102   2.564 -0.0596 -0.3383 -0.0088
  914MOL0     C23310   2.431   1.092   2.539 -0.2611  0.0462  0.2499
  914MOL0     C23311   2.524   1.035   2.626 -0.2769  0.2398  0.4748
  914MOL0     C23312   2.479   0.966   2.737 -0.7502  0.6438  0.7129
  914MOL0     O23313   2.577   0.924   2.819 -0.1435 -0.2288  0.3646
  914MOL0     C23314   2.626   0.795   2.796 -0.0572  0.5834  0.4818
  914MOL0     C23315   2.765   0.777   2.861 -0.3509 -0.6649 -0.0203
  914MOL0     C23316   2.741   0.747   3.012 -0.5954 -1.4179 -0.1135
  914MOL0     C23317   2.877   0.720   3.092 -1.6498 -1.2003 -0.4929
  914MOL0     C23318   2.957   0.840   3.102  0.2960 -0.1459  0.1304
  914MOL0     C23319   3.041   0.934   3.110  0.6816 -0.9667  0.4196
  914MOL0     C23320   2.341   0.952   2.759 -0.0990 -0.6229 -1.1846
  914MOL0     C23321   2.251   1.019   2.674  0.1837  0.0114 -0.2278
  914MOL0     C23322   2.105   0.999   2.692 -0.8407 -1.3438  0.1022
  914MOL0     H23323   2.067   1.430   2.413  1.5691 -1.7008  0.8935
  914MOL0     H23324   1.958   1.564   2.238  1.0450  4.3500 -1.8722
  914MOL0     H23325   2.173   1.556   1.848 -0.6629 -0.6241 -0.1040
  914MOL0     H23326   2.030   1.485   1.786 -1.0551  1.1140 -0.0091
  914MOL0     H23327   2.074   1.708   1.695 -0.2238 -0.6316 -0.9868
  914MOL0     H23328   2.069   1.789   1.847 -0.9977 -0.1038 -0.1911
  914MOL0     H23329   1.843   1.625   1.707  3.5701  0.2241 -2.3802
  914MOL0     H23330   1.859   1.799   1.683 -0.2406  2.5636  2.7040
  914MOL0     H23331   1.780   1.681   1.949 -0.7405 -1.2995 -2.0705
  914MOL0     H23332   1.812   1.860   1.913  1.1290  0.1963 -2.0412
  914MOL0     H23333   1.667   1.821   1.708 -1.8669  0.0015  0.0948
  914MOL0     H23334   1.603   1.683   1.797 -1.8047  0.0336  1.4880
  914MOL0     H23335   1.593   1.982   1.870  1.4018 -1.0783  0.1954
  914MOL0     H23336   1.447   1.883   1.832 -3.0312 -3.9411  3.6880
  914MOL0     H23337   1.634   1.890   2.067  0.4403 -0.0325 -0.3239
  914MOL0     H23338   1.508   1.760   2.056 -1.0582 -0.2224 -3.2142
  914MOL0     H23339   1.452   1.948   2.214  2.0372  0.8786 -1.5430
  914MOL0     H23340   1.441   2.057   2.083  0.1142 -0.2099 -0.6971
  914MOL0     H23341   1.266   1.706   1.996 -3.5121 -2.5032  0.9567
  914MOL0     H23342   0.972   1.649   1.955  0.5673 -0.9558  0.7932
  914MOL0     H23343   0.879   1.782   2.016  2.2909  0.4821  3.0075
  914MOL0     H23344   0.980   1.913   1.810 -0.5577  1.2749  1.3710
  914MOL0     H23345   1.015   1.746   1.750 -1.2126  0.3830 -1.0520
  914MOL0     H23346   0.750   1.884   1.843 -1.6136  1.0551 -2.2309
  914MOL0     H23347   0.770   1.704   1.812 -0.8199 -0.4122 -1.8267
  914MOL0     H23348   0.654   1.811   1.637 -1.1511 -0.0359  1.2844
  914MOL0     H23349   0.811   1.759   1.561 -2.4219 -1.3945  0.2529
  914MOL0     H23350   0.759   2.186   1.467  0.5940 -1.0629  0.7330
  914MOL0     H23351   0.846   2.252   1.259 -1.2596 -2.1049 -1.4611
  914MOL0     H23352   1.039   2.154   0.878 -1.5721  1.8995  0.8844
  914MOL0     H23353   1.136   2.234   0.660 -0.5297  0.9749  0.0794
  914MOL0     H23354   1.247   2.314   0.482 -1.0465  0.3105  1.8261
  914MOL0     H23355   1.401   2.408   0.448 -3.0760  0.8700 -1.1725
  914MOL0     H23356   1.506   2.192   0.558  0.0546 -0.7146 -0.0346
  914MOL0     H23357   1.341   2.131   0.566 -1.2601  1.6477  0.9180
  914MOL0     H23358   1.322   2.125   0.323 -1.2534  0.6738  1.7947
  914MOL0     H23359   1.469   2.226   0.306 -1.8787  3.1609  2.6161
  914MOL0     H23360   1.490   1.934   0.413  3.0535 -0.1264  1.3743
  914MOL0     H23361   1.614   2.051   0.393 -0.2130  0.9363  0.7494
  914MOL0     H23362   1.636   1.934   0.193  0.2110 -0.8021  0.9191
  914MOL0     H23363   1.532   2.065   0.134 -0.4343 -1.4150 -1.1743
  914MOL0     H23364   1.440   1.794   0.228 -0.1168 -1.2214 -0.8871
  914MOL0     H23365   1.333   1.916   0.180  0.7340  1.9832  1.4126
  914MOL0     H23366   1.551   1.830  -0.008  0.9018 -2.8441  2.8456
  914MOL0     H23367   1.376   1.882  -0.043 -2.0937  0.4371  1.6999
  914MOL0     H23368   1.479   1.627   0.048 -0.7777 -1.4349 -0.7978
  914MOL0     H23369   1.309   1.661   0.052  1.6650 -2.8772  2.7575
  914MOL0     H23370   1.432   2.451   0.862 -0.1037 -1.4262 -6.5685
  914MOL0     H23371   1.298   2.426   1.084 -0.7595  0.7480  0.6590
  914MOL0     H23372   1.101   1.909   1.283  0.2299 -2.9685  4.4207
  914MOL0     H23373   0.974   1.818   1.471  0.8984 -0.5672 -0.2162
  914MOL0     H23374   2.216   1.367   1.956  0.9320  0.5772  0.0121
  914MOL0     H23375   2.321   1.250   2.137 -2.3300 -1.6123 -0.7349
  914MOL0     H23376   2.469   1.120   2.441 -0.9314 -1.9699 -0.6275
  914MOL0     H23377   2.633   1.037   2.616  0.3469 -3.9635  3.4846
  914MOL0     H23378   2.643   0.774   2.690 -1.7148  0.5482  0.1999
  914MOL0     H23379   2.552   0.730   2.843 -3.2497  2.5408 -1.5066
  914MOL0     H23380   2.827   0.865   2.839 -0.3805 -0.6168  0.0883
  914MOL0     H23381   2.807   0.687   2.814 -1.1942 -0.7160 -0.7023
  914MOL0     H23382   2.667   0.667   3.021 -1.2661 -0.7014  1.0519
  914MOL0     H23383   2.694   0.838   3.052 -1.6046 -1.7174 -0.5820
  914MOL0     H23384   2.863   0.686   3.195 -1.9211 -1.2784 -0.5539
  914MOL0     H23385   2.926   0.639   3.037 -0.2797 -1.1471  0.5829
  914MOL0     H23386   3.119   1.003   3.135  0.6884 -0.5630 -0.6513
  914MOL0     H23387   2.312   0.894   2.846  1.7128  0.8125  0.4734
  914MOL0     H23388   2.056   0.966   2.600  2.9831  0.8846 -3.0028
  914MOL0     H23389   2.075   0.928   2.769 -2.3746 -0.1962  0.6155
  914MOL0     H23390   2.070   1.097   2.725 -1.3664 -0.9380 -1.5416
  915MOL0     O23391   4.046   4.654   0.256 -0.0967  0.0745 -0.2353
  915MOL0     C23392   4.085   4.770   0.263  1.1195  0.6513 -0.1187
  915MOL0     O23393   4.060   4.863   0.163 -0.5416 -0.0640  0.1923
  915MOL0     C23394   4.002   4.841   0.046 -0.3599  0.2215 -1.3932
  915MOL0     C23395   4.062   4.762  -0.054 -0.7140  0.3345  0.3921
  915MOL0     C23396   4.001   4.743  -0.184  0.0315 -0.0633 -1.3037
  915MOL0     C23397   3.881   4.807  -0.206  0.1765 -0.4336  0.3496
  915MOL0     O23398   3.816   4.774  -0.328  0.3739 -0.8076 -0.2183
  915MOL0     C23399   3.678   4.723  -0.313 -0.7351 -0.1402 -0.4883
  915MOL0     C23400   3.649   4.614  -0.413 -0.3838 -0.7117  0.3842
  915MOL0     C23401   3.602   4.676  -0.547 -0.7327  0.1382 -0.2868
  915MOL0     C23402   3.457   4.644  -0.596  0.7519  0.0964  0.1179
  915MOL0     C23403   3.418   4.714  -0.725  0.1570  0.2667  0.2695
  915MOL0     C23404   3.512   4.697  -0.841 -0.8242  0.5885  0.2704
  915MOL0     C23405   3.457   4.738  -0.978 -0.3700  0.1833  0.1717
  915MOL0     C23406   3.582   4.726  -1.079 -0.0519  1.0464 -0.7023
  915MOL0     N23407   3.574   4.826  -1.193 -0.5395  0.0362  0.1463
  915MOL0     C23408   3.461   4.855  -1.270 -0.2685  1.0950 -0.0484
  915MOL0     C23409   3.497   4.963  -1.340  0.3122  0.4304 -0.6632
  915MOL0     C23410   3.408   5.059  -1.423  0.2107  0.3557  0.4953
  915MOL0     C23411   3.327   5.155  -1.342  0.1432  0.0439 -0.2468
  915MOL0     C23412   3.406   5.237  -1.247 -0.8803  0.2680 -0.3459
  915MOL0     C23413   3.417   5.171  -1.112  0.8872  0.2785  0.0308
  915MOL0     O23414   3.297   5.201  -1.037  0.3838 -0.6262  0.1912
  915MOL0     C23415   3.295   5.193  -0.901 -0.1684  0.5678  0.1916
  915MOL0     C23416   3.402   5.160  -0.826  0.9893 -0.0644  0.1265
  915MOL0     C23417   3.382   5.140  -0.686 -0.9058  0.6631 -0.1924
  915MOL0     C23418   3.261   5.165  -0.626 -1.3172  0.7503  0.4195
  915MOL0     C23419   3.244   5.163  -0.478  0.2188  0.5846  0.1639
  915MOL0     O23420   3.138   5.218  -0.415 -0.7178 -0.1853  1.0829
  915MOL0     C23421   3.142   5.217  -0.285 -0.7063 -0.3849 -0.5935
  915MOL0     C23422   3.034   5.160  -0.218  0.6580  0.0112  0.5299
  915MOL0     C23423   3.034   5.155  -0.083 -0.1480 -0.5987 -1.5520
  915MOL0     C23424   3.136   5.206   0.003  0.0550  0.2898 -0.1240
  915MOL0     O23425   3.128   5.179   0.137  0.3466 -0.0616  0.1534
  915MOL0     C23426   3.198   5.275   0.221  0.1373 -0.6583  0.2514
  915MOL0     C23427   3.177   5.248   0.366 -0.3113  0.2020 -0.0522
  915MOL0     C23428   3.213   5.373   0.450  0.2555 -0.0703 -0.8504
  915MOL0     C23429   3.165   5.353   0.595  0.3456  0.1394  0.9188
  915MOL0     C23430   3.184   5.466   0.701  0.4444 -0.5686  0.3317
  915MOL0     C23431   3.151   5.601   0.645 -0.1032  0.4733  0.2028
  915MOL0     C23432   3.007   5.606   0.586  0.1021 -0.7988 -0.7642
  915MOL0     C23433   2.967   5.747   0.529 -0.1543 -0.3854  0.2761
  915MOL0    Cl23434   2.796   5.761   0.547 -0.3331  0.4964  0.1543
  915MOL0     C23435   3.239   5.282  -0.062 -0.0402  1.0301 -0.8855
  915MOL0     C23436   3.240   5.280  -0.201 -0.1961  0.0309 -0.1731
  915MOL0     O23437   3.334   5.100  -0.423  0.2927 -0.9895 -0.4411
  915MOL0     C23438   3.156   5.206  -0.703  1.2790 -0.1195 -0.9655
  915MOL0     C23439   3.170   5.209  -0.842  0.4058 -0.6406  0.2317
  915MOL0     N23440   3.628   5.001  -1.302  0.4219  0.2513 -0.1439
  915MOL0     N23441   3.658   4.936  -1.204  0.2534 -0.7640  0.2609
  915MOL0     C23442   3.825   4.892  -0.115  0.1928 -0.9880  0.2125
  915MOL0     C23443   3.887   4.912   0.004 -0.3680 -0.0418 -0.1841
  915MOL0     C23444   4.157   4.810   0.391  0.3515  0.6570  0.2964
  915MOL0     C23445   4.213   4.939   0.394  0.5817 -0.3762  0.0448
  915MOL0     C23446   4.276   4.999   0.504  0.3810  0.3710 -0.4262
  915MOL0     C23447   4.288   4.923   0.620 -0.3463  0.2943 -0.9069
  915MOL0     O23448   4.352   4.962   0.739 -0.5615  0.2320 -0.9315
  915MOL0     C23449   4.412   5.095   0.732  0.3612  0.0778 -0.1396
  915MOL0     C23450   4.456   5.158   0.868  0.4127 -0.1813  0.0384
  915MOL0     C23451   4.524   5.297   0.857  0.4109 -0.0289 -0.7181
  915MOL0     C23452   4.591   5.341   0.991  0.1888  0.4829 -0.3253
  915MOL0     C23453   4.644   5.484   0.982 -0.9094  0.1200 -0.2514
  915MOL0     C23454   4.715   5.582   0.966 -0.1294 -0.1609  0.0025
  915MOL0     C23455   4.229   4.793   0.620  0.3169  0.5872  0.7640
  915MOL0     C23456   4.168   4.730   0.510 -0.1479  0.6784 -0.9915
  915MOL0     C23457   4.114   4.587   0.525 -0.2427  0.7867 -0.1912
  915MOL0     H23458   4.152   4.705  -0.034  0.4560  1.7377 -0.6377
  915MOL0     H23459   4.041   4.680  -0.263 -2.2187 -1.7447 -1.2085
  915MOL0     H23460   3.658   4.679  -0.215  2.2661 -1.3102 -0.2974
  915MOL0     H23461   3.618   4.814  -0.321 -1.7340 -0.5939  1.1655
  915MOL0     H23462   3.576   4.540  -0.378 -2.4983  0.2644 -1.6961
  915MOL0     H23463   3.748   4.571  -0.431 -1.0486 -1.5776 -1.3619
  915MOL0     H23464   3.676   4.647  -0.622 -1.6316 -3.5225  0.0215
  915MOL0     H23465   3.597   4.784  -0.533 -4.6333 -0.0161  0.6531
  915MOL0     H23466   3.448   4.537  -0.615 -0.3401  0.2754 -0.4738
  915MOL0     H23467   3.382   4.671  -0.520  0.3054 -1.0090  0.0882
  915MOL0     H23468   3.316   4.683  -0.750 -0.4567 -0.0429  2.8089
  915MOL0     H23469   3.412   4.821  -0.702 -2.7027  0.4974 -1.0988
  915MOL0     H23470   3.590   4.772  -0.827 -0.4118  0.2616 -0.2522
  915MOL0     H23471   3.551   4.595  -0.845 -4.7449 -1.0727 -2.9190
  915MOL0     H23472   3.428   4.844  -0.980 -2.6318 -0.3741  0.3989
  915MOL0     H23473   3.370   4.675  -0.999 -2.8299  3.4679 -0.2462
  915MOL0     H23474   3.667   4.755  -1.017 -1.5361  3.9982  0.1164
  915MOL0     H23475   3.601   4.623  -1.110  0.6792  0.4576  1.4938
  915MOL0     H23476   3.360   4.817  -1.272  0.5916 -1.2920 -1.1386
  915MOL0     H23477   3.473   5.104  -1.499 -1.8732 -0.0214 -1.6429
  915MOL0     H23478   3.337   4.999  -1.481 -0.6422  3.1769 -1.6112
  915MOL0     H23479   3.293   5.238  -1.405 -0.7699  2.5445  3.1689
  915MOL0     H23480   3.234   5.118  -1.298 -0.0206 -0.5564 -1.0790
  915MOL0     H23481   3.363   5.338  -1.239  1.1474  1.3292 -1.9900
  915MOL0     H23482   3.508   5.254  -1.281 -2.3165  3.3639 -3.8269
  915MOL0     H23483   3.509   5.217  -1.073  1.2410  1.0823 -1.6476
  915MOL0     H23484   3.431   5.063  -1.117 -3.4079 -0.6165  2.7066
  915MOL0     H23485   3.501   5.138  -0.864  2.9034  0.5204  4.1575
  915MOL0     H23486   3.466   5.096  -0.633  0.5369  0.1422 -2.7493
  915MOL0     H23487   2.957   5.109  -0.275  1.1088 -1.8057  1.4946
  915MOL0     H23488   2.957   5.099  -0.030  1.5990 -1.5297  0.1053
  915MOL0     H23489   3.305   5.271   0.197  0.2164 -0.5839  0.5833
  915MOL0     H23490   3.162   5.376   0.201 -1.8055 -1.3850 -0.1333
  915MOL0     H23491   3.071   5.221   0.367  0.2334 -2.2446 -0.8087
  915MOL0     H23492   3.244   5.170   0.403  0.5322  0.5766 -0.7358
  915MOL0     H23493   3.320   5.396   0.440  0.0198  1.1522 -0.6534
  915MOL0     H23494   3.154   5.453   0.406  0.2671 -0.7459 -2.1563
  915MOL0     H23495   3.222   5.269   0.633 -1.3778 -1.0602  0.9745
  915MOL0     H23496   3.059   5.326   0.587 -0.1901  2.3356 -0.4525
  915MOL0     H23497   3.286   5.476   0.740 -0.0179 -0.9560  1.6643
  915MOL0     H23498   3.119   5.447   0.786 -1.5846  2.6383 -0.3599
  915MOL0     H23499   3.161   5.675   0.726  2.4879  1.1822 -0.6577
  915MOL0     H23500   3.229   5.632   0.575  1.0826  0.6846  1.5786
  915MOL0     H23501   2.930   5.581   0.660  0.9025 -0.1987  0.3013
  915MOL0     H23502   2.994   5.536   0.503 -1.1526 -0.8033 -0.5924
  915MOL0     H23503   3.023   5.822   0.586  2.3269 -1.0814 -1.0687
  915MOL0     H23504   2.991   5.769   0.424  2.9342  0.1116  0.9749
  915MOL0     H23505   3.312   5.343  -0.009 -1.0427  0.3356  1.4268
  915MOL0     H23506   3.311   5.346  -0.248  0.3206  0.8937  1.7116
  915MOL0     H23507   3.064   5.244  -0.660  0.6436 -1.0740 -1.4518
  915MOL0     H23508   3.098   5.247  -0.914 -0.9923 -1.3879  1.1873
  915MOL0     H23509   3.737   4.950  -0.140  0.6411 -0.8209 -1.0969
  915MOL0     H23510   3.841   4.980   0.076 -1.8060  0.5359 -1.5963
  915MOL0     H23511   4.207   5.006   0.309  1.0073  0.3974  0.6089
  915MOL0     H23512   4.298   5.105   0.494  3.4566 -0.0043  1.3035
  915MOL0     H23513   4.347   5.171   0.689  0.4554 -0.5389 -1.4250
  915MOL0     H23514   4.500   5.090   0.667 -0.1648  3.3281 -1.2726
  915MOL0     H23515   4.528   5.089   0.913 -0.4295  0.1631  2.0648
  915MOL0     H23516   4.366   5.164   0.931 -1.2573 -2.9375 -1.8653
  915MOL0     H23517   4.448   5.367   0.822  1.0657 -0.3745 -2.9607
  915MOL0     H23518   4.600   5.290   0.778 -0.3433 -3.7959 -1.2672
  915MOL0     H23519   4.515   5.331   1.070  1.6670  0.6049  1.1770
  915MOL0     H23520   4.671   5.277   1.029 -0.3112  2.0811  4.0010
  915MOL0     H23521   4.762   5.672   0.931 -2.5671  0.2332 -2.5748
  915MOL0     H23522   4.232   4.733   0.710  0.0615  0.0389  0.4060
  915MOL0     H23523   4.107   4.553   0.629  1.8954 -1.5659 -0.6856
  915MOL0     H23524   4.016   4.570   0.479  1.2135 -3.9052 -2.2292
  915MOL0     H23525   4.178   4.518   0.468  1.4767  1.3647  0.9609
  916MOL0     O23526   3.771   6.584   2.712 -0.2450  0.3894  0.0846
  916MOL0     C23527   3.725   6.496   2.635 -0.5140 -0.2829 -0.4574
  916MOL0     O23528   3.659   6.385   2.676 -0.3690 -0.1478  0.1196
  916MOL0     C23529   3.595   6.379   2.793  0.2045 -0.6459 -0.5008
  916MOL0     C23530   3.468   6.322   2.796 -0.5113  0.2622 -0.6994
  916MOL0     C23531   3.398   6.304   2.916 -1.0170 -0.0300  0.2703
  916MOL0     C23532   3.450   6.334   3.044 -0.3744 -0.0428  0.5687
  916MOL0     O23533   3.361   6.322   3.141 -0.0989  0.4488  0.0312
  916MOL0     C23534   3.416   6.314   3.276  0.4086  0.5096  0.5826
  916MOL0     C23535   3.475   6.169   3.290  0.1637  0.3708  0.3791
  916MOL0     C23536   3.352   6.068   3.315 -0.3628  0.0019 -0.1141
  916MOL0     C23537   3.389   5.922   3.303  0.2304  0.2444 -0.4632
  916MOL0     C23538   3.263   5.832   3.308 -0.3846  0.3872 -0.0106
  916MOL0     C23539   3.228   5.818   3.460  0.3479  0.4499 -0.0579
  916MOL0     C23540   3.088   5.742   3.478  0.0478 -0.5638 -0.7175
  916MOL0     C23541   3.062   5.694   3.623  1.2956 -0.2625 -0.4258
  916MOL0     N23542   3.123   5.562   3.647  0.2899 -0.5881  0.0982
  916MOL0     C23543   3.253   5.548   3.691 -0.2602 -0.2554 -0.3933
  916MOL0     C23544   3.261   5.417   3.720 -0.7007  0.1505  1.0810
  916MOL0     C23545   3.373   5.334   3.775  0.3650  0.4145 -0.6187
  916MOL0     C23546   3.454   5.278   3.658  0.2901  0.9777  0.5680
  916MOL0     C23547   3.528   5.373   3.571 -0.3400  0.7694 -0.5608
  916MOL0     C23548   3.632   5.449   3.650 -0.2915  0.6591  0.1569
  916MOL0     O23549   3.705   5.513   3.543 -0.6746  0.4172 -0.3029
  916MOL0     C23550   3.770   5.633   3.570  0.1387  0.1389 -0.4945
  916MOL0     C23551   3.784   5.711   3.686  0.1075 -0.2221  0.3989
  916MOL0     C23552   3.841   5.840   3.688 -0.8507  0.8630  0.7732
  916MOL0     C23553   3.890   5.894   3.568 -0.5151 -1.0311 -0.7600
  916MOL0     C23554   3.937   6.034   3.568  0.1421  0.7377  0.6513
  916MOL0     O23555   4.002   6.067   3.446  0.7931  0.8243 -0.2065
  916MOL0     C23556   4.074   6.182   3.423  0.3950  1.1218 -0.8007
  916MOL0     C23557   4.137   6.185   3.303  0.1781 -0.5215  0.1904
  916MOL0     C23558   4.202   6.297   3.254 -0.7321  0.4765 -0.8383
  916MOL0     C23559   4.217   6.414   3.328 -0.0818 -0.2609 -0.1410
  916MOL0     O23560   4.286   6.516   3.269 -0.1140 -0.5103 -0.5418
  916MOL0     C23561   4.343   6.600   3.363 -0.4483 -0.6598  0.1085
  916MOL0     C23562   4.443   6.688   3.295  0.2836  0.0271 -0.2268
  916MOL0     C23563   4.369   6.781   3.198 -0.5995 -1.3215  0.1135
  916MOL0     C23564   4.451   6.897   3.147 -0.0735 -0.0314 -0.6081
  916MOL0     C23565   4.378   6.972   3.022 -0.1644  0.1490 -0.9058
  916MOL0     C23566   4.388   6.886   2.895  1.2275  0.4986 -0.5923
  916MOL0     C23567   4.526   6.821   2.870  0.3565 -0.5511 -0.8410
  916MOL0     C23568   4.540   6.754   2.731  0.0606  0.2579 -0.6322
  916MOL0    Cl23569   4.710   6.729   2.687 -0.4850  0.2316  0.1679
  916MOL0     C23570   4.164   6.406   3.461  0.0009 -0.8357  0.8676
  916MOL0     C23571   4.092   6.299   3.508 -0.2781  0.0611  0.2860
  916MOL0     O23572   3.932   6.102   3.665  0.1150  0.0404  0.4692
  916MOL0     C23573   3.887   5.815   3.453 -0.5098 -0.7512  0.3922
  916MOL0     C23574   3.834   5.692   3.457  0.0897 -0.5324  0.3929
  916MOL0     N23575   3.140   5.359   3.704 -0.5917  0.0168  0.4377
  916MOL0     N23576   3.054   5.444   3.663  0.5442 -1.1869  0.5576
  916MOL0     C23577   3.579   6.400   3.039 -0.0521  0.8473 -0.8039
  916MOL0     C23578   3.652   6.418   2.920  0.2783  0.3819 -0.5299
  916MOL0     C23579   3.751   6.518   2.488 -0.0415  0.6689 -0.5661
  916MOL0     C23580   3.741   6.403   2.410 -0.4885  0.3090 -0.1843
  916MOL0     C23581   3.728   6.412   2.273  0.0819 -0.1173 -0.9965
  916MOL0     C23582   3.742   6.532   2.212  0.4180 -0.5156  0.4918
  916MOL0     O23583   3.732   6.538   2.075 -0.2994  0.1805  0.7521
  916MOL0     C23584   3.596   6.548   2.031 -0.2790 -0.2926  1.0444
  916MOL0     C23585   3.544   6.691   2.026 -0.5669  0.6635  0.4451
  916MOL0     C23586   3.608   6.789   1.931  0.2278 -0.5385  0.6973
  916MOL0     C23587   3.612   6.734   1.792 -0.0895 -0.2835  0.5942
  916MOL0     C23588   3.632   6.824   1.681  0.1142 -0.4028  0.5540
  916MOL0     C23589   3.631   6.889   1.579  0.3233  0.0324 -0.0785
  916MOL0     C23590   3.758   6.649   2.277 -0.3069 -1.0602  0.1643
  916MOL0     C23591   3.763   6.646   2.423  0.5294 -0.4289 -0.1250
  916MOL0     C23592   3.792   6.773   2.490  0.2851  0.3071 -0.7096
  916MOL0     H23593   3.432   6.288   2.699  0.6804 -1.0732 -0.7040
  916MOL0     H23594   3.295   6.272   2.907 -1.1655  0.2927  0.7522
  916MOL0     H23595   3.495   6.388   3.286 -0.4881  1.2490  2.7702
  916MOL0     H23596   3.344   6.342   3.354  1.7132 -1.1191  2.4727
  916MOL0     H23597   3.540   6.174   3.378  0.8956  0.0105 -0.1305
  916MOL0     H23598   3.531   6.130   3.204  0.2167 -0.1974  0.6684
  916MOL0     H23599   3.284   6.082   3.231  1.3679 -1.2700 -1.8301
  916MOL0     H23600   3.302   6.083   3.411 -2.3165 -3.3455 -0.4542
  916MOL0     H23601   3.443   5.905   3.210  1.4710 -1.8931  0.5692
  916MOL0     H23602   3.451   5.907   3.392  1.7876  4.1466 -0.6999
  916MOL0     H23603   3.178   5.873   3.253  1.8916 -0.1757 -4.3945
  916MOL0     H23604   3.285   5.736   3.261 -1.2340  0.3442 -0.3285
  916MOL0     H23605   3.301   5.757   3.514 -1.7422 -2.0783  0.1022
  916MOL0     H23606   3.218   5.911   3.517 -3.1894 -0.1834  0.5644
  916MOL0     H23607   3.076   5.656   3.410  0.8262 -1.3594  0.1189
  916MOL0     H23608   3.014   5.818   3.454 -0.5051 -0.8757 -0.0246
  916MOL0     H23609   3.087   5.762   3.704 -0.3043 -0.3386  0.1737
  916MOL0     H23610   2.953   5.687   3.627  1.3248 -0.4393  0.0679
  916MOL0     H23611   3.319   5.633   3.696  0.4759 -0.8071 -0.5609
  916MOL0     H23612   3.438   5.401   3.832 -0.6752 -1.6823  3.4127
  916MOL0     H23613   3.340   5.251   3.837 -2.3173  2.6237  1.1527
  916MOL0     H23614   3.530   5.207   3.692  0.0699 -1.4526 -3.3868
  916MOL0     H23615   3.390   5.221   3.590  4.3965 -3.2366 -0.2948
  916MOL0     H23616   3.463   5.439   3.513  1.7903  2.9630 -0.6459
  916MOL0     H23617   3.583   5.305   3.505  0.6533 -0.1602  1.1523
  916MOL0     H23618   3.691   5.378   3.709  0.1030  0.9222  0.0872
  916MOL0     H23619   3.595   5.530   3.713  0.2226  0.9541  0.0958
  916MOL0     H23620   3.732   5.678   3.775  0.4003 -0.8291  0.3546
  916MOL0     H23621   3.833   5.903   3.776 -1.2547 -2.5771  3.4178
  916MOL0     H23622   4.133   6.095   3.242  0.3159 -0.6932  0.4301
  916MOL0     H23623   4.224   6.287   3.148 -1.4631  1.1579 -1.0656
  916MOL0     H23624   4.269   6.671   3.403  3.4899  3.2955  1.1842
  916MOL0     H23625   4.406   6.551   3.438  0.0065  2.1982  1.7418
  916MOL0     H23626   4.506   6.750   3.360  0.5090  1.4129 -1.6970
  916MOL0     H23627   4.513   6.624   3.241 -1.3003 -2.1643  0.1986
  916MOL0     H23628   4.347   6.719   3.110 -1.0203  0.8958 -1.4294
  916MOL0     H23629   4.279   6.817   3.249 -0.5390 -2.0944  0.8011
  916MOL0     H23630   4.553   6.874   3.118  0.0474  1.4655 -1.4844
  916MOL0     H23631   4.442   6.965   3.232 -0.8049 -0.6555 -0.1675
  916MOL0     H23632   4.431   7.066   3.004 -2.2769  2.1314  2.2156
  916MOL0     H23633   4.273   6.999   3.040 -0.5313  2.3943 -5.2024
  916MOL0     H23634   4.323   6.798   2.894  2.1066 -0.1713 -0.3213
  916MOL0     H23635   4.361   6.945   2.807 -0.9383  0.3239 -0.0951
  916MOL0     H23636   4.560   6.751   2.946  0.5490 -0.5534 -0.9282
  916MOL0     H23637   4.601   6.901   2.865  1.2944 -1.2963  0.7057
  916MOL0     H23638   4.478   6.664   2.724  1.7436 -1.1595  1.5176
  916MOL0     H23639   4.492   6.824   2.661 -2.1238 -1.4123 -0.9065
  916MOL0     H23640   4.166   6.496   3.522 -1.2116  0.2861 -0.6868
  916MOL0     H23641   4.059   6.286   3.611 -0.3085 -0.1296  0.2527
  916MOL0     H23642   3.932   5.854   3.362  0.7013  2.2554  2.1489
  916MOL0     H23643   3.838   5.642   3.361  3.9260 -1.8250  1.0543
  916MOL0     H23644   3.620   6.431   3.134 -1.3603 -0.1446  0.1243
  916MOL0     H23645   3.758   6.443   2.915  1.4136 -3.1119  2.0550
  916MOL0     H23646   3.736   6.300   2.444 -0.0197  0.2211 -0.3793
  916MOL0     H23647   3.701   6.326   2.212 -0.3593  0.7220 -2.0201
  916MOL0     H23648   3.525   6.492   2.093 -0.3791  1.0470  2.1896
  916MOL0     H23649   3.593   6.497   1.934  0.5694 -0.7263  1.2318
  916MOL0     H23650   3.528   6.734   2.126  3.7511 -0.5247  1.8578
  916MOL0     H23651   3.449   6.655   1.986 -0.2024 -2.1994  1.8588
  916MOL0     H23652   3.707   6.802   1.974  0.4314 -1.0624  0.4027
  916MOL0     H23653   3.556   6.885   1.925 -0.1067 -0.6848 -4.9908
  916MOL0     H23654   3.699   6.668   1.792  1.9397  2.0416  4.0544
  916MOL0     H23655   3.518   6.677   1.784 -0.5439 -0.2603  4.0880
  916MOL0     H23656   3.644   6.960   1.499 -2.0694  2.0182  1.1744
  916MOL0     H23657   3.760   6.745   2.226 -3.5911 -0.5090  0.8594
  916MOL0     H23658   3.734   6.794   2.581 -0.0305  0.1025 -0.8607
  916MOL0     H23659   3.891   6.765   2.535  0.1387  1.7286 -0.0597
  916MOL0     H23660   3.769   6.862   2.431  2.0059  2.0492  1.0922
  917MOL0     O23661   6.886  10.701   7.450 -1.1935  0.1389 -0.0614
  917MOL0     C23662   6.801  10.723   7.530  0.6295 -0.3116 -0.0940
  917MOL0     O23663   6.800  10.669   7.657  0.2034  0.3973  0.0991
  917MOL0     C23664   6.917  10.608   7.703 -0.0636  0.1032 -1.2074
  917MOL0     C23665   6.939  10.472   7.697 -0.1918  0.1700 -0.1478
  917MOL0     C23666   7.054  10.425   7.755 -0.1660  0.6780  0.3885
  917MOL0     C23667   7.169  10.515   7.792  0.1036  0.8856  0.1945
  917MOL0     O23668   7.297  10.472   7.819  1.1832 -0.1152 -0.3931
  917MOL0     C23669   7.324  10.340   7.880  0.4109 -0.6927 -0.0804
  917MOL0     C23670   7.482  10.308   7.871  0.3785  0.3270 -0.7957
  917MOL0     C23671   7.527  10.197   7.967 -0.2902 -0.0497 -0.0775
  917MOL0     C23672   7.519  10.228   8.114  1.0099  0.3895  0.0869
  917MOL0     C23673   7.552  10.104   8.196  0.9063 -0.4739 -0.3635
  917MOL0     C23674   7.695  10.046   8.204 -1.0219 -0.4472 -0.7007
  917MOL0     C23675   7.704   9.921   8.288 -0.0184 -0.6297 -0.3798
  917MOL0     C23676   7.830   9.842   8.254 -0.4824  0.6739  0.0414
  917MOL0     N23677   7.963   9.909   8.286 -0.2620  0.1470 -0.3395
  917MOL0     C23678   8.051   9.961   8.202  0.3870  0.3598  0.5391
  917MOL0     C23679   8.169   9.970   8.271  1.1006  0.5345 -0.5248
  917MOL0     C23680   8.302  10.014   8.209  0.0782 -0.1771  0.1049
  917MOL0     C23681   8.409   9.902   8.217 -1.0642 -0.1658  0.0542
  917MOL0     C23682   8.544   9.954   8.157 -0.3002  0.3726  0.7513
  917MOL0     C23683   8.683   9.900   8.195  0.0549  0.8259  0.2857
  917MOL0     O23684   8.723   9.941   8.330 -0.1930  0.4351  0.7143
  917MOL0     C23685   8.852   9.986   8.349  0.1426 -0.2059  1.3968
  917MOL0     C23686   8.875  10.089   8.430 -0.0305 -0.0033 -0.1697
  917MOL0     C23687   9.006  10.140   8.462  0.7590 -0.4548  0.2033
  917MOL0     C23688   9.115  10.088   8.390  0.6902 -0.1225  0.4023
  917MOL0     C23689   9.241  10.161   8.407 -0.1597  0.4935 -0.0386
  917MOL0     O23690   9.344  10.115   8.320  0.4658  0.7648 -0.3982
  917MOL0     C23691   9.471  10.153   8.371  0.1832 -0.3256 -0.6827
  917MOL0     C23692   9.510  10.130   8.507  0.2481  1.0498  0.1366
  917MOL0     C23693   9.636  10.147   8.558 -0.1857 -1.0845 -1.7637
  917MOL0     C23694   9.735  10.191   8.468  0.3882  0.1856  0.0615
  917MOL0     O23695   9.863  10.225   8.519  0.0931 -1.2333  0.0225
  917MOL0     C23696   9.954  10.318   8.451  0.4955  0.1849 -1.1502
  917MOL0     C23697  10.076  10.333   8.541  0.2410  0.1893  0.8530
  917MOL0     C23698  10.151  10.202   8.544  0.1295 -0.5523  0.1494
  917MOL0     C23699  10.279  10.217   8.624 -0.5740  0.0513  0.7289
  917MOL0     C23700  10.378  10.109   8.589 -0.4883  0.2545  0.2070
  917MOL0     C23701  10.517  10.175   8.621  1.0484 -0.0653  0.2778
  917MOL0     C23702  10.636  10.073   8.607  0.8047  0.4041  0.0867
  917MOL0     C23703  10.767  10.120   8.662 -0.8584 -0.3359 -0.8935
  917MOL0    Cl23704  10.816  10.264   8.567 -0.1139  0.0169  0.1849
  917MOL0     C23705   9.698  10.223   8.333  0.6748  0.5826 -0.3385
  917MOL0     C23706   9.565  10.199   8.281 -0.5671 -0.7570 -0.5741
  917MOL0     O23707   9.249  10.253   8.491  0.2403  0.9917  0.1912
  917MOL0     C23708   9.089   9.992   8.301 -0.6971  0.1492  0.4281
  917MOL0     C23709   8.957   9.934   8.281 -0.6017  0.5110 -0.1209
  917MOL0     N23710   8.140   9.947   8.408  0.3605 -0.0496 -0.1846
  917MOL0     N23711   8.015   9.912   8.411 -0.2789  0.2961 -0.0050
  917MOL0     C23712   7.146  10.646   7.774  0.8216 -0.4662 -0.5108
  917MOL0     C23713   7.019  10.688   7.744  0.5510 -0.2851  0.2817
  917MOL0     C23714   6.682  10.806   7.485 -0.3051  0.9160  0.2767
  917MOL0     C23715   6.604  10.854   7.593  0.0377 -0.5390  0.1330
  917MOL0     C23716   6.477  10.923   7.563  0.2122  0.7007 -0.5079
  917MOL0     C23717   6.437  10.927   7.437  0.4904 -0.9394 -0.4981
  917MOL0     O23718   6.302  10.948   7.419 -0.4320 -0.2223 -0.3229
  917MOL0     C23719   6.263  10.962   7.278 -1.0508  0.1537 -0.4341
  917MOL0     C23720   6.114  10.989   7.273 -0.0130 -0.5850  0.2333
  917MOL0     C23721   6.034  10.866   7.327  0.8613 -0.0866 -0.5218
  917MOL0     C23722   5.885  10.920   7.330 -0.1001  0.8023 -0.6251
  917MOL0     C23723   5.867  11.009   7.446  0.6759  0.3869 -0.6826
  917MOL0     C23724   5.870  11.089   7.543  0.2981  1.1443 -0.0535
  917MOL0     C23725   6.525  10.895   7.339 -0.6964  1.2159  0.7141
  917MOL0     C23726   6.653  10.845   7.356  1.2078  0.5453 -0.1561
  917MOL0     C23727   6.740  10.802   7.231 -0.0195  0.4814 -0.0707
  917MOL0     H23728   6.860  10.416   7.647 -3.2343  3.9625 -0.0382
  917MOL0     H23729   7.063  10.317   7.746 -1.3324  0.4577  1.6059
  917MOL0     H23730   7.276  10.339   7.978 -0.6792  1.1436 -0.5398
  917MOL0     H23731   7.259  10.261   7.840 -2.1786  1.9171 -1.4057
  917MOL0     H23732   7.527  10.404   7.901  2.2754 -0.6497 -0.3596
  917MOL0     H23733   7.505  10.294   7.766  2.3716  1.1928 -0.5189
  917MOL0     H23734   7.628  10.159   7.948 -0.2538  0.5003 -1.0388
  917MOL0     H23735   7.454  10.118   7.944  0.5995 -2.0654  3.2080
  917MOL0     H23736   7.582  10.312   8.145  0.3880 -0.0887  2.9763
  917MOL0     H23737   7.414  10.256   8.130  0.8770 -0.3261  0.5426
  917MOL0     H23738   7.519  10.132   8.297 -1.5870  0.3198 -1.3123
  917MOL0     H23739   7.483  10.024   8.168 -0.4496  0.3943  0.3577
  917MOL0     H23740   7.732  10.031   8.102 -1.2475  1.6740 -1.1460
  917MOL0     H23741   7.758  10.121   8.253 -0.9744 -0.7274 -0.3298
  917MOL0     H23742   7.616   9.859   8.267  1.0896 -2.6011  0.5760
  917MOL0     H23743   7.709   9.955   8.392  2.3833  1.0474 -0.9750
  917MOL0     H23744   7.823   9.743   8.302 -2.4639  0.6938 -0.1404
  917MOL0     H23745   7.831   9.828   8.146  2.5446 -1.2813  0.1854
  917MOL0     H23746   8.029   9.983   8.098 -1.8361 -0.1267  0.8616
  917MOL0     H23747   8.289  10.051   8.107 -0.8865  2.6059  1.1474
  917MOL0     H23748   8.348  10.099   8.261  3.3134 -1.7429  0.0483
  917MOL0     H23749   8.431   9.886   8.323 -0.9510  4.8563  1.0236
  917MOL0     H23750   8.374   9.815   8.160  1.1033  2.0778 -5.3317
  917MOL0     H23751   8.558  10.062   8.163  3.3640  0.1469 -1.2945
  917MOL0     H23752   8.542   9.931   8.050 -0.4669  2.5033  0.2428
  917MOL0     H23753   8.758   9.945   8.128  0.4639  2.8774  2.0341
  917MOL0     H23754   8.688   9.791   8.185 -1.2537  0.7670  0.1669
  917MOL0     H23755   8.788  10.151   8.451 -0.8757 -0.9937 -0.6978
  917MOL0     H23756   9.013  10.235   8.514 -2.4964  1.1827 -2.0346
  917MOL0     H23757   9.433  10.090   8.572  0.7723  0.2938  0.3167
  917MOL0     H23758   9.669  10.129   8.659  0.1252  0.2144 -1.6145
  917MOL0     H23759   9.976  10.283   8.350  1.1074  0.2885 -1.0555
  917MOL0     H23760   9.910  10.419   8.447  0.4630  0.1846 -0.8205
  917MOL0     H23761  10.124  10.412   8.482 -0.9922 -1.0116 -1.9228
  917MOL0     H23762  10.062  10.380   8.639  1.1799  2.2303  0.0691
  917MOL0     H23763  10.090  10.120   8.583  1.3464 -2.0938 -1.0899
  917MOL0     H23764  10.175  10.181   8.440  1.1374  3.0888 -0.5121
  917MOL0     H23765  10.266  10.224   8.732 -0.4848  0.2974  0.7249
  917MOL0     H23766  10.319  10.313   8.592 -4.0882  1.0791 -1.0992
  917MOL0     H23767  10.380  10.091   8.481  0.8184 -2.2261  0.5771
  917MOL0     H23768  10.356  10.012   8.634 -1.1227  0.2094 -0.1914
  917MOL0     H23769  10.528  10.260   8.553 -2.7020 -0.6881 -1.3465
  917MOL0     H23770  10.521  10.228   8.716 -1.8402  0.8935 -0.0327
  917MOL0     H23771  10.652  10.029   8.508  1.6258 -2.0866  1.2463
  917MOL0     H23772  10.605   9.986   8.666 -0.5571  1.2101  0.6132
  917MOL0     H23773  10.751  10.153   8.765 -1.2148 -0.6960 -0.8279
  917MOL0     H23774  10.839  10.037   8.669 -1.9838 -1.1883  1.3768
  917MOL0     H23775   9.774  10.263   8.266  1.1150 -2.0796 -1.5691
  917MOL0     H23776   9.546  10.209   8.174  1.2222 -3.0898 -1.2272
  917MOL0     H23777   9.169   9.961   8.234 -2.1792 -0.4383 -1.1516
  917MOL0     H23778   8.942   9.848   8.217  0.2423 -0.2558  0.6932
  917MOL0     H23779   7.225  10.715   7.803 -0.2378 -0.8882  4.1766
  917MOL0     H23780   6.980  10.788   7.727 -0.3930 -0.6757  0.1287
  917MOL0     H23781   6.631  10.842   7.698 -1.8866 -1.1969  0.5996
  917MOL0     H23782   6.405  10.941   7.642  1.6489 -0.1344  1.0802
  917MOL0     H23783   6.283  10.870   7.223  0.2219 -0.4214  0.9275
  917MOL0     H23784   6.313  11.048   7.233  2.5262 -1.0650  0.8399
  917MOL0     H23785   6.085  11.016   7.171  1.3403 -3.0835 -0.8908
  917MOL0     H23786   6.088  11.070   7.342  0.9548 -0.6667  0.7138
  917MOL0     H23787   6.059  10.839   7.430 -1.5357  2.4914  0.8880
  917MOL0     H23788   6.057  10.784   7.258  0.8405  1.5711 -2.5955
  917MOL0     H23789   5.857  10.974   7.239 -1.0320 -1.4675 -1.7401
  917MOL0     H23790   5.818  10.835   7.337  0.3865  0.4645 -0.0047
  917MOL0     H23791   5.868  11.146   7.633 -3.1728  1.4355 -0.2022
  917MOL0     H23792   6.494  10.898   7.235 -1.4676 -1.3871  0.7859
  917MOL0     H23793   6.695  10.863   7.153 -0.2915  0.2714 -0.0784
  917MOL0     H23794   6.841  10.840   7.251  0.1082  0.3580 -0.4670
  917MOL0     H23795   6.747  10.697   7.201  1.7468  0.7170 -0.6329
  918MOL0     O23796   8.710   8.996   1.799  0.4591 -0.3159 -0.2751
  918MOL0     C23797   8.700   9.029   1.685  0.4825  0.3173  0.7002
  918MOL0     O23798   8.580   9.041   1.616 -0.2563 -0.1669  0.0713
  918MOL0     C23799   8.454   9.000   1.668  0.3731 -0.3981 -0.1040
  918MOL0     C23800   8.343   9.080   1.662  0.0962 -0.3833  0.1094
  918MOL0     C23801   8.229   9.035   1.736 -0.2720 -0.7299 -0.7460
  918MOL0     C23802   8.226   8.918   1.810  1.2222 -0.6389 -0.1782
  918MOL0     O23803   8.111   8.908   1.889 -0.1346  0.8413 -0.2376
  918MOL0     C23804   8.087   8.777   1.943  0.7472  0.4596  0.3561
  918MOL0     C23805   7.952   8.774   2.011 -0.3563  0.0989 -0.0543
  918MOL0     C23806   7.940   8.679   2.124 -0.0926  0.0528 -0.5416
  918MOL0     C23807   7.806   8.654   2.174 -0.2486 -0.4268 -0.0997
  918MOL0     C23808   7.776   8.512   2.231  0.0103 -0.8156  0.0717
  918MOL0     C23809   7.784   8.393   2.135  0.3900  0.1611  0.1499
  918MOL0     C23810   7.726   8.260   2.194 -0.1173  0.2126 -0.1471
  918MOL0     C23811   7.808   8.206   2.318  0.2834  0.0450 -0.6914
  918MOL0     N23812   7.717   8.151   2.416 -0.0615  0.5076  0.1654
  918MOL0     C23813   7.756   8.047   2.493  0.8551 -0.1059 -0.3829
  918MOL0     C23814   7.655   8.037   2.584 -0.0054  0.6245 -0.3055
  918MOL0     C23815   7.651   7.937   2.698  0.3385 -0.1712 -0.1694
  918MOL0     C23816   7.570   7.802   2.658  0.1347 -0.2300 -0.7832
  918MOL0     C23817   7.583   7.750   2.515 -1.5141  0.1891 -0.2799
  918MOL0     C23818   7.713   7.680   2.468 -1.0323 -0.1228 -0.1738
  918MOL0     O23819   7.768   7.769   2.364 -0.0538 -0.4422  0.0831
  918MOL0     C23820   7.901   7.770   2.334 -0.9477 -0.4912 -0.2477
  918MOL0     C23821   7.936   7.834   2.222  0.4452 -0.0069  0.4899
  918MOL0     C23822   8.069   7.839   2.168 -0.7099 -0.5719 -0.1492
  918MOL0     C23823   8.166   7.792   2.248 -0.5426 -0.1308 -0.5042
  918MOL0     C23824   8.310   7.810   2.218 -0.5280  0.8375  0.1595
  918MOL0     O23825   8.414   7.729   2.268  0.5667  0.5240 -0.4806
  918MOL0     C23826   8.546   7.765   2.247  0.3290  0.3417  0.5412
  918MOL0     C23827   8.592   7.855   2.153 -0.0128 -0.7711  0.3467
  918MOL0     C23828   8.729   7.877   2.136  0.3947 -0.0576  0.5959
  918MOL0     C23829   8.825   7.816   2.217 -0.5470 -0.6639 -0.2597
  918MOL0     O23830   8.949   7.858   2.204 -0.2100 -0.4008  0.0221
  918MOL0     C23831   9.046   7.752   2.170 -0.3453  0.5239  1.5717
  918MOL0     C23832   9.175   7.828   2.197 -0.8696 -0.1619  0.1357
  918MOL0     C23833   9.211   7.842   2.344  0.1238 -0.0158 -0.1815
  918MOL0     C23834   9.120   7.943   2.418 -0.2192 -0.3560 -0.8433
  918MOL0     C23835   9.183   8.027   2.544  0.1446 -0.2725  0.4832
  918MOL0     C23836   9.076   8.080   2.638  1.2962 -0.1794  0.3363
  918MOL0     C23837   9.027   7.970   2.730 -0.9540 -0.5192  1.1799
  918MOL0     C23838   8.887   7.922   2.705  0.0721  0.2303  1.7425
  918MOL0    Cl23839   8.819   7.856   2.860 -0.0708  0.1471 -0.3237
  918MOL0     C23840   8.779   7.712   2.306  0.2525 -0.8798 -0.1685
  918MOL0     C23841   8.641   7.697   2.329 -0.7358 -0.0762  0.8553
  918MOL0     O23842   8.317   7.917   2.156  0.2977 -0.5293 -1.1713
  918MOL0     C23843   8.141   7.705   2.355 -0.2421 -0.8161 -0.4372
  918MOL0     C23844   8.008   7.701   2.400  0.0695  0.4574  0.4403
  918MOL0     N23845   7.555   8.129   2.555 -0.4885 -0.0760 -0.0946
  918MOL0     N23846   7.600   8.201   2.462 -0.1550 -0.2191  0.1253
  918MOL0     C23847   8.330   8.826   1.796  0.5820 -0.0974  0.1964
  918MOL0     C23848   8.445   8.869   1.728  0.6415  0.0353 -0.4998
  918MOL0     C23849   8.814   9.081   1.615 -0.2050  0.8267  0.3204
  918MOL0     C23850   8.796   9.073   1.481 -0.6158  0.4387  0.5877
  918MOL0     C23851   8.902   9.122   1.399 -0.7944  0.0947 -0.1764
  918MOL0     C23852   9.013   9.176   1.449 -0.7225  0.2889 -0.5981
  918MOL0     O23853   9.115   9.211   1.366 -0.2087  0.5690 -0.2990
  918MOL0     C23854   9.105   9.348   1.324  0.5700 -0.1976 -0.2754
  918MOL0     C23855   9.172   9.374   1.197 -0.0424  0.3996  0.3060
  918MOL0     C23856   9.127   9.515   1.140 -0.2130  0.4879 -1.0507
  918MOL0     C23857   9.139   9.547   0.995  0.7729  0.0464 -0.0544
  918MOL0     C23858   9.265   9.493   0.934  0.4189  0.7285  1.0324
  918MOL0     C23859   9.347   9.424   0.869  0.8272 -0.4347  0.3922
  918MOL0     C23860   9.027   9.184   1.593 -0.1013  0.5124 -0.2579
  918MOL0     C23861   8.924   9.137   1.676  0.1318  0.6027 -0.0743
  918MOL0     C23862   8.941   9.165   1.817 -0.6854  0.5968 -0.0904
  918MOL0     H23863   8.332   9.173   1.608  1.3242 -0.9658 -1.1992
  918MOL0     H23864   8.144   9.098   1.761 -0.0906 -0.6932 -0.2262
  918MOL0     H23865   8.088   8.690   1.878  3.0407 -0.1767  1.1669
  918MOL0     H23866   8.168   8.767   2.015  2.5360  1.5103 -1.4174
  918MOL0     H23867   7.877   8.763   1.933  0.3838 -3.0967 -0.4529
  918MOL0     H23868   7.939   8.869   2.064 -1.7291 -0.7437  1.1621
  918MOL0     H23869   7.999   8.716   2.208 -0.3335 -0.2418 -0.2426
  918MOL0     H23870   7.994   8.586   2.102  1.0009 -0.0344  2.1070
  918MOL0     H23871   7.796   8.731   2.251 -1.3573  1.8756 -2.3942
  918MOL0     H23872   7.738   8.677   2.091  1.2557  3.9647 -0.3697
  918MOL0     H23873   7.843   8.496   2.317 -3.1980 -0.2151  2.8949
  918MOL0     H23874   7.679   8.517   2.280 -0.1669  4.1556 -0.3030
  918MOL0     H23875   7.713   8.424   2.058 -0.4689 -1.5227  0.2080
  918MOL0     H23876   7.886   8.390   2.097  0.9996 -0.7470  1.7533
  918MOL0     H23877   7.711   8.185   2.115  1.2561  0.7016 -0.9016
  918MOL0     H23878   7.627   8.283   2.235 -0.1552 -0.9268  0.4529
  918MOL0     H23879   7.882   8.134   2.281  0.7778  1.3987 -2.4526
  918MOL0     H23880   7.855   8.288   2.374  0.7834 -1.4717  1.2039
  918MOL0     H23881   7.848   7.992   2.477 -1.0410 -3.7677  0.3576
  918MOL0     H23882   7.752   7.904   2.725  0.1001  0.0196  1.0551
  918MOL0     H23883   7.603   7.976   2.789 -0.1960 -1.3591  0.0707
  918MOL0     H23884   7.623   7.733   2.724  1.6396 -0.9607 -2.6441
  918MOL0     H23885   7.464   7.804   2.682  0.2700  0.6287 -0.1817
  918MOL0     H23886   7.548   7.826   2.444  0.0569 -0.5610 -1.9699
  918MOL0     H23887   7.523   7.660   2.507  0.0343 -1.1149  1.8431
  918MOL0     H23888   7.701   7.582   2.421  0.9162 -0.4142 -0.1504
  918MOL0     H23889   7.786   7.675   2.550 -1.2679  0.8345  0.1149
  918MOL0     H23890   7.852   7.871   2.164 -1.3934  0.1188  3.0824
  918MOL0     H23891   8.093   7.883   2.072  1.3990  0.2410  0.7061
  918MOL0     H23892   8.532   7.918   2.088  1.4161  0.9733  0.6310
  918MOL0     H23893   8.774   7.956   2.076  1.5048 -1.6079 -0.7174
  918MOL0     H23894   9.027   7.654   2.215 -1.7712 -0.0455 -0.1259
  918MOL0     H23895   9.038   7.732   2.062 -2.1590  1.7327  1.4340
  918MOL0     H23896   9.263   7.770   2.167  0.6067  1.0598  1.8782
  918MOL0     H23897   9.179   7.931   2.160 -0.4729 -0.3947 -0.4914
  918MOL0     H23898   9.198   7.740   2.381 -2.2334 -0.9601 -3.1168
  918MOL0     H23899   9.314   7.868   2.369 -0.1047 -1.3810  2.5066
  918MOL0     H23900   9.031   7.893   2.458  0.8713  0.8077  3.5914
  918MOL0     H23901   9.099   8.023   2.347 -0.6212  0.3651  0.0619
  918MOL0     H23902   9.247   8.106   2.504 -2.3772  1.3315 -0.6262
  918MOL0     H23903   9.239   7.949   2.596 -2.1261 -3.2412 -1.1864
  918MOL0     H23904   9.113   8.166   2.695  0.6979  1.1999 -1.3039
  918MOL0     H23905   8.991   8.114   2.578 -0.7843 -2.0321  2.0398
  918MOL0     H23906   9.028   8.016   2.829 -0.6504 -2.0024  1.8987
  918MOL0     H23907   9.096   7.885   2.732  1.9340  1.5623 -1.3866
  918MOL0     H23908   8.822   8.006   2.678  1.9957  1.4902  0.8798
  918MOL0     H23909   8.890   7.848   2.624 -0.8783  1.3879  0.5949
  918MOL0     H23910   8.854   7.661   2.365  1.5251  2.7146  1.6454
  918MOL0     H23911   8.606   7.623   2.401  2.5512 -1.6852  0.9784
  918MOL0     H23912   8.219   7.648   2.404  1.2601  2.1339  0.8170
  918MOL0     H23913   7.993   7.634   2.484 -1.3164 -0.0385 -0.1655
  918MOL0     H23914   8.315   8.728   1.839 -1.6599 -0.7659 -1.8481
  918MOL0     H23915   8.516   8.787   1.725 -1.7222 -2.1467 -0.1248
  918MOL0     H23916   8.709   9.042   1.423  1.6605 -0.5878 -2.5352
  918MOL0     H23917   8.897   9.125   1.291  0.0069 -3.5187 -0.4286
  918MOL0     H23918   9.157   9.405   1.401 -1.7908  0.4691  0.9166
  918MOL0     H23919   9.003   9.386   1.314  0.6408  0.0441 -0.0813
  918MOL0     H23920   9.127   9.301   1.130 -3.5810  1.4342  1.3135
  918MOL0     H23921   9.280   9.365   1.213 -0.4891 -0.3038  3.6535
  918MOL0     H23922   9.195   9.591   1.179  0.9587 -0.7672 -0.6113
  918MOL0     H23923   9.022   9.534   1.165  0.2423  0.7232  0.7770
  918MOL0     H23924   9.062   9.490   0.943  0.9631  1.1042 -1.5387
  918MOL0     H23925   9.112   9.653   0.986 -3.7888 -0.7177  1.9489
  918MOL0     H23926   9.430   9.369   0.831  0.3202 -0.0589 -1.3267
  918MOL0     H23927   9.124   9.218   1.626 -0.4408  2.8532 -1.4784
  918MOL0     H23928   8.972   9.081   1.880  0.6182  2.0912  1.3663
  918MOL0     H23929   9.011   9.248   1.831  0.1836  0.4436 -2.9592
  918MOL0     H23930   8.850   9.195   1.871 -0.6410 -1.3603  1.1493
  919MOL0     O23931   0.360   0.620   6.269  0.4429  0.5028 -0.1791
  919MOL0     C23932   0.393   0.624   6.385 -0.0670  0.3999 -0.6838
  919MOL0     O23933   0.386   0.518   6.470  0.4909 -0.2456 -0.6034
  919MOL0     C23934   0.329   0.405   6.427  1.1084 -0.8078  0.3646
  919MOL0     C23935   0.191   0.387   6.431 -0.3773  0.5671  1.3140
  919MOL0     C23936   0.134   0.256   6.410 -0.7746  0.0440 -0.5878
  919MOL0     C23937   0.206   0.138   6.384  0.1030 -0.0819 -0.4210
  919MOL0     O23938   0.148   0.016   6.364 -0.0292  0.2237  0.2727
  919MOL0     C23939   0.236  -0.095   6.364  0.2085 -0.3419 -0.9233
  919MOL0     C23940   0.294  -0.127   6.499  0.1605  0.5336 -0.9424
  919MOL0     C23941   0.208  -0.104   6.624 -0.0641 -0.8626  0.5540
  919MOL0     C23942   0.282  -0.169   6.737 -0.5301  0.0751  0.5292
  919MOL0     C23943   0.227  -0.117   6.872 -0.2350 -0.2239 -0.1349
  919MOL0     C23944   0.279  -0.218   6.987 -0.6219  0.7368  0.0412
  919MOL0     C23945   0.207  -0.181   7.114  0.8096 -1.3023 -0.6521
  919MOL0     C23946   0.270  -0.231   7.244  1.1595  0.7796  0.4212
  919MOL0     N23947   0.241  -0.375   7.257  0.0601  0.2155 -0.1767
  919MOL0     C23948   0.323  -0.476   7.219 -0.3103  0.0875  0.4636
  919MOL0     C23949   0.233  -0.582   7.218 -0.8572  0.3864 -0.1437
  919MOL0     C23950   0.263  -0.715   7.167  0.4724 -1.2117 -0.0651
  919MOL0     C23951   0.241  -0.734   7.012  0.0412 -0.5472  0.0563
  919MOL0     C23952   0.312  -0.638   6.921  0.2348 -0.9124 -1.3327
  919MOL0     C23953   0.290  -0.665   6.777  0.4289  0.9205  0.8123
  919MOL0     O23954   0.350  -0.555   6.705  0.2887 -0.3259 -0.2053
  919MOL0     C23955   0.487  -0.570   6.676  0.8190 -0.2002 -0.0011
  919MOL0     C23956   0.545  -0.469   6.597  0.5475  0.3857 -0.5669
  919MOL0     C23957   0.679  -0.475   6.561 -0.0500  0.8083 -0.1683
  919MOL0     C23958   0.769  -0.569   6.616  0.3868  0.0605 -0.0477
  919MOL0     C23959   0.911  -0.561   6.585  0.0068  0.3173  0.1774
  919MOL0     O23960   0.975  -0.449   6.528 -0.2408  0.0583  0.5461
  919MOL0     C23961   1.108  -0.428   6.551  0.2623 -0.4675 -0.2474
  919MOL0     C23962   1.179  -0.465   6.661 -0.2809  0.1639  0.2134
  919MOL0     C23963   1.303  -0.409   6.691  0.9124  0.3203 -0.4295
  919MOL0     C23964   1.368  -0.325   6.593  1.0282 -0.2837  0.2263
  919MOL0     O23965   1.474  -0.241   6.614 -0.5261  0.2471 -0.0881
  919MOL0     C23966   1.592  -0.326   6.622  0.3237  0.1262 -0.4477
  919MOL0     C23967   1.719  -0.235   6.644 -0.0155  0.1644 -0.0176
  919MOL0     C23968   1.743  -0.121   6.547  0.7677  1.2149 -0.8173
  919MOL0     C23969   1.859  -0.021   6.572 -0.3477 -0.0942  0.0902
  919MOL0     C23970   1.880   0.063   6.443 -0.7333  0.2869  0.4542
  919MOL0     C23971   1.990   0.168   6.474  0.7124  1.3302  0.6158
  919MOL0     C23972   2.139   0.127   6.454 -0.2908 -0.1397 -0.2680
  919MOL0     C23973   2.185   0.094   6.308  0.2058 -0.5941  1.1495
  919MOL0    Cl23974   2.181   0.247   6.222 -0.1560 -0.2640  0.1745
  919MOL0     C23975   1.293  -0.288   6.477  0.1136  0.2525  0.3302
  919MOL0     C23976   1.163  -0.337   6.463 -0.6924  0.0080  0.0586
  919MOL0     O23977   0.967  -0.669   6.621  0.2732 -0.6270  1.0625
  919MOL0     C23978   0.707  -0.659   6.716  0.2394 -1.0653  0.3914
  919MOL0     C23979   0.570  -0.674   6.723 -0.0278  0.2795 -0.0021
  919MOL0     N23980   0.108  -0.535   7.252  1.3270 -0.2184  0.7702
  919MOL0     N23981   0.114  -0.414   7.279  0.1438  0.0845  1.1763
  919MOL0     C23982   0.349   0.167   6.368 -0.3411 -0.0503  0.6341
  919MOL0     C23983   0.406   0.295   6.394 -1.0949  0.1781 -0.9850
  919MOL0     C23984   0.438   0.759   6.437  0.2811  0.7599 -0.5185
  919MOL0     C23985   0.465   0.774   6.575  0.3142 -0.8809 -1.0224
  919MOL0     C23986   0.508   0.893   6.643 -0.6962  0.0795  0.2193
  919MOL0     C23987   0.531   1.004   6.569  0.4797 -1.3764  0.0393
  919MOL0     O23988   0.559   1.129   6.624  0.6012  0.0250 -0.6424
  919MOL0     C23989   0.701   1.161   6.657  0.4660 -0.4193  0.7667
  919MOL0     C23990   0.750   1.079   6.769 -0.8487 -0.1619  0.0837
  919MOL0     C23991   0.678   1.127   6.906 -0.2164  1.4561  0.6681
  919MOL0     C23992   0.704   1.044   7.032 -0.5518 -0.4005  0.0673
  919MOL0     C23993   0.699   1.133   7.152  0.7097 -0.7679 -0.3640
  919MOL0     C23994   0.682   1.211   7.246  0.0712 -0.4470 -0.7076
  919MOL0     C23995   0.529   0.996   6.430  1.3123  0.3823  0.3884
  919MOL0     C23996   0.476   0.879   6.365 -0.6133  0.1470 -0.2821
  919MOL0     C23997   0.450   0.895   6.218  0.4260  0.1170 -0.4954
  919MOL0     H23998   0.135   0.473   6.466  0.1117  0.3207  2.7697
  919MOL0     H23999   0.026   0.245   6.412 -0.8168 -0.1867 -2.3488
  919MOL0     H24000   0.179  -0.178   6.320 -0.8353  0.5646 -1.3340
  919MOL0     H24001   0.310  -0.070   6.288 -0.5027  1.7431 -1.0037
  919MOL0     H24002   0.379  -0.059   6.515  0.9048 -0.9252  2.1108
  919MOL0     H24003   0.324  -0.233   6.501  0.6752  0.6853  0.8132
  919MOL0     H24004   0.109  -0.148   6.605  0.5067 -1.6200 -0.8322
  919MOL0     H24005   0.190   0.002   6.644  1.1397 -0.2580 -1.2631
  919MOL0     H24006   0.285  -0.278   6.723  2.4861  0.1017  0.2419
  919MOL0     H24007   0.381  -0.130   6.711 -0.7323 -0.4935 -1.2299
  919MOL0     H24008   0.243  -0.011   6.891 -0.0241  0.0128 -1.5485
  919MOL0     H24009   0.119  -0.124   6.864 -0.4006 -0.0938  1.6523
  919MOL0     H24010   0.257  -0.323   6.969 -1.9264  0.6572  1.8609
  919MOL0     H24011   0.388  -0.209   6.996 -0.6789  1.0985  0.4161
  919MOL0     H24012   0.101  -0.203   7.103  0.4200 -0.9025  1.6785
  919MOL0     H24013   0.220  -0.073   7.122  4.5857 -1.6390 -0.3554
  919MOL0     H24014   0.379  -0.218   7.240  1.1170  1.9264  2.2043
  919MOL0     H24015   0.240  -0.176   7.334  3.7790  0.4118  1.6107
  919MOL0     H24016   0.430  -0.485   7.199  0.4649  0.0023  4.0512
  919MOL0     H24017   0.368  -0.736   7.188  0.6939  0.9855  1.3466
  919MOL0     H24018   0.193  -0.778   7.222 -2.5884  2.8709  1.2737
  919MOL0     H24019   0.267  -0.836   6.983  3.9208 -0.1371  1.5483
  919MOL0     H24020   0.133  -0.719   7.001 -0.3669 -1.9927  1.5903
  919MOL0     H24021   0.416  -0.641   6.956 -0.9632 -2.0212  2.6063
  919MOL0     H24022   0.266  -0.540   6.939 -2.1702 -2.0872 -0.7186
  919MOL0     H24023   0.187  -0.677   6.743  2.0138  0.7437 -5.0573
  919MOL0     H24024   0.338  -0.757   6.744  0.2339  0.8315  0.7807
  919MOL0     H24025   0.479  -0.398   6.549 -0.0511 -0.2390 -0.6799
  919MOL0     H24026   0.712  -0.419   6.474 -1.9618  0.3954 -1.2209
  919MOL0     H24027   1.143  -0.533   6.737  1.2408  0.9085  1.6810
  919MOL0     H24028   1.359  -0.424   6.783  0.5903 -2.5394 -0.6057
  919MOL0     H24029   1.572  -0.399   6.702 -3.0092  0.2178 -1.0664
  919MOL0     H24030   1.602  -0.373   6.524  2.8915 -4.3973  1.6661
  919MOL0     H24031   1.715  -0.187   6.742  0.3470  1.5693 -0.6661
  919MOL0     H24032   1.802  -0.306   6.637  0.4593  0.8927 -3.8338
  919MOL0     H24033   1.764  -0.170   6.451  0.9607  1.1211 -0.7271
  919MOL0     H24034   1.648  -0.068   6.538  1.4145  2.2215 -2.2081
  919MOL0     H24035   1.945  -0.069   6.620 -1.5010 -2.2686  0.1432
  919MOL0     H24036   1.832   0.043   6.657  0.3231 -1.0243  1.0305
  919MOL0     H24037   1.797   0.123   6.408  1.4248  3.0532 -0.2648
  919MOL0     H24038   1.914  -0.004   6.363  1.3722  0.8498  0.8074
  919MOL0     H24039   1.962   0.241   6.398 -0.6891  0.0391 -0.1566
  919MOL0     H24040   1.968   0.203   6.575 -0.3439 -4.0926  2.6182
  919MOL0     H24041   2.165   0.041   6.516 -0.7324 -0.5214 -0.6010
  919MOL0     H24042   2.200   0.210   6.490 -1.9899  1.1162 -0.1622
  919MOL0     H24043   2.287   0.054   6.300  0.5623  0.2794  1.2848
  919MOL0     H24044   2.115   0.030   6.253 -1.0282  0.6339  1.2288
  919MOL0     H24045   1.329  -0.215   6.405  0.9554 -2.1578 -1.8762
  919MOL0     H24046   1.096  -0.299   6.387  0.3367  0.1065 -0.8206
  919MOL0     H24047   0.765  -0.738   6.763 -0.4942 -3.2552 -2.1183
  919MOL0     H24048   0.540  -0.764   6.775  0.0493 -0.6266 -1.4927
  919MOL0     H24049   0.431   0.103   6.338 -0.6753 -0.2306  0.1110
  919MOL0     H24050   0.514   0.299   6.392 -0.9386 -2.2111 -0.3488
  919MOL0     H24051   0.433   0.697   6.645 -1.3224  0.3174 -0.3843
  919MOL0     H24052   0.521   0.900   6.750 -0.3257  2.0868  0.0861
  919MOL0     H24053   0.721   1.264   6.686 -1.3886  0.7288 -1.6646
  919MOL0     H24054   0.758   1.137   6.567  2.2108  0.1354  1.6803
  919MOL0     H24055   0.858   1.079   6.785 -1.1744 -0.6206  2.6688
  919MOL0     H24056   0.722   0.975   6.754  1.6159 -0.6803 -1.6389
  919MOL0     H24057   0.570   1.125   6.895 -0.1659  1.4720  0.1374
  919MOL0     H24058   0.719   1.229   6.910  0.9911  0.9853  0.9430
  919MOL0     H24059   0.623   0.971   7.042 -1.2726  0.5389  1.4066
  919MOL0     H24060   0.803   0.996   7.027 -1.7810 -3.8206  3.5629
  919MOL0     H24061   0.665   1.282   7.324 -1.4293 -1.0800 -0.4359
  919MOL0     H24062   0.568   1.081   6.375  0.7253  1.6764  1.9081
  919MOL0     H24063   0.464   0.804   6.158  0.2879 -1.2636  1.4715
  919MOL0     H24064   0.345   0.922   6.208 -0.3877 -2.5500  0.0528
  919MOL0     H24065   0.516   0.968   6.171  2.9558 -1.8005 -0.1440
  920MOL0     O24066   4.412   9.952   2.204  0.0492 -0.1321 -0.4848
  920MOL0     C24067   4.462   9.863   2.145 -0.4941 -0.9564  0.2827
  920MOL0     O24068   4.459   9.846   2.009  0.4243  0.2773 -0.2603
  920MOL0     C24069   4.410   9.943   1.918 -0.6458 -1.0124  1.0909
  920MOL0     C24070   4.335  10.053   1.940  0.1559 -0.3247  0.6354
  920MOL0     C24071   4.270  10.115   1.835  0.5933  0.1316  1.1619
  920MOL0     C24072   4.292  10.082   1.704  0.2743 -0.8021  0.3065
  920MOL0     O24073   4.222  10.158   1.617  0.7550 -0.0999  0.4467
  920MOL0     C24074   4.211  10.129   1.476 -0.4983 -0.2445 -0.8785
  920MOL0     C24075   4.083  10.201   1.441  0.2646 -0.0746  0.3638
  920MOL0     C24076   4.059  10.219   1.292  0.5941 -0.4855  0.0245
  920MOL0     C24077   3.914  10.264   1.258  0.2218  0.1321  0.1244
  920MOL0     C24078   3.886  10.406   1.296  1.3272 -0.6527  0.7462
  920MOL0     C24079   3.728  10.433   1.290 -1.0116  0.9142 -0.0700
  920MOL0     C24080   3.651  10.428   1.418 -0.0248 -0.8953  0.3250
  920MOL0     C24081   3.507  10.457   1.391 -0.1026 -0.1208  1.1255
  920MOL0     N24082   3.442  10.356   1.310 -0.2909  0.0576 -0.4441
  920MOL0     C24083   3.468  10.223   1.321 -0.0941  0.1033  0.4803
  920MOL0     C24084   3.409  10.162   1.217 -0.0333  0.1922 -0.0672
  920MOL0     C24085   3.428  10.012   1.177 -0.5581  1.2695  0.1661
  920MOL0     C24086   3.570   9.947   1.182  0.4399  0.2918 -0.3597
  920MOL0     C24087   3.577   9.796   1.171  0.2252 -0.5020  0.6292
  920MOL0     C24088   3.735   9.770   1.158 -0.2272  0.4401 -0.5212
  920MOL0     O24089   3.802   9.774   1.290 -0.1846  0.1720  0.0054
  920MOL0     C24090   3.912   9.694   1.327  0.2534 -0.3816  1.1278
  920MOL0     C24091   3.963   9.583   1.266 -0.6750  0.2732  0.0537
  920MOL0     C24092   4.074   9.514   1.321  0.5545  0.4137 -0.0456
  920MOL0     C24093   4.120   9.541   1.446  0.0730 -0.4719 -0.0193
  920MOL0     C24094   4.216   9.448   1.506  0.4047 -0.1255  0.5371
  920MOL0     O24095   4.251   9.335   1.434  0.4481 -0.1558  0.1305
  920MOL0     C24096   4.296   9.230   1.501  0.1254  0.2053 -0.1353
  920MOL0     C24097   4.425   9.219   1.551 -0.0445 -0.2912 -0.0093
  920MOL0     C24098   4.471   9.099   1.605  1.1077  1.3752 -0.5992
  920MOL0     C24099   4.385   8.982   1.626  0.1946 -0.9385  0.0212
  920MOL0     O24100   4.436   8.878   1.693  0.7766  0.9721 -0.0824
  920MOL0     C24101   4.345   8.849   1.800  0.5558 -0.2963  0.1501
  920MOL0     C24102   4.400   8.750   1.895 -0.8299 -0.3796  0.2356
  920MOL0     C24103   4.389   8.617   1.837  1.4566  0.3883 -0.1183
  920MOL0     C24104   4.472   8.506   1.910  0.7408  0.2705 -0.2454
  920MOL0     C24105   4.422   8.461   2.045 -0.2799  0.0121 -0.0771
  920MOL0     C24106   4.280   8.390   2.031 -0.3598  0.3819  0.6407
  920MOL0     C24107   4.250   8.300   2.149 -0.5793 -0.1628 -0.4358
  920MOL0     C24108   4.111   8.248   2.136  0.0036  0.0395  0.5169
  920MOL0    Cl24109   4.049   8.164   2.272  0.1898  0.0495 -0.2084
  920MOL0     C24110   4.257   8.994   1.581  0.7639  0.0115 -0.4136
  920MOL0     C24111   4.206   9.117   1.525 -0.7601 -0.0213  0.0923
  920MOL0     O24112   4.239   9.475   1.627 -0.3229  0.7818  0.6634
  920MOL0     C24113   4.082   9.667   1.497  0.3488  0.7591 -0.3637
  920MOL0     C24114   3.980   9.743   1.439  0.3965  0.6127 -0.5688
  920MOL0     N24115   3.354  10.265   1.145 -0.0803  0.0364  0.3008
  920MOL0     N24116   3.378  10.384   1.195 -0.0019  0.0228 -0.3327
  920MOL0     C24117   4.385   9.982   1.676 -0.4821 -0.0367  0.8970
  920MOL0     C24118   4.442   9.909   1.782  0.1095 -0.6659 -1.0155
  920MOL0     C24119   4.542   9.766   2.224 -0.0055 -0.2841  0.2762
  920MOL0     C24120   4.651   9.714   2.158 -0.4798 -0.0108 -0.1790
  920MOL0     C24121   4.749   9.636   2.221  0.2044  0.4908  0.6420
  920MOL0     C24122   4.732   9.609   2.358 -0.4353  0.0189 -0.0764
  920MOL0     O24123   4.820   9.522   2.411 -0.0825  0.7913 -0.2128
  920MOL0     C24124   4.792   9.439   2.526 -0.0818  0.3195  1.5366
  920MOL0     C24125   4.926   9.425   2.597 -0.8128 -0.1614 -0.7116
  920MOL0     C24126   4.907   9.378   2.742  0.1511 -0.2250  0.2588
  920MOL0     C24127   4.892   9.498   2.841 -0.5906 -0.0487 -0.3378
  920MOL0     C24128   5.009   9.587   2.833  0.8032  0.1309  0.1733
  920MOL0     C24129   5.100   9.657   2.820  0.6204  0.3432 -0.6454
  920MOL0     C24130   4.629   9.667   2.429 -0.2742 -1.1204  0.1338
  920MOL0     C24131   4.530   9.748   2.361 -0.3258 -0.7356 -1.1174
  920MOL0     C24132   4.415   9.804   2.439  0.5290  0.6402  0.7664
  920MOL0     H24133   4.307  10.086   2.040  1.8731 -0.8024  1.3129
  920MOL0     H24134   4.200  10.188   1.875  2.1369  1.7764  0.9820
  920MOL0     H24135   4.292  10.177   1.420  0.0480  0.4105  0.4137
  920MOL0     H24136   4.200  10.024   1.447  0.5925 -0.1501 -1.7115
  920MOL0     H24137   4.080  10.299   1.488 -3.1555 -0.4315  1.1497
  920MOL0     H24138   3.997  10.146   1.480 -0.1694  0.3902  0.0650
  920MOL0     H24139   4.081  10.123   1.243 -1.9971 -3.0215  3.3095
  920MOL0     H24140   4.131  10.294   1.260 -0.1446 -0.3840 -1.4819
  920MOL0     H24141   3.878  10.264   1.154 -0.2570  2.8674  0.2235
  920MOL0     H24142   3.838  10.203   1.307  2.0734 -3.0061 -0.6240
  920MOL0     H24143   3.918  10.426   1.399  0.5434 -0.3694  0.9426
  920MOL0     H24144   3.931  10.479   1.227 -1.3644  0.9875  0.5725
  920MOL0     H24145   3.713  10.533   1.247  3.5845  0.9928 -2.0473
  920MOL0     H24146   3.685  10.363   1.219  1.0219  0.3558 -0.8308
  920MOL0     H24147   3.698  10.505   1.480 -0.4558 -1.4064  1.3195
  920MOL0     H24148   3.660  10.332   1.471 -2.3313 -1.3240  0.0611
  920MOL0     H24149   3.452  10.459   1.485 -1.0706 -1.1876  0.6083
  920MOL0     H24150   3.500  10.557   1.347  1.0302 -0.7486 -0.5976
  920MOL0     H24151   3.535  10.173   1.389  0.3076 -1.1957 -0.8232
  920MOL0     H24152   3.359   9.963   1.247  0.0335  4.0363  2.9047
  920MOL0     H24153   3.394   9.999   1.074 -0.3341  1.2313  0.0967
  920MOL0     H24154   3.626   9.995   1.101 -0.7925  0.3298 -1.2025
  920MOL0     H24155   3.603   9.967   1.285  2.8439  0.6810 -1.1249
  920MOL0     H24156   3.517   9.763   1.086  3.0746  0.1590 -1.8120
  920MOL0     H24157   3.541   9.742   1.259 -2.9547  0.2588 -0.0932
  920MOL0     H24158   3.776   9.837   1.082  2.3466  0.1982  0.5671
  920MOL0     H24159   3.732   9.667   1.122 -2.2761  1.3930 -3.4283
  920MOL0     H24160   3.909   9.545   1.180 -1.7227  0.6786  0.5156
  920MOL0     H24161   4.112   9.428   1.267  2.8485  2.6735 -2.3008
  920MOL0     H24162   4.502   9.295   1.539  1.4990 -1.9126 -0.7871
  920MOL0     H24163   4.573   9.077   1.637  0.9400  0.8991 -0.3744
  920MOL0     H24164   4.314   8.942   1.847 -0.6206 -1.1076  1.0149
  920MOL0     H24165   4.256   8.803   1.756  0.6335  2.0494 -2.8617
  920MOL0     H24166   4.502   8.777   1.926 -0.2059 -0.0774 -1.9066
  920MOL0     H24167   4.336   8.756   1.983 -1.6518  2.4159 -0.4472
  920MOL0     H24168   4.288   8.577   1.849  1.6613  0.4128  2.1481
  920MOL0     H24169   4.423   8.612   1.734 -1.8147 -1.0602 -1.2428
  920MOL0     H24170   4.576   8.539   1.922  1.7322 -2.5407 -0.3208
  920MOL0     H24171   4.475   8.416   1.849  0.7163  1.1238 -1.5554
  920MOL0     H24172   4.409   8.544   2.116 -1.0463  1.2921 -1.6494
  920MOL0     H24173   4.494   8.392   2.090 -0.2205  1.3849  2.0758
  920MOL0     H24174   4.196   8.460   2.020 -2.1905 -1.7442  0.2645
  920MOL0     H24175   4.286   8.334   1.938 -0.8634 -2.5471  2.2534
  920MOL0     H24176   4.289   8.335   2.245  1.1056  0.9447 -1.4705
  920MOL0     H24177   4.306   8.208   2.131  0.6387  0.3229  0.7118
  920MOL0     H24178   4.039   8.330   2.131  0.6550  0.5658 -0.5140
  920MOL0     H24179   4.105   8.181   2.050  3.0571  1.2020 -0.7532
  920MOL0     H24180   4.182   8.916   1.584  1.0376 -0.4144 -2.8603
  920MOL0     H24181   4.109   9.133   1.481 -0.2264  0.6119 -0.8805
  920MOL0     H24182   4.144   9.699   1.580 -1.0186  1.0083  0.5815
  920MOL0     H24183   3.953   9.842   1.474  0.6412  0.5701 -0.2502
  920MOL0     H24184   4.415   9.959   1.574 -1.8530  0.2012  0.4103
  920MOL0     H24185   4.503   9.821   1.767 -1.0709 -1.1010 -3.9908
  920MOL0     H24186   4.662   9.731   2.051  0.8026  2.8983  0.3138
  920MOL0     H24187   4.814   9.586   2.151  0.1685 -0.6001  1.3587
  920MOL0     H24188   4.749   9.345   2.491  0.3352  0.1998  1.3302
  920MOL0     H24189   4.722   9.483   2.597 -1.6835 -1.7548  1.3469
  920MOL0     H24190   4.985   9.517   2.590  0.1903 -0.3728  2.8935
  920MOL0     H24191   4.984   9.348   2.544 -0.0681  1.8785 -3.0245
  920MOL0     H24192   4.991   9.314   2.772  2.8378  1.5758 -2.7573
  920MOL0     H24193   4.817   9.316   2.737  0.2518 -0.2751 -2.4211
  920MOL0     H24194   4.802   9.553   2.811  1.1891  2.6732 -0.9594
  920MOL0     H24195   4.874   9.468   2.945  0.9229 -1.4989 -0.4448
  920MOL0     H24196   5.182   9.724   2.806  1.5426 -0.4771  0.5544
  920MOL0     H24197   4.614   9.656   2.536 -0.1801 -1.6334  0.0976
  920MOL0     H24198   4.328   9.801   2.372 -0.4588  4.1310  1.6960
  920MOL0     H24199   4.411   9.731   2.520  0.7427  0.0097  0.2142
  920MOL0     H24200   4.432   9.906   2.475 -1.4237  0.3456  2.7096
  921MOL0     O24201   1.797   1.008   6.337 -0.0167  0.5664 -0.8065
  921MOL0     C24202   1.704   0.994   6.259 -0.6623 -0.0884 -0.0350
  921MOL0     O24203   1.619   0.877   6.244 -0.5710 -0.6618 -0.4379
  921MOL0     C24204   1.646   0.784   6.340 -0.3793  0.2284 -0.1420
  921MOL0     C24205   1.702   0.666   6.300 -0.8905  0.6606  0.1487
  921MOL0     C24206   1.725   0.567   6.395  0.3201 -0.2231 -0.2982
  921MOL0     C24207   1.686   0.587   6.530  0.2676 -0.1200 -0.0402
  921MOL0     O24208   1.683   0.487   6.625  0.2237 -0.6002 -0.3061
  921MOL0     C24209   1.643   0.355   6.576 -0.6484  0.7908  0.3717
  921MOL0     C24210   1.622   0.266   6.698 -0.2638  0.0499  0.3869
  921MOL0     C24211   1.527   0.325   6.809  0.6959  0.1998  0.3551
  921MOL0     C24212   1.386   0.345   6.749  0.3848  0.0812  0.3173
  921MOL0     C24213   1.266   0.348   6.846  0.1140  0.2236 -0.3265
  921MOL0     C24214   1.243   0.215   6.912 -1.0142  0.0532  0.3785
  921MOL0     C24215   1.114   0.210   6.992 -0.8246 -0.1395 -0.3772
  921MOL0     C24216   1.120   0.297   7.121 -0.2212  0.2485 -0.2538
  921MOL0     N24217   0.988   0.314   7.176  0.2344  0.7953 -0.5657
  921MOL0     C24218   0.951   0.260   7.295  0.1969  0.5601  0.3907
  921MOL0     C24219   0.829   0.313   7.330  0.3210 -0.1304  0.9260
  921MOL0     C24220   0.764   0.285   7.456 -1.2504 -0.3481 -0.5164
  921MOL0     C24221   0.755   0.137   7.498 -0.1280  0.1170 -0.5575
  921MOL0     C24222   0.724   0.121   7.654 -0.6397 -0.3385  0.4224
  921MOL0     C24223   0.744  -0.021   7.712  0.7060 -0.5001  1.3445
  921MOL0     O24224   0.877  -0.070   7.688 -0.1672  0.1432 -0.2948
  921MOL0     C24225   0.893  -0.205   7.713  0.0704 -0.3939  0.3221
  921MOL0     C24226   0.802  -0.283   7.778  1.4713 -0.1759  0.9645
  921MOL0     C24227   0.846  -0.422   7.807  0.3865 -0.6861  0.6732
  921MOL0     C24228   0.967  -0.475   7.759  1.1578  0.4657 -1.3817
  921MOL0     C24229   1.007  -0.621   7.792  0.1558  0.3944 -0.2543
  921MOL0     O24230   0.913  -0.699   7.849 -0.0589 -0.3352  0.1042
  921MOL0     C24231   0.954  -0.822   7.893  0.3432  0.5254 -0.2712
  921MOL0     C24232   0.891  -0.942   7.873  0.5030 -0.4764  0.4550
  921MOL0     C24233   0.946  -1.061   7.925  0.9812  0.2764 -0.7995
  921MOL0     C24234   1.061  -1.063   8.013  0.4068  0.5321 -0.9989
  921MOL0     O24235   1.102  -1.175   8.074 -0.3682 -0.3396  0.0559
  921MOL0     C24236   1.017  -1.290   8.082 -0.2906  0.7936 -0.6025
  921MOL0     C24237   0.885  -1.276   8.159  0.4522 -0.9943  0.5153
  921MOL0     C24238   0.914  -1.237   8.305 -0.2171  0.3724 -1.2516
  921MOL0     C24239   0.805  -1.286   8.406 -0.2300  0.4381 -0.1111
  921MOL0     C24240   0.833  -1.231   8.543 -1.0229  0.3956 -0.5428
  921MOL0     C24241   0.971  -1.245   8.597  0.0435  0.3009 -0.2644
  921MOL0     C24242   0.960  -1.260   8.755  0.2507  0.5044  0.0097
  921MOL0     C24243   1.091  -1.259   8.832 -0.1392  0.4977  0.2281
  921MOL0    Cl24244   1.177  -1.431   8.821  0.5984 -0.4664  0.0155
  921MOL0     C24245   1.117  -0.936   8.045 -1.5584 -0.5957 -0.3263
  921MOL0     C24246   1.065  -0.819   7.987 -0.3620  0.2529 -0.2240
  921MOL0     O24247   1.112  -0.661   7.747 -0.0432 -0.3712 -0.0762
  921MOL0     C24248   1.043  -0.394   7.689  0.0781 -0.5275 -0.1015
  921MOL0     C24249   1.010  -0.264   7.665 -0.4631 -0.1353 -0.9575
  921MOL0     N24250   0.788   0.390   7.215  0.0875  0.4585  0.0218
  921MOL0     N24251   0.885   0.384   7.126 -0.6621 -0.3878  0.9717
  921MOL0     C24252   1.633   0.707   6.570 -0.4441  0.4513 -0.1417
  921MOL0     C24253   1.611   0.805   6.475 -0.5315 -1.1025  0.8090
  921MOL0     C24254   1.682   1.109   6.167 -0.1598 -0.0270 -0.2120
  921MOL0     C24255   1.692   1.243   6.216 -0.2730  0.7502 -0.4369
  921MOL0     C24256   1.669   1.341   6.122 -0.0618 -0.2764  0.2111
  921MOL0     C24257   1.637   1.326   5.987 -0.5795  0.4890 -0.3986
  921MOL0     O24258   1.613   1.427   5.896  0.4216  0.0887 -0.3500
  921MOL0     C24259   1.614   1.567   5.936  0.0257  0.3409  0.7899
  921MOL0     C24260   1.625   1.636   5.800  0.1474 -1.1140 -0.2016
  921MOL0     C24261   1.752   1.607   5.716  0.3191 -0.0625  0.1302
  921MOL0     C24262   1.757   1.686   5.586 -0.2479  0.1143  1.0979
  921MOL0     C24263   1.856   1.637   5.495 -0.5657  0.6159  0.8658
  921MOL0     C24264   1.936   1.593   5.417 -0.3109 -0.9830  0.5221
  921MOL0     C24265   1.657   1.196   5.937  0.4249  0.6190 -0.4333
  921MOL0     C24266   1.663   1.085   6.025 -0.2335 -0.1446  0.1281
  921MOL0     C24267   1.677   0.956   5.956 -1.3956 -0.6622  0.1948
  921MOL0     H24268   1.735   0.646   6.199 -2.6918  0.0122 -0.3518
  921MOL0     H24269   1.761   0.470   6.364  1.6500 -0.3687  1.4789
  921MOL0     H24270   1.561   0.341   6.505  1.3658 -4.3572 -1.4186
  921MOL0     H24271   1.728   0.307   6.526  1.3108  1.5391  2.8079
  921MOL0     H24272   1.725   0.259   6.736 -0.1187 -0.9900 -0.1721
  921MOL0     H24273   1.598   0.168   6.657  1.6197  0.6049 -2.3683
  921MOL0     H24274   1.558   0.423   6.847 -4.1933  1.2903  2.2835
  921MOL0     H24275   1.536   0.255   6.892  2.9315  0.9220  0.7804
  921MOL0     H24276   1.386   0.445   6.702 -0.4217  1.3057  2.7541
  921MOL0     H24277   1.360   0.265   6.679  0.3591 -0.3410  0.8076
  921MOL0     H24278   1.274   0.423   6.925 -3.8109  0.0238  0.4796
  921MOL0     H24279   1.167   0.364   6.803 -1.4356 -0.8001  2.5155
  921MOL0     H24280   1.227   0.141   6.834 -0.2364 -0.0680  0.3186
  921MOL0     H24281   1.333   0.171   6.958 -0.5644 -1.1450 -1.5463
  921MOL0     H24282   1.088   0.108   7.022  0.2088  0.0939  1.4789
  921MOL0     H24283   1.030   0.239   6.927  0.3304  2.2454 -0.9148
  921MOL0     H24284   1.187   0.245   7.190  0.8761  2.8426  0.7672
  921MOL0     H24285   1.162   0.396   7.099 -1.1764  0.6095 -0.5006
  921MOL0     H24286   1.000   0.194   7.367  1.4851  0.7728 -0.2533
  921MOL0     H24287   0.822   0.335   7.535 -0.2392 -1.8001 -0.2835
  921MOL0     H24288   0.662   0.323   7.451 -0.4023  1.9552 -1.4839
  921MOL0     H24289   0.670   0.100   7.440  0.6829  3.6550 -4.4642
  921MOL0     H24290   0.850   0.088   7.473 -0.9364 -1.5861 -0.4396
  921MOL0     H24291   0.627   0.169   7.671 -0.6304  0.2235 -1.0045
  921MOL0     H24292   0.792   0.185   7.712  2.3143  0.1058 -3.1112
  921MOL0     H24293   0.667  -0.090   7.675 -0.4462  0.6840  1.4224
  921MOL0     H24294   0.733  -0.020   7.821  0.5638  1.4771  1.3459
  921MOL0     H24295   0.708  -0.256   7.827 -1.2411  0.2774 -3.9083
  921MOL0     H24296   0.777  -0.476   7.872  2.7949  1.5577  5.6185
  921MOL0     H24297   0.797  -0.942   7.819  2.3245  2.8747 -3.2175
  921MOL0     H24298   0.887  -1.149   7.901  0.8753  1.2280 -4.6072
  921MOL0     H24299   0.985  -1.323   7.983  0.0882 -0.9952 -0.1696
  921MOL0     H24300   1.056  -1.377   8.136 -0.7047  0.2525 -1.1618
  921MOL0     H24301   0.826  -1.199   8.109  1.7092 -1.3500 -1.6339
  921MOL0     H24302   0.838  -1.374   8.157 -0.1571 -0.7195 -1.8967
  921MOL0     H24303   1.013  -1.276   8.331  0.1514  2.2857  0.5097
  921MOL0     H24304   0.924  -1.128   8.314  0.4535  0.2126  0.1383
  921MOL0     H24305   0.812  -1.395   8.413  2.5249  0.5475  0.0080
  921MOL0     H24306   0.708  -1.243   8.379 -0.6110  0.7967  1.6946
  921MOL0     H24307   0.757  -1.270   8.611 -0.3633  1.5976  0.9349
  921MOL0     H24308   0.813  -1.124   8.551 -1.1894  0.2807  0.9177
  921MOL0     H24309   1.005  -1.346   8.573 -2.1097 -0.4919 -0.1323
  921MOL0     H24310   1.037  -1.167   8.557 -1.3588  0.6452 -2.0449
  921MOL0     H24311   0.916  -1.356   8.782  1.7273  0.1944  1.4910
  921MOL0     H24312   0.895  -1.182   8.794  0.1650  0.5796 -0.2799
  921MOL0     H24313   1.162  -1.186   8.791  0.9899 -1.1830 -0.9332
  921MOL0     H24314   1.073  -1.227   8.936 -1.8522  1.4393 -0.3127
  921MOL0     H24315   1.201  -0.932   8.112 -0.0374  2.0465 -2.1717
  921MOL0     H24316   1.107  -0.725   8.020 -2.4124  0.8096  0.9991
  921MOL0     H24317   1.130  -0.436   7.640  0.5165  1.9902 -1.6623
  921MOL0     H24318   1.073  -0.208   7.597 -1.7574 -0.4894 -2.5326
  921MOL0     H24319   1.582   0.712   6.666 -0.5869 -3.0303  0.0908
  921MOL0     H24320   1.551   0.890   6.506 -0.4080 -1.2712  1.5312
  921MOL0     H24321   1.703   1.256   6.323  0.5025  1.2913 -0.5804
  921MOL0     H24322   1.659   1.438   6.170  2.1184 -0.1104  0.4392
  921MOL0     H24323   1.699   1.587   6.002  0.9364 -1.1451  0.1100
  921MOL0     H24324   1.523   1.603   5.985  1.4343  0.2813  3.5947
  921MOL0     H24325   1.630   1.742   5.827 -1.2190  0.4937 -5.0967
  921MOL0     H24326   1.540   1.619   5.733 -0.5787  0.1234  0.3822
  921MOL0     H24327   1.755   1.500   5.695  1.5492 -0.0766  0.2829
  921MOL0     H24328   1.847   1.632   5.764  2.1675 -0.1671 -3.1779
  921MOL0     H24329   1.659   1.699   5.539  1.1548  1.7034 -1.6345
  921MOL0     H24330   1.796   1.783   5.619  0.5545  1.4031 -3.1284
  921MOL0     H24331   2.002   1.567   5.337 -1.4524  0.2019 -0.8627
  921MOL0     H24332   1.651   1.182   5.830  1.7929  3.4951 -0.9738
  921MOL0     H24333   1.745   0.983   5.874 -1.3865  3.7094  1.3702
  921MOL0     H24334   1.715   0.872   6.015  0.5189  0.3929  0.5383
  921MOL0     H24335   1.597   0.918   5.892  1.3796 -1.5304 -3.0815
  922MOL0     O24336  10.245   0.656   8.789  0.5010 -0.0975 -0.1431
  922MOL0     C24337  10.322   0.650   8.691  1.4470 -0.4926  0.7069
  922MOL0     O24338  10.430   0.734   8.668 -0.8690 -0.3865  0.1689
  922MOL0     C24339  10.437   0.847   8.749 -0.2821 -0.1790  0.7997
  922MOL0     C24340  10.554   0.875   8.830  0.8428  0.0135  1.1240
  922MOL0     C24341  10.559   0.991   8.908  0.4549  0.3374 -0.1806
  922MOL0     C24342  10.468   1.092   8.896 -0.2091 -0.4220  0.0912
  922MOL0     O24343  10.489   1.205   8.981  0.3231  0.6086  0.0437
  922MOL0     C24344  10.441   1.326   8.923 -0.5674 -0.1733  0.2095
  922MOL0     C24345  10.533   1.442   8.940 -0.2658  0.4379  0.4447
  922MOL0     C24346  10.563   1.476   9.091 -0.4053 -0.8816 -0.0950
  922MOL0     C24347  10.452   1.576   9.144  0.2943  0.0513 -0.4193
  922MOL0     C24348  10.479   1.605   9.293 -0.2892 -0.6913 -0.3063
  922MOL0     C24349  10.419   1.734   9.355  1.0425  0.5372 -0.3169
  922MOL0     C24350  10.452   1.869   9.296 -0.0393  0.3851 -0.0625
  922MOL0     C24351  10.604   1.888   9.264  0.2050 -0.6609 -0.2935
  922MOL0     N24352  10.623   2.028   9.245  0.2157 -0.8531  0.5439
  922MOL0     C24353  10.749   2.080   9.244 -0.0861  0.5854 -1.0292
  922MOL0     C24354  10.724   2.212   9.204 -0.8710 -0.3666 -0.5327
  922MOL0     C24355  10.833   2.312   9.188 -0.0011  1.1950 -0.0873
  922MOL0     C24356  10.796   2.402   9.065  0.6528 -0.5388 -0.0076
  922MOL0     C24357  10.735   2.541   9.119 -0.4387  0.1292 -1.2808
  922MOL0     C24358  10.828   2.619   9.226  0.5104  0.5271  1.2249
  922MOL0     O24359  10.799   2.751   9.188  0.0116  0.0178 -0.7646
  922MOL0     C24360  10.909   2.807   9.119 -0.8669 -0.5458  0.5607
  922MOL0     C24361  10.961   2.932   9.168  0.7012  0.9649  0.2470
  922MOL0     C24362  11.072   2.992   9.109  0.7204  1.2735 -0.4780
  922MOL0     C24363  11.132   2.939   8.999 -0.2762  0.2012 -0.3694
  922MOL0     C24364  11.264   2.992   8.950 -0.8780 -0.8697  0.4322
  922MOL0     O24365  11.325   2.931   8.838  0.4857  0.2266  0.7382
  922MOL0     C24366  11.443   2.987   8.799 -0.2677 -0.5384  0.6922
  922MOL0     C24367  11.446   2.998   8.656 -0.0787  0.2189  0.5887
  922MOL0     C24368  11.565   3.044   8.589 -0.0883 -0.2972 -0.5974
  922MOL0     C24369  11.682   3.078   8.663 -0.0332 -0.2522 -0.3500
  922MOL0     O24370  11.801   3.135   8.616  0.1686 -0.5833  0.0582
  922MOL0     C24371  11.908   3.037   8.610  0.9791 -0.0400  0.2244
  922MOL0     C24372  12.033   3.124   8.599 -0.3927  0.3056  0.2632
  922MOL0     C24373  12.137   3.075   8.494  0.0687 -0.3348 -0.1057
  922MOL0     C24374  12.268   3.155   8.500  0.9778 -0.8921 -0.9506
  922MOL0     C24375  12.377   3.111   8.406  0.5581 -0.2707 -0.4546
  922MOL0     C24376  12.368   3.195   8.278 -0.5696  0.3476 -0.1738
  922MOL0     C24377  12.470   3.146   8.180 -0.4050 -0.9401  0.6846
  922MOL0     C24378  12.419   3.147   8.031 -0.5619 -0.3552 -0.7728
  922MOL0    Cl24379  12.548   3.082   7.936 -0.1749  0.2567  0.1599
  922MOL0     C24380  11.682   3.058   8.797 -0.0282  0.6215 -0.5274
  922MOL0     C24381  11.566   3.021   8.867  0.3535  0.7434  0.2133
  922MOL0     O24382  11.316   3.083   9.012 -0.4037 -0.5764 -0.1925
  922MOL0     C24383  11.070   2.818   8.947 -0.6663 -0.1095  0.1537
  922MOL0     C24384  10.965   2.758   9.004  0.2011  0.1581  0.0954
  922MOL0     N24385  10.588   2.230   9.194 -0.2596 -0.3424  0.7377
  922MOL0     N24386  10.530   2.119   9.198  0.4248  0.1268  0.3687
  922MOL0     C24387  10.354   1.072   8.816 -0.0162  0.4137  0.5019
  922MOL0     C24388  10.338   0.944   8.751  0.9123 -0.5224  0.6718
  922MOL0     C24389  10.305   0.543   8.600 -0.4278  0.1781 -0.7492
  922MOL0     C24390  10.179   0.510   8.566  0.7149  0.7802 -0.4807
  922MOL0     C24391  10.151   0.412   8.468  0.3906  1.0272  0.4835
  922MOL0     C24392  10.252   0.343   8.399 -0.2795 -0.0871 -1.5728
  922MOL0     O24393  10.206   0.258   8.305  0.4516  0.2641  0.2769
  922MOL0     C24394  10.305   0.180   8.236 -0.9532 -0.0299 -0.8195
  922MOL0     C24395  10.228   0.115   8.126  0.1560  0.9105  0.1318
  922MOL0     C24396  10.208   0.206   7.998 -0.0914  0.3544  0.1996
  922MOL0     C24397  10.151   0.116   7.893  0.0941 -0.2746  0.9925
  922MOL0     C24398  10.136   0.216   7.782  0.0723 -0.1186  0.1238
  922MOL0     C24399  10.109   0.298   7.697 -0.2715 -0.2791  0.1339
  922MOL0     C24400  10.387   0.390   8.427  0.1273 -0.3778 -0.9955
  922MOL0     C24401  10.417   0.485   8.529 -0.3557 -0.3685  0.0124
  922MOL0     C24402  10.558   0.521   8.566  0.0768 -0.4263 -0.7307
  922MOL0     H24403  10.635   0.803   8.821 -0.1678 -1.0377  0.1091
  922MOL0     H24404  10.650   1.010   8.964  0.7327  0.1023 -0.5424
  922MOL0     H24405  10.442   1.322   8.813  0.5261 -1.2432  0.2390
  922MOL0     H24406  10.341   1.346   8.962 -0.7126  1.5321 -0.8939
  922MOL0     H24407  10.491   1.534   8.897  0.4267  0.4836 -0.1559
  922MOL0     H24408  10.626   1.438   8.884  0.4409  0.8922  1.5593
  922MOL0     H24409  10.654   1.536   9.085 -1.3163  0.4023 -2.2111
  922MOL0     H24410  10.571   1.386   9.153 -2.0449 -2.8099 -2.4701
  922MOL0     H24411  10.473   1.668   9.090  1.3708 -1.3705 -2.5865
  922MOL0     H24412  10.348   1.543   9.136  0.5226 -1.2219  1.1895
  922MOL0     H24413  10.436   1.524   9.353  1.8003 -0.4326  1.6440
  922MOL0     H24414  10.586   1.604   9.315  0.6565 -0.6814 -4.1221
  922MOL0     H24415  10.311   1.737   9.339  1.1875  1.7113 -1.2365
  922MOL0     H24416  10.433   1.739   9.463 -0.8879 -1.0568  0.0684
  922MOL0     H24417  10.406   1.946   9.359 -0.2061 -0.2403  0.5869
  922MOL0     H24418  10.398   1.867   9.201  0.7605 -1.9992 -0.5219
  922MOL0     H24419  10.659   1.860   9.354  0.2367  0.8804  0.1974
  922MOL0     H24420  10.620   1.826   9.176  0.0857 -1.1501  0.0256
  922MOL0     H24421  10.843   2.034   9.274 -1.4182 -1.2192  0.6650
  922MOL0     H24422  10.845   2.377   9.275  3.9709  1.4981 -0.6845
  922MOL0     H24423  10.926   2.255   9.178  0.1618 -0.0477  5.3180
  922MOL0     H24424  10.877   2.414   8.992  1.3587 -1.1001  0.6603
  922MOL0     H24425  10.709   2.358   9.016  2.2443 -0.3532 -3.2686
  922MOL0     H24426  10.642   2.524   9.175 -0.5506  1.8452 -0.8921
  922MOL0     H24427  10.716   2.604   9.031  0.4171 -0.8219 -2.1843
  922MOL0     H24428  10.932   2.587   9.218  1.0304  2.0313  1.7890
  922MOL0     H24429  10.803   2.599   9.330  0.9229 -0.5917  1.1280
  922MOL0     H24430  10.914   2.980   9.252  0.7110 -1.0382  1.4707
  922MOL0     H24431  11.099   3.082   9.164  0.7491  0.6579  0.5278
  922MOL0     H24432  11.357   2.974   8.599  0.6016  1.4195 -1.0869
  922MOL0     H24433  11.563   3.067   8.483  1.0140  2.0057 -0.1748
  922MOL0     H24434  11.920   2.962   8.689  2.1680 -2.7367 -2.3251
  922MOL0     H24435  11.887   2.978   8.520  0.0119  4.2026 -2.5877
  922MOL0     H24436  12.013   3.226   8.565 -1.0207  0.0078 -0.2913
  922MOL0     H24437  12.067   3.129   8.703 -1.7798 -1.4425  0.8512
  922MOL0     H24438  12.150   2.969   8.517 -0.3691 -0.1038  1.3128
  922MOL0     H24439  12.094   3.078   8.393 -0.5303  0.4605  0.1688
  922MOL0     H24440  12.301   3.139   8.603  1.4973  0.5277 -0.8749
  922MOL0     H24441  12.258   3.264   8.501  1.0981 -0.8466  1.7827
  922MOL0     H24442  12.371   3.003   8.385  1.5253 -1.0821  2.8279
  922MOL0     H24443  12.470   3.125   8.462  1.2330 -1.2061 -1.3222
  922MOL0     H24444  12.266   3.183   8.241 -1.5133  0.4749  2.2533
  922MOL0     H24445  12.390   3.301   8.287 -0.0581  0.3365 -1.0789
  922MOL0     H24446  12.509   3.049   8.212  3.8627 -0.1768 -1.5631
  922MOL0     H24447  12.553   3.217   8.182 -1.0393  0.0855 -2.8468
  922MOL0     H24448  12.333   3.079   8.030  0.4147 -1.6902  0.8832
  922MOL0     H24449  12.400   3.248   7.993 -0.8613 -0.4489 -0.8741
  922MOL0     H24450  11.765   3.085   8.861 -0.3529  3.2906 -1.1152
  922MOL0     H24451  11.556   3.008   8.975 -0.1441 -1.2937 -0.0295
  922MOL0     H24452  11.100   2.772   8.853 -1.0048 -1.1130  0.5208
  922MOL0     H24453  10.905   2.680   8.959 -2.1234  0.4984  2.3575
  922MOL0     H24454  10.279   1.150   8.806 -1.3502 -1.0605 -2.3036
  922MOL0     H24455  10.250   0.932   8.688  0.3180 -1.8939  1.6963
  922MOL0     H24456  10.105   0.560   8.629 -1.2211 -1.2401 -1.0266
  922MOL0     H24457  10.047   0.394   8.440  0.2916  1.8641  0.2904
  922MOL0     H24458  10.344   0.107   8.307  2.8300  0.5119 -2.1387
  922MOL0     H24459  10.381   0.247   8.195 -0.0079  0.4798  1.6047
  922MOL0     H24460  10.129   0.077   8.154  0.8104 -0.8715  0.1405
  922MOL0     H24461  10.291   0.033   8.091 -0.5904  0.9878 -1.5116
  922MOL0     H24462  10.302   0.248   7.962  3.1449 -4.6040  1.8591
  922MOL0     H24463  10.138   0.285   8.028  0.7275  1.5105 -0.8102
  922MOL0     H24464  10.232   0.051   7.859  0.8182  2.2624 -2.8198
  922MOL0     H24465  10.062   0.063   7.927 -1.1504 -0.0785 -1.6706
  922MOL0     H24466  10.083   0.368   7.619  0.6686 -0.4230 -0.3227
  922MOL0     H24467  10.469   0.329   8.391  0.5621 -0.8404  0.6848
  922MOL0     H24468  10.584   0.615   8.518  2.4475  0.2113  1.5633
  922MOL0     H24469  10.576   0.526   8.674 -2.2761 -0.9570 -0.2673
  922MOL0     H24470  10.619   0.437   8.530 -3.2207 -3.7668  0.7826
  923MOL0     O24471   4.265  10.367   9.742  0.3437  0.3790 -0.5212
  923MOL0     C24472   4.184  10.417   9.823  0.3898 -0.4902 -0.0592
  923MOL0     O24473   4.209  10.548   9.879  0.1473  0.1996  0.0470
  923MOL0     C24474   4.327  10.592   9.830 -0.4602 -0.4354  0.6279
  923MOL0     C24475   4.449  10.576   9.900 -0.5535  0.5373 -0.1373
  923MOL0     C24476   4.569  10.639   9.854 -0.1415  0.0680  0.0744
  923MOL0     C24477   4.572  10.718   9.745 -0.1997 -0.2877 -0.0531
  923MOL0     O24478   4.686  10.775   9.706 -0.2153  0.3696 -0.1809
  923MOL0     C24479   4.682  10.895   9.633 -0.5193  1.3196 -0.1478
  923MOL0     C24480   4.721  10.871   9.479 -1.0583 -0.1105  0.6475
  923MOL0     C24481   4.849  10.778   9.461 -0.3957  0.6294 -0.2657
  923MOL0     C24482   4.831  10.620   9.465 -0.6502 -0.4904  0.1788
  923MOL0     C24483   4.978  10.554   9.483  0.2511 -0.3812  0.3090
  923MOL0     C24484   4.992  10.467   9.609  0.3511 -0.9162  0.3218
  923MOL0     C24485   4.950  10.534   9.745 -0.0110 -0.4910  0.1304
  923MOL0     C24486   5.013  10.472   9.870  0.0015  0.7944  0.2015
  923MOL0     N24487   5.013  10.321   9.879 -0.0662  0.7545  0.4797
  923MOL0     C24488   4.912  10.251   9.943 -0.0559  0.2213  1.4805
  923MOL0     C24489   4.943  10.123   9.921 -0.2265  0.4058  0.2605
  923MOL0     C24490   4.862  10.009   9.967 -0.0719  0.0260  0.3204
  923MOL0     C24491   4.955   9.925  10.046  0.5178  0.1880  0.1983
  923MOL0     C24492   4.900   9.818  10.150  0.2525  0.1619  1.0607
  923MOL0     C24493   4.806   9.716  10.084  0.2636  0.1202 -0.1574
  923MOL0     O24494   4.895   9.646   9.997 -0.3169 -0.1741  0.1131
  923MOL0     C24495   4.846   9.594   9.888 -0.9936  0.4567 -0.0010
  923MOL0     C24496   4.715   9.566   9.853  0.3147  0.3629  1.0131
  923MOL0     C24497   4.672   9.484   9.734 -0.3596 -0.4744 -0.3123
  923MOL0     C24498   4.774   9.449   9.646 -0.2361  0.5423 -0.5297
  923MOL0     C24499   4.743   9.401   9.517  0.2545  0.4144  0.1054
  923MOL0     O24500   4.653   9.306   9.521  0.4714 -0.1729 -0.5136
  923MOL0     C24501   4.591   9.267   9.401 -0.1321  0.0632 -0.5759
  923MOL0     C24502   4.458   9.306   9.368 -0.0432 -0.2493 -0.7108
  923MOL0     C24503   4.401   9.265   9.247 -1.2518 -0.3767 -0.8473
  923MOL0     C24504   4.470   9.182   9.153  0.4875  0.2069 -0.8358
  923MOL0     O24505   4.402   9.136   9.044 -0.7368 -0.1857  0.1578
  923MOL0     C24506   4.479   9.151   8.926  0.1884 -0.4725  0.6341
  923MOL0     C24507   4.392   9.132   8.804 -0.4932 -0.3250  0.7105
  923MOL0     C24508   4.258   9.186   8.817  0.7151 -0.2553 -0.3046
  923MOL0     C24509   4.169   9.160   8.695  0.1926 -0.4857 -0.7880
  923MOL0     C24510   4.111   9.017   8.663 -0.0254  0.5999  0.0476
  923MOL0     C24511   4.037   8.930   8.768 -0.1092  0.4295  0.0401
  923MOL0     C24512   4.003   8.784   8.710  0.3841 -0.0183 -0.9049
  923MOL0     C24513   3.929   8.700   8.815  0.8324 -0.7905 -1.3132
  923MOL0    Cl24514   3.746   8.754   8.809 -0.8058 -0.5241 -0.9762
  923MOL0     C24515   4.601   9.143   9.186  0.4002 -0.6912 -0.2900
  923MOL0     C24516   4.659   9.185   9.308  0.2484 -0.7110 -0.5842
  923MOL0     O24517   4.787   9.453   9.413  0.0824  0.3752 -0.6828
  923MOL0     C24518   4.904   9.494   9.672  0.3060  0.6480 -0.7750
  923MOL0     C24519   4.942   9.561   9.790  0.7808  0.4951  0.8110
  923MOL0     N24520   5.057  10.113   9.844  0.0493 -0.4486 -0.0980
  923MOL0     N24521   5.092  10.234   9.811  0.3646  0.0885 -0.4552
  923MOL0     C24522   4.453  10.722   9.669  0.7488 -0.3744 -0.0470
  923MOL0     C24523   4.334  10.664   9.711 -0.2110 -0.0271  0.6218
  923MOL0     C24524   4.073  10.327   9.887 -0.4075 -0.1118  0.0314
  923MOL0     C24525   3.989  10.379   9.979 -0.7060  0.1627  0.1948
  923MOL0     C24526   3.889  10.295  10.043 -0.0997 -0.1648 -0.9727
  923MOL0     C24527   3.865  10.167  10.018  0.0162  0.0381 -0.1115
  923MOL0     O24528   3.762  10.097  10.074 -0.0538 -0.0886  0.0455
  923MOL0     C24529   3.785  10.013  10.190  0.4420 -0.0324  0.2904
  923MOL0     C24530   3.665  10.020  10.285  0.4949 -0.0457  0.0439
  923MOL0     C24531   3.667   9.923  10.393 -0.5520  0.6306 -0.1933
  923MOL0     C24532   3.541   9.892  10.459 -0.6831 -0.3234  0.0177
  923MOL0     C24533   3.489  10.010  10.526 -0.5079 -0.1843  0.1058
  923MOL0     C24534   3.447  10.110  10.576  0.2651 -0.0136 -0.9257
  923MOL0     C24535   3.953  10.114   9.931  0.3325 -0.8782 -0.1335
  923MOL0     C24536   4.057  10.186   9.867 -0.3349  0.1793 -0.1902
  923MOL0     C24537   4.140  10.110   9.772 -1.0948  0.3272  0.1192
  923MOL0     H24538   4.438  10.523   9.994 -0.9986  0.9735  0.0662
  923MOL0     H24539   4.660  10.642   9.914  2.6568 -3.3504 -3.4330
  923MOL0     H24540   4.587  10.948   9.640 -1.8719 -0.8458 -1.0906
  923MOL0     H24541   4.763  10.950   9.682  3.5641 -3.4519 -0.7186
  923MOL0     H24542   4.757  10.963   9.431  0.9669 -1.2241 -0.0855
  923MOL0     H24543   4.649  10.824   9.411  3.2949 -2.4064 -2.8864
  923MOL0     H24544   4.922  10.805   9.539  1.5944  1.9763 -2.4559
  923MOL0     H24545   4.909  10.796   9.371  2.7361 -0.9347  1.3176
  923MOL0     H24546   4.765  10.574   9.538  1.3985 -1.6609  1.3995
  923MOL0     H24547   4.791  10.605   9.365 -0.1432 -0.7053  0.0023
  923MOL0     H24548   4.999  10.495   9.393 -0.6939 -2.3684  1.3284
  923MOL0     H24549   5.055  10.628   9.506  0.1401  0.6039 -2.1951
  923MOL0     H24550   4.945  10.371   9.585 -0.5777 -0.9639  2.1128
  923MOL0     H24551   5.096  10.438   9.624  0.3855 -0.6823  0.5655
  923MOL0     H24552   4.841  10.538   9.758  0.2047 -0.0889  2.1373
  923MOL0     H24553   4.983  10.638   9.746  2.6977 -1.2652  1.8339
  923MOL0     H24554   5.118  10.505   9.864 -0.3427  1.8327 -0.4102
  923MOL0     H24555   4.965  10.524   9.954  0.0932  2.7464 -0.8880
  923MOL0     H24556   4.832  10.292  10.004 -3.0178 -0.3088 -1.7116
  923MOL0     H24557   4.786  10.042  10.038 -0.6021 -0.6919  0.0990
  923MOL0     H24558   4.819   9.956   9.882 -4.3618  2.0698  0.9608
  923MOL0     H24559   5.013   9.868   9.972  1.0673  1.8180 -0.6878
  923MOL0     H24560   5.027   9.988  10.099  4.2637 -4.4216  1.2323
  923MOL0     H24561   4.864   9.872  10.239  2.8020  2.6695  0.7265
  923MOL0     H24562   4.981   9.760  10.193 -0.5934 -0.9517  1.1923
  923MOL0     H24563   4.740   9.778  10.024  0.0593  0.0335 -0.0204
  923MOL0     H24564   4.770   9.638  10.152  0.7739  0.8595  1.0068
  923MOL0     H24565   4.631   9.595   9.916  0.9423  2.0118  1.1399
  923MOL0     H24566   4.568   9.462   9.712  0.0973 -2.8996 -0.2870
  923MOL0     H24567   4.413   9.376   9.437  2.0498 -0.1937  0.6914
  923MOL0     H24568   4.303   9.309   9.231 -0.4436  2.2585  0.8520
  923MOL0     H24569   4.529   9.248   8.917  0.1664 -0.2058  2.7870
  923MOL0     H24570   4.557   9.074   8.919 -0.6548 -1.1751 -2.5370
  923MOL0     H24571   4.454   9.183   8.730  0.1799 -1.9648  0.1134
  923MOL0     H24572   4.385   9.026   8.779 -2.3198  0.0158 -0.3472
  923MOL0     H24573   4.196   9.165   8.904 -0.2920 -0.5225 -1.0722
  923MOL0     H24574   4.268   9.295   8.823  1.5328 -0.3305 -0.1997
  923MOL0     H24575   4.223   9.190   8.605  2.4753  0.4820  0.7976
  923MOL0     H24576   4.092   9.239   8.699 -2.3049 -2.7424 -1.3669
  923MOL0     H24577   4.203   8.967   8.633 -0.8626 -2.9048  2.7468
  923MOL0     H24578   4.042   9.014   8.578 -0.3972 -0.0875  0.3660
  923MOL0     H24579   4.097   8.924   8.860 -3.1451 -4.1921  2.1049
  923MOL0     H24580   3.942   8.983   8.784  0.1861  1.7828 -2.2523
  923MOL0     H24581   4.091   8.727   8.678  0.5816 -2.2669  2.9946
  923MOL0     H24582   3.935   8.795   8.625  1.1572  1.1233 -1.4000
  923MOL0     H24583   3.928   8.592   8.796  2.5426 -1.3200  1.0502
  923MOL0     H24584   3.959   8.704   8.920 -1.2925 -0.7219 -0.6624
  923MOL0     H24585   4.657   9.080   9.117 -0.8654 -1.6570 -0.4641
  923MOL0     H24586   4.760   9.161   9.338  0.1359 -0.0220  0.4376
  923MOL0     H24587   4.979   9.492   9.593  1.2339  1.1239  0.0552
  923MOL0     H24588   5.044   9.594   9.805  1.1336  0.6960 -1.6414
  923MOL0     H24589   4.454  10.779   9.576  1.7592 -3.1221 -1.8642
  923MOL0     H24590   4.240  10.671   9.657  0.4353 -3.0762 -1.1212
  923MOL0     H24591   3.990  10.484  10.007 -0.7695  0.8275 -2.0712
  923MOL0     H24592   3.834  10.332  10.129 -0.8567  0.4457 -1.7035
  923MOL0     H24593   3.869  10.056  10.245  2.0529 -0.2556 -1.8622
  923MOL0     H24594   3.802   9.909  10.160 -2.1093  0.3274 -3.1610
  923MOL0     H24595   3.575   9.999  10.226  1.1978  0.6661 -1.3279
  923MOL0     H24596   3.671  10.125  10.317  1.0136 -0.4439  1.3063
  923MOL0     H24597   3.737   9.963  10.467  0.7027 -1.1764 -0.3464
  923MOL0     H24598   3.723   9.836  10.360  2.6613  2.7073 -0.7087
  923MOL0     H24599   3.460   9.860  10.393 -2.1969  0.1693  1.5758
  923MOL0     H24600   3.546   9.811  10.533 -4.4023  1.6215  2.7042
  923MOL0     H24601   3.418  10.201  10.624  1.4512 -0.4735  0.7491
  923MOL0     H24602   3.942  10.006   9.918 -1.7582 -0.7779  0.3560
  923MOL0     H24603   4.109  10.005   9.779  1.1649 -0.3389  1.1683
  923MOL0     H24604   4.128  10.149   9.670  0.7715  2.7848  0.7589
  923MOL0     H24605   4.244  10.111   9.804 -0.9785 -1.4424 -0.1055
  924MOL0     O24606   4.743   9.198   8.797 -0.3098 -0.1623 -0.0515
  924MOL0     C24607   4.836   9.155   8.868  0.0119  0.0159 -0.2353
  924MOL0     O24608   4.887   9.232   8.964  0.0081 -0.2941  0.2490
  924MOL0     C24609   4.864   9.362   8.958 -0.1194  0.2067 -0.4869
  924MOL0     C24610   4.883   9.442   8.842 -1.4563  0.0349  0.0856
  924MOL0     C24611   4.873   9.582   8.861 -0.4803  0.3145  1.1387
  924MOL0     C24612   4.834   9.639   8.975  0.1916  0.3959  1.0463
  924MOL0     O24613   4.830   9.775   8.993 -0.2583  0.1087  0.1714
  924MOL0     C24614   4.791   9.860   8.889 -0.0437  0.2934  1.4817
  924MOL0     C24615   4.678   9.962   8.942  0.9542  0.2750 -0.6514
  924MOL0     C24616   4.726  10.042   9.066  0.0116 -0.2947  0.1962
  924MOL0     C24617   4.615  10.134   9.134  1.1297 -0.3087  0.4529
  924MOL0     C24618   4.668  10.252   9.220 -0.3555 -0.1106  0.4663
  924MOL0     C24619   4.558  10.358   9.247 -0.3103 -0.0107  1.3552
  924MOL0     C24620   4.514  10.362   9.394 -0.2561 -0.2963  0.3942
  924MOL0     C24621   4.429  10.493   9.412  0.3075  0.0643  0.2650
  924MOL0     N24622   4.283  10.471   9.380 -0.1608  0.2827  0.0988
  924MOL0     C24623   4.189  10.382   9.431 -0.4120 -0.0083  0.4797
  924MOL0     C24624   4.087  10.388   9.344  0.2234 -0.0049  0.2466
  924MOL0     C24625   3.967  10.297   9.337  0.2012  0.0338  0.1138
  924MOL0     C24626   3.842  10.350   9.411 -0.1753 -0.1427  0.4070
  924MOL0     C24627   3.872  10.367   9.561 -0.1447 -0.2369  0.6188
  924MOL0     C24628   3.754  10.337   9.653  0.1700 -0.1335 -0.0772
  924MOL0     O24629   3.626  10.399   9.614 -0.0581  1.2575 -0.3355
  924MOL0     C24630   3.520  10.392   9.703 -0.8513 -0.0201 -0.8623
  924MOL0     C24631   3.524  10.298   9.813 -0.3168 -1.3226  0.1258
  924MOL0     C24632   3.414  10.290   9.901 -0.0260 -0.3386 -0.2069
  924MOL0     C24633   3.303  10.375   9.886  0.6805 -0.7150 -0.1273
  924MOL0     C24634   3.193  10.366   9.976  0.5866  0.3669  0.1647
  924MOL0     O24635   3.218  10.310  10.100 -0.3593  0.5831  0.1671
  924MOL0     C24636   3.129  10.309  10.201  0.7019 -0.9084  0.1696
  924MOL0     C24637   2.998  10.272  10.177 -0.6088 -0.1960 -0.5427
  924MOL0     C24638   2.905  10.267  10.273 -0.1762  1.6224  0.3018
  924MOL0     C24639   2.924  10.297  10.408  1.4917  0.7785 -0.0151
  924MOL0     O24640   2.842  10.309  10.517  0.4083 -0.6211  0.1266
  924MOL0     C24641   2.705  10.303  10.502  0.2462  0.4335 -0.7345
  924MOL0     C24642   2.626  10.431  10.548  0.3686  0.3812  0.5248
  924MOL0     C24643   2.658  10.480  10.691 -0.5054 -0.4446 -0.0225
  924MOL0     C24644   2.556  10.411  10.777  0.0396  0.3936  0.5722
  924MOL0     C24645   2.562  10.436  10.923 -0.4987 -0.6336 -0.4516
  924MOL0     C24646   2.421  10.372  10.971  0.5400  0.6007  0.1646
  924MOL0     C24647   2.397  10.378  11.119 -0.2883  0.7287 -0.6019
  924MOL0     C24648   2.319  10.248  11.161  1.5293 -0.2932  0.9127
  924MOL0    Cl24649   2.312  10.211  11.330 -0.0867 -0.2631  0.2328
  924MOL0     C24650   3.052  10.334  10.441 -0.4033 -0.6407  0.2439
  924MOL0     C24651   3.159  10.341  10.341  0.3096 -0.3346 -1.0186
  924MOL0     O24652   3.088  10.408   9.943  0.6555 -0.1956  0.4757
  924MOL0     C24653   3.300  10.464   9.779 -0.8750 -0.6322 -0.8274
  924MOL0     C24654   3.408  10.477   9.696 -0.5005  0.4547  0.5394
  924MOL0     N24655   4.113  10.471   9.242  0.2144  0.2906 -0.8685
  924MOL0     N24656   4.231  10.525   9.261  0.2011  0.0024 -0.5935
  924MOL0     C24657   4.820   9.557   9.080 -0.4389 -0.3483  0.2332
  924MOL0     C24658   4.828   9.420   9.080 -0.4281  0.9884  0.0344
  924MOL0     C24659   4.876   9.015   8.881  0.9693  0.2550 -0.1215
  924MOL0     C24660   4.929   8.968   9.005  0.5456  0.1932 -0.6587
  924MOL0     C24661   4.986   8.837   9.011 -0.8119  0.7534 -0.3773
  924MOL0     C24662   4.973   8.757   8.900 -1.1736 -0.0595  0.4534
  924MOL0     O24663   5.010   8.616   8.908  0.1300 -0.2063 -0.7266
  924MOL0     C24664   5.123   8.593   8.825 -0.6298  0.2680  0.2857
  924MOL0     C24665   5.195   8.467   8.863  0.1096 -0.4364  1.0064
  924MOL0     C24666   5.253   8.474   9.005  0.7071 -0.7908 -0.2048
  924MOL0     C24667   5.308   8.338   9.036  1.3534  0.1795  0.3608
  924MOL0     C24668   5.373   8.338   9.162 -0.6312  0.1869  0.0422
  924MOL0     C24669   5.448   8.332   9.258 -1.1027 -0.5388 -0.5790
  924MOL0     C24670   4.925   8.804   8.781  0.3867 -0.6420 -0.1943
  924MOL0     C24671   4.870   8.929   8.772 -0.5577  0.0601  0.8491
  924MOL0     C24672   4.812   8.975   8.640 -0.1900  0.5652  0.1961
  924MOL0     H24673   4.932   9.401   8.754 -0.1330  0.0464  0.7858
  924MOL0     H24674   4.905   9.644   8.778 -0.7403 -2.2469 -1.0286
  924MOL0     H24675   4.871   9.918   8.841  0.6767 -3.4064 -2.3765
  924MOL0     H24676   4.747   9.806   8.804  0.2555  2.0924  0.1102
  924MOL0     H24677   4.592   9.907   8.981  1.5381  1.2367  2.3037
  924MOL0     H24678   4.657  10.027   8.857  1.5158  1.1565 -0.1374
  924MOL0     H24679   4.817  10.093   9.033 -0.4881  0.4317 -0.0901
  924MOL0     H24680   4.758   9.966   9.139  0.2579 -1.9903 -1.5896
  924MOL0     H24681   4.539  10.172   9.064  1.5261 -1.4852 -0.6554
  924MOL0     H24682   4.563  10.066   9.202  3.8699  0.6843  3.8312
  924MOL0     H24683   4.699  10.211   9.317 -2.4838 -2.0928  0.4036
  924MOL0     H24684   4.743  10.309   9.166 -0.4244  1.2439  1.7173
  924MOL0     H24685   4.608  10.451   9.217 -0.2360 -0.7227 -0.9189
  924MOL0     H24686   4.468  10.355   9.186  1.9117  0.6064 -2.2310
  924MOL0     H24687   4.601  10.378   9.458  2.2444 -2.0297 -2.3178
  924MOL0     H24688   4.456  10.275   9.425 -3.9797  3.0518  3.9544
  924MOL0     H24689   4.443  10.527   9.515 -2.8858 -1.6773  1.4315
  924MOL0     H24690   4.467  10.570   9.344  1.3196  3.3340  4.1627
  924MOL0     H24691   4.194  10.336   9.529 -3.3768  4.2896  2.9902
  924MOL0     H24692   3.942  10.285   9.232 -0.0112  0.5022  0.1112
  924MOL0     H24693   4.008  10.200   9.367  1.0902 -0.1034 -1.4208
  924MOL0     H24694   3.807  10.446   9.373  0.3330  1.1026  2.8877
  924MOL0     H24695   3.761  10.280   9.387  1.0838 -1.6079  0.2525
  924MOL0     H24696   3.898  10.473   9.565  2.4252 -0.8112  0.4936
  924MOL0     H24697   3.957  10.305   9.590  0.0638 -0.8871 -1.2762
  924MOL0     H24698   3.781  10.359   9.757 -3.4803  0.9186  0.7868
  924MOL0     H24699   3.739  10.229   9.638 -1.6535  0.3750 -2.5071
  924MOL0     H24700   3.605  10.226   9.820  1.3000  0.5069  1.1997
  924MOL0     H24701   3.405  10.218   9.981 -1.5498  0.3907  0.3047
  924MOL0     H24702   2.961  10.248  10.077 -1.2248 -0.0770 -0.3462
  924MOL0     H24703   2.815  10.225  10.228  0.3407  1.0497 -0.2137
  924MOL0     H24704   2.667  10.287  10.401 -2.3457  0.6553  0.1193
  924MOL0     H24705   2.674  10.215  10.559  3.0627  1.3886  2.5905
  924MOL0     H24706   2.633  10.506  10.468 -0.1186 -1.3442 -1.2006
  924MOL0     H24707   2.519  10.407  10.543  0.7343 -1.6606  1.4901
  924MOL0     H24708   2.761  10.458  10.718  0.5166  1.8206 -1.8104
  924MOL0     H24709   2.652  10.588  10.704  0.5608 -0.5561  1.6457
  924MOL0     H24710   2.554  10.304  10.756  0.9228  0.6852 -1.1824
  924MOL0     H24711   2.463  10.454  10.736  1.5684  2.4248 -0.9806
  924MOL0     H24712   2.567  10.544  10.939 -1.1100 -0.7116  0.3230
  924MOL0     H24713   2.644  10.392  10.980  3.4286  3.8164 -1.9582
  924MOL0     H24714   2.326  10.408  10.929 -1.1689 -0.7638  2.5985
  924MOL0     H24715   2.418  10.267  10.939  2.5303 -0.4750  3.1017
  924MOL0     H24716   2.346  10.468  11.155 -0.9766 -0.0085  0.3089
  924MOL0     H24717   2.489  10.375  11.179 -0.8205  0.2170  0.2060
  924MOL0     H24718   2.219  10.257  11.117  0.0870 -0.2894  3.8948
  924MOL0     H24719   2.383  10.172  11.117  0.7886  0.5339 -1.7565
  924MOL0     H24720   3.078  10.370  10.540  1.6802 -2.4187  0.4247
  924MOL0     H24721   3.255  10.377  10.378 -0.4385  0.1211  0.5982
  924MOL0     H24722   3.217  10.528   9.752  0.5358  1.7460  0.1394
  924MOL0     H24723   3.390  10.541   9.610 -0.7368  1.5066  1.3452
  924MOL0     H24724   4.811   9.605   9.176 -0.1613  0.7622 -0.2838
  924MOL0     H24725   4.819   9.367   9.174  0.9640  1.1804  0.3118
  924MOL0     H24726   4.932   9.036   9.090 -2.1981  1.6447 -1.6106
  924MOL0     H24727   5.029   8.805   9.106  0.2950  0.4661 -0.9584
  924MOL0     H24728   5.198   8.670   8.842 -0.7370  0.2809  0.7017
  924MOL0     H24729   5.093   8.593   8.719 -1.1305 -0.9269  0.4084
  924MOL0     H24730   5.283   8.458   8.797 -1.6239  0.6978 -1.6435
  924MOL0     H24731   5.139   8.375   8.847  1.3973 -1.0001 -0.5909
  924MOL0     H24732   5.164   8.486   9.067 -1.0549 -2.6765 -2.2010
  924MOL0     H24733   5.335   8.546   9.014 -0.4539  0.5705 -0.0392
  924MOL0     H24734   5.233   8.258   9.033 -0.9072  2.0905  2.1408
  924MOL0     H24735   5.391   8.313   8.969  2.2462  3.2441  0.1987
  924MOL0     H24736   5.500   8.314   9.350 -0.7416  0.6487 -0.5377
  924MOL0     H24737   4.937   8.733   8.700 -2.8509 -0.5290 -0.8770
  924MOL0     H24738   4.703   8.968   8.640 -0.0900 -2.1868  0.7826
  924MOL0     H24739   4.845   9.077   8.618 -0.7532  1.1476  1.8941
  924MOL0     H24740   4.858   8.908   8.567 -1.1182 -1.6334  1.5168
  925MOL0     O24741   2.756   9.324   6.110 -0.5239 -0.0300  0.0715
  925MOL0     C24742   2.662   9.396   6.084  0.3469 -0.8239  0.2031
  925MOL0     O24743   2.534   9.366   6.090 -0.6732  0.6657  0.0687
  925MOL0     C24744   2.488   9.247   6.142 -0.4741  0.5146 -0.6843
  925MOL0     C24745   2.440   9.136   6.066 -0.4162 -0.1719 -0.3803
  925MOL0     C24746   2.387   9.021   6.128  0.0795 -0.5427 -0.0922
  925MOL0     C24747   2.390   9.010   6.269 -0.3521  0.4425  0.4209
  925MOL0     O24748   2.340   8.903   6.332 -0.2300  0.0950 -0.1696
  925MOL0     C24749   2.397   8.779   6.287  0.4459 -0.3132  0.2605
  925MOL0     C24750   2.354   8.652   6.361  0.0161 -0.2283 -1.1089
  925MOL0     C24751   2.215   8.623   6.315 -0.0539 -0.1127 -0.7031
  925MOL0     C24752   2.144   8.512   6.408  0.2169 -1.1979  0.6117
  925MOL0     C24753   1.993   8.485   6.369 -0.9498 -0.6722 -0.6580
  925MOL0     C24754   1.937   8.345   6.413  0.5485  0.4313 -0.4221
  925MOL0     C24755   1.875   8.254   6.309  0.0721 -0.4776  0.1404
  925MOL0     C24756   1.858   8.105   6.333  0.1021 -0.4549 -0.7628
  925MOL0     N24757   1.732   8.074   6.403 -0.1773 -1.4846 -0.2911
  925MOL0     C24758   1.607   8.065   6.356 -0.7114  0.5211 -0.0167
  925MOL0     C24759   1.531   8.074   6.461  0.2618  0.3051 -0.1142
  925MOL0     C24760   1.383   8.049   6.457  0.0574  0.1587  0.4325
  925MOL0     C24761   1.317   8.151   6.549 -0.1670  0.1172  0.5222
  925MOL0     C24762   1.312   8.109   6.698  0.4426 -0.8786 -0.3645
  925MOL0     C24763   1.256   7.971   6.718  0.5926  0.4904  0.0268
  925MOL0     O24764   1.172   7.968   6.831  0.3034  0.4794 -1.0567
  925MOL0     C24765   1.047   8.021   6.830 -0.5623 -0.0314  0.0114
  925MOL0     C24766   0.997   8.055   6.960 -0.3234  0.1037 -0.5194
  925MOL0     C24767   0.864   8.100   6.968  0.3069 -0.5944  0.5185
  925MOL0     C24768   0.780   8.106   6.852 -0.7290  0.8473  0.3931
  925MOL0     C24769   0.639   8.131   6.868  1.0202 -0.9738 -0.3367
  925MOL0     O24770   0.555   8.095   6.754  0.5556  0.0048 -0.6993
  925MOL0     C24771   0.418   8.085   6.764 -0.4570 -1.1656  0.2989
  925MOL0     C24772   0.333   8.093   6.883 -0.4389 -0.2083  0.4491
  925MOL0     C24773   0.195   8.084   6.874  0.6147 -0.8490 -0.9629
  925MOL0     C24774   0.137   8.093   6.752  0.2788 -0.2778  1.1213
  925MOL0     O24775  -0.002   8.106   6.725 -1.0211 -0.5538 -0.0719
  925MOL0     C24776  -0.099   8.048   6.819 -0.3765 -0.4629  0.4310
  925MOL0     C24777  -0.081   7.903   6.827  0.2966 -0.6647  0.2094
  925MOL0     C24778  -0.125   7.843   6.684 -0.1525 -0.1367  0.6154
  925MOL0     C24779  -0.045   7.722   6.646 -0.3311 -0.3930 -0.9840
  925MOL0     C24780  -0.076   7.649   6.510  0.7344  0.5164 -0.7198
  925MOL0     C24781  -0.002   7.516   6.489 -0.0270  0.3463  0.2869
  925MOL0     C24782   0.148   7.541   6.472 -0.5447  1.2363  0.9085
  925MOL0     C24783   0.236   7.463   6.562  0.0989  0.8150 -1.0138
  925MOL0    Cl24784   0.187   7.473   6.732 -0.1916  0.0385  0.2614
  925MOL0     C24785   0.221   8.107   6.639  0.4805 -1.0204  0.2295
  925MOL0     C24786   0.365   8.095   6.635 -0.3589  0.2334 -1.1458
  925MOL0     O24787   0.588   8.184   6.968 -0.0326 -0.4840 -0.5741
  925MOL0     C24788   0.832   8.068   6.724 -0.0252  0.4183  0.7411
  925MOL0     C24789   0.971   8.030   6.713  0.3301 -0.7799 -0.9360
  925MOL0     N24790   1.610   8.074   6.583  0.6875  0.8437  0.0571
  925MOL0     N24791   1.725   8.097   6.542 -0.1646 -0.3196 -0.3756
  925MOL0     C24792   2.440   9.115   6.349  0.8397 -1.3906  0.5124
  925MOL0     C24793   2.479   9.234   6.284 -1.1753 -0.3906  0.7694
  925MOL0     C24794   2.699   9.527   6.020 -0.1192  0.1414  0.7648
  925MOL0     C24795   2.596   9.629   6.004 -0.1308  0.0991 -0.5437
  925MOL0     C24796   2.623   9.741   5.923 -0.5686  0.7642  0.0827
  925MOL0     C24797   2.755   9.780   5.889 -0.6530  0.0286 -0.2175
  925MOL0     O24798   2.767   9.903   5.831 -0.1393  0.0274 -0.6495
  925MOL0     C24799   2.903   9.952   5.817  0.6618 -0.5562 -0.6907
  925MOL0     C24800   2.931  10.074   5.729 -0.9184 -0.0143 -0.0997
  925MOL0     C24801   2.886  10.037   5.587 -0.4311  0.1904  0.2654
  925MOL0     C24802   3.000   9.969   5.506 -0.1566 -0.1192 -0.0682
  925MOL0     C24803   3.069  10.079   5.438 -0.7015  0.6590 -0.5408
  925MOL0     C24804   3.132  10.165   5.389  0.3382 -0.5184  0.3069
  925MOL0     C24805   2.852   9.681   5.915 -0.7173 -0.1259  0.6774
  925MOL0     C24806   2.831   9.560   5.983  0.2096 -1.7867  0.5024
  925MOL0     C24807   2.956   9.481   6.006 -1.3215 -0.3708  0.2990
  925MOL0     H24808   2.427   9.151   5.959 -0.4464  0.1649 -0.3313
  925MOL0     H24809   2.330   8.947   6.073  1.2674 -2.0664  0.6462
  925MOL0     H24810   2.387   8.763   6.179  1.0228  2.5557 -0.3158
  925MOL0     H24811   2.504   8.771   6.303  0.8877 -2.8575 -2.8096
  925MOL0     H24812   2.360   8.672   6.469 -1.3709 -1.1175 -0.8404
  925MOL0     H24813   2.415   8.564   6.337 -1.0375 -1.6681  1.1300
  925MOL0     H24814   2.213   8.592   6.211  0.3164 -0.8663 -0.4905
  925MOL0     H24815   2.149   8.710   6.318 -2.1752 -1.6333 -0.6245
  925MOL0     H24816   2.204   8.421   6.402 -0.1252 -1.3336 -1.6324
  925MOL0     H24817   2.150   8.535   6.515 -4.3335  0.6620  0.6992
  925MOL0     H24818   1.936   8.570   6.410  0.1027 -2.1110  4.5523
  925MOL0     H24819   1.979   8.487   6.261 -1.0671  0.1056 -0.6354
  925MOL0     H24820   2.023   8.296   6.460 -1.1033 -1.9835  0.2578
  925MOL0     H24821   1.868   8.355   6.497 -1.1733  1.7068 -1.9247
  925MOL0     H24822   1.947   8.250   6.227 -0.7735 -4.1415 -0.6124
  925MOL0     H24823   1.778   8.300   6.290  0.2587  0.1028  0.5809
  925MOL0     H24824   1.853   8.055   6.237 -2.5643  1.5237 -1.7665
  925MOL0     H24825   1.944   8.069   6.391  1.3474  0.4581 -1.9723
  925MOL0     H24826   1.572   8.050   6.254 -2.4770 -2.6008  0.8897
  925MOL0     H24827   1.350   8.043   6.353  1.0571 -1.1939  0.1552
  925MOL0     H24828   1.371   7.949   6.500 -2.0038 -0.8848 -2.2364
  925MOL0     H24829   1.369   8.248   6.550  3.1280 -1.4510  3.9160
  925MOL0     H24830   1.212   8.163   6.518 -0.9048  0.5913  2.9491
  925MOL0     H24831   1.255   8.186   6.750 -0.7460 -3.8491  3.1895
  925MOL0     H24832   1.417   8.115   6.729 -0.2969 -1.5768  2.5471
  925MOL0     H24833   1.328   7.890   6.736  0.3518  0.4589  0.9059
  925MOL0     H24834   1.201   7.938   6.629  0.9378  1.4694 -0.5656
  925MOL0     H24835   1.063   8.033   7.043  0.5701 -0.6169 -1.4006
  925MOL0     H24836   0.822   8.109   7.067  1.0311 -3.2082  1.1433
  925MOL0     H24837   0.376   8.087   6.982 -0.3813  0.9423  0.5079
  925MOL0     H24838   0.127   8.072   6.957 -0.6039 -0.2902 -1.8441
  925MOL0     H24839  -0.093   8.085   6.922 -1.7852  1.8632 -0.2402
  925MOL0     H24840  -0.192   8.095   6.787  0.9046  0.8930 -1.5553
  925MOL0     H24841   0.021   7.878   6.856 -0.5055 -2.7883  1.4361
  925MOL0     H24842  -0.135   7.847   6.904  2.5046 -4.7510 -0.8986
  925MOL0     H24843  -0.232   7.828   6.666 -0.0504  0.4415 -0.6087
  925MOL0     H24844  -0.105   7.915   6.604 -2.8591 -0.9924 -0.9705
  925MOL0     H24845  -0.055   7.656   6.732 -3.1267  0.2746 -0.6807
  925MOL0     H24846   0.059   7.754   6.634 -1.0311  0.9507 -5.2816
  925MOL0     H24847  -0.060   7.717   6.426 -1.6497  3.2107  0.8041
  925MOL0     H24848  -0.185   7.638   6.514  0.6030  1.5726 -1.0976
  925MOL0     H24849  -0.011   7.437   6.564  4.8887 -0.2300  0.5790
  925MOL0     H24850  -0.036   7.479   6.391  3.6858  0.1891 -1.0974
  925MOL0     H24851   0.182   7.642   6.496 -2.2087  1.3557  3.0959
  925MOL0     H24852   0.180   7.515   6.371  0.8072  2.8105  0.9023
  925MOL0     H24853   0.229   7.357   6.535 -0.6113  0.9208 -1.2606
  925MOL0     H24854   0.342   7.492   6.560  0.2922  0.2997 -4.9176
  925MOL0     H24855   0.167   8.138   6.550  0.1537  0.5182  0.9349
  925MOL0     H24856   0.428   8.112   6.549  0.7939 -2.4967 -0.9534
  925MOL0     H24857   0.783   8.067   6.627  1.6459  1.0318 -0.1424
  925MOL0     H24858   1.009   8.000   6.616 -0.6297 -0.4361 -1.4325
  925MOL0     H24859   2.415   9.107   6.454 -4.7572  1.6840 -0.2095
  925MOL0     H24860   2.523   9.321   6.332  1.2070 -0.9059 -0.3544
  925MOL0     H24861   2.497   9.613   6.045  1.3140 -0.8732  2.9198
  925MOL0     H24862   2.553   9.822   5.907 -0.4139  0.9451  0.3143
  925MOL0     H24863   2.963   9.873   5.771 -0.6297 -2.4956  0.7645
  925MOL0     H24864   2.944   9.978   5.915  0.6164 -1.3906 -0.4419
  925MOL0     H24865   3.037  10.099   5.740 -1.0309  0.7236 -0.6503
  925MOL0     H24866   2.878  10.160   5.771 -3.0118 -0.7059 -1.1677
  925MOL0     H24867   2.849  10.130   5.542  3.1012  2.5120  1.6812
  925MOL0     H24868   2.805   9.964   5.582 -0.7021  0.5765 -1.5465
  925MOL0     H24869   3.081   9.922   5.562  0.8475  2.5015  0.8386
  925MOL0     H24870   2.963   9.895   5.434  2.9352 -2.0469  0.1072
  925MOL0     H24871   3.171  10.257   5.351 -3.0839  1.4367  1.0443
  925MOL0     H24872   2.954   9.702   5.884 -1.0349  1.9730  0.8750
  925MOL0     H24873   2.989   9.477   6.109  0.1519 -2.1418 -0.2048
  925MOL0     H24874   2.945   9.373   5.990  0.9763 -0.5612 -0.3873
  925MOL0     H24875   3.042   9.509   5.945 -0.5878  1.0281  1.9205
  926MOL0     O24876   2.426   3.965   5.985  0.5738  0.0727  0.3447
  926MOL0     C24877   2.528   4.018   6.028  0.8662 -1.2715 -0.0616
  926MOL0     O24878   2.538   4.133   6.094 -0.5733  0.5157 -0.2033
  926MOL0     C24879   2.448   4.236   6.070  0.4100 -0.3344  0.4298
  926MOL0     C24880   2.370   4.246   5.952 -0.1429  0.0338 -0.5386
  926MOL0     C24881   2.292   4.361   5.936  0.2057  0.3884  0.6137
  926MOL0     C24882   2.290   4.461   6.028 -0.1369 -0.8354 -1.2015
  926MOL0     O24883   2.216   4.571   5.992  0.4391  0.1565  0.0078
  926MOL0     C24884   2.170   4.656   6.093 -0.5024  0.0318  0.1146
  926MOL0     C24885   2.083   4.775   6.047 -1.0317 -0.0153  0.0916
  926MOL0     C24886   1.963   4.736   5.952 -0.1695 -1.1821 -0.5640
  926MOL0     C24887   1.849   4.669   6.021  0.3147  0.3153  0.7033
  926MOL0     C24888   1.724   4.655   5.927 -0.6523 -0.1430 -0.1410
  926MOL0     C24889   1.722   4.534   5.834 -0.4975 -0.2804  0.6217
  926MOL0     C24890   1.737   4.396   5.901  0.6341  0.1381 -0.0326
  926MOL0     C24891   1.609   4.362   5.990 -0.1751  0.2181  0.5036
  926MOL0     N24892   1.576   4.213   6.010 -0.0996 -0.0755 -0.1794
  926MOL0     C24893   1.488   4.131   5.937  0.4031  0.3340  0.1377
  926MOL0     C24894   1.472   4.013   6.003  0.8250  0.0048  0.2691
  926MOL0     C24895   1.403   3.886   5.976  0.0288  0.3192 -0.5984
  926MOL0     C24896   1.287   3.839   6.071  0.1766 -0.1485  0.4848
  926MOL0     C24897   1.208   3.725   6.018 -0.0514  0.4190 -0.3330
  926MOL0     C24898   1.294   3.599   6.017 -0.1542 -0.0880  0.4332
  926MOL0     O24899   1.218   3.494   5.956  0.0701  0.4465 -0.1136
  926MOL0     C24900   1.156   3.396   6.032  0.1593 -0.4707 -0.0396
  926MOL0     C24901   1.108   3.294   5.961 -0.3840  0.5668  0.1104
  926MOL0     C24902   1.049   3.180   6.017  1.0974  0.1267 -0.0175
  926MOL0     C24903   1.058   3.165   6.158  0.1873 -0.3505  0.4868
  926MOL0     C24904   1.003   3.046   6.228 -0.4224 -0.4374  0.1862
  926MOL0     O24905   0.998   3.046   6.366  0.1955 -0.0570 -0.7519
  926MOL0     C24906   0.999   2.923   6.418 -0.0911  1.0751  0.8368
  926MOL0     C24907   0.895   2.902   6.503  1.0917 -0.0293 -0.1654
  926MOL0     C24908   0.886   2.781   6.571 -0.3979  0.6113  1.2372
  926MOL0     C24909   0.983   2.680   6.563 -0.6646  0.6022  0.7892
  926MOL0     O24910   0.967   2.573   6.653  0.1385  0.2768 -0.9566
  926MOL0     C24911   1.062   2.465   6.659  0.1358  0.1986 -0.2209
  926MOL0     C24912   1.010   2.384   6.779 -1.0559 -1.1745 -0.4257
  926MOL0     C24913   1.070   2.456   6.905 -0.2269  0.2389  0.2468
  926MOL0     C24914   1.023   2.403   7.043  0.5913  0.0510  0.9550
  926MOL0     C24915   1.089   2.474   7.164  0.3867  0.2088  0.7270
  926MOL0     C24916   1.042   2.399   7.293 -0.0055  0.1976  0.3563
  926MOL0     C24917   1.059   2.472   7.428 -0.6358 -0.4254 -0.6360
  926MOL0     C24918   1.008   2.389   7.548  0.6934  0.0465  1.0034
  926MOL0    Cl24919   0.830   2.342   7.522  0.6600 -0.1322 -0.3607
  926MOL0     C24920   1.090   2.692   6.476 -0.3630 -0.2166 -0.0453
  926MOL0     C24921   1.092   2.818   6.398  0.1893 -0.1678 -0.0065
  926MOL0     O24922   0.956   2.961   6.155  0.1228  0.1023  1.1028
  926MOL0     C24923   1.105   3.277   6.228 -0.1076 -0.0502  0.1952
  926MOL0     C24924   1.149   3.401   6.170 -0.0019  1.4460 -0.5140
  926MOL0     N24925   1.539   4.026   6.121  0.2928 -0.4035  0.2937
  926MOL0     N24926   1.613   4.133   6.115 -0.0585 -0.7421 -0.4860
  926MOL0     C24927   2.355   4.442   6.145 -0.5294 -1.1613 -0.7997
  926MOL0     C24928   2.439   4.333   6.171 -0.1090  0.2083 -0.0212
  926MOL0     C24929   2.646   3.941   6.039 -0.0912  0.2567  0.9990
  926MOL0     C24930   2.732   3.953   6.153 -0.5710 -0.1534 -0.0987
  926MOL0     C24931   2.844   3.872   6.172 -0.0732  0.6090 -0.7067
  926MOL0     C24932   2.879   3.779   6.076  0.3573  0.0519 -1.1899
  926MOL0     O24933   2.989   3.695   6.092  0.2643  0.4451 -0.0196
  926MOL0     C24934   3.076   3.725   6.195 -0.0071 -0.2010 -0.3520
  926MOL0     C24935   3.185   3.607   6.195 -0.7317 -0.0329  0.5612
  926MOL0     C24936   3.312   3.650   6.276  0.1850  0.4539 -0.7057
  926MOL0     C24937   3.271   3.709   6.417  0.2577  0.7977  0.3533
  926MOL0     C24938   3.192   3.627   6.501  0.3100  0.5172 -0.9744
  926MOL0     C24939   3.118   3.578   6.586  0.1254  0.2363  0.2343
  926MOL0     C24940   2.799   3.770   5.963  0.1605 -0.1648  0.5126
  926MOL0     C24941   2.681   3.846   5.939 -0.4521 -0.3761  0.4403
  926MOL0     C24942   2.601   3.798   5.818 -0.8049  0.4143 -0.7349
  926MOL0     H24943   2.373   4.172   5.873 -1.0817  0.6457 -1.1792
  926MOL0     H24944   2.257   4.383   5.836 -0.8812 -0.2669  0.8407
  926MOL0     H24945   2.114   4.597   6.166  0.4536  1.1745  1.8381
  926MOL0     H24946   2.256   4.705   6.141  0.3021 -0.4229 -0.8146
  926MOL0     H24947   2.148   4.851   6.003 -0.7795 -0.2523  0.0454
  926MOL0     H24948   2.043   4.812   6.141 -2.2027 -6.4637  2.6591
  926MOL0     H24949   1.994   4.683   5.862  1.1806  1.5610 -1.8375
  926MOL0     H24950   1.922   4.833   5.921 -0.0774 -1.9468 -3.3627
  926MOL0     H24951   1.878   4.572   6.062 -1.0150 -2.0301 -3.3266
  926MOL0     H24952   1.819   4.739   6.099  0.3405  1.5963 -0.4022
  926MOL0     H24953   1.639   4.649   5.996 -0.9372 -0.0422 -0.4814
  926MOL0     H24954   1.721   4.742   5.861  4.4640  0.3280 -0.1408
  926MOL0     H24955   1.634   4.535   5.769  1.5569 -0.8963 -2.3898
  926MOL0     H24956   1.804   4.550   5.764 -0.2475  0.7775  1.1319
  926MOL0     H24957   1.825   4.380   5.964  0.5192 -4.9594 -0.7511
  926MOL0     H24958   1.767   4.320   5.828  2.1006  0.7435 -0.1011
  926MOL0     H24959   1.614   4.399   6.092 -0.1533 -0.8090  0.8852
  926MOL0     H24960   1.523   4.413   5.945 -2.2343 -2.7780  0.7501
  926MOL0     H24961   1.436   4.155   5.845  0.2620  2.2024  0.6690
  926MOL0     H24962   1.365   3.885   5.873  0.0865 -1.0439 -0.6276
  926MOL0     H24963   1.487   3.816   5.967 -3.3992 -4.3492  0.0225
  926MOL0     H24964   1.326   3.825   6.172 -1.0224 -1.8136  0.7682
  926MOL0     H24965   1.209   3.915   6.080 -1.4557 -1.7483  0.3482
  926MOL0     H24966   1.184   3.738   5.912  0.8955  0.9785 -0.4920
  926MOL0     H24967   1.117   3.715   6.077 -2.2929  1.0893 -3.4018
  926MOL0     H24968   1.344   3.572   6.110  3.4651 -2.1816 -1.8688
  926MOL0     H24969   1.382   3.615   5.954  1.2858 -1.2006  2.0534
  926MOL0     H24970   1.117   3.306   5.854  1.0196  1.0624  0.2586
  926MOL0     H24971   0.994   3.113   5.951  1.2068 -0.4732  0.4896
  926MOL0     H24972   0.834   2.984   6.541  1.8887  0.0789  0.9262
  926MOL0     H24973   0.797   2.769   6.632  0.2057 -2.3603  1.6481
  926MOL0     H24974   1.058   2.401   6.571 -0.6238  1.1908 -0.9300
  926MOL0     H24975   1.168   2.491   6.664  0.8791 -2.2257 -1.6643
  926MOL0     H24976   0.901   2.380   6.779 -1.1268 -0.1123  0.9649
  926MOL0     H24977   1.056   2.285   6.782 -2.9813 -2.1026  1.2503
  926MOL0     H24978   1.177   2.442   6.888 -0.6117 -0.8144 -1.4947
  926MOL0     H24979   1.055   2.564   6.894 -2.7310 -0.2690 -2.3114
  926MOL0     H24980   1.052   2.298   7.043 -3.1777 -1.1954  3.3794
  926MOL0     H24981   0.914   2.406   7.048  0.3978 -1.3915 -1.3010
  926MOL0     H24982   1.065   2.580   7.148  1.7035  0.8470  2.5997
  926MOL0     H24983   1.197   2.464   7.151  0.3064  2.2268 -2.4729
  926MOL0     H24984   0.937   2.377   7.273  0.3630 -1.5813  0.2012
  926MOL0     H24985   1.096   2.304   7.288  3.1902  1.9018 -0.3137
  926MOL0     H24986   1.006   2.567   7.412 -3.7756 -2.2017 -1.5571
  926MOL0     H24987   1.164   2.485   7.457 -1.3961 -2.3054  3.6382
  926MOL0     H24988   1.064   2.295   7.549 -0.9713 -1.1417 -1.9590
  926MOL0     H24989   1.014   2.441   7.643 -1.4956  2.1086  0.1203
  926MOL0     H24990   1.165   2.616   6.458 -0.1187  0.3915 -1.8123
  926MOL0     H24991   1.176   2.830   6.330  0.6027 -0.4019  0.4588
  926MOL0     H24992   1.103   3.264   6.336 -3.6491  1.4098  0.4454
  926MOL0     H24993   1.180   3.484   6.233 -1.5181  0.5484  1.5531
  926MOL0     H24994   2.353   4.522   6.219 -1.1006 -1.0972 -0.8780
  926MOL0     H24995   2.491   4.329   6.266 -3.2698 -0.5358  1.8199
  926MOL0     H24996   2.708   4.028   6.228  2.3624  2.9947 -2.0654
  926MOL0     H24997   2.894   3.895   6.265  0.5023  0.1018 -0.8848
  926MOL0     H24998   3.023   3.737   6.290  0.0175 -2.7188  0.0610
  926MOL0     H24999   3.118   3.826   6.187 -3.0263  1.1964 -0.0576
  926MOL0     H25000   3.224   3.587   6.095 -0.3174  1.1242  0.4787
  926MOL0     H25001   3.147   3.513   6.238  0.2022 -2.0642 -2.7108
  926MOL0     H25002   3.370   3.720   6.215  2.9510  0.8739  2.1359
  926MOL0     H25003   3.374   3.564   6.305  0.8174  0.3032 -2.3851
  926MOL0     H25004   3.365   3.729   6.469  0.2497 -0.1277  0.7397
  926MOL0     H25005   3.218   3.804   6.401 -0.6267  1.8626  6.7011
  926MOL0     H25006   3.067   3.532   6.669  1.5671 -1.8837  0.0479
  926MOL0     H25007   2.819   3.698   5.885 -0.6232  1.3385 -1.1490
  926MOL0     H25008   2.494   3.786   5.840 -0.4261 -3.0858 -0.2799
  926MOL0     H25009   2.603   3.883   5.749  2.6996  0.4897 -0.7026
  926MOL0     H25010   2.639   3.713   5.761  2.4337  0.4483  1.1461
  927MOL0     O25011  10.004   3.168   7.623  0.4890 -0.1767 -1.0197
  927MOL0     C25012  10.064   3.220   7.529  0.1370 -0.1505 -0.1777
  927MOL0     O25013  10.170   3.310   7.547  0.5484 -0.0919 -0.0353
  927MOL0     C25014  10.241   3.332   7.665  0.9240  0.4285  0.9603
  927MOL0     C25015  10.175   3.350   7.790  0.1170  0.3949  0.9684
  927MOL0     C25016  10.249   3.363   7.910 -0.0401  0.2927  1.1139
  927MOL0     C25017  10.386   3.381   7.900  0.1020  0.9999  0.2311
  927MOL0     O25018  10.446   3.394   8.018 -0.3727  0.2280 -0.2444
  927MOL0     C25019  10.583   3.430   8.024  0.6982 -0.5410 -0.5786
  927MOL0     C25020  10.662   3.302   8.031  0.4757 -0.0398  0.2253
  927MOL0     C25021  10.806   3.317   7.982 -0.8533 -0.5181 -0.0836
  927MOL0     C25022  10.899   3.384   8.092 -0.3994 -0.1081 -0.2586
  927MOL0     C25023  11.026   3.311   8.086 -0.2428  0.1817 -1.2708
  927MOL0     C25024  11.128   3.346   8.198 -0.3833 -0.3690  0.4260
  927MOL0     C25025  11.253   3.257   8.176  0.1545  0.2368 -0.7852
  927MOL0     C25026  11.340   3.253   8.287  0.0670  0.1563 -0.2781
  927MOL0     N25027  11.438   3.150   8.265  0.7496  0.6323 -1.3684
  927MOL0     C25028  11.565   3.168   8.249 -0.5497 -0.2619  0.3107
  927MOL0     C25029  11.622   3.045   8.235  0.5232 -0.5506 -0.1720
  927MOL0     C25030  11.774   3.014   8.221 -0.0034  0.6532  0.4607
  927MOL0     C25031  11.850   3.063   8.099  0.1068  0.2456  0.0957
  927MOL0     C25032  11.837   2.975   7.977  0.6190  0.2903  1.0452
  927MOL0     C25033  11.689   2.980   7.913 -0.5020  0.3750  0.2415
  927MOL0     O25034  11.690   3.111   7.866  0.4962 -0.2134  0.3631
  927MOL0     C25035  11.603   3.138   7.766  0.0028  0.0707  0.1767
  927MOL0     C25036  11.654   3.202   7.657 -0.6110 -0.6535  0.3702
  927MOL0     C25037  11.597   3.228   7.537  0.0211 -0.2511 -0.3293
  927MOL0     C25038  11.458   3.191   7.523  0.1488  0.0647  0.2158
  927MOL0     C25039  11.380   3.208   7.396  0.9313  0.1152 -0.9416
  927MOL0     O25040  11.241   3.179   7.392 -0.8486  0.3314  0.1215
  927MOL0     C25041  11.181   3.210   7.278 -0.5187  0.5712  0.4472
  927MOL0     C25042  11.155   3.348   7.256 -0.1039  0.5167 -0.0702
  927MOL0     C25043  11.073   3.381   7.142 -1.2148  0.3271  0.3415
  927MOL0     C25044  11.031   3.277   7.052  0.1613  0.7170 -0.4020
  927MOL0     O25045  10.953   3.292   6.941 -0.1402  0.3322 -0.1231
  927MOL0     C25046  10.935   3.433   6.888  0.2940 -0.1511  0.2008
  927MOL0     C25047  10.864   3.450   6.751  0.5686  0.1383  0.5497
  927MOL0     C25048  10.724   3.385   6.773 -0.5082  0.4712  0.5207
  927MOL0     C25049  10.629   3.441   6.671 -0.0370 -0.4576  0.3180
  927MOL0     C25050  10.484   3.405   6.703  0.1665  0.2776 -0.6792
  927MOL0     C25051  10.463   3.254   6.667  0.4319  0.2955 -0.3631
  927MOL0     C25052  10.315   3.231   6.691 -0.1634  0.9512  0.0733
  927MOL0     C25053  10.282   3.084   6.704  0.0218 -0.4008  0.3328
  927MOL0    Cl25054  10.321   3.027   6.874  0.2900  0.0638  0.5088
  927MOL0     C25055  11.073   3.145   7.069 -0.0650  0.0467 -0.1562
  927MOL0     C25056  11.138   3.109   7.189  0.3872  0.0597 -0.6302
  927MOL0     O25057  11.442   3.245   7.299 -0.1285  0.1004  0.3751
  927MOL0     C25058  11.400   3.135   7.639 -0.7076 -0.0160  0.6231
  927MOL0     C25059  11.467   3.106   7.756  0.4675  0.4033 -0.0775
  927MOL0     N25060  11.518   2.943   8.244  0.1145 -0.1165 -0.0388
  927MOL0     N25061  11.406   3.015   8.265 -0.5500 -1.0038 -0.0447
  927MOL0     C25062  10.457   3.379   7.776 -0.0258 -0.5115  0.3583
  927MOL0     C25063  10.381   3.362   7.657 -0.0917  0.5652  0.1386
  927MOL0     C25064  10.038   3.173   7.387 -0.0723 -0.6552  0.5210
  927MOL0     C25065   9.898   3.144   7.356  0.0959 -0.7775  1.2891
  927MOL0     C25066   9.858   3.096   7.226 -0.2501  0.5242 -0.0369
  927MOL0     C25067   9.956   3.097   7.124 -0.7936 -0.0632  0.2283
  927MOL0     O25068   9.935   3.042   7.003  0.2144 -0.1258 -0.0690
  927MOL0     C25069   9.814   2.967   6.968  0.2486  0.8609  0.1300
  927MOL0     C25070   9.831   2.820   7.006  0.2191  0.0191  0.3116
  927MOL0     C25071   9.732   2.744   6.922  0.2073 -0.3224 -0.0669
  927MOL0     C25072   9.747   2.589   6.927  0.3267  0.1363  0.5494
  927MOL0     C25073   9.719   2.523   7.052  0.4727  0.0853 -0.1179
  927MOL0     C25074   9.695   2.467   7.156 -0.3530  0.0503  0.1281
  927MOL0     C25075  10.079   3.145   7.143  0.3156 -0.6783 -0.7214
  927MOL0     C25076  10.124   3.180   7.276  0.2594 -1.0448 -0.5918
  927MOL0     C25077  10.275   3.214   7.304  0.2679 -0.8117  0.2985
  927MOL0     H25078  10.068   3.334   7.799 -0.4772  2.6392 -1.1460
  927MOL0     H25079  10.205   3.364   8.010  0.2280 -1.3057  1.2827
  927MOL0     H25080  10.618   3.489   7.938  2.4743 -2.2717 -1.1312
  927MOL0     H25081  10.594   3.490   8.115 -0.0124 -0.6580 -0.4127
  927MOL0     H25082  10.631   3.226   7.959 -1.7910  1.7092 -0.7724
  927MOL0     H25083  10.654   3.264   8.134  0.8175  0.5761  0.4893
  927MOL0     H25084  10.817   3.376   7.891  0.5746 -1.3130 -0.4592
  927MOL0     H25085  10.848   3.219   7.957 -0.2949 -0.4483  0.5825
  927MOL0     H25086  10.917   3.490   8.073 -1.2422 -0.2693 -2.2454
  927MOL0     H25087  10.837   3.374   8.182 -3.5202  1.7880 -2.0138
  927MOL0     H25088  11.010   3.206   8.115  4.0991 -0.7703 -1.6629
  927MOL0     H25089  11.064   3.321   7.984 -1.1339 -1.6091 -1.8243
  927MOL0     H25090  11.166   3.447   8.179  1.4151 -1.4694 -2.5511
  927MOL0     H25091  11.090   3.319   8.297 -1.0676 -0.7984  0.0562
  927MOL0     H25092  11.315   3.291   8.093 -0.2949  0.8131 -0.8985
  927MOL0     H25093  11.225   3.156   8.144  3.4348 -1.8149  2.1320
  927MOL0     H25094  11.397   3.343   8.311 -1.8327  1.2431  0.4649
  927MOL0     H25095  11.283   3.215   8.372  1.9118 -2.5679 -0.1444
  927MOL0     H25096  11.609   3.267   8.245 -5.0271  1.9165 -2.2556
  927MOL0     H25097  11.831   3.045   8.309 -0.0590  0.2200  0.6499
  927MOL0     H25098  11.774   2.905   8.223  1.0597  0.5520 -2.2235
  927MOL0     H25099  11.824   3.166   8.071 -0.8184 -0.1699 -0.6141
  927MOL0     H25100  11.954   3.057   8.134 -0.4138 -0.4052  1.6171
  927MOL0     H25101  11.860   2.871   8.003  1.4319  0.4943  1.1649
  927MOL0     H25102  11.911   3.001   7.901 -2.1128  2.8780 -0.9599
  927MOL0     H25103  11.601   2.970   7.977 -0.4877 -3.3137 -0.0775
  927MOL0     H25104  11.680   2.907   7.832  4.0880 -0.6425  0.3867
  927MOL0     H25105  11.761   3.222   7.655 -0.5964 -0.7201  0.4467
  927MOL0     H25106  11.650   3.256   7.447  1.8365  0.6729  0.9457
  927MOL0     H25107  11.202   3.427   7.315  0.4967  1.7530 -2.0927
  927MOL0     H25108  11.053   3.487   7.129 -3.6485 -0.0095  0.7839
  927MOL0     H25109  10.884   3.490   6.966 -0.9673 -0.6239 -0.2523
  927MOL0     H25110  11.029   3.487   6.877 -0.5026  0.9578 -1.6873
  927MOL0     H25111  10.857   3.557   6.729 -2.8215  0.6775  3.3612
  927MOL0     H25112  10.916   3.412   6.663 -3.8989 -0.6843 -2.0407
  927MOL0     H25113  10.722   3.275   6.765 -3.9400  0.4781 -0.8778
  927MOL0     H25114  10.683   3.408   6.871 -1.8995 -2.2298  0.6882
  927MOL0     H25115  10.657   3.405   6.572  3.8359  1.9049  0.3245
  927MOL0     H25116  10.641   3.550   6.676  2.5796 -0.6821  4.7315
  927MOL0     H25117  10.413   3.466   6.647 -0.0094  1.5855  0.8954
  927MOL0     H25118  10.460   3.433   6.806  1.3496  0.4851 -0.4523
  927MOL0     H25119  10.480   3.236   6.561 -0.6676 -2.7621 -0.1212
  927MOL0     H25120  10.523   3.191   6.733 -0.3309  0.9162  0.9670
  927MOL0     H25121  10.265   3.269   6.601 -2.9295 -0.2769  0.9779
  927MOL0     H25122  10.285   3.274   6.787 -1.4817 -2.3064  1.2403
  927MOL0     H25123  10.175   3.085   6.681  0.1827  2.6470 -0.7051
  927MOL0     H25124  10.338   3.033   6.624 -0.8644  1.2764 -1.4294
  927MOL0     H25125  11.015   3.078   7.006  1.0285 -0.1939 -0.9562
  927MOL0     H25126  11.154   3.002   7.200 -0.5576  0.0662  1.3276
  927MOL0     H25127  11.297   3.106   7.657 -1.0808  1.6707  1.3947
  927MOL0     H25128  11.430   3.045   7.838  0.7845 -2.1543 -1.7230
  927MOL0     H25129  10.565   3.381   7.770  0.0502  2.0545  1.5284
  927MOL0     H25130  10.434   3.365   7.562  0.8054  2.6210  0.6416
  927MOL0     H25131   9.831   3.146   7.441 -0.6314 -3.8254  0.9203
  927MOL0     H25132   9.766   3.041   7.208  1.0225 -2.2264  1.2286
  927MOL0     H25133   9.801   2.977   6.859  0.5670 -1.5526 -0.1811
  927MOL0     H25134   9.721   3.001   7.015  1.3463 -0.7385  3.8149
  927MOL0     H25135   9.802   2.809   7.110 -1.3242  2.3376  0.1973
  927MOL0     H25136   9.933   2.794   6.974 -0.5790 -0.6869 -1.8597
  927MOL0     H25137   9.743   2.759   6.814 -0.1762 -1.2631 -0.2517
  927MOL0     H25138   9.632   2.767   6.958  0.4371  0.8077 -0.1260
  927MOL0     H25139   9.707   2.542   6.837  1.7617  0.1126 -0.1009
  927MOL0     H25140   9.855   2.576   6.919  0.2445 -2.3233  2.3852
  927MOL0     H25141   9.674   2.397   7.235  0.3787 -3.0074 -2.1759
  927MOL0     H25142  10.155   3.144   7.066 -1.5931 -1.7696 -2.6948
  927MOL0     H25143  10.284   3.322   7.318 -1.9724 -0.8250  2.5584
  927MOL0     H25144  10.311   3.175   7.400 -1.6543  0.6064  1.6766
  927MOL0     H25145  10.341   3.185   7.222  1.0024  2.2476 -0.3135
  928MOL0     O25146   8.412   6.633   1.241 -0.6704 -0.0094 -0.2839
  928MOL0     C25147   8.501   6.549   1.251 -0.5350 -1.3770 -0.1200
  928MOL0     O25148   8.554   6.479   1.147 -0.1678 -0.4775  0.8561
  928MOL0     C25149   8.506   6.510   1.022  0.5581  0.0173 -0.1449
  928MOL0     C25150   8.573   6.570   0.919  0.2182  0.3333  0.1555
  928MOL0     C25151   8.530   6.580   0.786 -0.1736  0.9221 -0.5938
  928MOL0     C25152   8.394   6.544   0.757  0.4756  0.3953  0.8522
  928MOL0     O25153   8.339   6.561   0.629 -0.0707  0.3398 -0.0980
  928MOL0     C25154   8.402   6.652   0.543 -1.1624  0.0992  0.5063
  928MOL0     C25155   8.299   6.722   0.451  0.0640 -1.0518  0.3129
  928MOL0     C25156   8.351   6.730   0.312 -0.2760 -0.4494 -0.0957
  928MOL0     C25157   8.289   6.853   0.239  0.1725 -0.9774 -0.3299
  928MOL0     C25158   8.336   6.875   0.094  0.4973  0.8557  0.5816
  928MOL0     C25159   8.274   6.767   0.003 -0.8102 -0.2895  0.4249
  928MOL0     C25160   8.304   6.785  -0.151 -0.7770  0.0568 -0.6337
  928MOL0     C25161   8.448   6.752  -0.184  0.1364  0.5158  0.1864
  928MOL0     N25162   8.468   6.710  -0.326  0.0665  0.7595  0.5387
  928MOL0     C25163   8.596   6.715  -0.367  0.4306  0.9744  0.3615
  928MOL0     C25164   8.586   6.650  -0.492 -1.1683  1.2028 -0.1156
  928MOL0     C25165   8.700   6.633  -0.593 -0.7722  0.3583  0.1129
  928MOL0     C25166   8.825   6.559  -0.529  0.9863  0.3980 -0.7501
  928MOL0     C25167   8.807   6.425  -0.450 -0.2191 -0.1118  0.1534
  928MOL0     C25168   8.704   6.321  -0.497  0.3351 -0.5659 -0.0626
  928MOL0     O25169   8.733   6.278  -0.629 -0.4641  0.5369 -0.1597
  928MOL0     C25170   8.663   6.170  -0.688 -0.2280  0.0065  0.4421
  928MOL0     C25171   8.670   6.127  -0.827  0.3213  0.2917  0.4366
  928MOL0     C25172   8.581   6.028  -0.876 -0.0917 -0.8333 -0.0664
  928MOL0     C25173   8.477   5.963  -0.802  1.0777 -0.0211 -0.1448
  928MOL0     C25174   8.386   5.861  -0.851  0.1940  1.3383 -0.3281
  928MOL0     O25175   8.300   5.798  -0.761 -0.1102  0.6900 -0.5554
  928MOL0     C25176   8.207   5.711  -0.819 -1.0762  0.0247 -0.5086
  928MOL0     C25177   8.225   5.603  -0.906 -0.5846  0.8824 -1.1797
  928MOL0     C25178   8.133   5.515  -0.949 -0.8973 -0.4285 -0.2995
  928MOL0     C25179   8.010   5.504  -0.892 -0.8276 -1.9297 -0.2580
  928MOL0     O25180   7.917   5.414  -0.933 -0.7068  0.3419 -0.5074
  928MOL0     C25181   7.878   5.336  -0.823  0.3982 -0.8790 -0.6706
  928MOL0     C25182   7.742   5.295  -0.855  0.1822 -0.4570 -0.0340
  928MOL0     C25183   7.677   5.208  -0.731 -0.8165 -0.3310  0.0663
  928MOL0     C25184   7.613   5.077  -0.772 -0.0608  0.7961  0.3712
  928MOL0     C25185   7.578   5.010  -0.632  0.5800 -0.1667 -0.5395
  928MOL0     C25186   7.500   4.879  -0.644  0.1323 -0.7267  0.6577
  928MOL0     C25187   7.359   4.868  -0.574  0.6595  0.3155  0.4238
  928MOL0     C25188   7.263   4.765  -0.655 -0.7539  0.5875  1.0795
  928MOL0    Cl25189   7.104   4.729  -0.558 -0.2668 -0.3699  0.1133
  928MOL0     C25190   7.985   5.612  -0.803  0.4328  0.6920 -0.2329
  928MOL0     C25191   8.079   5.713  -0.774  0.7499  1.0237  0.2282
  928MOL0     O25192   8.386   5.839  -0.970 -0.1032 -0.4952 -0.3654
  928MOL0     C25193   8.468   6.013  -0.664  0.0472  0.2950  1.2519
  928MOL0     C25194   8.568   6.098  -0.614  0.2727  0.0009  0.2362
  928MOL0     N25195   8.456   6.619  -0.515  0.2481  0.7486  0.9629
  928MOL0     N25196   8.382   6.654  -0.415  0.2872  0.5193 -0.6418
  928MOL0     C25197   8.321   6.478   0.861  0.3998  0.2388  0.6046
  928MOL0     C25198   8.383   6.461   0.987  0.3276 -0.9493 -0.3101
  928MOL0     C25199   8.541   6.505   1.393 -1.0033 -0.3149 -0.0683
  928MOL0     C25200   8.641   6.416   1.407  0.0806  0.6236  0.5312
  928MOL0     C25201   8.687   6.365   1.529  0.0745  0.3273 -0.8485
  928MOL0     C25202   8.622   6.403   1.647 -0.1347  0.5051 -0.6384
  928MOL0     O25203   8.647   6.336   1.767 -0.6216  0.5193  0.7377
  928MOL0     C25204   8.789   6.335   1.791 -0.2894  0.1945  0.1990
  928MOL0     C25205   8.813   6.314   1.945  0.9349  0.4682  1.2423
  928MOL0     C25206   8.731   6.408   2.040 -1.0089 -0.7421  0.6230
  928MOL0     C25207   8.780   6.380   2.188 -0.2476  0.3994  1.0901
  928MOL0     C25208   8.740   6.490   2.283  0.3384  0.5474  0.2474
  928MOL0     C25209   8.704   6.576   2.364 -0.2919 -0.0989  0.3181
  928MOL0     C25210   8.511   6.489   1.629 -0.2351 -0.9190  0.0097
  928MOL0     C25211   8.474   6.555   1.511  0.6822 -0.4456  0.5648
  928MOL0     C25212   8.354   6.649   1.531  0.3779 -0.3890 -0.0110
  928MOL0     H25213   8.671   6.615   0.937  0.1388  0.7284 -0.3996
  928MOL0     H25214   8.580   6.608   0.694 -0.1246  0.0196 -0.8492
  928MOL0     H25215   8.460   6.735   0.586  0.4402  0.7197 -2.5562
  928MOL0     H25216   8.472   6.590   0.486 -3.8137 -1.5759 -1.0954
  928MOL0     H25217   8.282   6.818   0.500 -1.0493 -1.0521 -0.0545
  928MOL0     H25218   8.203   6.669   0.454 -0.1935 -0.5551  1.0371
  928MOL0     H25219   8.331   6.637   0.258 -1.2097  0.3873 -1.2352
  928MOL0     H25220   8.459   6.749   0.315 -0.4817  0.8792 -0.4350
  928MOL0     H25221   8.180   6.843   0.238  0.1004 -0.2883 -1.5352
  928MOL0     H25222   8.331   6.938   0.292  1.5181 -1.4022 -0.6860
  928MOL0     H25223   8.300   6.968   0.050 -1.0851 -0.2485 -0.6009
  928MOL0     H25224   8.442   6.865   0.070  0.1716 -0.7424 -0.3913
  928MOL0     H25225   8.302   6.669   0.041  1.6121  1.1322  2.6353
  928MOL0     H25226   8.165   6.779   0.002 -0.7755  0.5532 -2.1013
  928MOL0     H25227   8.282   6.890  -0.171 -1.0636  0.1007 -0.1205
  928MOL0     H25228   8.230   6.725  -0.205 -0.7335  0.2907 -0.9582
  928MOL0     H25229   8.519   6.832  -0.159 -0.3013  1.5023 -1.5801
  928MOL0     H25230   8.488   6.676  -0.116 -0.1068  1.4780  1.4365
  928MOL0     H25231   8.687   6.758  -0.328  1.2032 -0.4687  0.2304
  928MOL0     H25232   8.665   6.570  -0.676  1.6818  1.3977 -1.8252
  928MOL0     H25233   8.728   6.727  -0.641  0.8185  0.2110  0.6885
  928MOL0     H25234   8.880   6.527  -0.617  1.2018  1.5858 -1.0569
  928MOL0     H25235   8.890   6.621  -0.468  0.6377 -0.0815  0.1331
  928MOL0     H25236   8.774   6.455  -0.349 -2.2187 -0.8728 -0.2346
  928MOL0     H25237   8.902   6.372  -0.442 -0.9224 -1.1604  2.7865
  928MOL0     H25238   8.602   6.360  -0.493  0.5918 -0.0060  1.2510
  928MOL0     H25239   8.711   6.233  -0.433 -2.3262 -0.7273  0.1094
  928MOL0     H25240   8.749   6.162  -0.893 -1.5827  2.4118 -0.8573
  928MOL0     H25241   8.600   5.993  -0.977  0.8478 -1.3707  0.2794
  928MOL0     H25242   8.323   5.602  -0.952 -0.7937 -2.2867 -1.7814
  928MOL0     H25243   8.147   5.456  -1.039 -0.6695  1.7978 -1.8072
  928MOL0     H25244   7.947   5.256  -0.795 -1.4518 -2.1994  0.2952
  928MOL0     H25245   7.867   5.399  -0.734 -1.3843  1.3722 -2.3572
  928MOL0     H25246   7.681   5.382  -0.882  2.4198  0.6822 -1.7582
  928MOL0     H25247   7.734   5.233  -0.945 -1.6395  1.3627 -1.2039
  928MOL0     H25248   7.752   5.179  -0.657 -1.6577  1.0924  1.5435
  928MOL0     H25249   7.602   5.273  -0.686 -0.7605 -0.3661  0.2093
  928MOL0     H25250   7.683   5.015  -0.829  3.8036  3.5752  1.6395
  928MOL0     H25251   7.519   5.088  -0.826 -0.0027  0.0581  0.1095
  928MOL0     H25252   7.514   5.078  -0.575 -2.5577 -4.5742  1.7777
  928MOL0     H25253   7.670   4.981  -0.580  0.2920  0.0330  0.0795
  928MOL0     H25254   7.496   4.858  -0.752  1.3064 -1.4338  0.7314
  928MOL0     H25255   7.561   4.797  -0.605  0.3063 -1.4237 -0.9669
  928MOL0     H25256   7.308   4.964  -0.569  2.3755  1.2138  1.8911
  928MOL0     H25257   7.387   4.828  -0.476  1.4127 -0.3785 -0.0587
  928MOL0     H25258   7.242   4.815  -0.750 -1.9747 -0.4114  0.7864
  928MOL0     H25259   7.325   4.677  -0.677 -0.0723  0.9981  1.3337
  928MOL0     H25260   7.887   5.636  -0.762  0.5856  0.2649  0.4046
  928MOL0     H25261   8.043   5.792  -0.709  1.7180  2.1956 -0.6280
  928MOL0     H25262   8.403   5.969  -0.589 -2.0360  3.8713  1.7912
  928MOL0     H25263   8.547   6.116  -0.509  2.5528 -1.0280  0.9161
  928MOL0     H25264   8.220   6.448   0.839  0.7357  0.8897 -2.3157
  928MOL0     H25265   8.331   6.402   1.062 -1.5668  1.3732  0.3115
  928MOL0     H25266   8.695   6.376   1.322  0.4994  2.4660 -0.1162
  928MOL0     H25267   8.765   6.290   1.520  0.6627  0.8466 -0.1924
  928MOL0     H25268   8.845   6.421   1.755 -0.6718  0.2196 -0.3310
  928MOL0     H25269   8.823   6.246   1.737 -2.0875  0.1110 -0.8514
  928MOL0     H25270   8.921   6.307   1.957  1.3942 -0.0403 -2.1928
  928MOL0     H25271   8.762   6.220   1.967  2.4993 -1.0806 -1.3002
  928MOL0     H25272   8.625   6.388   2.023 -0.7395 -1.1765 -0.6496
  928MOL0     H25273   8.742   6.513   2.011 -0.6160 -0.8249  0.4716
  928MOL0     H25274   8.738   6.289   2.232 -1.1542  0.9851  1.4786
  928MOL0     H25275   8.887   6.371   2.170 -0.4076  0.8428 -0.2019
  928MOL0     H25276   8.694   6.661   2.429  1.1020  2.3475 -2.3880
  928MOL0     H25277   8.457   6.521   1.718  3.6881  2.0840  1.6114
  928MOL0     H25278   8.344   6.664   1.639  1.9448 -0.0107  0.1068
  928MOL0     H25279   8.374   6.746   1.484  1.4377  0.8680  2.8226
  928MOL0     H25280   8.258   6.615   1.490 -0.7787  1.4053  1.0335
  929MOL0     O25281   6.905   7.861   9.118  0.4892 -1.0571  0.8663
  929MOL0     C25282   7.002   7.904   9.185  0.1249 -0.3459  0.5996
  929MOL0     O25283   7.017   8.035   9.218 -0.5128  0.1562 -0.3098
  929MOL0     C25284   6.988   8.122   9.113 -0.8044 -0.1125 -0.0857
  929MOL0     C25285   6.952   8.254   9.146  0.0829 -0.2193 -0.3623
  929MOL0     C25286   6.946   8.344   9.043  0.5734  0.1281  0.4248
  929MOL0     C25287   6.946   8.307   8.906  0.6953  0.2644 -0.2538
  929MOL0     O25288   6.932   8.402   8.807  0.4217  0.6340 -1.3270
  929MOL0     C25289   6.992   8.527   8.825 -0.1553  0.2178  0.1901
  929MOL0     C25290   7.049   8.573   8.690  0.1133 -0.8533 -0.3772
  929MOL0     C25291   6.948   8.576   8.568  0.8958  1.0516 -1.0917
  929MOL0     C25292   6.962   8.678   8.461 -0.1524  0.4178 -0.8954
  929MOL0     C25293   6.824   8.717   8.413 -0.1902 -0.0555 -0.0872
  929MOL0     C25294   6.820   8.780   8.274  0.1554  0.2808  0.1176
  929MOL0     C25295   6.882   8.912   8.277 -0.1953 -0.1607  0.4621
  929MOL0     C25296   6.887   8.982   8.140 -0.2163  0.3374 -0.4467
  929MOL0     N25297   6.753   9.024   8.087 -0.0667 -0.0511 -0.2479
  929MOL0     C25298   6.690   9.138   8.120 -0.5858  0.1432 -0.2487
  929MOL0     C25299   6.573   9.145   8.049 -0.6951 -0.6866  0.6151
  929MOL0     C25300   6.465   9.254   8.061  0.1947  0.5782  0.2702
  929MOL0     C25301   6.407   9.263   8.190  0.0716  0.4243  0.0683
  929MOL0     C25302   6.289   9.370   8.191  0.0041 -0.8273 -0.2157
  929MOL0     C25303   6.205   9.377   8.315 -0.0713  0.2396 -0.1454
  929MOL0     O25304   6.295   9.392   8.421 -0.3228  0.2739  0.2438
  929MOL0     C25305   6.254   9.310   8.531  0.4424 -0.6301 -0.3195
  929MOL0     C25306   6.280   9.173   8.518  0.6355  0.1433  0.3229
  929MOL0     C25307   6.240   9.088   8.616 -0.1892 -0.4270  0.2334
  929MOL0     C25308   6.185   9.132   8.731  0.8245 -0.0892 -0.2372
  929MOL0     C25309   6.128   9.038   8.832  0.2216  0.0425 -0.9456
  929MOL0     O25310   6.091   9.103   8.945 -0.2356 -0.3288 -0.7748
  929MOL0     C25311   6.048   9.052   9.063  1.3696 -0.0820  0.1264
  929MOL0     C25312   6.024   9.145   9.154 -0.9310  0.3256 -0.6005
  929MOL0     C25313   5.949   9.114   9.270  0.1606 -0.2827 -0.9698
  929MOL0     C25314   5.909   8.983   9.299 -0.4146 -0.6184 -0.7857
  929MOL0     O25315   5.823   8.954   9.407  0.0631  0.1484  0.2255
  929MOL0     C25316   5.815   9.043   9.524  0.2034 -0.1122  0.1947
  929MOL0     C25317   5.702   9.143   9.515  0.5999  0.0750  0.3997
  929MOL0     C25318   5.580   9.085   9.594 -0.8157 -0.6477  0.4669
  929MOL0     C25319   5.606   9.114   9.739 -0.6094  1.0165 -0.4929
  929MOL0     C25320   5.525   9.014   9.830 -0.7850  0.5216  0.0680
  929MOL0     C25321   5.391   8.968   9.766  0.3412 -0.0862 -0.2042
  929MOL0     C25322   5.291   8.918   9.872  0.3512  1.2479 -0.8118
  929MOL0     C25323   5.188   8.804   9.825 -0.2971 -0.2052  0.3588
  929MOL0    Cl25324   5.268   8.650   9.786 -0.0137  0.1798 -0.3651
  929MOL0     C25325   5.946   8.879   9.213  0.4856  0.6316  0.5959
  929MOL0     C25326   6.007   8.921   9.088  0.0772 -0.5215 -0.1630
  929MOL0     O25327   6.132   8.916   8.817 -0.0082 -0.0758  0.0965
  929MOL0     C25328   6.164   9.274   8.745 -0.0234  0.4308  0.1569
  929MOL0     C25329   6.207   9.368   8.649 -0.1716  0.1369 -0.0326
  929MOL0     N25330   6.566   9.034   7.981 -0.3280  0.1702 -0.1046
  929MOL0     N25331   6.661   8.956   8.017  0.0871  0.6503 -0.5651
  929MOL0     C25332   6.986   8.174   8.878 -0.0769  0.2902 -0.6253
  929MOL0     C25333   7.013   8.089   8.982 -0.5771  0.3137 -0.4422
  929MOL0     C25334   7.077   7.803   9.267  0.0092 -1.1423 -0.0103
  929MOL0     C25335   7.123   7.840   9.405  0.5225  0.0571  1.2527
  929MOL0     C25336   7.189   7.746   9.481  0.6018  0.2199 -1.6560
  929MOL0     C25337   7.227   7.616   9.432  0.3423  0.0347  0.7061
  929MOL0     O25338   7.299   7.522   9.499  0.0608  1.0439 -0.0446
  929MOL0     C25339   7.344   7.552   9.631 -0.4244  0.8208 -0.0829
  929MOL0     C25340   7.395   7.420   9.680 -0.5873  0.6497 -0.4781
  929MOL0     C25341   7.430   7.423   9.826  0.4458 -0.4854 -0.0490
  929MOL0     C25342   7.335   7.491   9.923  0.3725 -0.2407 -0.3881
  929MOL0     C25343   7.361   7.639   9.923 -0.8172  0.7394 -0.6996
  929MOL0     C25344   7.388   7.754   9.924  0.1239  0.3507 -0.1992
  929MOL0     C25345   7.172   7.587   9.304  0.8460 -0.4630  0.6232
  929MOL0     C25346   7.099   7.672   9.225 -0.3333 -0.6847  0.0183
  929MOL0     C25347   7.057   7.624   9.081 -0.2186  0.0460 -0.3541
  929MOL0     H25348   6.941   8.281   9.251  1.0155 -1.1371 -0.0067
  929MOL0     H25349   6.923   8.448   9.063 -2.0111 -0.1653 -0.5935
  929MOL0     H25350   6.922   8.604   8.860 -0.9031 -0.3178 -0.1053
  929MOL0     H25351   7.079   8.523   8.890 -1.1123 -0.4810  1.4704
  929MOL0     H25352   7.129   8.502   8.671  2.3843  1.4641 -0.0128
  929MOL0     H25353   7.093   8.672   8.704  1.1302 -1.4187  0.5488
  929MOL0     H25354   6.853   8.596   8.619 -0.3295  0.0526 -2.8864
  929MOL0     H25355   6.946   8.476   8.524 -0.9552  0.7934 -0.5177
  929MOL0     H25356   7.011   8.770   8.494 -0.4848  0.1326  0.4603
  929MOL0     H25357   7.015   8.636   8.375 -2.0261  0.5809 -2.1932
  929MOL0     H25358   6.766   8.625   8.402  2.1095 -1.3139 -3.0863
  929MOL0     H25359   6.777   8.777   8.491  2.1131  1.0566  0.5211
  929MOL0     H25360   6.887   8.722   8.210  0.6005  1.5965 -0.6484
  929MOL0     H25361   6.721   8.773   8.226 -0.7890  0.8409  1.8782
  929MOL0     H25362   6.983   8.906   8.320  1.1256 -2.2031 -2.5903
  929MOL0     H25363   6.833   8.980   8.348  1.8822  2.1880 -0.2020
  929MOL0     H25364   6.953   9.068   8.152 -0.3173  0.6673 -2.0438
  929MOL0     H25365   6.936   8.908   8.077  1.3503 -1.3927  2.6008
  929MOL0     H25366   6.725   9.220   8.182 -1.4200  0.7902 -0.6153
  929MOL0     H25367   6.508   9.353   8.047 -0.6983  1.1245  1.2459
  929MOL0     H25368   6.385   9.243   7.987  1.3470  1.9093 -1.2344
  929MOL0     H25369   6.376   9.162   8.220  2.3523  0.0745  1.4372
  929MOL0     H25370   6.485   9.294   8.260  1.5979 -1.6317 -0.6381
  929MOL0     H25371   6.221   9.358   8.106 -0.9773 -0.1516  0.4398
  929MOL0     H25372   6.336   9.467   8.176  0.8142 -1.2835 -0.6728
  929MOL0     H25373   6.147   9.284   8.318  2.1076 -1.2999 -2.2327
  929MOL0     H25374   6.131   9.457   8.314 -1.7263 -1.0822  2.6546
  929MOL0     H25375   6.321   9.147   8.421 -2.1037 -2.0422 -0.3601
  929MOL0     H25376   6.276   8.986   8.609  2.3278  0.4706 -1.4232
  929MOL0     H25377   6.059   9.245   9.128  1.0291  0.0956  1.0000
  929MOL0     H25378   5.934   9.187   9.349  2.6142 -2.8874  2.2055
  929MOL0     H25379   5.805   8.975   9.610  1.5873 -1.8395 -0.9389
  929MOL0     H25380   5.908   9.098   9.542  1.8492 -3.0581  1.4207
  929MOL0     H25381   5.727   9.237   9.564 -1.2679  2.5929 -3.0888
  929MOL0     H25382   5.680   9.157   9.408  0.1791 -0.8710  0.3517
  929MOL0     H25383   5.490   9.140   9.565 -0.7841  0.1476  1.7987
  929MOL0     H25384   5.567   8.983   9.555  0.5011  0.0016 -1.8769
  929MOL0     H25385   5.574   9.217   9.756 -0.5793  1.4006 -2.5132
  929MOL0     H25386   5.711   9.103   9.770 -1.3375  0.6763  2.0815
  929MOL0     H25387   5.514   9.063   9.927  1.5687 -1.4627  1.4349
  929MOL0     H25388   5.592   8.931   9.853 -0.5855  0.7255  0.2227
  929MOL0     H25389   5.349   9.058   9.720  0.6294 -0.2913 -0.8867
  929MOL0     H25390   5.412   8.893   9.689  1.6767 -0.0920  0.1528
  929MOL0     H25391   5.254   9.011   9.917  0.6751  0.5663  0.9788
  929MOL0     H25392   5.341   8.876   9.960  0.1297  1.6528 -0.4855
  929MOL0     H25393   5.122   8.770   9.905  1.9098 -0.4074  2.1827
  929MOL0     H25394   5.129   8.836   9.739  0.2424 -1.7549 -0.6272
  929MOL0     H25395   5.917   8.775   9.229 -2.4883  1.0431 -1.4147
  929MOL0     H25396   6.025   8.842   9.016  0.2458 -0.4290 -0.2237
  929MOL0     H25397   6.119   9.309   8.837 -0.6805 -1.9982  0.8523
  929MOL0     H25398   6.185   9.474   8.662 -2.9368 -0.4753  1.2310
  929MOL0     H25399   6.984   8.149   8.772 -2.2184 -1.8865 -0.1667
  929MOL0     H25400   7.066   7.999   8.955 -1.3857 -0.6126  0.9382
  929MOL0     H25401   7.104   7.942   9.438  1.4833  0.1846  1.4526
  929MOL0     H25402   7.215   7.779   9.581 -2.8187  1.0389 -0.8849
  929MOL0     H25403   7.251   7.573   9.683 -1.8998  1.0292 -2.6288
  929MOL0     H25404   7.422   7.627   9.646 -2.1417  2.1401  3.0486
  929MOL0     H25405   7.482   7.388   9.622 -1.7329  1.4460 -2.7580
  929MOL0     H25406   7.311   7.353   9.660  1.7439 -2.0699 -2.0309
  929MOL0     H25407   7.531   7.457   9.848  0.4034 -1.1572  1.2974
  929MOL0     H25408   7.431   7.318   9.856  3.1285 -1.0155 -1.6709
  929MOL0     H25409   7.234   7.481   9.882  0.6358 -1.3035 -0.8359
  929MOL0     H25410   7.334   7.442  10.021 -0.5985  0.4201 -0.0570
  929MOL0     H25411   7.420   7.856   9.927  2.6139 -0.3798  1.1245
  929MOL0     H25412   7.182   7.488   9.262 -0.6835 -0.0213 -0.8784
  929MOL0     H25413   7.089   7.706   9.016  2.4363 -0.4636  0.1878
  929MOL0     H25414   7.102   7.529   9.051  2.3514  1.1046 -0.1342
  929MOL0     H25415   6.948   7.621   9.080 -0.4053  2.8974  0.6084
  930MOL0     O25416  11.243   8.037   4.318 -0.0723 -0.1434  0.9405
  930MOL0     C25417  11.364   8.061   4.303 -0.3480  0.0907  0.2964
  930MOL0     O25418  11.416   8.176   4.320  0.2183  0.0638  0.7340
  930MOL0     C25419  11.385   8.242   4.437  0.2507  0.2432  0.5087
  930MOL0     C25420  11.435   8.194   4.562  0.1159 -0.0764 -0.6633
  930MOL0     C25421  11.390   8.245   4.685 -0.1385 -0.1139  0.2389
  930MOL0     C25422  11.299   8.353   4.679  0.2560 -0.0225 -0.0039
  930MOL0     O25423  11.277   8.430   4.795  0.5768  0.1847 -1.0034
  930MOL0     C25424  11.282   8.367   4.928  0.8218 -0.2266 -0.1235
  930MOL0     C25425  11.170   8.271   4.949 -1.2447 -0.2230  0.0758
  930MOL0     C25426  11.191   8.185   5.076 -0.0787  0.3622  0.8760
  930MOL0     C25427  11.190   8.270   5.205  0.3255  0.2868 -0.1435
  930MOL0     C25428  11.212   8.179   5.325  0.6030  0.9296 -0.0252
  930MOL0     C25429  11.261   8.249   5.447  0.0600  0.0830 -0.3235
  930MOL0     C25430  11.258   8.155   5.557  0.4297  0.1843 -0.9932
  930MOL0     C25431  11.341   8.212   5.673  0.3253  0.6204  0.5488
  930MOL0     N25432  11.363   8.106   5.773 -0.5025  0.8788 -0.0724
  930MOL0     C25433  11.267   8.068   5.866 -0.3650 -0.6503  1.1222
  930MOL0     C25434  11.323   7.974   5.942 -0.0557 -0.8694 -0.3908
  930MOL0     C25435  11.253   7.900   6.056 -0.9149 -0.6372 -0.2034
  930MOL0     C25436  11.144   7.793   6.018  0.6304 -0.3453 -0.9381
  930MOL0     C25437  11.139   7.679   6.123  0.2716  0.6761  0.4289
  930MOL0     C25438  11.087   7.722   6.262  0.5636  0.4491  0.5103
  930MOL0     O25439  10.958   7.773   6.245  0.2407 -0.4585  0.8426
  930MOL0     C25440  10.908   7.861   6.327  0.1141 -0.0645  0.1683
  930MOL0     C25441  10.802   7.947   6.289 -0.0123 -0.3320  0.0385
  930MOL0     C25442  10.751   8.050   6.373 -0.2306  0.4242  0.7167
  930MOL0     C25443  10.811   8.069   6.501 -0.6073  0.5623 -0.1899
  930MOL0     C25444  10.775   8.180   6.588 -0.4227  0.7347  1.5898
  930MOL0     O25445  10.702   8.280   6.524 -0.3041 -0.5004  0.2318
  930MOL0     C25446  10.649   8.388   6.591 -0.9814  0.0175  0.5001
  930MOL0     C25447  10.693   8.518   6.570 -0.0465 -0.7629  1.7936
  930MOL0     C25448  10.630   8.628   6.628 -0.3460  0.0132  0.2804
  930MOL0     C25449  10.528   8.605   6.711  0.4647  0.7374  0.0509
  930MOL0     O25450  10.492   8.720   6.775 -0.1519 -0.1947  0.4433
  930MOL0     C25451  10.368   8.729   6.855  0.1319 -0.6234 -0.3335
  930MOL0     C25452  10.399   8.679   6.998 -0.1966  0.6367 -0.1071
  930MOL0     C25453  10.271   8.651   7.078 -0.2761  1.2245 -0.8324
  930MOL0     C25454  10.208   8.780   7.140 -0.0200 -0.7000  0.6356
  930MOL0     C25455  10.087   8.719   7.215  0.1698  0.0295  0.4562
  930MOL0     C25456  10.010   8.814   7.306 -0.0844  0.9991 -1.7724
  930MOL0     C25457   9.899   8.724   7.376 -0.0953 -0.5664 -0.0555
  930MOL0     C25458   9.826   8.819   7.476  1.4542  0.2061 -0.3957
  930MOL0    Cl25459   9.718   8.733   7.583  0.4469 -0.1711  0.2856
  930MOL0     C25460  10.478   8.477   6.737  0.3758  0.0041  0.2850
  930MOL0     C25461  10.536   8.362   6.669 -0.2896  0.3410  0.2696
  930MOL0     O25462  10.811   8.178   6.701 -1.1224 -0.0803  0.2283
  930MOL0     C25463  10.901   7.969   6.549  0.1229 -0.0868  0.5388
  930MOL0     C25464  10.944   7.867   6.462  0.2565  0.3490 -0.5037
  930MOL0     N25465  11.449   7.941   5.892 -1.0064 -0.7473 -0.2357
  930MOL0     N25466  11.469   8.023   5.787  0.7488 -0.1679 -0.5767
  930MOL0     C25467  11.254   8.402   4.557  0.3723  0.5091  0.8762
  930MOL0     C25468  11.293   8.345   4.428  1.2498 -0.1327  0.0894
  930MOL0     C25469  11.450   7.941   4.280 -0.4378 -0.2576 -0.0727
  930MOL0     C25470  11.427   7.812   4.341  0.0964 -0.9367 -0.3503
  930MOL0     C25471  11.509   7.706   4.322  0.2669  0.4311  0.4884
  930MOL0     C25472  11.613   7.714   4.226 -0.5226  0.3428  0.6849
  930MOL0     O25473  11.685   7.609   4.194  0.1199 -1.2789  0.7231
  930MOL0     C25474  11.643   7.478   4.232  0.3116  0.5150  0.2391
  930MOL0     C25475  11.743   7.375   4.194  0.8158  0.5871  0.1598
  930MOL0     C25476  11.857   7.359   4.298  0.1269  0.3892 -0.1765
  930MOL0     C25477  11.976   7.266   4.250 -0.3910 -0.7001  0.4445
  930MOL0     C25478  11.928   7.127   4.229  0.5699 -0.0825 -0.3079
  930MOL0     C25479  11.881   7.016   4.220  0.0068 -0.1416 -0.5322
  930MOL0     C25480  11.641   7.827   4.160  0.7035  0.9646 -0.2821
  930MOL0     C25481  11.563   7.935   4.189  0.6326 -0.2829  0.2321
  930MOL0     C25482  11.610   8.055   4.113 -0.8053  0.1851 -1.4271
  930MOL0     H25483  11.503   8.109   4.555  1.5994  0.6660  2.7699
  930MOL0     H25484  11.435   8.197   4.771  2.5411  1.2301 -0.3216
  930MOL0     H25485  11.379   8.319   4.941  1.0307  0.7529  2.5985
  930MOL0     H25486  11.281   8.451   4.997  3.3392  0.8243 -1.2205
  930MOL0     H25487  11.139   8.219   4.858  0.2612  0.9373 -1.1449
  930MOL0     H25488  11.080   8.327   4.975 -0.2988  1.7575 -0.7107
  930MOL0     H25489  11.291   8.141   5.078  1.7996  3.8350 -2.4672
  930MOL0     H25490  11.106   8.116   5.073  0.5265 -0.3908  0.6439
  930MOL0     H25491  11.265   8.349   5.198  0.2917  0.2344 -1.3427
  930MOL0     H25492  11.092   8.318   5.217 -0.4971 -0.9720 -1.4791
  930MOL0     H25493  11.117   8.127   5.341  0.5643  0.3494 -1.8868
  930MOL0     H25494  11.275   8.100   5.284  0.5559 -0.3759  2.2699
  930MOL0     H25495  11.366   8.276   5.432  0.3541 -1.6417 -1.5888
  930MOL0     H25496  11.199   8.335   5.476 -2.2578 -0.7623 -2.3945
  930MOL0     H25497  11.304   8.062   5.522 -1.2703 -0.4388 -1.6700
  930MOL0     H25498  11.154   8.144   5.588  0.9605  1.6335  1.6465
  930MOL0     H25499  11.441   8.237   5.636  1.2172 -1.2808  1.5357
  930MOL0     H25500  11.286   8.287   5.730 -3.5149 -1.2605 -0.3778
  930MOL0     H25501  11.171   8.116   5.884 -0.1320  0.3109 -0.1179
  930MOL0     H25502  11.337   7.860   6.114 -0.4351 -0.0044 -0.4393
  930MOL0     H25503  11.205   7.977   6.117  0.0006  0.9779 -1.4288
  930MOL0     H25504  11.046   7.841   6.005  2.6425  4.7902  0.6449
  930MOL0     H25505  11.164   7.743   5.923  0.0086 -2.0195 -0.2341
  930MOL0     H25506  11.241   7.651   6.149 -0.2893  0.9081  3.1862
  930MOL0     H25507  11.082   7.596   6.082  1.7745  0.7037 -1.8599
  930MOL0     H25508  11.161   7.795   6.295  3.0953 -1.8024  0.1647
  930MOL0     H25509  11.091   7.637   6.331  3.9551  2.5953  3.2738
  930MOL0     H25510  10.762   7.928   6.190 -2.3298 -3.0879  1.3725
  930MOL0     H25511  10.676   8.124   6.344  0.8165  1.2357  0.0157
  930MOL0     H25512  10.780   8.534   6.507  0.0057 -0.7774  1.8607
  930MOL0     H25513  10.657   8.728   6.594  3.8476 -0.8911  0.4029
  930MOL0     H25514  10.339   8.833   6.871 -0.3124 -0.6104 -1.2224
  930MOL0     H25515  10.287   8.679   6.802 -1.5421 -0.0545  1.5772
  930MOL0     H25516  10.458   8.589   6.982  2.7343  2.2424  1.0523
  930MOL0     H25517  10.466   8.753   7.043 -1.5558  3.2445 -2.0753
  930MOL0     H25518  10.207   8.596   7.008  1.0561  0.9879 -1.8940
  930MOL0     H25519  10.279   8.575   7.155 -2.3621  1.0152 -0.7554
  930MOL0     H25520  10.169   8.850   7.066 -2.2660 -0.0536  2.3117
  930MOL0     H25521  10.279   8.835   7.204 -0.0619  0.2008 -0.0671
  930MOL0     H25522  10.123   8.638   7.279 -2.0037  0.3980  2.3068
  930MOL0     H25523  10.031   8.676   7.132  1.3004  1.7881 -1.3114
  930MOL0     H25524  10.067   8.862   7.387 -2.5954 -0.0692  0.7818
  930MOL0     H25525   9.966   8.893   7.245  0.5377  2.3894 -0.4997
  930MOL0     H25526   9.941   8.633   7.418 -0.6217  0.3113  2.6143
  930MOL0     H25527   9.830   8.688   7.299  1.6964 -2.2838 -0.9093
  930MOL0     H25528   9.907   8.856   7.540  2.7117 -0.5214 -1.5324
  930MOL0     H25529   9.779   8.908   7.433  0.1032 -0.4105 -0.2608
  930MOL0     H25530  10.396   8.457   6.805 -0.3728 -0.9494 -0.8371
  930MOL0     H25531  10.490   8.266   6.690 -0.9653 -0.1555 -3.0286
  930MOL0     H25532  10.945   7.978   6.648 -1.2315 -1.8356  1.3489
  930MOL0     H25533  11.033   7.822   6.504 -0.1508  0.5879  0.6814
  930MOL0     H25534  11.191   8.488   4.578 -1.6314 -0.8958  0.8356
  930MOL0     H25535  11.251   8.397   4.342 -0.8514 -0.1703  1.0272
  930MOL0     H25536  11.339   7.805   4.404 -0.3699  1.7550 -0.5915
  930MOL0     H25537  11.489   7.623   4.389 -1.5168  0.1950 -0.2942
  930MOL0     H25538  11.538   7.456   4.210  0.2480 -1.0843  1.8666
  930MOL0     H25539  11.633   7.469   4.341 -0.8790 -1.1978  0.0235
  930MOL0     H25540  11.783   7.384   4.093 -0.4758  0.8968 -0.3382
  930MOL0     H25541  11.697   7.277   4.208  4.2767 -1.0473  1.3512
  930MOL0     H25542  11.811   7.342   4.396 -1.0965  1.2934 -0.5716
  930MOL0     H25543  11.897   7.460   4.312 -1.8861  0.9166  2.5376
  930MOL0     H25544  12.028   7.305   4.162 -2.0264  0.0857 -0.2015
  930MOL0     H25545  12.045   7.251   4.334  0.8892 -4.0096 -1.0255
  930MOL0     H25546  11.855   6.913   4.222 -2.5942  0.3920 -2.0344
  930MOL0     H25547  11.730   7.824   4.098  1.1991 -2.8221  0.3753
  930MOL0     H25548  11.643   8.135   4.180  2.4849  2.3351 -5.1880
  930MOL0     H25549  11.693   8.036   4.044 -0.7784  3.3191 -2.4179
  930MOL0     H25550  11.530   8.107   4.060 -2.6383  0.8848  1.7741
  931MOL0     O25551   4.259  11.427   0.825  0.2274  0.2820  0.3824
  931MOL0     C25552   4.317  11.536   0.832  0.4523  0.7435 -0.0074
  931MOL0     O25553   4.260  11.664   0.834  0.0841  0.9210 -0.8765
  931MOL0     C25554   4.129  11.679   0.798  0.5024 -0.3794  1.2781
  931MOL0     C25555   4.083  11.812   0.812 -0.4673  1.0307 -0.0854
  931MOL0     C25556   3.955  11.858   0.771 -0.2639 -0.1264  0.4064
  931MOL0     C25557   3.867  11.759   0.717 -0.2750 -0.5461 -0.6346
  931MOL0     O25558   3.756  11.800   0.655  0.2950 -0.4474  0.2428
  931MOL0     C25559   3.692  11.918   0.696 -0.6455  0.7264 -0.3690
  931MOL0     C25560   3.551  11.928   0.632  0.8115  0.4645  0.4878
  931MOL0     C25561   3.472  12.051   0.669  0.7894 -0.5537 -0.3078
  931MOL0     C25562   3.537  12.177   0.636  0.5533 -0.4447 -0.6785
  931MOL0     C25563   3.449  12.301   0.640 -0.4889 -0.6557 -0.6746
  931MOL0     C25564   3.400  12.337   0.783 -0.1693  0.3551 -0.6437
  931MOL0     C25565   3.289  12.447   0.792 -0.4072  0.1661  0.2951
  931MOL0     C25566   3.337  12.581   0.729  0.1573  0.2680  0.4646
  931MOL0     N25567   3.252  12.694   0.741 -0.5716 -0.4754  0.5120
  931MOL0     C25568   3.281  12.807   0.815 -0.5443  0.9063  1.0058
  931MOL0     C25569   3.178  12.889   0.798 -1.0505 -1.5958  0.8540
  931MOL0     C25570   3.169  13.016   0.873 -0.6607 -0.4528  0.4945
  931MOL0     C25571   3.093  13.005   0.998  0.8918 -0.5700 -0.0160
  931MOL0     C25572   3.080  13.154   1.050  0.1509  0.1723  0.0042
  931MOL0     C25573   3.074  13.165   1.203 -0.0561 -0.0959 -0.2796
  931MOL0     O25574   2.969  13.088   1.264  0.5752 -0.9906 -1.0629
  931MOL0     C25575   2.955  13.093   1.401  0.2323  0.3788  0.4737
  931MOL0     C25576   3.035  13.174   1.476 -0.0120  1.1767 -0.3914
  931MOL0     C25577   3.001  13.183   1.614 -0.2334  0.7641 -0.3936
  931MOL0     C25578   2.889  13.110   1.664 -0.1997  0.3618 -0.4642
  931MOL0     C25579   2.838  13.131   1.800  0.1842  0.6217 -0.6900
  931MOL0     O25580   2.872  13.253   1.855 -0.2470 -0.2946  0.9388
  931MOL0     C25581   2.857  13.262   1.994  0.7090 -0.0469  0.4481
  931MOL0     C25582   2.797  13.378   2.047 -0.2502 -1.1137 -0.0081
  931MOL0     C25583   2.811  13.408   2.179 -0.1006 -1.2252 -1.0355
  931MOL0     C25584   2.876  13.321   2.276  0.4570  0.3547  0.4037
  931MOL0     O25585   2.893  13.365   2.406  0.3346 -0.4248 -0.9227
  931MOL0     C25586   2.971  13.300   2.505 -0.3752  0.7370 -0.4411
  931MOL0     C25587   2.993  13.390   2.629 -0.2263 -0.6759  0.3805
  931MOL0     C25588   3.079  13.326   2.733 -0.7266  0.0141 -0.1218
  931MOL0     C25589   3.142  13.408   2.848  0.3359 -0.4928 -0.5611
  931MOL0     C25590   3.215  13.333   2.962 -0.4445  0.9694 -0.3701
  931MOL0     C25591   3.158  13.349   3.099 -0.2925  0.5856 -0.0432
  931MOL0     C25592   3.035  13.259   3.108 -0.3480 -0.3584  0.2731
  931MOL0     C25593   2.981  13.267   3.246 -0.3109 -0.8655  0.0126
  931MOL0    Cl25594   2.967  13.424   3.330  0.4603  0.3919  0.1919
  931MOL0     C25595   2.920  13.191   2.225  0.7469 -0.8054 -0.2339
  931MOL0     C25596   2.911  13.172   2.089 -0.5122  0.3579  0.7936
  931MOL0     O25597   2.790  13.034   1.860 -0.2005 -0.5202  0.2128
  931MOL0     C25598   2.809  13.032   1.582 -0.0090  0.0434  0.1982
  931MOL0     C25599   2.850  13.021   1.460  0.3993  0.1189 -0.1009
  931MOL0     N25600   3.079  12.824   0.740 -0.3879 -0.0832  0.8285
  931MOL0     N25601   3.121  12.703   0.702  0.3799 -0.2474  0.0634
  931MOL0     C25602   3.904  11.626   0.698 -0.5013  0.0664 -0.5077
  931MOL0     C25603   4.040  11.593   0.732  0.0677  0.2646 -0.1399
  931MOL0     C25604   4.464  11.543   0.818 -0.3270 -0.6206  0.2992
  931MOL0     C25605   4.535  11.675   0.809 -0.8209 -0.0462 -1.3142
  931MOL0     C25606   4.676  11.694   0.797 -0.5032 -0.6395  1.1432
  931MOL0     C25607   4.753  11.580   0.789  0.0305  0.9551  0.6936
  931MOL0     O25608   4.882  11.599   0.757 -0.8453 -0.1968 -0.5236
  931MOL0     C25609   4.958  11.705   0.814  0.0732 -0.4809 -0.4705
  931MOL0     C25610   5.097  11.651   0.860  0.2190  0.2196 -0.4858
  931MOL0     C25611   5.092  11.546   0.963  0.3080 -1.2600  0.7144
  931MOL0     C25612   5.230  11.482   1.002 -0.3645  0.1795  0.4717
  931MOL0     C25613   5.346  11.571   1.002  0.3235  1.0209  0.8656
  931MOL0     C25614   5.441  11.635   1.003 -0.2659 -0.4896 -0.3376
  931MOL0     C25615   4.690  11.455   0.796  0.2614  0.3648 -0.8164
  931MOL0     C25616   4.553  11.428   0.813 -0.1303 -0.8505  0.2470
  931MOL0     C25617   4.509  11.285   0.796 -0.3014  0.4145  0.2873
  931MOL0     H25618   4.149  11.881   0.864  0.9454  0.2131 -0.7352
  931MOL0     H25619   3.935  11.964   0.787 -0.7845 -0.3224  1.0858
  931MOL0     H25620   3.681  11.918   0.804  2.1337  0.8613 -0.0223
  931MOL0     H25621   3.753  12.008   0.683  2.0104 -1.0277 -0.8610
  931MOL0     H25622   3.481  11.851   0.665 -1.5700  2.2265 -0.1604
  931MOL0     H25623   3.545  11.907   0.524  0.8308 -0.8001  0.7078
  931MOL0     H25624   3.476  12.044   0.778  1.1854  1.8817 -0.1253
  931MOL0     H25625   3.370  12.059   0.631  0.0298  4.9813  1.9797
  931MOL0     H25626   3.611  12.194   0.714  2.4055  0.1723 -2.4749
  931MOL0     H25627   3.593  12.172   0.542 -0.6597 -2.5184 -1.3504
  931MOL0     H25628   3.513  12.381   0.603  2.9122 -1.1326  3.4445
  931MOL0     H25629   3.360  12.287   0.577 -0.2869 -1.2853 -0.8299
  931MOL0     H25630   3.358  12.247   0.828  0.6244 -0.1759 -0.9382
  931MOL0     H25631   3.480  12.348   0.857 -2.5996 -3.9977  3.0927
  931MOL0     H25632   3.254  12.460   0.894 -1.7375  0.2751 -0.1618
  931MOL0     H25633   3.209  12.407   0.730  0.7383 -1.7961 -0.0127
  931MOL0     H25634   3.440  12.607   0.752  1.0857  0.0903 -2.9366
  931MOL0     H25635   3.344  12.563   0.621 -1.1224 -0.2924  0.4518
  931MOL0     H25636   3.368  12.826   0.878  0.4830  1.7442 -0.5785
  931MOL0     H25637   3.268  13.050   0.904  0.0548 -2.2535  0.3048
  931MOL0     H25638   3.130  13.095   0.808  1.4879 -0.3712 -0.7916
  931MOL0     H25639   2.992  12.967   0.977  0.5040 -1.3648  2.8533
  931MOL0     H25640   3.145  12.940   1.069  2.6842  0.7553 -0.0530
  931MOL0     H25641   2.992  13.192   0.997 -0.3218  1.3623  1.5705
  931MOL0     H25642   3.168  13.209   1.017  1.2327 -2.2467 -1.4613
  931MOL0     H25643   3.072  13.271   1.228 -1.8219 -0.9151  3.7548
  931MOL0     H25644   3.171  13.137   1.246 -1.3494 -0.6109  2.5370
  931MOL0     H25645   3.127  13.221   1.443  0.5009 -1.2333 -2.7133
  931MOL0     H25646   3.069  13.233   1.683 -0.5422  2.0043 -0.9505
  931MOL0     H25647   2.768  13.453   1.975  1.4075  1.2410  1.5859
  931MOL0     H25648   2.790  13.505   2.223 -0.5925 -1.3180 -1.0605
  931MOL0     H25649   2.922  13.206   2.531 -3.9971  2.4872 -0.3351
  931MOL0     H25650   3.069  13.287   2.459  0.2534  5.2086 -0.8815
  931MOL0     H25651   3.033  13.488   2.600 -1.3483 -0.8439 -1.8869
  931MOL0     H25652   2.897  13.412   2.677 -0.7618  1.1422 -1.3875
  931MOL0     H25653   3.017  13.248   2.777 -1.2169  0.0228 -0.7785
  931MOL0     H25654   3.171  13.281   2.694 -0.8591 -2.2942  2.0007
  931MOL0     H25655   3.062  13.476   2.876  0.8104  0.3930 -1.3153
  931MOL0     H25656   3.213  13.484   2.815 -0.2170 -0.3421 -1.4078
  931MOL0     H25657   3.319  13.364   2.967 -0.0716 -0.0569 -1.3211
  931MOL0     H25658   3.229  13.226   2.941  0.6180  1.1244 -0.4749
  931MOL0     H25659   3.239  13.308   3.160 -0.3827  0.3744 -0.0644
  931MOL0     H25660   3.142  13.448   3.141  1.5358  0.7947  0.2312
  931MOL0     H25661   3.069  13.162   3.071  3.3789  1.2534 -1.0161
  931MOL0     H25662   2.960  13.284   3.032  0.3751 -2.4562 -1.2054
  931MOL0     H25663   2.879  13.229   3.240  0.0049 -1.6804 -0.4723
  931MOL0     H25664   3.028  13.187   3.305 -0.6021 -2.1017 -1.3671
  931MOL0     H25665   2.962  13.119   2.294  0.0107 -0.4213  0.6458
  931MOL0     H25666   2.964  13.082   2.058  0.1217  0.8051  0.5513
  931MOL0     H25667   2.715  12.987   1.612 -0.0022  0.2823  0.5782
  931MOL0     H25668   2.789  12.964   1.391 -0.0909  0.9821 -0.3927
  931MOL0     H25669   3.828  11.561   0.657 -0.9321 -0.4608  1.0560
  931MOL0     H25670   4.071  11.492   0.709  1.7471  0.3933  1.3035
  931MOL0     H25671   4.476  11.766   0.809  0.1226  0.6976  2.1899
  931MOL0     H25672   4.721  11.787   0.762  0.8720 -1.7844 -0.2844
  931MOL0     H25673   4.894  11.749   0.890 -0.3603 -2.1790  0.1835
  931MOL0     H25674   4.973  11.781   0.736  1.8006 -0.4435 -0.1497
  931MOL0     H25675   5.142  11.739   0.906  0.1025  0.5399 -0.9835
  931MOL0     H25676   5.165  11.621   0.780 -0.8583 -1.4752 -0.8291
  931MOL0     H25677   5.038  11.466   0.912 -0.6970  1.1081 -2.2176
  931MOL0     H25678   5.037  11.572   1.055 -2.6721  3.9261 -2.0327
  931MOL0     H25679   5.215  11.432   1.098 -1.4128 -0.5865 -0.0772
  931MOL0     H25680   5.253  11.401   0.932 -3.3923  0.6640 -1.2616
  931MOL0     H25681   5.534  11.689   1.009  1.3258 -2.6361 -3.1354
  931MOL0     H25682   4.762  11.379   0.766  0.1759  1.2885 -3.6932
  931MOL0     H25683   4.446  11.265   0.709 -1.6945 -0.1755  1.4010
  931MOL0     H25684   4.598  11.222   0.779 -1.4213 -0.8146 -1.3152
  931MOL0     H25685   4.458  11.244   0.884  0.5047 -1.7113 -0.1533
  932MOL0     O25686   5.090   7.088   7.289 -0.6080 -0.0293 -0.0956
  932MOL0     C25687   5.084   7.176   7.205  0.7289  0.0238 -0.2420
  932MOL0     O25688   5.175   7.202   7.110 -0.2776  0.3900 -0.4325
  932MOL0     C25689   5.307   7.162   7.130  0.2069  0.4695 -0.7366
  932MOL0     C25690   5.344   7.025   7.130 -0.2657  0.3818 -0.6271
  932MOL0     C25691   5.470   6.975   7.163  0.5297 -1.3102 -0.1003
  932MOL0     C25692   5.575   7.078   7.172 -0.4018 -0.1147  0.2465
  932MOL0     O25693   5.711   7.053   7.188  0.4759 -0.0002  0.4418
  932MOL0     C25694   5.753   6.936   7.119  0.3055  0.5098  0.0512
  932MOL0     C25695   5.903   6.919   7.104 -0.8092  0.1218  1.0019
  932MOL0     C25696   5.947   6.814   6.998  0.2118 -0.4805 -0.9543
  932MOL0     C25697   5.959   6.861   6.856  0.1031  0.2381  1.1111
  932MOL0     C25698   5.972   6.735   6.764 -0.2865  0.5662 -0.8134
  932MOL0     C25699   5.883   6.736   6.645  0.4723  0.2959 -0.3434
  932MOL0     C25700   5.936   6.845   6.545  0.6798 -0.0444 -0.5908
  932MOL0     C25701   5.847   6.874   6.419 -0.3943 -0.2680 -0.3173
  932MOL0     N25702   5.823   6.757   6.328 -0.4747  0.3031  0.4115
  932MOL0     C25703   5.921   6.667   6.285 -0.9716  0.6155  0.9864
  932MOL0     C25704   5.866   6.604   6.182  1.3540  0.7906  0.3363
  932MOL0     C25705   5.916   6.492   6.097  0.2646 -0.1019 -0.2704
  932MOL0     C25706   5.997   6.548   5.983  0.3247  0.5089  0.6098
  932MOL0     C25707   6.128   6.612   6.017 -0.0784  1.0798 -0.4194
  932MOL0     C25708   6.207   6.641   5.898 -0.3144 -0.4594 -0.3350
  932MOL0     O25709   6.233   6.528   5.816 -0.0997 -0.3330  0.0781
  932MOL0     C25710   6.302   6.556   5.699  0.2363  0.6970 -0.2928
  932MOL0     C25711   6.307   6.447   5.612  0.3041  0.0944 -0.7225
  932MOL0     C25712   6.377   6.450   5.495  0.6596 -0.2912  1.0550
  932MOL0     C25713   6.455   6.557   5.459  0.2815 -0.2024  0.1616
  932MOL0     C25714   6.536   6.559   5.332  0.3856  0.4983 -0.8751
  932MOL0     O25715   6.616   6.674   5.311 -1.1761  0.1427  0.1956
  932MOL0     C25716   6.709   6.688   5.205 -0.3227  0.3276  0.2235
  932MOL0     C25717   6.757   6.573   5.137  0.2921  0.3654 -0.0988
  932MOL0     C25718   6.848   6.592   5.037 -0.0028  0.9978 -0.1281
  932MOL0     C25719   6.885   6.723   5.004  0.2694 -0.8961  0.3445
  932MOL0     O25720   6.977   6.744   4.909  0.4847 -0.4866  0.6027
  932MOL0     C25721   7.072   6.650   4.871 -0.3848 -0.0667  0.6793
  932MOL0     C25722   7.174   6.704   4.754  0.1595  0.3854  0.1709
  932MOL0     C25723   7.258   6.830   4.800  0.5318 -1.0084  0.0156
  932MOL0     C25724   7.282   6.839   4.947  0.2246 -0.4046 -0.6854
  932MOL0     C25725   7.379   6.956   4.982  0.2912  0.6856  0.1022
  932MOL0     C25726   7.393   6.974   5.139  0.6861 -0.3390  0.1176
  932MOL0     C25727   7.449   7.114   5.177  0.0275  0.2207 -0.4994
  932MOL0     C25728   7.459   7.146   5.328 -0.3123  0.2353  0.5506
  932MOL0    Cl25729   7.493   7.315   5.360  0.1421  0.3832 -0.0023
  932MOL0     C25730   6.843   6.837   5.073 -0.4092  0.2062  1.0850
  932MOL0     C25731   6.757   6.819   5.176  0.3979  0.3830  0.3334
  932MOL0     O25732   6.514   6.478   5.240 -0.2098  0.4226 -0.2894
  932MOL0     C25733   6.469   6.663   5.548  0.1519 -0.4021 -0.1470
  932MOL0     C25734   6.379   6.667   5.664  0.1030  0.1700  0.3891
  932MOL0     N25735   5.729   6.645   6.179 -0.0594  0.5798  0.6940
  932MOL0     N25736   5.699   6.724   6.269 -0.2846 -0.4930 -1.0821
  932MOL0     C25737   5.539   7.213   7.190  0.2141  0.4639  0.5253
  932MOL0     C25738   5.407   7.255   7.152 -0.1989  0.5155  0.1928
  932MOL0     C25739   4.950   7.239   7.194  0.2452 -0.0741  0.4801
  932MOL0     C25740   4.839   7.186   7.273 -0.2493 -1.2455 -0.4715
  932MOL0     C25741   4.714   7.237   7.264  1.3375  0.5927 -0.2943
  932MOL0     C25742   4.691   7.342   7.177 -0.8054 -1.3276  0.2483
  932MOL0     O25743   4.555   7.377   7.162  0.5142 -0.1027  0.3280
  932MOL0     C25744   4.485   7.291   7.062  0.5830 -0.2852 -0.2813
  932MOL0     C25745   4.371   7.377   7.007  0.0101  0.3426 -0.7257
  932MOL0     C25746   4.422   7.513   6.949 -0.5415 -0.4106 -0.0556
  932MOL0     C25747   4.305   7.569   6.881  0.3622 -0.1529  0.5778
  932MOL0     C25748   4.332   7.719   6.864 -1.0945  0.4062 -0.2919
  932MOL0     C25749   4.322   7.841   6.852 -0.4829  1.2547  1.1658
  932MOL0     C25750   4.793   7.402   7.099 -0.0499 -0.0240 -0.4815
  932MOL0     C25751   4.921   7.349   7.107  1.0420 -0.3497  0.0595
  932MOL0     C25752   5.030   7.405   7.005  0.2779 -0.2677 -0.3846
  932MOL0     H25753   5.268   6.947   7.139  0.2134  0.0690  0.9089
  932MOL0     H25754   5.493   6.871   7.184  1.1414 -0.8937  1.4480
  932MOL0     H25755   5.724   6.846   7.174  2.0847 -0.7645 -0.9879
  932MOL0     H25756   5.715   6.940   7.016 -1.2292  0.1448  0.5744
  932MOL0     H25757   5.947   6.874   7.193 -0.0263 -1.2546 -0.0402
  932MOL0     H25758   5.950   7.016   7.085 -1.6490  0.2477 -0.5936
  932MOL0     H25759   5.879   6.732   7.019 -0.5583  0.3998  0.1442
  932MOL0     H25760   6.045   6.775   7.028  0.4206  1.5628  1.3253
  932MOL0     H25761   5.860   6.904   6.837 -0.6575 -0.8211  2.4763
  932MOL0     H25762   6.038   6.931   6.827  2.0366 -1.8144  1.1662
  932MOL0     H25763   6.077   6.716   6.735 -0.8277 -2.9978 -0.9830
  932MOL0     H25764   5.939   6.644   6.816  1.2079  0.3348 -0.2172
  932MOL0     H25765   5.881   6.636   6.602 -1.6169 -0.1395  0.6615
  932MOL0     H25766   5.780   6.757   6.676  0.3280  5.5183 -3.1183
  932MOL0     H25767   6.039   6.838   6.507  1.6437 -1.2307  2.0508
  932MOL0     H25768   5.924   6.933   6.609 -3.2149 -1.5858  1.1283
  932MOL0     H25769   5.752   6.909   6.460 -1.3853 -2.0629 -0.9686
  932MOL0     H25770   5.888   6.965   6.373 -1.2712  1.3106  1.8013
  932MOL0     H25771   6.026   6.653   6.310  0.3851  0.3697 -3.8654
  932MOL0     H25772   5.983   6.430   6.156  1.4291  1.9227  0.6349
  932MOL0     H25773   5.828   6.437   6.063  0.3297  0.6198 -1.7000
  932MOL0     H25774   6.005   6.470   5.907 -2.6280  2.3980 -1.8960
  932MOL0     H25775   5.940   6.617   5.921  2.7736  2.2840  0.1790
  932MOL0     H25776   6.190   6.545   6.077 -2.5079 -1.9450 -1.0412
  932MOL0     H25777   6.100   6.710   6.057 -0.1825 -0.0515  2.4929
  932MOL0     H25778   6.297   6.697   5.925 -0.7798 -1.3780  3.8412
  932MOL0     H25779   6.145   6.716   5.849  1.0027  1.5449  0.9371
  932MOL0     H25780   6.246   6.365   5.648 -2.1651  2.9075  2.0199
  932MOL0     H25781   6.382   6.367   5.425 -0.6546 -0.8451  1.5860
  932MOL0     H25782   6.729   6.470   5.161  2.9757 -1.0283 -2.3685
  932MOL0     H25783   6.889   6.505   4.986  0.3033  0.2036  1.3923
  932MOL0     H25784   7.123   6.616   4.962  0.1589  0.2616  0.5053
  932MOL0     H25785   7.018   6.561   4.838  1.6044 -1.2219  0.3419
  932MOL0     H25786   7.249   6.628   4.730  1.0787  1.0510  0.8524
  932MOL0     H25787   7.123   6.729   4.661  0.0708  1.5844  0.5175
  932MOL0     H25788   7.358   6.833   4.755  0.5150 -0.0226  0.0261
  932MOL0     H25789   7.198   6.917   4.771  1.2195 -1.0269 -1.5923
  932MOL0     H25790   7.319   6.744   4.986  2.0858  1.2136  1.8132
  932MOL0     H25791   7.193   6.858   5.008  0.0908 -2.1820 -0.2608
  932MOL0     H25792   7.331   7.045   4.940 -1.7042 -0.4613 -0.2218
  932MOL0     H25793   7.476   6.934   4.937  0.1757  0.5220 -0.0703
  932MOL0     H25794   7.297   6.964   5.191 -1.4192  1.7527 -2.9669
  932MOL0     H25795   7.445   6.890   5.185  2.9609  1.7726  1.6589
  932MOL0     H25796   7.389   7.187   5.123  1.8608  0.2859 -2.5550
  932MOL0     H25797   7.554   7.114   5.148  0.8124  0.9906  2.0490
  932MOL0     H25798   7.362   7.124   5.374  1.9433 -1.7460  4.9400
  932MOL0     H25799   7.533   7.079   5.372 -0.3179 -0.7642 -0.9056
  932MOL0     H25800   6.895   6.931   5.058  1.3653 -0.6096  1.7479
  932MOL0     H25801   6.713   6.899   5.235 -2.6521 -0.9138 -0.0417
  932MOL0     H25802   6.532   6.747   5.521  1.7451 -2.0074 -1.7684
  932MOL0     H25803   6.376   6.762   5.717  1.5743  0.4285  0.0648
  932MOL0     H25804   5.619   7.283   7.213  0.7997  0.3299 -0.9714
  932MOL0     H25805   5.384   7.361   7.158 -0.7682  0.4132 -0.1069
  932MOL0     H25806   4.858   7.099   7.335  4.4533  0.8036  1.5297
  932MOL0     H25807   4.629   7.187   7.310  2.1384  1.0510  1.7957
  932MOL0     H25808   4.448   7.197   7.102  0.0046  0.3688  0.7442
  932MOL0     H25809   4.551   7.271   6.977  0.2171 -0.7956 -0.4512
  932MOL0     H25810   4.291   7.403   7.077 -0.2609  0.4574 -1.0789
  932MOL0     H25811   4.345   7.318   6.919 -0.2397  1.8575 -1.7059
  932MOL0     H25812   4.503   7.501   6.876  0.3714 -0.8612  1.0214
  932MOL0     H25813   4.465   7.583   7.021  0.8874 -1.2017 -0.1225
  932MOL0     H25814   4.283   7.531   6.780 -2.3145 -0.0915  1.0722
  932MOL0     H25815   4.216   7.556   6.943 -0.3060  1.0826 -0.0671
  932MOL0     H25816   4.328   7.944   6.823  1.2559  0.1969 -2.9744
  932MOL0     H25817   4.781   7.490   7.037  1.5006  0.0519 -0.7245
  932MOL0     H25818   5.069   7.334   6.932  1.4669  0.9205 -0.9395
  932MOL0     H25819   4.989   7.491   6.952 -0.5294 -0.3854  0.0397
  932MOL0     H25820   5.109   7.446   7.069 -2.3143  3.6820  0.6015
  933MOL0     O25821   2.483  10.819   7.517 -1.1919  0.3201 -0.7622
  933MOL0     C25822   2.408  10.882   7.446 -0.4588 -0.1452 -0.0120
  933MOL0     O25823   2.405  11.020   7.430  0.0764  0.1672 -0.4247
  933MOL0     C25824   2.459  11.110   7.518 -0.6686 -0.2639 -1.0530
  933MOL0     C25825   2.455  11.095   7.654 -0.8228  0.7397  0.4161
  933MOL0     C25826   2.500  11.206   7.737 -0.0235  1.6055  0.0708
  933MOL0     C25827   2.549  11.328   7.686 -0.3613 -0.0428  0.6578
  933MOL0     O25828   2.592  11.434   7.760  0.4496  0.0820  0.0176
  933MOL0     C25829   2.631  11.423   7.894 -0.9067  0.2870 -0.2291
  933MOL0     C25830   2.746  11.513   7.937  1.0718 -0.3718  0.1757
  933MOL0     C25831   2.888  11.461   7.883  0.4375 -0.5339  0.0148
  933MOL0     C25832   2.994  11.540   7.954 -1.0274  0.1543 -0.1606
  933MOL0     C25833   3.135  11.499   7.901 -0.1364 -0.5558 -0.3224
  933MOL0     C25834   3.247  11.593   7.963  0.6440  0.3574 -0.1729
  933MOL0     C25835   3.372  11.510   7.958 -0.2326 -0.5640 -0.2312
  933MOL0     C25836   3.400  11.391   8.054  0.3253 -0.4883  0.0724
  933MOL0     N25837   3.527  11.324   8.026 -0.1887  0.1342 -0.8537
  933MOL0     C25838   3.643  11.399   8.049  0.5133  0.7056 -0.0964
  933MOL0     C25839   3.740  11.302   8.022 -0.3875  0.3248  1.0554
  933MOL0     C25840   3.883  11.339   8.007 -0.4580  0.6384  0.2046
  933MOL0     C25841   3.976  11.225   7.963  0.0371 -0.1560  0.4530
  933MOL0     C25842   3.978  11.218   7.814  0.3453 -0.1785 -0.0779
  933MOL0     C25843   4.061  11.098   7.757  0.3737 -0.5791  0.6563
  933MOL0     O25844   4.214  11.082   7.755  0.6710  0.3537 -0.4429
  933MOL0     C25845   4.247  11.000   7.648  0.1643  0.4398 -0.1210
  933MOL0     C25846   4.167  10.887   7.603  0.1426 -0.2895 -0.4683
  933MOL0     C25847   4.203  10.826   7.480 -0.1057  0.7232  0.2268
  933MOL0     C25848   4.320  10.861   7.420 -0.5263  0.4901 -0.8586
  933MOL0     C25849   4.369  10.795   7.298  1.4546  0.8077  0.3685
  933MOL0     O25850   4.300  10.679   7.262 -0.1469 -0.0314 -0.2998
  933MOL0     C25851   4.327  10.619   7.141  0.7499  0.2892  0.0830
  933MOL0     C25852   4.216  10.588   7.058  0.1240 -0.2085  0.6838
  933MOL0     C25853   4.225  10.513   6.942 -0.3956  0.2721 -0.5273
  933MOL0     C25854   4.354  10.456   6.910  0.1305  0.0201  0.2203
  933MOL0     O25855   4.381  10.385   6.790  0.2066 -0.3385 -0.7548
  933MOL0     C25856   4.279  10.297   6.744 -0.3393 -0.3216  0.2664
  933MOL0     C25857   4.243  10.330   6.592 -0.0516  0.2861 -0.1836
  933MOL0     C25858   4.366  10.324   6.498  0.4683  0.0150  0.2983
  933MOL0     C25859   4.364  10.436   6.389 -0.0281  0.2540 -0.2905
  933MOL0     C25860   4.266  10.402   6.272  0.2011 -0.7260 -0.2075
  933MOL0     C25861   4.289  10.494   6.157 -0.7440  1.1499 -0.4518
  933MOL0     C25862   4.245  10.420   6.028 -0.0754  0.2568 -0.0739
  933MOL0     C25863   4.270  10.506   5.910 -0.0177  0.0004  0.1029
  933MOL0    Cl25864   4.236  10.406   5.764 -0.0264 -0.0400 -0.0468
  933MOL0     C25865   4.465  10.477   6.993 -0.0389 -0.3375 -0.0634
  933MOL0     C25866   4.447  10.554   7.103  0.2696  0.3131  0.2801
  933MOL0     O25867   4.453  10.842   7.226 -0.2541  0.2396  0.7498
  933MOL0     C25868   4.393  10.965   7.469 -0.1592  0.4999 -0.1317
  933MOL0     C25869   4.360  11.028   7.583  0.7218 -0.4589  0.1365
  933MOL0     N25870   3.683  11.179   8.002  0.2760 -0.0784  0.3158
  933MOL0     N25871   3.554  11.201   7.989  0.3002  1.1270  1.2122
  933MOL0     C25872   2.555  11.340   7.548 -1.4099 -0.5368  0.1658
  933MOL0     C25873   2.513  11.231   7.457 -0.0466  0.1298 -0.6177
  933MOL0     C25874   2.320  10.799   7.364  0.2206 -0.2919  1.2974
  933MOL0     C25875   2.316  10.661   7.391 -0.4033  0.5606  0.1864
  933MOL0     C25876   2.221  10.574   7.334  0.5439  0.4721  0.1620
  933MOL0     C25877   2.122  10.626   7.253  1.6129  0.1906 -0.2884
  933MOL0     O25878   2.020  10.547   7.206 -0.2670  0.1705  0.5407
  933MOL0     C25879   1.936  10.495   7.310 -0.6913 -0.4620  0.2391
  933MOL0     C25880   1.781  10.510   7.283 -0.4389 -0.4606  0.4440
  933MOL0     C25881   1.762  10.650   7.203  0.3129 -0.2415 -0.2802
  933MOL0     C25882   1.612  10.678   7.216 -0.6665 -0.1036 -0.5506
  933MOL0     C25883   1.546  10.587   7.130  0.5300 -0.0368  1.0155
  933MOL0     C25884   1.504  10.482   7.072  0.0774  0.4974  0.0937
  933MOL0     C25885   2.133  10.758   7.217  0.8547 -0.3065 -0.5520
  933MOL0     C25886   2.226  10.842   7.267  0.4081 -1.2620  0.6470
  933MOL0     C25887   2.215  10.986   7.221  0.5955  0.3159 -0.2988
  933MOL0     H25888   2.436  10.993   7.686  0.9429 -0.2985 -1.6100
  933MOL0     H25889   2.501  11.186   7.844  0.7035 -4.0069 -0.6787
  933MOL0     H25890   2.540  11.444   7.951 -1.7103  0.2076 -1.4425
  933MOL0     H25891   2.676  11.326   7.916 -0.3150  0.3802 -0.9958
  933MOL0     H25892   2.741  11.512   8.047 -1.5682  3.9076  0.2859
  933MOL0     H25893   2.725  11.616   7.908 -0.7818 -0.9174 -0.5233
  933MOL0     H25894   2.889  11.476   7.775 -0.5971  0.1187  0.0847
  933MOL0     H25895   2.901  11.355   7.908 -0.0344 -0.5576  0.1646
  933MOL0     H25896   2.998  11.646   7.925  0.5318  0.8773  2.4279
  933MOL0     H25897   2.992  11.532   8.063  5.5423  0.6210  0.3829
  933MOL0     H25898   3.145  11.400   7.946 -4.1918 -0.6734  0.7316
  933MOL0     H25899   3.129  11.497   7.792 -1.4291 -0.2851 -0.2733
  933MOL0     H25900   3.259  11.683   7.903 -2.5391  1.2524  0.3342
  933MOL0     H25901   3.221  11.633   8.061 -0.3990 -1.9283  0.5442
  933MOL0     H25902   3.459  11.576   7.970 -0.0332 -0.7032 -0.8743
  933MOL0     H25903   3.387  11.479   7.854  3.1031 -0.6601  0.1491
  933MOL0     H25904   3.386  11.409   8.161  0.9740 -3.2393  0.7012
  933MOL0     H25905   3.323  11.315   8.043  0.6611 -0.7110 -0.8350
  933MOL0     H25906   3.651  11.504   8.074 -0.5050  1.1345 -1.4544
  933MOL0     H25907   3.891  11.414   7.928  1.3982  0.5185  0.2312
  933MOL0     H25908   3.906  11.387   8.102 -1.3213  1.4977 -0.0010
  933MOL0     H25909   4.081  11.239   7.990  0.5610 -0.2493 -1.4155
  933MOL0     H25910   3.938  11.133   8.009  1.8544 -0.4974  1.3711
  933MOL0     H25911   4.022  11.310   7.776 -1.4719  1.4924  1.6234
  933MOL0     H25912   3.872  11.218   7.786  0.3036  1.3929 -0.0251
  933MOL0     H25913   4.021  11.086   7.656 -2.3585  1.4067  1.3997
  933MOL0     H25914   4.028  11.020   7.827 -2.3804  2.0033  2.5057
  933MOL0     H25915   4.092  10.848   7.672  0.9151 -1.7374 -0.4197
  933MOL0     H25916   4.144  10.750   7.430  1.0609  0.0769 -0.2060
  933MOL0     H25917   4.113  10.608   7.086 -0.6035 -1.7735 -0.7078
  933MOL0     H25918   4.135  10.493   6.885 -1.4570 -2.1250  1.7753
  933MOL0     H25919   4.310  10.192   6.752 -1.8279 -0.8417 -0.4447
  933MOL0     H25920   4.185  10.313   6.797  1.6494  2.2870  3.3942
  933MOL0     H25921   4.178  10.249   6.556  1.5464 -1.1102 -0.0397
  933MOL0     H25922   4.203  10.430   6.574 -1.3854 -0.5468 -2.2773
  933MOL0     H25923   4.457  10.342   6.555  0.8279  0.6000 -0.4285
  933MOL0     H25924   4.373  10.223   6.455 -3.4116 -0.3120  0.1085
  933MOL0     H25925   4.462  10.413   6.348 -1.2018 -0.3328 -3.0081
  933MOL0     H25926   4.357  10.540   6.422 -0.8421 -0.0841  0.6480
  933MOL0     H25927   4.160  10.392   6.296  0.2807 -1.3918 -0.1200
  933MOL0     H25928   4.297  10.302   6.240  2.5568  0.1675 -0.9383
  933MOL0     H25929   4.239  10.592   6.161 -3.2306  0.1358 -3.0509
  933MOL0     H25930   4.396  10.512   6.154 -0.6552  0.9795  0.9519
  933MOL0     H25931   4.136  10.421   6.027 -0.1833 -1.4536  2.1197
  933MOL0     H25932   4.278  10.316   6.027  1.6626  0.6929  2.2247
  933MOL0     H25933   4.204  10.592   5.921  1.8991  1.5129  0.2653
  933MOL0     H25934   4.375  10.535   5.913 -0.6402  2.7895 -1.9689
  933MOL0     H25935   4.551  10.414   6.973  0.3686 -0.1099  0.9265
  933MOL0     H25936   4.518  10.574   7.183 -1.0767  2.1250  1.0909
  933MOL0     H25937   4.486  10.986   7.417  1.0244 -0.4284  1.5180
  933MOL0     H25938   4.424  11.110   7.615  0.7764  2.1966 -5.4373
  933MOL0     H25939   2.563  11.436   7.498 -2.9484 -0.2711  0.3602
  933MOL0     H25940   2.513  11.252   7.351 -2.3987  0.1716 -0.6482
  933MOL0     H25941   2.368  10.611   7.472 -2.7858 -1.8430  0.3458
  933MOL0     H25942   2.225  10.466   7.347 -1.9647  0.1996 -0.9243
  933MOL0     H25943   1.962  10.547   7.403  0.8801  1.5204 -1.2119
  933MOL0     H25944   1.955  10.388   7.325  0.6067 -0.3600 -0.5333
  933MOL0     H25945   1.739  10.510   7.384 -1.0839 -4.3738  0.3361
  933MOL0     H25946   1.752  10.422   7.225 -0.0605 -0.2544 -0.0616
  933MOL0     H25947   1.804  10.656   7.102 -1.6072  1.1300 -1.0557
  933MOL0     H25948   1.822  10.712   7.271 -2.1183 -1.5144  3.3325
  933MOL0     H25949   1.570  10.676   7.317  0.4044 -0.3061 -0.0975
  933MOL0     H25950   1.609  10.784   7.192  1.6944  0.2198  0.3256
  933MOL0     H25951   1.472  10.388   7.032 -0.6143  1.4376 -1.6826
  933MOL0     H25952   2.056  10.791   7.147  0.8414 -1.7951 -1.2785
  933MOL0     H25953   2.189  11.053   7.303 -2.5896 -1.4935  0.3264
  933MOL0     H25954   2.314  11.009   7.178  1.0837  3.0788  2.0289
  933MOL0     H25955   2.147  10.996   7.136  2.1550 -1.3436 -1.8405
  934MOL0     O25956   3.503   5.435   1.642  0.6929 -0.1821 -0.1284
  934MOL0     C25957   3.527   5.384   1.530 -0.3299 -1.3924 -0.2782
  934MOL0     O25958   3.491   5.260   1.490  0.2045 -0.4818 -0.3448
  934MOL0     C25959   3.421   5.178   1.569  0.0498  0.1617  0.1777
  934MOL0     C25960   3.480   5.049   1.573 -1.2491 -1.3156 -0.6504
  934MOL0     C25961   3.425   4.959   1.665  0.3519 -0.8333 -0.2867
  934MOL0     C25962   3.309   4.981   1.743 -0.0666 -0.2845 -0.4159
  934MOL0     O25963   3.254   4.877   1.817  0.3910  0.0182  0.2992
  934MOL0     C25964   3.116   4.875   1.842 -0.1405  0.9511 -0.1199
  934MOL0     C25965   3.061   4.732   1.830 -0.1932 -0.3676  0.5768
  934MOL0     C25966   2.921   4.720   1.881  0.3101 -0.4684  0.7914
  934MOL0     C25967   2.890   4.603   1.977 -0.2506 -0.4179  0.6886
  934MOL0     C25968   2.896   4.462   1.918 -0.2162  0.6013 -0.6636
  934MOL0     C25969   2.818   4.362   2.002  0.4392 -0.5278  0.2994
  934MOL0     C25970   2.898   4.315   2.128  0.9732  0.5338  0.2988
  934MOL0     C25971   2.828   4.207   2.212  0.3482 -0.2901 -0.4746
  934MOL0     N25972   2.899   4.169   2.326  0.5032 -0.6211  1.0144
  934MOL0     C25973   2.981   4.255   2.394  0.4765 -0.0822 -0.4773
  934MOL0     C25974   3.031   4.171   2.496  0.0715 -0.4406 -0.8260
  934MOL0     C25975   3.100   4.210   2.623 -0.3623  0.2547 -0.4220
  934MOL0     C25976   3.194   4.107   2.693  0.6191 -1.1750  0.0584
  934MOL0     C25977   3.309   4.077   2.605 -0.3949 -0.2391  0.3109
  934MOL0     C25978   3.383   3.958   2.672  0.0160  0.0149 -0.7073
  934MOL0     O25979   3.520   4.004   2.670 -0.9265 -0.0883  0.5127
  934MOL0     C25980   3.616   3.922   2.736  0.5982  0.2644  0.3229
  934MOL0     C25981   3.580   3.811   2.812  0.4501  0.3758 -0.2892
  934MOL0     C25982   3.688   3.744   2.878 -0.3047  0.0072  1.1480
  934MOL0     C25983   3.820   3.789   2.865  0.9608 -0.6898 -0.0081
  934MOL0     C25984   3.922   3.725   2.946 -0.0545  0.1668 -0.3026
  934MOL0     O25985   4.054   3.771   2.919 -0.2414  0.5923  0.4056
  934MOL0     C25986   4.168   3.704   2.973  0.5100  0.3653  0.1204
  934MOL0     C25987   4.178   3.589   3.061  0.6267 -0.2251  0.8929
  934MOL0     C25988   4.308   3.532   3.091  0.1598 -0.3556 -0.4199
  934MOL0     C25989   4.430   3.580   3.030 -1.1917  0.8252 -0.4517
  934MOL0     O25990   4.553   3.531   3.069 -0.1551 -0.0747  0.3397
  934MOL0     C25991   4.596   3.403   3.010 -0.1116  0.3720 -0.2020
  934MOL0     C25992   4.709   3.344   3.087 -0.3309  0.9582 -0.0153
  934MOL0     C25993   4.730   3.200   3.055 -0.2149 -0.7214 -1.9154
  934MOL0     C25994   4.615   3.107   3.110  0.5837 -1.3610 -0.4873
  934MOL0     C25995   4.641   2.956   3.094 -0.2130 -0.8737  0.0587
  934MOL0     C25996   4.732   2.893   3.200 -0.3139 -0.3330 -0.3096
  934MOL0     C25997   4.708   2.926   3.352  0.2213 -0.7285  0.3563
  934MOL0     C25998   4.773   2.827   3.448 -0.0484 -0.3539 -0.0779
  934MOL0    Cl25999   4.714   2.653   3.413 -0.0597 -0.1007  0.2402
  934MOL0     C26000   4.422   3.693   2.952 -0.3858 -0.3004 -0.0591
  934MOL0     C26001   4.296   3.748   2.917  0.9614 -0.1826 -0.0573
  934MOL0     O26002   3.896   3.642   3.038 -1.2305 -0.3818 -0.4517
  934MOL0     C26003   3.849   3.894   2.785 -0.2314 -0.0606  0.1251
  934MOL0     C26004   3.745   3.968   2.723  0.9703 -0.2459 -0.0038
  934MOL0     N26005   2.978   4.046   2.477 -0.4430 -0.1488 -0.2032
  934MOL0     N26006   2.906   4.039   2.375  0.0742 -0.6476 -0.2065
  934MOL0     C26007   3.255   5.117   1.742 -0.7272 -0.1322  0.6306
  934MOL0     C26008   3.319   5.214   1.647  0.1530 -0.0161 -0.3828
  934MOL0     C26009   3.621   5.468   1.442 -0.5692  0.2742 -0.0094
  934MOL0     C26010   3.629   5.604   1.462  1.7211 -0.4166  0.0020
  934MOL0     C26011   3.714   5.686   1.390 -0.1635  0.1738 -0.4969
  934MOL0     C26012   3.795   5.636   1.285  1.1820  0.0628  0.2863
  934MOL0     O26013   3.874   5.711   1.204  0.9949 -0.6351  0.4106
  934MOL0     C26014   3.853   5.854   1.216  0.4756 -0.8246  0.3958
  934MOL0     C26015   3.945   5.925   1.116 -1.0771 -0.6763 -0.1324
  934MOL0     C26016   3.890   5.948   0.968  0.2079 -0.1079  0.6159
  934MOL0     C26017   3.982   5.993   0.857 -1.0387 -0.1933 -0.5299
  934MOL0     C26018   3.942   5.961   0.723  0.2726 -0.0386 -0.1509
  934MOL0     C26019   3.924   5.898   0.620 -0.6067  0.1204 -0.1113
  934MOL0     C26020   3.792   5.498   1.275 -0.4453  0.4801 -0.3418
  934MOL0     C26021   3.709   5.413   1.349 -0.3792  1.1697  0.0723
  934MOL0     C26022   3.736   5.264   1.342 -0.0180 -0.4732 -0.6615
  934MOL0     H26023   3.567   5.036   1.508 -3.2261  4.0379 -5.1920
  934MOL0     H26024   3.472   4.862   1.677  1.4962 -0.4924 -1.6925
  934MOL0     H26025   3.094   4.918   1.940 -5.6412 -0.8620 -0.2104
  934MOL0     H26026   3.062   4.931   1.765 -1.2827 -0.2092 -0.2120
  934MOL0     H26027   3.127   4.662   1.883 -1.2463 -1.2960  0.6914
  934MOL0     H26028   3.075   4.698   1.727  1.4192 -1.5308  1.1405
  934MOL0     H26029   2.844   4.722   1.803  2.4846  1.1227 -1.4491
  934MOL0     H26030   2.907   4.812   1.940  0.2498 -0.0520  0.1409
  934MOL0     H26031   2.963   4.604   2.058  0.0508 -0.8329  0.4237
  934MOL0     H26032   2.797   4.625   2.031 -3.2409 -1.0995 -3.7295
  934MOL0     H26033   2.857   4.479   1.817 -1.1994  0.4186 -0.3212
  934MOL0     H26034   2.996   4.419   1.905 -0.8869 -1.2499  0.0940
  934MOL0     H26035   2.734   4.420   2.041 -0.6453  0.0624 -2.6933
  934MOL0     H26036   2.787   4.285   1.931  2.5989  1.9624 -3.7047
  934MOL0     H26037   2.918   4.395   2.199  1.3784 -0.9837  1.9702
  934MOL0     H26038   2.989   4.267   2.090  1.2788 -2.1619  3.8964
  934MOL0     H26039   2.728   4.234   2.248  1.5222  0.9944  2.1307
  934MOL0     H26040   2.814   4.126   2.141  2.0461  0.3968 -1.6535
  934MOL0     H26041   3.008   4.358   2.374  0.2695 -0.0957 -0.8325
  934MOL0     H26042   3.153   4.303   2.599 -2.6798  1.3426 -1.7340
  934MOL0     H26043   3.031   4.239   2.703  0.5773  2.7875 -0.4340
  934MOL0     H26044   3.222   4.154   2.788  0.1243  1.0679 -0.8406
  934MOL0     H26045   3.138   4.016   2.713  2.5270 -2.4573 -0.1673
  934MOL0     H26046   3.376   4.163   2.601 -0.8215  0.0854  0.1044
  934MOL0     H26047   3.275   4.043   2.507 -1.9544  2.0448 -0.0185
  934MOL0     H26048   3.371   3.866   2.614 -0.7059  0.4393 -1.2372
  934MOL0     H26049   3.346   3.952   2.775 -1.7977  0.9066 -1.2754
  934MOL0     H26050   3.474   3.788   2.820  0.6744 -0.9809 -0.9587
  934MOL0     H26051   3.665   3.661   2.943 -1.2713  0.8686  1.9329
  934MOL0     H26052   4.099   3.524   3.098 -0.3134  0.8540  0.8381
  934MOL0     H26053   4.323   3.449   3.158 -4.0510 -0.5243  0.5801
  934MOL0     H26054   4.517   3.327   3.007 -1.8262  1.9071  2.1583
  934MOL0     H26055   4.618   3.425   2.905  0.7440 -4.7083 -1.3799
  934MOL0     H26056   4.803   3.396   3.064  1.4310 -1.3090  1.5796
  934MOL0     H26057   4.701   3.363   3.194  0.5641 -0.3746  0.3108
  934MOL0     H26058   4.726   3.175   2.948  3.4724 -3.0168 -1.7215
  934MOL0     H26059   4.819   3.159   3.105 -1.3042 -1.2457 -0.3375
  934MOL0     H26060   4.518   3.120   3.062 -0.1208 -0.8032  1.0480
  934MOL0     H26061   4.608   3.125   3.217  3.6247 -0.5351 -0.3146
  934MOL0     H26062   4.680   2.945   2.993 -2.7934  0.7482 -1.2201
  934MOL0     H26063   4.543   2.907   3.104 -0.0116 -1.5865 -1.3228
  934MOL0     H26064   4.739   2.785   3.185  3.7934 -0.3067  0.2852
  934MOL0     H26065   4.835   2.924   3.182 -1.2648  2.5888 -1.1669
  934MOL0     H26066   4.602   2.928   3.379  0.6306  0.8959  2.0552
  934MOL0     H26067   4.747   3.027   3.367  3.3095 -1.7030 -0.3173
  934MOL0     H26068   4.882   2.832   3.449 -0.0540 -0.2168  0.0210
  934MOL0     H26069   4.736   2.852   3.548 -4.0309 -2.2644 -0.8639
  934MOL0     H26070   4.508   3.735   2.901  1.7479  0.8531  4.0288
  934MOL0     H26071   4.287   3.828   2.844  1.2235  3.2396  3.3078
  934MOL0     H26072   3.952   3.920   2.765 -0.6285  0.0305 -2.0614
  934MOL0     H26073   3.770   4.057   2.666 -1.3699  0.4394 -0.0694
  934MOL0     H26074   3.176   5.150   1.808 -0.9163 -0.2841  0.4796
  934MOL0     H26075   3.291   5.319   1.649  1.8996  0.5039 -1.1426
  934MOL0     H26076   3.551   5.650   1.523  1.3954 -0.1489 -0.6090
  934MOL0     H26077   3.705   5.790   1.420 -0.5180 -0.0127  0.0496
  934MOL0     H26078   3.874   5.889   1.318  1.7706  1.4063 -0.5642
  934MOL0     H26079   3.752   5.897   1.208 -0.7320 -2.8108  3.2803
  934MOL0     H26080   4.044   5.879   1.115 -0.3233  0.7983  1.6322
  934MOL0     H26081   3.971   6.026   1.147 -0.0095 -1.4431  1.6284
  934MOL0     H26082   3.815   6.027   0.977 -0.1903 -0.4585  0.4031
  934MOL0     H26083   3.836   5.859   0.934  0.3280  0.2388 -0.5429
  934MOL0     H26084   3.993   6.101   0.850  1.5323 -0.4283 -1.0052
  934MOL0     H26085   4.084   5.957   0.874 -1.7218 -0.8591  3.0027
  934MOL0     H26086   3.889   5.843   0.536 -0.6840 -0.4355  0.2822
  934MOL0     H26087   3.869   5.444   1.221  0.8423  0.2908  1.5816
  934MOL0     H26088   3.657   5.224   1.279 -2.1445  1.0632  0.8822
  934MOL0     H26089   3.835   5.237   1.302  0.5815  1.3050 -0.4889
  934MOL0     H26090   3.746   5.228   1.444 -1.5654  0.0525 -0.3042
  935MOL0     O26091   1.872  10.959   7.029  0.5146  0.0207  0.0128
  935MOL0     C26092   1.930  11.059   6.979  0.8325 -0.1675  0.4996
  935MOL0     O26093   2.023  11.046   6.880  0.4604  0.1515 -0.3518
  935MOL0     C26094   2.098  10.933   6.852  0.8974 -0.0879 -0.3511
  935MOL0     C26095   2.041  10.803   6.837 -1.1679  0.5620 -0.3666
  935MOL0     C26096   2.116  10.695   6.778  0.3031  0.1551 -0.5141
  935MOL0     C26097   2.248  10.720   6.737 -0.2468  0.4694  0.4645
  935MOL0     O26098   2.313  10.608   6.687 -0.0952 -0.1913  0.0862
  935MOL0     C26099   2.453  10.617   6.647  0.3978 -0.6472  0.3218
  935MOL0     C26100   2.493  10.489   6.562 -0.0286  0.5581  1.0354
  935MOL0     C26101   2.636  10.471   6.557  0.2633 -0.7920 -1.0306
  935MOL0     C26102   2.686  10.380   6.662 -0.0915  0.5520 -0.2577
  935MOL0     C26103   2.847  10.371   6.673  0.2168  0.2882  0.5354
  935MOL0     C26104   2.916  10.306   6.551 -0.3021  0.2592  0.1462
  935MOL0     C26105   2.873  10.156   6.534  0.5155  0.3194 -0.3913
  935MOL0     C26106   2.879  10.067   6.660 -0.4602  1.1440  0.9929
  935MOL0     N26107   2.849   9.926   6.626  0.0231 -0.0884 -0.1996
  935MOL0     C26108   2.932   9.820   6.669 -0.0891  0.2062 -0.1933
  935MOL0     C26109   2.861   9.707   6.640  0.0351 -0.1718 -0.0197
  935MOL0     C26110   2.905   9.563   6.669  0.0183  0.4122  0.5600
  935MOL0     C26111   2.800   9.463   6.631 -0.1375 -0.1380 -0.9945
  935MOL0     C26112   2.837   9.316   6.671 -0.1665 -0.4271  0.5776
  935MOL0     C26113   2.818   9.281   6.822  0.6690 -0.2777 -0.0512
  935MOL0     O26114   2.900   9.172   6.865  0.6711  0.0339 -0.0195
  935MOL0     C26115   2.869   9.133   6.995 -0.2400 -0.3713 -0.3390
  935MOL0     C26116   2.874   9.226   7.096  0.1989  0.2776 -0.1434
  935MOL0     C26117   2.836   9.184   7.226  0.9910 -0.6045 -0.6026
  935MOL0     C26118   2.789   9.056   7.253 -0.7290  0.1879  0.3843
  935MOL0     C26119   2.740   9.011   7.387  0.2234  0.6406  0.1734
  935MOL0     O26120   2.720   9.110   7.480 -0.4630 -0.5588 -0.5770
  935MOL0     C26121   2.697   9.077   7.612  0.1706  0.1682 -0.2017
  935MOL0     C26122   2.575   9.054   7.655  0.2570 -0.2623  0.4510
  935MOL0     C26123   2.537   9.026   7.785  0.8105 -0.0515  0.2813
  935MOL0     C26124   2.643   9.039   7.873  0.8651  0.0711  0.2404
  935MOL0     O26125   2.621   9.018   8.011  0.3922  0.3412  0.6410
  935MOL0     C26126   2.498   9.008   8.082 -0.0049  0.4146  0.1178
  935MOL0     C26127   2.447   8.866   8.071 -0.0543  0.4624 -1.6969
  935MOL0     C26128   2.521   8.780   8.183  0.5050 -0.1280  0.4692
  935MOL0     C26129   2.663   8.729   8.155  0.2502 -0.1774 -0.4907
  935MOL0     C26130   2.728   8.673   8.284  0.3608  0.4981 -0.6703
  935MOL0     C26131   2.784   8.790   8.367  1.0141  0.0414  0.6100
  935MOL0     C26132   2.834   8.762   8.502 -0.1815 -0.0243  0.3601
  935MOL0     C26133   2.741   8.723   8.616 -0.1711 -0.0730  1.6168
  935MOL0    Cl26134   2.826   8.611   8.732  0.3418  0.5067  0.0418
  935MOL0     C26135   2.769   9.080   7.831 -0.7897  0.9689  0.6781
  935MOL0     C26136   2.798   9.101   7.700  0.8950  0.0022  1.1374
  935MOL0     O26137   2.709   8.890   7.402  0.9240  0.1417 -0.4221
  935MOL0     C26138   2.802   8.967   7.144  1.3268  0.0925 -0.4578
  935MOL0     C26139   2.850   8.998   7.020  0.3090  0.9827 -0.1581
  935MOL0     N26140   2.739   9.747   6.574 -0.4984 -1.1183  0.2429
  935MOL0     N26141   2.732   9.879   6.575  0.2189 -0.8614  0.1455
  935MOL0     C26142   2.307  10.849   6.760 -0.0805  0.8223  0.0933
  935MOL0     C26143   2.230  10.953   6.813  0.3741  0.5123 -0.2723
  935MOL0     C26144   1.892  11.198   7.020  0.6066 -0.2399 -1.0530
  935MOL0     C26145   1.918  11.299   6.922 -0.3219 -0.0658 -0.3714
  935MOL0     C26146   1.892  11.440   6.941  0.6810  0.3402  0.7845
  935MOL0     C26147   1.824  11.475   7.052  0.1804  0.2129 -0.9113
  935MOL0     O26148   1.806  11.615   7.050 -0.4123 -0.2937 -0.3243
  935MOL0     C26149   1.723  11.678   7.145  0.1257 -0.9431 -0.4370
  935MOL0     C26150   1.726  11.834   7.131  0.5760  0.4404  0.1639
  935MOL0     C26151   1.637  11.916   7.224  0.1497  0.0262  0.6457
  935MOL0     C26152   1.520  11.994   7.164 -0.2977 -0.5035 -0.2271
  935MOL0     C26153   1.576  12.105   7.086  0.0128  0.8498  0.7983
  935MOL0     C26154   1.637  12.176   7.009 -0.4434  0.0822 -0.9233
  935MOL0     C26155   1.788  11.378   7.154 -0.4313  1.1257 -0.8928
  935MOL0     C26156   1.826  11.241   7.139  0.4283 -1.2210  0.8322
  935MOL0     C26157   1.779  11.138   7.232  0.5367  0.5159  0.1667
  935MOL0     H26158   1.934  10.798   6.851 -1.6424  0.1262 -3.4584
  935MOL0     H26159   2.061  10.606   6.751  0.6896 -0.7749  1.5711
  935MOL0     H26160   2.479  10.710   6.596  0.7166 -1.2910 -0.7091
  935MOL0     H26161   2.513  10.616   6.738  2.4456  1.7696 -0.8934
  935MOL0     H26162   2.458  10.501   6.459  3.2228  0.9531 -0.1364
  935MOL0     H26163   2.443  10.398   6.598 -0.8491  1.7278  2.9453
  935MOL0     H26164   2.684  10.568   6.568 -0.8907 -0.1594 -1.4213
  935MOL0     H26165   2.671  10.430   6.462 -0.0657  0.0204 -1.5053
  935MOL0     H26166   2.664  10.435   6.754  1.8559  3.6132 -1.4564
  935MOL0     H26167   2.638  10.282   6.662 -0.6784  0.8219  0.7526
  935MOL0     H26168   2.876  10.476   6.689 -2.9633  1.0946  1.7223
  935MOL0     H26169   2.860  10.317   6.767 -1.9651 -0.0868  0.6478
  935MOL0     H26170   2.908  10.352   6.452  0.9881 -0.2055 -0.1949
  935MOL0     H26171   3.023  10.305   6.575 -0.0798  3.1806 -0.4119
  935MOL0     H26172   2.933  10.104   6.458  0.5084  2.1830 -1.7242
  935MOL0     H26173   2.766  10.160   6.512  0.2461  0.2500  0.8428
  935MOL0     H26174   2.976  10.066   6.709 -0.2081 -1.7797  0.6447
  935MOL0     H26175   2.808  10.086   6.741 -0.2303 -1.7141  1.9814
  935MOL0     H26176   3.026   9.813   6.724 -0.9606 -2.8454  1.0660
  935MOL0     H26177   2.996   9.541   6.614 -1.9129  0.5081 -2.9614
  935MOL0     H26178   2.935   9.557   6.774 -0.6299 -0.5040  0.7110
  935MOL0     H26179   2.704   9.491   6.675 -0.2510  0.9281 -1.8876
  935MOL0     H26180   2.783   9.466   6.523 -1.2549 -0.0707 -0.8321
  935MOL0     H26181   2.943   9.293   6.657  0.3352 -0.3142  3.4794
  935MOL0     H26182   2.785   9.256   6.596  0.2160 -0.9652  0.7368
  935MOL0     H26183   2.713   9.255   6.842  1.6018 -3.0572  1.8475
  935MOL0     H26184   2.838   9.368   6.886 -2.0330 -1.6232  2.9354
  935MOL0     H26185   2.913   9.325   7.070 -1.9459  0.3920 -3.6057
  935MOL0     H26186   2.842   9.272   7.289  0.4618 -1.0940  0.1609
  935MOL0     H26187   2.495   9.056   7.581 -0.4498  1.7359  1.2077
  935MOL0     H26188   2.439   8.984   7.804  0.9603 -1.7257 -2.1104
  935MOL0     H26189   2.499   9.061   8.177  0.5889  1.2512 -0.3352
  935MOL0     H26190   2.426   9.065   8.023  1.1468  0.0440 -1.7554
  935MOL0     H26191   2.340   8.858   8.091  0.1026 -4.1251 -1.5900
  935MOL0     H26192   2.462   8.811   7.978  1.9176  0.3328 -1.3513
  935MOL0     H26193   2.521   8.839   8.275 -0.4309  2.7297 -1.2238
  935MOL0     H26194   2.470   8.687   8.208 -0.3132 -0.7497 -3.0497
  935MOL0     H26195   2.739   8.801   8.124 -0.5936 -0.1838 -2.7403
  935MOL0     H26196   2.665   8.652   8.078 -1.5375 -0.8150  0.0387
  935MOL0     H26197   2.802   8.604   8.242  0.1096  1.1848 -2.3435
  935MOL0     H26198   2.659   8.614   8.344 -2.0187  2.6393 -1.1443
  935MOL0     H26199   2.867   8.829   8.308  0.8957 -0.0863  0.3561
  935MOL0     H26200   2.698   8.855   8.381 -2.2254 -3.7190 -0.0246
  935MOL0     H26201   2.903   8.838   8.543  0.7090 -0.7126  0.1750
  935MOL0     H26202   2.907   8.681   8.492  0.9855  0.4707  3.5592
  935MOL0     H26203   2.691   8.811   8.660 -2.0427 -0.6818  0.8072
  935MOL0     H26204   2.657   8.666   8.575 -0.1522  1.5306 -0.8923
  935MOL0     H26205   2.862   9.098   7.884  1.1300  1.0469 -2.4885
  935MOL0     H26206   2.893   9.132   7.659  0.7217 -0.7814  0.1108
  935MOL0     H26207   2.759   8.867   7.150  3.3829 -0.7994  0.2564
  935MOL0     H26208   2.851   8.920   6.944 -2.0773 -0.2368  0.9666
  935MOL0     H26209   2.409  10.867   6.728 -0.3447  1.4127 -0.4418
  935MOL0     H26210   2.268  11.054   6.813  3.6736 -0.5865 -0.7041
  935MOL0     H26211   1.980  11.281   6.835 -1.3582  0.7769 -1.3134
  935MOL0     H26212   1.924  11.523   6.878 -0.7932  2.1621  2.3445
  935MOL0     H26213   1.764  11.642   7.240  2.8684 -0.9431 -1.5226
  935MOL0     H26214   1.623  11.637   7.157  1.4041 -4.4426 -0.3560
  935MOL0     H26215   1.692  11.870   7.034  2.0985 -0.2911 -0.6681
  935MOL0     H26216   1.823  11.884   7.133  2.1729 -2.3122 -1.9001
  935MOL0     H26217   1.707  11.970   7.288  3.1373  0.8050 -2.9633
  935MOL0     H26218   1.583  11.848   7.291 -2.9146  0.7831 -0.8717
  935MOL0     H26219   1.466  11.927   7.096  0.7044 -1.7095  0.1304
  935MOL0     H26220   1.447  12.017   7.242  0.2715 -4.3076  1.6503
  935MOL0     H26221   1.677  12.253   6.947  2.2451 -0.0738  0.4503
  935MOL0     H26222   1.727  11.400   7.240 -2.3167  0.3326 -1.9727
  935MOL0     H26223   1.743  11.190   7.321  0.6558  0.2273  0.3854
  935MOL0     H26224   1.700  11.073   7.193  0.0581  0.5164  1.0974
  935MOL0     H26225   1.853  11.064   7.264  0.3256 -0.0093 -0.5361
  936MOL0     O26226   4.264   0.562   3.852  1.2100 -0.4288 -0.1725
  936MOL0     C26227   4.284   0.626   3.744  0.1077 -0.2382 -0.6129
  936MOL0     O26228   4.283   0.765   3.751  0.2982  0.2194 -0.0931
  936MOL0     C26229   4.272   0.829   3.878 -0.1581  0.4156  0.7650
  936MOL0     C26230   4.379   0.818   3.968 -0.1367  0.3994 -0.1026
  936MOL0     C26231   4.380   0.907   4.078  0.3772  0.5026 -0.3132
  936MOL0     C26232   4.275   0.997   4.098 -1.2195 -0.6150  0.1612
  936MOL0     O26233   4.267   1.074   4.218 -0.2190  0.8380  0.1156
  936MOL0     C26234   4.401   1.118   4.259  0.2362  0.0628  0.6680
  936MOL0     C26235   4.390   1.224   4.376 -0.2285  0.4226  0.7208
  936MOL0     C26236   4.511   1.317   4.392 -0.0267 -0.6864 -0.1688
  936MOL0     C26237   4.636   1.236   4.409  0.2536 -0.2356  0.3695
  936MOL0     C26238   4.758   1.323   4.438 -1.3056 -0.2502  0.1418
  936MOL0     C26239   4.870   1.237   4.479  0.2190  0.0173 -0.1958
  936MOL0     C26240   5.001   1.322   4.519  0.1192  0.1057  0.5074
  936MOL0     C26241   5.003   1.356   4.671 -0.3428 -0.6108 -0.0928
  936MOL0     N26242   5.101   1.458   4.699  0.1408 -0.0334 -0.8702
  936MOL0     C26243   5.233   1.454   4.659  0.8418  0.1411  1.3713
  936MOL0     C26244   5.276   1.581   4.689  0.1758  0.8434  0.0153
  936MOL0     C26245   5.417   1.628   4.650 -0.4767  0.1516  0.3794
  936MOL0     C26246   5.420   1.694   4.514  0.3501  0.7028  0.2878
  936MOL0     C26247   5.343   1.823   4.523 -0.7276  0.0131  0.2886
  936MOL0     C26248   5.373   1.898   4.391 -0.1013  0.1575 -0.3929
  936MOL0     O26249   5.313   2.023   4.425  0.2430 -0.2114 -0.9213
  936MOL0     C26250   5.298   2.119   4.329  0.0944  0.1277 -0.2550
  936MOL0     C26251   5.354   2.090   4.205  0.7070 -0.1193 -0.1652
  936MOL0     C26252   5.366   2.193   4.110 -0.1959  0.1273 -0.0343
  936MOL0     C26253   5.317   2.324   4.142 -0.4988 -0.0234 -0.3055
  936MOL0     C26254   5.325   2.426   4.047 -0.0198 -0.5384  0.9745
  936MOL0     O26255   5.306   2.556   4.090  0.1582 -0.7685  0.4651
  936MOL0     C26256   5.338   2.656   3.992 -0.2934 -0.8444  0.2371
  936MOL0     C26257   5.454   2.723   4.013 -1.0495 -0.0733 -0.2804
  936MOL0     C26258   5.494   2.841   3.942  0.3761  0.8578  0.5963
  936MOL0     C26259   5.407   2.883   3.841 -1.2098 -0.2685 -0.7581
  936MOL0     O26260   5.441   2.987   3.765  0.6175 -0.4366 -0.3238
  936MOL0     C26261   5.445   3.109   3.844 -0.1698  0.7049  0.5442
  936MOL0     C26262   5.449   3.222   3.746  1.0881  0.0955 -0.2710
  936MOL0     C26263   5.503   3.354   3.801 -0.1174 -0.2085 -0.5879
  936MOL0     C26264   5.648   3.323   3.840 -0.7261  0.4494 -0.0741
  936MOL0     C26265   5.687   3.466   3.898  0.2658 -0.2949 -0.0471
  936MOL0     C26266   5.831   3.458   3.944  0.1092 -0.2927 -0.2139
  936MOL0     C26267   5.865   3.582   4.028 -0.1977  0.2084  0.0741
  936MOL0     C26268   5.993   3.557   4.114  0.2967 -0.6266  0.8190
  936MOL0    Cl26269   6.127   3.542   3.998 -0.1958  0.2548  0.1926
  936MOL0     C26270   5.282   2.815   3.827  0.2494 -0.8152  0.0024
  936MOL0     C26271   5.242   2.704   3.900 -0.1526  0.7333  1.5209
  936MOL0     O26272   5.356   2.392   3.931 -0.2297  0.2070  0.0345
  936MOL0     C26273   5.259   2.354   4.267  0.9735 -0.9748 -0.4812
  936MOL0     C26274   5.259   2.248   4.361  0.0025 -0.9575  0.3372
  936MOL0     N26275   5.174   1.651   4.751 -0.7716 -0.3298 -0.0702
  936MOL0     N26276   5.066   1.583   4.750 -0.7448  1.0025  0.0565
  936MOL0     C26277   4.163   0.995   4.009  0.1446  0.9410  0.6572
  936MOL0     C26278   4.167   0.917   3.898  0.3667  0.2526  0.1217
  936MOL0     C26279   4.285   0.564   3.612 -0.4671  0.0009 -0.2109
  936MOL0     C26280   4.243   0.642   3.504 -0.5794 -0.2641  0.2620
  936MOL0     C26281   4.201   0.585   3.387 -0.5688  0.0633  0.1178
  936MOL0     C26282   4.224   0.447   3.368  0.6508 -0.4434  1.0148
  936MOL0     O26283   4.186   0.386   3.243 -0.9452 -0.5572  0.1578
  936MOL0     C26284   4.181   0.245   3.235  1.3085  0.1009  0.2469
  936MOL0     C26285   4.302   0.160   3.183  0.3862 -0.8302  0.3606
  936MOL0     C26286   4.365   0.203   3.050  0.0266 -0.1581 -0.6094
  936MOL0     C26287   4.490   0.121   3.019  0.4545 -0.7857  0.5875
  936MOL0     C26288   4.549   0.156   2.883 -0.1803 -0.3481 -0.4409
  936MOL0     C26289   4.578   0.168   2.765 -0.0437  0.6447  0.5306
  936MOL0     C26290   4.289   0.370   3.461  0.5331 -0.5736  0.4564
  936MOL0     C26291   4.316   0.421   3.592 -0.0136  0.4211 -0.4776
  936MOL0     C26292   4.355   0.318   3.697  0.8577  0.7355 -0.3108
  936MOL0     H26293   4.463   0.751   3.949 -0.6089 -0.0345 -0.6992
  936MOL0     H26294   4.465   0.891   4.144 -1.6464  0.8114  2.5636
  936MOL0     H26295   4.467   1.034   4.282  0.7750  0.5848  1.0254
  936MOL0     H26296   4.448   1.161   4.169 -0.2115 -1.5618 -0.3889
  936MOL0     H26297   4.385   1.158   4.463 -0.2316 -2.0362 -1.0438
  936MOL0     H26298   4.298   1.282   4.365  1.2212  2.7756  0.4024
  936MOL0     H26299   4.505   1.388   4.476 -1.4569  2.4091 -2.6636
  936MOL0     H26300   4.526   1.369   4.297 -0.8122  1.0772  0.6136
  936MOL0     H26301   4.629   1.158   4.484  4.8747 -1.1297  0.1911
  936MOL0     H26302   4.651   1.182   4.315  0.7206  1.2616 -0.4696
  936MOL0     H26303   4.782   1.384   4.350 -2.6019 -0.2866 -0.2615
  936MOL0     H26304   4.734   1.387   4.523 -0.1711 -0.5976  0.7383
  936MOL0     H26305   4.825   1.175   4.557 -0.1467  1.0237  0.4105
  936MOL0     H26306   4.909   1.171   4.401 -0.0991 -0.1932 -0.1783
  936MOL0     H26307   5.008   1.418   4.468  2.7942  0.7324  1.8296
  936MOL0     H26308   5.095   1.276   4.486  2.3801  3.7401  1.3325
  936MOL0     H26309   4.905   1.397   4.698  0.8897  2.2745  0.3572
  936MOL0     H26310   5.021   1.268   4.733 -1.5002  0.8916  2.5587
  936MOL0     H26311   5.283   1.379   4.599 -0.5804 -1.8161  2.5069
  936MOL0     H26312   5.454   1.708   4.714  1.2347  0.6452 -1.1221
  936MOL0     H26313   5.487   1.544   4.657  0.3686  0.8151  0.0407
  936MOL0     H26314   5.524   1.712   4.486 -0.3881  0.8352 -2.5874
  936MOL0     H26315   5.379   1.628   4.437 -0.3830  2.3173 -0.7526
  936MOL0     H26316   5.386   1.882   4.605  0.6817  0.7520 -0.9140
  936MOL0     H26317   5.239   1.798   4.543  0.0710 -4.3466 -0.0532
  936MOL0     H26318   5.320   1.861   4.303 -0.9301  4.3145 -1.8689
  936MOL0     H26319   5.481   1.903   4.374 -0.2636  1.4907 -1.1520
  936MOL0     H26320   5.398   1.994   4.179 -0.1345 -1.4104  2.7865
  936MOL0     H26321   5.413   2.175   4.013 -2.2672 -2.5568 -0.6745
  936MOL0     H26322   5.522   2.691   4.091  0.9040  1.5306 -1.2522
  936MOL0     H26323   5.578   2.901   3.973  0.2496  0.9177  0.8278
  936MOL0     H26324   5.347   3.120   3.891  0.3897  0.3557  1.8194
  936MOL0     H26325   5.518   3.098   3.924 -1.7635 -4.2140  1.6778
  936MOL0     H26326   5.519   3.189   3.668 -1.4453 -1.7819 -1.8972
  936MOL0     H26327   5.344   3.227   3.716  1.1130 -1.6330 -0.7657
  936MOL0     H26328   5.489   3.443   3.739 -1.2263 -0.9033 -1.3738
  936MOL0     H26329   5.440   3.371   3.889  0.1232 -1.7655 -0.0863
  936MOL0     H26330   5.723   3.297   3.765 -0.8216 -0.9767  0.3063
  936MOL0     H26331   5.668   3.252   3.921  0.1374  3.1211  2.2137
  936MOL0     H26332   5.620   3.504   3.977  0.1297  0.5180 -0.5444
  936MOL0     H26333   5.676   3.535   3.814 -3.1689 -0.0984  0.4295
  936MOL0     H26334   5.834   3.369   4.008  1.0040 -1.0028 -1.1981
  936MOL0     H26335   5.890   3.452   3.852 -1.6398  2.8774 -1.6769
  936MOL0     H26336   5.786   3.611   4.097  1.0827 -0.5595  1.9381
  936MOL0     H26337   5.870   3.660   3.952  1.0996 -0.1536 -0.2355
  936MOL0     H26338   6.014   3.642   4.178 -0.1319  0.8210 -0.8873
  936MOL0     H26339   5.986   3.460   4.165 -0.9831 -1.2608 -0.4598
  936MOL0     H26340   5.207   2.856   3.760 -1.4149 -1.0421  1.6397
  936MOL0     H26341   5.142   2.670   3.874  0.2686  0.7315 -0.2810
  936MOL0     H26342   5.248   2.458   4.297 -0.1090 -0.9983 -0.7586
  936MOL0     H26343   5.224   2.261   4.463 -1.3274  0.2205 -0.2349
  936MOL0     H26344   4.068   1.046   4.020 -0.5549  0.4753 -2.3653
  936MOL0     H26345   4.085   0.914   3.827 -0.8681  2.9749  1.3037
  936MOL0     H26346   4.233   0.750   3.511 -1.1559 -0.4080  2.4250
  936MOL0     H26347   4.143   0.649   3.321  0.6347  1.3064  0.2134
  936MOL0     H26348   4.102   0.219   3.164 -1.6955 -3.0314  4.2033
  936MOL0     H26349   4.139   0.205   3.328  0.0755  0.9358  0.0829
  936MOL0     H26350   4.277   0.054   3.179 -1.5056 -0.4015 -0.4964
  936MOL0     H26351   4.375   0.180   3.261 -0.7759  0.1053  1.2367
  936MOL0     H26352   4.396   0.308   3.053 -0.4868  0.0046  3.3103
  936MOL0     H26353   4.295   0.201   2.965  0.5984  0.7909 -1.1232
  936MOL0     H26354   4.565   0.126   3.099  0.8607 -0.0296  0.1727
  936MOL0     H26355   4.466   0.014   3.016  1.0245 -0.9459  1.2763
  936MOL0     H26356   4.605   0.168   2.661 -1.3030 -1.2836  0.1289
  936MOL0     H26357   4.306   0.265   3.441  0.0588 -0.1356 -2.6657
  936MOL0     H26358   4.389   0.380   3.780 -0.8824 -0.0437  1.0253
  936MOL0     H26359   4.273   0.252   3.725  2.3481 -0.5162  1.3574
  936MOL0     H26360   4.443   0.260   3.668 -0.1972 -0.3868 -1.4173
  937MOL0     O26361   3.524   3.305   9.823 -0.3151  0.0717 -0.7496
  937MOL0     C26362   3.645   3.304   9.853  0.4403  0.0535 -0.3502
  937MOL0     O26363   3.742   3.291   9.759 -0.5170  0.1977 -0.1522
  937MOL0     C26364   3.707   3.265   9.629  0.0113  0.8103 -0.5141
  937MOL0     C26365   3.671   3.366   9.539 -0.6820  0.0841  0.2921
  937MOL0     C26366   3.621   3.332   9.417  0.3494 -0.4986  0.0087
  937MOL0     C26367   3.587   3.199   9.388  0.5491 -0.7130  0.3442
  937MOL0     O26368   3.535   3.179   9.265 -0.5449  0.1354  0.0084
  937MOL0     C26369   3.464   3.059   9.234  0.2303  0.2181 -0.6988
  937MOL0     C26370   3.379   3.086   9.104 -0.1448 -0.3674 -0.7509
  937MOL0     C26371   3.269   2.975   9.085 -0.4778  0.2182  0.9517
  937MOL0     C26372   3.241   2.950   8.941  0.0795  0.6231  0.4877
  937MOL0     C26373   3.149   2.833   8.921  0.3552 -0.0955  0.4704
  937MOL0     C26374   3.119   2.807   8.771 -0.1518  0.4782  0.2507
  937MOL0     C26375   3.017   2.684   8.759 -1.0830  0.0281  0.4062
  937MOL0     C26376   3.075   2.556   8.825  0.5262 -0.5272  0.3914
  937MOL0     N26377   3.202   2.526   8.761  0.7607 -0.3880 -0.6341
  937MOL0     C26378   3.325   2.517   8.805 -0.4345  1.4895 -0.4562
  937MOL0     C26379   3.411   2.499   8.707  0.1755  0.3616  0.4116
  937MOL0     C26380   3.565   2.480   8.698  0.1976  0.8276  0.2101
  937MOL0     C26381   3.646   2.606   8.698 -0.3726  0.3710  0.0331
  937MOL0     C26382   3.636   2.709   8.585  0.7959  0.9523 -0.1831
  937MOL0     C26383   3.720   2.841   8.611 -0.2594 -0.7437  0.1087
  937MOL0     O26384   3.716   2.915   8.491 -0.0173  0.2470 -0.1301
  937MOL0     C26385   3.594   2.952   8.440 -0.5109 -0.0201 -0.3217
  937MOL0     C26386   3.471   2.968   8.509 -0.7467 -0.0773 -0.3765
  937MOL0     C26387   3.359   3.021   8.437  0.0221  0.2445  0.0099
  937MOL0     C26388   3.364   3.066   8.306  0.5695 -0.4200 -0.1715
  937MOL0     C26389   3.253   3.131   8.237 -0.2026  0.0150 -0.4530
  937MOL0     O26390   3.226   3.096   8.103 -0.1000  0.3081 -1.2546
  937MOL0     C26391   3.118   3.166   8.056  0.1317  0.9792  0.1695
  937MOL0     C26392   3.002   3.108   8.039 -0.4220  0.2056  0.0478
  937MOL0     C26393   2.883   3.169   7.982 -0.3396  0.9697  0.0717
  937MOL0     C26394   2.890   3.308   7.941 -0.6643 -0.2558 -1.3521
  937MOL0     O26395   2.777   3.367   7.906 -1.1164  0.3481 -0.0348
  937MOL0     C26396   2.752   3.505   7.897  0.6807  0.1894 -0.3976
  937MOL0     C26397   2.691   3.523   7.764 -0.0826 -0.8088  0.3208
  937MOL0     C26398   2.803   3.530   7.651 -0.8675 -0.6328  0.2019
  937MOL0     C26399   2.771   3.636   7.549  0.7891 -1.3241  0.1615
  937MOL0     C26400   2.870   3.650   7.434  0.4961 -0.4629  0.4076
  937MOL0     C26401   2.842   3.768   7.341 -0.1773  0.1476  0.4231
  937MOL0     C26402   2.714   3.756   7.271  0.4298 -0.9536  0.3957
  937MOL0     C26403   2.688   3.876   7.171  0.0660  1.3494 -0.3204
  937MOL0    Cl26404   2.653   4.025   7.279  0.7055 -0.0081 -0.6003
  937MOL0     C26405   3.018   3.370   7.959  0.0663  0.4046  0.0221
  937MOL0     C26406   3.127   3.298   8.014 -0.7321  0.4735  0.1558
  937MOL0     O26407   3.185   3.199   8.316  0.3581 -0.0140  0.4355
  937MOL0     C26408   3.486   3.051   8.236  0.8703  1.1279  1.0949
  937MOL0     C26409   3.593   2.987   8.306  0.8077  0.8626  0.9258
  937MOL0     N26410   3.337   2.505   8.590  0.4551  0.1787 -0.5617
  937MOL0     N26411   3.212   2.520   8.630  0.1387 -0.2120 -0.2430
  937MOL0     C26412   3.621   3.093   9.469  0.2304 -0.1259 -0.2067
  937MOL0     C26413   3.674   3.132   9.593 -0.2064  0.0535  0.0634
  937MOL0     C26414   3.684   3.319   9.994 -0.7008  0.5275 -0.3706
  937MOL0     C26415   3.828   3.318  10.017 -0.0109 -0.9190 -0.6100
  937MOL0     C26416   3.881   3.320  10.143  0.6420  1.4277 -0.2154
  937MOL0     C26417   3.792   3.313  10.259 -1.0619  0.5935  0.1744
  937MOL0     O26418   3.833   3.290  10.397 -0.0466 -1.0770  0.4162
  937MOL0     C26419   3.957   3.321  10.453  0.6902  0.7194  0.4552
  937MOL0     C26420   3.950   3.264  10.591 -0.2776  0.1957  0.5306
  937MOL0     C26421   4.070   3.319  10.688 -0.2004 -0.5946  1.0494
  937MOL0     C26422   4.083   3.220  10.806 -0.4088  0.4684  0.3227
  937MOL0     C26423   3.980   3.238  10.906  0.1247 -0.0794 -0.1343
  937MOL0     C26424   3.894   3.271  10.983  0.4483  0.1403  0.2308
  937MOL0     C26425   3.664   3.325  10.233  0.6298 -0.3816 -0.3648
  937MOL0     C26426   3.597   3.327  10.107 -0.3267  0.1166 -0.9304
  937MOL0     C26427   3.455   3.344  10.092 -0.1247  0.3337  0.5440
  937MOL0     H26428   3.687   3.470   9.566 -0.2898 -0.0100  0.4339
  937MOL0     H26429   3.595   3.403   9.340  3.4177 -1.1685 -1.8196
  937MOL0     H26430   3.540   2.986   9.205  2.6203  3.2592 -2.8055
  937MOL0     H26431   3.402   3.023   9.317 -0.0711 -1.2153 -1.5022
  937MOL0     H26432   3.444   3.083   9.016  0.0832 -1.5272 -0.5493
  937MOL0     H26433   3.330   3.184   9.104  1.5835  0.5610  0.5956
  937MOL0     H26434   3.182   2.997   9.147  0.2125 -2.7835  3.2167
  937MOL0     H26435   3.308   2.885   9.134  0.7887 -0.7645 -1.6643
  937MOL0     H26436   3.198   3.039   8.894  0.3352  0.2697 -0.4182
  937MOL0     H26437   3.337   2.931   8.893 -0.0908 -1.0271  0.7497
  937MOL0     H26438   3.182   2.739   8.967 -0.6120 -2.8658 -3.8699
  937MOL0     H26439   3.059   2.870   8.971  1.1784  3.9072 -0.6740
  937MOL0     H26440   3.087   2.898   8.720  1.7837 -0.0726 -2.1981
  937MOL0     H26441   3.212   2.777   8.721 -0.7940 -4.8313  1.6025
  937MOL0     H26442   2.986   2.675   8.654 -1.9116  0.3078  0.6160
  937MOL0     H26443   2.925   2.716   8.808 -0.9233  3.1676 -1.0953
  937MOL0     H26444   3.086   2.568   8.933  0.2201  0.6223  0.3150
  937MOL0     H26445   3.009   2.471   8.806 -1.9143  1.2311  0.5304
  937MOL0     H26446   3.355   2.559   8.901 -0.2329  2.7222 -1.0450
  937MOL0     H26447   3.599   2.427   8.787  1.5110  0.0718 -0.7046
  937MOL0     H26448   3.581   2.426   8.604 -2.6880  2.3444 -1.2730
  937MOL0     H26449   3.601   2.651   8.788 -2.1856  0.1979 -0.7366
  937MOL0     H26450   3.751   2.576   8.705 -0.5428 -0.4830 -0.9140
  937MOL0     H26451   3.531   2.740   8.576  1.3706  2.6538 -1.7574
  937MOL0     H26452   3.660   2.657   8.492 -3.8108  0.4916 -1.3395
  937MOL0     H26453   3.823   2.810   8.628 -0.5644 -0.2774  3.4297
  937MOL0     H26454   3.674   2.894   8.695 -3.9464 -1.7573 -1.0802
  937MOL0     H26455   3.475   2.949   8.616  1.4894 -0.5943 -0.5029
  937MOL0     H26456   3.268   3.038   8.495 -1.4701  1.4208 -2.5031
  937MOL0     H26457   2.991   3.010   8.083 -0.6319  0.4964  0.6618
  937MOL0     H26458   2.788   3.118   7.995 -1.1951  1.9351 -1.9344
  937MOL0     H26459   2.681   3.523   7.978 -0.8975 -1.2471 -1.3903
  937MOL0     H26460   2.843   3.563   7.913  0.8432 -0.8501  3.6055
  937MOL0     H26461   2.625   3.438   7.742 -2.6422  1.6751 -2.4139
  937MOL0     H26462   2.639   3.619   7.765 -0.8542 -1.2204  0.5184
  937MOL0     H26463   2.902   3.551   7.692 -1.0424 -2.1222  1.4687
  937MOL0     H26464   2.812   3.434   7.600  2.9419 -0.2615 -0.1264
  937MOL0     H26465   2.767   3.737   7.591  0.4476 -1.1012 -0.3892
  937MOL0     H26466   2.677   3.597   7.507  2.3699 -3.8830 -1.2559
  937MOL0     H26467   2.877   3.561   7.372  2.3338 -1.6113  2.1448
  937MOL0     H26468   2.968   3.668   7.479 -1.1344  0.0458  4.1151
  937MOL0     H26469   2.834   3.858   7.401  0.0822 -0.1389  0.8906
  937MOL0     H26470   2.924   3.772   7.268  1.1935  2.0080  1.9780
  937MOL0     H26471   2.635   3.758   7.347  2.0581  1.0570  2.1861
  937MOL0     H26472   2.716   3.666   7.210 -0.2429 -1.2820  0.8428
  937MOL0     H26473   2.776   3.879   7.107  1.6000 -0.0406  1.5924
  937MOL0     H26474   2.602   3.850   7.108  0.4184  1.1453 -0.7171
  937MOL0     H26475   3.029   3.469   7.916 -0.4801 -0.3276 -1.9082
  937MOL0     H26476   3.210   3.359   8.050 -0.3697  0.4573 -0.6311
  937MOL0     H26477   3.497   3.078   8.132  0.9258  0.9170  1.0462
  937MOL0     H26478   3.679   2.955   8.249  0.1362  2.1441 -0.9423
  937MOL0     H26479   3.593   2.991   9.446 -0.3296  0.3037 -1.5489
  937MOL0     H26480   3.691   3.055   9.669 -0.2585  0.0767  0.0984
  937MOL0     H26481   3.890   3.326   9.929  0.3266 -1.1608 -0.3933
  937MOL0     H26482   3.984   3.303  10.172  0.8511  2.0427 -0.5734
  937MOL0     H26483   3.978   3.428  10.442  0.9225  0.3876 -3.8287
  937MOL0     H26484   4.036   3.277  10.391 -0.8126  0.0782 -1.0882
  937MOL0     H26485   3.946   3.156  10.577 -3.8355  0.4544 -1.6441
  937MOL0     H26486   3.868   3.287  10.660  1.7121  1.8445  2.5278
  937MOL0     H26487   4.049   3.421  10.721 -2.9286 -0.0411 -1.9497
  937MOL0     H26488   4.164   3.327  10.632 -0.5699  0.4029  0.5496
  937MOL0     H26489   4.092   3.124  10.754 -1.8049  0.7384 -0.4681
  937MOL0     H26490   4.183   3.235  10.847 -0.1105 -1.7702  0.5628
  937MOL0     H26491   3.807   3.295  11.041 -1.4022 -1.7063 -1.6543
  937MOL0     H26492   3.606   3.317  10.325  0.8780 -1.2083 -0.2758
  937MOL0     H26493   3.408   3.270  10.026 -2.2764  1.3314  0.8545
  937MOL0     H26494   3.408   3.338  10.191 -2.0401 -1.4597 -0.3970
  937MOL0     H26495   3.437   3.443  10.051 -3.9784 -1.1835 -2.0010
  938MOL0     O26496   5.249   1.564   3.693 -0.6633  0.4187 -0.3023
  938MOL0     C26497   5.335   1.478   3.717  0.1575 -0.7638  0.1673
  938MOL0     O26498   5.455   1.501   3.773 -0.1126 -0.2824 -0.4145
  938MOL0     C26499   5.511   1.625   3.755  0.1405 -0.1229 -0.4055
  938MOL0     C26500   5.507   1.699   3.869  0.1412  1.0531 -0.1767
  938MOL0     C26501   5.540   1.830   3.863  0.0781 -0.2358  0.5431
  938MOL0     C26502   5.609   1.883   3.756 -1.0648 -0.1875 -0.2107
  938MOL0     O26503   5.673   2.007   3.775  0.5065 -0.6598  0.0465
  938MOL0     C26504   5.683   2.085   3.656  0.4003  0.2729 -0.8555
  938MOL0     C26505   5.711   2.234   3.696  0.8053  0.9251  0.5155
  938MOL0     C26506   5.844   2.246   3.772 -0.2590  0.9440 -0.3327
  938MOL0     C26507   5.932   2.360   3.718 -0.5820  0.1556 -0.8797
  938MOL0     C26508   6.075   2.372   3.787 -0.4503  0.7313  0.0960
  938MOL0     C26509   6.151   2.483   3.706 -0.2001  0.1819 -0.2672
  938MOL0     C26510   6.274   2.549   3.773 -0.0373 -0.0067  0.7273
  938MOL0     C26511   6.372   2.447   3.834 -0.2361 -0.5752 -0.8323
  938MOL0     N26512   6.496   2.509   3.893 -0.0503 -1.2721 -0.7495
  938MOL0     C26513   6.613   2.438   3.920 -0.6138 -0.1598  0.7002
  938MOL0     C26514   6.697   2.530   3.971 -0.8229 -0.1081 -0.3593
  938MOL0     C26515   6.839   2.485   4.018  0.1862  0.5559  0.4769
  938MOL0     C26516   6.819   2.370   4.122  0.5721 -1.2598  0.9894
  938MOL0     C26517   6.805   2.402   4.263 -0.8167  0.9419 -0.4949
  938MOL0     C26518   6.864   2.530   4.312 -0.0946 -0.2709  0.7632
  938MOL0     O26519   7.009   2.521   4.320  0.1392  0.0049 -0.4568
  938MOL0     C26520   7.087   2.633   4.305  0.2240 -0.4820 -0.1373
  938MOL0     C26521   7.051   2.760   4.351  0.9430  0.4944  0.4014
  938MOL0     C26522   7.140   2.865   4.336 -1.1239  0.3886 -1.1567
  938MOL0     C26523   7.268   2.845   4.286 -0.0667 -0.2559  0.4338
  938MOL0     C26524   7.355   2.958   4.254  0.2228  0.7432 -0.3026
  938MOL0     O26525   7.295   3.084   4.246 -0.3951  0.6095  0.1515
  938MOL0     C26526   7.383   3.183   4.236 -0.5006 -0.0712  0.1834
  938MOL0     C26527   7.419   3.257   4.356 -1.1464 -0.3720 -0.4910
  938MOL0     C26528   7.509   3.363   4.342  0.7116  0.2099  0.6442
  938MOL0     C26529   7.541   3.418   4.216  0.8030  0.3768 -0.8181
  938MOL0     O26530   7.636   3.516   4.218 -0.2442 -0.0762  0.7331
  938MOL0     C26531   7.707   3.555   4.098 -0.6466  0.2435  0.6016
  938MOL0     C26532   7.829   3.624   4.138  0.8400  0.3480 -0.1967
  938MOL0     C26533   7.816   3.785   4.138  1.0067  0.4968 -0.2734
  938MOL0     C26534   7.884   3.849   4.022  0.3894  0.6240 -0.0648
  938MOL0     C26535   7.884   4.006   4.038  0.5044  0.3950  0.4578
  938MOL0     C26536   7.948   4.062   3.906 -0.9936  0.3275 -0.7951
  938MOL0     C26537   7.989   4.206   3.916 -0.1057  0.0424 -0.0425
  938MOL0     C26538   8.084   4.242   3.809  0.2254  0.8337  0.5580
  938MOL0    Cl26539   8.007   4.251   3.646  0.3488 -0.0472  0.1778
  938MOL0     C26540   7.489   3.350   4.096 -0.0445  0.1292  0.4565
  938MOL0     C26541   7.410   3.238   4.113  0.5504  0.2957 -0.2651
  938MOL0     O26542   7.463   2.929   4.205 -0.1209 -0.1047 -0.0779
  938MOL0     C26543   7.300   2.719   4.249 -0.0862  0.0274  1.0448
  938MOL0     C26544   7.211   2.611   4.259  0.1178 -0.1927 -0.0259
  938MOL0     N26545   6.633   2.648   3.994  0.2793  0.0393  0.3678
  938MOL0     N26546   6.516   2.640   3.943 -0.0440 -0.0655  0.2503
  938MOL0     C26547   5.630   1.806   3.645  0.1339 -0.3799  0.3258
  938MOL0     C26548   5.576   1.672   3.640 -1.2888  0.7265  0.8881
  938MOL0     C26549   5.299   1.331   3.688 -0.3972 -0.5397 -0.2470
  938MOL0     C26550   5.380   1.229   3.728  0.7700  0.1686 -1.4022
  938MOL0     C26551   5.370   1.094   3.697 -0.4412 -0.1956 -0.3642
  938MOL0     C26552   5.257   1.053   3.627  0.3508  0.5883 -1.4628
  938MOL0     O26553   5.220   0.922   3.618  0.9854  0.1118  0.6887
  938MOL0     C26554   5.083   0.880   3.647  0.3011  0.2371  0.0044
  938MOL0     C26555   5.039   0.874   3.786 -0.3215 -0.1616 -0.7850
  938MOL0     C26556   5.136   0.814   3.891  0.0524  1.1062  0.5562
  938MOL0     C26557   5.108   0.664   3.903  0.8886  0.0294  0.2467
  938MOL0     C26558   5.209   0.597   3.983 -0.1226  0.0755 -1.0226
  938MOL0     C26559   5.286   0.539   4.069  0.1663  0.3500  0.6916
  938MOL0     C26560   5.172   1.151   3.585 -0.0686 -0.5229 -0.4048
  938MOL0     C26561   5.182   1.288   3.623  0.0527 -0.6949  0.5736
  938MOL0     C26562   5.067   1.380   3.568 -0.4890  0.4163 -1.1262
  938MOL0     H26563   5.467   1.659   3.962  1.4907  0.8566  0.3401
  938MOL0     H26564   5.538   1.892   3.952  0.1708 -1.1920  1.2309
  938MOL0     H26565   5.774   2.052   3.605  2.5771  2.1881  1.5357
  938MOL0     H26566   5.595   2.071   3.592 -0.5848  1.0913  0.2769
  938MOL0     H26567   5.621   2.252   3.757 -0.3016 -0.4813 -0.6371
  938MOL0     H26568   5.703   2.299   3.608 -0.5790  0.5491  0.3391
  938MOL0     H26569   5.906   2.157   3.756  1.0108  1.7767 -0.2183
  938MOL0     H26570   5.835   2.242   3.881  2.0580 -5.5762  0.0676
  938MOL0     H26571   5.960   2.339   3.614  2.5750  1.9445 -0.5206
  938MOL0     H26572   5.872   2.449   3.734 -0.9527 -0.4878  1.8087
  938MOL0     H26573   6.063   2.391   3.894  0.3793  3.0205 -0.1663
  938MOL0     H26574   6.120   2.273   3.775 -1.9056  0.2977 -2.4132
  938MOL0     H26575   6.181   2.442   3.609 -3.3623  1.8070 -2.0810
  938MOL0     H26576   6.076   2.560   3.688  0.1801  0.3574 -1.1695
  938MOL0     H26577   6.244   2.626   3.845  0.3136  0.5265  0.3112
  938MOL0     H26578   6.320   2.616   3.700  0.8533 -3.2301 -1.9282
  938MOL0     H26579   6.332   2.391   3.918 -3.2759  0.7376 -1.2777
  938MOL0     H26580   6.399   2.378   3.754 -1.1753 -0.5632 -1.1677
  938MOL0     H26581   6.626   2.333   3.897 -0.0997  0.2505 -1.0317
  938MOL0     H26582   6.890   2.436   3.935 -2.3245 -2.5134  0.5740
  938MOL0     H26583   6.897   2.572   4.052 -2.5535  2.7021 -0.0023
  938MOL0     H26584   6.747   2.300   4.079  1.2494 -0.8605 -0.8861
  938MOL0     H26585   6.908   2.306   4.121  1.1350 -0.5579 -2.2326
  938MOL0     H26586   6.865   2.322   4.308 -0.4852  1.2989 -0.3003
  938MOL0     H26587   6.699   2.403   4.292 -0.4099  0.9908  1.0987
  938MOL0     H26588   6.825   2.552   4.412 -0.6126 -1.0286  0.7366
  938MOL0     H26589   6.838   2.616   4.249  3.5156  0.7635  0.4792
  938MOL0     H26590   6.951   2.785   4.385  1.1317  1.8371  0.0280
  938MOL0     H26591   7.106   2.964   4.364 -0.3405  0.6286 -1.0314
  938MOL0     H26592   7.384   3.225   4.454  0.2996  0.8166  0.4707
  938MOL0     H26593   7.548   3.417   4.428 -1.9694  0.3761  1.8592
  938MOL0     H26594   7.726   3.465   4.039 -1.0384  0.6024 -0.0756
  938MOL0     H26595   7.650   3.624   4.036  1.0413  0.3244 -0.9323
  938MOL0     H26596   7.868   3.580   4.231  0.1243 -0.5760 -0.3143
  938MOL0     H26597   7.908   3.597   4.068  0.9828  1.2785 -0.4058
  938MOL0     H26598   7.708   3.803   4.145  0.6215 -1.8688  1.1404
  938MOL0     H26599   7.851   3.831   4.231 -2.0928  3.7640 -0.4899
  938MOL0     H26600   7.836   3.821   3.928 -3.1472  0.9348  1.5122
  938MOL0     H26601   7.988   3.812   4.023 -0.2670 -1.3623  0.5649
  938MOL0     H26602   7.941   4.042   4.124  2.4134 -0.8619 -0.2138
  938MOL0     H26603   7.780   4.040   4.048  0.2648 -0.7137  2.1811
  938MOL0     H26604   8.043   4.009   3.891 -1.4294 -1.3401  1.7022
  938MOL0     H26605   7.887   4.060   3.815  3.6362 -0.6637 -4.2769
  938MOL0     H26606   8.031   4.219   4.017  1.4518 -2.5139 -0.2608
  938MOL0     H26607   7.898   4.266   3.911  0.3484  0.7050 -0.5575
  938MOL0     H26608   8.117   4.344   3.830  1.0145  0.8587 -0.6949
  938MOL0     H26609   8.167   4.171   3.796 -0.9674 -0.0904 -3.2466
  938MOL0     H26610   7.523   3.391   4.001  1.0585 -0.0590  0.7573
  938MOL0     H26611   7.362   3.199   4.024 -0.3163 -1.0607  0.7602
  938MOL0     H26612   7.404   2.698   4.224  0.0874 -0.2262  1.9494
  938MOL0     H26613   7.256   2.515   4.233  0.9225 -0.6238  2.6708
  938MOL0     H26614   5.698   1.837   3.567  0.2551  3.9275  1.8612
  938MOL0     H26615   5.582   1.617   3.546 -0.4997  0.5527  1.0329
  938MOL0     H26616   5.477   1.260   3.765  1.1563 -0.9559 -1.4460
  938MOL0     H26617   5.445   1.023   3.731  0.7196  0.6747 -1.0018
  938MOL0     H26618   5.075   0.780   3.603 -2.2261 -0.6488  2.2245
  938MOL0     H26619   5.010   0.938   3.589  0.7328  0.0002 -0.7985
  938MOL0     H26620   4.944   0.821   3.795 -0.1496 -0.2262  0.9364
  938MOL0     H26621   5.012   0.974   3.820 -2.3361 -0.4222 -1.5022
  938MOL0     H26622   5.110   0.856   3.988  1.1653  0.3316  1.2043
  938MOL0     H26623   5.243   0.835   3.885  1.7685 -3.8379  5.5489
  938MOL0     H26624   5.012   0.649   3.954 -0.2900 -0.9801 -2.1103
  938MOL0     H26625   5.111   0.625   3.801  0.9154  0.6841 -0.0127
  938MOL0     H26626   5.353   0.492   4.138 -0.0515  1.1259  1.4512
  938MOL0     H26627   5.080   1.113   3.541  1.3066 -1.8183 -2.3295
  938MOL0     H26628   5.027   1.447   3.645  1.2242 -1.7789  1.9274
  938MOL0     H26629   5.110   1.435   3.484  0.7568 -1.7253 -1.9528
  938MOL0     H26630   4.990   1.315   3.529 -2.3026  0.6162  1.7835
  939MOL0     O26631   0.464   7.919   6.064 -0.5418  0.3899  1.2195
  939MOL0     C26632   0.434   8.035   6.099 -0.2441  0.0887  0.8728
  939MOL0     O26633   0.502   8.144   6.061  0.0671  0.0691  0.6840
  939MOL0     C26634   0.626   8.131   5.999  0.4435 -0.0229  0.7607
  939MOL0     C26635   0.727   8.050   6.038 -0.0314  1.1724 -0.8043
  939MOL0     C26636   0.850   8.053   5.983 -0.0218  0.5866  0.2510
  939MOL0     C26637   0.884   8.147   5.882 -0.5844 -0.0466 -0.2262
  939MOL0     O26638   1.001   8.149   5.810  0.2267  0.3423  0.2362
  939MOL0     C26639   1.079   8.035   5.829  0.0966  0.5832 -0.7522
  939MOL0     C26640   1.170   8.023   5.704  0.3457 -0.4918  0.2224
  939MOL0     C26641   1.108   8.003   5.563 -0.1977  0.6217 -0.0438
  939MOL0     C26642   1.190   7.916   5.465 -0.8490 -0.6901 -0.3303
  939MOL0     C26643   1.124   7.941   5.324  0.1494  0.3321  0.7944
  939MOL0     C26644   1.143   8.078   5.272  0.3537 -1.2530  0.6652
  939MOL0     C26645   1.077   8.105   5.133 -0.0082 -0.1973  0.1895
  939MOL0     C26646   1.068   8.253   5.094  0.4307 -0.4233 -0.3371
  939MOL0     N26647   1.192   8.287   5.024  0.1572  0.0230 -0.3651
  939MOL0     C26648   1.300   8.359   5.085  0.5383 -0.0917 -0.8295
  939MOL0     C26649   1.399   8.374   4.994  0.4585  0.7126  0.1881
  939MOL0     C26650   1.530   8.421   5.028 -0.0111  0.2175  0.8373
  939MOL0     C26651   1.616   8.421   4.909 -0.6348  0.0266  1.0772
  939MOL0     C26652   1.756   8.483   4.926  0.2733 -0.2371  0.1393
  939MOL0     C26653   1.720   8.627   4.903  0.0130 -0.3616 -1.1882
  939MOL0     O26654   1.836   8.702   4.931 -1.0185  0.5926 -0.7641
  939MOL0     C26655   1.828   8.831   4.892  0.6314 -0.3078  1.0052
  939MOL0     C26656   1.947   8.891   4.846  0.0465 -0.9610  0.2261
  939MOL0     C26657   1.955   9.033   4.814  0.1437  0.2534 -0.9069
  939MOL0     C26658   1.849   9.117   4.830 -0.1671  1.0005 -0.2589
  939MOL0     C26659   1.858   9.260   4.795  0.9644  0.3209  0.3441
  939MOL0     O26660   1.976   9.307   4.764 -0.0942  0.6235 -0.7378
  939MOL0     C26661   1.996   9.442   4.765 -0.1043 -0.6101 -0.5558
  939MOL0     C26662   2.027   9.510   4.645 -0.3750 -0.4952 -0.7777
  939MOL0     C26663   2.045   9.644   4.642 -0.2690 -0.1910 -0.8809
  939MOL0     C26664   2.023   9.725   4.754 -0.1511  0.4075  0.4603
  939MOL0     O26665   2.041   9.861   4.745  0.0194  0.4241 -0.1251
  939MOL0     C26666   1.949   9.953   4.806 -0.4318 -0.2699  0.4553
  939MOL0     C26667   2.023  10.085   4.853 -0.5150 -0.6444 -0.2108
  939MOL0     C26668   2.129  10.025   4.942  0.3635 -0.6329 -0.2502
  939MOL0     C26669   2.156  10.119   5.055 -0.0819 -0.1380 -0.3987
  939MOL0     C26670   2.259  10.068   5.160 -0.8231 -1.0387  0.2802
  939MOL0     C26671   2.224   9.950   5.264  0.2288  0.1820  0.8626
  939MOL0     C26672   2.356   9.870   5.298 -0.6822 -0.3340  0.3030
  939MOL0     C26673   2.333   9.775   5.423  0.4960  0.5478 -0.6793
  939MOL0    Cl26674   2.465   9.656   5.456  0.1446  0.1264 -0.6377
  939MOL0     C26675   2.001   9.658   4.878  0.5256  0.1502  0.1927
  939MOL0     C26676   1.983   9.518   4.887 -0.1501 -0.7599  0.2364
  939MOL0     O26677   1.754   9.327   4.806  0.2099 -0.6523  0.7332
  939MOL0     C26678   1.725   9.054   4.878  0.5228 -0.6800  0.4428
  939MOL0     C26679   1.718   8.920   4.918 -0.1480  0.0537  0.5936
  939MOL0     N26680   1.354   8.315   4.877  0.4961 -0.8234  0.7261
  939MOL0     N26681   1.232   8.261   4.899 -0.1358  0.0423  0.0287
  939MOL0     C26682   0.795   8.242   5.840 -0.1455  0.4240  0.2009
  939MOL0     C26683   0.669   8.233   5.904  1.0145  0.0395 -0.0568
  939MOL0     C26684   0.313   8.056   6.182  0.4749 -0.0456  0.2660
  939MOL0     C26685   0.224   8.155   6.148  0.1040  1.2312 -0.5233
  939MOL0     C26686   0.096   8.163   6.211  0.8626  1.2526  1.0266
  939MOL0     C26687   0.059   8.062   6.302  0.7227 -0.3585  0.3747
  939MOL0     O26688  -0.070   8.045   6.343  0.0906  0.5001 -0.1438
  939MOL0     C26689  -0.139   8.166   6.356  0.2653  0.7616 -0.8837
  939MOL0     C26690  -0.269   8.138   6.436 -0.7782  0.8479  0.4583
  939MOL0     C26691  -0.356   8.260   6.448  0.5565 -0.0026 -0.1276
  939MOL0     C26692  -0.432   8.279   6.321  0.7316  0.7315  1.1653
  939MOL0     C26693  -0.475   8.421   6.306  0.1670 -0.2930 -1.0305
  939MOL0     C26694  -0.501   8.534   6.319 -0.4803  0.1277  0.7733
  939MOL0     C26695   0.150   7.970   6.334 -0.1147  0.0187 -0.0660
  939MOL0     C26696   0.269   7.958   6.273  0.2478 -0.0634 -0.1503
  939MOL0     C26697   0.347   7.849   6.313  0.2193  0.6265  0.2275
  939MOL0     H26698   0.720   7.974   6.116  0.2244  0.6930 -1.2412
  939MOL0     H26699   0.918   7.977   6.021 -0.9776 -1.1302 -1.2920
  939MOL0     H26700   1.143   8.052   5.916 -0.6832  1.2232 -0.2911
  939MOL0     H26701   1.010   7.951   5.824 -1.8895  2.1864 -2.0175
  939MOL0     H26702   1.217   7.928   5.732  0.3333 -0.3883  0.5898
  939MOL0     H26703   1.248   8.100   5.703 -2.2823  2.4066 -1.8920
  939MOL0     H26704   1.067   8.098   5.528  0.9079  1.2510  0.3187
  939MOL0     H26705   1.030   7.929   5.586 -0.5325  1.2934  1.0261
  939MOL0     H26706   1.294   7.950   5.455 -1.1072 -0.4026 -2.7630
  939MOL0     H26707   1.194   7.814   5.504 -0.6065 -0.3616  0.5321
  939MOL0     H26708   1.164   7.881   5.242 -1.4998 -0.7102  0.7021
  939MOL0     H26709   1.016   7.928   5.322 -0.0393  1.6691  1.2635
  939MOL0     H26710   1.110   8.142   5.354 -3.7597 -4.8597  2.2772
  939MOL0     H26711   1.248   8.091   5.247  0.3697 -1.1942  0.7633
  939MOL0     H26712   0.972   8.074   5.139 -0.8017  2.5738  2.9219
  939MOL0     H26713   1.137   8.051   5.059 -1.3151  2.4150 -3.0737
  939MOL0     H26714   0.984   8.275   5.028  0.3813  0.0294 -0.1287
  939MOL0     H26715   1.046   8.316   5.181 -2.9369 -1.8137 -0.0317
  939MOL0     H26716   1.309   8.369   5.193 -0.7402  1.1455 -0.8134
  939MOL0     H26717   1.516   8.516   5.080  0.0500 -0.5940  2.4043
  939MOL0     H26718   1.569   8.344   5.095 -0.5917 -1.4023 -0.6086
  939MOL0     H26719   1.643   8.318   4.888  0.7227  0.6524 -0.5031
  939MOL0     H26720   1.567   8.458   4.818 -0.7313 -0.7466  0.8134
  939MOL0     H26721   1.830   8.441   4.858 -0.8881 -1.6793 -0.2782
  939MOL0     H26722   1.788   8.472   5.030  1.2220 -2.1948 -0.3217
  939MOL0     H26723   1.635   8.663   4.962  2.3147  0.9244  1.5413
  939MOL0     H26724   1.698   8.643   4.797 -0.2165  1.0122 -0.9436
  939MOL0     H26725   2.027   8.820   4.830 -0.0867 -0.9381 -0.5770
  939MOL0     H26726   2.056   9.064   4.790  0.7868  2.1727  3.2692
  939MOL0     H26727   2.046   9.446   4.559  0.8497  0.0189 -0.9061
  939MOL0     H26728   2.083   9.684   4.549 -1.3190 -2.3574 -2.3232
  939MOL0     H26729   1.875   9.996   4.736 -0.9086 -0.0974  1.0592
  939MOL0     H26730   1.891   9.898   4.881 -2.2965 -0.0916 -0.7688
  939MOL0     H26731   2.077  10.137   4.774 -1.1566  1.3081  0.5799
  939MOL0     H26732   1.948  10.152   4.896  0.0793  1.0357 -1.7092
  939MOL0     H26733   2.101   9.928   4.985 -0.1385 -0.8457 -1.0403
  939MOL0     H26734   2.223  10.013   4.887 -1.1686  0.0342 -3.1868
  939MOL0     H26735   2.063  10.160   5.093 -0.6115  0.0405 -1.8129
  939MOL0     H26736   2.197  10.210   5.010 -3.2665  2.0762  0.8518
  939MOL0     H26737   2.293  10.146   5.229 -0.8143 -0.1203 -0.7310
  939MOL0     H26738   2.354  10.044   5.112  0.7542  2.0259  1.6172
  939MOL0     H26739   2.188  10.000   5.354  1.3794  0.4691  1.1797
  939MOL0     H26740   2.150   9.880   5.223  1.2788 -0.6683  0.3629
  939MOL0     H26741   2.446   9.930   5.311 -1.3238  0.1651  3.1692
  939MOL0     H26742   2.384   9.804   5.216  0.1426 -0.0040  0.3134
  939MOL0     H26743   2.334   9.835   5.514 -0.4990 -0.2397 -0.1286
  939MOL0     H26744   2.235   9.727   5.410 -1.6588  4.0324  1.1479
  939MOL0     H26745   2.004   9.710   4.973  4.1619 -0.2930  0.4538
  939MOL0     H26746   1.955   9.468   4.979 -1.3860 -2.2855 -0.9305
  939MOL0     H26747   1.638   9.117   4.897 -0.9423 -2.9483  1.6921
  939MOL0     H26748   1.626   8.870   4.948 -1.4962  2.8487  1.4294
  939MOL0     H26749   0.813   8.312   5.759  0.4839 -2.5028 -2.3803
  939MOL0     H26750   0.590   8.304   5.885  0.4987  0.0799  2.0072
  939MOL0     H26751   0.236   8.230   6.070 -0.9007 -0.2333 -2.1338
  939MOL0     H26752   0.020   8.233   6.178 -2.8058 -3.2290 -1.1603
  939MOL0     H26753  -0.170   8.205   6.259 -0.1396  0.2315 -0.9711
  939MOL0     H26754  -0.083   8.247   6.405  0.2338  0.3121 -0.0751
  939MOL0     H26755  -0.248   8.103   6.537 -0.0322 -1.8323 -0.5620
  939MOL0     H26756  -0.336   8.067   6.388  1.3237 -0.8089 -0.1735
  939MOL0     H26757  -0.301   8.352   6.473 -1.0408  0.4579  1.9433
  939MOL0     H26758  -0.421   8.247   6.534 -0.8278  1.6897 -0.8590
  939MOL0     H26759  -0.368   8.272   6.232 -2.4285  1.0568 -1.3052
  939MOL0     H26760  -0.521   8.220   6.297  2.1140 -0.1915 -2.4658
  939MOL0     H26761  -0.504   8.633   6.361 -2.4959 -0.1252  1.2858
  939MOL0     H26762   0.115   7.906   6.414 -3.2750 -0.1167 -1.4187
  939MOL0     H26763   0.445   7.896   6.324 -1.2313  3.9591  0.2334
  939MOL0     H26764   0.310   7.808   6.408  0.2706  3.1102  1.4212
  939MOL0     H26765   0.345   7.766   6.243  0.0154 -0.4552  1.4652
  940MOL0     O26766   8.356  11.375   2.114  0.3569  0.0322 -0.2767
  940MOL0     C26767   8.471  11.426   2.116 -0.5941 -0.2348  0.2425
  940MOL0     O26768   8.509  11.547   2.165  0.2126  0.0640 -0.0853
  940MOL0     C26769   8.422  11.657   2.168 -0.1742 -0.3689  0.2626
  940MOL0     C26770   8.297  11.662   2.097 -0.2635  0.3065 -1.0766
  940MOL0     C26771   8.203  11.761   2.122 -0.7878 -0.1980 -0.3470
  940MOL0     C26772   8.247  11.882   2.187  0.2618  0.7124  0.1476
  940MOL0     O26773   8.155  11.991   2.174 -0.6040  0.1841  0.2517
  940MOL0     C26774   8.192  12.120   2.231  0.4581 -0.0882 -0.2352
  940MOL0     C26775   8.284  12.213   2.154  0.5142 -0.3846  0.6611
  940MOL0     C26776   8.300  12.347   2.235 -1.1290 -0.3425 -0.1197
  940MOL0     C26777   8.407  12.437   2.162  0.4372  0.6439  1.0584
  940MOL0     C26778   8.432  12.566   2.243 -1.5313 -0.0901  0.2828
  940MOL0     C26779   8.545  12.647   2.184  0.8880 -0.5739  1.0458
  940MOL0     C26780   8.540  12.782   2.245  0.3234  0.4689  0.1914
  940MOL0     C26781   8.635  12.890   2.200  0.5147  1.3956 -0.2523
  940MOL0     N26782   8.618  12.920   2.056  0.2417  0.6632  0.0755
  940MOL0     C26783   8.526  12.999   2.001 -0.5022 -0.4023  0.3139
  940MOL0     C26784   8.570  13.020   1.878  1.3834 -0.4976 -0.1221
  940MOL0     C26785   8.517  13.117   1.782  0.3397 -0.9440  0.3047
  940MOL0     C26786   8.401  13.047   1.701 -0.1701  0.4260  0.0127
  940MOL0     C26787   8.280  13.145   1.665 -0.8526  0.2323 -0.6602
  940MOL0     C26788   8.158  13.052   1.618 -0.8541  0.2651 -0.3042
  940MOL0     O26789   8.043  13.135   1.583 -0.3407 -0.6544  0.4943
  940MOL0     C26790   7.913  13.087   1.609 -0.3604  0.6283  0.7329
  940MOL0     C26791   7.817  13.184   1.608  1.5884  0.3400 -0.1018
  940MOL0     C26792   7.683  13.167   1.628  0.3273  0.3089  0.8896
  940MOL0     C26793   7.639  13.038   1.644  0.1529  0.5408  0.0117
  940MOL0     C26794   7.497  12.997   1.659 -0.2450 -0.3463  0.1562
  940MOL0     O26795   7.463  12.866   1.692 -0.0528  0.4579  0.3199
  940MOL0     C26796   7.337  12.814   1.693 -0.2253 -0.3760  0.7452
  940MOL0     C26797   7.312  12.699   1.771 -0.5345  0.8796  0.7134
  940MOL0     C26798   7.190  12.645   1.795  0.4205  0.2888  1.4007
  940MOL0     C26799   7.077  12.689   1.729  0.3477  0.3211 -1.0105
  940MOL0     O26800   6.956  12.625   1.749 -0.3179  0.4886 -0.1230
  940MOL0     C26801   6.842  12.706   1.725 -0.1019  0.1813 -0.6161
  940MOL0     C26802   6.716  12.644   1.776 -0.0690  0.3321  0.5213
  940MOL0     C26803   6.590  12.723   1.744  0.1014  0.3980 -0.2895
  940MOL0     C26804   6.468  12.633   1.769 -0.7247  1.0810 -0.0644
  940MOL0     C26805   6.440  12.635   1.922 -0.3747 -0.0827 -0.7102
  940MOL0     C26806   6.306  12.564   1.950 -0.1599  1.0348  0.3962
  940MOL0     C26807   6.249  12.566   2.097 -0.1428  0.3879  0.0386
  940MOL0     C26808   6.191  12.692   2.139  0.9925  0.3190  0.2153
  940MOL0    Cl26809   6.036  12.699   2.044 -0.0046  0.3797 -0.1508
  940MOL0     C26810   7.098  12.800   1.652  0.9798 -0.4532  0.1197
  940MOL0     C26811   7.221  12.867   1.638 -0.8474 -0.1968  0.8395
  940MOL0     O26812   7.420  13.089   1.640 -0.2210 -0.1512 -0.3730
  940MOL0     C26813   7.742  12.936   1.651 -0.1252  0.3206 -0.2099
  940MOL0     C26814   7.875  12.961   1.631 -0.1643 -0.2928 -0.1233
  940MOL0     N26815   8.684  12.956   1.856  0.3665 -0.5965  0.3706
  940MOL0     N26816   8.710  12.892   1.957  0.4472  0.3060  0.2627
  940MOL0     C26817   8.372  11.886   2.246  0.5359  0.2182 -0.9652
  940MOL0     C26818   8.453  11.766   2.248 -0.4579 -0.5637  0.3470
  940MOL0     C26819   8.576  11.342   2.051 -0.3025 -0.6972  0.3465
  940MOL0     C26820   8.601  11.202   2.080  0.8963 -0.2877 -0.1256
  940MOL0     C26821   8.714  11.139   2.018 -0.9010  0.0111  0.0054
  940MOL0     C26822   8.806  11.204   1.941 -0.7466  0.0390  1.2947
  940MOL0     O26823   8.905  11.137   1.874  1.7808  0.6967 -0.0772
  940MOL0     C26824   9.001  11.204   1.798 -0.8419  0.4488  0.0764
  940MOL0     C26825   9.089  11.101   1.728  0.3342  1.1280 -0.4381
  940MOL0     C26826   9.150  10.982   1.824 -0.3254 -0.6832  0.2618
  940MOL0     C26827   9.252  11.031   1.934 -0.0577 -0.8808 -0.9048
  940MOL0     C26828   9.360  11.105   1.870  0.6007  0.4662 -0.4579
  940MOL0     C26829   9.443  11.169   1.811 -0.0042 -0.1928 -0.4609
  940MOL0     C26830   8.779  11.343   1.916  0.1523 -0.6475  0.8868
  940MOL0     C26831   8.666  11.406   1.961  0.2771 -0.8828 -0.6599
  940MOL0     C26832   8.637  11.544   1.905 -0.5769  0.2060 -0.1110
  940MOL0     H26833   8.272  11.579   2.032  1.3736 -1.8918  0.9842
  940MOL0     H26834   8.107  11.747   2.075 -0.5758 -0.8819 -0.6038
  940MOL0     H26835   8.101  12.181   2.237 -0.6437 -1.5023 -1.7260
  940MOL0     H26836   8.234  12.097   2.329  2.2117 -0.8259 -1.1167
  940MOL0     H26837   8.240  12.232   2.056  3.0432 -2.0376 -0.8947
  940MOL0     H26838   8.380  12.162   2.144 -0.3104 -1.7820 -0.3972
  940MOL0     H26839   8.337  12.338   2.338  0.4453  1.4333 -0.4911
  940MOL0     H26840   8.200  12.391   2.248 -0.0797  1.9889  0.5277
  940MOL0     H26841   8.502  12.385   2.151  0.6657  1.6056 -3.0401
  940MOL0     H26842   8.362  12.459   2.065 -1.4676  0.5512  1.8638
  940MOL0     H26843   8.339  12.620   2.259 -1.9830 -0.3782 -1.2397
  940MOL0     H26844   8.477  12.545   2.341 -1.2333 -0.3654  0.0896
  940MOL0     H26845   8.639  12.594   2.206  1.7056 -1.0700 -2.8499
  940MOL0     H26846   8.520  12.650   2.077 -1.4869 -0.1451  1.5819
  940MOL0     H26847   8.561  12.755   2.348 -2.2982 -0.3490  0.5815
  940MOL0     H26848   8.435  12.811   2.250 -0.8032 -2.3775 -3.0553
  940MOL0     H26849   8.632  12.982   2.260 -3.3149  0.3391  1.4863
  940MOL0     H26850   8.739  12.863   2.221 -0.1272  0.9182  2.7937
  940MOL0     H26851   8.449  13.052   2.056 -0.0656  0.9968 -0.3761
  940MOL0     H26852   8.485  13.203   1.842  0.2079  0.0627 -1.1554
  940MOL0     H26853   8.589  13.160   1.712 -0.4133  1.8192  1.1215
  940MOL0     H26854   8.452  13.008   1.612 -0.6017  0.1987 -0.1378
  940MOL0     H26855   8.365  12.958   1.753 -1.1807  0.7358 -0.1320
  940MOL0     H26856   8.311  13.202   1.577  2.9630 -2.3425 -1.1893
  940MOL0     H26857   8.246  13.204   1.750 -0.8139 -0.3547 -0.2329
  940MOL0     H26858   8.143  12.981   1.699  0.0818  0.9484  0.4849
  940MOL0     H26859   8.191  12.990   1.534  0.1836 -0.1595  0.3968
  940MOL0     H26860   7.851  13.287   1.612  0.1811  0.7906  1.9247
  940MOL0     H26861   7.622  13.257   1.620  0.2638  0.1377 -0.7125
  940MOL0     H26862   7.403  12.659   1.813 -0.2009 -0.2129 -0.9287
  940MOL0     H26863   7.175  12.562   1.863 -1.7230  0.5317  1.2760
  940MOL0     H26864   6.864  12.801   1.775  4.2933 -0.4772 -0.8894
  940MOL0     H26865   6.822  12.717   1.618  0.6917 -3.9759 -1.3588
  940MOL0     H26866   6.701  12.540   1.745  0.5010  0.3037  0.3292
  940MOL0     H26867   6.735  12.640   1.884  0.6581 -0.6978  0.3688
  940MOL0     H26868   6.590  12.807   1.813  0.5607  0.2644 -0.1267
  940MOL0     H26869   6.581  12.774   1.647  1.4702  2.7146  0.7238
  940MOL0     H26870   6.487  12.527   1.751 -1.2982  0.9924 -0.1564
  940MOL0     H26871   6.382  12.662   1.708  0.4593  2.8299 -1.0288
  940MOL0     H26872   6.432  12.739   1.954  2.4786  0.3704 -1.2457
  940MOL0     H26873   6.527  12.585   1.963 -0.0827 -0.4065 -1.6821
  940MOL0     H26874   6.223  12.606   1.893 -1.8947 -3.0274 -0.4245
  940MOL0     H26875   6.314  12.464   1.907 -3.3610  1.6995 -2.0597
  940MOL0     H26876   6.331  12.533   2.161 -0.8005 -1.3732  0.0202
  940MOL0     H26877   6.166  12.496   2.103 -1.8178  2.4232  3.5871
  940MOL0     H26878   6.169  12.690   2.246 -2.1466 -2.0133 -0.3390
  940MOL0     H26879   6.245  12.779   2.101  0.5676  0.1744 -0.7515
  940MOL0     H26880   7.017  12.854   1.604  0.5846  2.8797  3.9971
  940MOL0     H26881   7.231  12.952   1.571  0.5799 -1.4474 -0.6442
  940MOL0     H26882   7.713  12.832   1.667  3.5164 -0.6702  0.8329
  940MOL0     H26883   7.947  12.884   1.657 -2.2503 -2.0286  0.8110
  940MOL0     H26884   8.416  11.973   2.292 -1.3772  1.9343 -2.1942
  940MOL0     H26885   8.553  11.764   2.292 -0.5883  0.2431  0.6955
  940MOL0     H26886   8.524  11.151   2.136  1.0510 -0.8642 -0.4244
  940MOL0     H26887   8.717  11.030   2.026  1.7381 -0.3502 -3.5543
  940MOL0     H26888   9.060  11.272   1.860  0.1109  0.7526 -1.1414
  940MOL0     H26889   8.959  11.266   1.719  0.8080 -1.4587 -2.4426
  940MOL0     H26890   9.178  11.148   1.684  1.6490  0.8178  1.7354
  940MOL0     H26891   9.032  11.057   1.646  0.8934 -2.3723  0.9105
  940MOL0     H26892   9.207  10.915   1.758 -2.0702 -2.5313  0.5326
  940MOL0     H26893   9.063  10.931   1.866 -0.2396 -0.6035  0.5373
  940MOL0     H26894   9.208  11.086   2.017  4.3960  0.9613  0.5474
  940MOL0     H26895   9.304  10.939   1.963 -0.5420 -0.9048 -0.1003
  940MOL0     H26896   9.525  11.206   1.753  3.3107 -0.9897  3.2266
  940MOL0     H26897   8.839  11.396   1.842  1.3987 -2.4299  0.5527
  940MOL0     H26898   8.531  11.571   1.907 -0.3875  1.0936 -1.1477
  940MOL0     H26899   8.691  11.618   1.965  4.9821 -1.4255 -2.4334
  940MOL0     H26900   8.681  11.556   1.805  0.2840  0.0322  0.2378
  941MOL0     O26901   4.336   4.179   2.529 -0.2085  0.0094  0.7034
  941MOL0     C26902   4.394   4.098   2.456  1.9856 -0.2563 -0.1516
  941MOL0     O26903   4.396   4.096   2.325  0.4557 -0.1289 -0.3778
  941MOL0     C26904   4.319   4.194   2.262  0.5423 -0.5583  0.3334
  941MOL0     C26905   4.386   4.270   2.171  0.4517 -0.4326  0.7418
  941MOL0     C26906   4.316   4.364   2.103 -0.4766 -0.3468 -0.8716
  941MOL0     C26907   4.174   4.395   2.126  0.9872 -0.5254  0.2436
  941MOL0     O26908   4.129   4.509   2.059  0.0993  0.2843 -0.2460
  941MOL0     C26909   3.987   4.551   2.079  0.0878  0.2665 -0.0701
  941MOL0     C26910   3.905   4.448   1.991 -1.1020  0.6552 -0.4279
  941MOL0     C26911   3.767   4.496   1.981  0.0809 -0.2742  0.1480
  941MOL0     C26912   3.733   4.530   1.830 -0.0251  0.1489 -0.0156
  941MOL0     C26913   3.612   4.604   1.802  0.1836  0.0831  0.7648
  941MOL0     C26914   3.482   4.550   1.857  0.0510  0.1952  1.1189
  941MOL0     C26915   3.434   4.416   1.791  0.0485 -0.9930 -0.1164
  941MOL0     C26916   3.297   4.390   1.832  1.3532 -0.0764 -0.7554
  941MOL0     N26917   3.264   4.319   1.957  0.3600 -0.9108 -0.2831
  941MOL0     C26918   3.300   4.194   1.988  0.3445  1.0309  0.3314
  941MOL0     C26919   3.295   4.182   2.117  0.5751  0.7687 -0.3598
  941MOL0     C26920   3.335   4.071   2.206  0.3768  1.0439  0.4272
  941MOL0     C26921   3.234   3.945   2.217  1.0638  0.2180 -0.6511
  941MOL0     C26922   3.307   3.822   2.278 -0.4672 -0.2461  0.3761
  941MOL0     C26923   3.214   3.690   2.277 -0.4645 -0.6558  0.4888
  941MOL0     O26924   3.146   3.666   2.399  0.6814  0.5679 -0.1375
  941MOL0     C26925   3.098   3.536   2.416 -1.0933 -0.2221  0.1929
  941MOL0     C26926   3.109   3.484   2.546 -0.7235 -0.1667  0.3197
  941MOL0     C26927   3.049   3.364   2.579  0.7557  0.0203 -0.2677
  941MOL0     C26928   2.986   3.289   2.478  0.4058  0.2424 -0.8271
  941MOL0     C26929   2.930   3.153   2.520 -0.1732  0.6699  0.2174
  941MOL0     O26930   2.940   3.106   2.643 -0.7520 -0.4607 -0.1403
  941MOL0     C26931   2.886   2.978   2.670  1.4520 -1.0067 -0.4204
  941MOL0     C26932   2.962   2.860   2.675 -0.0000 -0.1915 -0.0849
  941MOL0     C26933   2.916   2.744   2.728  0.0848  0.6595 -0.1530
  941MOL0     C26934   2.785   2.734   2.785  0.3595 -0.4658 -0.2867
  941MOL0     O26935   2.747   2.625   2.868  0.2520 -0.0543  0.2704
  941MOL0     C26936   2.641   2.636   2.972  0.6745 -0.2838 -0.3074
  941MOL0     C26937   2.644   2.501   3.056  0.2987 -0.5556 -0.4201
  941MOL0     C26938   2.792   2.453   3.091  0.9903 -0.2251  0.7365
  941MOL0     C26939   2.849   2.371   2.971 -0.3018 -1.4432 -0.2820
  941MOL0     C26940   2.864   2.216   2.998 -0.3393  0.1164 -0.9106
  941MOL0     C26941   2.733   2.150   3.028 -0.6298  0.4064  0.3090
  941MOL0     C26942   2.750   2.001   3.013 -0.5674  0.3727 -0.2302
  941MOL0     C26943   2.615   1.926   3.036 -0.5261  0.1317  0.5880
  941MOL0    Cl26944   2.643   1.759   3.002  0.7005  0.0284  0.4168
  941MOL0     C26945   2.710   2.862   2.783  0.0281 -0.3147 -0.0687
  941MOL0     C26946   2.747   2.973   2.724 -0.9267 -0.3020 -0.4537
  941MOL0     O26947   2.889   3.083   2.426 -0.7293 -0.2174 -0.2791
  941MOL0     C26948   2.959   3.344   2.349 -0.0727  0.3094 -0.3039
  941MOL0     C26949   3.013   3.469   2.324 -0.3306  0.6705 -0.0001
  941MOL0     N26950   3.256   4.303   2.174  0.3150 -0.0313 -0.9367
  941MOL0     N26951   3.234   4.387   2.074  0.0717  0.4514  0.3293
  941MOL0     C26952   4.111   4.312   2.222  1.0073 -0.2307 -0.0940
  941MOL0     C26953   4.182   4.219   2.281 -0.0083  0.0300  0.1475
  941MOL0     C26954   4.480   4.001   2.521 -0.9432  0.2689 -0.1040
  941MOL0     C26955   4.518   3.890   2.446  0.1725 -0.4461  0.9602
  941MOL0     C26956   4.611   3.785   2.490  0.7330 -0.6461 -0.1607
  941MOL0     C26957   4.669   3.811   2.610 -0.8420  0.4594 -0.1639
  941MOL0     O26958   4.769   3.730   2.646  0.4934  0.3870 -0.1478
  941MOL0     C26959   4.751   3.583   2.651  1.1484  0.4909  0.7193
  941MOL0     C26960   4.863   3.524   2.735 -0.0575  0.1639 -0.8097
  941MOL0     C26961   4.985   3.503   2.651 -0.7292 -0.7443  0.1519
  941MOL0     C26962   4.985   3.375   2.579 -0.5973 -0.4153 -0.5782
  941MOL0     C26963   4.992   3.258   2.659  0.1879  0.2470  0.3654
  941MOL0     C26964   4.973   3.158   2.723  0.1755 -0.3719 -1.1065
  941MOL0     C26965   4.645   3.923   2.687  0.5759  0.8436  0.1730
  941MOL0     C26966   4.551   4.011   2.650  0.4246 -0.3580 -0.1169
  941MOL0     C26967   4.531   4.139   2.735  0.5415  0.4335  0.2283
  941MOL0     H26968   4.490   4.243   2.154  0.2285 -1.4549  0.8806
  941MOL0     H26969   4.365   4.415   2.021  2.1148  0.5790  1.1049
  941MOL0     H26970   3.947   4.545   2.181 -0.9403  2.9719 -0.2263
  941MOL0     H26971   3.984   4.657   2.050  0.9842 -0.0536 -1.4434
  941MOL0     H26972   3.906   4.347   2.034  0.2438  0.1807 -1.4838
  941MOL0     H26973   3.963   4.433   1.899  0.8307 -0.9308  0.9450
  941MOL0     H26974   3.751   4.584   2.044  2.2717 -1.8884  3.2342
  941MOL0     H26975   3.700   4.421   2.024  0.1368  0.5497  1.7429
  941MOL0     H26976   3.817   4.588   1.792  2.8161 -2.8791  1.1709
  941MOL0     H26977   3.733   4.432   1.782  2.9580  1.1638 -2.3768
  941MOL0     H26978   3.624   4.708   1.833  0.8212 -0.0718  1.0709
  941MOL0     H26979   3.593   4.601   1.695  0.6207  0.9602  0.6540
  941MOL0     H26980   3.475   4.539   1.966 -2.4889  0.4810  1.0428
  941MOL0     H26981   3.409   4.628   1.833  0.7829  0.0086 -2.1457
  941MOL0     H26982   3.514   4.349   1.823  1.4012  0.0818 -1.1227
  941MOL0     H26983   3.447   4.422   1.683 -0.4379 -0.9557 -0.1766
  941MOL0     H26984   3.238   4.482   1.839  0.4261 -0.7901  1.8123
  941MOL0     H26985   3.248   4.325   1.759 -0.6849  0.8521 -0.2706
  941MOL0     H26986   3.323   4.119   1.913  1.2292  0.8702  0.7559
  941MOL0     H26987   3.427   4.030   2.163 -0.8048  0.8617 -2.1144
  941MOL0     H26988   3.362   4.102   2.307  0.4493 -1.0419  1.0825
  941MOL0     H26989   3.141   3.968   2.270  1.2336  0.6548 -0.5391
  941MOL0     H26990   3.194   3.916   2.119  2.4744  3.0858 -2.1988
  941MOL0     H26991   3.328   3.850   2.381 -2.5572 -4.2477  2.1470
  941MOL0     H26992   3.398   3.796   2.223  0.0009  2.4151 -0.2103
  941MOL0     H26993   3.285   3.611   2.252  1.5705  0.9002  1.1408
  941MOL0     H26994   3.151   3.696   2.187  1.4598  4.5447 -0.8642
  941MOL0     H26995   3.150   3.536   2.632 -0.5901 -1.0958  0.8316
  941MOL0     H26996   3.044   3.345   2.686  1.6040  1.7810  0.1324
  941MOL0     H26997   3.065   2.855   2.641  0.2780 -1.9172  0.9148
  941MOL0     H26998   2.971   2.650   2.731 -1.2355 -0.1415 -0.2537
  941MOL0     H26999   2.676   2.719   3.034 -0.2285  0.8146 -1.2386
  941MOL0     H27000   2.546   2.650   2.921  0.5359  1.3311  0.3436
  941MOL0     H27001   2.590   2.509   3.151 -0.1157 -4.0899 -0.2056
  941MOL0     H27002   2.598   2.432   2.984  0.9327 -0.3206 -1.0583
  941MOL0     H27003   2.847   2.542   3.125 -0.4967  0.1939  2.1809
  941MOL0     H27004   2.773   2.382   3.172  0.6174  0.3661  1.1773
  941MOL0     H27005   2.948   2.403   2.938  1.1664 -1.4736  3.6637
  941MOL0     H27006   2.787   2.394   2.883  1.7171  4.3583 -0.5887
  941MOL0     H27007   2.933   2.197   3.080 -0.2973  0.9758 -0.7352
  941MOL0     H27008   2.920   2.179   2.912  1.4748  2.4251 -0.8219
  941MOL0     H27009   2.717   2.174   3.134 -1.1947  0.5598  0.1910
  941MOL0     H27010   2.644   2.177   2.971 -0.5297 -3.7726 -2.2852
  941MOL0     H27011   2.827   1.959   3.078 -0.2298 -3.4020 -2.7598
  941MOL0     H27012   2.779   1.964   2.914 -3.9003 -3.6209 -0.0122
  941MOL0     H27013   2.585   1.944   3.140 -2.9289 -2.2878  0.4299
  941MOL0     H27014   2.532   1.961   2.974  0.4737 -0.6322 -1.2475
  941MOL0     H27015   2.623   2.875   2.847 -0.1941  1.2302 -0.6497
  941MOL0     H27016   2.691   3.065   2.739 -0.3995 -0.1242  0.4973
  941MOL0     H27017   2.913   3.284   2.271 -2.3621  0.9991  0.4342
  941MOL0     H27018   3.003   3.505   2.221 -3.2947  1.0875  0.3376
  941MOL0     H27019   4.006   4.323   2.246  0.9193  1.9618 -1.1852
  941MOL0     H27020   4.136   4.150   2.351 -0.5372  1.2021  0.9836
  941MOL0     H27021   4.464   3.876   2.353  1.5993 -0.4539  0.1033
  941MOL0     H27022   4.643   3.693   2.442 -1.1452 -0.0189 -2.8563
  941MOL0     H27023   4.734   3.538   2.553 -3.1317  0.3893  1.3195
  941MOL0     H27024   4.653   3.562   2.696 -0.0859  1.3990 -1.4108
  941MOL0     H27025   4.835   3.431   2.785 -0.2691 -0.3578 -1.8762
  941MOL0     H27026   4.893   3.603   2.805  1.6799  0.8074 -2.2210
  941MOL0     H27027   5.074   3.509   2.715 -1.8411  2.1571  1.6421
  941MOL0     H27028   5.000   3.581   2.577  2.4723 -0.4226  0.9816
  941MOL0     H27029   4.892   3.361   2.522 -0.6364  3.6637 -1.7862
  941MOL0     H27030   5.074   3.365   2.517  1.0498  2.0912  1.2434
  941MOL0     H27031   4.960   3.062   2.768  0.3798 -0.0336 -0.3169
  941MOL0     H27032   4.702   3.947   2.776  0.3481  4.9423 -0.5810
  941MOL0     H27033   4.446   4.123   2.802 -1.6192 -0.2607 -2.4718
  941MOL0     H27034   4.626   4.154   2.788  0.9061  2.9050 -0.9755
  941MOL0     H27035   4.506   4.233   2.686  2.2765  1.3225  0.9668
  942MOL0     O27036   2.581   7.910   9.791 -0.3766  0.1235 -0.4848
  942MOL0     C27037   2.562   7.989   9.881  0.2028  0.9048  0.2179
  942MOL0     O27038   2.616   8.111   9.886 -0.5422  0.0010 -0.3985
  942MOL0     C27039   2.707   8.148   9.792 -0.5068  1.1457 -0.4568
  942MOL0     C27040   2.836   8.092   9.796 -0.1127 -0.1960  0.9930
  942MOL0     C27041   2.933   8.135   9.702  0.2010 -0.9884  0.0983
  942MOL0     C27042   2.908   8.245   9.622 -1.1118  0.9577  0.6274
  942MOL0     O27043   3.010   8.307   9.545  0.1192 -0.4081 -0.7212
  942MOL0     C27044   2.986   8.406   9.448  0.5085  0.5352 -0.1472
  942MOL0     C27045   3.053   8.534   9.488  0.5325 -0.0278 -0.7753
  942MOL0     C27046   3.061   8.631   9.369 -0.0110 -0.4728  0.0192
  942MOL0     C27047   2.925   8.659   9.302  1.0783 -0.6546  0.5010
  942MOL0     C27048   2.959   8.774   9.204  0.0363 -0.2300  0.2965
  942MOL0     C27049   2.832   8.814   9.134  1.4763  0.6217  0.7442
  942MOL0     C27050   2.843   8.892   9.004 -0.1285  0.1521 -0.3803
  942MOL0     C27051   2.935   9.020   9.024 -0.2096 -0.3050  0.4743
  942MOL0     N27052   2.875   9.123   9.109  0.8597 -0.1384 -0.5943
  942MOL0     C27053   2.755   9.189   9.096  0.0324  0.0997  1.2054
  942MOL0     C27054   2.726   9.247   9.213  0.4483 -0.1999 -0.6727
  942MOL0     C27055   2.606   9.334   9.227 -0.9251 -1.4029 -0.0081
  942MOL0     C27056   2.619   9.457   9.328 -0.2897  0.3194  0.5361
  942MOL0     C27057   2.644   9.589   9.250 -0.2500 -0.1271  0.0402
  942MOL0     C27058   2.658   9.704   9.349 -0.3376  0.0709 -0.4319
  942MOL0     O27059   2.547   9.739   9.421  0.2631 -0.1355 -0.8028
  942MOL0     C27060   2.571   9.768   9.558 -0.2963  0.1324  0.2040
  942MOL0     C27061   2.500   9.689   9.644  0.0117 -0.1369  0.1463
  942MOL0     C27062   2.520   9.709   9.786 -0.3687 -0.4378 -0.0893
  942MOL0     C27063   2.608   9.805   9.836 -0.1828  0.8602 -1.3617
  942MOL0     C27064   2.605   9.837   9.980  0.8815 -0.2501  0.3923
  942MOL0     O27065   2.661   9.954  10.018 -0.2887 -0.7583  0.4466
  942MOL0     C27066   2.669   9.973  10.155  0.0063  0.6273  0.1501
  942MOL0     C27067   2.787   9.941  10.221 -0.5423  0.1542  0.4390
  942MOL0     C27068   2.795   9.949  10.360  1.2658  0.2180  0.4278
  942MOL0     C27069   2.676   9.968  10.438  0.3503 -1.1502  0.0455
  942MOL0     O27070   2.660   9.935  10.572 -0.1127  0.5022 -0.5492
  942MOL0     C27071   2.756   9.856  10.639  1.7116  0.1255  0.5542
  942MOL0     C27072   2.696   9.855  10.777 -0.1508  0.1235 -0.1495
  942MOL0     C27073   2.706   9.997  10.855  1.2255  0.0240 -1.1176
  942MOL0     C27074   2.650   9.978  11.001  1.1442 -0.2509 -0.5322
  942MOL0     C27075   2.679  10.102  11.094  0.0419 -0.9766  0.5306
  942MOL0     C27076   2.694  10.061  11.237 -0.0891  1.0355  0.8851
  942MOL0     C27077   2.741  10.172  11.320 -0.3258 -0.3369 -0.2584
  942MOL0     C27078   2.771  10.117  11.458  0.1896  0.2911 -0.4735
  942MOL0    Cl27079   2.621  10.069  11.527  0.0612 -0.1591  0.1625
  942MOL0     C27080   2.556  10.002  10.376  0.6096  0.4319  0.2376
  942MOL0     C27081   2.559  10.012  10.234  0.7258  0.6111 -0.6136
  942MOL0     O27082   2.549   9.756  10.053 -0.9693  0.0348  0.0197
  942MOL0     C27083   2.687   9.881   9.740 -0.1928  0.3143 -1.1689
  942MOL0     C27084   2.660   9.866   9.604 -0.3966 -0.3494 -0.3670
  942MOL0     N27085   2.822   9.209   9.303 -0.0838 -1.0768 -0.5623
  942MOL0     N27086   2.905   9.132   9.239  0.2919  0.0694 -0.3007
  942MOL0     C27087   2.779   8.304   9.625  0.2832 -0.3668 -0.4581
  942MOL0     C27088   2.684   8.252   9.706  0.5521 -0.0364  0.1714
  942MOL0     C27089   2.515   7.942  10.011  0.6569 -0.4566  0.7238
  942MOL0     C27090   2.472   8.045  10.100  0.1059  0.1958 -0.3918
  942MOL0     C27091   2.424   8.018  10.231 -0.0844 -0.7185  0.5258
  942MOL0     C27092   2.402   7.889  10.276  0.9570  0.1242 -0.2701
  942MOL0     O27093   2.348   7.863  10.396 -0.0736  0.1283 -0.2979
  942MOL0     C27094   2.375   7.941  10.511  0.6019  0.2891 -0.3348
  942MOL0     C27095   2.357   7.851  10.628 -0.1987  0.0864 -0.6609
  942MOL0     C27096   2.384   7.921  10.760 -0.1378  0.0987  0.2120
  942MOL0     C27097   2.418   7.831  10.890 -0.3574  0.4700 -0.6628
  942MOL0     C27098   2.307   7.733  10.922  0.0916 -0.2055  0.1183
  942MOL0     C27099   2.216   7.657  10.945  0.1172  0.7366 -0.3702
  942MOL0     C27100   2.440   7.788  10.181 -0.2460 -1.1661 -0.2038
  942MOL0     C27101   2.497   7.814  10.055 -0.9705  0.3369 -0.6693
  942MOL0     C27102   2.538   7.687   9.983 -0.1413  0.2912  0.2260
  942MOL0     H27103   2.861   8.008   9.860  1.0171  1.1897  2.4543
  942MOL0     H27104   3.028   8.084   9.697  1.0376  0.4194  1.1537
  942MOL0     H27105   3.045   8.361   9.367 -0.6109 -5.8391  2.0065
  942MOL0     H27106   2.887   8.426   9.406 -1.0981  1.0803  3.4820
  942MOL0     H27107   3.145   8.531   9.547  0.4957  2.2303 -0.5013
  942MOL0     H27108   2.987   8.578   9.564  1.3722 -0.8008  0.4340
  942MOL0     H27109   3.126   8.599   9.287 -1.1681  0.1975 -1.1936
  942MOL0     H27110   3.092   8.719   9.427 -0.6727 -2.0033  2.9212
  942MOL0     H27111   2.875   8.576   9.252  0.4467 -0.9270  1.5635
  942MOL0     H27112   2.845   8.686   9.371 -2.3090 -2.8368 -2.2461
  942MOL0     H27113   2.990   8.866   9.254  1.0009  0.4387 -1.4328
  942MOL0     H27114   3.043   8.745   9.140 -0.8526  1.4710 -1.7615
  942MOL0     H27115   2.777   8.724   9.104 -0.6995  2.2695 -0.5310
  942MOL0     H27116   2.772   8.877   9.199  0.1037  0.1598 -0.0365
  942MOL0     H27117   2.749   8.940   8.977 -0.0959  1.4107  1.6060
  942MOL0     H27118   2.875   8.829   8.921  0.8146  1.9620 -1.4496
  942MOL0     H27119   3.035   8.993   9.056 -0.3074 -0.2335  0.8419
  942MOL0     H27120   2.952   9.051   8.920 -2.1299 -1.0785 -0.1288
  942MOL0     H27121   2.706   9.202   8.999  0.6272 -2.8361  0.4302
  942MOL0     H27122   2.599   9.381   9.129  2.4034 -0.0849  0.2369
  942MOL0     H27123   2.511   9.286   9.253 -2.4354  2.1201  1.6672
  942MOL0     H27124   2.525   9.469   9.383 -1.0902  0.9699 -0.9039
  942MOL0     H27125   2.702   9.443   9.397 -0.0632  2.7032  0.8381
  942MOL0     H27126   2.568   9.609   9.174  1.4128 -1.1470 -1.9829
  942MOL0     H27127   2.740   9.569   9.202 -0.7286 -2.2837 -0.1488
  942MOL0     H27128   2.700   9.796   9.307 -0.8834  0.6716  0.2848
  942MOL0     H27129   2.735   9.656   9.411 -1.4399 -2.3407 -0.8236
  942MOL0     H27130   2.439   9.609   9.604  1.5447 -1.8402  1.0511
  942MOL0     H27131   2.464   9.645   9.853  2.2717 -2.2938  0.4902
  942MOL0     H27132   2.880   9.913  10.174  0.5445  3.2734  0.5028
  942MOL0     H27133   2.888   9.921  10.409  2.7896  3.1945 -0.5344
  942MOL0     H27134   2.766   9.758  10.591 -0.2408  1.6043 -3.2757
  942MOL0     H27135   2.848   9.915  10.644 -1.1103  5.0322  0.6852
  942MOL0     H27136   2.590   9.826  10.774 -0.4454  0.7887  2.0122
  942MOL0     H27137   2.751   9.775  10.827  0.9732 -0.0096 -1.5466
  942MOL0     H27138   2.811  10.029  10.853  1.0740  0.6672 -4.4167
  942MOL0     H27139   2.649  10.082  10.818 -1.8709 -0.8672  1.2033
  942MOL0     H27140   2.694   9.887  11.042 -0.5651 -0.2287  1.4927
  942MOL0     H27141   2.542   9.958  11.001  0.4087  2.3391  3.8351
  942MOL0     H27142   2.590  10.162  11.076 -0.3082 -1.8873 -1.0016
  942MOL0     H27143   2.758  10.167  11.055 -2.6785  5.2319  3.9255
  942MOL0     H27144   2.597  10.025  11.273 -0.8478  2.0667 -0.0481
  942MOL0     H27145   2.767   9.979  11.236 -0.3097  0.8368 -0.0129
  942MOL0     H27146   2.663  10.248  11.333  1.1541  1.6255 -2.2155
  942MOL0     H27147   2.828  10.222  11.278 -2.2462  2.3139 -1.3027
  942MOL0     H27148   2.841  10.033  11.461  1.0696  1.0353  1.1414
  942MOL0     H27149   2.820  10.189  11.525 -0.3049  0.3667 -0.1907
  942MOL0     H27150   2.467  10.016  10.437 -0.0703 -1.0737 -0.3620
  942MOL0     H27151   2.466  10.029  10.181 -0.7858 -1.1958  1.2815
  942MOL0     H27152   2.757   9.961   9.761  2.7375 -2.0677 -1.1136
  942MOL0     H27153   2.715   9.917   9.526 -1.6354  1.5373 -0.0640
  942MOL0     H27154   2.745   8.379   9.554  2.7844 -0.0241 -1.4041
  942MOL0     H27155   2.577   8.267   9.690  0.6131 -1.8874 -2.8740
  942MOL0     H27156   2.491   8.149  10.074  3.6147  0.0309  1.0325
  942MOL0     H27157   2.401   8.099  10.299  1.8138  0.7562 -0.4611
  942MOL0     H27158   2.309   8.029  10.505 -0.2756 -0.2277  1.2176
  942MOL0     H27159   2.474   7.986  10.523  0.3519  0.0166  4.6878
  942MOL0     H27160   2.428   7.768  10.634 -0.8319 -0.3982  0.3708
  942MOL0     H27161   2.264   7.794  10.616 -1.0812  1.7648 -2.3010
  942MOL0     H27162   2.298   7.984  10.786 -0.1484  0.2777 -0.2528
  942MOL0     H27163   2.458   8.002  10.752  0.5009 -0.5822 -0.9466
  942MOL0     H27164   2.521   7.795  10.886 -0.5113 -0.3916  1.6511
  942MOL0     H27165   2.422   7.893  10.980  0.5667 -0.0533 -0.3328
  942MOL0     H27166   2.153   7.575  10.975  2.0289 -0.1665  1.4612
  942MOL0     H27167   2.410   7.689  10.212 -1.8424 -1.5026 -2.5644
  942MOL0     H27168   2.647   7.686   9.970  0.1412 -2.2942  1.9915
  942MOL0     H27169   2.513   7.600  10.045  1.3826 -1.6764 -1.7471
  942MOL0     H27170   2.492   7.676   9.885  0.9425 -0.5424 -0.2145
  943MOL0     O27171   2.549  10.201   2.003  0.5167  0.1219  0.4982
  943MOL0     C27172   2.662  10.218   2.045 -0.7211 -0.3102  0.0198
  943MOL0     O27173   2.704  10.325   2.115  0.0148  0.3763  0.5037
  943MOL0     C27174   2.640  10.442   2.129 -0.4078  0.7626  0.5690
  943MOL0     C27175   2.604  10.474   2.260 -0.5058  0.2112  0.6483
  943MOL0     C27176   2.541  10.595   2.271 -0.2477  0.0149 -0.0751
  943MOL0     C27177   2.500  10.680   2.170  0.1789 -0.7889  0.2154
  943MOL0     O27178   2.428  10.791   2.204 -0.2353  0.2889 -0.2589
  943MOL0     C27179   2.376  10.864   2.099  0.1515  0.2024 -0.4044
  943MOL0     C27180   2.308  10.996   2.140 -0.1314 -0.6899  0.1193
  943MOL0     C27181   2.410  11.098   2.197  0.5384  0.3190 -0.1289
  943MOL0     C27182   2.472  11.060   2.329  0.2379  0.0705 -0.3876
  943MOL0     C27183   2.518  11.182   2.407  0.4201 -0.1741  0.1668
  943MOL0     C27184   2.614  11.131   2.519 -0.2614 -0.8907 -0.0207
  943MOL0     C27185   2.711  11.245   2.551 -0.1465 -0.6793 -0.5909
  943MOL0     C27186   2.792  11.324   2.449 -0.4538  0.5956 -0.7321
  943MOL0     N27187   2.896  11.245   2.376  0.3122 -0.0135  0.0362
  943MOL0     C27188   3.031  11.241   2.400 -1.1411  0.2314 -0.6041
  943MOL0     C27189   3.079  11.154   2.310  0.3066 -0.0335  0.2256
  943MOL0     C27190   3.224  11.128   2.281 -0.3501 -0.2263  0.1025
  943MOL0     C27191   3.308  11.248   2.223 -0.9744  0.0208  0.0178
  943MOL0     C27192   3.442  11.197   2.172  0.4356  0.1322 -0.7248
  943MOL0     C27193   3.549  11.302   2.175  0.2693  0.4103  0.1623
  943MOL0     O27194   3.529  11.407   2.084  0.0312  0.2442 -0.6328
  943MOL0     C27195   3.634  11.502   2.092  0.8581 -0.4454  0.4571
  943MOL0     C27196   3.723  11.521   2.193 -0.6738  0.0451  0.1715
  943MOL0     C27197   3.824  11.614   2.187 -0.3809 -0.5456  0.5626
  943MOL0     C27198   3.834  11.708   2.087 -0.4918  1.7769  0.2231
  943MOL0     C27199   3.941  11.812   2.087 -0.5901  0.2935  0.4879
  943MOL0     O27200   4.029  11.825   2.194 -0.4381 -0.3503 -0.9025
  943MOL0     C27201   4.108  11.946   2.189 -0.1315 -0.4172  0.3235
  943MOL0     C27202   4.195  11.994   2.090  0.1089 -0.8087 -1.3763
  943MOL0     C27203   4.276  12.111   2.112 -0.2916  0.1230  0.6348
  943MOL0     C27204   4.281  12.164   2.245 -1.3162 -0.3097  0.1218
  943MOL0     O27205   4.365  12.256   2.300 -0.5549  0.1379  0.7537
  943MOL0     C27206   4.354  12.389   2.241  0.1898 -0.2604 -0.3289
  943MOL0     C27207   4.384  12.484   2.360  0.4285 -0.6729 -0.6930
  943MOL0     C27208   4.272  12.514   2.460  0.6779  0.5075  0.5484
  943MOL0     C27209   4.313  12.605   2.563  0.6426  0.2462  0.4925
  943MOL0     C27210   4.203  12.637   2.664 -0.5797  0.5197 -0.0679
  943MOL0     C27211   4.258  12.748   2.752 -0.6063 -0.3507  0.2530
  943MOL0     C27212   4.142  12.822   2.824  0.1670 -0.1990 -0.8857
  943MOL0     C27213   4.179  12.860   2.962 -1.0518 -0.2685 -0.0560
  943MOL0    Cl27214   4.064  12.987   3.007 -0.0485  0.0599  0.0674
  943MOL0     C27215   4.198  12.102   2.343 -0.5839  0.7908  0.3880
  943MOL0     C27216   4.109  12.000   2.315  0.1991  0.8271  0.4049
  943MOL0     O27217   3.931  11.899   1.994 -0.4728  0.3353 -0.2746
  943MOL0     C27218   3.729  11.706   1.994  0.4160 -0.0239  0.5628
  943MOL0     C27219   3.629  11.601   1.991 -1.0259  0.0795  0.4269
  943MOL0     N27220   2.968  11.090   2.260  0.1511  0.6329  0.7711
  943MOL0     N27221   2.862  11.144   2.294  0.5857 -0.5574  0.5657
  943MOL0     C27222   2.544  10.644   2.040  0.4126 -0.6376  0.1406
  943MOL0     C27223   2.615  10.526   2.020 -0.2144 -0.0211 -0.5257
  943MOL0     C27224   2.771  10.121   2.006  0.0625 -0.6850 -0.5147
  943MOL0     C27225   2.872  10.104   2.104  0.0957 -1.0144 -0.7293
  943MOL0     C27226   2.958  10.003   2.088  0.5062 -0.0912  0.6215
  943MOL0     C27227   2.974   9.924   1.968  0.3905 -0.0992 -0.2914
  943MOL0     O27228   3.064   9.827   1.936 -0.3174  0.5843 -0.0768
  943MOL0     C27229   3.184   9.831   2.011  0.5314 -0.0514 -0.1369
  943MOL0     C27230   3.185   9.753   2.147 -0.5723 -0.1671  0.1035
  943MOL0     C27231   3.331   9.700   2.174 -0.0074  0.4344 -0.2935
  943MOL0     C27232   3.435   9.807   2.219  0.3924  0.2781 -0.6523
  943MOL0     C27233   3.474   9.897   2.113  0.4710 -0.9056 -0.8243
  943MOL0     C27234   3.500   9.983   2.032  0.6343  0.4635  0.0217
  943MOL0     C27235   2.871   9.953   1.873  0.0472  0.2201  0.2887
  943MOL0     C27236   2.767  10.039   1.896 -0.3260  0.5553 -0.7200
  943MOL0     C27237   2.665  10.052   1.784  0.5251  0.2258 -0.2979
  943MOL0     H27238   2.640  10.414   2.343  0.6751  1.6764  1.2371
  943MOL0     H27239   2.521  10.624   2.374  1.1815  0.8848 -0.0097
  943MOL0     H27240   2.448  10.883   2.019  0.8907  1.5066  0.5374
  943MOL0     H27241   2.295  10.805   2.056  1.1897 -1.2746 -0.3976
  943MOL0     H27242   2.231  10.976   2.215  2.9956  1.4859  4.3383
  943MOL0     H27243   2.252  11.037   2.055  0.2156 -2.2933 -0.9356
  943MOL0     H27244   2.347  11.186   2.213  1.2378  1.7703 -4.1928
  943MOL0     H27245   2.485  11.123   2.121  0.7593  1.9257  0.5841
  943MOL0     H27246   2.410  10.989   2.385 -2.1476  0.3354 -2.5126
  943MOL0     H27247   2.563  11.006   2.300 -0.7403 -0.9714 -1.6027
  943MOL0     H27248   2.559  11.256   2.336  3.6256  0.9369  2.9033
  943MOL0     H27249   2.430  11.214   2.462 -1.7315 -2.0851 -1.9571
  943MOL0     H27250   2.570  11.110   2.616 -1.6300  2.7075  0.3282
  943MOL0     H27251   2.670  11.042   2.491  2.2754 -0.5181  3.3133
  943MOL0     H27252   2.784  11.207   2.622 -0.2701 -0.7761 -0.5154
  943MOL0     H27253   2.649  11.307   2.617 -2.2311  0.6808 -3.5452
  943MOL0     H27254   2.725  11.368   2.375 -0.8674  1.6644  0.2293
  943MOL0     H27255   2.832  11.404   2.512  0.7088 -1.9191  1.9472
  943MOL0     H27256   3.092  11.309   2.459  0.1292 -2.5094  1.4301
  943MOL0     H27257   3.278  11.079   2.363  1.1759 -0.4533 -0.9985
  943MOL0     H27258   3.224  11.053   2.201  1.5133 -3.6845  3.0565
  943MOL0     H27259   3.252  11.304   2.147  1.0985  0.4263 -1.2763
  943MOL0     H27260   3.330  11.306   2.313  2.4084 -0.0411 -0.6438
  943MOL0     H27261   3.426  11.165   2.069 -0.4813 -1.1334 -0.2032
  943MOL0     H27262   3.470  11.114   2.238  1.5735  1.1635  0.1371
  943MOL0     H27263   3.640  11.247   2.148 -0.1171 -1.2939  2.1210
  943MOL0     H27264   3.559  11.336   2.278  0.6193  3.3814 -0.7443
  943MOL0     H27265   3.717  11.447   2.273 -5.1942 -1.4378 -1.2343
  943MOL0     H27266   3.898  11.617   2.267  0.3837 -0.2395 -0.1444
  943MOL0     H27267   4.179  11.951   1.992  1.0253 -3.9304 -0.2620
  943MOL0     H27268   4.346  12.149   2.038  0.7615  0.5723  1.8017
  943MOL0     H27269   4.431  12.411   2.166 -1.0629  5.7453 -0.3989
  943MOL0     H27270   4.255  12.413   2.201  1.4836  2.4014 -2.2656
  943MOL0     H27271   4.470  12.447   2.416 -0.4543  0.0791  1.2147
  943MOL0     H27272   4.401  12.582   2.315  2.4987  0.5265  2.3935
  943MOL0     H27273   4.185  12.547   2.403  1.3067 -0.1837 -0.8487
  943MOL0     H27274   4.241  12.420   2.507  0.0541  0.5059  0.1505
  943MOL0     H27275   4.326  12.703   2.516 -1.3102  0.8263  1.0477
  943MOL0     H27276   4.405  12.576   2.616  1.8594  1.6419 -0.7488
  943MOL0     H27277   4.168  12.554   2.725 -3.6413  1.8185  0.1483
  943MOL0     H27278   4.113  12.675   2.614 -1.6696 -0.9819  0.6842
  943MOL0     H27279   4.333  12.706   2.821 -0.9905  2.5132  2.6345
  943MOL0     H27280   4.311  12.819   2.688 -0.6555  1.5202  2.1805
  943MOL0     H27281   4.055  12.756   2.835  0.4652 -0.3253  0.9883
  943MOL0     H27282   4.119  12.917   2.774  1.0892  0.3987 -0.2120
  943MOL0     H27283   4.162  12.770   3.022  0.1464 -2.6723 -3.0825
  943MOL0     H27284   4.280  12.899   2.978  1.0121 -5.0115  0.2244
  943MOL0     H27285   4.203  12.158   2.436 -2.7346  3.8481 -1.1557
  943MOL0     H27286   4.043  11.951   2.386  0.1807 -1.8552 -1.3267
  943MOL0     H27287   3.720  11.781   1.917  0.5706  1.8469  2.2821
  943MOL0     H27288   3.549  11.605   1.919  1.0620 -1.7823 -2.1942
  943MOL0     H27289   2.519  10.694   1.947  1.2632 -2.5920 -1.2080
  943MOL0     H27290   2.650  10.494   1.923  5.0742  1.9823  0.3755
  943MOL0     H27291   2.871  10.151   2.202 -0.5669 -1.1870 -0.6561
  943MOL0     H27292   3.035   9.997   2.165  0.9030  3.0921  0.5781
  943MOL0     H27293   3.225   9.933   2.015  0.0170  0.1440  0.3551
  943MOL0     H27294   3.262   9.790   1.947 -0.3753  1.0275 -2.0339
  943MOL0     H27295   3.143   9.655   2.121  3.6467 -1.5681 -2.4916
  943MOL0     H27296   3.128   9.806   2.223 -1.5381  0.4825 -1.0297
  943MOL0     H27297   3.372   9.640   2.093  0.7450  1.3051 -0.5705
  943MOL0     H27298   3.326   9.626   2.255  0.1142  2.1089  1.3291
  943MOL0     H27299   3.399   9.855   2.310 -0.3456 -0.0113 -0.7767
  943MOL0     H27300   3.526   9.761   2.258  1.1143 -0.0349 -2.5630
  943MOL0     H27301   3.520  10.041   1.944 -1.8555 -1.7699 -2.1924
  943MOL0     H27302   2.877   9.891   1.784  1.3653 -2.1909  1.9350
  943MOL0     H27303   2.697  10.002   1.692  0.4516 -1.4122  0.5271
  943MOL0     H27304   2.562  10.023   1.809  0.9695 -1.7633 -0.6102
  943MOL0     H27305   2.655  10.158   1.759  0.3855  1.3610  3.8480
  944MOL0     O27306   9.943   5.809  10.129  0.2155 -0.1521  0.2509
  944MOL0     C27307   9.950   5.891  10.044  0.0512 -0.7450  0.3620
  944MOL0     O27308   9.894   6.021  10.040  0.0710 -0.2755  0.1053
  944MOL0     C27309   9.812   6.048  10.145 -0.3804 -0.7744 -0.2437
  944MOL0     C27310   9.675   6.006  10.149  0.1348  0.3383 -0.5026
  944MOL0     C27311   9.590   6.035  10.255 -0.7246  0.5124  0.5866
  944MOL0     C27312   9.633   6.116  10.355 -0.2447 -0.3305  0.4140
  944MOL0     O27313   9.560   6.152  10.461 -0.1645  0.1274  0.1885
  944MOL0     C27314   9.433   6.210  10.428 -0.6348  0.2593 -0.5325
  944MOL0     C27315   9.312   6.124  10.452 -0.7376  0.1969 -0.0087
  944MOL0     C27316   9.292   6.082  10.594  0.2639  0.3361  0.8494
  944MOL0     C27317   9.155   6.020  10.601  0.7313 -0.6237 -0.0104
  944MOL0     C27318   9.118   5.992  10.742  0.4986  0.7324 -0.4257
  944MOL0     C27319   8.973   5.941  10.764  0.0237 -0.4422 -0.2107
  944MOL0     C27320   8.937   5.909  10.909  0.6374 -0.4943  0.0059
  944MOL0     C27321   8.975   6.009  11.016 -0.4517 -0.4338 -0.2190
  944MOL0     N27322   8.920   5.973  11.146  0.7590  0.4818  0.4575
  944MOL0     C27323   8.970   5.883  11.237  0.6688 -0.1864 -0.2018
  944MOL0     C27324   8.879   5.888  11.344  0.9948  0.4043 -0.1873
  944MOL0     C27325   8.874   5.790  11.460 -0.5673 -0.4234 -1.0218
  944MOL0     C27326   8.805   5.658  11.420 -0.5193 -0.2289  0.3213
  944MOL0     C27327   8.658   5.666  11.399 -1.6372 -1.0690 -0.6562
  944MOL0     C27328   8.585   5.544  11.355  0.3649 -0.0054  0.3443
  944MOL0     O27329   8.503   5.547  11.235 -0.2335  0.3910  0.2282
  944MOL0     C27330   8.396   5.629  11.230  0.3458 -0.2241  0.7971
  944MOL0     C27331   8.361   5.683  11.108 -0.6935  0.1208 -0.3256
  944MOL0     C27332   8.250   5.766  11.092  0.3016  1.7190 -0.0988
  944MOL0     C27333   8.168   5.799  11.198 -0.1759 -0.4540 -0.5765
  944MOL0     C27334   8.057   5.891  11.187  0.2451  0.9422  0.4701
  944MOL0     O27335   7.983   5.921  11.294  0.6713 -0.5639  0.2101
  944MOL0     C27336   7.894   6.028  11.292 -0.0766 -0.3605 -0.2978
  944MOL0     C27337   7.784   6.020  11.383  0.8099  0.2622  0.6476
  944MOL0     C27338   7.681   6.114  11.391  1.1159 -0.5699 -0.6490
  944MOL0     C27339   7.691   6.235  11.316  0.3183  0.3052  0.4266
  944MOL0     O27340   7.579   6.311  11.316 -0.1363  0.0710  0.8419
  944MOL0     C27341   7.612   6.451  11.287  0.0304 -0.4078  0.3149
  944MOL0     C27342   7.499   6.525  11.334 -0.5671 -0.0160 -0.7699
  944MOL0     C27343   7.399   6.537  11.228  0.4399  0.7706  0.3873
  944MOL0     C27344   7.269   6.595  11.283  0.3773  0.1179  0.0725
  944MOL0     C27345   7.145   6.534  11.206 -1.0562  0.3797 -0.1688
  944MOL0     C27346   7.011   6.585  11.266  0.1004  0.8261 -0.4326
  944MOL0     C27347   6.987   6.736  11.264 -0.1342  0.1765  0.2247
  944MOL0     C27348   6.850   6.781  11.315 -0.4046 -0.1209 -0.0782
  944MOL0    Cl27349   6.728   6.776  11.187 -0.3590 -0.1150 -0.0927
  944MOL0     C27350   7.813   6.254  11.243 -1.1964  0.4401 -0.9144
  944MOL0     C27351   7.910   6.151  11.232  0.2203  0.0240 -0.0768
  944MOL0     O27352   8.038   5.942  11.072 -0.2282  0.3547 -0.9103
  944MOL0     C27353   8.197   5.744  11.326  0.8358 -0.2924  0.6218
  944MOL0     C27354   8.304   5.657  11.335 -0.3847  0.4230 -0.8628
  944MOL0     N27355   8.770   5.969  11.307  0.9310 -0.9343  1.2399
  944MOL0     N27356   8.803   6.029  11.189  0.0653  0.6040  0.2499
  944MOL0     C27357   9.762   6.164  10.352  0.4554 -0.0996 -0.0747
  944MOL0     C27358   9.850   6.128  10.246 -0.3832  0.0649 -0.3353
  944MOL0     C27359  10.034   5.856   9.924  0.4865  0.0723  0.2188
  944MOL0     C27360  10.108   5.961   9.860  0.0676 -0.4209  0.0824
  944MOL0     C27361  10.175   5.942   9.740  0.0691 -0.4298  0.0026
  944MOL0     C27362  10.163   5.819   9.682 -0.4219 -0.3970  0.2804
  944MOL0     O27363  10.218   5.784   9.561 -0.3403 -0.1149 -0.1371
  944MOL0     C27364  10.325   5.684   9.569 -0.1042  0.7625  0.5614
  944MOL0     C27365  10.416   5.697   9.453 -0.4791 -0.2261 -0.6711
  944MOL0     C27366  10.494   5.834   9.472 -0.9597  0.2677  0.6807
  944MOL0     C27367  10.636   5.822   9.406 -0.6747 -0.4566 -0.0812
  944MOL0     C27368  10.708   5.958   9.423  0.7149  0.3427  0.1987
  944MOL0     C27369  10.759   6.069   9.429 -0.1320  0.0414  0.2242
  944MOL0     C27370  10.088   5.712   9.740  0.2757 -0.1083  0.4327
  944MOL0     C27371  10.024   5.728   9.860 -0.9954  0.3181 -1.1858
  944MOL0     C27372   9.971   5.600   9.922  0.5239 -0.8614  0.2381
  944MOL0     H27373   9.639   5.948  10.064  1.1442  0.8762 -1.3161
  944MOL0     H27374   9.491   5.992  10.241 -1.3300  2.2393 -0.6891
  944MOL0     H27375   9.440   6.300  10.490 -1.1592  2.1194 -3.0354
  944MOL0     H27376   9.430   6.260  10.331  0.9071  1.3931 -0.0429
  944MOL0     H27377   9.330   6.036  10.389 -1.7547 -0.6826  0.8797
  944MOL0     H27378   9.220   6.173  10.422 -1.4034  1.2748  3.3541
  944MOL0     H27379   9.289   6.166  10.664 -1.4843  2.2274 -1.3294
  944MOL0     H27380   9.355   6.002  10.635 -0.1869 -0.2224  0.4746
  944MOL0     H27381   9.079   6.091  10.567  0.2185 -0.2708  1.7636
  944MOL0     H27382   9.170   5.932  10.538  3.2961  1.1090 -2.0317
  944MOL0     H27383   9.185   5.924  10.795  0.5470  0.5896 -0.6692
  944MOL0     H27384   9.127   6.090  10.791  0.4094  0.1470  0.7900
  944MOL0     H27385   8.900   6.012  10.726  1.3726  1.5868  0.7720
  944MOL0     H27386   8.958   5.854  10.699  0.0463  0.7138 -1.8260
  944MOL0     H27387   8.973   5.809  10.933 -2.3222 -2.2205 -2.0122
  944MOL0     H27388   8.829   5.895  10.906  0.2294  2.1260 -0.3696
  944MOL0     H27389   9.083   6.023  11.019 -0.1977 -2.1185  2.7643
  944MOL0     H27390   8.955   6.114  10.992  5.4277  0.9180 -0.6918
  944MOL0     H27391   9.054   5.817  11.219  0.9389  0.8281 -3.1162
  944MOL0     H27392   8.968   5.774  11.514 -1.0774  0.8562  0.3228
  944MOL0     H27393   8.810   5.843  11.531 -2.8488  0.7353 -3.7441
  944MOL0     H27394   8.849   5.618  11.328 -0.4519  2.8230 -1.1021
  944MOL0     H27395   8.833   5.596  11.506  1.4135  2.5001  1.7885
  944MOL0     H27396   8.651   5.748  11.327  0.8851  0.8168  1.0706
  944MOL0     H27397   8.610   5.714  11.484 -0.6511 -0.9876 -0.1263
  944MOL0     H27398   8.540   5.508  11.449  1.7403  1.0761  1.4637
  944MOL0     H27399   8.653   5.460  11.340 -0.6262 -1.2688  2.3909
  944MOL0     H27400   8.424   5.668  11.020 -0.3628  3.2790 -0.7525
  944MOL0     H27401   8.227   5.805  10.994  0.8530 -1.4760 -1.6347
  944MOL0     H27402   7.775   5.930  11.444 -1.0201 -0.5373 -0.7305
  944MOL0     H27403   7.595   6.080  11.448  1.7301 -1.0653 -0.0003
  944MOL0     H27404   7.709   6.487  11.322  0.7629  2.6573 -3.9844
  944MOL0     H27405   7.617   6.458  11.178  0.2370  0.1961  0.3558
  944MOL0     H27406   7.458   6.466  11.417 -0.4254  0.6938 -0.1844
  944MOL0     H27407   7.528   6.616  11.388 -1.5385 -1.3034  2.1922
  944MOL0     H27408   7.441   6.605  11.154 -0.9647  0.8753 -0.3468
  944MOL0     H27409   7.388   6.447  11.168 -1.3118  1.9473 -1.1701
  944MOL0     H27410   7.265   6.703  11.263  1.3021 -0.2128 -2.2278
  944MOL0     H27411   7.266   6.577  11.391  4.5398 -0.5154  0.2534
  944MOL0     H27412   7.149   6.425  11.216 -1.8646  0.4858  1.8519
  944MOL0     H27413   7.153   6.551  11.099 -5.0914  1.4068 -0.4793
  944MOL0     H27414   6.930   6.525  11.224 -0.7290 -0.1232  2.3374
  944MOL0     H27415   7.017   6.561  11.372 -1.1632  3.0956  0.2221
  944MOL0     H27416   6.999   6.790  11.170 -3.6497  2.5361  0.9452
  944MOL0     H27417   7.055   6.774  11.341 -1.2892  1.8985  0.4513
  944MOL0     H27418   6.822   6.709  11.392  2.3557 -1.2927 -0.0577
  944MOL0     H27419   6.850   6.884  11.354 -3.0711 -0.1143  0.0637
  944MOL0     H27420   7.821   6.352  11.196 -1.3128  0.5863 -0.6346
  944MOL0     H27421   7.988   6.176  11.161  1.8039 -1.5602  1.0018
  944MOL0     H27422   8.151   5.779  11.418  2.2303 -0.7024  1.4982
  944MOL0     H27423   8.306   5.610  11.433 -2.6532 -0.1900 -1.0544
  944MOL0     H27424   9.801   6.226  10.432 -0.9253 -1.9852  2.1688
  944MOL0     H27425   9.953   6.164  10.248 -0.1915 -0.4795  1.5774
  944MOL0     H27426  10.123   6.058   9.906 -1.1974 -1.9648  4.2425
  944MOL0     H27427  10.237   6.026   9.710  1.1498 -0.9838  0.6055
  944MOL0     H27428  10.282   5.584   9.569 -1.3478  1.2791  0.8039
  944MOL0     H27429  10.372   5.697   9.667 -2.3767 -3.6065  2.4948
  944MOL0     H27430  10.348   5.689   9.368  0.4872 -0.7144 -1.4228
  944MOL0     H27431  10.491   5.617   9.450  1.4433  1.4951 -1.6798
  944MOL0     H27432  10.504   5.863   9.577  0.4557  2.3622  0.0460
  944MOL0     H27433  10.442   5.919   9.427 -0.6955 -0.7796 -1.7576
  944MOL0     H27434  10.693   5.742   9.453 -2.7071 -2.2161 -0.4932
  944MOL0     H27435  10.637   5.811   9.297  0.8944  0.2410 -0.1715
  944MOL0     H27436  10.821   6.156   9.436  0.6366 -0.2149 -2.4756
  944MOL0     H27437  10.096   5.621   9.682  1.0226  1.1264 -1.4962
  944MOL0     H27438   9.866   5.618   9.944  1.7467  3.5875  3.9958
  944MOL0     H27439   9.991   5.510   9.862  2.6883 -0.9526  1.0085
  944MOL0     H27440  10.033   5.595  10.012 -1.5914  1.1629  1.9417
  945MOL0     O27441   7.628   1.404   9.331  0.7249 -0.0780 -0.1913
  945MOL0     C27442   7.651   1.349   9.441 -0.2416 -0.2262 -0.6202
  945MOL0     O27443   7.751   1.249   9.454 -0.1012 -0.8800 -0.1295
  945MOL0     C27444   7.870   1.258   9.376  1.0710  0.7087  0.0779
  945MOL0     C27445   7.947   1.373   9.352 -0.1867  0.1483  1.5540
  945MOL0     C27446   8.076   1.380   9.291  0.0307  0.9453  0.3038
  945MOL0     C27447   8.132   1.254   9.253 -0.1807  0.4267  0.1296
  945MOL0     O27448   8.253   1.230   9.199 -1.0061 -0.3414  0.3381
  945MOL0     C27449   8.363   1.327   9.201 -0.4633  0.3384 -0.3562
  945MOL0     C27450   8.486   1.281   9.289  0.7190  0.1700 -0.3840
  945MOL0     C27451   8.510   1.129   9.318 -0.4657  0.1174  0.7368
  945MOL0     C27452   8.597   1.102   9.436 -1.1370  0.3759  1.3575
  945MOL0     C27453   8.612   0.942   9.467  0.3856 -0.1232 -0.6924
  945MOL0     C27454   8.695   0.874   9.357 -0.2424  0.6723  0.1516
  945MOL0     C27455   8.717   0.728   9.385  0.4201 -0.0125  0.6476
  945MOL0     C27456   8.596   0.639   9.376 -1.1668  0.6239 -0.3900
  945MOL0     N27457   8.615   0.491   9.345  0.2189  0.3466  1.1034
  945MOL0     C27458   8.520   0.394   9.352 -0.5701 -0.7859  0.6017
  945MOL0     C27459   8.577   0.274   9.306  0.0067 -0.5751  0.0603
  945MOL0     C27460   8.508   0.141   9.307  0.1967  0.5318  0.2479
  945MOL0     C27461   8.501   0.063   9.435 -0.0161  0.2844  0.3201
  945MOL0     C27462   8.635   0.048   9.512 -0.0623  0.1129 -0.0747
  945MOL0     C27463   8.622  -0.004   9.652  0.3761  0.0638  0.3978
  945MOL0     O27464   8.658  -0.139   9.632  0.1400  0.6195  0.7713
  945MOL0     C27465   8.598  -0.217   9.721  0.9954  0.4890 -0.4421
  945MOL0     C27466   8.655  -0.235   9.851  0.4168 -0.1036  0.9670
  945MOL0     C27467   8.590  -0.319   9.944 -0.0798  0.9553  0.3412
  945MOL0     C27468   8.471  -0.389   9.923  0.2614 -0.2698  0.1703
  945MOL0     C27469   8.429  -0.485  10.019  0.1524 -1.3668  0.2120
  945MOL0     O27470   8.339  -0.568   9.971  0.7953  0.0675 -0.0300
  945MOL0     C27471   8.288  -0.673  10.047  0.1453  0.3546 -0.2359
  945MOL0     C27472   8.243  -0.778   9.971  0.2220  0.4435 -0.3875
  945MOL0     C27473   8.195  -0.889  10.034  0.5834 -0.4374 -0.7715
  945MOL0     C27474   8.172  -0.890  10.176 -1.0392 -1.0717  0.0224
  945MOL0     O27475   8.103  -0.990  10.243  0.2753 -0.4729 -0.3739
  945MOL0     C27476   8.020  -1.087  10.190  0.0940  0.9233  0.7827
  945MOL0     C27477   7.894  -1.033  10.123 -1.1918 -0.1376  0.1938
  945MOL0     C27478   7.804  -0.979  10.224  1.3533 -0.0457 -0.7473
  945MOL0     C27479   7.658  -0.942  10.175  0.6158 -0.0055 -0.6181
  945MOL0     C27480   7.594  -0.842  10.272 -0.6307  0.3655 -0.3159
  945MOL0     C27481   7.624  -0.693  10.227 -0.3603  0.7851  0.3219
  945MOL0     C27482   7.547  -0.603  10.316  0.4965  0.4993  0.5299
  945MOL0     C27483   7.584  -0.460  10.294  0.0309 -1.0281 -0.4715
  945MOL0    Cl27484   7.512  -0.368  10.433  0.1822  0.1338 -0.2276
  945MOL0     C27485   8.223  -0.785  10.251  0.1593  0.6067  0.2448
  945MOL0     C27486   8.282  -0.675  10.191 -1.0322 -0.8130  0.1850
  945MOL0     O27487   8.480  -0.485  10.128 -0.1236  0.1120 -0.0218
  945MOL0     C27488   8.413  -0.366   9.792  0.0366  0.0417 -0.1101
  945MOL0     C27489   8.464  -0.275   9.696 -0.1238 -0.6756 -0.0089
  945MOL0     N27490   8.709   0.308   9.282 -0.4336 -0.1749 -0.4593
  945MOL0     N27491   8.729   0.437   9.302 -1.2672  0.0275 -0.3386
  945MOL0     C27492   8.064   1.138   9.288 -0.0524  0.6821  0.1981
  945MOL0     C27493   7.934   1.143   9.337  0.3267  1.4431  1.2218
  945MOL0     C27494   7.549   1.361   9.544 -0.0958 -0.0279 -0.0573
  945MOL0     C27495   7.421   1.328   9.509  0.3598  0.5647  0.0159
  945MOL0     C27496   7.317   1.322   9.610 -1.1217 -0.6389  0.5533
  945MOL0     C27497   7.348   1.364   9.742 -0.6649 -0.9035  0.2370
  945MOL0     O27498   7.243   1.360   9.840  0.5716  0.6108  0.0342
  945MOL0     C27499   7.246   1.233   9.910  0.6451  0.2479  0.2699
  945MOL0     C27500   7.180   1.248  10.049 -0.1515  0.1623 -0.2737
  945MOL0     C27501   7.227   1.369  10.134  0.4735 -0.1678 -0.2906
  945MOL0     C27502   7.340   1.329  10.235  0.7562  0.0457  0.1254
  945MOL0     C27503   7.278   1.257  10.344 -0.4922  0.6638  0.0827
  945MOL0     C27504   7.218   1.218  10.442 -0.5966 -0.1275 -0.8621
  945MOL0     C27505   7.480   1.393   9.777 -0.3696 -1.1001  0.2733
  945MOL0     C27506   7.581   1.394   9.679  0.0538  0.2173 -0.4498
  945MOL0     C27507   7.717   1.429   9.717 -0.4712 -0.3533 -0.0214
  945MOL0     H27508   7.900   1.468   9.376 -0.3289  1.6095 -3.3756
  945MOL0     H27509   8.125   1.474   9.270  1.5440  0.2688  0.7148
  945MOL0     H27510   8.398   1.338   9.098  1.0908 -1.0225 -0.0059
  945MOL0     H27511   8.324   1.426   9.228 -0.2660 -0.2200  2.2513
  945MOL0     H27512   8.470   1.335   9.383 -0.3093  0.3317 -0.6426
  945MOL0     H27513   8.580   1.325   9.253  0.6869  3.3120  2.7564
  945MOL0     H27514   8.561   1.100   9.225  2.1794 -2.1525  2.7396
  945MOL0     H27515   8.419   1.073   9.338 -2.0759  2.0545 -0.7188
  945MOL0     H27516   8.693   1.155   9.434 -0.7375 -0.3123  1.6961
  945MOL0     H27517   8.548   1.157   9.517  0.9407 -0.0949  3.0451
  945MOL0     H27518   8.652   0.916   9.565 -0.3747 -2.1813 -0.8822
  945MOL0     H27519   8.512   0.903   9.487  0.8933  0.6152  4.6737
  945MOL0     H27520   8.650   0.890   9.259  0.7806  1.1714 -0.2422
  945MOL0     H27521   8.794   0.918   9.345 -0.1553 -0.3097 -4.5937
  945MOL0     H27522   8.770   0.729   9.481 -0.7428 -0.6153  1.3329
  945MOL0     H27523   8.777   0.689   9.304 -0.0542  0.2802  0.1471
  945MOL0     H27524   8.538   0.664   9.465 -0.1643  0.9917  0.1834
  945MOL0     H27525   8.539   0.677   9.291 -1.7168  0.7335  0.0185
  945MOL0     H27526   8.421   0.395   9.395  0.3438 -1.4687  2.9113
  945MOL0     H27527   8.404   0.174   9.296 -0.2574 -0.1370  2.1867
  945MOL0     H27528   8.536   0.073   9.226 -3.6100 -0.9551 -0.0072
  945MOL0     H27529   8.435   0.119   9.502 -0.7745 -0.5758  0.3021
  945MOL0     H27530   8.441  -0.026   9.416  0.7961 -0.9475  2.9865
  945MOL0     H27531   8.675   0.150   9.516  1.5589 -0.3896 -2.0162
  945MOL0     H27532   8.700  -0.018   9.455 -3.1530 -2.5609 -0.7616
  945MOL0     H27533   8.524   0.005   9.698 -0.7770  4.0297 -2.3202
  945MOL0     H27534   8.699   0.037   9.718  0.1619 -0.3700  0.9338
  945MOL0     H27535   8.754  -0.198   9.871  1.0770 -2.5478  2.7420
  945MOL0     H27536   8.632  -0.331  10.043 -0.2186 -0.2510  0.2626
  945MOL0     H27537   8.242  -0.772   9.863 -0.5180  1.0425 -0.3507
  945MOL0     H27538   8.164  -0.973   9.972  2.3041 -0.8168 -1.1583
  945MOL0     H27539   8.075  -1.147  10.117  0.4113  1.3172  0.6986
  945MOL0     H27540   7.992  -1.153  10.273 -1.8562  1.7095  0.8210
  945MOL0     H27541   7.923  -0.962  10.045  2.2676 -0.7194  0.7828
  945MOL0     H27542   7.851  -1.116  10.067 -1.2561 -3.2997  4.4194
  945MOL0     H27543   7.789  -1.039  10.314  1.4415  3.3591  1.7611
  945MOL0     H27544   7.845  -0.888  10.268 -2.4080  1.9026 -0.8359
  945MOL0     H27545   7.610  -1.040  10.179 -1.7081  1.1086  1.2771
  945MOL0     H27546   7.662  -0.893  10.077 -1.5510  0.0253 -0.7438
  945MOL0     H27547   7.614  -0.876  10.374 -0.1793  0.0549 -0.5034
  945MOL0     H27548   7.486  -0.854  10.260 -0.7113 -0.3791  0.9622
  945MOL0     H27549   7.731  -0.678  10.212 -0.1810 -0.1346  0.6150
  945MOL0     H27550   7.581  -0.683  10.127 -3.0612  2.5304  1.5488
  945MOL0     H27551   7.574  -0.632  10.418  2.5306 -0.8226 -0.3399
  945MOL0     H27552   7.439  -0.614  10.303  0.4267 -1.1435  2.1193
  945MOL0     H27553   7.691  -0.442  10.291 -0.0248 -0.7334 -0.7239
  945MOL0     H27554   7.557  -0.425  10.194  1.8820 -3.1793 -1.8209
  945MOL0     H27555   8.206  -0.801  10.357 -1.1713  1.6992  0.2252
  945MOL0     H27556   8.318  -0.599  10.259  0.0186 -2.1410  1.1753
  945MOL0     H27557   8.326  -0.424   9.761  2.6502 -2.4628 -3.5146
  945MOL0     H27558   8.420  -0.247   9.601  2.1903  2.6178 -0.3129
  945MOL0     H27559   8.104   1.040   9.262 -2.8642 -0.6190  0.3724
  945MOL0     H27560   7.867   1.058   9.343  1.3930  0.6752  2.9339
  945MOL0     H27561   7.399   1.295   9.408  0.6708  0.1403  0.0851
  945MOL0     H27562   7.214   1.286   9.611 -0.6363 -2.4122  4.3146
  945MOL0     H27563   7.349   1.202   9.932  0.8225 -1.0872 -2.1132
  945MOL0     H27564   7.195   1.150   9.861 -3.4746  0.5040  3.6037
  945MOL0     H27565   7.191   1.158  10.111 -0.7030 -0.7179 -1.3933
  945MOL0     H27566   7.074   1.249  10.021  0.2693  1.6231 -1.9669
  945MOL0     H27567   7.147   1.395  10.204 -0.1785 -3.1004  0.2071
  945MOL0     H27568   7.256   1.458  10.078 -1.0685  0.6842  0.2018
  945MOL0     H27569   7.415   1.268  10.183  0.8970 -0.5074  0.9611
  945MOL0     H27570   7.385   1.422  10.269 -0.2820  0.5538  0.1424
  945MOL0     H27571   7.187   1.195  10.542 -0.3224 -1.1483 -0.9955
  945MOL0     H27572   7.492   1.404   9.885 -0.1690 -0.4641  0.1882
  945MOL0     H27573   7.759   1.343   9.769 -0.4266  0.1926  0.8665
  945MOL0     H27574   7.768   1.469   9.629  0.9976  2.6745  2.0120
  945MOL0     H27575   7.705   1.510   9.790 -2.3197 -1.4143  0.9244
  946MOL0     O27576   7.145   4.783   2.189  0.8496  0.6636  0.3109
  946MOL0     C27577   7.064   4.868   2.145  0.2172 -0.5029 -1.2042
  946MOL0     O27578   7.088   5.001   2.151  0.3713  0.4591  1.2184
  946MOL0     C27579   7.215   5.036   2.188  0.4109  0.4927 -1.0154
  946MOL0     C27580   7.292   5.089   2.089 -1.2141 -0.5738 -0.5920
  946MOL0     C27581   7.420   5.129   2.109  0.1163 -0.0733 -0.1216
  946MOL0     C27582   7.475   5.134   2.236  0.1795  0.0875 -0.7174
  946MOL0     O27583   7.611   5.172   2.266  0.1861  0.0406  0.1578
  946MOL0     C27584   7.669   5.255   2.161 -0.1329 -0.7353 -1.2084
  946MOL0     C27585   7.811   5.302   2.206 -0.1299 -1.3780 -0.1290
  946MOL0     C27586   7.899   5.182   2.243 -0.1377 -0.6169  0.4783
  946MOL0     C27587   8.037   5.235   2.301  1.1878  0.0101 -0.1471
  946MOL0     C27588   8.115   5.107   2.365  0.7873  0.3236 -0.3551
  946MOL0     C27589   8.240   5.148   2.440 -0.5147  0.6125 -0.0891
  946MOL0     C27590   8.218   5.165   2.595  0.0741 -1.0738 -0.0680
  946MOL0     C27591   8.258   5.314   2.634  0.4548  0.3409 -0.7234
  946MOL0     N27592   8.205   5.345   2.766  0.1244  0.7473  0.1793
  946MOL0     C27593   8.112   5.435   2.798  0.0918  0.3729 -0.4846
  946MOL0     C27594   8.076   5.413   2.929 -0.1578 -1.0073  0.0905
  946MOL0     C27595   7.984   5.505   3.000  1.4507  0.1351  0.0199
  946MOL0     C27596   8.024   5.509   3.148 -0.0003 -0.1122  0.5804
  946MOL0     C27597   7.952   5.626   3.219 -0.3101 -0.8284 -0.2974
  946MOL0     C27598   7.846   5.582   3.314  0.0306  0.7860 -0.1242
  946MOL0     O27599   7.901   5.495   3.409  0.1578 -0.2511 -0.3867
  946MOL0     C27600   7.815   5.406   3.465 -0.9194 -0.1045  0.2315
  946MOL0     C27601   7.672   5.399   3.454 -0.2549 -0.0271 -0.4049
  946MOL0     C27602   7.614   5.281   3.508 -0.0583 -0.7325 -0.1723
  946MOL0     C27603   7.680   5.186   3.575 -0.3058 -0.4202  0.7395
  946MOL0     C27604   7.602   5.075   3.639  0.5596 -0.2189  0.2302
  946MOL0     O27605   7.466   5.094   3.636 -0.0909  0.0676  0.2065
  946MOL0     C27606   7.400   5.003   3.708  0.6849 -0.0070 -0.5719
  946MOL0     C27607   7.388   4.873   3.661  0.1135  0.1137  0.0847
  946MOL0     C27608   7.305   4.778   3.723 -0.6606  0.0846  0.6520
  946MOL0     C27609   7.253   4.801   3.844  0.7647 -0.3555 -0.0138
  946MOL0     O27610   7.196   4.696   3.916 -0.1356 -0.1405 -0.6549
  946MOL0     C27611   7.206   4.698   4.060  0.5381  0.1386 -0.5517
  946MOL0     C27612   7.141   4.560   4.097 -0.2037  0.1380 -0.3363
  946MOL0     C27613   7.243   4.456   4.055  0.2229 -0.5363 -0.3192
  946MOL0     C27614   7.191   4.320   4.111  0.4991  0.0342 -0.0666
  946MOL0     C27615   7.301   4.214   4.131  0.8224  0.5426  0.0461
  946MOL0     C27616   7.384   4.183   4.001 -0.0270  0.5801 -0.2329
  946MOL0     C27617   7.490   4.072   4.031  0.3124 -0.2021  0.5534
  946MOL0     C27618   7.536   4.004   3.896 -1.0646 -0.8862 -0.2736
  946MOL0    Cl27619   7.599   4.138   3.784  0.2365 -0.5498  0.4882
  946MOL0     C27620   7.269   4.931   3.901  0.0479  0.2670  0.9522
  946MOL0     C27621   7.339   5.029   3.835  0.7935 -0.0483 -0.7942
  946MOL0     O27622   7.657   4.975   3.684 -0.0542  0.0640  0.1184
  946MOL0     C27623   7.820   5.195   3.589 -0.7087  0.4622 -0.4137
  946MOL0     C27624   7.886   5.308   3.531 -1.0513  0.1547  0.0238
  946MOL0     N27625   8.146   5.307   2.977  0.3245  0.7087  0.8249
  946MOL0     N27626   8.229   5.272   2.881 -0.4322 -0.1767  0.2614
  946MOL0     C27627   7.396   5.086   2.341  0.7696 -0.6354  0.3078
  946MOL0     C27628   7.271   5.035   2.315  0.4132 -0.5819 -0.7819
  946MOL0     C27629   6.936   4.825   2.080 -1.2823  0.8370  0.5152
  946MOL0     C27630   6.947   4.688   2.029  0.6477 -0.7652  0.2771
  946MOL0     C27631   6.831   4.635   1.966  0.5221 -0.7360 -0.6911
  946MOL0     C27632   6.708   4.711   1.960 -0.1200  0.9107  0.6236
  946MOL0     O27633   6.590   4.671   1.898 -0.1290 -0.0339  0.6235
  946MOL0     C27634   6.611   4.568   1.803  0.2013 -0.1747 -0.0770
  946MOL0     C27635   6.483   4.540   1.726  0.2041  0.0036 -0.0917
  946MOL0     C27636   6.469   4.650   1.619  0.3814  0.0808 -0.6918
  946MOL0     C27637   6.330   4.632   1.556 -0.3556 -0.7716 -0.0198
  946MOL0     C27638   6.318   4.702   1.427  0.3497 -0.2492 -0.3980
  946MOL0     C27639   6.334   4.764   1.318  0.2834 -0.1052  0.0630
  946MOL0     C27640   6.710   4.843   1.990  1.3769  1.0264  0.7614
  946MOL0     C27641   6.821   4.899   2.062  0.9231  0.2140  0.9008
  946MOL0     C27642   6.800   5.054   2.096  0.1263 -0.3735  0.5422
  946MOL0     H27643   7.257   5.114   1.990  2.1255 -0.1867 -1.8064
  946MOL0     H27644   7.471   5.166   2.021 -2.0092 -0.9223 -1.8101
  946MOL0     H27645   7.682   5.208   2.063 -0.9219  1.9347 -2.6832
  946MOL0     H27646   7.614   5.349   2.151 -2.5190 -2.0517 -1.1965
  946MOL0     H27647   7.803   5.373   2.289  1.4136  0.0903 -1.1480
  946MOL0     H27648   7.857   5.353   2.120  0.9250  2.7265  2.6026
  946MOL0     H27649   7.918   5.129   2.149  2.0733  0.9496 -0.0291
  946MOL0     H27650   7.843   5.124   2.317 -1.2269 -1.3988 -0.9004
  946MOL0     H27651   8.088   5.273   2.212 -3.6169  3.5758 -1.7603
  946MOL0     H27652   8.030   5.312   2.378  0.0869 -0.2832  0.0686
  946MOL0     H27653   8.037   5.050   2.416 -1.9802  0.1354 -4.3183
  946MOL0     H27654   8.150   5.038   2.288  0.3468  0.5274 -0.7410
  946MOL0     H27655   8.315   5.070   2.423  0.7958  1.1360  2.7438
  946MOL0     H27656   8.287   5.239   2.402 -0.9011  1.2318  0.8630
  946MOL0     H27657   8.296   5.102   2.639  3.0575  3.1325  1.3482
  946MOL0     H27658   8.116   5.135   2.621 -0.8916  1.8569 -0.0798
  946MOL0     H27659   8.366   5.325   2.641  0.3522  0.4122  2.2126
  946MOL0     H27660   8.218   5.393   2.570  0.2808 -0.9482 -2.2454
  946MOL0     H27661   8.091   5.519   2.732  1.2267 -0.5962 -2.1655
  946MOL0     H27662   7.987   5.605   2.956  2.8400 -1.6189 -4.3015
  946MOL0     H27663   7.881   5.468   2.998  0.5461  2.1736  2.6840
  946MOL0     H27664   8.003   5.416   3.201  0.1107  0.4060  1.5633
  946MOL0     H27665   8.132   5.527   3.155  0.4057 -2.7658  2.8230
  946MOL0     H27666   7.910   5.704   3.155  0.4454  0.2484  0.4824
  946MOL0     H27667   8.026   5.674   3.284  0.7760  0.1357 -2.1738
  946MOL0     H27668   7.753   5.546   3.268 -1.9702  1.9782  2.7443
  946MOL0     H27669   7.806   5.675   3.354  3.1879  2.5661 -0.8162
  946MOL0     H27670   7.606   5.467   3.403 -1.0809  0.2882  1.0229
  946MOL0     H27671   7.511   5.268   3.478  0.2787 -1.5063 -1.0237
  946MOL0     H27672   7.435   4.845   3.567 -1.8560 -0.1998 -0.8650
  946MOL0     H27673   7.284   4.682   3.676 -0.1008 -0.9533  2.4455
  946MOL0     H27674   7.303   4.704   4.109  0.7713  0.2225 -1.0100
  946MOL0     H27675   7.140   4.774   4.102  0.7964  0.9565 -1.5851
  946MOL0     H27676   7.133   4.563   4.206  0.3837  0.7613 -0.3063
  946MOL0     H27677   7.047   4.542   4.043  0.6292 -1.0219 -1.4742
  946MOL0     H27678   7.254   4.458   3.947 -2.6924 -2.5675 -0.7845
  946MOL0     H27679   7.339   4.491   4.094  0.4215 -0.4060 -0.9270
  946MOL0     H27680   7.125   4.281   4.034  0.9530 -0.3617 -0.2551
  946MOL0     H27681   7.123   4.328   4.197  1.5190 -3.8335  1.3093
  946MOL0     H27682   7.267   4.129   4.191 -0.0711  1.2082  0.5186
  946MOL0     H27683   7.376   4.270   4.188  0.2847  2.5253 -1.0956
  946MOL0     H27684   7.311   4.155   3.924  0.2913  0.6669 -0.5622
  946MOL0     H27685   7.432   4.274   3.966  2.0393  0.7275  2.6290
  946MOL0     H27686   7.454   3.998   4.103  3.2850 -2.0930  0.2674
  946MOL0     H27687   7.582   4.113   4.074  1.5811 -2.1000 -0.2345
  946MOL0     H27688   7.620   3.938   3.916  0.7269  1.0592 -1.0394
  946MOL0     H27689   7.465   3.939   3.844 -1.3206 -0.6330 -0.2493
  946MOL0     H27690   7.238   4.963   4.000  0.9288  2.6180  0.5577
  946MOL0     H27691   7.361   5.124   3.883  2.9884 -0.5681 -0.6563
  946MOL0     H27692   7.876   5.132   3.658  1.3095  1.4023 -1.1006
  946MOL0     H27693   7.991   5.331   3.548 -0.9129 -0.6693  0.3311
  946MOL0     H27694   7.439   5.079   2.441 -0.7370 -2.1968  0.8853
  946MOL0     H27695   7.214   4.996   2.399  2.5115  2.1378  2.1783
  946MOL0     H27696   7.045   4.640   2.022 -0.1033 -2.0617 -2.6783
  946MOL0     H27697   6.834   4.535   1.923 -2.1975 -0.5212 -1.5875
  946MOL0     H27698   6.639   4.479   1.861 -3.5585 -0.9798  0.7683
  946MOL0     H27699   6.691   4.613   1.745 -1.8131  5.2799  0.7068
  946MOL0     H27700   6.398   4.541   1.794  1.2018  1.4558  1.1816
  946MOL0     H27701   6.483   4.441   1.679 -2.3975 -1.6085  2.9463
  946MOL0     H27702   6.550   4.647   1.545  1.3825  0.2244  0.3746
  946MOL0     H27703   6.480   4.744   1.673  0.3553 -0.8011  0.9178
  946MOL0     H27704   6.305   4.529   1.531  0.3500 -0.3481 -2.8097
  946MOL0     H27705   6.264   4.680   1.629  0.0122  0.5722 -0.5313
  946MOL0     H27706   6.360   4.814   1.228 -0.0745 -0.2205 -0.1066
  946MOL0     H27707   6.613   4.889   1.973  0.5163 -0.3829  1.6516
  946MOL0     H27708   6.841   5.087   2.192 -0.2763  3.7567 -0.5090
  946MOL0     H27709   6.854   5.112   2.021 -0.4678 -2.0960 -1.3032
  946MOL0     H27710   6.698   5.091   2.087  1.1714  2.4368 -1.0597
  947MOL0     O27711   3.801   7.433   9.771 -0.2562 -0.1603 -0.7450
  947MOL0     C27712   3.683   7.411   9.748  0.4316  0.2494  0.1691
  947MOL0     O27713   3.640   7.313   9.663  0.2034 -0.7799  0.6700
  947MOL0     C27714   3.720   7.219   9.612  0.1267  0.1579  0.1586
  947MOL0     C27715   3.804   7.147   9.699 -0.0383 -0.4061 -0.5855
  947MOL0     C27716   3.885   7.038   9.656  0.6001 -0.8971 -0.8142
  947MOL0     C27717   3.856   6.990   9.527  0.4289  0.4769  0.6655
  947MOL0     O27718   3.931   6.887   9.482  0.6153 -0.7554 -0.2166
  947MOL0     C27719   3.913   6.769   9.552 -0.1759  0.6828 -0.6496
  947MOL0     C27720   3.884   6.652   9.451 -0.7331 -1.3233  0.0894
  947MOL0     C27721   3.931   6.509   9.502  0.3110 -1.0148 -0.5983
  947MOL0     C27722   3.893   6.413   9.384 -0.8114  0.4491 -0.2236
  947MOL0     C27723   3.919   6.260   9.428 -0.2114 -0.4453 -0.4681
  947MOL0     C27724   4.060   6.206   9.442 -0.2893  0.4397  0.1676
  947MOL0     C27725   4.161   6.241   9.323 -0.0558 -0.5438 -0.1959
  947MOL0     C27726   4.295   6.214   9.388 -0.5042 -0.3892  0.5614
  947MOL0     N27727   4.340   6.310   9.486 -0.4551  0.6134  0.3423
  947MOL0     C27728   4.368   6.450   9.479  0.4868 -0.0082  0.7186
  947MOL0     C27729   4.412   6.488   9.598  0.3133  0.0814 -0.5234
  947MOL0     C27730   4.446   6.621   9.653 -0.6733 -0.8573  0.3980
  947MOL0     C27731   4.335   6.722   9.674 -0.2562 -0.5179  0.0310
  947MOL0     C27732   4.235   6.679   9.786 -0.5633  1.3474  0.4789
  947MOL0     C27733   4.292   6.592   9.899  0.6449  0.2928 -0.2005
  947MOL0     O27734   4.189   6.552   9.993 -0.2959 -0.2854 -0.8644
  947MOL0     C27735   4.123   6.431   9.963 -0.3982  0.0528 -0.2339
  947MOL0     C27736   4.119   6.357   9.836 -1.0343 -0.0712 -0.4585
  947MOL0     C27737   4.052   6.236   9.833  0.4116 -0.4524 -0.5503
  947MOL0     C27738   3.993   6.180   9.941 -1.1469  0.1487  0.9757
  947MOL0     C27739   3.943   6.038   9.936 -0.8625 -0.5319 -0.2273
  947MOL0     O27740   3.945   5.982   9.802 -0.7343 -0.4256  0.7737
  947MOL0     C27741   3.883   5.865   9.774 -0.9818 -0.1575  0.8325
  947MOL0     C27742   3.939   5.749   9.823 -0.2248 -0.1361  0.5468
  947MOL0     C27743   3.890   5.626   9.774 -0.4561 -0.6782 -0.0221
  947MOL0     C27744   3.777   5.625   9.694 -1.2459  0.7518  1.1571
  947MOL0     O27745   3.724   5.500   9.674  0.0318 -0.8183 -1.1114
  947MOL0     C27746   3.600   5.483   9.593 -0.1107  0.7747  0.1210
  947MOL0     C27747   3.581   5.333   9.596 -0.5297 -0.6351 -0.0152
  947MOL0     C27748   3.465   5.284   9.527  0.7032  0.1925  0.4585
  947MOL0     C27749   3.465   5.125   9.533 -0.2835 -0.7589  0.1932
  947MOL0     C27750   3.352   5.070   9.453  0.2826  1.2110  0.4908
  947MOL0     C27751   3.339   4.919   9.496 -0.3231 -0.1313 -0.5649
  947MOL0     C27752   3.202   4.864   9.486 -0.2760 -0.1441 -0.5598
  947MOL0     C27753   3.206   4.710   9.497  0.0029 -0.3047 -0.0592
  947MOL0    Cl27754   3.057   4.627   9.508  0.1996 -0.2290  0.2026
  947MOL0     C27755   3.720   5.743   9.642 -0.4840 -0.1337  0.0578
  947MOL0     C27756   3.779   5.868   9.679  0.7854  0.2884  0.5082
  947MOL0     O27757   3.918   5.976  10.042 -0.3180 -0.3891 -0.2700
  947MOL0     C27758   3.989   6.262  10.058  0.1544  0.2919  0.0174
  947MOL0     C27759   4.051   6.383  10.070  0.3873  0.3945  0.5533
  947MOL0     N27760   4.422   6.371   9.678 -0.2005  0.8126 -0.6220
  947MOL0     N27761   4.391   6.263   9.604 -0.0301 -0.6288 -0.6522
  947MOL0     C27762   3.773   7.066   9.439 -0.5390  0.1389  0.7812
  947MOL0     C27763   3.702   7.175   9.483 -0.6108 -0.0305 -0.1430
  947MOL0     C27764   3.585   7.496   9.825 -0.0644 -0.2539  0.2107
  947MOL0     C27765   3.462   7.449   9.877 -0.1343  0.2838  0.6256
  947MOL0     C27766   3.373   7.521   9.960 -0.3185 -0.1788  0.0704
  947MOL0     C27767   3.408   7.657   9.983  0.1964  0.2155 -1.1128
  947MOL0     O27768   3.316   7.714  10.070 -0.4030 -1.0627 -0.2836
  947MOL0     C27769   3.362   7.808  10.171  0.2649 -0.1342  0.1997
  947MOL0     C27770   3.346   7.949  10.126 -0.0570 -1.0223 -0.5434
  947MOL0     C27771   3.205   7.983  10.084  0.3607 -0.6767  0.5359
  947MOL0     C27772   3.209   8.129  10.040 -0.2924 -0.4776 -0.7117
  947MOL0     C27773   3.172   8.210  10.149 -0.2010  0.3228 -0.4386
  947MOL0     C27774   3.168   8.264  10.260  0.2381 -0.2999  0.2729
  947MOL0     C27775   3.522   7.708   9.923 -0.5595 -0.0441 -0.0540
  947MOL0     C27776   3.611   7.627   9.845  0.3955 -0.3319 -0.0592
  947MOL0     C27777   3.727   7.715   9.794 -0.4397  0.3918 -0.7653
  947MOL0     H27778   3.812   7.189   9.799 -0.7343 -0.5462 -0.4698
  947MOL0     H27779   3.949   6.968   9.710  0.5543 -2.5335 -2.7621
  947MOL0     H27780   4.007   6.749   9.604 -1.0094  1.9533  1.4334
  947MOL0     H27781   3.831   6.782   9.623 -1.6506 -0.4413 -2.0663
  947MOL0     H27782   3.935   6.678   9.358  0.6494  0.2444  1.2242
  947MOL0     H27783   3.777   6.658   9.431 -0.8904  0.1631  1.1617
  947MOL0     H27784   3.880   6.489   9.597  1.4990  1.7970  0.7692
  947MOL0     H27785   4.039   6.506   9.519  0.0757  0.5188  1.6110
  947MOL0     H27786   3.784   6.416   9.369 -0.6563 -1.9362 -2.6480
  947MOL0     H27787   3.945   6.437   9.291  0.6377 -4.4441 -0.9331
  947MOL0     H27788   3.863   6.244   9.520 -0.6713  2.9843 -0.0117
  947MOL0     H27789   3.879   6.188   9.355  3.0290 -0.8063 -2.0804
  947MOL0     H27790   4.088   6.240   9.542  2.3356  1.9832 -0.9722
  947MOL0     H27791   4.057   6.096   9.439 -0.7361  0.4488 -2.7649
  947MOL0     H27792   4.153   6.347   9.300  3.0426  0.0265  0.9238
  947MOL0     H27793   4.146   6.190   9.228  1.9168 -1.2084 -0.1979
  947MOL0     H27794   4.301   6.123   9.449  1.8436 -1.6589 -1.4094
  947MOL0     H27795   4.380   6.207   9.320 -0.4623 -0.8587  0.6595
  947MOL0     H27796   4.361   6.518   9.394 -0.2710  1.3282  1.8005
  947MOL0     H27797   4.505   6.608   9.745 -1.8891  0.2627  1.3773
  947MOL0     H27798   4.518   6.679   9.595 -1.9959  1.4088  0.9216
  947MOL0     H27799   4.364   6.822   9.708  1.6052 -0.9475 -0.1953
  947MOL0     H27800   4.281   6.725   9.579  1.7882  0.2127 -1.1849
  947MOL0     H27801   4.146   6.630   9.746 -1.0573  0.1500  2.8676
  947MOL0     H27802   4.192   6.773   9.823  0.0539  1.7800  0.1008
  947MOL0     H27803   4.372   6.638   9.959  2.3545 -2.5765 -0.0433
  947MOL0     H27804   4.337   6.499   9.863  0.9416 -0.6615  2.4082
  947MOL0     H27805   4.170   6.393   9.748  0.9793 -0.2517  0.5729
  947MOL0     H27806   4.056   6.187   9.736  0.9502 -3.9014  1.0446
  947MOL0     H27807   4.018   5.757   9.897 -0.0648 -2.2960  0.6796
  947MOL0     H27808   3.929   5.529   9.802 -0.7911 -0.8125 -0.0196
  947MOL0     H27809   3.514   5.540   9.631  0.1411  1.7317 -0.6939
  947MOL0     H27810   3.598   5.516   9.489 -2.2317  0.3534 -0.0262
  947MOL0     H27811   3.667   5.289   9.545 -1.0630  0.6499 -2.1764
  947MOL0     H27812   3.578   5.305   9.701  1.2973 -2.4528 -0.3950
  947MOL0     H27813   3.375   5.307   9.585  3.1583  0.5289  4.5449
  947MOL0     H27814   3.459   5.331   9.428 -4.5489 -0.5847  0.0802
  947MOL0     H27815   3.450   5.098   9.638  1.1080  0.2217  0.6737
  947MOL0     H27816   3.564   5.087   9.505 -0.0714  0.3272 -0.5845
  947MOL0     H27817   3.381   5.057   9.348  1.2988  1.3854  0.7458
  947MOL0     H27818   3.258   5.121   9.476 -0.3711  0.7652 -1.0621
  947MOL0     H27819   3.416   4.862   9.445  1.1340  1.9071 -0.7828
  947MOL0     H27820   3.358   4.899   9.602 -2.4521 -4.7426 -0.8068
  947MOL0     H27821   3.167   4.904   9.390  1.6886  3.8347  0.1544
  947MOL0     H27822   3.132   4.909   9.557  1.5745  0.9305  0.6684
  947MOL0     H27823   3.247   4.681   9.400 -1.1571 -0.3592 -0.5436
  947MOL0     H27824   3.268   4.682   9.583 -0.4541  0.2213  0.4504
  947MOL0     H27825   3.623   5.751   9.592 -0.3392 -0.2213 -0.2432
  947MOL0     H27826   3.752   5.960   9.628  0.3203 -0.8910 -1.4673
  947MOL0     H27827   3.933   6.238  10.148  1.0648  2.7841  1.3477
  947MOL0     H27828   4.059   6.426  10.169 -1.7235  0.4190  0.7573
  947MOL0     H27829   3.751   7.035   9.337 -1.2323  0.2051  0.9035
  947MOL0     H27830   3.635   7.227   9.414  2.8291  3.1980 -1.3999
  947MOL0     H27831   3.424   7.351   9.851 -4.9839  1.5855  1.8334
  947MOL0     H27832   3.275   7.488   9.993 -1.1267  2.2409  0.3268
  947MOL0     H27833   3.467   7.794  10.198 -0.0062 -2.2254  0.3543
  947MOL0     H27834   3.296   7.804  10.258  0.3406 -0.2527  0.2514
  947MOL0     H27835   3.423   7.977  10.053  1.8245 -1.2428  1.2518
  947MOL0     H27836   3.366   8.015  10.211  0.9834 -2.8511  0.7003
  947MOL0     H27837   3.133   7.964  10.165  0.9318 -3.7494  0.4605
  947MOL0     H27838   3.177   7.921   9.998  2.0692 -1.9220  0.8218
  947MOL0     H27839   3.312   8.156  10.013  0.2561  1.0243  2.4432
  947MOL0     H27840   3.154   8.146   9.948 -1.5126 -1.5876 -0.2121
  947MOL0     H27841   3.163   8.326  10.348 -0.4445  1.9953 -1.2991
  947MOL0     H27842   3.548   7.812   9.937  1.4773 -0.1526 -2.3267
  947MOL0     H27843   3.735   7.818   9.828 -0.2885  0.2460 -0.3518
  947MOL0     H27844   3.817   7.658   9.821 -0.5556  1.3484  1.9661
  947MOL0     H27845   3.734   7.725   9.686 -1.7048  2.4628 -0.6954
  948MOL0     O27846   7.462   7.227   1.438  1.0855 -0.7290  0.3415
  948MOL0     C27847   7.395   7.145   1.509 -0.7197 -0.0519  0.3449
  948MOL0     O27848   7.315   7.170   1.617  0.4541 -0.2557 -0.2551
  948MOL0     C27849   7.301   7.301   1.668  0.2805  0.2705  0.1353
  948MOL0     C27850   7.412   7.363   1.720  0.1808  0.0781 -0.1102
  948MOL0     C27851   7.406   7.494   1.779  0.7655 -0.2836  0.0781
  948MOL0     C27852   7.277   7.557   1.791 -0.9146 -0.4921  0.9680
  948MOL0     O27853   7.261   7.671   1.877 -0.3239  0.0430  0.4645
  948MOL0     C27854   7.364   7.702   1.980 -0.0084  0.9056  0.6589
  948MOL0     C27855   7.326   7.833   2.048  0.5561 -0.4290 -0.5847
  948MOL0     C27856   7.420   7.875   2.165  0.4738 -0.8350 -1.3114
  948MOL0     C27857   7.334   7.976   2.253 -0.3171 -0.0275  0.5142
  948MOL0     C27858   7.289   8.100   2.172 -0.2185  0.6710 -0.4287
  948MOL0     C27859   7.208   8.206   2.254  0.2157 -0.1311 -0.2074
  948MOL0     C27860   7.091   8.147   2.324  0.1174  0.1398 -0.3264
  948MOL0     C27861   6.975   8.088   2.233  0.1185 -0.3455 -1.0573
  948MOL0     N27862   6.901   8.189   2.151 -0.4575  0.3890 -1.4783
  948MOL0     C27863   6.772   8.234   2.164 -1.1044  0.2723  0.1086
  948MOL0     C27864   6.748   8.316   2.064  0.0112 -0.3625 -0.9261
  948MOL0     C27865   6.625   8.372   2.022  0.6528  0.6008  0.5929
  948MOL0     C27866   6.607   8.512   2.081  0.0237  0.3580  0.2646
  948MOL0     C27867   6.479   8.570   2.035 -0.4318  0.3272  0.8232
  948MOL0     C27868   6.489   8.623   1.892  0.3934  0.0980 -0.3782
  948MOL0     O27869   6.373   8.702   1.866 -0.8300 -0.0576  0.4308
  948MOL0     C27870   6.388   8.782   1.758  0.0403 -0.0331  0.8010
  948MOL0     C27871   6.474   8.766   1.656 -0.2462  0.1026  0.2954
  948MOL0     C27872   6.487   8.873   1.570 -0.4356  0.4676  0.2254
  948MOL0     C27873   6.414   8.992   1.576 -0.1294 -0.3511  0.5153
  948MOL0     C27874   6.422   9.097   1.469 -0.7003  1.1443 -0.7124
  948MOL0     O27875   6.333   9.200   1.489  0.6662 -0.3094  0.4613
  948MOL0     C27876   6.356   9.296   1.399  0.5468  0.5346 -0.1309
  948MOL0     C27877   6.430   9.406   1.439 -0.5286  0.1671  1.0961
  948MOL0     C27878   6.451   9.506   1.346  0.7295  0.5439 -0.6380
  948MOL0     C27879   6.420   9.487   1.204 -0.4102 -1.6439 -0.0260
  948MOL0     O27880   6.449   9.595   1.121  0.0062 -0.5027  1.2248
  948MOL0     C27881   6.473   9.564   0.989  0.4967 -0.3322 -0.6460
  948MOL0     C27882   6.545   9.690   0.928  0.2955  0.4594  0.2518
  948MOL0     C27883   6.443   9.798   0.875  0.5803  0.1365 -0.2433
  948MOL0     C27884   6.518   9.910   0.806  0.2648 -0.2369  0.3796
  948MOL0     C27885   6.418  10.020   0.764  0.7011  0.1371 -0.4082
  948MOL0     C27886   6.376  10.122   0.875 -0.4290  0.5583  0.7300
  948MOL0     C27887   6.280  10.221   0.809  0.8510 -0.7347 -0.7220
  948MOL0     C27888   6.219  10.311   0.924 -0.2333  0.5159  0.7849
  948MOL0    Cl27889   6.064  10.377   0.876 -0.3311 -0.4575 -0.4314
  948MOL0     C27890   6.352   9.368   1.174 -0.5544  0.5733  0.9914
  948MOL0     C27891   6.316   9.275   1.270 -0.0281  0.2064 -0.2428
  948MOL0     O27892   6.512   9.091   1.385 -0.5275  0.1096 -0.0134
  948MOL0     C27893   6.326   9.001   1.675 -0.1169 -0.6746 -0.6778
  948MOL0     C27894   6.307   8.900   1.765 -0.9579  0.1959  0.6593
  948MOL0     N27895   6.862   8.331   1.996  0.3289  0.1408 -0.2474
  948MOL0     N27896   6.959   8.261   2.047  0.0509 -1.0028  0.9245
  948MOL0     C27897   7.169   7.499   1.735 -0.6041 -0.0796 -1.3405
  948MOL0     C27898   7.170   7.367   1.684 -0.5060 -0.8838 -0.0962
  948MOL0     C27899   7.396   7.004   1.459  0.4957 -0.2757  0.0807
  948MOL0     C27900   7.354   6.902   1.541 -0.2081 -0.0265 -0.3078
  948MOL0     C27901   7.355   6.767   1.498  0.5680  0.0998 -0.0342
  948MOL0     C27902   7.405   6.734   1.367 -0.3329  0.4500  0.1418
  948MOL0     O27903   7.392   6.601   1.340 -0.0051  0.3813  0.0099
  948MOL0     C27904   7.386   6.548   1.213  0.1188  1.1857  0.1629
  948MOL0     C27905   7.253   6.545   1.140 -0.7618  0.1720 -0.0949
  948MOL0     C27906   7.207   6.679   1.078  0.0850 -0.5154  0.4090
  948MOL0     C27907   7.125   6.664   0.946 -1.0318  0.5290 -0.5360
  948MOL0     C27908   7.012   6.584   0.975  0.4287 -0.4314  0.2124
  948MOL0     C27909   6.917   6.518   1.006  1.2381  0.3042  0.0148
  948MOL0     C27910   7.457   6.837   1.289  0.0583  0.4856  0.6787
  948MOL0     C27911   7.440   6.966   1.323 -0.6477  0.5462  0.3792
  948MOL0     C27912   7.487   7.065   1.214  1.1591 -0.3193 -0.5192
  948MOL0     H27913   7.506   7.310   1.704  0.6039  1.6651 -4.0451
  948MOL0     H27914   7.497   7.539   1.817  0.4134  1.3880 -0.9532
  948MOL0     H27915   7.373   7.621   2.052  0.1417  0.7191  0.4323
  948MOL0     H27916   7.456   7.724   1.925 -0.3283  0.3236 -0.1279
  948MOL0     H27917   7.226   7.818   2.090  1.5519 -0.5249  1.9272
  948MOL0     H27918   7.320   7.909   1.971  0.7898 -1.1957 -1.3744
  948MOL0     H27919   7.509   7.928   2.131  1.2242  0.9737  2.8019
  948MOL0     H27920   7.448   7.783   2.217  1.0305 -1.4401 -2.6276
  948MOL0     H27921   7.250   7.913   2.286 -0.6648 -0.4189 -1.0289
  948MOL0     H27922   7.397   8.007   2.337 -1.6511  2.5106  0.6587
  948MOL0     H27923   7.367   8.159   2.122 -2.1001  1.0718 -3.0703
  948MOL0     H27924   7.225   8.061   2.093 -1.1537  2.5795 -0.6829
  948MOL0     H27925   7.278   8.238   2.332  0.4475  1.3385 -0.9833
  948MOL0     H27926   7.176   8.293   2.194 -1.6022 -0.4201  0.2831
  948MOL0     H27927   7.052   8.225   2.390  1.6728  0.6771 -0.0173
  948MOL0     H27928   7.130   8.066   2.386  0.6046  0.2937 -0.4275
  948MOL0     H27929   7.020   8.015   2.165 -1.2674 -2.3143  0.0208
  948MOL0     H27930   6.899   8.035   2.291  1.6684  0.1880  1.6078
  948MOL0     H27931   6.695   8.214   2.238 -1.0040 -1.5118 -0.2256
  948MOL0     H27932   6.630   8.363   1.913  2.8404  1.4358  0.5665
  948MOL0     H27933   6.539   8.311   2.051  0.5093  1.7440  2.7656
  948MOL0     H27934   6.606   8.498   2.190  0.4870 -0.2098  0.2043
  948MOL0     H27935   6.693   8.572   2.050  0.4962  0.1131  1.0818
  948MOL0     H27936   6.454   8.652   2.102  0.4388  0.9120  0.4547
  948MOL0     H27937   6.406   8.488   2.037 -2.0344  1.3112 -3.9088
  948MOL0     H27938   6.490   8.536   1.825 -0.2866 -1.1303  1.1341
  948MOL0     H27939   6.584   8.675   1.877  0.3692  0.2616  0.0360
  948MOL0     H27940   6.531   8.677   1.633  0.0555 -0.3346  2.5097
  948MOL0     H27941   6.555   8.864   1.486 -2.0146  0.2847 -1.0799
  948MOL0     H27942   6.471   9.414   1.539 -2.6090  3.4748  1.8487
  948MOL0     H27943   6.503   9.594   1.382  2.3155 -0.2375 -0.9317
  948MOL0     H27944   6.534   9.474   0.978 -1.6594 -1.7640 -1.6521
  948MOL0     H27945   6.376   9.541   0.943  0.0782 -1.4077  0.6878
  948MOL0     H27946   6.609   9.742   1.001 -2.2469  5.4426 -0.6274
  948MOL0     H27947   6.602   9.664   0.839  0.6519 -0.7065  0.7982
  948MOL0     H27948   6.377   9.756   0.799  2.3865  1.1736 -2.5025
  948MOL0     H27949   6.388   9.836   0.962 -2.2462  0.7019 -2.1339
  948MOL0     H27950   6.540   9.866   0.709 -0.8407 -1.9329  0.8470
  948MOL0     H27951   6.606   9.957   0.850  0.8566 -0.6444 -0.3548
  948MOL0     H27952   6.332   9.960   0.732  1.6547 -0.6826 -1.5105
  948MOL0     H27953   6.457  10.068   0.674  1.6794 -1.8611 -1.1047
  948MOL0     H27954   6.317  10.071   0.952 -0.9286  2.0964  1.3939
  948MOL0     H27955   6.468  10.171   0.909 -0.1431 -1.6082  3.4603
  948MOL0     H27956   6.188  10.169   0.781  0.0975  0.9027 -1.4131
  948MOL0     H27957   6.331  10.275   0.729  2.6204 -0.1038  0.7399
  948MOL0     H27958   6.198  10.241   1.005  1.6479 -0.6335  0.3352
  948MOL0     H27959   6.286  10.384   0.971 -0.0523  1.3183 -0.6346
  948MOL0     H27960   6.323   9.352   1.071 -0.8764  3.6554  0.4979
  948MOL0     H27961   6.273   9.180   1.242  1.2237  0.0871 -1.8733
  948MOL0     H27962   6.272   9.094   1.692  1.8203  0.4371 -0.1731
  948MOL0     H27963   6.230   8.916   1.840 -3.8618 -2.1768 -1.5515
  948MOL0     H27964   7.073   7.548   1.745 -0.4479  0.1095 -0.7541
  948MOL0     H27965   7.076   7.327   1.649 -1.6653  1.2199  0.4607
  948MOL0     H27966   7.326   6.906   1.646  2.1339 -1.7967  0.4840
  948MOL0     H27967   7.300   6.695   1.558 -1.6094  2.2953  0.7652
  948MOL0     H27968   7.430   6.448   1.217 -1.8618 -0.0565 -3.7140
  948MOL0     H27969   7.444   6.608   1.143 -1.3181  0.1044 -2.0633
  948MOL0     H27970   7.180   6.508   1.213 -1.9527  0.3931 -1.1374
  948MOL0     H27971   7.246   6.468   1.062 -0.3098 -0.2198  0.2450
  948MOL0     H27972   7.297   6.728   1.038 -0.5408 -0.9664 -1.6610
  948MOL0     H27973   7.150   6.744   1.144  1.6636 -0.0664  1.3938
  948MOL0     H27974   7.084   6.757   0.906 -0.7657  0.3748 -1.1800
  948MOL0     H27975   7.189   6.622   0.867  0.5010 -1.3032  1.5709
  948MOL0     H27976   6.838   6.450   1.033  0.0398  0.5690 -2.5958
  948MOL0     H27977   7.500   6.798   1.198 -0.4873 -0.0119  0.6231
  948MOL0     H27978   7.584   7.106   1.241 -0.4882  3.2297  0.6317
  948MOL0     H27979   7.484   7.023   1.112 -1.1185  1.0438 -1.0797
  948MOL0     H27980   7.413   7.143   1.193 -0.3725 -2.4815 -4.0630
  949MOL0     O27981   3.286   6.621   1.742  0.2594 -0.5392 -0.6074
  949MOL0     C27982   3.249   6.682   1.645 -0.1978  0.4795  0.0862
  949MOL0     O27983   3.253   6.819   1.624 -0.0270  0.1094 -0.6626
  949MOL0     C27984   3.261   6.900   1.729 -0.1151  0.6814  0.7202
  949MOL0     C27985   3.203   6.872   1.864  0.1059  0.1191 -0.3676
  949MOL0     C27986   3.222   6.981   1.950  0.3690 -0.2615 -0.0354
  949MOL0     C27987   3.291   7.092   1.920  0.2941 -0.2359 -0.2444
  949MOL0     O27988   3.304   7.184   2.018 -0.4279 -0.2769  0.3352
  949MOL0     C27989   3.433   7.250   2.044  0.2150  0.1973 -0.5337
  949MOL0     C27990   3.525   7.160   2.119 -0.4631 -0.2090 -0.0492
  949MOL0     C27991   3.483   7.140   2.270  0.1296  0.8273 -0.2132
  949MOL0     C27992   3.581   7.060   2.358  0.4507 -0.1391  2.3200
  949MOL0     C27993   3.497   6.995   2.482 -0.6186  0.4175  0.0930
  949MOL0     C27994   3.454   6.852   2.417 -0.0509 -0.2007  0.1135
  949MOL0     C27995   3.389   6.766   2.532  0.6866  0.7976  0.1748
  949MOL0     C27996   3.297   6.654   2.470 -0.3730  0.3530  0.2274
  949MOL0     N27997   3.209   6.575   2.564  0.2720  0.1252  0.4903
  949MOL0     C27998   3.206   6.595   2.700 -0.0397 -0.7912  0.3068
  949MOL0     C27999   3.119   6.509   2.751  0.1906  0.3489 -0.5611
  949MOL0     C28000   3.106   6.503   2.899 -0.3846 -0.9748  0.7953
  949MOL0     C28001   2.996   6.401   2.940 -0.4917  0.6017  0.2558
  949MOL0     C28002   3.003   6.370   3.092 -0.4501  0.3813 -0.1716
  949MOL0     C28003   2.889   6.278   3.146 -0.1759 -0.2233 -0.0939
  949MOL0     O28004   2.905   6.259   3.281 -0.0439  0.1126  0.3077
  949MOL0     C28005   2.854   6.145   3.331  0.2994 -0.4891 -0.1807
  949MOL0     C28006   2.878   6.115   3.461  0.5806 -0.0043 -1.0321
  949MOL0     C28007   2.826   5.996   3.518  0.1856 -0.0789  0.6257
  949MOL0     C28008   2.734   5.915   3.447  0.7055 -0.5517  0.3834
  949MOL0     C28009   2.675   5.788   3.506 -0.0620  1.3645  0.9448
  949MOL0     O28010   2.606   5.695   3.421  0.2013 -0.2750 -0.0665
  949MOL0     C28011   2.571   5.574   3.478  0.4308 -0.2580 -1.1935
  949MOL0     C28012   2.444   5.561   3.549  0.0456 -0.2768 -0.7019
  949MOL0     C28013   2.409   5.428   3.590  0.6733  0.4852 -0.9617
  949MOL0     C28014   2.493   5.321   3.566 -0.4938  0.5620 -0.3245
  949MOL0     O28015   2.448   5.194   3.607 -0.2751 -0.6470  0.6758
  949MOL0     C28016   2.489   5.078   3.528  0.7246  0.1040  0.1757
  949MOL0     C28017   2.436   4.954   3.590 -0.2920  0.2843  0.8979
  949MOL0     C28018   2.494   4.820   3.537 -0.0496  0.4221 -0.3273
  949MOL0     C28019   2.410   4.693   3.554  0.2506 -0.4337  0.8286
  949MOL0     C28020   2.474   4.574   3.479 -0.3685 -0.1974 -0.1680
  949MOL0     C28021   2.395   4.449   3.477 -0.5885 -0.2780 -0.0864
  949MOL0     C28022   2.438   4.352   3.371  0.1406  0.1624 -0.3925
  949MOL0     C28023   2.429   4.211   3.410  0.7902  0.7991  0.4047
  949MOL0    Cl28024   2.264   4.145   3.465 -0.4374  0.0623  0.2494
  949MOL0     C28025   2.607   5.344   3.491  0.1645  0.3031 -0.1236
  949MOL0     C28026   2.655   5.468   3.460 -0.3097  0.0723 -0.1847
  949MOL0     O28027   2.682   5.778   3.625 -0.1540 -0.2766 -0.4737
  949MOL0     C28028   2.693   5.960   3.321  0.0333  0.1529 -0.8823
  949MOL0     C28029   2.754   6.071   3.262  0.1976 -0.1663  0.0496
  949MOL0     N28030   3.078   6.419   2.659  1.1031 -0.3384 -0.2246
  949MOL0     N28031   3.124   6.467   2.546  0.3362 -0.0290  0.3450
  949MOL0     C28032   3.332   7.127   1.791 -0.1219  0.6791  0.5074
  949MOL0     C28033   3.330   7.020   1.706  0.4579  1.1054  0.2846
  949MOL0     C28034   3.208   6.597   1.529  0.6060 -0.3699 -0.4806
  949MOL0     C28035   3.301   6.500   1.486  0.7105 -1.1309 -0.1266
  949MOL0     C28036   3.270   6.428   1.372 -0.1629  0.3210  0.1875
  949MOL0     C28037   3.152   6.442   1.308 -0.3404  0.2896 -0.3241
  949MOL0     O28038   3.130   6.349   1.212  0.3213  0.4566 -0.1824
  949MOL0     C28039   2.998   6.349   1.146 -0.1594  0.1089  0.8759
  949MOL0     C28040   3.021   6.244   1.033 -0.0168  0.8453  0.4307
  949MOL0     C28041   3.024   6.102   1.085  0.0660 -0.2045  0.5914
  949MOL0     C28042   2.989   6.005   0.976 -0.3476  0.0380  0.2027
  949MOL0     C28043   3.078   6.019   0.863 -0.0987 -0.2418 -0.2439
  949MOL0     C28044   3.155   6.025   0.770 -0.2767 -0.3663 -0.3189
  949MOL0     C28045   3.067   6.550   1.340 -0.1485 -0.7685  0.2571
  949MOL0     C28046   3.093   6.633   1.451  0.1439  0.4005  0.2045
  949MOL0     C28047   2.992   6.744   1.487 -0.4071  0.3275  0.1854
  949MOL0     H28048   3.151   6.781   1.891  1.1469 -0.2247  0.5215
  949MOL0     H28049   3.178   6.966   2.047 -0.2240 -0.6298 -0.3579
  949MOL0     H28050   3.485   7.287   1.955  1.1964 -1.8774 -0.8617
  949MOL0     H28051   3.409   7.332   2.113 -1.7742 -0.6964 -0.0972
  949MOL0     H28052   3.615   7.223   2.116 -2.2302  2.4765 -1.8031
  949MOL0     H28053   3.549   7.068   2.065  1.9653  0.4548 -0.2504
  949MOL0     H28054   3.386   7.092   2.260  0.6251 -1.5005  3.8108
  949MOL0     H28055   3.471   7.238   2.316  2.3323  1.3041 -0.5185
  949MOL0     H28056   3.630   6.983   2.297 -0.0176 -0.4863  2.3789
  949MOL0     H28057   3.658   7.129   2.395  1.9492  0.1494 -1.0179
  949MOL0     H28058   3.556   6.987   2.573 -3.1761 -1.2611  1.7336
  949MOL0     H28059   3.408   7.052   2.511  1.1018  2.5110  1.5006
  949MOL0     H28060   3.383   6.851   2.334  0.4792 -3.2460 -0.4443
  949MOL0     H28061   3.547   6.801   2.391 -0.7271 -1.1713 -0.4931
  949MOL0     H28062   3.310   6.823   2.581 -1.1313 -0.1420 -1.5280
  949MOL0     H28063   3.462   6.733   2.607 -1.0049 -0.9130  1.1566
  949MOL0     H28064   3.232   6.704   2.397 -0.8332 -1.3630 -0.5943
  949MOL0     H28065   3.359   6.579   2.420  1.9197  0.8434  2.1785
  949MOL0     H28066   3.272   6.663   2.753 -0.2184 -1.4493  1.4199
  949MOL0     H28067   3.203   6.463   2.930  1.0487  1.5386 -0.1926
  949MOL0     H28068   3.103   6.605   2.938  0.1130 -0.1177 -1.2861
  949MOL0     H28069   2.895   6.435   2.914 -1.6478 -2.0823  0.8558
  949MOL0     H28070   3.014   6.302   2.897 -1.7671  0.6306 -0.4208
  949MOL0     H28071   3.007   6.462   3.150  0.3652 -0.9054  1.9295
  949MOL0     H28072   3.097   6.318   3.109 -0.1520  1.1419  0.5453
  949MOL0     H28073   2.891   6.185   3.088 -6.1993  0.5235 -2.2039
  949MOL0     H28074   2.794   6.329   3.133 -0.1927 -0.1825  0.1791
  949MOL0     H28075   2.941   6.171   3.529 -1.1734  2.9413 -1.6529
  949MOL0     H28076   2.858   5.968   3.617  1.1226 -3.7402 -0.5353
  949MOL0     H28077   2.381   5.647   3.571  0.0654 -0.0715 -1.4019
  949MOL0     H28078   2.317   5.400   3.639  1.0590 -4.2378 -2.4571
  949MOL0     H28079   2.459   5.092   3.424 -3.5603 -1.2803  0.9917
  949MOL0     H28080   2.597   5.068   3.542  0.2836 -3.1326  2.5823
  949MOL0     H28081   2.471   4.967   3.693  1.1323  1.2620  0.3242
  949MOL0     H28082   2.327   4.953   3.576  0.0626 -0.7318 -2.6606
  949MOL0     H28083   2.516   4.825   3.430  1.5672  0.2025 -0.0356
  949MOL0     H28084   2.593   4.826   3.585 -0.0956  1.8908 -0.3639
  949MOL0     H28085   2.312   4.715   3.510  0.5677 -0.0626  0.2969
  949MOL0     H28086   2.405   4.655   3.656  1.1987  0.0766  1.0756
  949MOL0     H28087   2.572   4.553   3.522 -0.6485 -1.6691 -0.1973
  949MOL0     H28088   2.480   4.604   3.374  1.2182  0.4996  0.0989
  949MOL0     H28089   2.419   4.398   3.571  1.0382  0.3078 -0.1492
  949MOL0     H28090   2.286   4.459   3.475 -0.6581 -0.7576  0.6612
  949MOL0     H28091   2.544   4.367   3.349  0.7331 -0.4688  1.8070
  949MOL0     H28092   2.381   4.365   3.279 -1.0022  0.7489  0.3723
  949MOL0     H28093   2.453   4.151   3.323 -2.0414  0.8974 -0.5496
  949MOL0     H28094   2.500   4.183   3.489  0.6412  1.7020  0.8837
  949MOL0     H28095   2.671   5.264   3.456 -0.1374  0.1497 -0.3320
  949MOL0     H28096   2.757   5.464   3.423 -0.0620  1.3155  0.3574
  949MOL0     H28097   2.623   5.905   3.259  2.2546  0.4915 -3.9456
  949MOL0     H28098   2.731   6.094   3.159 -1.9219  0.3858  0.5877
  949MOL0     H28099   3.365   7.224   1.757  1.6927 -0.4579 -1.2649
  949MOL0     H28100   3.370   7.030   1.605 -1.6131 -1.2911 -0.8928
  949MOL0     H28101   3.396   6.494   1.538 -1.6528  0.2474  4.9732
  949MOL0     H28102   3.335   6.351   1.332  1.3631  0.9894  1.2714
  949MOL0     H28103   2.967   6.447   1.109  0.6641 -0.4494 -1.4285
  949MOL0     H28104   2.914   6.335   1.215 -1.8164  2.5460 -0.5004
  949MOL0     H28105   3.112   6.282   0.985 -1.3637  1.8974 -1.4246
  949MOL0     H28106   2.939   6.249   0.960  0.4921 -0.8215 -0.3226
  949MOL0     H28107   2.958   6.095   1.172 -0.9159  2.6157  0.1656
  949MOL0     H28108   3.126   6.074   1.114  0.0615 -1.3335 -0.3894
  949MOL0     H28109   2.980   5.899   1.003  0.9870 -0.5703 -1.6116
  949MOL0     H28110   2.890   6.030   0.937 -0.6778 -1.8845 -0.3121
  949MOL0     H28111   3.227   6.019   0.691  0.0009  0.8038 -0.1645
  949MOL0     H28112   2.981   6.566   1.275  2.2010  0.7250 -2.7340
  949MOL0     H28113   2.899   6.735   1.431 -0.1458 -0.1565 -0.1721
  949MOL0     H28114   2.963   6.719   1.590 -2.7146  0.7378 -0.3150
  949MOL0     H28115   3.041   6.841   1.472  1.1860 -0.7080 -1.8257
  950MOL0     O28116   1.862   8.749   7.723 -0.3371 -0.4245 -0.3511
  950MOL0     C28117   1.895   8.775   7.607  0.2102 -0.2519 -0.6664
  950MOL0     O28118   1.870   8.699   7.491 -0.8826  0.1789 -0.2611
  950MOL0     C28119   1.837   8.569   7.494 -0.8952  0.5250 -0.1592
  950MOL0     C28120   1.861   8.483   7.593  0.2850 -0.0747  0.8057
  950MOL0     C28121   1.816   8.349   7.594 -0.4968 -0.6428  0.4496
  950MOL0     C28122   1.748   8.310   7.475  0.4830 -0.5096 -0.4679
  950MOL0     O28123   1.717   8.177   7.476 -0.0416 -0.1904 -0.3173
  950MOL0     C28124   1.629   8.132   7.373  0.0353 -0.2811  0.1175
  950MOL0     C28125   1.605   7.985   7.397 -0.2966 -0.7611 -0.0421
  950MOL0     C28126   1.493   7.917   7.338  0.1942  0.1798  0.0377
  950MOL0     C28127   1.517   7.849   7.198 -0.2015 -0.6620  0.8072
  950MOL0     C28128   1.388   7.785   7.140 -0.5928  0.7177 -0.6782
  950MOL0     C28129   1.325   7.666   7.221  0.4870  0.2958 -0.9004
  950MOL0     C28130   1.187   7.634   7.165  0.1594 -0.0323  0.3765
  950MOL0     C28131   1.074   7.724   7.216 -0.7820 -0.9241  0.0447
  950MOL0     N28132   0.943   7.676   7.164 -0.2678 -0.0068 -0.0686
  950MOL0     C28133   0.824   7.742   7.157 -0.1351 -0.2844  0.9715
  950MOL0     C28134   0.749   7.661   7.074 -0.4559  0.1203 -0.3662
  950MOL0     C28135   0.632   7.702   6.999  0.4370  0.3526 -1.0640
  950MOL0     C28136   0.674   7.741   6.857 -0.0034 -0.8825 -0.5269
  950MOL0     C28137   0.547   7.732   6.770  0.1500  0.6939  0.8235
  950MOL0     C28138   0.559   7.781   6.619  0.4711  0.8650 -0.3673
  950MOL0     O28139   0.640   7.684   6.550  0.3311 -0.2424  0.9105
  950MOL0     C28140   0.760   7.728   6.509 -0.7379 -0.4524 -1.2331
  950MOL0     C28141   0.776   7.847   6.437  0.3158 -0.4899 -0.6915
  950MOL0     C28142   0.901   7.881   6.384 -0.7003  0.0705 -0.9615
  950MOL0     C28143   1.011   7.792   6.398 -0.1911  0.5056  0.7913
  950MOL0     C28144   1.133   7.826   6.324  0.0114 -0.1231 -0.1210
  950MOL0     O28145   1.244   7.749   6.335 -0.1036  0.8919 -0.1596
  950MOL0     C28146   1.348   7.772   6.246 -0.8869 -0.6236  0.0019
  950MOL0     C28147   1.482   7.777   6.287 -0.6694 -0.1931 -0.2450
  950MOL0     C28148   1.590   7.791   6.190  0.3168  1.2416 -1.1917
  950MOL0     C28149   1.563   7.799   6.057 -0.2284 -0.0050  0.5942
  950MOL0     O28150   1.668   7.792   5.964  0.1883  0.1804 -0.2604
  950MOL0     C28151   1.649   7.726   5.830  0.6259 -0.0044 -0.5049
  950MOL0     C28152   1.781   7.753   5.761 -0.1336  0.3570  0.0946
  950MOL0     C28153   1.775   7.734   5.598  0.8005 -0.1421  0.5554
  950MOL0     C28154   1.716   7.856   5.519 -0.5478  0.6916  0.0965
  950MOL0     C28155   1.685   7.807   5.374  0.7374 -0.1028 -0.9821
  950MOL0     C28156   1.621   7.928   5.303 -1.0490  0.6437 -0.1569
  950MOL0     C28157   1.563   7.884   5.173  0.2229  0.8234 -0.2865
  950MOL0     C28158   1.525   7.998   5.082 -0.4475 -0.6941  0.5648
  950MOL0    Cl28159   1.436   7.939   4.930  0.2391  0.1639 -0.2809
  950MOL0     C28160   1.432   7.804   6.013 -0.2950  0.8678 -0.4506
  950MOL0     C28161   1.328   7.784   6.105  0.1175 -0.4089 -0.9173
  950MOL0     O28162   1.121   7.927   6.253 -0.1055  0.5003  0.0583
  950MOL0     C28163   0.998   7.674   6.478 -0.7754 -0.7559  1.2231
  950MOL0     C28164   0.869   7.645   6.527 -0.2307  0.2241 -0.6974
  950MOL0     N28165   0.810   7.544   7.047  0.6708  0.5274 -0.7792
  950MOL0     N28166   0.929   7.558   7.089  0.0225 -0.4217  0.3833
  950MOL0     C28167   1.731   8.401   7.370  0.2550  0.4339 -0.4443
  950MOL0     C28168   1.779   8.529   7.381 -0.1504 -0.0462  0.7844
  950MOL0     C28169   1.963   8.911   7.585 -0.1251  0.2979  0.1426
  950MOL0     C28170   1.932   8.972   7.458 -1.6339 -0.2867  0.4274
  950MOL0     C28171   1.974   9.107   7.439 -0.5196  0.2105  0.9120
  950MOL0     C28172   2.053   9.171   7.527  1.2976 -0.2696  0.7454
  950MOL0     O28173   2.125   9.276   7.473 -0.6479 -0.6572 -0.0592
  950MOL0     C28174   2.163   9.372   7.573 -0.1317 -0.4853  0.3936
  950MOL0     C28175   2.178   9.517   7.507  0.4326  0.2355 -0.3581
  950MOL0     C28176   2.313   9.519   7.433  0.2090 -0.7746  0.1496
  950MOL0     C28177   2.350   9.671   7.416 -0.8457  0.1963  0.4728
  950MOL0     C28178   2.375   9.737   7.543 -0.4029 -0.7513  0.5067
  950MOL0     C28179   2.392   9.812   7.642  0.4666  0.1417  0.3800
  950MOL0     C28180   2.081   9.106   7.650  0.3100 -0.5957  0.2301
  950MOL0     C28181   2.038   8.979   7.684 -0.0565 -0.2695 -0.5482
  950MOL0     C28182   2.081   8.912   7.811  0.2629 -0.5439  0.7481
  950MOL0     H28183   1.927   8.521   7.670  2.6994  0.2908 -1.3200
  950MOL0     H28184   1.832   8.289   7.683  1.1524 -3.4525 -1.5494
  950MOL0     H28185   1.531   8.179   7.374  0.1790  0.0129  0.3079
  950MOL0     H28186   1.663   8.168   7.276 -0.7808  2.3438  0.7335
  950MOL0     H28187   1.593   7.969   7.505  0.0520 -0.7645 -0.0055
  950MOL0     H28188   1.697   7.936   7.365 -0.0469 -1.5592  1.7815
  950MOL0     H28189   1.413   7.991   7.339  0.3228  0.4589  4.1233
  950MOL0     H28190   1.465   7.846   7.416  1.6167 -1.6481 -1.0158
  950MOL0     H28191   1.561   7.918   7.125 -0.3002 -0.1561  1.2222
  950MOL0     H28192   1.590   7.768   7.215  1.4083  0.8313  1.3630
  950MOL0     H28193   1.309   7.861   7.141 -0.3306  1.0421 -2.2193
  950MOL0     H28194   1.409   7.763   7.035  1.4846  1.1974 -0.4035
  950MOL0     H28195   1.388   7.578   7.226 -0.2746 -0.2592 -0.8663
  950MOL0     H28196   1.310   7.684   7.328  1.6051  2.5138 -1.0402
  950MOL0     H28197   1.167   7.529   7.184  0.7695 -0.2882 -0.3429
  950MOL0     H28198   1.193   7.641   7.056 -0.5045  0.6455  0.3739
  950MOL0     H28199   1.086   7.724   7.324  0.2922 -0.6755 -0.0566
  950MOL0     H28200   1.106   7.825   7.186 -0.5527 -1.2475 -0.8350
  950MOL0     H28201   0.801   7.846   7.175  1.5631  0.1642  0.7348
  950MOL0     H28202   0.562   7.618   6.990 -1.9960  2.3483 -1.7189
  950MOL0     H28203   0.578   7.775   7.060  0.5406 -0.9915  0.7147
  950MOL0     H28204   0.708   7.845   6.843 -1.5821 -0.4256 -1.1497
  950MOL0     H28205   0.752   7.669   6.832 -1.3449 -2.0044 -1.6423
  950MOL0     H28206   0.466   7.779   6.827  0.0826 -0.2564  1.5432
  950MOL0     H28207   0.515   7.627   6.759  2.7804 -0.2099  1.1873
  950MOL0     H28208   0.608   7.878   6.616 -1.5001  1.9149 -0.2284
  950MOL0     H28209   0.464   7.781   6.564  0.6482  1.2792 -0.6780
  950MOL0     H28210   0.694   7.917   6.432 -2.2535 -3.0913  1.5824
  950MOL0     H28211   0.910   7.978   6.335  4.3771  0.8585  0.9215
  950MOL0     H28212   1.504   7.766   6.393  1.2818 -2.9910 -0.8283
  950MOL0     H28213   1.690   7.764   6.223 -1.2113 -5.1170 -0.5538
  950MOL0     H28214   1.629   7.619   5.844  1.6762  0.1010  2.6827
  950MOL0     H28215   1.561   7.768   5.780 -0.6497  0.4887  1.9694
  950MOL0     H28216   1.808   7.857   5.780 -0.5299  0.5215 -0.2284
  950MOL0     H28217   1.859   7.697   5.814 -0.5256  0.3613  0.6863
  950MOL0     H28218   1.875   7.709   5.562  0.1430 -2.6843  0.3063
  950MOL0     H28219   1.714   7.648   5.571  1.6787 -0.3842 -0.7462
  950MOL0     H28220   1.791   7.935   5.527 -2.3845  2.3215  3.7543
  950MOL0     H28221   1.628   7.890   5.574  0.5420 -0.5052  2.7816
  950MOL0     H28222   1.612   7.726   5.366 -0.9304  1.0949  1.0772
  950MOL0     H28223   1.770   7.761   5.322  1.4638  2.9222 -2.7457
  950MOL0     H28224   1.538   7.971   5.360 -1.5352  0.0908 -0.4327
  950MOL0     H28225   1.689   8.014   5.296  0.4601 -0.5585 -0.7741
  950MOL0     H28226   1.469   7.834   5.199 -1.9834  4.1533 -1.2710
  950MOL0     H28227   1.628   7.810   5.126 -2.5179 -0.7345 -1.8584
  950MOL0     H28228   1.447   8.056   5.132  1.3032  1.6423  0.7269
  950MOL0     H28229   1.613   8.052   5.046 -1.5618 -0.6923 -2.5029
  950MOL0     H28230   1.404   7.825   5.910 -2.3764 -3.4507 -1.0181
  950MOL0     H28231   1.228   7.774   6.065  0.6601 -2.8762 -1.8114
  950MOL0     H28232   1.089   7.618   6.498  0.5183  0.6198 -0.4732
  950MOL0     H28233   0.852   7.552   6.581 -2.0170  0.9584  0.0852
  950MOL0     H28234   1.678   8.381   7.278 -0.6252 -0.8752  0.3036
  950MOL0     H28235   1.763   8.594   7.296  0.8061 -0.9009 -0.0789
  950MOL0     H28236   1.865   8.934   7.382 -2.4308  1.9270 -0.0476
  950MOL0     H28237   1.956   9.159   7.345  0.8492 -0.0048  0.5065
  950MOL0     H28238   2.263   9.353   7.614  0.7816  1.0560 -0.9776
  950MOL0     H28239   2.085   9.386   7.647 -0.8697  3.6520 -0.9006
  950MOL0     H28240   2.189   9.581   7.594 -0.4909 -0.0541 -0.0214
  950MOL0     H28241   2.090   9.542   7.447 -0.8123 -0.4809  1.0991
  950MOL0     H28242   2.290   9.486   7.331 -0.4506 -0.4932  0.2011
  950MOL0     H28243   2.391   9.454   7.474 -0.0073 -1.2849 -0.2263
  950MOL0     H28244   2.449   9.681   7.372 -0.9516  0.3933  0.2715
  950MOL0     H28245   2.290   9.728   7.343  2.0384 -0.5124 -2.7045
  950MOL0     H28246   2.419   9.885   7.716  0.0367 -0.8909  1.5927
  950MOL0     H28247   2.159   9.148   7.713  1.5542 -2.0335 -0.2867
  950MOL0     H28248   2.177   8.952   7.846  2.5027 -2.1791 -2.8561
  950MOL0     H28249   1.998   8.915   7.881 -1.6417 -3.9198 -1.1238
  950MOL0     H28250   2.110   8.808   7.792  0.2639 -0.4042 -0.0566
  951MOL0     O28251   1.554   6.512   1.112 -0.0982  0.0150 -0.2197
  951MOL0     C28252   1.677   6.515   1.108  0.9111  0.1597  0.6759
  951MOL0     O28253   1.758   6.440   1.191 -0.0899 -0.1361  0.3084
  951MOL0     C28254   1.719   6.307   1.200  0.0085 -0.4365  0.6247
  951MOL0     C28255   1.693   6.228   1.083 -0.4348  0.4208 -0.3784
  951MOL0     C28256   1.664   6.093   1.106 -1.0825  0.0526  0.8354
  951MOL0     C28257   1.677   6.031   1.228 -0.6056 -0.4202 -0.5869
  951MOL0     O28258   1.643   5.894   1.237 -0.5417  0.1983  0.2445
  951MOL0     C28259   1.700   5.811   1.331  0.0958  0.2189 -0.6396
  951MOL0     C28260   1.664   5.662   1.286 -0.4353  0.0498  0.6156
  951MOL0     C28261   1.692   5.645   1.131 -0.6121  0.1153 -0.8432
  951MOL0     C28262   1.663   5.495   1.104  0.3669 -0.6833  0.0759
  951MOL0     C28263   1.706   5.441   0.966  0.4573 -0.5287  0.1125
  951MOL0     C28264   1.638   5.315   0.926 -0.8979 -0.0659 -0.5610
  951MOL0     C28265   1.674   5.179   0.992  0.6249 -0.9938  0.0412
  951MOL0     C28266   1.797   5.106   0.931  0.2002 -0.1028 -0.6247
  951MOL0     N28267   1.875   5.026   1.034  0.0984 -0.2498  0.4276
  951MOL0     C28268   1.831   4.964   1.144  1.6062 -0.0287 -0.5648
  951MOL0     C28269   1.932   4.889   1.194  0.3939 -0.3112  0.2170
  951MOL0     C28270   1.928   4.796   1.316  0.0984  0.2409  0.7491
  951MOL0     C28271   1.984   4.876   1.439  0.3662 -0.3817 -1.3483
  951MOL0     C28272   1.949   4.808   1.568 -0.1212  0.6503 -0.5956
  951MOL0     C28273   2.029   4.685   1.604 -0.1620 -0.3483 -0.3056
  951MOL0     O28274   1.961   4.578   1.538 -0.3956 -0.0608 -0.5001
  951MOL0     C28275   1.972   4.456   1.599  0.3598  0.7372  0.1530
  951MOL0     C28276   1.876   4.392   1.682 -0.9333 -0.5640  0.0740
  951MOL0     C28277   1.899   4.281   1.764 -1.9637  0.5243  0.3517
  951MOL0     C28278   2.036   4.242   1.774 -0.8676 -0.3983  0.3333
  951MOL0     C28279   2.077   4.139   1.871 -0.1031  0.0106 -0.8440
  951MOL0     O28280   2.210   4.123   1.881  0.3853  0.6656  1.0798
  951MOL0     C28281   2.252   4.045   1.993 -0.5867 -0.7863  0.7301
  951MOL0     C28282   2.236   4.099   2.122 -0.8808  0.0605 -0.3281
  951MOL0     C28283   2.270   4.022   2.239  1.1192 -0.6227  0.6894
  951MOL0     C28284   2.325   3.901   2.232  0.5289  0.2346  0.6416
  951MOL0     O28285   2.376   3.846   2.346  0.2364  1.0859 -0.4583
  951MOL0     C28286   2.508   3.786   2.343 -0.2283  0.4678  0.0998
  951MOL0     C28287   2.570   3.771   2.483 -0.1833  0.7580  0.4948
  951MOL0     C28288   2.620   3.896   2.555 -0.7830 -0.7395  0.1211
  951MOL0     C28289   2.668   3.853   2.691 -0.3496  0.3798  0.3674
  951MOL0     C28290   2.756   3.961   2.761  0.1583 -0.7127 -0.3296
  951MOL0     C28291   2.702   4.026   2.902  0.0726  0.7579 -0.5508
  951MOL0     C28292   2.791   4.144   2.942 -0.4619  0.1472  0.3816
  951MOL0     C28293   2.779   4.191   3.088 -1.3195 -0.6723 -0.2023
  951MOL0    Cl28294   2.614   4.242   3.118  0.4249 -0.0274  0.2164
  951MOL0     C28295   2.327   3.843   2.106  0.1419  0.0973  0.0929
  951MOL0     C28296   2.301   3.917   1.984 -0.4137 -0.2510  0.0192
  951MOL0     O28297   1.990   4.067   1.927  0.0709 -1.0013  0.3428
  951MOL0     C28298   2.131   4.317   1.708 -0.7796 -0.2976 -0.2840
  951MOL0     C28299   2.103   4.408   1.612 -0.0116  0.6759 -0.4653
  951MOL0     N28300   2.035   4.900   1.103 -0.6135  0.3383  0.7455
  951MOL0     N28301   2.001   4.980   1.007  0.2209  0.4852  0.4124
  951MOL0     C28302   1.705   6.113   1.334  0.5798 -0.5410  0.0256
  951MOL0     C28303   1.719   6.253   1.325 -0.7011  0.4523 -0.0426
  951MOL0     C28304   1.759   6.609   1.028 -0.1760  0.3532  0.5680
  951MOL0     C28305   1.869   6.677   1.088  0.0241  0.6069  0.1831
  951MOL0     C28306   1.954   6.763   1.009  0.0927 -0.0371 -0.8138
  951MOL0     C28307   1.913   6.785   0.875 -0.0383 -0.8652 -0.5909
  951MOL0     O28308   2.003   6.859   0.806 -0.2375 -0.1565  0.0451
  951MOL0     C28309   1.952   6.987   0.765  0.5622  0.5374 -0.5120
  951MOL0     C28310   1.873   6.990   0.626  0.1449 -0.8040 -0.1087
  951MOL0     C28311   1.814   7.118   0.601  0.1696 -0.4807  0.2267
  951MOL0     C28312   1.760   7.129   0.465  0.2070 -1.1940 -0.7276
  951MOL0     C28313   1.649   7.221   0.470  0.1378  0.2228 -0.1027
  951MOL0     C28314   1.544   7.274   0.467 -0.7678  0.6461  1.7329
  951MOL0     C28315   1.808   6.716   0.823  0.0641 -0.0481  0.4806
  951MOL0     C28316   1.724   6.639   0.900  0.6292  0.4202  0.5621
  951MOL0     C28317   1.608   6.568   0.828 -0.3198  0.5631 -0.5826
  951MOL0     H28318   1.689   6.275   0.985  0.2346  1.9676  0.2942
  951MOL0     H28319   1.643   6.019   1.029  0.6031 -0.6955  1.0528
  951MOL0     H28320   1.808   5.827   1.320  0.2727  0.8346  1.4844
  951MOL0     H28321   1.682   5.838   1.436  1.8393  1.9276 -0.7234
  951MOL0     H28322   1.558   5.656   1.314 -1.4251 -0.1467 -2.7707
  951MOL0     H28323   1.724   5.593   1.347  0.7576 -0.7770 -1.3936
  951MOL0     H28324   1.796   5.670   1.108  0.7559 -5.0703 -1.6781
  951MOL0     H28325   1.617   5.707   1.080 -2.4864  0.3929  2.0307
  951MOL0     H28326   1.703   5.432   1.185  0.6834 -0.1628  0.3311
  951MOL0     H28327   1.556   5.481   1.120  0.0113  0.3736 -1.2747
  951MOL0     H28328   1.665   5.513   0.895 -1.3586 -1.6853 -0.1025
  951MOL0     H28329   1.814   5.444   0.950  0.9291 -3.0125  2.0978
  951MOL0     H28330   1.534   5.323   0.959 -0.5806 -2.4049  1.2584
  951MOL0     H28331   1.651   5.297   0.819 -0.3109 -2.2596 -0.1734
  951MOL0     H28332   1.587   5.113   0.982 -1.7130  1.5250  1.8605
  951MOL0     H28333   1.684   5.194   1.100 -4.5742  1.1641  0.5625
  951MOL0     H28334   1.763   5.040   0.850  1.6840  1.1533 -2.3488
  951MOL0     H28335   1.862   5.183   0.888  1.0518 -1.8099 -2.5542
  951MOL0     H28336   1.733   4.978   1.188  1.0596 -1.8640 -1.1389
  951MOL0     H28337   1.826   4.761   1.328  0.3100 -0.5761  0.2115
  951MOL0     H28338   1.980   4.702   1.294 -0.0682  0.3791 -0.2637
  951MOL0     H28339   2.093   4.884   1.427  0.4885 -1.7792 -1.3781
  951MOL0     H28340   1.928   4.969   1.446 -2.9433 -2.3215  1.0925
  951MOL0     H28341   1.843   4.781   1.575 -0.5315  2.0907 -0.7456
  951MOL0     H28342   1.972   4.875   1.652  3.4988  0.0899 -0.9727
  951MOL0     H28343   2.033   4.669   1.712  0.4178  2.7537  0.2318
  951MOL0     H28344   2.131   4.699   1.567 -0.0502  0.2873  0.2271
  951MOL0     H28345   1.775   4.431   1.668  0.3842  2.1288 -3.1276
  951MOL0     H28346   1.829   4.226   1.826  2.4420 -3.9325  2.0394
  951MOL0     H28347   2.211   4.203   2.138  2.0559  0.8954 -0.7192
  951MOL0     H28348   2.255   4.071   2.335 -2.1670  1.1303 -0.5567
  951MOL0     H28349   2.502   3.686   2.299 -0.6955  0.1877  0.7871
  951MOL0     H28350   2.569   3.846   2.276 -0.2044 -0.6674 -0.9352
  951MOL0     H28351   2.493   3.719   2.542  1.0182  0.1090  1.5311
  951MOL0     H28352   2.653   3.706   2.456 -0.0440  1.6053 -1.2180
  951MOL0     H28353   2.703   3.935   2.496 -1.7192 -0.7652 -1.2589
  951MOL0     H28354   2.546   3.977   2.554  1.6685  1.7950 -4.3964
  951MOL0     H28355   2.733   3.770   2.662 -0.9905  0.5099 -1.5824
  951MOL0     H28356   2.595   3.807   2.758  0.3541  3.2127  3.3420
  951MOL0     H28357   2.785   4.043   2.694  1.1951  1.1290  2.2061
  951MOL0     H28358   2.849   3.908   2.785  1.0899  1.0846  0.1974
  951MOL0     H28359   2.600   4.055   2.879  0.3935  1.0127 -1.7405
  951MOL0     H28360   2.702   3.943   2.974  0.4785 -1.1161 -2.6039
  951MOL0     H28361   2.775   4.235   2.883 -3.4212 -2.1843 -2.8430
  951MOL0     H28362   2.897   4.118   2.926 -0.0210 -0.5020  3.7161
  951MOL0     H28363   2.801   4.107   3.155  0.4439  0.7052  1.0364
  951MOL0     H28364   2.854   4.268   3.105 -0.9475 -1.1400  0.3464
  951MOL0     H28365   2.358   3.740   2.093  0.3093  0.1993 -0.3292
  951MOL0     H28366   2.309   3.879   1.883  0.9244 -2.1483  0.7858
  951MOL0     H28367   2.237   4.293   1.704 -0.8877 -0.5953 -1.7063
  951MOL0     H28368   2.181   4.454   1.552  0.5823  2.2369  1.3875
  951MOL0     H28369   1.694   6.080   1.436 -1.4461  1.2819  0.4796
  951MOL0     H28370   1.721   6.312   1.416  0.0752 -1.0650  0.9786
  951MOL0     H28371   1.890   6.646   1.190  0.0736 -0.4085 -0.1239
  951MOL0     H28372   2.044   6.811   1.047 -0.7449  0.9583 -0.0436
  951MOL0     H28373   2.039   7.053   0.766  0.6224  0.4553 -0.0212
  951MOL0     H28374   1.891   7.027   0.846  0.2629  1.3403 -1.1147
  951MOL0     H28375   1.804   6.906   0.613  1.5192 -1.6368 -2.6339
  951MOL0     H28376   1.960   6.980   0.561  1.2676  2.9394  0.6025
  951MOL0     H28377   1.891   7.194   0.618 -0.0776 -0.3611  0.8308
  951MOL0     H28378   1.735   7.129   0.676  0.3416  0.2834  0.3065
  951MOL0     H28379   1.843   7.152   0.397  0.9850 -2.2979 -0.1944
  951MOL0     H28380   1.722   7.030   0.441 -4.0755  0.3957 -1.3564
  951MOL0     H28381   1.455   7.333   0.459 -1.4813 -0.6427 -1.4777
  951MOL0     H28382   1.778   6.734   0.720 -0.1761  2.5165  0.9417
  951MOL0     H28383   1.515   6.615   0.862  0.2225  3.4913 -2.7667
  951MOL0     H28384   1.607   6.581   0.719 -3.5934  3.0646 -0.4310
  951MOL0     H28385   1.601   6.459   0.835  1.6962  0.2914 -2.0850
  952MOL0     O28386   2.032   6.683   2.795 -0.0196  0.2024  0.3239
  952MOL0     C28387   1.964   6.642   2.699 -1.1159  0.1749 -0.3326
  952MOL0     O28388   1.983   6.536   2.624  0.3401 -1.5146  0.5069
  952MOL0     C28389   2.114   6.484   2.622 -0.2684  0.3793  0.4150
  952MOL0     C28390   2.216   6.540   2.551 -0.1798 -0.5459  0.4190
  952MOL0     C28391   2.341   6.480   2.526 -0.3260 -0.8165  0.2465
  952MOL0     C28392   2.374   6.355   2.572  0.5259  0.1038  0.2353
  952MOL0     O28393   2.509   6.317   2.569  0.1334 -1.0713  0.4317
  952MOL0     C28394   2.536   6.188   2.622 -0.0697  0.8213 -0.7331
  952MOL0     C28395   2.690   6.200   2.655  0.4694  0.1378 -0.1423
  952MOL0     C28396   2.736   6.059   2.690 -0.0179 -0.0635  0.2056
  952MOL0     C28397   2.889   6.075   2.721  0.0184 -0.4514 -0.4493
  952MOL0     C28398   2.958   5.946   2.759 -0.3619  0.7803 -0.9956
  952MOL0     C28399   2.914   5.883   2.892  0.3623  1.3082  0.0064
  952MOL0     C28400   3.013   5.773   2.937  0.1695  0.1533 -0.8359
  952MOL0     C28401   2.983   5.707   3.076  0.2926 -0.1601 -0.8481
  952MOL0     N28402   2.869   5.609   3.077 -0.0397  0.7059  0.1158
  952MOL0     C28403   2.882   5.469   3.111  0.4202 -1.2987 -0.6127
  952MOL0     C28404   2.752   5.422   3.094 -0.7452  0.6538  0.2326
  952MOL0     C28405   2.711   5.278   3.131  0.0397 -0.3206 -0.7985
  952MOL0     C28406   2.611   5.210   3.024 -0.6602 -0.2688 -1.0871
  952MOL0     C28407   2.577   5.066   3.062 -0.4145  0.3576  0.1590
  952MOL0     C28408   2.698   4.970   3.026  0.2917 -1.0814 -0.2701
  952MOL0     O28409   2.695   4.904   2.896  0.4882 -0.7868  0.5755
  952MOL0     C28410   2.666   4.982   2.790 -1.0781  0.4381  1.1266
  952MOL0     C28411   2.772   5.036   2.720 -0.6409  0.3524 -0.1302
  952MOL0     C28412   2.753   5.118   2.603 -0.6217  0.8033  0.3205
  952MOL0     C28413   2.625   5.135   2.558 -0.2146  0.1461  0.5324
  952MOL0     C28414   2.606   5.210   2.426  0.4616  0.5559 -0.8859
  952MOL0     O28415   2.490   5.177   2.354  0.3152 -0.2297  0.2609
  952MOL0     C28416   2.471   5.252   2.229  0.6419  1.4391 -0.6291
  952MOL0     C28417   2.457   5.390   2.226 -0.1361 -0.3719  0.3212
  952MOL0     C28418   2.404   5.462   2.115 -0.0622  0.0529  0.9924
  952MOL0     C28419   2.368   5.394   1.999  0.5463 -0.3226  0.9795
  952MOL0     O28420   2.306   5.473   1.898  0.0598  0.4868 -0.7760
  952MOL0     C28421   2.254   5.394   1.791  0.6598 -0.3803 -0.8862
  952MOL0     C28422   2.225   5.494   1.674  0.0880 -0.0146  0.3089
  952MOL0     C28423   2.359   5.583   1.651 -0.0537  0.1808  0.3318
  952MOL0     C28424   2.342   5.710   1.554 -0.6677 -0.3314  0.6995
  952MOL0     C28425   2.480   5.769   1.527 -0.1823  0.1790 -0.3412
  952MOL0     C28426   2.588   5.666   1.485 -0.2160  0.5549 -0.1153
  952MOL0     C28427   2.704   5.718   1.400 -0.0132 -0.1332 -0.2801
  952MOL0     C28428   2.748   5.861   1.439 -0.5441  1.4238 -0.2001
  952MOL0    Cl28429   2.887   5.882   1.344 -0.4691 -0.3980  0.3429
  952MOL0     C28430   2.350   5.258   2.012  0.1089  0.1889  0.2588
  952MOL0     C28431   2.408   5.186   2.124  0.3454  0.0009 -0.5501
  952MOL0     O28432   2.691   5.297   2.393  0.7810  0.9161  0.1428
  952MOL0     C28433   2.515   5.070   2.630  0.6570  0.6285 -0.2612
  952MOL0     C28434   2.537   4.999   2.742 -0.2156 -0.0569  0.3408
  952MOL0     N28435   2.673   5.523   3.049 -0.2649 -0.0856 -0.2532
  952MOL0     N28436   2.741   5.635   3.033 -0.6857  0.1075  0.0327
  952MOL0     C28437   2.261   6.283   2.628  0.3353  0.3924  0.5782
  952MOL0     C28438   2.140   6.348   2.666 -0.7471 -0.0008  1.4364
  952MOL0     C28439   1.838   6.721   2.677  0.2268  0.3284 -1.0944
  952MOL0     C28440   1.746   6.661   2.601 -0.2705 -0.2930 -0.2129
  952MOL0     C28441   1.616   6.709   2.586  0.4131 -0.6011 -0.0942
  952MOL0     C28442   1.572   6.824   2.656  0.6301 -0.5863 -0.0141
  952MOL0     O28443   1.439   6.862   2.649 -0.6213 -0.4486  0.5087
  952MOL0     C28444   1.348   6.811   2.741  0.5406  0.1917 -1.1393
  952MOL0     C28445   1.201   6.868   2.718 -0.0363  0.2103  0.4590
  952MOL0     C28446   1.174   6.999   2.758 -1.3143 -0.5887 -0.5273
  952MOL0     C28447   1.028   7.040   2.744 -0.3641  0.0499  0.9121
  952MOL0     C28448   1.018   7.166   2.818  0.0967 -0.8062  0.3322
  952MOL0     C28449   1.033   7.271   2.879  0.1356 -0.4854  0.2208
  952MOL0     C28450   1.666   6.887   2.737 -1.2892  0.1126  0.5790
  952MOL0     C28451   1.798   6.840   2.748  0.9605 -1.0003 -0.0467
  952MOL0     C28452   1.884   6.942   2.828 -0.2282  0.8234 -0.2975
  952MOL0     H28453   2.196   6.632   2.498  0.1990  0.0393  1.2726
  952MOL0     H28454   2.406   6.541   2.464 -1.9874  0.0871 -0.6918
  952MOL0     H28455   2.477   6.166   2.711  0.0429  0.7055 -0.6852
  952MOL0     H28456   2.519   6.120   2.537  0.7171 -1.4985  0.8611
  952MOL0     H28457   2.707   6.275   2.733 -1.1129  2.9758 -2.3570
  952MOL0     H28458   2.733   6.227   2.558 -0.7651 -0.3185 -0.8378
  952MOL0     H28459   2.748   5.994   2.603  3.2407 -0.3081  0.7010
  952MOL0     H28460   2.689   6.020   2.781 -0.8800  0.5201  0.0214
  952MOL0     H28461   2.929   6.118   2.629  2.3326 -0.2709  0.5779
  952MOL0     H28462   2.902   6.143   2.806 -2.8863 -1.4913  0.9731
  952MOL0     H28463   2.948   5.889   2.666  0.9141 -1.0982 -0.0414
  952MOL0     H28464   3.066   5.962   2.766 -0.5219  1.8665 -0.8030
  952MOL0     H28465   2.914   5.956   2.974 -0.7545  0.9621  0.3417
  952MOL0     H28466   2.813   5.843   2.876  0.4879  0.5117  1.0728
  952MOL0     H28467   3.112   5.821   2.940 -0.6074  1.7676  0.0039
  952MOL0     H28468   3.025   5.701   2.856 -1.7403 -0.4643 -0.6198
  952MOL0     H28469   3.075   5.661   3.115 -0.2995 -1.1095 -0.5533
  952MOL0     H28470   2.958   5.785   3.149  1.3588  1.5895 -2.2729
  952MOL0     H28471   2.972   5.412   3.131  2.0237  1.9169  2.3371
  952MOL0     H28472   2.801   5.216   3.133  0.4690  0.1195 -3.1317
  952MOL0     H28473   2.668   5.285   3.231  1.5557 -0.3075 -0.1331
  952MOL0     H28474   2.522   5.274   3.026 -1.1514 -0.7434 -3.9164
  952MOL0     H28475   2.642   5.211   2.919 -0.2060  2.4634 -1.0102
  952MOL0     H28476   2.490   5.044   3.000 -0.3661 -1.3091  0.6417
  952MOL0     H28477   2.538   5.055   3.163  0.5343  1.1503  0.6372
  952MOL0     H28478   2.704   4.895   3.106  1.6484  1.3460  2.0468
  952MOL0     H28479   2.796   5.019   3.031  1.6895 -3.5079 -1.7049
  952MOL0     H28480   2.874   5.014   2.751  0.0108  0.4356 -2.1191
  952MOL0     H28481   2.838   5.173   2.565  0.7917 -2.6648 -2.0309
  952MOL0     H28482   2.471   5.441   2.322 -1.3520  0.5136  0.0544
  952MOL0     H28483   2.389   5.569   2.119 -2.2369 -0.1280 -0.4423
  952MOL0     H28484   2.332   5.321   1.765 -0.0342 -1.8754  1.0038
  952MOL0     H28485   2.156   5.350   1.813  0.5783  0.3168  0.1960
  952MOL0     H28486   2.199   5.430   1.589  0.7697  1.1564 -0.8091
  952MOL0     H28487   2.140   5.561   1.690  1.3548  1.5033  1.0157
  952MOL0     H28488   2.383   5.632   1.746  1.6905  3.4920 -1.6465
  952MOL0     H28489   2.442   5.514   1.631  0.2314  0.5424  0.2684
  952MOL0     H28490   2.273   5.786   1.592 -0.6482 -1.5200  3.2849
  952MOL0     H28491   2.305   5.689   1.453  2.0999  1.0993 -0.7303
  952MOL0     H28492   2.520   5.826   1.611  1.7045 -1.7720  0.1891
  952MOL0     H28493   2.462   5.833   1.440  1.5112  2.0268  0.5803
  952MOL0     H28494   2.627   5.620   1.576  0.0207 -2.0359 -1.4267
  952MOL0     H28495   2.543   5.587   1.423  0.2898  1.8343 -2.2155
  952MOL0     H28496   2.671   5.732   1.297  0.2468 -0.8568 -0.4691
  952MOL0     H28497   2.786   5.646   1.406 -0.1220 -0.2262  0.1068
  952MOL0     H28498   2.664   5.927   1.413  0.9657  3.6746  0.4133
  952MOL0     H28499   2.768   5.883   1.544 -1.0319  0.5341  0.0977
  952MOL0     H28500   2.299   5.199   1.937 -0.9659 -0.4683  1.4622
  952MOL0     H28501   2.414   5.078   2.132  3.4612  0.0221 -1.3922
  952MOL0     H28502   2.411   5.077   2.600  0.5062 -1.6196 -0.4593
  952MOL0     H28503   2.454   4.951   2.793 -0.6828 -1.9530 -2.0026
  952MOL0     H28504   2.271   6.179   2.654  1.0157 -0.2725 -2.0291
  952MOL0     H28505   2.067   6.283   2.713 -0.1666 -0.5700  1.5656
  952MOL0     H28506   1.771   6.581   2.532  1.2411 -0.9867  1.0971
  952MOL0     H28507   1.543   6.662   2.522 -3.0295  1.7666  1.7881
  952MOL0     H28508   1.381   6.819   2.845 -0.2727 -2.7232 -0.5574
  952MOL0     H28509   1.332   6.705   2.719  0.3594  0.0157 -0.1817
  952MOL0     H28510   1.135   6.797   2.768 -0.7079  1.2412  1.0670
  952MOL0     H28511   1.197   6.850   2.610 -0.4725 -0.9262  0.6576
  952MOL0     H28512   1.228   7.064   2.689 -1.8421  1.5877  0.9955
  952MOL0     H28513   1.210   7.021   2.859 -0.5900 -1.6612 -0.5367
  952MOL0     H28514   1.005   7.055   2.638  0.3963  1.1533  0.8778
  952MOL0     H28515   0.961   6.970   2.793 -2.6506  0.9749 -0.7207
  952MOL0     H28516   1.043   7.359   2.940  2.0784 -1.4118  1.3288
  952MOL0     H28517   1.641   6.981   2.786 -3.0728 -0.1765  0.3110
  952MOL0     H28518   1.864   7.045   2.795  4.2293  3.6699  4.3406
  952MOL0     H28519   1.873   6.950   2.936  0.9462  1.9521 -0.2393
  952MOL0     H28520   1.990   6.933   2.801 -0.3999  1.9284 -1.4820
  953MOL0     O28521   3.241   1.181   3.021  0.2249  0.3072  0.1874
  953MOL0     C28522   3.250   1.290   3.080 -1.2071 -0.4747 -0.1742
  953MOL0     O28523   3.152   1.384   3.080  0.4908 -0.0851  0.6965
  953MOL0     C28524   3.056   1.360   2.990 -0.6683 -0.1790  0.5729
  953MOL0     C28525   3.059   1.424   2.866  0.5943  1.1237  0.5725
  953MOL0     C28526   2.969   1.404   2.760 -0.3133 -0.4107 -0.1658
  953MOL0     C28527   2.867   1.315   2.785 -0.2027 -0.8550 -0.0919
  953MOL0     O28528   2.775   1.289   2.690 -0.3291  0.5977  0.4170
  953MOL0     C28529   2.639   1.326   2.721  0.8382 -0.6494 -0.7295
  953MOL0     C28530   2.606   1.476   2.733 -0.0533 -1.2847  0.0088
  953MOL0     C28531   2.458   1.499   2.775  0.6964  0.1207  0.5080
  953MOL0     C28532   2.362   1.493   2.650 -0.7465  0.3156  0.4611
  953MOL0     C28533   2.326   1.623   2.580 -0.1972 -0.3364  0.3256
  953MOL0     C28534   2.234   1.701   2.669  0.8633  0.1683 -0.9326
  953MOL0     C28535   2.170   1.819   2.597  0.5157 -0.7989  0.3478
  953MOL0     C28536   2.258   1.935   2.546 -0.4577  0.0061  0.5256
  953MOL0     N28537   2.369   1.989   2.624 -0.0945  0.3652 -0.6209
  953MOL0     C28538   2.499   1.988   2.571 -1.3284 -0.2967 -0.2701
  953MOL0     C28539   2.553   2.101   2.621  0.7621  0.6987 -1.0658
  953MOL0     C28540   2.691   2.141   2.606 -0.3661 -0.9353 -0.4475
  953MOL0     C28541   2.726   2.277   2.545 -0.3550  0.2210  0.7030
  953MOL0     C28542   2.781   2.266   2.410 -0.5138  0.3083 -1.0387
  953MOL0     C28543   2.803   2.398   2.356 -0.3973 -1.0273  0.4439
  953MOL0     O28544   2.683   2.472   2.332  0.4986  0.6840 -0.1024
  953MOL0     C28545   2.708   2.577   2.248  0.5614  0.3873  0.3637
  953MOL0     C28546   2.740   2.702   2.302 -0.0734  0.6813  0.6877
  953MOL0     C28547   2.756   2.816   2.218  0.2555 -0.2462  0.1744
  953MOL0     C28548   2.736   2.797   2.078  0.3927  0.3389  0.5338
  953MOL0     C28549   2.765   2.906   1.976 -0.9717  1.1706 -1.2752
  953MOL0     O28550   2.819   2.858   1.864 -0.1102  0.2940  0.5143
  953MOL0     C28551   2.844   2.938   1.755  0.0847 -1.1269  0.3403
  953MOL0     C28552   2.969   3.003   1.737 -0.0636  0.7199 -1.3858
  953MOL0     C28553   2.994   3.081   1.626  0.5654  0.2362  1.1818
  953MOL0     C28554   2.885   3.082   1.526 -0.1556  0.5597  0.7690
  953MOL0     O28555   2.915   3.143   1.407  0.3452  0.1491  0.7104
  953MOL0     C28556   2.970   3.063   1.305  0.7033 -0.6008 -0.0246
  953MOL0     C28557   2.997   3.146   1.175  1.0346 -0.1725  0.7367
  953MOL0     C28558   3.028   3.037   1.063  0.1694 -0.1206  0.0796
  953MOL0     C28559   3.016   3.114   0.931 -0.3297 -0.3264  0.1035
  953MOL0     C28560   3.099   3.022   0.836  0.2098 -0.0348 -0.6342
  953MOL0     C28561   3.054   3.055   0.686  0.2517 -0.5121 -0.4066
  953MOL0     C28562   3.163   3.043   0.587  0.4789  0.0236 -0.1636
  953MOL0     C28563   3.234   2.905   0.570 -0.3405  0.2522 -1.0367
  953MOL0    Cl28564   3.357   2.870   0.696 -0.3166  0.0057  0.2035
  953MOL0     C28565   2.762   3.014   1.541  0.8056 -0.0602  1.0198
  953MOL0     C28566   2.732   2.959   1.661 -0.0611  0.4075  0.0777
  953MOL0     O28567   2.737   3.025   2.003 -0.5380  0.4205 -0.3354
  953MOL0     C28568   2.714   2.669   2.027  0.4342 -0.9325  0.3244
  953MOL0     C28569   2.699   2.557   2.110 -0.0438 -0.5809  0.7350
  953MOL0     N28570   2.462   2.159   2.714  0.9510 -0.0415 -0.0908
  953MOL0     N28571   2.353   2.097   2.711 -0.6067  0.2197 -0.1245
  953MOL0     C28572   2.849   1.250   2.906 -0.6720 -0.9291 -0.0860
  953MOL0     C28573   2.946   1.270   3.005 -0.1883 -0.3168  0.2732
  953MOL0     C28574   3.339   1.290   3.193 -0.1347  0.4985 -0.2397
  953MOL0     C28575   3.316   1.401   3.283 -0.0907 -0.8685  0.3735
  953MOL0     C28576   3.396   1.415   3.401  0.2995  0.4967  0.0473
  953MOL0     C28577   3.508   1.334   3.425 -0.0137  0.2514 -0.1587
  953MOL0     O28578   3.587   1.367   3.534  0.1864 -0.0230 -0.1189
  953MOL0     C28579   3.702   1.285   3.564 -0.2131 -0.0969  0.5298
  953MOL0     C28580   3.772   1.330   3.691 -0.5796 -0.0622 -0.2189
  953MOL0     C28581   3.902   1.253   3.717  0.6200  0.5411  0.6567
  953MOL0     C28582   3.993   1.316   3.818 -0.2004 -0.2232  0.8644
  953MOL0     C28583   4.058   1.438   3.769  0.4501  0.1538 -0.8344
  953MOL0     C28584   4.087   1.542   3.718  0.5943 -0.7581  0.8406
  953MOL0     C28585   3.530   1.231   3.328  1.6731 -0.2401 -0.4273
  953MOL0     C28586   3.434   1.189   3.234 -0.0784  0.3757 -1.1178
  953MOL0     C28587   3.464   1.054   3.172 -0.1680  0.6120 -0.3970
  953MOL0     H28588   3.143   1.490   2.849  1.0549  0.3305 -0.3013
  953MOL0     H28589   2.984   1.456   2.665  1.0247 -0.8118 -0.2012
  953MOL0     H28590   2.565   1.281   2.653  1.1643 -2.1046 -0.1688
  953MOL0     H28591   2.612   1.276   2.815  2.3548  0.6858  0.4763
  953MOL0     H28592   2.628   1.540   2.648 -3.3742  2.9864  2.0074
  953MOL0     H28593   2.671   1.525   2.806  1.4929 -0.3097 -1.9401
  953MOL0     H28594   2.428   1.597   2.814  1.0223  1.2464 -1.8792
  953MOL0     H28595   2.429   1.420   2.844  0.7924 -1.8222 -1.5617
  953MOL0     H28596   2.406   1.423   2.578 -2.3583 -0.6828  0.4124
  953MOL0     H28597   2.269   1.444   2.679 -0.4201  0.5614  2.0186
  953MOL0     H28598   2.415   1.686   2.570 -0.2464 -0.0613  1.4098
  953MOL0     H28599   2.275   1.605   2.485  1.3663  1.8810 -1.0172
  953MOL0     H28600   2.150   1.644   2.710  2.0077  0.4572  2.1035
  953MOL0     H28601   2.299   1.735   2.751  1.5927  0.7547 -1.7363
  953MOL0     H28602   2.106   1.872   2.668 -0.0304  0.4681 -1.0236
  953MOL0     H28603   2.100   1.788   2.518  0.1245 -0.3941  0.5273
  953MOL0     H28604   2.311   1.903   2.456  4.4917  0.7853  2.8301
  953MOL0     H28605   2.197   2.021   2.516 -0.2494  0.5410  1.6013
  953MOL0     H28606   2.542   1.922   2.496  0.2182 -0.8331  1.0448
  953MOL0     H28607   2.752   2.135   2.696  0.0376  1.1063 -0.5204
  953MOL0     H28608   2.726   2.067   2.534 -1.6611 -1.0643 -0.9596
  953MOL0     H28609   2.638   2.342   2.553 -2.1002 -1.7192 -1.3191
  953MOL0     H28610   2.801   2.325   2.608 -2.0384  2.7489  0.9406
  953MOL0     H28611   2.723   2.202   2.343  1.7368 -2.2906 -0.6711
  953MOL0     H28612   2.879   2.222   2.430 -0.7608  0.8340  1.7047
  953MOL0     H28613   2.870   2.395   2.269 -0.6004 -1.0208  0.2864
  953MOL0     H28614   2.873   2.456   2.417 -0.0713 -0.1661 -0.6939
  953MOL0     H28615   2.757   2.728   2.406  0.4672  2.1753  0.2509
  953MOL0     H28616   2.774   2.910   2.268  1.2988 -0.7240  0.7381
  953MOL0     H28617   3.044   2.974   1.809 -0.4923  0.2872 -1.1102
  953MOL0     H28618   3.090   3.129   1.615  1.3981 -1.3370  1.2891
  953MOL0     H28619   3.061   3.007   1.329  0.4628 -1.2402 -0.5751
  953MOL0     H28620   2.897   2.985   1.281 -0.0293  0.1462 -0.2799
  953MOL0     H28621   2.906   3.193   1.137  0.0974 -2.9447 -0.7168
  953MOL0     H28622   3.075   3.223   1.185  0.3884  0.3561  1.9836
  953MOL0     H28623   3.133   3.007   1.071  0.4576  0.8856  0.2232
  953MOL0     H28624   2.959   2.952   1.055 -0.2566  0.3351 -1.3219
  953MOL0     H28625   3.073   3.207   0.928  3.2343 -2.3310 -1.5681
  953MOL0     H28626   2.918   3.144   0.894  0.2512 -0.7628 -1.9236
  953MOL0     H28627   3.082   2.916   0.858  1.3795 -0.2178 -0.5124
  953MOL0     H28628   3.205   3.041   0.856 -0.2054  0.9866  0.7572
  953MOL0     H28629   2.974   2.982   0.673  0.3759 -1.7091  4.0003
  953MOL0     H28630   3.011   3.156   0.677  1.3300  0.1954  1.6683
  953MOL0     H28631   3.229   3.129   0.604 -0.0959  0.5057 -0.3231
  953MOL0     H28632   3.126   3.066   0.486  1.4660 -3.5309 -1.4610
  953MOL0     H28633   3.170   2.816   0.578 -0.3525  0.3391  0.0419
  953MOL0     H28634   3.286   2.905   0.474 -0.4305  2.7458 -1.1415
  953MOL0     H28635   2.697   2.988   1.458  0.4786  0.8339  0.9929
  953MOL0     H28636   2.651   2.886   1.665 -0.8706  0.6241 -5.1543
  953MOL0     H28637   2.701   2.669   1.920 -2.3908  0.8302  0.5691
  953MOL0     H28638   2.674   2.456   2.080 -1.9926  0.3047 -0.8554
  953MOL0     H28639   2.761   1.192   2.930 -1.5714  1.4663  3.0414
  953MOL0     H28640   2.937   1.211   3.096  1.5444 -0.7060  0.2240
  953MOL0     H28641   3.238   1.474   3.268  0.2685 -0.6955 -0.7366
  953MOL0     H28642   3.364   1.486   3.476 -2.8800 -0.4623 -0.2579
  953MOL0     H28643   3.768   1.278   3.477  1.7149  7.6136  0.6369
  953MOL0     H28644   3.686   1.181   3.593  2.6800 -0.4124  1.2936
  953MOL0     H28645   3.714   1.325   3.783 -1.6792  0.5204 -0.8529
  953MOL0     H28646   3.802   1.434   3.678  0.2241 -0.0663  1.4142
  953MOL0     H28647   3.953   1.230   3.623  4.1208 -0.8465  2.7073
  953MOL0     H28648   3.869   1.154   3.749 -1.1405  0.8138 -0.1638
  953MOL0     H28649   3.949   1.353   3.911  0.0000  0.6136  0.6367
  953MOL0     H28650   4.065   1.242   3.851  2.6842  2.7706  1.8067
  953MOL0     H28651   4.103   1.630   3.660 -0.6526  0.4097  2.2031
  953MOL0     H28652   3.611   1.169   3.363  0.9554  0.0795  2.0289
  953MOL0     H28653   3.567   1.016   3.175  0.0624  0.7430 -3.4841
  953MOL0     H28654   3.403   0.983   3.229  0.1916 -0.9646 -1.8855
  953MOL0     H28655   3.439   1.042   3.066  1.7795 -0.3280 -0.8128
  954MOL0     O28656   9.214   9.405  10.220  0.2674 -0.0122  0.4039
  954MOL0     C28657   9.156   9.451  10.320  0.6592 -0.7247 -0.0468
  954MOL0     O28658   9.091   9.382  10.419  0.0857 -0.1103 -0.4857
  954MOL0     C28659   9.053   9.254  10.413  0.1655 -0.5091 -0.8322
  954MOL0     C28660   9.011   9.189  10.525 -0.5416  0.2352 -0.8939
  954MOL0     C28661   8.962   9.060  10.529  0.3393  0.0395 -0.2679
  954MOL0     C28662   8.934   8.993  10.411 -0.0323  0.2214  0.9449
  954MOL0     O28663   8.877   8.864  10.399 -0.1829  0.6502  0.1348
  954MOL0     C28664   8.848   8.784  10.523 -0.0561  0.0833 -0.4638
  954MOL0     C28665   8.971   8.706  10.551 -0.4959 -0.5581 -0.3835
  954MOL0     C28666   8.956   8.616  10.673 -0.5642 -0.5725 -0.2521
  954MOL0     C28667   8.949   8.472  10.639  0.6096 -0.3304  0.9992
  954MOL0     C28668   9.095   8.406  10.635  0.1792 -0.6456  0.1040
  954MOL0     C28669   9.083   8.264  10.578 -0.1996 -0.4656 -0.3022
  954MOL0     C28670   9.216   8.198  10.587 -0.5809  0.0633 -0.3750
  954MOL0     C28671   9.186   8.055  10.552 -0.6291  0.5931 -0.1339
  954MOL0     N28672   9.319   7.987  10.547  0.4943  0.7304 -0.4334
  954MOL0     C28673   9.356   7.863  10.607 -0.0546  0.6705 -0.3901
  954MOL0     C28674   9.478   7.841  10.560 -0.6063 -0.6125  0.3431
  954MOL0     C28675   9.565   7.711  10.586  0.0595 -0.7797  0.7893
  954MOL0     C28676   9.613   7.661  10.447  1.2896  0.9492 -0.2021
  954MOL0     C28677   9.507   7.639  10.338 -0.2656  0.2460  0.3910
  954MOL0     C28678   9.575   7.603  10.206  0.5826  0.7043 -0.3776
  954MOL0     O28679   9.623   7.469  10.230  0.1120 -0.1261 -0.3021
  954MOL0     C28680   9.686   7.402  10.134  0.6173  0.0958 -0.5123
  954MOL0     C28681   9.714   7.263  10.157 -0.0275 -0.5193  0.7808
  954MOL0     C28682   9.776   7.189  10.048 -0.6604  0.6236 -0.1032
  954MOL0     C28683   9.808   7.247   9.926 -0.0400 -1.5200  0.3996
  954MOL0     C28684   9.877   7.158   9.830 -0.1365  0.0704 -0.7712
  954MOL0     O28685   9.892   7.022   9.864  0.2670  0.3149  0.4309
  954MOL0     C28686   9.952   6.938   9.768  0.0561 -0.2209 -0.3589
  954MOL0     C28687   9.903   6.911   9.640  0.0577 -0.3867 -0.3500
  954MOL0     C28688   9.969   6.832   9.553 -0.2539  0.3680 -0.8049
  954MOL0     C28689  10.069   6.743   9.597 -0.3137 -0.0840 -0.1843
  954MOL0     O28690  10.115   6.659   9.497  0.0690  1.0269  0.5168
  954MOL0     C28691  10.230   6.586   9.517 -0.0831 -0.3658  0.4983
  954MOL0     C28692  10.349   6.675   9.496  0.0160 -0.7682 -0.2249
  954MOL0     C28693  10.477   6.616   9.549 -0.1315  0.4903  0.1565
  954MOL0     C28694  10.543   6.505   9.457 -0.6836 -0.0759 -0.4756
  954MOL0     C28695  10.696   6.494   9.464  0.0665 -0.8453  0.0934
  954MOL0     C28696  10.745   6.443   9.595  0.1602 -0.7183 -0.0326
  954MOL0     C28697  10.905   6.441   9.588  0.5890 -0.7268  0.5390
  954MOL0     C28698  10.970   6.424   9.729  1.3285  0.3160 -0.2696
  954MOL0    Cl28699  10.917   6.558   9.829  0.1724 -0.1499 -0.6102
  954MOL0     C28700  10.129   6.772   9.724  0.4087 -0.0659  1.0662
  954MOL0     C28701  10.074   6.875   9.807 -0.6250 -0.1660  0.1076
  954MOL0     O28702   9.931   7.218   9.739 -0.1481 -0.6660  1.1151
  954MOL0     C28703   9.789   7.385   9.913 -0.8835  0.9042 -0.0136
  954MOL0     C28704   9.727   7.457  10.011 -0.6635  1.5307  0.3560
  954MOL0     N28705   9.518   7.941  10.486  0.3959  0.1616  0.0460
  954MOL0     N28706   9.421   8.027  10.469 -0.4904  0.3334  0.4444
  954MOL0     C28707   8.974   9.055  10.296 -0.3736  0.3925 -0.2277
  954MOL0     C28708   9.044   9.182  10.294  0.6229  0.4315  0.7790
  954MOL0     C28709   9.177   9.597  10.354 -0.4200  0.6023 -0.2785
  954MOL0     C28710   9.153   9.632  10.484 -0.1466 -0.1243 -1.2083
  954MOL0     C28711   9.189   9.758  10.539 -0.1006  0.2160 -0.0186
  954MOL0     C28712   9.239   9.864  10.450 -0.5142  1.4461  1.0779
  954MOL0     O28713   9.253   9.987  10.495 -0.0663  0.3814  0.1613
  954MOL0     C28714   9.306  10.094  10.409 -0.7129 -0.1111 -0.0932
  954MOL0     C28715   9.380  10.193  10.498  0.2711  0.3186  0.8797
  954MOL0     C28716   9.494  10.125  10.564 -0.0644  0.0024 -0.6838
  954MOL0     C28717   9.633  10.181  10.524 -0.6368  0.3073 -0.1989
  954MOL0     C28718   9.744  10.128  10.593 -1.3555 -0.3857 -0.0400
  954MOL0     C28719   9.838  10.081  10.648  0.2019 -0.1021 -0.8305
  954MOL0     C28720   9.242   9.826  10.314 -0.4806 -0.1678 -0.8520
  954MOL0     C28721   9.218   9.697  10.273 -0.7142 -0.3270  0.4077
  954MOL0     C28722   9.226   9.670  10.123 -0.7319  0.1889  0.4847
  954MOL0     H28723   9.024   9.259  10.607 -1.5337  2.9014 -2.8837
  954MOL0     H28724   8.933   9.017  10.624 -1.5968  2.2181  0.2406
  954MOL0     H28725   8.832   8.843  10.614  0.4675 -2.0973  1.1119
  954MOL0     H28726   8.768   8.710  10.515 -1.6018  1.8209 -1.9803
  954MOL0     H28727   9.047   8.782  10.569 -0.4220 -1.2410  2.8072
  954MOL0     H28728   8.995   8.657  10.457 -2.0533  2.6919 -2.6555
  954MOL0     H28729   8.886   8.654  10.748  0.6495  0.6428  0.3157
  954MOL0     H28730   9.047   8.624  10.733 -1.2675  1.4630  0.6314
  954MOL0     H28731   8.890   8.436  10.724 -1.3599 -1.9403 -0.9392
  954MOL0     H28732   8.899   8.460  10.542  0.8836 -2.6124  1.0925
  954MOL0     H28733   9.172   8.465  10.584  1.4273 -0.0263  2.5744
  954MOL0     H28734   9.135   8.390  10.735  2.0807 -2.0146 -0.8127
  954MOL0     H28735   8.994   8.218  10.621 -2.6529  4.0788  0.2047
  954MOL0     H28736   9.065   8.263  10.470 -1.2496 -1.8363 -0.1363
  954MOL0     H28737   9.257   8.209  10.688 -1.8860  1.6758  0.0207
  954MOL0     H28738   9.283   8.249  10.518 -2.2547  0.1242 -2.0044
  954MOL0     H28739   9.111   8.014  10.620  2.7147 -0.1489  3.4880
  954MOL0     H28740   9.143   8.051  10.452  1.3462  1.1365 -1.0595
  954MOL0     H28741   9.286   7.801  10.662 -0.8931  1.9402  0.0262
  954MOL0     H28742   9.656   7.744  10.637  0.6738  0.3616 -0.9787
  954MOL0     H28743   9.516   7.631  10.644  0.9423 -0.0306  2.6731
  954MOL0     H28744   9.681   7.736  10.405  2.9327 -1.3417 -1.8591
  954MOL0     H28745   9.659   7.563  10.461  2.6798  1.2594 -2.1781
  954MOL0     H28746   9.453   7.734  10.333 -0.3130  0.1767 -0.6775
  954MOL0     H28747   9.438   7.559  10.366 -1.1614  1.5496  2.0348
  954MOL0     H28748   9.661   7.668  10.188  2.4843 -1.7668 -0.9717
  954MOL0     H28749   9.503   7.605  10.124 -1.0709  0.3836  1.0228
  954MOL0     H28750   9.707   7.227  10.259 -0.3168 -1.6191  0.3884
  954MOL0     H28751   9.807   7.085  10.059  0.6472  0.5767 -3.1244
  954MOL0     H28752   9.821   6.975   9.610  1.4837  1.4436 -0.5366
  954MOL0     H28753   9.919   6.829   9.456  1.8885  0.3206 -1.9617
  954MOL0     H28754  10.218   6.537   9.614 -0.8298 -3.8686 -1.2370
  954MOL0     H28755  10.229   6.516   9.433 -0.1119  1.8755 -1.4790
  954MOL0     H28756  10.342   6.725   9.399 -2.4600 -0.9278 -0.1968
  954MOL0     H28757  10.339   6.752   9.573 -2.4679 -1.6873  0.4524
  954MOL0     H28758  10.551   6.696   9.564  0.9904 -0.4588 -0.2134
  954MOL0     H28759  10.463   6.573   9.649  0.5837  2.8288  1.3589
  954MOL0     H28760  10.507   6.508   9.353 -0.7136  1.0099 -0.4486
  954MOL0     H28761  10.509   6.409   9.497  3.0216 -2.4596 -2.4144
  954MOL0     H28762  10.744   6.588   9.436 -1.7626  0.1907  0.2640
  954MOL0     H28763  10.729   6.423   9.388  0.5650 -1.4827  0.8973
  954MOL0     H28764  10.699   6.508   9.670  1.4226  1.5468 -1.1331
  954MOL0     H28765  10.705   6.344   9.622  2.2795 -1.3021  1.2162
  954MOL0     H28766  10.946   6.531   9.542  1.0101 -0.0431  2.1867
  954MOL0     H28767  10.943   6.366   9.518  0.3419  1.3809 -2.0000
  954MOL0     H28768  10.941   6.332   9.780 -0.7757  1.1992  0.2342
  954MOL0     H28769  11.077   6.444   9.716  1.0169  0.8540 -2.4151
  954MOL0     H28770  10.220   6.720   9.752  1.6650  0.6777 -1.3346
  954MOL0     H28771  10.123   6.909   9.898 -1.3857  0.6968  0.2086
  954MOL0     H28772   9.834   7.441   9.832  1.7038 -0.6188  0.2511
  954MOL0     H28773   9.714   7.564   9.996 -2.2575  1.2346 -0.5721
  954MOL0     H28774   8.945   9.003  10.205 -0.1347  0.5692 -0.4054
  954MOL0     H28775   9.067   9.222  10.196  1.5112 -2.9339 -0.5511
  954MOL0     H28776   9.110   9.575  10.566 -0.6530  4.2703  1.9082
  954MOL0     H28777   9.180   9.786  10.643  0.0228  0.1128  0.0203
  954MOL0     H28778   9.228  10.144  10.350 -0.1217  0.3863 -0.4691
  954MOL0     H28779   9.372  10.053  10.333  0.5343 -1.0137  1.4203
  954MOL0     H28780   9.310  10.239  10.568 -0.1892  1.0401 -0.0368
  954MOL0     H28781   9.415  10.277  10.437  1.0300 -1.4285 -1.2558
  954MOL0     H28782   9.502  10.021  10.533  3.7476 -0.0638  0.0322
  954MOL0     H28783   9.484  10.134  10.673 -1.3238  2.7252 -0.9248
  954MOL0     H28784   9.646  10.150  10.420 -1.6210 -1.2174  0.0984
  954MOL0     H28785   9.634  10.290  10.534 -3.4743  0.4353 -0.3480
  954MOL0     H28786   9.909  10.026  10.706 -1.4190 -3.0995 -1.4862
  954MOL0     H28787   9.291   9.900  10.251  2.9656 -1.9170 -0.4946
  954MOL0     H28788   9.132   9.624  10.092 -0.5003  0.6586 -0.9577
  954MOL0     H28789   9.230   9.766  10.071 -3.9944  0.1329 -0.0563
  954MOL0     H28790   9.308   9.603  10.095 -1.2071  0.7419 -2.4791
  955MOL0     O28791   1.094   3.329   1.783  0.1359 -0.0798  0.2165
  955MOL0     C28792   1.074   3.422   1.702 -0.3593 -0.1162 -0.5919
  955MOL0     O28793   1.005   3.411   1.583 -0.3739  1.3920  0.5326
  955MOL0     C28794   0.930   3.290   1.562 -0.6607  0.0592 -0.0801
  955MOL0     C28795   0.905   3.243   1.431  0.5830  0.7001 -0.7125
  955MOL0     C28796   0.817   3.140   1.409  0.5770 -0.2918  0.3663
  955MOL0     C28797   0.740   3.078   1.501  0.1233 -0.8989 -1.4381
  955MOL0     O28798   0.645   2.982   1.467 -0.4879 -1.0226 -0.1700
  955MOL0     C28799   0.509   3.015   1.516 -0.9490  0.6900  0.0449
  955MOL0     C28800   0.415   2.904   1.468 -1.6003 -0.8839  0.2872
  955MOL0     C28801   0.276   2.915   1.531  1.0814  0.2924  0.5517
  955MOL0     C28802   0.170   2.974   1.431  0.2553  0.6190  0.2042
  955MOL0     C28803   0.032   3.001   1.478  0.3677 -0.7339  0.2977
  955MOL0     C28804  -0.046   2.876   1.486  0.1298  0.0022  0.2961
  955MOL0     C28805  -0.168   2.872   1.573 -0.8559 -0.1768 -0.0412
  955MOL0     C28806  -0.234   2.730   1.554 -0.3785 -0.2690 -0.3411
  955MOL0     N28807  -0.317   2.714   1.429  0.1262 -0.3700  0.9773
  955MOL0     C28808  -0.432   2.783   1.400 -0.4618  0.1538  0.0162
  955MOL0     C28809  -0.451   2.755   1.267  0.0186 -0.1426  0.6041
  955MOL0     C28810  -0.568   2.814   1.194  1.1809  0.4382 -0.2962
  955MOL0     C28811  -0.543   2.954   1.135  0.4331  0.9610 -0.0587
  955MOL0     C28812  -0.668   3.003   1.062 -0.4190 -0.7659 -0.5614
  955MOL0     C28813  -0.655   3.126   0.976 -0.9101  0.6315  0.1286
  955MOL0     O28814  -0.758   3.140   0.865 -0.5376 -1.1065  0.1168
  955MOL0     C28815  -0.779   3.262   0.806 -0.8008  0.1169 -0.4053
  955MOL0     C28816  -0.697   3.379   0.826  0.2628  0.2331 -0.0418
  955MOL0     C28817  -0.725   3.489   0.741 -0.3639 -0.0252 -0.0602
  955MOL0     C28818  -0.829   3.490   0.648 -0.1101  0.1527  0.1481
  955MOL0     C28819  -0.855   3.596   0.549 -0.6538 -0.2495 -0.4776
  955MOL0     O28820  -0.966   3.584   0.475  0.1899  0.1746  0.1605
  955MOL0     C28821  -0.997   3.683   0.388  0.3409  0.2799 -0.5949
  955MOL0     C28822  -1.126   3.737   0.396 -0.6563  0.3966 -0.1377
  955MOL0     C28823  -1.160   3.840   0.321 -0.4074 -0.2583  1.1370
  955MOL0     C28824  -1.085   3.874   0.206 -0.5692 -0.1063 -0.4021
  955MOL0     O28825  -1.127   3.974   0.118  1.4969 -0.2442 -0.6860
  955MOL0     C28826  -1.083   3.979  -0.024 -0.4465 -0.0494  0.3792
  955MOL0     C28827  -1.196   4.057  -0.097 -0.6396  0.0271 -0.2995
  955MOL0     C28828  -1.190   4.206  -0.060  0.2621  0.1141 -1.7484
  955MOL0     C28829  -1.260   4.293  -0.164  0.1313  0.4377  0.2307
  955MOL0     C28830  -1.336   4.420  -0.112 -0.3136  0.2860 -0.3219
  955MOL0     C28831  -1.401   4.487  -0.232  0.3199 -0.9788  0.9876
  955MOL0     C28832  -1.461   4.620  -0.182  0.4890  0.1945 -0.2483
  955MOL0     C28833  -1.533   4.705  -0.294  0.2889  0.4162  0.0286
  955MOL0    Cl28834  -1.711   4.708  -0.269  0.2639 -0.1189  0.1417
  955MOL0     C28835  -0.957   3.827   0.194 -0.3307  0.1463  0.1358
  955MOL0     C28836  -0.910   3.740   0.296 -0.5590  0.5164 -0.3624
  955MOL0     O28837  -0.778   3.692   0.549 -0.2566  0.3951  0.4255
  955MOL0     C28838  -0.919   3.384   0.651 -0.4087 -0.0072  0.1038
  955MOL0     C28839  -0.894   3.273   0.726 -0.1787 -0.6650 -0.3334
  955MOL0     N28840  -0.359   2.671   1.208 -0.2769 -0.7285  0.4080
  955MOL0     N28841  -0.272   2.656   1.310  0.0484  0.0903  0.6155
  955MOL0     C28842   0.751   3.130   1.630 -0.8853 -1.0360 -0.2695
  955MOL0     C28843   0.858   3.232   1.658 -1.0827 -0.5300 -1.0094
  955MOL0     C28844   1.133   3.560   1.747 -0.3088  0.5422  1.8184
  955MOL0     C28845   1.119   3.668   1.649  1.4083  1.3153 -0.5979
  955MOL0     C28846   1.151   3.804   1.688  0.3596 -0.0683  0.0496
  955MOL0     C28847   1.197   3.834   1.812  0.2005  0.0970 -0.7118
  955MOL0     O28848   1.225   3.967   1.841  0.4320 -0.0800  0.9136
  955MOL0     C28849   1.237   4.010   1.973 -0.9627 -0.8056  0.3594
  955MOL0     C28850   1.113   4.008   2.056  0.8671  0.0658 -0.5415
  955MOL0     C28851   0.998   4.086   1.993  0.0113  0.2409  0.1435
  955MOL0     C28852   0.881   4.103   2.093 -0.0666 -0.2102  0.0948
  955MOL0     C28853   0.765   4.148   2.013 -0.1906 -0.0308 -0.2495
  955MOL0     C28854   0.664   4.189   1.955 -0.3918  0.5703 -0.2865
  955MOL0     C28855   1.212   3.735   1.911 -0.2215  1.2980 -1.2601
  955MOL0     C28856   1.173   3.600   1.874 -0.5902 -1.0945  0.3227
  955MOL0     C28857   1.184   3.496   1.994 -0.4053  0.1313 -0.3283
  955MOL0     H28858   0.959   3.283   1.346 -2.6302  0.8125 -2.8562
  955MOL0     H28859   0.806   3.098   1.310  0.2415 -1.3336  0.8376
  955MOL0     H28860   0.506   3.015   1.625  2.5543  3.7863  0.3342
  955MOL0     H28861   0.469   3.109   1.476  0.5458  1.3880  0.1532
  955MOL0     H28862   0.460   2.805   1.476  1.2989  0.4178  1.5029
  955MOL0     H28863   0.416   2.929   1.361  2.3048  0.1464  0.4101
  955MOL0     H28864   0.275   2.986   1.614 -0.4253  0.5589  0.3375
  955MOL0     H28865   0.244   2.819   1.572 -2.7467  1.4665  0.6990
  955MOL0     H28866   0.196   3.069   1.382  5.0174 -0.6810 -0.2348
  955MOL0     H28867   0.151   2.903   1.350  2.4836  2.1366 -1.7715
  955MOL0     H28868   0.040   3.059   1.570 -0.5865 -1.6081  0.9648
  955MOL0     H28869  -0.026   3.065   1.410  1.4683 -1.7236 -1.6537
  955MOL0     H28870  -0.070   2.842   1.384  2.3024 -1.5993  0.2504
  955MOL0     H28871   0.008   2.788   1.523 -0.2149 -0.6086 -0.5943
  955MOL0     H28872  -0.249   2.946   1.560 -1.1026  0.2340  3.0997
  955MOL0     H28873  -0.133   2.899   1.673 -2.2504 -0.5439  0.5702
  955MOL0     H28874  -0.154   2.657   1.571 -0.8667 -0.6804  0.2633
  955MOL0     H28875  -0.288   2.702   1.646  4.4737 -0.6399  2.7428
  955MOL0     H28876  -0.504   2.835   1.462 -0.4384 -1.0679  1.1148
  955MOL0     H28877  -0.612   2.735   1.132 -0.0184 -0.6161  1.7729
  955MOL0     H28878  -0.636   2.831   1.279  1.5208  3.4096 -0.5030
  955MOL0     H28879  -0.508   3.017   1.217  1.6925 -1.5859  1.4797
  955MOL0     H28880  -0.472   2.953   1.052 -0.1011  1.7708 -0.5374
  955MOL0     H28881  -0.735   3.017   1.148  1.3064 -1.4850  0.9764
  955MOL0     H28882  -0.698   2.918   1.002  0.0668 -0.2257 -1.5875
  955MOL0     H28883  -0.554   3.119   0.935  0.3524  0.5978  3.0449
  955MOL0     H28884  -0.663   3.219   1.033 -0.4815  2.2443 -2.2695
  955MOL0     H28885  -0.619   3.384   0.900  0.2770  0.1717 -0.0518
  955MOL0     H28886  -0.657   3.573   0.746  1.2157 -1.3419  2.8643
  955MOL0     H28887  -1.183   3.682   0.471  0.9090 -2.6150 -0.9973
  955MOL0     H28888  -1.255   3.891   0.329  0.2781  1.3882 -0.4696
  955MOL0     H28889  -0.987   4.030  -0.032 -0.4293  0.3160  2.3056
  955MOL0     H28890  -1.065   3.884  -0.075  2.3088  0.7105 -0.2135
  955MOL0     H28891  -1.173   4.056  -0.204  0.4289  0.4861 -0.0884
  955MOL0     H28892  -1.286   4.004  -0.067  1.2353 -2.9831  0.3827
  955MOL0     H28893  -1.238   4.219   0.037  0.8230 -0.2612 -1.4171
  955MOL0     H28894  -1.087   4.238  -0.046 -0.3890  1.1541  1.3916
  955MOL0     H28895  -1.341   4.232  -0.205 -1.2467  1.7281  0.9156
  955MOL0     H28896  -1.193   4.316  -0.248  0.0395 -0.0487  0.0203
  955MOL0     H28897  -1.267   4.495  -0.072  0.2896 -1.5049  2.2010
  955MOL0     H28898  -1.417   4.388  -0.047  1.5434 -1.8597  1.0909
  955MOL0     H28899  -1.328   4.491  -0.314  0.1813 -3.5794  0.6500
  955MOL0     H28900  -1.484   4.429  -0.272  0.7806 -0.1890 -1.2722
  955MOL0     H28901  -1.382   4.684  -0.142  0.3890  1.6424 -2.2120
  955MOL0     H28902  -1.524   4.594  -0.096  2.5566 -0.6221  1.0941
  955MOL0     H28903  -1.504   4.811  -0.300 -3.4111  1.6647  1.2647
  955MOL0     H28904  -1.518   4.657  -0.391  0.8257  1.9150 -0.6633
  955MOL0     H28905  -0.891   3.854   0.112  0.5108  0.1118  0.7849
  955MOL0     H28906  -0.810   3.698   0.300 -1.2273 -1.0415  1.7533
  955MOL0     H28907  -1.015   3.384   0.601 -2.1425 -2.9907  2.9932
  955MOL0     H28908  -0.954   3.182   0.725 -3.0100  1.0834 -0.6313
  955MOL0     H28909   0.693   3.095   1.715 -0.6350  1.0161  0.8277
  955MOL0     H28910   0.876   3.271   1.758  0.4587  1.7075 -2.0642
  955MOL0     H28911   1.069   3.655   1.554  0.2306 -0.9185  0.2571
  955MOL0     H28912   1.153   3.873   1.604  0.0381  0.6909  0.6549
  955MOL0     H28913   1.267   4.114   1.963 -1.3515 -0.6186  1.1076
  955MOL0     H28914   1.318   3.958   2.026  2.3665  4.0232  0.6146
  955MOL0     H28915   1.149   4.056   2.146  3.2642 -0.5883 -1.0833
  955MOL0     H28916   1.069   3.911   2.083 -1.3139  0.8721 -0.9823
  955MOL0     H28917   0.958   4.040   1.902  1.5610  1.9285 -1.5020
  955MOL0     H28918   1.033   4.185   1.960  0.2310  0.4064  0.8696
  955MOL0     H28919   0.854   4.013   2.148  0.5291 -0.4185  0.0457
  955MOL0     H28920   0.909   4.182   2.164 -0.4436 -0.2388  0.2809
  955MOL0     H28921   0.577   4.222   1.903 -1.1432  3.4773  2.5424
  955MOL0     H28922   1.248   3.757   2.011 -3.4940  1.9859 -0.1036
  955MOL0     H28923   1.089   3.442   1.997  0.8541 -2.3256 -1.8846
  955MOL0     H28924   1.266   3.426   1.979  1.8037  2.0075  2.0042
  955MOL0     H28925   1.203   3.535   2.095  1.1399 -1.6951  0.1298
  956MOL0     O28926   6.633  10.173   3.190  1.0190  0.4795  0.4793
  956MOL0     C28927   6.738  10.105   3.180 -0.5602 -0.1546 -0.7081
  956MOL0     O28928   6.764  10.017   3.072  0.4425 -0.1161 -0.0657
  956MOL0     C28929   6.668  10.005   2.978  0.4173  1.2118  0.1639
  956MOL0     C28930   6.609   9.878   2.973 -0.3276 -0.6549 -0.4073
  956MOL0     C28931   6.507   9.848   2.872 -0.4690  0.4541  0.3921
  956MOL0     C28932   6.484   9.947   2.772 -0.6349  0.0882  0.4364
  956MOL0     O28933   6.389   9.919   2.677 -0.2199  0.1952  0.0685
  956MOL0     C28934   6.380   9.792   2.612 -0.3529 -0.2045 -0.5582
  956MOL0     C28935   6.299   9.811   2.480 -1.2639 -1.0384 -0.1394
  956MOL0     C28936   6.268   9.679   2.409 -0.0488 -0.9519  0.5380
  956MOL0     C28937   6.232   9.687   2.255  0.1710 -0.3704  0.1371
  956MOL0     C28938   6.079   9.719   2.236  0.3429  0.2180  0.3033
  956MOL0     C28939   6.033   9.687   2.087  0.4429  0.4205 -0.2714
  956MOL0     C28940   5.891   9.706   2.071  0.4990 -0.0322 -0.2889
  956MOL0     C28941   5.839   9.644   1.944  0.3333  0.1153  0.3436
  956MOL0     N28942   5.691   9.649   1.928  0.3804  0.2750  0.5365
  956MOL0     C28943   5.600   9.586   2.002  0.6563 -0.1494  0.8985
  956MOL0     C28944   5.475   9.639   1.975 -1.0286 -1.7824  0.0411
  956MOL0     C28945   5.343   9.608   2.028 -0.1723 -0.1523 -0.7734
  956MOL0     C28946   5.248   9.722   2.004  0.5908  0.7187  0.5430
  956MOL0     C28947   5.135   9.724   2.098  0.4018  1.3500  0.3608
  956MOL0     C28948   5.021   9.808   2.049  0.3241  0.1819  0.2370
  956MOL0     O28949   4.963   9.754   1.934  0.3796 -0.5945 -0.3148
  956MOL0     C28950   4.881   9.837   1.863 -0.2525  0.4410 -0.2083
  956MOL0     C28951   4.796   9.932   1.918  0.0494 -0.6609 -0.8942
  956MOL0     C28952   4.731  10.011   1.827  0.4917  0.2781  0.0506
  956MOL0     C28953   4.753   9.997   1.686 -0.7329 -0.0529  0.7454
  956MOL0     C28954   4.678  10.091   1.595 -0.4444  0.0631 -0.9134
  956MOL0     O28955   4.612  10.195   1.655  0.5851 -0.0460 -0.2194
  956MOL0     C28956   4.558  10.303   1.576  0.0613  0.0838  0.7617
  956MOL0     C28957   4.590  10.335   1.444 -0.0505 -0.2155  0.1253
  956MOL0     C28958   4.532  10.450   1.385 -0.1196  0.0911 -0.0618
  956MOL0     C28959   4.428  10.524   1.450 -0.7964 -0.1590  0.1261
  956MOL0     O28960   4.370  10.627   1.373  0.2766 -0.0627 -0.6809
  956MOL0     C28961   4.235  10.580   1.331 -1.3971  0.3985  0.5724
  956MOL0     C28962   4.215  10.615   1.184 -0.3477  0.3281  0.8032
  956MOL0     C28963   4.315  10.536   1.102 -0.9328 -0.6913  0.2841
  956MOL0     C28964   4.262  10.521   0.961 -0.2624 -0.5637 -0.2458
  956MOL0     C28965   4.164  10.402   0.943 -0.6443 -1.7762 -0.1223
  956MOL0     C28966   4.094  10.409   0.808  0.1865 -0.4078 -1.1405
  956MOL0     C28967   4.194  10.380   0.692 -0.7084 -0.3838 -0.5682
  956MOL0     C28968   4.129  10.414   0.555  0.1742 -0.8014  0.0063
  956MOL0    Cl28969   4.258  10.351   0.439  0.4334  0.3045  0.2074
  956MOL0     C28970   4.394  10.487   1.580  1.1760 -0.4651  1.1110
  956MOL0     C28971   4.455  10.372   1.638 -0.5179 -0.5676 -0.6367
  956MOL0     O28972   4.687  10.068   1.476  0.3996  0.0189 -0.5847
  956MOL0     C28973   4.839   9.908   1.630 -0.8082 -0.3354  0.3103
  956MOL0     C28974   4.898   9.816   1.722  0.2690 -0.5327 -0.2173
  956MOL0     N28975   5.502   9.738   1.877 -0.0734 -0.2255  0.0278
  956MOL0     N28976   5.629   9.732   1.845  0.2387  0.0089 -0.0036
  956MOL0     C28977   6.541  10.074   2.789 -0.1633  1.1671  0.1122
  956MOL0     C28978   6.635  10.100   2.885  0.1091 -0.9563  0.6312
  956MOL0     C28979   6.827  10.093   3.297 -0.3562 -0.2947  1.4925
  956MOL0     C28980   6.897   9.966   3.313 -0.2802  0.5793 -1.3479
  956MOL0     C28981   6.980   9.945   3.424  0.5892 -0.5729  1.0417
  956MOL0     C28982   6.992  10.040   3.518  0.0102 -0.4452 -0.3657
  956MOL0     O28983   7.082  10.043   3.622 -0.0214 -0.5368  0.4098
  956MOL0     C28984   7.195   9.957   3.611  1.0635  0.0146 -0.2941
  956MOL0     C28985   7.275   9.983   3.735  0.4204 -0.2452  0.4677
  956MOL0     C28986   7.207   9.891   3.837 -1.1347  0.2681  0.2829
  956MOL0     C28987   7.253   9.921   3.982 -0.4359  0.3700  0.8568
  956MOL0     C28988   7.369   9.843   4.018  0.3247 -0.0971  0.0637
  956MOL0     C28989   7.463   9.784   4.045  0.0377  0.4496 -0.1334
  956MOL0     C28990   6.918  10.158   3.503 -0.1270  0.1319  0.8842
  956MOL0     C28991   6.834  10.190   3.391  0.1953  0.5158 -0.3995
  956MOL0     C28992   6.772  10.326   3.385 -0.1139 -1.3949  0.4339
  956MOL0     H28993   6.648   9.791   3.025  0.5595 -0.3165 -0.5003
  956MOL0     H28994   6.475   9.747   2.851  0.7994 -0.3053  1.8890
  956MOL0     H28995   6.479   9.757   2.584 -1.9799 -3.7421 -2.4949
  956MOL0     H28996   6.327   9.725   2.680  0.9633 -0.6628  0.0555
  956MOL0     H28997   6.350   9.866   2.400 -1.2189  1.3111  1.4075
  956MOL0     H28998   6.205   9.859   2.506 -0.1436  1.0868  0.2353
  956MOL0     H28999   6.179   9.632   2.452 -1.0555 -0.9504 -1.4340
  956MOL0     H29000   6.353   9.611   2.422 -1.2325 -2.8761 -1.2385
  956MOL0     H29001   6.285   9.768   2.205 -0.3172 -1.1122 -1.6451
  956MOL0     H29002   6.251   9.593   2.203 -3.7060  0.0661 -2.4611
  956MOL0     H29003   6.009   9.660   2.296  1.8942  0.0179  1.9743
  956MOL0     H29004   6.048   9.821   2.261 -1.0514 -0.4776  1.5002
  956MOL0     H29005   6.076   9.756   2.014  0.7281 -0.2573 -0.7572
  956MOL0     H29006   6.051   9.580   2.073 -0.3498  0.3657 -0.9336
  956MOL0     H29007   5.862   9.810   2.086  2.7419  0.5808  0.2216
  956MOL0     H29008   5.834   9.651   2.147  1.8208  0.1090  0.8452
  956MOL0     H29009   5.876   9.693   1.854 -2.5600 -0.3717 -1.2415
  956MOL0     H29010   5.875   9.541   1.933 -0.0160  0.0163  0.0946
  956MOL0     H29011   5.615   9.501   2.068  1.0814  1.3471  2.8408
  956MOL0     H29012   5.312   9.517   1.976 -1.1438 -0.9745  1.1762
  956MOL0     H29013   5.341   9.583   2.134  1.5429 -1.6269 -1.0534
  956MOL0     H29014   5.311   9.811   2.017  1.6546 -0.2029  1.8810
  956MOL0     H29015   5.216   9.742   1.901 -1.5134 -0.1403  0.9642
  956MOL0     H29016   5.179   9.760   2.191 -1.5479 -1.5453  2.5949
  956MOL0     H29017   5.095   9.623   2.112 -0.6316  1.5790 -0.7775
  956MOL0     H29018   5.051   9.912   2.035  1.0342  0.1381  1.2693
  956MOL0     H29019   4.944   9.803   2.126  0.9226  1.2127  0.9220
  956MOL0     H29020   4.785   9.959   2.023 -2.9119 -1.1518 -0.9816
  956MOL0     H29021   4.661  10.083   1.869 -0.9962 -1.0806  0.0055
  956MOL0     H29022   4.667  10.290   1.382 -0.4238 -0.1242 -0.4225
  956MOL0     H29023   4.563  10.474   1.284 -2.7054  0.0225 -0.9542
  956MOL0     H29024   4.219  10.473   1.342  0.0973  0.0129 -0.6460
  956MOL0     H29025   4.156  10.639   1.379 -1.6805  0.1842  0.3662
  956MOL0     H29026   4.110  10.594   1.162  0.1618 -0.8686 -0.6556
  956MOL0     H29027   4.227  10.719   1.152 -1.1163 -0.7252 -3.4996
  956MOL0     H29028   4.416  10.576   1.113 -0.6914 -1.2949  0.3338
  956MOL0     H29029   4.327  10.438   1.150 -0.9099 -0.4432  0.7851
  956MOL0     H29030   4.346  10.490   0.899  0.9220  2.3998 -0.2859
  956MOL0     H29031   4.212  10.616   0.939  0.2144  0.2982  2.0691
  956MOL0     H29032   4.089  10.419   1.022 -0.3206  0.5479 -0.2383
  956MOL0     H29033   4.223  10.312   0.958  2.1808  0.4542  4.6365
  956MOL0     H29034   4.004  10.351   0.786  0.2264 -0.7741 -0.3726
  956MOL0     H29035   4.058  10.512   0.813  1.8325  0.1990 -1.0692
  956MOL0     H29036   4.203  10.272   0.702  1.5006  0.0166  4.5718
  956MOL0     H29037   4.290  10.431   0.701 -0.6816 -0.5236 -0.0330
  956MOL0     H29038   4.037  10.356   0.542 -1.5546  1.5296  1.2695
  956MOL0     H29039   4.118  10.521   0.540  4.1104 -0.5481 -2.7083
  956MOL0     H29040   4.309  10.543   1.619  0.0447 -0.5412 -1.0863
  956MOL0     H29041   4.429  10.344   1.740  3.0546 -0.7825  0.3676
  956MOL0     H29042   4.863   9.900   1.524  0.7515 -3.2007  0.7934
  956MOL0     H29043   4.954   9.730   1.688 -1.1810 -2.7054  2.4808
  956MOL0     H29044   6.506  10.151   2.721 -1.3518 -0.7827 -1.5712
  956MOL0     H29045   6.686  10.196   2.889  1.6095 -1.7317  0.3705
  956MOL0     H29046   6.878   9.889   3.239 -3.0228 -2.6432  2.3170
  956MOL0     H29047   7.022   9.847   3.446  0.4984 -0.3441  2.3444
  956MOL0     H29048   7.251   9.983   3.520  0.1818 -0.3153 -0.9551
  956MOL0     H29049   7.156   9.857   3.590 -0.0474  0.4455 -0.4082
  956MOL0     H29050   7.275  10.090   3.759  2.1860 -0.2265  0.5499
  956MOL0     H29051   7.381   9.956   3.727  0.2221 -0.6366 -1.3167
  956MOL0     H29052   7.244   9.795   3.800  2.6627  2.2311 -1.4794
  956MOL0     H29053   7.098   9.902   3.833 -1.1438 -0.1746 -1.5189
  956MOL0     H29054   7.289  10.024   3.982  0.8119 -0.0070 -0.7538
  956MOL0     H29055   7.178   9.895   4.057 -2.2502  2.4284 -0.1181
  956MOL0     H29056   7.557   9.738   4.069 -0.1404  0.6415  0.9937
  956MOL0     H29057   6.937  10.236   3.576  1.4075  2.0660 -1.4259
  956MOL0     H29058   6.822  10.393   3.456 -1.4775  0.5081 -0.2981
  956MOL0     H29059   6.809  10.365   3.290  2.1047  1.5314  2.3013
  956MOL0     H29060   6.663  10.330   3.397 -0.3987 -1.6245 -1.7443
  957MOL0     O29061   1.500   4.993   2.915  0.3280  0.5992 -0.5722
  957MOL0     C29062   1.555   4.918   2.835  0.0082 -0.5266  1.0596
  957MOL0     O29063   1.608   4.800   2.863 -0.3804  0.8073 -0.5602
  957MOL0     C29064   1.540   4.731   2.964 -1.0166 -0.3232  1.4562
  957MOL0     C29065   1.425   4.666   2.926 -1.1087 -0.2313 -0.2683
  957MOL0     C29066   1.355   4.591   3.020 -0.4454  1.0294  0.2265
  957MOL0     C29067   1.400   4.601   3.151 -1.0205 -0.3562 -0.6475
  957MOL0     O29068   1.324   4.546   3.253 -0.4235  0.4097 -0.3827
  957MOL0     C29069   1.248   4.427   3.235 -0.0131  0.2809  0.4385
  957MOL0     C29070   1.235   4.331   3.358  0.6827 -0.0551 -0.1891
  957MOL0     C29071   1.377   4.284   3.396 -0.7755 -0.4235 -0.3322
  957MOL0     C29072   1.378   4.228   3.539 -0.0141 -0.3546 -0.0985
  957MOL0     C29073   1.283   4.111   3.575 -0.0419 -1.8463 -0.1314
  957MOL0     C29074   1.269   4.116   3.729 -0.2439  0.3468 -0.3502
  957MOL0     C29075   1.163   4.021   3.770 -0.1722  0.1554 -0.5347
  957MOL0     C29076   1.024   4.027   3.696  0.6225 -0.2623  0.0239
  957MOL0     N29077   0.929   3.945   3.776 -1.3007 -0.2384 -1.0942
  957MOL0     C29078   0.935   3.807   3.791  0.6073 -0.4955  0.4684
  957MOL0     C29079   0.808   3.771   3.839  0.7874  0.5841  0.2628
  957MOL0     C29080   0.736   3.636   3.862  0.0228 -1.1213 -0.3401
  957MOL0     C29081   0.725   3.600   4.008 -0.6354  0.2904 -0.4013
  957MOL0     C29082   0.652   3.465   4.026 -0.1933 -0.5737 -0.0996
  957MOL0     C29083   0.690   3.391   4.151 -1.0882  0.2238  0.1324
  957MOL0     O29084   0.633   3.457   4.274  0.2253  0.3469  0.3086
  957MOL0     C29085   0.692   3.429   4.391  0.5231  0.4330 -0.5522
  957MOL0     C29086   0.701   3.537   4.480  0.4257 -0.3981  0.2574
  957MOL0     C29087   0.761   3.523   4.600  0.1758 -0.6595 -0.4291
  957MOL0     C29088   0.817   3.399   4.640 -0.0344  1.5564 -0.1266
  957MOL0     C29089   0.873   3.379   4.783  1.1801  0.3814  0.7777
  957MOL0     O29090   0.860   3.488   4.867 -0.0989  0.1123  0.1726
  957MOL0     C29091   0.907   3.471   4.993  0.1924  0.0424 -0.2214
  957MOL0     C29092   0.813   3.447   5.102  0.1680  0.3911  0.3262
  957MOL0     C29093   0.864   3.435   5.233 -0.0488  0.3386 -0.2709
  957MOL0     C29094   0.999   3.436   5.253  0.0203 -0.6002  0.4621
  957MOL0     O29095   1.039   3.419   5.382  0.2772 -0.3826 -0.4233
  957MOL0     C29096   1.164   3.448   5.420 -0.7392  0.4300 -0.2783
  957MOL0     C29097   1.170   3.441   5.571 -0.6479 -0.2523  0.1829
  957MOL0     C29098   1.085   3.564   5.617 -0.6286  0.4704 -0.1597
  957MOL0     C29099   1.181   3.680   5.635  1.3558 -0.0188 -0.4171
  957MOL0     C29100   1.118   3.812   5.621  0.1078  0.3238 -0.1670
  957MOL0     C29101   1.211   3.933   5.620  0.1835  0.8995 -0.3573
  957MOL0     C29102   1.153   4.070   5.653  0.3612 -0.2980 -0.3134
  957MOL0     C29103   1.072   4.126   5.531  0.9594  0.2647 -0.3433
  957MOL0    Cl29104   1.008   4.288   5.561  0.6600  0.0994 -0.5013
  957MOL0     C29105   1.088   3.450   5.143  0.2520 -0.4298 -0.5093
  957MOL0     C29106   1.043   3.470   5.013 -0.2069  0.1498  0.4362
  957MOL0     O29107   0.896   3.264   4.828  0.3515  0.2797  0.1772
  957MOL0     C29108   0.800   3.288   4.555 -0.0913  0.4152 -0.4840
  957MOL0     C29109   0.740   3.310   4.435 -0.7200  1.2864 -0.6382
  957MOL0     N29110   0.736   3.886   3.850 -0.0954 -0.6845  0.2592
  957MOL0     N29111   0.804   3.992   3.808  1.1905  0.3307  0.3105
  957MOL0     C29112   1.521   4.669   3.184  0.3841  0.3718 -0.7446
  957MOL0     C29113   1.593   4.726   3.086 -0.0221  0.7239 -0.2216
  957MOL0     C29114   1.563   4.974   2.698  0.1507 -0.2216 -0.0981
  957MOL0     C29115   1.560   4.880   2.596 -0.5383  0.1115  0.2677
  957MOL0     C29116   1.571   4.924   2.460 -1.1316  0.3388  0.0188
  957MOL0     C29117   1.586   5.053   2.422  0.5713  0.6595 -0.3362
  957MOL0     O29118   1.562   5.094   2.300 -0.0613  0.0612  0.8551
  957MOL0     C29119   1.675   5.080   2.211 -0.5105 -0.1236  0.5452
  957MOL0     C29120   1.674   5.209   2.116  0.0657  0.9134  0.6786
  957MOL0     C29121   1.811   5.209   2.031 -0.2838  0.4859  0.0954
  957MOL0     C29122   1.805   5.097   1.930 -0.2155 -1.2750 -0.2970
  957MOL0     C29123   1.946   5.066   1.883  0.2763 -0.6366  0.3546
  957MOL0     C29124   2.062   5.031   1.860  0.5968  0.1437 -0.1307
  957MOL0     C29125   1.577   5.145   2.527 -0.3339 -0.2399  0.6546
  957MOL0     C29126   1.588   5.109   2.662  0.2446 -0.3855 -0.3203
  957MOL0     C29127   1.633   5.222   2.757 -0.6720 -0.2424 -0.5062
  957MOL0     H29128   1.394   4.657   2.822 -1.0006  0.3667 -0.3578
  957MOL0     H29129   1.266   4.534   2.996  0.8927 -0.0490 -2.6463
  957MOL0     H29130   1.149   4.464   3.206 -0.3681  0.2587  1.5971
  957MOL0     H29131   1.301   4.371   3.157  0.1087  2.3254 -1.0478
  957MOL0     H29132   1.177   4.241   3.337  0.9605 -0.5783  1.2122
  957MOL0     H29133   1.182   4.381   3.439  0.6381 -0.0663 -0.2111
  957MOL0     H29134   1.436   4.376   3.396  1.1606 -1.5314 -2.4068
  957MOL0     H29135   1.423   4.200   3.342 -1.4352 -0.4926 -0.8001
  957MOL0     H29136   1.477   4.206   3.579 -0.5728 -2.5276  0.2233
  957MOL0     H29137   1.347   4.315   3.599 -0.0440 -1.1411  1.0534
  957MOL0     H29138   1.184   4.126   3.530  1.1193 -0.5488 -2.4393
  957MOL0     H29139   1.323   4.013   3.546  0.6377 -1.9678  1.1403
  957MOL0     H29140   1.362   4.080   3.775 -1.5000 -2.2341  0.3607
  957MOL0     H29141   1.240   4.213   3.768  1.6904  0.6579  0.4525
  957MOL0     H29142   1.158   4.044   3.877  4.8414 -0.9220  0.1659
  957MOL0     H29143   1.208   3.923   3.755  2.7082  0.8281  2.5434
  957MOL0     H29144   0.984   4.129   3.703  2.9371  0.5597  4.1744
  957MOL0     H29145   1.026   3.986   3.594 -0.2897 -3.1997  1.0842
  957MOL0     H29146   1.021   3.742   3.779  0.7073 -0.3618  0.4573
  957MOL0     H29147   0.646   3.641   3.800  0.4781  0.0383 -0.9256
  957MOL0     H29148   0.807   3.563   3.824  2.2691  0.6150  0.2820
  957MOL0     H29149   0.813   3.617   4.070  0.2123 -1.7560 -1.0005
  957MOL0     H29150   0.657   3.673   4.054  0.8135  1.4313  0.0215
  957MOL0     H29151   0.660   3.400   3.938  0.0027  1.2254 -1.4832
  957MOL0     H29152   0.547   3.495   4.038  0.3639  0.7296  2.0454
  957MOL0     H29153   0.798   3.373   4.159 -1.2689 -1.8524 -1.1930
  957MOL0     H29154   0.647   3.290   4.152  0.1766 -0.3432  1.8094
  957MOL0     H29155   0.657   3.630   4.446  0.9104 -1.3286 -3.2648
  957MOL0     H29156   0.751   3.599   4.678 -0.7564 -0.1458 -1.0259
  957MOL0     H29157   0.714   3.415   5.071 -0.3556  0.5612  1.7911
  957MOL0     H29158   0.794   3.401   5.309 -2.5034  2.0279 -1.6227
  957MOL0     H29159   1.242   3.382   5.382  0.3851  1.5791 -0.0232
  957MOL0     H29160   1.193   3.546   5.381  0.3726  0.0815 -0.3423
  957MOL0     H29161   1.136   3.343   5.603  0.2023 -0.1456  1.4973
  957MOL0     H29162   1.277   3.453   5.590 -1.0341  6.1602  0.5218
  957MOL0     H29163   1.005   3.602   5.552 -0.6726  2.7175  1.0957
  957MOL0     H29164   1.046   3.552   5.718 -0.0304  0.9229  0.1294
  957MOL0     H29165   1.256   3.665   5.557 -1.2939 -4.6471 -2.4906
  957MOL0     H29166   1.229   3.676   5.733 -1.7416  2.2654  1.3859
  957MOL0     H29167   1.058   3.827   5.712  0.1617  2.8097 -0.4706
  957MOL0     H29168   1.048   3.814   5.537 -3.0738 -0.2828  2.2796
  957MOL0     H29169   1.300   3.912   5.681 -0.4242  1.0344  0.5943
  957MOL0     H29170   1.254   3.951   5.521 -0.1274  0.1504 -0.6384
  957MOL0     H29171   1.224   4.148   5.680 -1.1097  1.1066 -0.3417
  957MOL0     H29172   1.094   4.047   5.742 -0.2376 -1.5378 -1.0018
  957MOL0     H29173   1.128   4.126   5.437 -0.8265  0.5526 -1.4626
  957MOL0     H29174   0.987   4.060   5.512  2.0860 -1.7997  1.3516
  957MOL0     H29175   1.195   3.450   5.160  0.0090 -0.4015  1.1800
  957MOL0     H29176   1.120   3.481   4.937  0.7259  0.0296  1.3394
  957MOL0     H29177   0.831   3.188   4.584 -1.0408 -0.8179 -3.3574
  957MOL0     H29178   0.746   3.221   4.373 -0.4139  1.3870 -0.7553
  957MOL0     H29179   1.553   4.668   3.288  1.8610 -0.5354 -1.1763
  957MOL0     H29180   1.687   4.776   3.108  1.7983 -2.9368  1.2291
  957MOL0     H29181   1.544   4.778   2.627 -1.9766  1.0365  2.8583
  957MOL0     H29182   1.574   4.850   2.381  3.4448  1.8352 -1.4735
  957MOL0     H29183   1.656   4.989   2.153  1.4445 -0.6023  0.5972
  957MOL0     H29184   1.772   5.085   2.261 -0.5522  1.7936  0.5200
  957MOL0     H29185   1.684   5.300   2.175  2.9779  0.9941  0.2319
  957MOL0     H29186   1.595   5.214   2.042  1.9571 -0.1233 -1.5478
  957MOL0     H29187   1.888   5.206   2.109 -0.1177 -3.5387 -0.0213
  957MOL0     H29188   1.824   5.300   1.971  0.8599 -0.5567 -1.3143
  957MOL0     H29189   1.761   5.005   1.970 -1.2558 -0.6974 -0.0703
  957MOL0     H29190   1.740   5.128   1.848  1.8114  0.3605 -1.3672
  957MOL0     H29191   2.159   5.006   1.823  0.4296  1.4222 -1.5230
  957MOL0     H29192   1.570   5.249   2.496 -0.2150  0.5283  2.9479
  957MOL0     H29193   1.729   5.266   2.729 -0.4081 -1.5749 -1.8673
  957MOL0     H29194   1.569   5.310   2.742  1.5096  1.9226  1.9645
  957MOL0     H29195   1.649   5.195   2.862  5.0285  1.6273 -0.5534
  958MOL0     O29196   6.365   4.553   0.190 -0.7285  0.6515 -0.3234
  958MOL0     C29197   6.267   4.510   0.134  0.3492 -0.0312 -0.3381
  958MOL0     O29198   6.139   4.562   0.112 -0.6755  0.0502  0.0974
  958MOL0     C29199   6.112   4.704   0.127 -0.9767  0.7516  0.1978
  958MOL0     C29200   6.172   4.791   0.217 -0.7666 -0.3969 -0.3869
  958MOL0     C29201   6.119   4.925   0.237 -0.5912 -0.5600 -0.2642
  958MOL0     C29202   5.999   4.964   0.182 -0.6426 -0.0853 -1.1434
  958MOL0     O29203   5.945   5.089   0.188 -0.4793  0.4864 -0.4031
  958MOL0     C29204   5.834   5.106   0.281  0.0630 -0.6626 -0.1347
  958MOL0     C29205   5.772   5.246   0.257  0.8214  0.2548 -0.8589
  958MOL0     C29206   5.631   5.253   0.322 -0.9510  0.4610  0.2129
  958MOL0     C29207   5.555   5.381   0.288 -0.6029 -0.2030 -1.0082
  958MOL0     C29208   5.592   5.493   0.397 -0.2806  0.3197 -0.7390
  958MOL0     C29209   5.508   5.624   0.367 -0.4588  0.2430 -0.8573
  958MOL0     C29210   5.537   5.735   0.462 -0.5449  0.1288  0.0456
  958MOL0     C29211   5.673   5.793   0.433  0.1084 -1.0423  0.9167
  958MOL0     N29212   5.679   5.843   0.298  0.6139  0.5319 -0.0797
  958MOL0     C29213   5.608   5.950   0.244 -0.8746 -1.1927  0.2749
  958MOL0     C29214   5.619   5.941   0.114 -0.0896 -0.0421 -0.1855
  958MOL0     C29215   5.544   6.034   0.016 -0.5463  0.2522 -0.0915
  958MOL0     C29216   5.635   6.103  -0.080 -0.0118  0.3988  0.0916
  958MOL0     C29217   5.731   6.015  -0.167  1.1614 -0.1281 -1.1466
  958MOL0     C29218   5.805   6.098  -0.280 -0.2630 -0.0455  0.7175
  958MOL0     O29219   5.697   6.108  -0.370 -0.6396  1.2040  0.8519
  958MOL0     C29220   5.702   6.102  -0.507 -0.8354  0.7111 -0.6040
  958MOL0     C29221   5.816   6.121  -0.575 -0.5011  0.1574 -0.1936
  958MOL0     C29222   5.815   6.109  -0.719  0.2048  0.3358  0.3922
  958MOL0     C29223   5.699   6.066  -0.790  0.6328 -0.8247 -0.1783
  958MOL0     C29224   5.692   6.050  -0.940 -0.4419 -1.0811 -1.1266
  958MOL0     O29225   5.818   6.032  -0.997  0.0600 -0.3588 -0.0836
  958MOL0     C29226   5.842   6.029  -1.138  0.2162 -0.0547 -0.8359
  958MOL0     C29227   5.965   6.083  -1.192  0.7389  0.1235  0.5949
  958MOL0     C29228   5.977   6.100  -1.335  0.3373 -0.5675 -1.1609
  958MOL0     C29229   5.877   6.056  -1.421  0.0826 -1.2784 -0.7386
  958MOL0     O29230   5.908   6.061  -1.557 -0.2584 -0.6956  0.5376
  958MOL0     C29231   5.827   5.995  -1.652 -0.3601  1.0324 -0.0017
  958MOL0     C29232   5.722   6.097  -1.675  0.1128 -0.0664 -0.2232
  958MOL0     C29233   5.756   6.199  -1.778 -0.7202 -0.1440  0.5443
  958MOL0     C29234   5.636   6.289  -1.799  0.8378 -0.2595 -0.3853
  958MOL0     C29235   5.664   6.410  -1.893  0.2515  0.4290  0.1882
  958MOL0     C29236   5.534   6.494  -1.905  0.8657  0.1859  0.1605
  958MOL0     C29237   5.549   6.609  -1.996 -0.4068 -0.2452  0.4504
  958MOL0     C29238   5.427   6.700  -1.998  0.1109 -0.8069  0.1434
  958MOL0    Cl29239   5.472   6.854  -2.060  0.2929 -0.1168  0.1422
  958MOL0     C29240   5.759   5.989  -1.369 -0.3004  0.2310 -0.3003
  958MOL0     C29241   5.742   5.987  -1.229  0.6640  0.3844 -0.2371
  958MOL0     O29242   5.587   6.075  -0.993  0.3002  0.9924  0.2054
  958MOL0     C29243   5.598   6.011  -0.709 -0.4905  0.3127  0.3980
  958MOL0     C29244   5.594   6.052  -0.581  0.1253  0.8164  0.5405
  958MOL0     N29245   5.686   5.823   0.089  0.5612 -0.5229 -0.1695
  958MOL0     N29246   5.726   5.768   0.198 -0.1793  0.0983 -0.0546
  958MOL0     C29247   5.941   4.870   0.098 -0.2993 -0.7120  0.3980
  958MOL0     C29248   5.993   4.742   0.071 -1.1240  0.4387  0.0665
  958MOL0     C29249   6.287   4.372   0.083  0.1631 -0.5423  1.0266
  958MOL0     C29250   6.191   4.282   0.099 -0.5305  0.1173  0.1013
  958MOL0     C29251   6.204   4.152   0.045 -0.9682 -0.3002 -0.2314
  958MOL0     C29252   6.317   4.110  -0.015  0.5388  0.3484  0.5652
  958MOL0     O29253   6.320   3.981  -0.068  0.1229 -0.0810 -0.3428
  958MOL0     C29254   6.436   3.907  -0.056 -0.2208 -0.3659 -0.2906
  958MOL0     C29255   6.489   3.862   0.091 -0.8125  0.1126 -0.4637
  958MOL0     C29256   6.421   3.744   0.161  1.1168  0.2309 -0.7935
  958MOL0     C29257   6.500   3.717   0.290  0.0179  0.1939 -0.0127
  958MOL0     C29258   6.450   3.809   0.395 -0.8852 -0.2688 -0.8297
  958MOL0     C29259   6.407   3.878   0.475  0.6086 -0.7803 -0.2770
  958MOL0     C29260   6.419   4.199  -0.033 -0.4793  1.1584 -0.0891
  958MOL0     C29261   6.395   4.337   0.003 -0.2768  1.0140 -0.6536
  958MOL0     C29262   6.504   4.446  -0.037 -0.7203  0.2628  0.0464
  958MOL0     H29263   6.255   4.757   0.279  0.3396  2.0487 -0.4512
  958MOL0     H29264   6.170   4.998   0.300 -2.1301 -0.8592  1.4053
  958MOL0     H29265   5.756   5.033   0.258 -2.9846  0.6383  4.5990
  958MOL0     H29266   5.849   5.099   0.389  0.1535  0.3106 -0.0798
  958MOL0     H29267   5.752   5.256   0.150 -2.3181 -0.7779 -0.4831
  958MOL0     H29268   5.833   5.327   0.298  0.6050 -1.5480  3.7327
  958MOL0     H29269   5.641   5.234   0.429 -0.9138 -0.5942  0.0308
  958MOL0     H29270   5.569   5.177   0.273  1.4970 -0.7480 -1.2555
  958MOL0     H29271   5.591   5.407   0.188 -2.1330  0.3477 -1.4498
  958MOL0     H29272   5.446   5.369   0.292 -0.6006 -0.1722 -0.8521
  958MOL0     H29273   5.573   5.464   0.501  2.8323 -0.5158 -0.3228
  958MOL0     H29274   5.698   5.517   0.395  0.2248 -0.3575  4.4471
  958MOL0     H29275   5.515   5.649   0.261  3.8274 -2.4092 -1.4399
  958MOL0     H29276   5.402   5.600   0.382 -0.4279  0.0966 -0.8708
  958MOL0     H29277   5.548   5.700   0.565  0.1118 -2.6772 -0.8833
  958MOL0     H29278   5.453   5.805   0.456  0.7346  1.6528 -0.9505
  958MOL0     H29279   5.701   5.874   0.501 -3.1073 -0.2992  1.5459
  958MOL0     H29280   5.750   5.716   0.437  0.8271 -0.5929 -1.9770
  958MOL0     H29281   5.560   6.031   0.298  0.2743  1.0978 -1.9497
  958MOL0     H29282   5.473   5.967  -0.033 -0.8630 -0.5044  1.3476
  958MOL0     H29283   5.491   6.100   0.085  2.1397 -0.1609  2.5927
  958MOL0     H29284   5.573   6.168  -0.141  2.2023  1.4540 -1.1654
  958MOL0     H29285   5.696   6.174  -0.023 -0.2690  0.0511  0.8109
  958MOL0     H29286   5.674   5.935  -0.215 -0.7539  1.1547 -1.0923
  958MOL0     H29287   5.804   5.970  -0.098  2.1405  2.1188 -0.5981
  958MOL0     H29288   5.896   6.041  -0.303  1.0205 -0.5165  5.6873
  958MOL0     H29289   5.853   6.190  -0.244  0.2877  0.4568 -1.1850
  958MOL0     H29290   5.903   6.155  -0.521 -0.1113 -1.1549  0.0452
  958MOL0     H29291   5.895   6.147  -0.782 -1.2567 -2.4981 -3.5960
  958MOL0     H29292   6.043   6.122  -1.128  0.0339 -1.5933  2.6195
  958MOL0     H29293   6.058   6.156  -1.380  0.6875 -2.0669 -2.4800
  958MOL0     H29294   5.892   5.983  -1.739 -1.9182  1.0514 -1.2171
  958MOL0     H29295   5.786   5.899  -1.619  2.6396 -0.2315  0.3425
  958MOL0     H29296   5.629   6.050  -1.706 -1.3406  2.3161  0.2920
  958MOL0     H29297   5.716   6.157  -1.584  1.9393  2.5133 -1.6546
  958MOL0     H29298   5.838   6.257  -1.735  2.0041 -2.3426 -1.3219
  958MOL0     H29299   5.788   6.146  -1.869  1.0474  0.7275  0.6165
  958MOL0     H29300   5.612   6.329  -1.700  2.3084  1.0551 -0.5144
  958MOL0     H29301   5.543   6.238  -1.827  0.8202 -0.4576  0.0337
  958MOL0     H29302   5.695   6.375  -1.992  1.1730  0.7195  0.3699
  958MOL0     H29303   5.746   6.461  -1.843  0.6485 -2.6837  3.0437
  958MOL0     H29304   5.450   6.437  -1.946 -0.2376  1.8137  0.0257
  958MOL0     H29305   5.494   6.533  -1.811 -2.1920  0.5707 -1.1726
  958MOL0     H29306   5.576   6.570  -2.095 -0.0415 -3.6309  1.7317
  958MOL0     H29307   5.636   6.662  -1.957 -1.1068  0.5415  0.9681
  958MOL0     H29308   5.341   6.659  -2.053 -0.4267  1.2259 -0.6396
  958MOL0     H29309   5.383   6.731  -1.903  0.2145 -0.8757  0.2146
  958MOL0     H29310   5.679   5.960  -1.436 -0.2969  1.5205 -0.8975
  958MOL0     H29311   5.656   5.942  -1.180 -1.6196  0.0397 -4.1712
  958MOL0     H29312   5.514   5.956  -0.751 -2.4637  0.4990  3.7272
  958MOL0     H29313   5.502   6.033  -0.528 -0.3788 -2.1284 -1.1683
  958MOL0     H29314   5.857   4.904   0.039 -1.3376 -1.8164  1.2008
  958MOL0     H29315   5.944   4.663   0.014  1.2801  0.0346 -1.5754
  958MOL0     H29316   6.100   4.305   0.154 -1.1805  0.5428 -1.0907
  958MOL0     H29317   6.126   4.082   0.072  0.7820 -1.6142  1.7501
  958MOL0     H29318   6.517   3.959  -0.107  3.2865 -3.1584  1.9496
  958MOL0     H29319   6.420   3.823  -0.124  3.1241 -0.6018 -0.9458
  958MOL0     H29320   6.491   3.942   0.165 -0.0050 -0.2165 -0.1252
  958MOL0     H29321   6.595   3.837   0.078  0.1384  1.5289  3.3006
  958MOL0     H29322   6.420   3.657   0.095 -2.3460  0.4496 -1.1872
  958MOL0     H29323   6.319   3.777   0.184  0.3780 -1.1858 -1.8846
  958MOL0     H29324   6.496   3.618   0.336 -2.7043  0.1166 -0.2667
  958MOL0     H29325   6.606   3.741   0.273  0.7875 -2.0683  1.2788
  958MOL0     H29326   6.355   3.927   0.555 -1.6210 -1.3477 -1.3095
  958MOL0     H29327   6.516   4.177  -0.076  0.8478  0.6844  2.8620
  958MOL0     H29328   6.573   4.452   0.048  1.0227  1.4954 -1.3809
  958MOL0     H29329   6.553   4.412  -0.129  2.7539  0.7872  1.5247
  958MOL0     H29330   6.449   4.539  -0.054 -0.4878  0.6959  1.4985
  959MOL0     O29331   8.438   1.490   8.845 -1.0182 -0.0183  0.6679
  959MOL0     C29332   8.330   1.476   8.778 -0.3223 -0.3498 -0.4751
  959MOL0     O29333   8.309   1.373   8.693 -0.6901 -0.2816  0.0874
  959MOL0     C29334   8.421   1.306   8.652  0.6958 -0.4973  1.0191
  959MOL0     C29335   8.462   1.200   8.737  0.2399  0.1623  0.4137
  959MOL0     C29336   8.581   1.131   8.708 -0.9106  0.2663  0.1140
  959MOL0     C29337   8.653   1.166   8.595  0.1948 -0.2128  0.9983
  959MOL0     O29338   8.747   1.072   8.550  0.1917  0.1852  0.9119
  959MOL0     C29339   8.864   1.124   8.487 -0.3305 -0.1472  0.1036
  959MOL0     C29340   8.966   1.010   8.504  0.8622  0.2115 -0.1863
  959MOL0     C29341   9.004   0.992   8.657 -0.1988  0.9490  0.3832
  959MOL0     C29342   8.905   0.907   8.751  0.1014 -0.5945  0.2741
  959MOL0     C29343   8.966   0.834   8.865 -0.0254 -0.7893 -0.9700
  959MOL0     C29344   9.034   0.712   8.811  0.0405  0.0953 -0.1507
  959MOL0     C29345   9.075   0.602   8.917  0.8091  0.2905  0.4146
  959MOL0     C29346   9.129   0.468   8.854  0.5986  0.4159 -0.7583
  959MOL0     N29347   9.237   0.410   8.931 -0.7882  0.2049 -0.2109
  959MOL0     C29348   9.224   0.351   9.056  0.4800  0.3783 -0.2091
  959MOL0     C29349   9.317   0.251   9.054  0.8485 -0.5852  0.2936
  959MOL0     C29350   9.337   0.143   9.158  0.7282  0.8189  0.0945
  959MOL0     C29351   9.456   0.185   9.241 -0.2808  0.3002 -0.2872
  959MOL0     C29352   9.507   0.059   9.329  0.4465 -0.7594  0.1538
  959MOL0     C29353   9.631   0.108   9.411  0.6037  0.1717  0.4488
  959MOL0     O29354   9.679   0.003   9.499  0.6267  0.4159  0.2953
  959MOL0     C29355   9.719  -0.119   9.460  0.7669 -0.6052  1.3487
  959MOL0     C29356   9.714  -0.216   9.558  0.4686 -0.6434  0.4179
  959MOL0     C29357   9.746  -0.342   9.519 -0.1213  1.4629  1.0975
  959MOL0     C29358   9.781  -0.369   9.383 -0.7033  0.7587 -0.4210
  959MOL0     C29359   9.818  -0.508   9.342 -0.3427 -0.3013  0.8408
  959MOL0     O29360   9.884  -0.523   9.223 -0.4943  0.5219 -0.1036
  959MOL0     C29361   9.942  -0.647   9.195  1.0956  0.2486  0.3680
  959MOL0     C29362   9.883  -0.728   9.098  0.7216  0.3954  0.2266
  959MOL0     C29363   9.938  -0.848   9.065 -0.6795  0.4763 -0.5812
  959MOL0     C29364  10.050  -0.892   9.134  0.1995  0.0536  0.5697
  959MOL0     O29365  10.112  -1.009   9.089 -0.2661  0.4899 -0.0494
  959MOL0     C29366  10.104  -1.063   8.957  0.1177 -0.4992 -0.1526
  959MOL0     C29367  10.052  -1.211   8.946 -0.3505 -0.0438 -0.1005
  959MOL0     C29368   9.902  -1.219   8.980  0.1577  0.3764  0.2011
  959MOL0     C29369   9.805  -1.183   8.870 -0.0361 -0.7568  0.6961
  959MOL0     C29370   9.662  -1.152   8.910 -0.3112 -0.3629 -0.0745
  959MOL0     C29371   9.599  -1.285   8.960 -0.7343 -0.4792 -0.3755
  959MOL0     C29372   9.448  -1.288   8.976 -0.3630 -0.2936  0.2716
  959MOL0     C29373   9.393  -1.222   9.107  0.4778  0.5767 -0.3725
  959MOL0    Cl29374   9.421  -1.313   9.264  0.4228 -0.0833  0.3840
  959MOL0     C29375  10.113  -0.810   9.228  0.6191 -0.7971  0.2530
  959MOL0     C29376  10.050  -0.696   9.265  0.2163  0.2988 -0.0265
  959MOL0     O29377   9.800  -0.591   9.429  0.1602 -0.0506  0.3594
  959MOL0     C29378   9.789  -0.268   9.292 -0.9374 -0.1574 -0.1757
  959MOL0     C29379   9.753  -0.142   9.324  0.8804 -0.6537 -0.0491
  959MOL0     N29380   9.397   0.258   8.939 -0.2917  0.4128 -0.6048
  959MOL0     N29381   9.346   0.348   8.870  0.6337  0.3697  0.2824
  959MOL0     C29382   8.611   1.276   8.515  0.7474  0.2432 -0.7911
  959MOL0     C29383   8.496   1.354   8.543 -0.2576  1.3178  0.1558
  959MOL0     C29384   8.208   1.536   8.842 -0.3197  0.2896  0.3510
  959MOL0     C29385   8.201   1.674   8.864 -0.9245  0.5748 -0.4558
  959MOL0     C29386   8.083   1.732   8.910 -1.0300 -0.0342 -0.2891
  959MOL0     C29387   7.971   1.662   8.943  0.2300  0.0186  0.4656
  959MOL0     O29388   7.856   1.730   8.985  0.3549 -0.0942  0.2688
  959MOL0     C29389   7.775   1.662   9.081  0.3480  0.4499 -0.5694
  959MOL0     C29390   7.676   1.763   9.150 -0.9713  0.1636 -0.2163
  959MOL0     C29391   7.610   1.691   9.263  0.3704 -0.4317 -0.0793
  959MOL0     C29392   7.518   1.780   9.346  0.2316  0.3045  0.4170
  959MOL0     C29393   7.494   1.748   9.487 -0.1256 -0.3923 -1.5720
  959MOL0     C29394   7.461   1.723   9.607 -0.2319 -0.8492  0.3047
  959MOL0     C29395   7.978   1.512   8.933 -0.2132 -0.1277 -0.9988
  959MOL0     C29396   8.100   1.452   8.894  0.3372 -0.3447  0.2789
  959MOL0     C29397   8.118   1.299   8.901 -0.3305  0.1711  0.0655
  959MOL0     H29398   8.408   1.168   8.826 -0.8551 -1.2006 -0.6871
  959MOL0     H29399   8.612   1.041   8.760 -0.3079  0.7811  0.6692
  959MOL0     H29400   8.856   1.156   8.382 -0.6228  0.2237  0.2362
  959MOL0     H29401   8.904   1.207   8.544  2.3792 -0.2282 -1.5274
  959MOL0     H29402   9.051   1.027   8.438  1.8268  0.3830  1.0841
  959MOL0     H29403   8.935   0.912   8.464  0.8371  0.6867 -1.3669
  959MOL0     H29404   9.022   1.090   8.703 -2.7033  1.8105 -0.3103
  959MOL0     H29405   9.100   0.939   8.657  2.0081  4.3771 -3.3432
  959MOL0     H29406   8.836   0.986   8.782  0.8038  1.2278 -2.4963
  959MOL0     H29407   8.838   0.843   8.692  1.8238 -2.2790  0.0520
  959MOL0     H29408   9.035   0.894   8.925  1.2597 -1.3889 -1.7810
  959MOL0     H29409   8.889   0.804   8.937  1.0050 -1.8101 -0.2680
  959MOL0     H29410   8.962   0.660   8.747  0.2317  0.7291 -0.8958
  959MOL0     H29411   9.128   0.743   8.764 -0.1554  0.6646 -0.1762
  959MOL0     H29412   8.981   0.581   8.968  2.0420 -1.5215  2.0971
  959MOL0     H29413   9.152   0.643   8.984 -0.2670  1.3098  1.0727
  959MOL0     H29414   9.048   0.401   8.827 -3.0263  4.1537 -0.1137
  959MOL0     H29415   9.154   0.500   8.752 -1.4891  2.3843 -0.7215
  959MOL0     H29416   9.150   0.363   9.135  1.1134  1.5082  0.2368
  959MOL0     H29417   9.251   0.125   9.222  2.2396  1.4245  2.4213
  959MOL0     H29418   9.350   0.049   9.104  0.1752 -0.1388  1.5513
  959MOL0     H29419   9.544   0.217   9.184  0.6400 -2.6179 -0.6946
  959MOL0     H29420   9.418   0.261   9.309 -0.7399 -2.2621  2.4946
  959MOL0     H29421   9.543  -0.021   9.264 -0.0416 -0.3006 -0.6891
  959MOL0     H29422   9.436   0.028   9.406 -1.2723 -2.0668 -1.8748
  959MOL0     H29423   9.595   0.190   9.474  0.0999 -1.0152  1.7625
  959MOL0     H29424   9.706   0.146   9.342  0.9869 -0.8563  0.2906
  959MOL0     H29425   9.707  -0.193   9.663  0.6513 -3.2734  1.0894
  959MOL0     H29426   9.747  -0.422   9.593 -0.1411  0.7775  0.3652
  959MOL0     H29427   9.788  -0.693   9.059 -0.0010 -0.0749  1.4932
  959MOL0     H29428   9.880  -0.916   9.003 -0.7897  0.7022 -0.7224
  959MOL0     H29429  10.049  -1.003   8.883  2.2084 -0.2557 -1.5943
  959MOL0     H29430  10.203  -1.057   8.910 -0.3186  2.4828 -0.8987
  959MOL0     H29431  10.069  -1.242   8.843  1.3276  1.9309 -0.4778
  959MOL0     H29432  10.094  -1.282   9.017 -2.8924 -2.7490 -1.1204
  959MOL0     H29433   9.872  -1.322   9.002 -2.8870  0.9040 -0.9927
  959MOL0     H29434   9.873  -1.154   9.062  3.9114  3.0818 -0.3648
  959MOL0     H29435   9.809  -1.253   8.786 -1.7181 -0.7129  0.5346
  959MOL0     H29436   9.847  -1.097   8.819  2.3768 -3.3389 -2.0395
  959MOL0     H29437   9.607  -1.107   8.828 -1.0990 -1.4345 -0.1546
  959MOL0     H29438   9.648  -1.079   8.991  1.7780 -1.8850  1.7744
  959MOL0     H29439   9.625  -1.369   8.895  0.5921 -1.1393  0.9347
  959MOL0     H29440   9.646  -1.309   9.056  0.5242 -1.4772 -1.2106
  959MOL0     H29441   9.420  -1.394   8.968  0.4167 -0.5595  0.9003
  959MOL0     H29442   9.415  -1.244   8.882  1.1083 -1.2022 -0.7122
  959MOL0     H29443   9.417  -1.116   9.112 -0.6011  0.7820  0.9371
  959MOL0     H29444   9.286  -1.217   9.088  0.3585  4.7231  0.5769
  959MOL0     H29445  10.205  -0.832   9.281  1.2059  1.4574  0.3046
  959MOL0     H29446  10.099  -0.642   9.346 -3.3916 -0.3958  2.9366
  959MOL0     H29447   9.813  -0.273   9.187  0.5704  1.7572  0.0265
  959MOL0     H29448   9.760  -0.063   9.250  0.6188  0.7982  1.4235
  959MOL0     H29449   8.671   1.300   8.428 -0.6610 -3.7456 -3.1233
  959MOL0     H29450   8.457   1.424   8.471  0.1279 -0.6689 -2.1200
  959MOL0     H29451   8.278   1.743   8.830 -0.9394  0.6330 -0.3691
  959MOL0     H29452   8.084   1.840   8.926 -1.5161  0.2606 -2.0034
  959MOL0     H29453   7.848   1.626   9.154  1.0721  2.6328 -0.1267
  959MOL0     H29454   7.719   1.576   9.043 -0.1013 -0.1275  1.2790
  959MOL0     H29455   7.602   1.793   9.074 -1.4638  1.7638  0.8302
  959MOL0     H29456   7.743   1.848   9.165 -1.4666  0.7199 -1.0518
  959MOL0     H29457   7.678   1.640   9.331  0.9391  2.2411  1.4634
  959MOL0     H29458   7.544   1.615   9.219  0.6021 -1.4952  1.3329
  959MOL0     H29459   7.552   1.884   9.337 -1.4385  0.9986  1.6832
  959MOL0     H29460   7.417   1.778   9.305  0.2625  0.3203  0.3417
  959MOL0     H29461   7.428   1.694   9.705 -0.4847 -2.2864 -0.1862
  959MOL0     H29462   7.890   1.450   8.945 -1.7791  1.9400 -1.2488
  959MOL0     H29463   8.024   1.259   8.939  0.1545 -0.0340  1.0595
  959MOL0     H29464   8.134   1.254   8.802 -0.3706  1.3214 -0.4905
  959MOL0     H29465   8.205   1.263   8.957 -0.7469 -5.8181 -2.3308
  960MOL0     O29466   4.835   0.710   7.237  0.8054 -1.4451 -0.1333
  960MOL0     C29467   4.791   0.602   7.284  0.2830  0.3426  1.0809
  960MOL0     O29468   4.710   0.593   7.391 -0.3461  0.0653  0.1156
  960MOL0     C29469   4.676   0.716   7.452 -0.2457 -0.1143  0.1337
  960MOL0     C29470   4.755   0.771   7.555 -0.1093 -0.4658 -0.1803
  960MOL0     C29471   4.713   0.889   7.620  0.3556 -0.3099  0.2038
  960MOL0     C29472   4.600   0.951   7.584  0.4887 -0.6048  0.1019
  960MOL0     O29473   4.557   1.070   7.640  0.1378  0.4086  0.4015
  960MOL0     C29474   4.623   1.116   7.760  0.6567  1.0643 -0.2004
  960MOL0     C29475   4.559   1.252   7.804  0.9319  0.1356  0.4622
  960MOL0     C29476   4.598   1.364   7.691 -0.0544  0.1451  0.3868
  960MOL0     C29477   4.537   1.500   7.740 -0.3189 -0.6782  1.4890
  960MOL0     C29478   4.570   1.622   7.651 -0.6289  0.5014 -0.0927
  960MOL0     C29479   4.496   1.739   7.706 -0.0546  0.2368  0.1666
  960MOL0     C29480   4.566   1.866   7.677 -0.1527  0.8529 -0.2696
  960MOL0     C29481   4.459   1.976   7.698 -0.3310 -0.3767 -0.5237
  960MOL0     N29482   4.514   2.113   7.697 -0.1615 -0.2883  0.6934
  960MOL0     C29483   4.505   2.197   7.590 -0.5921  1.1242 -0.7316
  960MOL0     C29484   4.553   2.311   7.630 -0.8624  0.6453  0.2117
  960MOL0     C29485   4.580   2.433   7.562 -0.3708 -0.1786  0.7869
  960MOL0     C29486   4.552   2.561   7.637 -0.2267 -0.9527  0.3792
  960MOL0     C29487   4.550   2.670   7.537  0.2600 -0.6427  0.0739
  960MOL0     C29488   4.551   2.810   7.588  0.5211  0.3488 -0.0677
  960MOL0     O29489   4.578   2.896   7.473 -0.1490 -0.0978  0.1226
  960MOL0     C29490   4.595   3.031   7.493  0.1920  0.6047 -0.4819
  960MOL0     C29491   4.594   3.118   7.382 -0.2678 -0.6179  0.4442
  960MOL0     C29492   4.610   3.255   7.398  0.7549 -0.3678  0.0424
  960MOL0     C29493   4.604   3.319   7.528 -0.5351 -0.0201  0.1108
  960MOL0     C29494   4.611   3.465   7.537 -0.1832  0.6023 -0.2214
  960MOL0     O29495   4.607   3.518   7.665 -0.0365 -0.6205  0.3660
  960MOL0     C29496   4.620   3.653   7.686  0.1309 -0.4644  0.6425
  960MOL0     C29497   4.674   3.746   7.597  0.8316  0.3127  0.1451
  960MOL0     C29498   4.688   3.881   7.629  0.4955 -0.8796  0.6334
  960MOL0     C29499   4.671   3.915   7.763 -0.0312 -0.0121 -0.2266
  960MOL0     O29500   4.690   4.050   7.803  0.5261  0.0750  0.2731
  960MOL0     C29501   4.755   4.076   7.933  0.8116 -0.1238 -0.4028
  960MOL0     C29502   4.838   4.200   7.942  0.1188  0.7042 -0.4807
  960MOL0     C29503   4.934   4.193   8.065  0.9516  0.0865  0.2867
  960MOL0     C29504   5.058   4.093   8.040  0.5919  1.1110  0.2951
  960MOL0     C29505   5.104   4.080   8.179 -0.2284 -0.0256 -0.3822
  960MOL0     C29506   5.246   4.037   8.190 -0.2918 -0.4681  0.1381
  960MOL0     C29507   5.289   3.893   8.146 -0.9918 -1.0238 -0.6166
  960MOL0     C29508   5.224   3.789   8.254 -0.5667 -0.4587 -0.0642
  960MOL0    Cl29509   5.285   3.628   8.209  0.3624  0.0756 -0.3602
  960MOL0     C29510   4.625   3.824   7.854  0.3770 -0.3995 -0.0670
  960MOL0     C29511   4.597   3.695   7.815  0.2307 -0.2822  0.1958
  960MOL0     O29512   4.606   3.525   7.430  0.0423  0.6434 -0.1038
  960MOL0     C29513   4.610   3.228   7.637 -0.0170  0.0712 -0.8461
  960MOL0     C29514   4.603   3.091   7.621  1.3114  0.2815 -1.0433
  960MOL0     N29515   4.598   2.288   7.764 -0.4155 -0.3354  0.0405
  960MOL0     N29516   4.582   2.166   7.793 -0.2522 -0.1627 -0.6203
  960MOL0     C29517   4.512   0.899   7.491  1.0796 -0.1217  0.0831
  960MOL0     C29518   4.553   0.778   7.433 -0.2793  0.2333  0.5087
  960MOL0     C29519   4.837   0.474   7.230  0.5433  0.1832  0.0612
  960MOL0     C29520   4.864   0.368   7.321  0.5572 -0.1036  0.1094
  960MOL0     C29521   4.907   0.243   7.271  0.5292  0.1258 -0.2136
  960MOL0     C29522   4.923   0.229   7.135  0.1036  0.4634 -0.8076
  960MOL0     O29523   4.943   0.103   7.078 -0.3127 -0.1225  0.8794
  960MOL0     C29524   5.080   0.073   7.041  0.9746  0.3917  0.0454
  960MOL0     C29525   5.105  -0.062   6.986 -0.7231 -0.7534 -0.7409
  960MOL0     C29526   5.067  -0.177   7.087 -0.7167 -0.4917 -0.0822
  960MOL0     C29527   5.012  -0.307   7.026  0.0073  0.6731  0.8968
  960MOL0     C29528   5.082  -0.429   7.066  0.0999  1.8795  0.8326
  960MOL0     C29529   5.139  -0.526   7.106 -0.3563  0.2746 -1.2246
  960MOL0     C29530   4.896   0.331   7.052  0.3371  0.4989 -0.7333
  960MOL0     C29531   4.856   0.454   7.090 -0.4789  0.6901 -0.1805
  960MOL0     C29532   4.835   0.554   6.982  0.0306  0.2162 -0.0259
  960MOL0     H29533   4.851   0.732   7.587  1.0965  2.6466  0.3970
  960MOL0     H29534   4.768   0.918   7.709 -0.4887  1.5837  0.1619
  960MOL0     H29535   4.606   1.038   7.835 -2.4534  0.3568 -1.4700
  960MOL0     H29536   4.728   1.131   7.737  0.8752 -1.6576 -1.3821
  960MOL0     H29537   4.565   1.269   7.911 -4.5051 -2.1464  1.4931
  960MOL0     H29538   4.451   1.246   7.785  1.2671  0.4949 -1.8973
  960MOL0     H29539   4.557   1.327   7.597  2.1038 -1.2126 -0.0976
  960MOL0     H29540   4.707   1.376   7.682 -0.2839  1.3307 -1.5676
  960MOL0     H29541   4.428   1.491   7.743 -0.4914  0.0801 -0.4577
  960MOL0     H29542   4.579   1.523   7.838 -1.5195  0.9854  1.6582
  960MOL0     H29543   4.674   1.641   7.676 -0.6089  0.1135  0.1174
  960MOL0     H29544   4.560   1.616   7.542 -0.0467  2.6561 -0.3107
  960MOL0     H29545   4.389   1.744   7.684 -0.2589 -0.0884  1.0561
  960MOL0     H29546   4.500   1.734   7.815 -1.4128  2.3261  0.3772
  960MOL0     H29547   4.610   1.874   7.577 -0.2877  0.1796 -0.3874
  960MOL0     H29548   4.653   1.867   7.742  1.9225  0.8226 -2.8830
  960MOL0     H29549   4.383   1.962   7.621  0.1220 -3.8867 -0.4941
  960MOL0     H29550   4.405   1.955   7.791  0.1526  2.5637  0.5264
  960MOL0     H29551   4.450   2.182   7.498 -1.4829  5.8454 -1.2161
  960MOL0     H29552   4.684   2.440   7.529 -1.1305  0.9021 -1.6595
  960MOL0     H29553   4.521   2.439   7.470  0.5016  0.4099  0.2406
  960MOL0     H29554   4.452   2.562   7.683 -2.2702  1.2599 -3.5824
  960MOL0     H29555   4.638   2.579   7.702  1.9743 -3.5235 -1.5576
  960MOL0     H29556   4.467   2.651   7.468  2.4155 -0.0676 -2.8718
  960MOL0     H29557   4.635   2.654   7.470 -2.1810 -0.2792 -3.3540
  960MOL0     H29558   4.628   2.815   7.665 -0.5092 -1.2282  1.1317
  960MOL0     H29559   4.456   2.822   7.641  0.2945 -3.0932  0.5886
  960MOL0     H29560   4.593   3.077   7.282  2.3606  0.0868  0.0324
  960MOL0     H29561   4.607   3.325   7.315 -4.0951  1.7965  1.6397
  960MOL0     H29562   4.693   3.724   7.493  0.4062 -0.9734  0.3096
  960MOL0     H29563   4.704   3.951   7.548 -0.8079 -2.6033 -1.2227
  960MOL0     H29564   4.677   4.085   8.009  1.3495 -1.7818  0.4029
  960MOL0     H29565   4.804   3.983   7.963  0.1997  0.1350  1.5389
  960MOL0     H29566   4.899   4.221   7.854  0.8435 -0.2551 -0.2185
  960MOL0     H29567   4.763   4.279   7.955  0.6923  1.0221  1.0736
  960MOL0     H29568   4.954   4.296   8.096 -2.2523  0.2505  2.3222
  960MOL0     H29569   4.884   4.144   8.149 -0.2178  3.2723  1.5962
  960MOL0     H29570   5.137   4.126   7.972 -0.1852 -0.0295 -1.2289
  960MOL0     H29571   5.024   3.999   7.995  2.7862  0.6000 -0.3978
  960MOL0     H29572   5.045   4.003   8.230  0.8947 -0.1562  0.7938
  960MOL0     H29573   5.103   4.178   8.227  2.9105 -0.1112  0.0565
  960MOL0     H29574   5.301   4.100   8.119 -3.4372  0.4650 -1.6598
  960MOL0     H29575   5.284   4.057   8.290  5.4964 -4.4085 -0.7663
  960MOL0     H29576   5.397   3.881   8.139 -0.2240  3.9172 -0.7302
  960MOL0     H29577   5.256   3.876   8.043  0.6126 -2.1235 -0.9816
  960MOL0     H29578   5.271   3.815   8.349  0.2970  0.6979 -0.7758
  960MOL0     H29579   5.116   3.801   8.261 -0.3340  1.2139  1.1026
  960MOL0     H29580   4.610   3.863   7.954  1.7749  0.6263 -0.2380
  960MOL0     H29581   4.562   3.639   7.902  1.4111 -2.7277 -0.8189
  960MOL0     H29582   4.625   3.275   7.734 -0.2996  0.9277 -1.2004
  960MOL0     H29583   4.608   3.025   7.707  1.4532  1.4622 -0.1194
  960MOL0     H29584   4.412   0.937   7.470  1.0045 -1.0174 -1.3362
  960MOL0     H29585   4.482   0.723   7.372  0.2988 -2.1245  1.8303
  960MOL0     H29586   4.837   0.379   7.425 -2.1290  2.0545 -0.6998
  960MOL0     H29587   4.912   0.159   7.340  1.0334  1.1352  1.0274
  960MOL0     H29588   5.134   0.080   7.136  3.0186  2.3696 -1.1563
  960MOL0     H29589   5.122   0.152   6.979 -0.3818 -0.6588 -2.3255
  960MOL0     H29590   5.211  -0.068   6.956  0.1666 -0.4104  2.0593
  960MOL0     H29591   5.053  -0.074   6.891 -3.7408 -0.1061  0.7217
  960MOL0     H29592   4.985  -0.160   7.157 -1.9128 -1.7149 -1.1340
  960MOL0     H29593   5.160  -0.186   7.144 -0.0060  0.2238 -1.0908
  960MOL0     H29594   4.905  -0.314   7.048 -0.2923 -0.9952 -0.7974
  960MOL0     H29595   5.025  -0.288   6.919 -1.1454  0.0983  0.6363
  960MOL0     H29596   5.187  -0.615   7.140 -1.1333 -0.3053 -1.5999
  960MOL0     H29597   4.924   0.308   6.950  1.6885 -2.0815  0.1066
  960MOL0     H29598   4.746   0.617   6.995  0.7366  0.6991  3.4729
  960MOL0     H29599   4.917   0.626   6.989  2.0852 -2.1874  2.9454
  960MOL0     H29600   4.820   0.506   6.885  0.7629  0.1669 -0.1146
  961MOL0     O29601   5.299   1.111   4.508  0.5241  0.6809  0.5115
  961MOL0     C29602   5.350   0.994   4.499  0.5835  0.1114  0.0785
  961MOL0     O29603   5.295   0.880   4.447 -0.4606  0.1612  0.3780
  961MOL0     C29604   5.161   0.869   4.450 -0.3586  0.1688  0.3171
  961MOL0     C29605   5.074   0.897   4.555 -0.0707 -0.1805  0.4976
  961MOL0     C29606   4.937   0.883   4.529 -0.4469 -0.2969 -0.6555
  961MOL0     C29607   4.892   0.832   4.409 -0.3345 -0.0854  0.1218
  961MOL0     O29608   4.765   0.830   4.354 -0.4432  0.2505  0.1218
  961MOL0     C29609   4.656   0.837   4.449  0.2759  0.1427  0.8373
  961MOL0     C29610   4.586   0.706   4.439 -1.2331 -0.2551  0.9287
  961MOL0     C29611   4.674   0.583   4.470 -0.2481 -0.6417  0.0834
  961MOL0     C29612   4.728   0.561   4.608 -0.0712 -1.2551  0.1481
  961MOL0     C29613   4.801   0.426   4.617 -0.1515  0.6859  0.1266
  961MOL0     C29614   4.955   0.417   4.627  0.1269 -0.0077 -0.5627
  961MOL0     C29615   5.037   0.504   4.533 -0.2953 -0.1350  0.8866
  961MOL0     C29616   5.186   0.455   4.536  1.3806  0.5521  0.3445
  961MOL0     N29617   5.252   0.454   4.666 -0.2675  0.6575 -0.0988
  961MOL0     C29618   5.251   0.355   4.753  0.0485  0.3699 -0.2863
  961MOL0     C29619   5.303   0.396   4.872 -0.2222 -0.5468  0.2938
  961MOL0     C29620   5.312   0.332   5.008  0.0868  0.8673 -0.6974
  961MOL0     C29621   5.184   0.249   5.061  0.6131  0.0893  0.3872
  961MOL0     C29622   5.155   0.263   5.214  0.9517 -0.1497  0.5659
  961MOL0     C29623   5.018   0.202   5.260  0.7523  0.4860  0.2359
  961MOL0     O29624   4.985   0.073   5.200  0.0816  0.4701  0.3469
  961MOL0     C29625   5.040  -0.031   5.264  0.2389  0.3597 -0.4655
  961MOL0     C29626   5.012  -0.157   5.204 -0.0266  0.5602  0.5945
  961MOL0     C29627   5.081  -0.269   5.235  1.4176 -0.0677 -0.2307
  961MOL0     C29628   5.183  -0.272   5.339  1.6049 -0.2103  0.0594
  961MOL0     C29629   5.250  -0.395   5.381  0.8059 -0.0938 -0.7869
  961MOL0     O29630   5.167  -0.507   5.390  0.3315  0.5153 -0.0901
  961MOL0     C29631   5.209  -0.620   5.457 -0.7660 -0.3012  0.2811
  961MOL0     C29632   5.238  -0.615   5.587 -0.4521 -0.2789 -0.5470
  961MOL0     C29633   5.291  -0.728   5.654  1.2434  0.5381  0.7617
  961MOL0     C29634   5.313  -0.848   5.586 -0.4384  0.5171  0.2188
  961MOL0     O29635   5.355  -0.962   5.647  0.3563 -0.5735  0.1702
  961MOL0     C29636   5.429  -0.968   5.772  0.5995  0.5097  0.1010
  961MOL0     C29637   5.502  -1.103   5.786 -0.6225  0.1415  1.1637
  961MOL0     C29638   5.554  -1.136   5.916 -0.2531  1.0520  0.3594
  961MOL0     C29639   5.618  -1.272   5.915 -0.0584  0.2403 -0.7031
  961MOL0     C29640   5.644  -1.316   6.061 -0.3334  0.7014 -0.0105
  961MOL0     C29641   5.630  -1.463   6.084  0.2594 -0.2555  0.7107
  961MOL0     C29642   5.728  -1.535   5.995 -0.2683  0.6514  0.9885
  961MOL0     C29643   5.869  -1.534   6.050  0.8395 -0.5289  0.4668
  961MOL0    Cl29644   5.947  -1.386   5.976 -0.0909  0.0094  0.0719
  961MOL0     C29645   5.272  -0.849   5.453 -0.4722  0.1723  0.5416
  961MOL0     C29646   5.225  -0.734   5.384  0.8551 -0.4231 -0.2972
  961MOL0     O29647   5.365  -0.385   5.421  0.5521 -0.4365  0.3684
  961MOL0     C29648   5.193  -0.151   5.409 -0.1565 -1.0824 -1.1273
  961MOL0     C29649   5.127  -0.031   5.375  0.8081  0.0563 -0.0205
  961MOL0     N29650   5.334   0.535   4.850 -0.1116  0.3316 -0.4412
  961MOL0     N29651   5.309   0.569   4.724 -1.3817 -0.0233  0.6207
  961MOL0     C29652   4.985   0.800   4.313  0.0513  0.3850  1.1323
  961MOL0     C29653   5.113   0.823   4.324 -0.0710 -0.5611  0.4405
  961MOL0     C29654   5.479   0.970   4.567 -0.0349  0.4214 -0.6027
  961MOL0     C29655   5.494   0.853   4.646  0.6893 -0.1773  0.1193
  961MOL0     C29656   5.606   0.830   4.726 -0.2249 -0.5801 -0.3830
  961MOL0     C29657   5.711   0.921   4.728 -0.2966  0.6860 -0.1091
  961MOL0     O29658   5.812   0.896   4.811 -0.5440  0.4012  0.3793
  961MOL0     C29659   5.898   1.013   4.844 -0.5105 -0.4429  0.2077
  961MOL0     C29660   5.988   0.995   4.965  0.0423  0.4211  0.4945
  961MOL0     C29661   5.904   0.966   5.093 -1.3622  0.5426  0.6896
  961MOL0     C29662   5.983   1.003   5.220 -0.0477  0.3740  0.4949
  961MOL0     C29663   6.107   0.930   5.219 -0.2595 -0.4511  0.5163
  961MOL0     C29664   6.189   0.849   5.218 -0.1781  0.0375 -0.1660
  961MOL0     C29665   5.701   1.037   4.649 -0.4063 -0.3330 -0.7505
  961MOL0     C29666   5.588   1.066   4.571  0.3499  0.4562  0.3843
  961MOL0     C29667   5.580   1.194   4.497 -0.0179  0.8836  0.7872
  961MOL0     H29668   5.112   0.951   4.641  0.1975  2.0629 -0.9551
  961MOL0     H29669   4.874   0.919   4.610  1.1074 -1.4947  1.2039
  961MOL0     H29670   4.679   0.848   4.555  1.5881  1.0983  0.4861
  961MOL0     H29671   4.599   0.930   4.433  3.6722  2.2863  0.1019
  961MOL0     H29672   4.567   0.705   4.331  3.1891 -0.5263 -0.0102
  961MOL0     H29673   4.492   0.706   4.496 -0.6131  0.4439  1.9860
  961MOL0     H29674   4.748   0.569   4.390  2.5339  1.9891  1.9948
  961MOL0     H29675   4.604   0.499   4.473 -3.1432  1.5738 -0.6826
  961MOL0     H29676   4.803   0.636   4.634  0.7423 -1.9731 -0.0834
  961MOL0     H29677   4.648   0.584   4.679  2.8344  3.4930  2.3952
  961MOL0     H29678   4.773   0.375   4.710 -2.0459  1.1044 -0.1745
  961MOL0     H29679   4.770   0.370   4.528 -0.6832  0.5059  0.4223
  961MOL0     H29680   4.997   0.441   4.726  1.0413 -3.1878 -0.0821
  961MOL0     H29681   4.983   0.317   4.594  3.0832  0.7140 -0.4842
  961MOL0     H29682   5.052   0.610   4.552  0.4605 -0.2774  1.1294
  961MOL0     H29683   4.986   0.505   4.436  0.4947 -0.3432  0.4603
  961MOL0     H29684   5.191   0.357   4.488  0.1959 -0.3179  1.9019
  961MOL0     H29685   5.244   0.528   4.478 -0.3648  1.6709 -0.0801
  961MOL0     H29686   5.199   0.260   4.746  0.9086 -0.1860  0.6981
  961MOL0     H29687   5.393   0.260   4.993  1.5106  2.7044 -2.2494
  961MOL0     H29688   5.354   0.405   5.077  1.9495  1.3830 -2.2956
  961MOL0     H29689   5.100   0.266   4.993 -0.7558 -3.9865  0.8458
  961MOL0     H29690   5.202   0.143   5.043 -0.0890  0.1381 -0.7040
  961MOL0     H29691   5.163   0.365   5.252  0.6992  0.8604 -1.8623
  961MOL0     H29692   5.236   0.206   5.259  2.6098 -0.0868 -2.1020
  961MOL0     H29693   4.941   0.275   5.233 -0.1033 -1.2809 -2.4801
  961MOL0     H29694   5.000   0.198   5.368  1.9301 -0.0555  0.4272
  961MOL0     H29695   4.942  -0.151   5.121 -0.5128  0.1128  0.9673
  961MOL0     H29696   5.049  -0.351   5.171 -3.8517 -0.3835  2.3482
  961MOL0     H29697   5.218  -0.522   5.639 -0.4342 -0.3612 -0.3937
  961MOL0     H29698   5.299  -0.729   5.762 -0.8769  0.6454  0.9636
  961MOL0     H29699   5.504  -0.888   5.776  2.2189 -0.9686  0.5520
  961MOL0     H29700   5.349  -0.965   5.846  0.0033  1.5934 -0.5580
  961MOL0     H29701   5.433  -1.176   5.743 -0.6400  0.0894  1.2800
  961MOL0     H29702   5.583  -1.116   5.714 -0.8425 -0.7478  1.0626
  961MOL0     H29703   5.625  -1.058   5.945  0.8124 -0.5371  2.2119
  961MOL0     H29704   5.470  -1.139   5.985 -2.6153  3.6099 -2.1372
  961MOL0     H29705   5.714  -1.266   5.862  0.3992  0.7308  0.1570
  961MOL0     H29706   5.547  -1.337   5.863 -2.6469  1.1781  1.4553
  961MOL0     H29707   5.571  -1.281   6.134  2.1279  1.6588  2.1485
  961MOL0     H29708   5.733  -1.266   6.100 -0.4130  2.4816 -1.9537
  961MOL0     H29709   5.642  -1.480   6.191  1.8113 -0.4652  0.5214
  961MOL0     H29710   5.528  -1.503   6.082  0.6588 -1.3339  1.0169
  961MOL0     H29711   5.724  -1.521   5.887 -0.1517 -2.1689  0.5345
  961MOL0     H29712   5.714  -1.642   6.014 -1.9653  0.5115 -0.7115
  961MOL0     H29713   5.869  -1.535   6.159  1.6847  0.5251  0.4988
  961MOL0     H29714   5.926  -1.622   6.017  2.8870  0.1915  1.8694
  961MOL0     H29715   5.276  -0.939   5.392  1.5903  0.5104  0.0896
  961MOL0     H29716   5.215  -0.730   5.276  0.9901 -2.1244 -0.3988
  961MOL0     H29717   5.257  -0.148   5.497 -2.0806  2.5678  0.3968
  961MOL0     H29718   5.156   0.050   5.442 -0.7183  0.6666 -0.0372
  961MOL0     H29719   4.948   0.776   4.214 -3.2171 -0.3352  2.3921
  961MOL0     H29720   5.169   0.811   4.232  0.2187  4.5210 -0.3284
  961MOL0     H29721   5.403   0.795   4.657 -0.9664  1.8960 -1.8324
  961MOL0     H29722   5.611   0.751   4.801 -0.3802 -0.0878  0.1482
  961MOL0     H29723   5.845   1.107   4.860 -1.0566 -0.4735 -1.2511
  961MOL0     H29724   5.975   1.026   4.767  1.8520 -0.8844  2.3635
  961MOL0     H29725   6.035   1.093   4.975  1.2994 -0.1409  0.2638
  961MOL0     H29726   6.069   0.922   4.951 -1.4405 -1.6779  2.1878
  961MOL0     H29727   5.886   0.858   5.104  2.0697 -0.3598 -0.9155
  961MOL0     H29728   5.808   1.014   5.073 -0.4242  1.6335 -1.5110
  961MOL0     H29729   6.010   1.109   5.227 -2.6173  1.1191  0.0608
  961MOL0     H29730   5.939   0.990   5.320  1.8005  2.6586  1.7094
  961MOL0     H29731   6.265   0.775   5.201  1.3269  1.2587  0.9635
  961MOL0     H29732   5.785   1.104   4.642  1.7152 -2.8640 -0.9614
  961MOL0     H29733   5.520   1.184   4.406  0.3456 -2.4836  0.7831
  961MOL0     H29734   5.538   1.271   4.562  0.2759  0.0370  2.0031
  961MOL0     H29735   5.677   1.221   4.454 -0.5395 -0.5783 -1.5034
  962MOL0     O29736   7.386  10.746   4.182 -0.4432 -0.6929 -0.0521
  962MOL0     C29737   7.348  10.634   4.210 -0.0589  0.0472  0.5243
  962MOL0     O29738   7.248  10.569   4.141  0.3854  0.1419  0.4920
  962MOL0     C29739   7.174  10.641   4.046 -0.5350 -0.3290 -0.2352
  962MOL0     C29740   7.236  10.637   3.923  0.5667  0.3136 -0.5649
  962MOL0     C29741   7.189  10.721   3.823 -0.3511  0.1654 -0.0699
  962MOL0     C29742   7.077  10.808   3.840  1.1441 -0.6306  0.9038
  962MOL0     O29743   7.019  10.891   3.739 -0.4405 -0.1252  0.4342
  962MOL0     C29744   7.019  10.840   3.599  0.6704 -0.8959 -1.3768
  962MOL0     C29745   6.878  10.887   3.549  0.9686  0.1548 -1.0594
  962MOL0     C29746   6.844  10.837   3.407  0.4680  0.2058 -0.4928
  962MOL0     C29747   6.705  10.882   3.372  0.1338 -0.9815  0.1736
  962MOL0     C29748   6.588  10.797   3.444  0.1772  0.1993  0.2968
  962MOL0     C29749   6.445  10.847   3.409 -0.8137  0.9002 -0.0840
  962MOL0     C29750   6.437  10.977   3.484 -0.2631 -0.0259 -0.7602
  962MOL0     C29751   6.287  10.987   3.530 -0.4718 -0.4214 -0.6788
  962MOL0     N29752   6.258  11.101   3.626 -0.8561 -0.7439  0.6022
  962MOL0     C29753   6.306  11.122   3.754  0.6105 -0.0025 -0.5760
  962MOL0     C29754   6.248  11.242   3.793 -0.0846  0.4585 -0.7019
  962MOL0     C29755   6.284  11.312   3.920  0.7012  0.3580  0.6347
  962MOL0     C29756   6.190  11.259   4.028 -0.6586  0.6235 -0.7414
  962MOL0     C29757   6.058  11.326   4.038 -0.3445  0.1817  0.1645
  962MOL0     C29758   5.964  11.247   4.117 -0.4435 -0.4960 -0.1924
  962MOL0     O29759   5.833  11.314   4.147  0.3679  0.4711 -0.6261
  962MOL0     C29760   5.745  11.228   4.214  0.3006  1.1881 -0.3404
  962MOL0     C29761   5.713  11.259   4.343 -0.2976  0.5137  0.7473
  962MOL0     C29762   5.619  11.185   4.418  0.6292 -0.6995  0.8340
  962MOL0     C29763   5.558  11.088   4.347 -0.1054  0.5280 -0.4765
  962MOL0     C29764   5.464  10.991   4.422  0.8021 -0.2553  0.9869
  962MOL0     O29765   5.407  11.030   4.540  0.4421  1.2526  0.5186
  962MOL0     C29766   5.358  10.942   4.624 -0.0159  0.8094  0.2546
  962MOL0     C29767   5.265  10.994   4.707 -0.0213 -0.2310 -0.1512
  962MOL0     C29768   5.191  10.906   4.802 -0.1454  0.1837  0.3260
  962MOL0     C29769   5.225  10.772   4.811  0.7168  0.6739  0.1098
  962MOL0     O29770   5.141  10.691   4.892 -1.3296 -0.0283  0.0901
  962MOL0     C29771   5.195  10.568   4.943 -0.0632 -0.0381  0.0274
  962MOL0     C29772   5.065  10.493   4.995  0.7295  0.4184  0.5799
  962MOL0     C29773   5.107  10.346   5.045 -0.7842 -0.0086 -0.2831
  962MOL0     C29774   5.193  10.343   5.171  0.3493 -0.7653  1.4816
  962MOL0     C29775   5.197  10.204   5.231 -0.2260  0.0707 -1.6653
  962MOL0     C29776   5.261  10.200   5.374 -0.5661  0.8676  0.1666
  962MOL0     C29777   5.408  10.168   5.356  0.3439 -0.0517  0.3839
  962MOL0     C29778   5.496  10.158   5.482  0.6324 -0.7635 -0.0570
  962MOL0    Cl29779   5.538   9.987   5.532  0.0521 -0.0626 -0.1916
  962MOL0     C29780   5.325  10.729   4.722 -0.3512  0.2905  0.4088
  962MOL0     C29781   5.405  10.808   4.636 -0.1424 -1.2176 -0.4357
  962MOL0     O29782   5.449  10.882   4.362 -0.7699  0.0449 -0.0288
  962MOL0     C29783   5.580  11.058   4.215 -0.5852 -0.0753 -0.0052
  962MOL0     C29784   5.686  11.120   4.150  0.0724 -0.1760  0.2414
  962MOL0     N29785   6.176  11.294   3.689 -0.9621  0.7325 -0.0367
  962MOL0     N29786   6.179  11.199   3.599 -0.5672  0.4187  0.9150
  962MOL0     C29787   7.010  10.795   3.964 -0.5555 -0.2163  0.6000
  962MOL0     C29788   7.061  10.715   4.068  0.4781 -0.2985 -0.1421
  962MOL0     C29789   7.394  10.565   4.325 -0.3651  0.5574 -0.9435
  962MOL0     C29790   7.315  10.455   4.374 -0.7359 -0.6798  0.0550
  962MOL0     C29791   7.361  10.379   4.481  1.4427  0.2359 -0.6395
  962MOL0     C29792   7.480  10.405   4.547  0.6261  0.4707 -0.3043
  962MOL0     O29793   7.517  10.320   4.653 -0.7744  0.2428 -0.8159
  962MOL0     C29794   7.595  10.370   4.771  0.0108  0.3897  0.4596
  962MOL0     C29795   7.662  10.251   4.840  0.6775 -0.4008  0.2357
  962MOL0     C29796   7.740  10.295   4.964  0.0839 -0.4250 -0.3917
  962MOL0     C29797   7.763  10.163   5.043  1.1124 -0.7858 -1.0092
  962MOL0     C29798   7.865  10.077   4.992  0.1890 -0.0354  0.9164
  962MOL0     C29799   7.948  10.006   4.937 -0.0821  0.3755  0.2009
  962MOL0     C29800   7.552  10.516   4.514  0.1561  0.1010 -0.6448
  962MOL0     C29801   7.514  10.596   4.405  0.1521  0.7983 -0.0462
  962MOL0     C29802   7.609  10.702   4.372  0.2572  0.0014  0.5648
  962MOL0     H29803   7.336  10.596   3.915  0.0544 -0.9448 -0.7237
  962MOL0     H29804   7.242  10.705   3.730 -0.3966 -1.7895  0.1917
  962MOL0     H29805   7.098  10.889   3.541  1.8409 -1.2514 -0.1199
  962MOL0     H29806   7.033  10.732   3.596  0.8898 -0.9038 -0.4069
  962MOL0     H29807   6.895  10.995   3.547 -0.8403  0.5368  0.9571
  962MOL0     H29808   6.805  10.861   3.627  0.8267  1.1941 -0.8323
  962MOL0     H29809   6.839  10.728   3.404 -1.6549  0.2551 -0.1277
  962MOL0     H29810   6.921  10.883   3.345  2.8404 -1.3096  1.1259
  962MOL0     H29811   6.696  10.987   3.402  1.4988 -1.3634  2.1976
  962MOL0     H29812   6.702  10.874   3.263 -2.9466 -1.5964  0.2345
  962MOL0     H29813   6.601  10.693   3.413 -2.1841 -0.5526  1.6269
  962MOL0     H29814   6.603  10.800   3.552 -0.2658 -3.3548  0.5677
  962MOL0     H29815   6.436  10.866   3.301 -0.7376 -1.3275 -0.5441
  962MOL0     H29816   6.372  10.771   3.436  2.1731 -1.8370  0.9140
  962MOL0     H29817   6.461  11.056   3.413  0.7256  0.0890 -0.3169
  962MOL0     H29818   6.506  10.991   3.568  1.1501  2.2000 -2.1932
  962MOL0     H29819   6.215  10.996   3.448 -3.1694 -1.0078  1.4417
  962MOL0     H29820   6.262  10.897   3.587  1.1509 -0.4566  0.0287
  962MOL0     H29821   6.375  11.050   3.798 -1.3809 -1.6179  0.0620
  962MOL0     H29822   6.382  11.273   3.951  0.8498 -2.3497 -2.6797
  962MOL0     H29823   6.282  11.422   3.920  3.2445  0.4842 -1.1036
  962MOL0     H29824   6.182  11.150   4.024  4.3785 -0.0983  1.3862
  962MOL0     H29825   6.230  11.279   4.128 -1.4974  0.7790 -0.4279
  962MOL0     H29826   6.016  11.343   3.938  1.4018 -3.2724 -1.2997
  962MOL0     H29827   6.068  11.418   4.097 -4.0365  0.4326  0.6246
  962MOL0     H29828   6.013  11.222   4.211  2.0271  0.7252 -1.0785
  962MOL0     H29829   5.937  11.154   4.067 -2.2913 -0.6405  0.9577
  962MOL0     H29830   5.750  11.353   4.383 -1.6280  2.2756 -1.8303
  962MOL0     H29831   5.609  11.211   4.522 -0.9785  3.5898 -0.1711
  962MOL0     H29832   5.229  11.097   4.701  2.0373  0.4639 -1.5882
  962MOL0     H29833   5.103  10.932   4.860 -0.0539 -0.0690  0.5799
  962MOL0     H29834   5.236  10.511   4.859 -0.2842 -1.5134  0.8734
  962MOL0     H29835   5.267  10.595   5.021  1.8946 -0.9353 -1.3785
  962MOL0     H29836   5.019  10.550   5.076  2.1118  0.3366  1.4426
  962MOL0     H29837   4.994  10.489   4.911  0.3277 -3.3226  0.9428
  962MOL0     H29838   5.014  10.297   5.078  0.6998 -1.6538  1.7111
  962MOL0     H29839   5.147  10.284   4.965  0.9500 -1.0921  1.3390
  962MOL0     H29840   5.143  10.420   5.230 -1.3052  1.1968 -2.1425
  962MOL0     H29841   5.289  10.393   5.154 -1.9010  2.9988 -2.2976
  962MOL0     H29842   5.245  10.140   5.157 -0.0850  2.0109 -3.3396
  962MOL0     H29843   5.092  10.177   5.243 -0.6273  2.2894  1.0833
  962MOL0     H29844   5.246  10.294   5.429  2.2038  1.8160 -0.5010
  962MOL0     H29845   5.219  10.119   5.433  0.8000  0.7991  1.0996
  962MOL0     H29846   5.451  10.254   5.304  0.4870  1.1812  2.4310
  962MOL0     H29847   5.425  10.077   5.299 -1.6061 -0.1792 -0.0698
  962MOL0     H29848   5.590  10.212   5.467 -0.6203  1.9490  1.2530
  962MOL0     H29849   5.461  10.221   5.564  2.7170  0.4518 -0.0391
  962MOL0     H29850   5.351  10.625   4.707  1.6228  0.7009  0.6657
  962MOL0     H29851   5.481  10.766   4.570 -1.1853  0.7042 -3.0329
  962MOL0     H29852   5.543  10.970   4.163  4.9486 -0.7060 -3.8643
  962MOL0     H29853   5.710  11.098   4.046 -0.7130  2.1198 -0.4978
  962MOL0     H29854   6.936  10.873   3.980  1.4497  1.8594  0.3354
  962MOL0     H29855   7.021  10.703   4.168  0.7099  1.8875  0.2629
  962MOL0     H29856   7.230  10.423   4.315  0.5156 -0.4294 -1.9763
  962MOL0     H29857   7.289  10.309   4.522 -1.0975  2.0081 -1.7421
  962MOL0     H29858   7.517  10.399   4.842 -0.0212  1.2261  0.0994
  962MOL0     H29859   7.672  10.447   4.765 -1.0903  1.8228  3.0627
  962MOL0     H29860   7.737  10.218   4.768  1.6159 -1.7226  1.7472
  962MOL0     H29861   7.585  10.178   4.866  0.3533 -0.2636 -0.3478
  962MOL0     H29862   7.667  10.357   5.017 -3.3229 -1.3481 -3.5746
  962MOL0     H29863   7.833  10.349   4.948 -0.4481 -0.2204 -3.5669
  962MOL0     H29864   7.787  10.188   5.147  1.4751 -0.7694 -1.0947
  962MOL0     H29865   7.668  10.109   5.048  0.8282 -0.1874  2.9696
  962MOL0     H29866   8.019   9.943   4.887 -2.3038 -1.6849 -0.5562
  962MOL0     H29867   7.639  10.541   4.574 -1.8830 -3.5440  4.5130
  962MOL0     H29868   7.562  10.796   4.343  0.1244 -0.0801  0.5164
  962MOL0     H29869   7.684  10.716   4.451 -0.5409 -1.0449  1.5315
  962MOL0     H29870   7.674  10.670   4.290  1.0249  0.5762  0.9375
  963MOL0     O29871   4.842  11.364   0.473  0.5590 -0.2324  0.3767
  963MOL0     C29872   4.791  11.261   0.429 -0.8017  0.5671 -0.2606
  963MOL0     O29873   4.681  11.265   0.345 -0.7822 -0.5349  0.0695
  963MOL0     C29874   4.594  11.377   0.339 -0.0803 -0.8929 -0.3520
  963MOL0     C29875   4.550  11.439   0.220  0.4628  0.6219  0.3837
  963MOL0     C29876   4.449  11.540   0.208  0.0555  0.6192  0.1351
  963MOL0     C29877   4.400  11.597   0.327 -0.6855  0.6235 -0.1259
  963MOL0     O29878   4.295  11.689   0.324 -0.2323 -0.2845 -0.6934
  963MOL0     C29879   4.198  11.684   0.428  0.7925  0.2247 -0.2753
  963MOL0     C29880   4.085  11.764   0.379  0.8966  0.5300  0.1353
  963MOL0     C29881   4.105  11.908   0.395 -0.4806 -0.5345  0.4488
  963MOL0     C29882   3.967  11.976   0.386  0.8504  0.0063 -0.1954
  963MOL0     C29883   3.991  12.124   0.381 -0.2164 -0.7802 -1.1337
  963MOL0     C29884   3.865  12.202   0.347  1.4403 -0.1239  0.1255
  963MOL0     C29885   3.899  12.333   0.282 -0.4900  0.1468 -0.1101
  963MOL0     C29886   3.940  12.314   0.134 -0.1368  0.1805 -0.8144
  963MOL0     N29887   3.902  12.440   0.058  0.3588  0.3507  0.2946
  963MOL0     C29888   3.990  12.531   0.012  0.1117 -0.2531 -1.0223
  963MOL0     C29889   3.909  12.627  -0.031 -0.8648 -1.0275  0.3444
  963MOL0     C29890   3.970  12.731  -0.112 -0.2522 -0.2263 -0.5910
  963MOL0     C29891   4.025  12.848  -0.029  0.4365 -0.4363  0.3756
  963MOL0     C29892   4.046  12.973  -0.119 -0.1770  0.5262  0.8102
  963MOL0     C29893   3.927  13.022  -0.215  0.0426 -0.7675  0.3029
  963MOL0     O29894   3.975  13.144  -0.274  0.2352  0.1463  0.0506
  963MOL0     C29895   3.937  13.261  -0.205  0.8932  0.0698 -0.4332
  963MOL0     C29896   3.976  13.379  -0.262  0.8130  0.6775 -0.8540
  963MOL0     C29897   3.966  13.508  -0.195 -0.5015  0.4123 -0.6904
  963MOL0     C29898   3.916  13.511  -0.065 -0.3367 -0.2733  0.2826
  963MOL0     C29899   3.911  13.634   0.006 -1.3768 -0.4818 -0.3316
  963MOL0     O29900   3.886  13.627   0.145 -0.3761  0.7132 -0.5229
  963MOL0     C29901   3.884  13.738   0.230  0.4931  0.3805 -0.4323
  963MOL0     C29902   3.998  13.788   0.279  0.0989 -0.7623  0.5009
  963MOL0     C29903   3.989  13.878   0.383 -0.4792  0.1127  0.1833
  963MOL0     C29904   3.866  13.919   0.440 -0.0122 -0.7380  0.8072
  963MOL0     O29905   3.855  14.022   0.534 -0.1446  0.3192  0.0948
  963MOL0     C29906   3.963  14.023   0.635  0.0634 -0.4061 -0.2455
  963MOL0     C29907   3.914  14.064   0.771 -0.1620  0.0924 -0.2571
  963MOL0     C29908   3.873  14.208   0.793 -1.5937  0.6539 -0.0704
  963MOL0     C29909   3.788  14.226   0.913 -0.2748  0.5829  0.4007
  963MOL0     C29910   3.755  14.386   0.902  1.2571 -0.5878 -0.1732
  963MOL0     C29911   3.708  14.468   1.027  0.2145 -0.0214 -0.4348
  963MOL0     C29912   3.679  14.626   0.998 -0.3586  0.6036  0.6446
  963MOL0     C29913   3.536  14.647   0.952  0.5833  0.0484  0.2327
  963MOL0    Cl29914   3.528  14.816   0.872  0.4918  0.5218 -0.2162
  963MOL0     C29915   3.754  13.868   0.379 -0.4831  0.5562 -0.9662
  963MOL0     C29916   3.760  13.780   0.280  0.9672  0.0989 -0.2471
  963MOL0     O29917   3.949  13.746  -0.053 -0.0022  0.7549  0.8541
  963MOL0     C29918   3.857  13.393  -0.009 -0.2333  0.2389 -0.1453
  963MOL0     C29919   3.872  13.274  -0.074 -0.8641 -0.7124  0.4871
  963MOL0     N29920   3.779  12.593  -0.020  0.3672  0.7031 -0.3366
  963MOL0     N29921   3.770  12.471   0.031 -0.2953  0.2498 -0.4335
  963MOL0     C29922   4.448  11.540   0.451  1.0611  0.6079  0.9975
  963MOL0     C29923   4.534  11.431   0.456 -0.2083  0.2851  1.8686
  963MOL0     C29924   4.848  11.130   0.476 -0.5544 -0.2458 -0.4311
  963MOL0     C29925   4.816  11.008   0.414  0.6179  0.4190  1.0440
  963MOL0     C29926   4.875  10.875   0.444  1.1544 -0.4321  0.3421
  963MOL0     C29927   4.946  10.867   0.564 -0.5439  0.7305  0.3105
  963MOL0     O29928   5.005  10.759   0.613 -0.3034 -0.0848 -0.4263
  963MOL0     C29929   5.068  10.672   0.517  0.2318  0.5577  0.0714
  963MOL0     C29930   5.187  10.597   0.569 -0.2734  0.0706 -0.3251
  963MOL0     C29931   5.301  10.689   0.627  0.7406 -0.4503 -0.1999
  963MOL0     C29932   5.400  10.768   0.530 -1.2447  1.3258  0.3661
  963MOL0     C29933   5.321  10.880   0.470 -0.7683 -0.0106 -0.1328
  963MOL0     C29934   5.261  10.975   0.420  0.1453 -0.4508 -0.0744
  963MOL0     C29935   4.971  10.984   0.633  0.6280 -0.7158 -0.1496
  963MOL0     C29936   4.947  11.119   0.589 -0.2517 -0.1807 -0.5925
  963MOL0     C29937   5.019  11.228   0.669 -0.0059 -1.4146 -0.7642
  963MOL0     H29938   4.604  11.403   0.134 -0.1108 -0.1670  0.3459
  963MOL0     H29939   4.409  11.568   0.111 -3.9500  1.3300  1.7755
  963MOL0     H29940   4.166  11.582   0.454  1.8933 -1.1708 -3.8685
  963MOL0     H29941   4.237  11.742   0.513 -1.9993  1.8768 -0.0191
  963MOL0     H29942   4.002  11.736   0.444 -0.6178  0.1704 -1.8464
  963MOL0     H29943   4.071  11.737   0.274  0.6497  0.7461  0.1110
  963MOL0     H29944   4.171  11.953   0.320 -3.6102  0.7265 -1.7401
  963MOL0     H29945   4.148  11.933   0.493 -1.0414  2.0950  0.0901
  963MOL0     H29946   3.921  11.938   0.294  1.6216 -3.0740  0.5957
  963MOL0     H29947   3.907  11.953   0.475  0.6389 -0.3993 -0.4389
  963MOL0     H29948   4.023  12.154   0.482 -1.8336 -2.1392 -0.1465
  963MOL0     H29949   4.056  12.155   0.299 -0.5260 -0.9499 -1.4476
  963MOL0     H29950   3.812  12.141   0.273  1.8427  0.7672 -0.9201
  963MOL0     H29951   3.805  12.213   0.438  1.7054  1.5528  0.1280
  963MOL0     H29952   3.987  12.357   0.342  0.7401 -1.1577 -1.3061
  963MOL0     H29953   3.819  12.407   0.284 -1.3976 -0.8089  0.3786
  963MOL0     H29954   4.047  12.300   0.122 -0.2756  0.0634 -1.9805
  963MOL0     H29955   3.894  12.219   0.104 -0.4354  0.2924 -0.7186
  963MOL0     H29956   4.097  12.516   0.006  0.7069  1.8388  2.0275
  963MOL0     H29957   4.052  12.694  -0.175  2.3305 -0.5142  2.6578
  963MOL0     H29958   3.894  12.766  -0.182  2.8129  1.9418 -3.1344
  963MOL0     H29959   3.954  12.876   0.049 -1.4110 -0.3662 -1.2494
  963MOL0     H29960   4.118  12.817   0.019  0.4486  0.6664  1.0906
  963MOL0     H29961   4.146  12.968  -0.164 -0.8857 -1.1145 -0.7032
  963MOL0     H29962   4.063  13.052  -0.045  0.0349  2.0534 -0.7734
  963MOL0     H29963   3.829  13.040  -0.168  0.6605 -1.4703  1.9265
  963MOL0     H29964   3.911  12.963  -0.305  3.3750  0.3741 -1.1738
  963MOL0     H29965   4.029  13.377  -0.357  2.2442  0.4179 -0.0911
  963MOL0     H29966   4.006  13.600  -0.238  2.2648  0.3943  1.5169
  963MOL0     H29967   4.097  13.754   0.252 -0.1284 -1.4379  0.5050
  963MOL0     H29968   4.083  13.916   0.420 -0.2873 -0.6748  0.5189
  963MOL0     H29969   4.008  13.923   0.639  0.9784  0.0259  1.1064
  963MOL0     H29970   4.041  14.097   0.614  0.4316 -0.9627 -0.9114
  963MOL0     H29971   3.830  13.995   0.784 -2.1454  1.3729 -4.4179
  963MOL0     H29972   3.994  14.051   0.844 -0.4187  3.9994  0.9659
  963MOL0     H29973   3.969  14.258   0.812  0.1794 -2.4036 -0.2581
  963MOL0     H29974   3.838  14.255   0.701 -0.0092  2.0413 -0.0122
  963MOL0     H29975   3.832  14.192   1.008 -1.7291  2.8172  1.9726
  963MOL0     H29976   3.693  14.175   0.898 -1.4917  1.3942  4.2576
  963MOL0     H29977   3.699  14.399   0.810  1.3290 -3.6196 -0.7773
  963MOL0     H29978   3.853  14.429   0.881  1.8682 -1.3753  0.9002
  963MOL0     H29979   3.625  14.414   1.073  0.7916 -1.5150 -1.0919
  963MOL0     H29980   3.786  14.473   1.104  0.1284 -1.3398 -0.2485
  963MOL0     H29981   3.739  14.650   0.909 -2.7003  0.6118 -1.0119
  963MOL0     H29982   3.693  14.693   1.083 -2.6486  0.8365  0.8922
  963MOL0     H29983   3.506  14.574   0.875  0.4546  2.7492 -2.4416
  963MOL0     H29984   3.468  14.630   1.036 -1.3453 -3.5421 -1.7439
  963MOL0     H29985   3.654  13.899   0.405 -0.8324 -1.5794  0.4830
  963MOL0     H29986   3.665  13.745   0.241  0.8267  2.8034 -2.6641
  963MOL0     H29987   3.800  13.389   0.083 -0.1100 -0.9052 -0.1054
  963MOL0     H29988   3.843  13.179  -0.029 -1.4874 -1.8943 -2.2246
  963MOL0     H29989   4.410  11.593   0.538  1.7919  0.3318  1.4919
  963MOL0     H29990   4.580  11.386   0.543  1.1825  1.1953  1.6476
  963MOL0     H29991   4.743  11.016   0.335  1.0599 -3.3239  0.0839
  963MOL0     H29992   4.855  10.798   0.370  1.7850  0.2858 -0.6094
  963MOL0     H29993   5.083  10.736   0.430 -0.9545  0.9646  0.1438
  963MOL0     H29994   4.994  10.600   0.481  1.7367 -0.9589 -0.1455
  963MOL0     H29995   5.232  10.529   0.495  0.6321  0.2433  0.0594
  963MOL0     H29996   5.157  10.531   0.650  4.4562 -0.5925  1.2112
  963MOL0     H29997   5.356  10.628   0.699 -0.1949 -1.6060 -0.4426
  963MOL0     H29998   5.260  10.772   0.686 -1.7638 -3.1088  2.1226
  963MOL0     H29999   5.485  10.814   0.582 -0.2892  1.0212 -0.8895
  963MOL0     H30000   5.439  10.711   0.446  0.5778  0.0776  1.9697
  963MOL0     H30001   5.196  11.053   0.384 -2.8369 -2.0043  1.5568
  963MOL0     H30002   5.017  10.962   0.729  0.8959 -1.5284 -0.4595
  963MOL0     H30003   5.051  11.314   0.609  0.3476  0.9624  2.5840
  963MOL0     H30004   4.937  11.261   0.734  0.3537  3.3889 -2.3987
  963MOL0     H30005   5.102  11.184   0.725 -0.1574  0.3181  0.9118
  964MOL0     O30006   5.741   4.625   9.965 -0.0312  0.4155 -0.3396
  964MOL0     C30007   5.789   4.515  10.001  0.3981 -0.1429 -0.0929
  964MOL0     O30008   5.862   4.502  10.115  0.9580  0.0109  1.2712
  964MOL0     C30009   5.929   4.598  10.182  0.3206 -0.4320  0.2113
  964MOL0     C30010   5.959   4.725  10.141 -0.0523 -0.3029 -0.3538
  964MOL0     C30011   6.020   4.819  10.225  0.1738  0.6771  0.2460
  964MOL0     C30012   6.063   4.783  10.355 -0.8003  0.4944 -0.1851
  964MOL0     O30013   6.120   4.870  10.448 -0.2488 -0.3636  0.5523
  964MOL0     C30014   6.101   5.013  10.420 -0.3355  0.3717 -0.2248
  964MOL0     C30015   6.129   5.101  10.543 -0.3064  0.1870 -0.0747
  964MOL0     C30016   6.260   5.072  10.619  0.2285  0.3127  1.0681
  964MOL0     C30017   6.264   5.176  10.723 -1.4092  0.4277 -0.7746
  964MOL0     C30018   6.404   5.186  10.782 -0.0137  0.9849 -0.3728
  964MOL0     C30019   6.424   5.313  10.874 -0.0754  1.5419  0.0229
  964MOL0     C30020   6.326   5.310  10.991  0.2755  0.2716 -0.5937
  964MOL0     C30021   6.353   5.402  11.118  0.2510 -0.1295  0.0079
  964MOL0     N30022   6.493   5.369  11.167  0.1807 -0.4489  0.0889
  964MOL0     C30023   6.549   5.245  11.183  0.5562  0.5316 -0.7818
  964MOL0     C30024   6.675   5.276  11.219 -0.2306 -0.3381  0.3812
  964MOL0     C30025   6.776   5.167  11.226  1.0921 -0.3373  0.7165
  964MOL0     C30026   6.827   5.141  11.363 -0.0778  0.2466  0.0946
  964MOL0     C30027   6.946   5.232  11.404 -1.0513 -0.3289  0.5950
  964MOL0     C30028   6.992   5.195  11.553 -0.2943  0.8245 -0.0979
  964MOL0     O30029   6.901   5.242  11.645 -0.0253  0.3819  0.1608
  964MOL0     C30030   6.927   5.214  11.777 -0.0711  0.4185 -0.4978
  964MOL0     C30031   6.847   5.280  11.866 -0.3515 -0.6639 -0.6020
  964MOL0     C30032   6.861   5.257  12.004  0.3371 -0.0174 -0.1148
  964MOL0     C30033   6.956   5.167  12.049  0.3442  0.5622 -0.2363
  964MOL0     C30034   6.968   5.136  12.197  1.0841  0.2650 -0.6560
  964MOL0     O30035   7.082   5.070  12.241 -0.6381  0.0521 -0.0182
  964MOL0     C30036   7.077   5.017  12.365 -0.0821 -0.7681 -0.2085
  964MOL0     C30037   7.046   4.879  12.382 -0.7209  0.4674  0.2339
  964MOL0     C30038   7.020   4.835  12.511  0.2750  0.0448  0.0905
  964MOL0     C30039   7.016   4.912  12.623  0.5558  0.0705 -0.5562
  964MOL0     O30040   6.982   4.869  12.757 -0.2517 -0.1841  1.1590
  964MOL0     C30041   6.878   4.771  12.769 -0.4710  0.5367  0.2724
  964MOL0     C30042   6.788   4.781  12.896 -0.3914  0.2435  0.6375
  964MOL0     C30043   6.866   4.776  13.019 -0.9868 -0.2548  0.2942
  964MOL0     C30044   6.928   4.635  13.045  0.8001 -0.2202  1.5239
  964MOL0     C30045   7.032   4.640  13.160 -0.8098 -0.2582 -0.0846
  964MOL0     C30046   7.169   4.683  13.099  0.4207  1.1127 -0.2645
  964MOL0     C30047   7.218   4.804  13.171  0.4605  1.2612  0.6106
  964MOL0     C30048   7.341   4.880  13.103 -0.2920  0.5898  0.8470
  964MOL0    Cl30049   7.324   5.053  13.124  0.0574 -0.1527 -0.0544
  964MOL0     C30050   7.066   5.042  12.605 -0.0452 -0.6841  0.1586
  964MOL0     C30051   7.086   5.103  12.479  0.0411  1.3135  0.2808
  964MOL0     O30052   6.876   5.169  12.267  0.5789 -0.2930  0.1291
  964MOL0     C30053   7.041   5.098  11.963 -0.8745 -0.2415 -0.2689
  964MOL0     C30054   7.031   5.123  11.828  0.2370  1.1632  0.3775
  964MOL0     N30055   6.695   5.409  11.247 -0.6304 -0.0831  0.5108
  964MOL0     N30056   6.582   5.472  11.212  0.1643 -0.1046  0.5620
  964MOL0     C30057   6.033   4.651  10.396  0.0911  0.1793  1.1438
  964MOL0     C30058   5.971   4.562  10.312  1.3497 -0.0177  0.2975
  964MOL0     C30059   5.738   4.393   9.937  1.1214  1.4046 -0.5491
  964MOL0     C30060   5.692   4.404   9.796  0.0622 -0.2166 -0.8024
  964MOL0     C30061   5.631   4.304   9.733  0.0124 -0.5069 -0.4365
  964MOL0     C30062   5.608   4.182   9.795 -0.6733 -0.0368 -0.3413
  964MOL0     O30063   5.533   4.085   9.735 -0.5374 -1.1243  0.2967
  964MOL0     C30064   5.522   3.948   9.775  0.2071  0.4875 -0.9036
  964MOL0     C30065   5.393   3.931   9.864 -0.6829 -0.6007 -0.1974
  964MOL0     C30066   5.270   3.971   9.780  0.0253 -0.2851 -0.2778
  964MOL0     C30067   5.150   3.955   9.880  0.4428 -0.1895 -0.1402
  964MOL0     C30068   5.116   3.818   9.915  0.6535  1.0710 -0.1777
  964MOL0     C30069   5.068   3.710   9.944 -0.7830 -0.6971 -0.1295
  964MOL0     C30070   5.660   4.156   9.929  0.4865  0.5551  0.1181
  964MOL0     C30071   5.727   4.263   9.993  0.6947 -0.1961  0.4710
  964MOL0     C30072   5.792   4.218  10.127  0.9294 -0.1277  0.1241
  964MOL0     H30073   5.932   4.755  10.040 -4.2275  2.2781  1.2204
  964MOL0     H30074   6.034   4.921  10.192  2.2858  0.8664  1.5740
  964MOL0     H30075   6.180   5.043  10.350 -0.8048 -1.4859 -1.6345
  964MOL0     H30076   6.007   5.042  10.373 -0.4464 -0.3064 -0.4340
  964MOL0     H30077   6.047   5.089  10.614  0.9549 -0.6602  1.3165
  964MOL0     H30078   6.138   5.206  10.513 -0.0875  0.3710  0.6143
  964MOL0     H30079   6.339   5.090  10.545 -0.3820  3.8433  1.0868
  964MOL0     H30080   6.281   4.975  10.665  0.2345  0.2161  0.8675
  964MOL0     H30081   6.239   5.276  10.687  0.6483  0.5041 -2.1732
  964MOL0     H30082   6.204   5.137  10.806  1.2954 -2.5406 -0.0159
  964MOL0     H30083   6.420   5.089  10.830  1.7893  0.7249 -1.4049
  964MOL0     H30084   6.483   5.201  10.708  0.3480  5.2091  0.6468
  964MOL0     H30085   6.526   5.325  10.913  0.1609  0.9410 -0.4036
  964MOL0     H30086   6.405   5.405  10.818  0.6795  2.4874  1.2581
  964MOL0     H30087   6.289   5.210  11.018 -0.1788  0.1369 -1.6614
  964MOL0     H30088   6.235   5.355  10.951 -0.9587 -2.2501 -0.8661
  964MOL0     H30089   6.328   5.505  11.091  0.1737 -1.0396 -3.9288
  964MOL0     H30090   6.276   5.374  11.190  0.6024 -0.8516  0.1117
  964MOL0     H30091   6.519   5.146  11.152  2.5220  0.0631 -1.3113
  964MOL0     H30092   6.734   5.078  11.179  3.7269 -1.3757  0.1681
  964MOL0     H30093   6.854   5.208  11.160  0.2446  1.2797  0.6578
  964MOL0     H30094   6.743   5.157  11.431 -0.4065  0.3861 -0.3395
  964MOL0     H30095   6.867   5.041  11.378 -0.4498 -0.0246 -0.6708
  964MOL0     H30096   6.912   5.336  11.403  2.1055  0.8173  1.2008
  964MOL0     H30097   7.028   5.225  11.332 -1.1543  2.3175  0.1148
  964MOL0     H30098   7.087   5.242  11.578 -0.5202  1.8796 -1.1637
  964MOL0     H30099   7.003   5.086  11.565 -0.1880  1.0447  2.3685
  964MOL0     H30100   6.804   5.372  11.827  0.8365  0.5899  0.9605
  964MOL0     H30101   6.800   5.307  12.079  0.0524  0.3476 -0.5790
  964MOL0     H30102   7.034   4.816  12.294  0.6277  2.5999 -1.5708
  964MOL0     H30103   6.972   4.738  12.519  0.6381 -0.0498  1.4580
  964MOL0     H30104   6.808   4.773  12.684  1.8623  1.2547 -1.7585
  964MOL0     H30105   6.931   4.675  12.772 -1.4602 -0.0397  0.0239
  964MOL0     H30106   6.735   4.877  12.891  0.9045  0.9746  0.6325
  964MOL0     H30107   6.711   4.704  12.885 -0.4585  0.5239 -1.1449
  964MOL0     H30108   6.946   4.847  12.996  1.0535 -3.4913 -4.2311
  964MOL0     H30109   6.823   4.812  13.113 -0.7213 -2.2945  1.2683
  964MOL0     H30110   6.980   4.598  12.956 -0.0036 -1.4617  1.5497
  964MOL0     H30111   6.838   4.576  13.063  0.3514 -1.2651 -2.9280
  964MOL0     H30112   7.061   4.544  13.205  3.1479  0.7566 -0.0856
  964MOL0     H30113   6.999   4.707  13.240  1.9541  2.1314 -0.7498
  964MOL0     H30114   7.241   4.601  13.108  0.3402  1.2617  2.2997
  964MOL0     H30115   7.175   4.701  12.991 -2.0238  1.0367 -0.4595
  964MOL0     H30116   7.250   4.786  13.274  0.2222 -1.6980  0.2480
  964MOL0     H30117   7.133   4.872  13.171  0.9034  1.9603 -2.7738
  964MOL0     H30118   7.436   4.844  13.145 -0.1416 -1.2257 -0.9082
  964MOL0     H30119   7.356   4.861  12.996  1.1531  0.0949  1.1133
  964MOL0     H30120   7.079   5.111  12.688 -4.0072 -1.0995  1.3299
  964MOL0     H30121   7.106   5.206  12.452  0.8027  1.7760  2.4254
  964MOL0     H30122   7.119   5.037  12.007  0.5907  1.9154  0.2279
  964MOL0     H30123   7.114   5.080  11.772 -0.8456 -0.4380 -0.0926
  964MOL0     H30124   6.075   4.622  10.491 -1.1236  0.1618  1.6885
  964MOL0     H30125   5.962   4.459  10.344  1.8429  0.1734  1.0744
  964MOL0     H30126   5.694   4.505   9.755  2.9841  0.8479  1.5693
  964MOL0     H30127   5.586   4.301   9.635 -1.0136 -2.0005  0.0462
  964MOL0     H30128   5.611   3.923   9.833 -1.7602 -2.0039  1.2596
  964MOL0     H30129   5.514   3.874   9.695 -3.7379  0.9260 -1.0971
  964MOL0     H30130   5.407   3.997   9.950  2.5278 -0.8335 -0.4009
  964MOL0     H30131   5.390   3.827   9.899  0.7259  0.1432  2.4123
  964MOL0     H30132   5.250   3.916   9.688  1.8438 -0.4711 -0.5922
  964MOL0     H30133   5.275   4.077   9.756  1.0067 -0.5394 -1.2788
  964MOL0     H30134   5.171   3.991   9.981 -0.7727 -3.3599  1.3844
  964MOL0     H30135   5.064   4.014   9.845 -0.4405 -1.6380 -0.5256
  964MOL0     H30136   5.033   3.616   9.979  1.2391 -1.3673  0.2366
  964MOL0     H30137   5.646   4.062   9.983  0.6091  2.1064  3.0906
  964MOL0     H30138   5.724   4.225  10.212  0.1905 -0.3360 -0.4330
  964MOL0     H30139   5.830   4.116  10.114 -0.2404 -0.8531  1.9747
  964MOL0     H30140   5.879   4.274  10.160  0.0077 -0.1749  2.8514
  965MOL0     O30141   2.066   1.784  10.207 -0.2016 -0.1280 -0.6043
  965MOL0     C30142   2.148   1.710  10.157  0.0529  0.0688 -0.7779
  965MOL0     O30143   2.271   1.692  10.204 -0.3927 -0.2945  0.0555
  965MOL0     C30144   2.329   1.719  10.332 -0.0192  0.5170 -0.6227
  965MOL0     C30145   2.461   1.689  10.347 -0.1768 -0.5455 -0.0897
  965MOL0     C30146   2.523   1.711  10.473  0.1183  1.5092  0.2915
  965MOL0     C30147   2.455   1.765  10.578  0.4167 -1.1114  0.4652
  965MOL0     O30148   2.529   1.800  10.687  0.5892  0.6846 -0.6993
  965MOL0     C30149   2.600   1.702  10.763  0.7614  0.5419  0.9610
  965MOL0     C30150   2.743   1.741  10.764  0.1806  0.1919 -0.8015
  965MOL0     C30151   2.827   1.634  10.831  0.1031  1.0405 -0.0107
  965MOL0     C30152   2.984   1.655  10.806  0.0359 -0.2609  0.2982
  965MOL0     C30153   3.032   1.796  10.823 -0.1547  1.0091  0.0843
  965MOL0     C30154   3.176   1.799  10.792  0.4142  0.8016 -0.6608
  965MOL0     C30155   3.237   1.937  10.828  0.2153 -0.1291 -0.1217
  965MOL0     C30156   3.175   2.060  10.772  0.2232 -0.3233 -0.4442
  965MOL0     N30157   3.104   2.152  10.860 -0.1556 -0.6841  0.3576
  965MOL0     C30158   3.138   2.193  10.985 -0.7136  0.1777 -0.0244
  965MOL0     C30159   3.040   2.270  11.026  0.3168  0.1211  0.2250
  965MOL0     C30160   3.047   2.373  11.130 -0.5329 -0.3653  0.1304
  965MOL0     C30161   2.929   2.366  11.233  0.0486 -0.3438 -0.2833
  965MOL0     C30162   2.820   2.466  11.180 -0.1332 -0.6101 -1.2057
  965MOL0     C30163   2.675   2.420  11.217  0.6842  0.7462  0.4852
  965MOL0     O30164   2.660   2.422  11.367  0.1038  0.3296  0.5386
  965MOL0     C30165   2.656   2.555  11.414  0.5806  0.1013  0.2543
  965MOL0     C30166   2.749   2.579  11.510 -1.3254  1.3858 -0.4802
  965MOL0     C30167   2.779   2.703  11.565 -0.8347  0.0183  0.1198
  965MOL0     C30168   2.719   2.820  11.511 -0.1500  0.9253  0.0715
  965MOL0     C30169   2.738   2.954  11.563 -0.0019 -0.2412 -0.9298
  965MOL0     O30170   2.801   2.967  11.678 -0.1870 -0.4600  0.0709
  965MOL0     C30171   2.849   3.094  11.717  0.3405 -0.8392 -0.4691
  965MOL0     C30172   2.825   3.143  11.845  0.4396 -0.3325  0.3425
  965MOL0     C30173   2.883   3.259  11.888 -0.0708 -0.2882 -0.7738
  965MOL0     C30174   2.957   3.338  11.806  0.0581 -0.3922 -0.0716
  965MOL0     O30175   2.998   3.461  11.850  0.7406 -0.2425 -0.2446
  965MOL0     C30176   3.062   3.454  11.983  0.1185 -0.5028  0.2879
  965MOL0     C30177   3.184   3.529  11.985 -0.8679  1.2658  0.0699
  965MOL0     C30178   3.220   3.557  12.141  0.0526  0.4852 -0.3443
  965MOL0     C30179   3.348   3.648  12.140 -0.2543  0.4746  0.2036
  965MOL0     C30180   3.408   3.660  12.277  0.1427 -0.8768 -0.3835
  965MOL0     C30181   3.549   3.726  12.284  0.2745 -0.4199  1.1269
  965MOL0     C30182   3.574   3.788  12.419  0.4662  0.4942  0.0847
  965MOL0     C30183   3.717   3.834  12.444  0.4845  0.3004  0.1837
  965MOL0    Cl30184   3.825   3.687  12.450 -0.1147  0.2154  0.6105
  965MOL0     C30185   2.976   3.298  11.675 -0.7987 -0.9335 -0.0366
  965MOL0     C30186   2.937   3.175  11.633  0.4209 -0.3861  0.7509
  965MOL0     O30187   2.713   3.042  11.492 -0.6527 -0.0341  0.1269
  965MOL0     C30188   2.627   2.797  11.405 -1.2412 -0.2912  0.0791
  965MOL0     C30189   2.592   2.666  11.362 -0.5936  0.7096  0.1455
  965MOL0     N30190   2.935   2.244  10.946 -0.6088  0.3774  0.4730
  965MOL0     N30191   2.969   2.168  10.847 -0.1890  0.1869 -0.4421
  965MOL0     C30192   2.328   1.809  10.563 -0.0169 -0.4444 -0.3111
  965MOL0     C30193   2.259   1.776  10.450  0.3537 -0.2053  0.7066
  965MOL0     C30194   2.117   1.663  10.029 -0.0349 -1.2578  0.5147
  965MOL0     C30195   2.173   1.726   9.918  0.4886 -0.1450 -0.1131
  965MOL0     C30196   2.153   1.676   9.788 -0.1586 -0.5273 -0.4934
  965MOL0     C30197   2.081   1.560   9.762  0.0183 -0.0490 -0.1097
  965MOL0     O30198   2.068   1.517   9.629 -0.4013 -0.1645 -0.3675
  965MOL0     C30199   1.967   1.414   9.605  0.4311  0.2202  1.1194
  965MOL0     C30200   1.980   1.367   9.451 -0.3210  0.0095 -0.1312
  965MOL0     C30201   1.944   1.483   9.347  0.3100 -0.6877 -0.7058
  965MOL0     C30202   2.034   1.609   9.360  0.1028 -0.1835  1.0139
  965MOL0     C30203   2.185   1.584   9.358  0.0116  0.6970 -0.1878
  965MOL0     C30204   2.310   1.570   9.359 -0.0264  0.4982  0.2880
  965MOL0     C30205   2.030   1.489   9.870 -0.7440  0.4384  0.4746
  965MOL0     C30206   2.044   1.539  10.001  0.5720 -0.0380 -0.0115
  965MOL0     C30207   1.966   1.471  10.110 -0.9805  0.4625  0.5329
  965MOL0     H30208   2.503   1.670  10.249 -0.1162 -0.3613 -0.1000
  965MOL0     H30209   2.629   1.691  10.481  0.3754  0.8595 -3.0830
  965MOL0     H30210   2.560   1.702  10.865 -0.3872 -0.4976  0.5377
  965MOL0     H30211   2.587   1.600  10.726  1.5075 -0.6362  3.6722
  965MOL0     H30212   2.762   1.826  10.830  3.1007  0.4459 -1.8148
  965MOL0     H30213   2.782   1.763  10.664 -0.5182  0.7237 -0.9626
  965MOL0     H30214   2.793   1.533  10.806 -0.8835  1.7782 -1.8388
  965MOL0     H30215   2.820   1.646  10.939  2.5474  1.2454  0.1904
  965MOL0     H30216   3.039   1.600  10.882  0.7723  2.1812  1.6458
  965MOL0     H30217   3.018   1.610  10.712 -1.9146 -2.5139  0.5725
  965MOL0     H30218   2.968   1.859  10.760  1.2985 -0.1659 -2.7055
  965MOL0     H30219   3.009   1.836  10.923 -2.4698 -1.1929  0.5465
  965MOL0     H30220   3.229   1.716  10.838 -2.5084 -0.1971  1.1635
  965MOL0     H30221   3.174   1.787  10.683  1.4028 -3.2042 -0.3839
  965MOL0     H30222   3.332   1.929  10.774  0.2427  1.5538 -0.3655
  965MOL0     H30223   3.268   1.951  10.931 -1.7722 -1.9864  0.8144
  965MOL0     H30224   3.262   2.120  10.743  1.7294 -2.5157 -0.6918
  965MOL0     H30225   3.116   2.033  10.684  2.5237  0.0274 -2.1879
  965MOL0     H30226   3.233   2.180  11.035  0.2252 -0.9524 -1.9597
  965MOL0     H30227   3.147   2.373  11.174 -1.3382  5.4063  2.9397
  965MOL0     H30228   3.036   2.473  11.085 -0.5713 -0.2238  0.4531
  965MOL0     H30229   2.899   2.261  11.222  3.9152 -1.6156 -0.1315
  965MOL0     H30230   2.961   2.403  11.330  0.8463 -1.5933 -0.0564
  965MOL0     H30231   2.825   2.489  11.074 -1.8488  6.4534 -0.2440
  965MOL0     H30232   2.838   2.565  11.223  1.1696 -1.1232 -0.5226
  965MOL0     H30233   2.645   2.320  11.183 -1.4536  1.4453  0.1635
  965MOL0     H30234   2.602   2.489  11.173  2.0282  2.9821  1.5863
  965MOL0     H30235   2.810   2.496  11.545 -1.8469 -1.5307 -5.5472
  965MOL0     H30236   2.851   2.707  11.646 -0.5988 -1.6840  0.0348
  965MOL0     H30237   2.764   3.072  11.900  0.8742 -0.3313  0.8275
  965MOL0     H30238   2.880   3.290  11.992  2.2101  0.2214 -0.8083
  965MOL0     H30239   2.999   3.499  12.060  4.1000  0.1817  3.4829
  965MOL0     H30240   3.101   3.353  11.999  2.6931  0.5265  1.1979
  965MOL0     H30241   3.263   3.488  11.921  0.7295  2.0135  1.4546
  965MOL0     H30242   3.169   3.630  11.947 -1.8112  0.2796 -2.3321
  965MOL0     H30243   3.140   3.615  12.189  0.2829  0.8089 -0.3444
  965MOL0     H30244   3.237   3.461  12.190 -2.1416 -0.7565 -1.8685
  965MOL0     H30245   3.331   3.741  12.084  0.8678  0.0261 -0.9341
  965MOL0     H30246   3.422   3.595  12.079  1.3684  1.5679  1.1266
  965MOL0     H30247   3.409   3.557  12.316 -3.8055 -1.5497 -1.6702
  965MOL0     H30248   3.343   3.709  12.350  0.2614  0.9549 -1.4573
  965MOL0     H30249   3.624   3.650  12.261 -0.8687 -0.7940 -1.8269
  965MOL0     H30250   3.566   3.803  12.208 -0.9137 -2.0598 -0.9062
  965MOL0     H30251   3.545   3.719  12.499  0.4056  0.3597 -0.0535
  965MOL0     H30252   3.503   3.871  12.417  1.8285  1.7034 -1.4984
  965MOL0     H30253   3.737   3.908  12.365  1.0298 -0.0173  0.0186
  965MOL0     H30254   3.722   3.886  12.540 -1.3066  2.2941 -0.7113
  965MOL0     H30255   3.030   3.361  11.605 -1.2180 -0.0363  0.4257
  965MOL0     H30256   2.959   3.139  11.533  0.1458  2.0136 -0.2453
  965MOL0     H30257   2.573   2.887  11.378 -1.2691  0.5575  2.6838
  965MOL0     H30258   2.517   2.655  11.285 -1.4913  1.3683  0.9082
  965MOL0     H30259   2.272   1.846  10.649  0.6721 -2.6459  1.1856
  965MOL0     H30260   2.152   1.794  10.441  0.6755  0.6818 -1.9369
  965MOL0     H30261   2.235   1.813   9.937 -1.7558  3.2213 -5.8325
  965MOL0     H30262   2.198   1.743   9.715  1.4585 -1.3625 -0.2834
  965MOL0     H30263   1.864   1.447   9.620 -0.8930 -0.5691 -4.1613
  965MOL0     H30264   1.978   1.328   9.671 -1.4227  0.1509  1.4007
  965MOL0     H30265   1.901   1.292   9.438 -0.4050 -0.0225  0.5046
  965MOL0     H30266   2.074   1.315   9.433 -1.6367 -2.2616 -0.9528
  965MOL0     H30267   1.839   1.516   9.351  0.6298  0.2930  0.3123
  965MOL0     H30268   1.962   1.438   9.249  1.1219 -0.4730 -0.6636
  965MOL0     H30269   2.008   1.682   9.284  1.1994  1.3536  2.0290
  965MOL0     H30270   2.005   1.677   9.441  1.9081  1.7787  0.1062
  965MOL0     H30271   2.417   1.560   9.361  0.3817  3.9227  0.6650
  965MOL0     H30272   1.988   1.390   9.864 -2.3692  0.9593  2.2888
  965MOL0     H30273   1.895   1.543  10.153 -3.0345  0.5443 -2.6896
  965MOL0     H30274   1.907   1.390  10.067 -2.5812  1.7871  0.1329
  965MOL0     H30275   2.032   1.441  10.192  2.7913  0.0735 -2.3759
  966MOL0     O30276   6.982   3.507  11.028  0.3856 -0.0691  0.4882
  966MOL0     C30277   6.874   3.468  11.072  0.4865 -0.1784  0.2726
  966MOL0     O30278   6.748   3.505  11.014  0.5619 -0.0516  0.0070
  966MOL0     C30279   6.741   3.617  10.933 -0.1313 -0.4312 -0.6108
  966MOL0     C30280   6.798   3.742  10.974  0.1266  0.2482 -1.0366
  966MOL0     C30281   6.780   3.858  10.898 -0.3873  0.6893 -0.6083
  966MOL0     C30282   6.724   3.856  10.771  0.4675  0.0474  0.5848
  966MOL0     O30283   6.734   3.972  10.693 -0.1188 -0.4176  0.0741
  966MOL0     C30284   6.654   3.987  10.577  0.8489  0.4278  0.0911
  966MOL0     C30285   6.614   4.130  10.551  1.3112 -0.4574  0.3790
  966MOL0     C30286   6.546   4.143  10.416  0.7378  0.1485  1.7172
  966MOL0     C30287   6.475   4.284  10.399 -0.5448  0.3053  0.2866
  966MOL0     C30288   6.362   4.279  10.306 -0.6989 -0.1227 -0.0673
  966MOL0     C30289   6.321   4.423  10.276 -0.4596 -0.1672 -0.2118
  966MOL0     C30290   6.257   4.433  10.135  0.7293 -0.7756 -0.4770
  966MOL0     C30291   6.369   4.476  10.025 -0.6237  0.5301 -1.0727
  966MOL0     N30292   6.439   4.599  10.066 -0.2274 -0.0592  0.3910
  966MOL0     C30293   6.383   4.713  10.125  0.1046  0.4108  0.6944
  966MOL0     C30294   6.489   4.795  10.161 -0.3862  0.0752  0.2890
  966MOL0     C30295   6.488   4.925  10.225 -0.7073 -0.5981 -0.8662
  966MOL0     C30296   6.420   5.022  10.139  0.3350  0.5529  0.5618
  966MOL0     C30297   6.465   5.163  10.165  0.9054  0.3580  0.0320
  966MOL0     C30298   6.370   5.254  10.093 -0.7709  0.6396  0.0896
  966MOL0     O30299   6.224   5.253  10.136 -0.1901 -0.6861 -0.2074
  966MOL0     C30300   6.177   5.341  10.231  0.1062 -0.1156  0.3264
  966MOL0     C30301   6.045   5.346  10.243  0.3042  0.0051 -0.7733
  966MOL0     C30302   5.981   5.420  10.339 -0.3113  0.0599  0.5327
  966MOL0     C30303   6.052   5.497  10.440 -0.9148  0.5865  0.5320
  966MOL0     C30304   5.987   5.547  10.559 -0.2568  0.4185  0.2057
  966MOL0     O30305   6.076   5.572  10.663 -0.0941 -0.5638  0.8858
  966MOL0     C30306   6.019   5.620  10.775 -0.4385 -0.0249  0.0410
  966MOL0     C30307   5.922   5.549  10.850  0.0850 -0.3646 -0.2152
  966MOL0     C30308   5.860   5.600  10.958  0.0839 -0.0565 -0.1623
  966MOL0     C30309   5.902   5.723  11.014  0.1519 -0.4039  0.4679
  966MOL0     O30310   5.846   5.775  11.127  0.3220  0.0535  0.6489
  966MOL0     C30311   5.876   5.691  11.240  0.3770 -0.3475  0.5994
  966MOL0     C30312   6.018   5.718  11.293 -0.7954  0.4297  0.4448
  966MOL0     C30313   6.105   5.599  11.346 -0.2657 -0.0415  0.2098
  966MOL0     C30314   6.030   5.533  11.464  1.1250 -0.2142 -0.8231
  966MOL0     C30315   6.099   5.401  11.500 -0.2153  0.5835  0.0523
  966MOL0     C30316   6.238   5.402  11.554  0.6884  0.4620 -0.4756
  966MOL0     C30317   6.287   5.247  11.584  0.2238 -0.7361  0.8991
  966MOL0     C30318   6.437   5.251  11.614  1.2405 -0.3130  0.9632
  966MOL0    Cl30319   6.458   5.326  11.782 -0.2164 -0.1547 -0.1773
  966MOL0     C30320   5.995   5.795  10.947 -1.0188  0.7568  0.3734
  966MOL0     C30321   6.057   5.735  10.833  1.1957 -1.3807  0.0062
  966MOL0     O30322   5.865   5.544  10.570  0.2857 -0.3289  0.3543
  966MOL0     C30323   6.192   5.502  10.419 -0.2934  0.0616 -0.3657
  966MOL0     C30324   6.249   5.423  10.314  0.8448 -1.0892  0.7539
  966MOL0     N30325   6.604   4.720  10.126  0.0224  0.0682  0.6260
  966MOL0     N30326   6.573   4.607  10.065  0.8460 -0.5748 -0.7065
  966MOL0     C30327   6.659   3.736  10.734  0.6545 -0.0283  0.3128
  966MOL0     C30328   6.670   3.619  10.816  0.6577 -0.9435  0.8865
  966MOL0     C30329   6.876   3.379  11.184  0.5468 -1.4333  0.0162
  966MOL0     C30330   6.758   3.312  11.208 -0.7620  0.2614  0.1216
  966MOL0     C30331   6.742   3.224  11.308 -0.1132  0.0383 -0.2615
  966MOL0     C30332   6.838   3.216  11.410  0.0287 -0.4296 -0.1504
  966MOL0     O30333   6.812   3.121  11.506  0.5541 -0.3144  0.9689
  966MOL0     C30334   6.913   3.091  11.596  1.0014 -0.3386 -0.3353
  966MOL0     C30335   6.864   3.024  11.720 -0.6337 -0.1040 -0.8299
  966MOL0     C30336   6.754   3.089  11.795 -0.4658  1.0736  0.7190
  966MOL0     C30337   6.745   3.052  11.945 -0.4647  0.3001 -0.0380
  966MOL0     C30338   6.610   3.070  11.997  1.0743  0.4685  0.6984
  966MOL0     C30339   6.496   3.082  12.039 -0.4483  0.5639  0.5718
  966MOL0     C30340   6.959   3.282  11.392  0.5305 -0.6132 -0.2988
  966MOL0     C30341   6.986   3.364  11.278  0.4174 -0.4687  0.6623
  966MOL0     C30342   7.121   3.443  11.276  0.8690 -0.0664 -0.0118
  966MOL0     H30343   6.850   3.750  11.069  0.5257  1.8316 -1.3593
  966MOL0     H30344   6.817   3.956  10.924 -4.5271  2.4271 -0.5204
  966MOL0     H30345   6.707   3.945  10.491 -0.5208 -1.3556  0.0476
  966MOL0     H30346   6.561   3.929  10.576  0.2587  1.3591 -1.0043
  966MOL0     H30347   6.700   4.197  10.555 -0.3655  2.1862 -2.8825
  966MOL0     H30348   6.537   4.163  10.622  0.4032  0.2505 -0.8944
  966MOL0     H30349   6.464   4.071  10.407  2.7681 -2.1660  0.6930
  966MOL0     H30350   6.604   4.120  10.327 -2.2497  1.1585 -0.6831
  966MOL0     H30351   6.432   4.315  10.495  0.4332 -1.2758  1.2758
  966MOL0     H30352   6.551   4.358  10.371 -0.5443 -0.2912 -1.4085
  966MOL0     H30353   6.394   4.228  10.215  0.4218  1.6197 -0.6926
  966MOL0     H30354   6.282   4.220  10.353  1.8752 -2.5751  1.5908
  966MOL0     H30355   6.257   4.470  10.351 -1.6022 -0.3981 -1.0120
  966MOL0     H30356   6.407   4.490  10.285  0.0854 -0.9584  0.6135
  966MOL0     H30357   6.185   4.516  10.135  1.1974 -0.3598  0.1701
  966MOL0     H30358   6.204   4.342  10.106 -3.9457  1.3846  0.3188
  966MOL0     H30359   6.440   4.392  10.027 -2.1119 -0.7840 -1.4890
  966MOL0     H30360   6.328   4.492   9.925  0.6176  1.4445 -1.4627
  966MOL0     H30361   6.278   4.730  10.145 -0.8057 -2.9872 -0.4310
  966MOL0     H30362   6.444   4.920  10.325  1.4420 -1.2368  0.1043
  966MOL0     H30363   6.594   4.950  10.236 -0.3918 -2.3621  0.5516
  966MOL0     H30364   6.444   5.001  10.034 -2.3052  0.3736 -0.0854
  966MOL0     H30365   6.312   5.006  10.150  0.6172 -0.9383  1.4690
  966MOL0     H30366   6.565   5.175  10.122 -0.0416  1.0223 -2.1275
  966MOL0     H30367   6.467   5.195  10.270 -0.8612  0.5395  0.0444
  966MOL0     H30368   6.369   5.224   9.988  1.4076 -0.0660  0.2314
  966MOL0     H30369   6.418   5.352  10.101 -2.5902  1.4987  1.1444
  966MOL0     H30370   5.987   5.279  10.179 -0.3872 -0.3454  0.1835
  966MOL0     H30371   5.873   5.431  10.351 -0.1269  0.8889  1.5306
  966MOL0     H30372   5.890   5.450  10.817 -0.7393 -1.0392  2.3481
  966MOL0     H30373   5.768   5.560  11.000 -1.7024  1.3845 -2.4649
  966MOL0     H30374   5.795   5.694  11.313  2.7708  0.4350  3.4566
  966MOL0     H30375   5.872   5.595  11.188  0.5064  1.3654 -2.8861
  966MOL0     H30376   6.080   5.762  11.215  2.4026 -1.9168  1.4518
  966MOL0     H30377   6.013   5.787  11.378  1.5132 -0.1452  1.1316
  966MOL0     H30378   6.109   5.533  11.260  2.9547  1.1286 -0.6649
  966MOL0     H30379   6.203   5.639  11.371  1.2040 -1.3229 -3.0073
  966MOL0     H30380   5.930   5.500  11.433  1.7320 -3.8539  0.6735
  966MOL0     H30381   6.020   5.591  11.556 -0.5973  0.7213 -1.5434
  966MOL0     H30382   6.102   5.337  11.412 -0.7105 -0.0006  0.4523
  966MOL0     H30383   6.033   5.361  11.578  1.4581  1.9851  2.3000
  966MOL0     H30384   6.292   5.444  11.469  1.9596  3.0575  1.4638
  966MOL0     H30385   6.234   5.469  11.640  0.3381  0.2366 -0.3129
  966MOL0     H30386   6.266   5.203  11.486 -3.2894  0.7259  0.8429
  966MOL0     H30387   6.228   5.194  11.659  0.7282 -1.6276  0.6925
  966MOL0     H30388   6.463   5.144  11.617 -3.6484 -1.9368 -1.9741
  966MOL0     H30389   6.497   5.305  11.541  1.4373  0.6549  1.8267
  966MOL0     H30390   6.032   5.888  10.990 -0.5068  1.0031 -0.5685
  966MOL0     H30391   6.129   5.793  10.777 -0.4303  1.5217  0.7351
  966MOL0     H30392   6.254   5.569  10.477 -3.0386 -0.2387  3.2950
  966MOL0     H30393   6.352   5.455  10.300 -0.1086  2.3188  0.6316
  966MOL0     H30394   6.611   3.729  10.637 -0.7643 -1.6760  1.0777
  966MOL0     H30395   6.614   3.532  10.784 -0.0636 -1.1222  2.5039
  966MOL0     H30396   6.682   3.310  11.131  1.9558  3.0263 -2.9687
  966MOL0     H30397   6.648   3.174  11.327  0.4549 -1.3630 -0.9430
  966MOL0     H30398   6.958   3.185  11.629 -2.1708  0.1106  3.4788
  966MOL0     H30399   6.987   3.032  11.541  0.8679  1.6217 -2.7944
  966MOL0     H30400   6.959   3.015  11.775  0.3888 -2.8359 -2.7843
  966MOL0     H30401   6.844   2.918  11.698  0.8463 -1.4942  3.4536
  966MOL0     H30402   6.662   3.067  11.740  1.7248 -1.2155 -2.3738
  966MOL0     H30403   6.763   3.198  11.792 -1.9607  1.2093 -2.2906
  966MOL0     H30404   6.784   2.953  11.969 -0.4409  0.1792 -0.5803
  966MOL0     H30405   6.809   3.129  11.989 -1.0050  2.8628 -3.3280
  966MOL0     H30406   6.391   3.094  12.051 -0.4517  2.4827 -0.8841
  966MOL0     H30407   7.034   3.269  11.469 -0.1684 -0.3900  0.4380
  966MOL0     H30408   7.187   3.414  11.194 -0.5845  0.0327 -1.2476
  966MOL0     H30409   7.105   3.551  11.269 -0.9611  0.0301  3.4112
  966MOL0     H30410   7.179   3.414  11.364  3.3621 -0.7856 -1.7928
  967MOL0     O30411   0.814   1.131   7.943  0.0933  0.0347 -0.1368
  967MOL0     C30412   0.845   1.112   7.826 -0.2678  0.3583 -0.0987
  967MOL0     O30413   0.850   0.984   7.765 -0.1308  0.1161 -0.0626
  967MOL0     C30414   0.838   0.882   7.856 -0.2867 -0.1038  0.9790
  967MOL0     C30415   0.950   0.835   7.922  0.5453 -0.2851  1.1906
  967MOL0     C30416   0.940   0.732   8.017  0.2580 -0.1510  0.5486
  967MOL0     C30417   0.817   0.683   8.045  0.8054  0.5905 -0.4750
  967MOL0     O30418   0.812   0.614   8.165 -0.6589  0.1265  0.7508
  967MOL0     C30419   0.786   0.478   8.157  0.4051 -0.9262 -0.3565
  967MOL0     C30420   0.767   0.424   8.294 -0.0228 -1.1318  0.2181
  967MOL0     C30421   0.751   0.267   8.286  0.1844 -1.4770  1.4375
  967MOL0     C30422   0.690   0.213   8.407  0.1598 -0.0538 -0.3480
  967MOL0     C30423   0.648   0.067   8.393  0.1018  0.2768 -0.5387
  967MOL0     C30424   0.623   0.009   8.532  0.1713  0.6463 -1.0318
  967MOL0     C30425   0.566  -0.130   8.531 -0.2683  0.1587 -0.9378
  967MOL0     C30426   0.595  -0.195   8.665  0.3485  0.1331  0.2628
  967MOL0     N30427   0.528  -0.127   8.778  0.5820 -0.4267 -0.4275
  967MOL0     C30428   0.570  -0.026   8.857  0.6659  0.6051 -1.2877
  967MOL0     C30429   0.459   0.012   8.927 -1.9677  0.1115 -0.8700
  967MOL0     C30430   0.476   0.082   9.060  0.0053 -0.4818  0.1935
  967MOL0     C30431   0.538   0.007   9.171 -0.4951 -0.2752  0.4092
  967MOL0     C30432   0.599   0.098   9.278 -0.0060  0.1823  0.2552
  967MOL0     C30433   0.663   0.014   9.388 -0.6690 -1.3153 -0.3043
  967MOL0     O30434   0.745   0.100   9.469  0.3039  0.5457  0.4019
  967MOL0     C30435   0.779   0.034   9.586 -0.5921 -0.6727 -0.6260
  967MOL0     C30436   0.912   0.015   9.617 -0.1430 -0.5520 -0.0727
  967MOL0     C30437   0.954  -0.039   9.739  0.2463  0.1804  0.5607
  967MOL0     C30438   0.860  -0.065   9.839 -0.6677 -0.3357  0.5746
  967MOL0     C30439   0.909  -0.095   9.981  0.3241  0.0015 -0.3359
  967MOL0     O30440   0.807  -0.125  10.071 -0.6449  0.0649  0.6173
  967MOL0     C30441   0.842  -0.172  10.195  0.0676  0.1548  0.4814
  967MOL0     C30442   0.939  -0.113  10.284 -0.2997 -1.5200  0.2009
  967MOL0     C30443   0.950  -0.185  10.407 -0.3264 -0.2854  0.2636
  967MOL0     C30444   0.878  -0.302  10.449 -0.4563  0.2932  0.8135
  967MOL0     O30445   0.904  -0.368  10.566 -0.2817 -0.3545 -0.4226
  967MOL0     C30446   0.798  -0.447  10.631  0.2512  0.2554 -0.3329
  967MOL0     C30447   0.831  -0.478  10.782  0.3418  0.0245  0.8897
  967MOL0     C30448   0.704  -0.527  10.856 -0.0214  1.3614  0.0388
  967MOL0     C30449   0.735  -0.580  11.000 -0.3974 -1.7036  0.3871
  967MOL0     C30450   0.604  -0.621  11.070 -1.2842 -0.0803  0.7153
  967MOL0     C30451   0.613  -0.625  11.227  0.9107 -0.7911  0.2364
  967MOL0     C30452   0.732  -0.717  11.282  0.1507  0.2209 -0.2055
  967MOL0     C30453   0.707  -0.756  11.431  0.3836 -0.5449 -0.7289
  967MOL0    Cl30454   0.843  -0.835  11.506  0.1576  0.1474 -0.3166
  967MOL0     C30455   0.794  -0.354  10.351  0.9393  0.6109  0.1927
  967MOL0     C30456   0.775  -0.292  10.226  0.5490 -0.2531 -0.1841
  967MOL0     O30457   1.027  -0.119   9.999 -0.7746  0.2155  0.2096
  967MOL0     C30458   0.727  -0.058   9.804 -0.4055  0.3931  0.0690
  967MOL0     C30459   0.682   0.003   9.681 -0.4749 -0.6727 -0.0617
  967MOL0     N30460   0.354  -0.065   8.893 -1.0344 -0.4040  0.1591
  967MOL0     N30461   0.395  -0.143   8.792 -0.0124  0.4407 -0.0257
  967MOL0     C30462   0.699   0.727   7.985 -0.8256 -0.0953 -0.0123
  967MOL0     C30463   0.713   0.821   7.878 -0.0382 -0.2074  0.3641
  967MOL0     C30464   0.900   1.225   7.751 -0.5416  0.3506  0.7568
  967MOL0     C30465   0.966   1.203   7.634 -0.0824  0.1044  0.4901
  967MOL0     C30466   1.030   1.305   7.559 -0.9959  1.2738 -0.8056
  967MOL0     C30467   1.012   1.440   7.598 -1.1695  0.6503 -0.0431
  967MOL0     O30468   1.055   1.543   7.523  0.4267 -0.4292 -0.2339
  967MOL0     C30469   0.950   1.618   7.453  0.6024 -0.9782 -0.6054
  967MOL0     C30470   1.005   1.758   7.417 -0.0206  0.0274  0.5455
  967MOL0     C30471   0.892   1.860   7.396 -0.2388  1.0714 -0.2866
  967MOL0     C30472   0.936   2.011   7.394 -0.1791  0.9440  0.1528
  967MOL0     C30473   1.006   2.030   7.266  0.1737  0.4888  0.6259
  967MOL0     C30474   1.061   2.041   7.164 -0.3755 -0.2034  0.0862
  967MOL0     C30475   0.927   1.463   7.707 -0.5390  0.7615 -0.0369
  967MOL0     C30476   0.879   1.359   7.788  0.1983  0.5810  0.7380
  967MOL0     C30477   0.777   1.398   7.899 -0.1902  0.0471  0.4679
  967MOL0     H30478   1.047   0.868   7.885 -0.2437  1.5161  0.6031
  967MOL0     H30479   1.032   0.703   8.066 -0.0596  2.2520  2.7815
  967MOL0     H30480   0.696   0.454   8.100  0.5221 -2.0268 -0.1009
  967MOL0     H30481   0.869   0.424   8.109  0.3098 -2.3989  1.0547
  967MOL0     H30482   0.678   0.472   8.337 -1.8941 -2.2974 -2.1623
  967MOL0     H30483   0.852   0.450   8.359  0.9993 -4.5892  0.4701
  967MOL0     H30484   0.847   0.220   8.263  0.0297  0.0410 -3.8228
  967MOL0     H30485   0.695   0.230   8.199  1.6471  1.2259 -0.8275
  967MOL0     H30486   0.751   0.227   8.496 -1.9618  2.0795  0.8801
  967MOL0     H30487   0.599   0.270   8.426  1.1576  2.0006 -1.4386
  967MOL0     H30488   0.564   0.063   8.323  1.0606  0.1931 -1.7189
  967MOL0     H30489   0.722   0.003   8.343  1.8842  0.6270  1.4839
  967MOL0     H30490   0.715   0.018   8.590 -0.2807  0.8208 -0.3214
  967MOL0     H30491   0.561   0.085   8.581  1.8046  2.6168 -1.8846
  967MOL0     H30492   0.609  -0.187   8.448  0.8118  2.7149 -2.2387
  967MOL0     H30493   0.456  -0.130   8.529 -0.2998 -0.8551  0.0645
  967MOL0     H30494   0.561  -0.298   8.668 -0.5391  0.4337  1.1157
  967MOL0     H30495   0.701  -0.190   8.692  0.7331 -2.2939 -0.5706
  967MOL0     H30496   0.673   0.001   8.881  0.3306 -0.9087  2.5584
  967MOL0     H30497   0.535   0.171   9.036 -2.0043  0.8338 -0.1371
  967MOL0     H30498   0.382   0.126   9.097 -0.0472 -1.1884  0.9171
  967MOL0     H30499   0.458  -0.053   9.216  0.4575  1.0444  4.2299
  967MOL0     H30500   0.621  -0.055   9.138  0.3555 -0.1578  2.2128
  967MOL0     H30501   0.519   0.156   9.323  0.3546  1.7805 -1.0482
  967MOL0     H30502   0.661   0.176   9.232 -0.2012 -0.1488 -0.6078
  967MOL0     H30503   0.722  -0.060   9.332 -1.1556  0.1120 -2.8664
  967MOL0     H30504   0.582  -0.031   9.445 -0.8224  1.2149  1.6628
  967MOL0     H30505   0.987   0.044   9.545 -2.5551  0.0418 -2.5101
  967MOL0     H30506   1.058  -0.062   9.760  1.1793  4.4440  1.4233
  967MOL0     H30507   0.999  -0.024  10.268 -0.1961 -0.8623  3.6029
  967MOL0     H30508   1.017  -0.145  10.483 -1.5614  2.1319  0.1707
  967MOL0     H30509   0.704  -0.392  10.623  1.3850  2.3760  0.2737
  967MOL0     H30510   0.782  -0.540  10.575  0.8239 -0.5323  0.7934
  967MOL0     H30511   0.907  -0.556  10.778  1.2490  0.9387 -1.8449
  967MOL0     H30512   0.877  -0.394  10.835  0.7394 -0.5218  1.4164
  967MOL0     H30513   0.643  -0.437  10.869 -1.7513  1.1589 -4.6267
  967MOL0     H30514   0.652  -0.603  10.796 -1.5324  1.6381  0.9469
  967MOL0     H30515   0.779  -0.510  11.072 -3.7712 -0.8644  1.8583
  967MOL0     H30516   0.798  -0.667  10.983  0.9208 -0.7544  0.2450
  967MOL0     H30517   0.577  -0.720  11.033  0.2570 -0.1313 -0.3797
  967MOL0     H30518   0.522  -0.555  11.041 -1.0185  0.1473  0.4729
  967MOL0     H30519   0.615  -0.521  11.262 -1.7145 -0.0584 -1.5017
  967MOL0     H30520   0.519  -0.674  11.252  0.4183 -0.4896 -0.9651
  967MOL0     H30521   0.830  -0.669  11.290  1.5196 -2.5759  1.9108
  967MOL0     H30522   0.734  -0.809  11.222 -1.1513 -0.9779  1.4925
  967MOL0     H30523   0.696  -0.669  11.497  1.2736  0.3455 -1.7030
  967MOL0     H30524   0.615  -0.813  11.439  1.4577 -2.1271  1.3618
  967MOL0     H30525   0.754  -0.455  10.357 -1.6437  1.5138 -0.3894
  967MOL0     H30526   0.718  -0.345  10.151 -2.5934  2.5078 -0.0156
  967MOL0     H30527   0.656  -0.083   9.882 -0.8584 -3.3720 -1.3702
  967MOL0     H30528   0.576   0.021   9.661 -0.5893 -1.9370 -0.7199
  967MOL0     H30529   0.604   0.690   8.021 -0.8105  0.2861  0.4224
  967MOL0     H30530   0.636   0.861   7.813  2.2477  0.3582 -2.2248
  967MOL0     H30531   0.962   1.106   7.585 -1.6088  0.3374  0.1158
  967MOL0     H30532   1.086   1.272   7.472 -1.0928 -1.8219  0.1886
  967MOL0     H30533   0.857   1.627   7.511 -0.3407  3.7062 -2.3342
  967MOL0     H30534   0.921   1.573   7.358  1.0062 -0.3034 -1.0564
  967MOL0     H30535   1.070   1.753   7.330 -0.6241  0.4459  0.0622
  967MOL0     H30536   1.062   1.805   7.498  0.8372  3.3875 -1.8238
  967MOL0     H30537   0.817   1.849   7.475 -0.3288 -0.2336 -0.5416
  967MOL0     H30538   0.839   1.854   7.301 -1.6122  1.3492  0.4287
  967MOL0     H30539   0.851   2.080   7.403  0.0749  1.3076 -0.2155
  967MOL0     H30540   1.003   2.016   7.480 -1.3024  0.1040  1.1077
  967MOL0     H30541   1.121   2.066   7.078 -0.4567 -2.5309 -0.7233
  967MOL0     H30542   0.909   1.565   7.741 -1.4703  1.2801 -1.9245
  967MOL0     H30543   0.818   1.371   7.997 -3.7527  1.0098  2.4025
  967MOL0     H30544   0.770   1.507   7.910  0.2910  0.2589 -1.1485
  967MOL0     H30545   0.677   1.356   7.888 -0.2538 -1.5174  4.9731
  968MOL0     O30546   4.183   4.254   9.132 -0.0688  0.6508 -0.5603
  968MOL0     C30547   4.124   4.184   9.056  0.1350 -1.0726 -0.1959
  968MOL0     O30548   4.012   4.116   9.089  0.3915 -0.5193  0.2615
  968MOL0     C30549   3.974   4.103   9.212  0.5504 -0.2546 -0.0153
  968MOL0     C30550   4.056   4.070   9.317 -0.3211 -0.0661 -0.2657
  968MOL0     C30551   4.010   4.060   9.451  0.5597  0.9199  0.3138
  968MOL0     C30552   3.876   4.059   9.475  1.3972  0.4336 -0.2461
  968MOL0     O30553   3.829   4.062   9.608 -0.0613  0.9426 -0.2890
  968MOL0     C30554   3.724   4.158   9.638 -0.3770  0.5343  0.1451
  968MOL0     C30555   3.709   4.164   9.792  0.0091 -0.9451 -0.4640
  968MOL0     C30556   3.836   4.147   9.875 -0.2090  0.8150 -0.5751
  968MOL0     C30557   3.835   4.239  10.000 -0.1164  0.0862 -1.0490
  968MOL0     C30558   3.950   4.231  10.109 -0.1957 -0.3205  0.6121
  968MOL0     C30559   4.083   4.277  10.045 -0.1163  0.6658  0.3724
  968MOL0     C30560   4.191   4.318  10.152  0.5486  0.4396 -0.0650
  968MOL0     C30561   4.318   4.376  10.088  0.7582  0.0642  0.3899
  968MOL0     N30562   4.414   4.413  10.181 -1.1178  0.4876 -0.4066
  968MOL0     C30563   4.459   4.543  10.201 -0.1286  0.1918 -0.8181
  968MOL0     C30564   4.546   4.532  10.307  0.0975  0.0068 -0.0980
  968MOL0     C30565   4.610   4.653  10.365  0.0872  0.4405  0.4492
  968MOL0     C30566   4.530   4.708  10.477  0.1214  0.2049  0.0146
  968MOL0     C30567   4.584   4.843  10.517 -0.2987 -0.4574  0.2854
  968MOL0     C30568   4.560   4.874  10.661 -0.0433 -0.4050 -0.3269
  968MOL0     O30569   4.419   4.904  10.685  0.0503  0.0333  0.2798
  968MOL0     C30570   4.389   5.039  10.656 -0.1774 -0.5693  0.4297
  968MOL0     C30571   4.250   5.072  10.673 -1.4018  0.0413  0.1415
  968MOL0     C30572   4.206   5.197  10.636  0.5398 -0.6694 -0.0653
  968MOL0     C30573   4.294   5.303  10.606 -0.4589  0.0725  0.1143
  968MOL0     C30574   4.242   5.443  10.580 -0.2177  1.0050  0.5930
  968MOL0     O30575   4.103   5.453  10.557  0.8085 -0.4939 -0.4620
  968MOL0     C30576   4.057   5.580  10.528  0.6100  0.6097  0.7613
  968MOL0     C30577   3.996   5.664  10.620  0.5426  0.4057 -0.4279
  968MOL0     C30578   3.924   5.778  10.573  0.5492  0.7665 -0.0164
  968MOL0     C30579   3.944   5.822  10.445  0.1365  0.7392  0.1710
  968MOL0     O30580   3.888   5.935  10.389 -0.6842  0.4955 -0.2840
  968MOL0     C30581   3.877   6.047  10.477 -0.1149  0.0992 -0.0931
  968MOL0     C30582   3.843   6.172  10.391 -0.2327  0.8267 -0.5750
  968MOL0     C30583   3.803   6.282  10.487 -0.2027 -0.0918 -0.1281
  968MOL0     C30584   3.664   6.273  10.540  0.0595 -0.6715  0.3728
  968MOL0     C30585   3.558   6.248  10.431  0.3420 -0.7495  0.3891
  968MOL0     C30586   3.419   6.271  10.495 -0.1978 -0.4428  0.1811
  968MOL0     C30587   3.383   6.157  10.598 -0.6695 -0.5938 -0.1095
  968MOL0     C30588   3.234   6.129  10.604 -0.1079 -0.4374  0.7379
  968MOL0    Cl30589   3.190   5.981  10.699 -0.3905  0.1681  0.5689
  968MOL0     C30590   4.001   5.739  10.355  0.0756  0.3711 -0.1656
  968MOL0     C30591   4.063   5.616  10.399  0.4448  0.2165  0.4429
  968MOL0     O30592   4.318   5.535  10.569  0.1045  0.3673  0.1542
  968MOL0     C30593   4.425   5.281  10.596  0.0130  0.2345  0.1346
  968MOL0     C30594   4.473   5.143  10.614  0.3904 -0.4772  0.7019
  968MOL0     N30595   4.530   4.408  10.369  0.1250  0.2570 -0.0605
  968MOL0     N30596   4.457   4.335  10.289  0.2926 -0.7565 -0.6051
  968MOL0     C30597   3.792   4.096   9.371  0.8126 -0.2386  0.8904
  968MOL0     C30598   3.835   4.124   9.237  0.6162 -0.5171 -1.0385
  968MOL0     C30599   4.171   4.175   8.909  0.6598 -0.1545  0.0621
  968MOL0     C30600   4.072   4.126   8.821  0.1327 -0.8565  0.4447
  968MOL0     C30601   4.100   4.098   8.681  0.4075  0.6444 -0.1109
  968MOL0     C30602   4.215   4.151   8.632 -0.6599 -0.1962  0.0469
  968MOL0     O30603   4.252   4.152   8.494  0.1755  0.5317 -0.2847
  968MOL0     C30604   4.164   4.123   8.393 -0.2168  0.3109  0.0225
  968MOL0     C30605   4.196   4.219   8.275  0.1918 -0.1331  0.7625
  968MOL0     C30606   4.127   4.165   8.149  0.9478  0.2416  1.3561
  968MOL0     C30607   4.200   4.260   8.039 -0.3008  0.2602 -0.3050
  968MOL0     C30608   4.122   4.258   7.914  0.4795 -0.0774 -0.0038
  968MOL0     C30609   4.072   4.244   7.800 -0.2884  1.1072 -0.1296
  968MOL0     C30610   4.309   4.204   8.714 -0.7901 -0.0272 -1.4592
  968MOL0     C30611   4.302   4.202   8.860  0.6668 -0.6902  0.3852
  968MOL0     C30612   4.422   4.258   8.927 -0.4482 -0.9234 -0.4207
  968MOL0     H30613   4.161   4.054   9.294 -0.7947 -2.7385 -0.9028
  968MOL0     H30614   4.078   4.056   9.535 -1.3207 -1.3502  1.8309
  968MOL0     H30615   3.735   4.256   9.591  0.9602 -0.5422 -1.9243
  968MOL0     H30616   3.627   4.127   9.597 -0.2584 -2.0243  1.5715
  968MOL0     H30617   3.637   4.089   9.824 -2.2899  0.3968 -2.1589
  968MOL0     H30618   3.666   4.262   9.818 -1.5546 -1.7450  0.0585
  968MOL0     H30619   3.925   4.148   9.811 -0.1273 -1.2884 -0.5343
  968MOL0     H30620   3.840   4.047   9.919 -2.4789  0.6031 -0.7640
  968MOL0     H30621   3.821   4.339   9.958  4.5048  1.7058  0.6537
  968MOL0     H30622   3.747   4.204  10.055  0.5339 -1.3281 -0.8638
  968MOL0     H30623   3.929   4.300  10.191 -3.7900 -1.1401  0.5395
  968MOL0     H30624   3.951   4.128  10.146 -0.3658  0.0421  1.6418
  968MOL0     H30625   4.113   4.186   9.992  3.8726  0.9439  1.8123
  968MOL0     H30626   4.066   4.359   9.974  0.2659 -0.3529 -0.9409
  968MOL0     H30627   4.226   4.230  10.208  1.2952 -0.7080 -2.1985
  968MOL0     H30628   4.141   4.392  10.214 -0.1420  0.5891 -0.7827
  968MOL0     H30629   4.355   4.304  10.014  0.9545  0.6460 -0.0766
  968MOL0     H30630   4.301   4.468  10.031  1.7879  1.7939  2.7371
  968MOL0     H30631   4.455   4.623  10.127  0.3397 -0.8351 -1.9996
  968MOL0     H30632   4.702   4.613  10.409 -1.7285 -2.3272  2.0796
  968MOL0     H30633   4.631   4.732  10.292 -2.3676  1.7715  1.0719
  968MOL0     H30634   4.423   4.711  10.454  0.3437  0.7793 -0.9776
  968MOL0     H30635   4.550   4.637  10.558  1.5159 -1.7695 -1.9316
  968MOL0     H30636   4.555   4.932  10.460  1.5293 -0.5239 -0.8062
  968MOL0     H30637   4.690   4.825  10.501 -0.3571 -0.6152  0.0720
  968MOL0     H30638   4.623   4.953  10.705  0.5479 -0.0284 -1.7980
  968MOL0     H30639   4.599   4.792  10.723  0.8789 -0.3464 -0.8105
  968MOL0     H30640   4.180   4.998  10.711 -0.2432 -0.8324  0.6625
  968MOL0     H30641   4.102   5.228  10.630  0.7656  0.2794  0.7797
  968MOL0     H30642   3.995   5.624  10.721 -1.5928  2.8419  0.6055
  968MOL0     H30643   3.880   5.845  10.647  2.0429  0.0005  1.6396
  968MOL0     H30644   3.792   6.020  10.541  0.3800 -0.3698  0.3727
  968MOL0     H30645   3.971   6.067  10.529  1.6210 -0.1233 -2.9424
  968MOL0     H30646   3.932   6.209  10.339 -0.0141 -0.7266 -1.3683
  968MOL0     H30647   3.765   6.166  10.315 -3.5617  4.0826  2.1945
  968MOL0     H30648   3.880   6.306  10.561  0.3120  0.2125 -0.7612
  968MOL0     H30649   3.809   6.370  10.423  3.4686  0.3187  0.5582
  968MOL0     H30650   3.637   6.362  10.597 -0.7771 -0.9025  0.3487
  968MOL0     H30651   3.653   6.195  10.616  0.8513 -4.0973 -2.7210
  968MOL0     H30652   3.588   6.146  10.404  2.5570  0.1118 -0.7276
  968MOL0     H30653   3.564   6.327  10.355 -3.6984 -2.3644 -1.8966
  968MOL0     H30654   3.408   6.371  10.538  1.1640 -0.8098  1.4647
  968MOL0     H30655   3.347   6.257  10.414 -0.2620  0.6092  0.0482
  968MOL0     H30656   3.428   6.181  10.695  0.8296 -2.1410 -0.3708
  968MOL0     H30657   3.432   6.066  10.562 -1.7307 -1.3033  0.2213
  968MOL0     H30658   3.193   6.219  10.652 -0.4497  0.8849 -1.8807
  968MOL0     H30659   3.204   6.124  10.499  2.9803  0.9289 -0.3469
  968MOL0     H30660   3.998   5.761  10.249 -0.0744  0.3847 -0.1583
  968MOL0     H30661   4.101   5.544  10.327  3.4536  1.5289  0.5555
  968MOL0     H30662   4.492   5.360  10.563  0.8750 -0.6928 -0.4146
  968MOL0     H30663   4.574   5.120  10.581 -0.8719 -4.1886 -1.1073
  968MOL0     H30664   3.684   4.106   9.384  1.2692  2.5506  3.8272
  968MOL0     H30665   3.759   4.142   9.162 -0.6960  3.7448  0.9525
  968MOL0     H30666   3.972   4.111   8.860  0.3593  0.9825  1.8788
  968MOL0     H30667   4.028   4.038   8.626  1.6049 -1.1078  0.1360
  968MOL0     H30668   4.060   4.141   8.421 -0.1575 -1.5511  1.6936
  968MOL0     H30669   4.181   4.021   8.356  3.3269  1.4007 -1.8757
  968MOL0     H30670   4.304   4.232   8.269  0.4890 -1.0259  3.0522
  968MOL0     H30671   4.165   4.324   8.282  1.4048  0.4734 -1.9180
  968MOL0     H30672   4.019   4.176   8.141  0.9106 -1.1129 -1.2520
  968MOL0     H30673   4.158   4.063   8.126  0.1192  0.4984 -1.2707
  968MOL0     H30674   4.201   4.365   8.069  0.1633 -0.1871  1.3833
  968MOL0     H30675   4.301   4.224   8.018  0.8259  1.1552  2.9445
  968MOL0     H30676   4.018   4.245   7.707 -0.3694  0.2920 -0.0998
  968MOL0     H30677   4.404   4.243   8.678 -1.1210  0.3854 -1.9020
  968MOL0     H30678   4.423   4.367   8.922  3.7332 -0.8120 -1.8308
  968MOL0     H30679   4.432   4.215   9.026 -0.5201 -4.0092 -1.6464
  968MOL0     H30680   4.505   4.246   8.856 -2.7961  2.7900 -4.3710
  969MOL0     O30681   4.098   5.032   7.180  0.2751  0.0911 -0.0570
  969MOL0     C30682   3.986   5.000   7.141  0.2641 -0.7315  0.3071
  969MOL0     O30683   3.881   5.083   7.146 -1.2235 -0.4131  0.1726
  969MOL0     C30684   3.912   5.217   7.173  0.2369 -0.3491  0.6898
  969MOL0     C30685   4.002   5.274   7.270 -0.1303 -0.6858  0.1259
  969MOL0     C30686   4.023   5.414   7.289  0.5067  0.1479 -0.2775
  969MOL0     C30687   3.948   5.500   7.205  0.1002 -0.8871  0.0252
  969MOL0     O30688   3.960   5.640   7.202 -0.5792  0.3283 -0.5177
  969MOL0     C30689   4.021   5.707   7.311 -0.3910  0.0994  0.4891
  969MOL0     C30690   3.984   5.849   7.288 -0.6105  0.0875 -0.9712
  969MOL0     C30691   3.992   5.938   7.411  0.0017  0.8109 -1.1608
  969MOL0     C30692   4.116   5.920   7.487  0.3560 -0.5902  0.3680
  969MOL0     C30693   4.150   6.026   7.600  0.6567  0.0477 -0.5395
  969MOL0     C30694   4.231   5.973   7.719  1.3369  0.9151  0.3805
  969MOL0     C30695   4.350   5.879   7.698 -0.1887 -0.0537 -0.1242
  969MOL0     C30696   4.447   5.934   7.592 -0.1875 -0.5712  0.0365
  969MOL0     N30697   4.479   5.823   7.493 -0.4675 -0.0707 -0.9133
  969MOL0     C30698   4.424   5.800   7.371 -0.6190 -0.1162 -0.1183
  969MOL0     C30699   4.460   5.672   7.335  0.4768 -0.3619 -0.9840
  969MOL0     C30700   4.431   5.610   7.203 -0.2542  0.0897  0.2408
  969MOL0     C30701   4.400   5.453   7.218 -0.5030  0.5089  0.2541
  969MOL0     C30702   4.387   5.394   7.077 -0.3254  0.2407  0.2301
  969MOL0     C30703   4.370   5.242   7.081  0.3716  0.2071  0.4397
  969MOL0     O30704   4.500   5.191   7.109  0.4929  0.2811 -0.0607
  969MOL0     C30705   4.511   5.058   7.138  0.5456 -0.3368 -0.0301
  969MOL0     C30706   4.635   5.003   7.178 -0.1478 -0.7396 -0.9355
  969MOL0     C30707   4.656   4.872   7.197  0.1654 -0.5726 -0.5477
  969MOL0     C30708   4.557   4.779   7.183 -0.2343  0.8181  0.3084
  969MOL0     C30709   4.577   4.635   7.224 -0.1208 -0.3908  0.5592
  969MOL0     O30710   4.461   4.558   7.222 -1.2729 -0.6344 -0.1341
  969MOL0     C30711   4.446   4.440   7.289 -0.6829 -0.6498 -0.0989
  969MOL0     C30712   4.502   4.415   7.414 -0.2174 -0.1232 -0.6329
  969MOL0     C30713   4.458   4.312   7.502 -0.1681 -0.8280 -0.1568
  969MOL0     C30714   4.358   4.231   7.455 -0.2275 -0.1425  0.5695
  969MOL0     O30715   4.306   4.135   7.534  0.9907  0.0718 -0.5037
  969MOL0     C30716   4.399   4.047   7.605  0.7353  0.1871  0.3268
  969MOL0     C30717   4.304   3.927   7.648 -0.6147 -0.0253 -0.1141
  969MOL0     C30718   4.221   3.858   7.540 -0.1118  0.4592 -0.5272
  969MOL0     C30719   4.299   3.777   7.434 -0.5518 -0.4614 -0.5714
  969MOL0     C30720   4.214   3.683   7.365 -0.6881 -0.3571  0.2693
  969MOL0     C30721   4.114   3.761   7.282  0.1312 -0.4218  1.3921
  969MOL0     C30722   4.053   3.667   7.174  0.2257 -0.4096 -0.4943
  969MOL0     C30723   3.965   3.752   7.083  0.8618  0.1013 -0.1674
  969MOL0    Cl30724   3.812   3.812   7.161  0.2926  0.2560 -0.0774
  969MOL0     C30725   4.289   4.255   7.334  0.3082  0.2247  0.3588
  969MOL0     C30726   4.337   4.365   7.256  0.4446  0.9307 -0.1013
  969MOL0     O30727   4.689   4.600   7.256  0.6207  0.1905 -0.3822
  969MOL0     C30728   4.434   4.827   7.135  0.8365  0.9292 -0.5095
  969MOL0     C30729   4.409   4.963   7.108  0.3836  0.5124 -0.7381
  969MOL0     N30730   4.541   5.623   7.435  0.6516 -0.5417  0.3532
  969MOL0     N30731   4.553   5.713   7.530  0.1004  0.5912 -0.5461
  969MOL0     C30732   3.865   5.450   7.106  0.3012 -0.0133 -0.4465
  969MOL0     C30733   3.844   5.310   7.089 -0.3560 -0.1390 -0.3509
  969MOL0     C30734   3.959   4.863   7.097 -0.8327 -0.3936 -0.0363
  969MOL0     C30735   4.050   4.765   7.139  0.4855  0.7909 -0.4134
  969MOL0     C30736   4.025   4.630   7.115  0.0778  0.3033 -0.5416
  969MOL0     C30737   3.942   4.596   7.002 -0.3510 -0.6277  0.2234
  969MOL0     O30738   3.923   4.470   6.950 -0.0848  0.5009 -0.2193
  969MOL0     C30739   3.855   4.370   7.038 -0.8141 -0.5606  0.1388
  969MOL0     C30740   3.884   4.229   6.985  0.1795  0.0654  0.3266
  969MOL0     C30741   4.025   4.186   7.015 -1.0345  0.1036  0.0942
  969MOL0     C30742   4.137   4.230   6.921  0.0864 -0.5686 -0.1077
  969MOL0     C30743   4.131   4.181   6.783 -0.1584 -0.9834 -0.2489
  969MOL0     C30744   4.126   4.150   6.665 -1.1038  0.5593 -0.5427
  969MOL0     C30745   3.863   4.694   6.947 -1.1519  0.7375 -1.6207
  969MOL0     C30746   3.858   4.824   7.008  0.3311  0.0365  0.6445
  969MOL0     C30747   3.744   4.907   6.961  1.3840  0.0145 -0.4444
  969MOL0     H30748   4.064   5.214   7.336  1.9219  2.5326  1.3940
  969MOL0     H30749   4.086   5.456   7.366  1.7557 -0.4764 -0.9401
  969MOL0     H30750   3.978   5.661   7.401 -0.5446 -0.0954  0.3162
  969MOL0     H30751   4.131   5.712   7.312 -0.3901  0.8100 -0.7663
  969MOL0     H30752   3.880   5.831   7.259 -0.1323  0.1656 -2.8485
  969MOL0     H30753   4.033   5.896   7.202 -0.7259 -0.1516 -1.1690
  969MOL0     H30754   3.904   5.923   7.475 -0.7382 -3.3747 -2.8610
  969MOL0     H30755   3.984   6.042   7.377 -1.5385  1.1104 -0.0247
  969MOL0     H30756   4.106   5.821   7.532 -1.4930 -0.9213 -0.6553
  969MOL0     H30757   4.189   5.919   7.406 -1.5932 -2.5488 -1.4979
  969MOL0     H30758   4.202   6.109   7.552  0.3808  0.2767 -0.4408
  969MOL0     H30759   4.056   6.066   7.638  1.2102  0.0856  0.8339
  969MOL0     H30760   4.280   6.066   7.749  1.7310  0.5210  0.9643
  969MOL0     H30761   4.171   5.942   7.804  0.8946 -0.2129 -0.3173
  969MOL0     H30762   4.300   5.785   7.671 -0.6306 -0.5604  2.2503
  969MOL0     H30763   4.402   5.870   7.793 -2.1253  0.4748  1.0469
  969MOL0     H30764   4.405   6.021   7.540  0.3552 -0.2873  0.0745
  969MOL0     H30765   4.544   5.967   7.629  0.4032 -0.8249 -1.2268
  969MOL0     H30766   4.376   5.871   7.304  0.0555  3.1024  2.5488
  969MOL0     H30767   4.333   5.647   7.175  0.5092  2.2288  0.2357
  969MOL0     H30768   4.506   5.635   7.127  0.7056 -3.6750 -0.2619
  969MOL0     H30769   4.477   5.413   7.284  1.3750  1.8338 -1.0366
  969MOL0     H30770   4.313   5.438   7.282  1.7251 -0.9804  3.1529
  969MOL0     H30771   4.483   5.407   7.028 -0.1951 -3.8275 -1.0115
  969MOL0     H30772   4.302   5.437   7.024  1.4852  2.2284 -1.2117
  969MOL0     H30773   4.324   5.211   6.987 -1.3573  0.2650  1.2278
  969MOL0     H30774   4.308   5.228   7.170  1.7523 -1.7100  1.1668
  969MOL0     H30775   4.710   5.076   7.209 -1.4366  0.1007  0.3022
  969MOL0     H30776   4.746   4.843   7.251 -0.3636 -1.6374 -0.2245
  969MOL0     H30777   4.560   4.498   7.453 -2.1370  1.6020 -1.2562
  969MOL0     H30778   4.492   4.307   7.605  2.6463  0.2354 -0.9379
  969MOL0     H30779   4.479   3.997   7.550 -1.5788 -0.7263 -2.4031
  969MOL0     H30780   4.442   4.106   7.687 -0.6343  2.2187 -0.3484
  969MOL0     H30781   4.359   3.860   7.714 -0.3471  1.7541  1.5506
  969MOL0     H30782   4.227   3.974   7.711  0.2054  0.1136  0.8020
  969MOL0     H30783   4.146   3.793   7.588  0.2793  0.7541  0.5187
  969MOL0     H30784   4.168   3.942   7.494 -0.8575  1.5618  2.1433
  969MOL0     H30785   4.379   3.724   7.486 -0.2207 -1.7757 -2.3280
  969MOL0     H30786   4.351   3.849   7.370 -0.3369 -0.1128 -0.0141
  969MOL0     H30787   4.154   3.627   7.438 -2.2965  2.6026  1.3979
  969MOL0     H30788   4.277   3.626   7.296  1.0025  2.6899 -0.8869
  969MOL0     H30789   4.030   3.801   7.340 -2.9895  0.8606 -3.4083
  969MOL0     H30790   4.166   3.849   7.244  0.8918 -2.7018 -3.7239
  969MOL0     H30791   4.007   3.582   7.225  2.4871 -0.8606  0.9414
  969MOL0     H30792   4.128   3.615   7.113 -0.8321 -0.6654 -1.6320
  969MOL0     H30793   4.021   3.832   7.034  2.2780 -0.2233  0.8528
  969MOL0     H30794   3.916   3.691   7.006 -4.8899  2.6692  0.8927
  969MOL0     H30795   4.195   4.207   7.308  1.1157 -0.5809 -1.1983
  969MOL0     H30796   4.276   4.395   7.171 -0.1522  2.4473  0.8275
  969MOL0     H30797   4.349   4.761   7.120 -1.0376  2.2577  3.1583
  969MOL0     H30798   4.311   4.975   7.064 -0.3034  2.2432  1.1195
  969MOL0     H30799   3.817   5.515   7.034 -0.3873 -0.0170 -0.0055
  969MOL0     H30800   3.771   5.270   7.020 -1.5146 -0.9547  1.2842
  969MOL0     H30801   4.136   4.784   7.203  1.7868  1.1997 -2.1957
  969MOL0     H30802   4.069   4.548   7.170 -3.4539 -0.1340  1.9487
  969MOL0     H30803   3.747   4.380   7.022 -1.0405 -1.8222  0.8220
  969MOL0     H30804   3.881   4.374   7.144  4.0704  2.9410 -0.8038
  969MOL0     H30805   3.873   4.215   6.877  3.5877  2.0168 -0.4119
  969MOL0     H30806   3.820   4.163   7.045  2.2824 -1.6382  0.8435
  969MOL0     H30807   4.030   4.078   7.027  0.9903  0.1646  0.1312
  969MOL0     H30808   4.049   4.234   7.110 -0.8206  2.5081 -1.0760
  969MOL0     H30809   4.127   4.339   6.917 -3.0615 -0.5993  2.6556
  969MOL0     H30810   4.228   4.201   6.974 -1.2106 -3.4646  0.7288
  969MOL0     H30811   4.128   4.136   6.558 -0.5302 -0.3080 -0.4328
  969MOL0     H30812   3.791   4.659   6.874 -1.6105  0.9877 -1.2994
  969MOL0     H30813   3.681   4.937   7.045 -1.2350  1.8768 -2.9017
  969MOL0     H30814   3.774   4.995   6.904 -0.8969  0.1177 -1.6189
  969MOL0     H30815   3.676   4.847   6.899 -0.5009 -0.9200  2.3194
  970MOL0     O30816   6.513   8.293   5.578  0.3965  0.3329 -0.0688
  970MOL0     C30817   6.620   8.359   5.550 -0.4979 -0.0030  0.1849
  970MOL0     O30818   6.708   8.324   5.450  0.8104 -0.1049  0.0924
  970MOL0     C30819   6.689   8.208   5.377  0.4771 -0.2830 -1.1041
  970MOL0     C30820   6.788   8.113   5.376 -0.4755 -0.6508  1.4170
  970MOL0     C30821   6.782   8.008   5.278  0.4647  0.1630  0.2775
  970MOL0     C30822   6.670   7.985   5.197  0.6718  0.0782  0.3126
  970MOL0     O30823   6.661   7.867   5.129 -0.2673  0.0589 -0.0635
  970MOL0     C30824   6.546   7.832   5.055  0.3358 -0.2720  0.4740
  970MOL0     C30825   6.569   7.712   4.960  0.2625 -0.1410  0.3157
  970MOL0     C30826   6.567   7.584   5.050 -0.3015 -0.1008  0.4580
  970MOL0     C30827   6.675   7.487   5.014  0.4348 -0.3333  0.5225
  970MOL0     C30828   6.650   7.427   4.871 -0.1651 -0.6932  0.2943
  970MOL0     C30829   6.734   7.307   4.832  0.0473 -0.0033 -0.3596
  970MOL0     C30830   6.885   7.361   4.810  0.5583  0.8229 -0.2090
  970MOL0     C30831   6.994   7.252   4.823  0.5311 -0.7105  0.7801
  970MOL0     N30832   6.991   7.159   4.716  0.3504 -0.0495  0.1261
  970MOL0     C30833   6.954   7.032   4.705 -0.2137 -0.3059 -0.2695
  970MOL0     C30834   6.966   6.993   4.576  0.8170 -0.1327  0.2877
  970MOL0     C30835   6.925   6.863   4.502 -0.0298 -0.6072 -0.1352
  970MOL0     C30836   6.801   6.796   4.561 -0.3077  0.8697  0.2212
  970MOL0     C30837   6.674   6.871   4.597 -0.1741  1.2002 -0.1962
  970MOL0     C30838   6.617   6.826   4.738 -0.0352  0.0977 -0.0551
  970MOL0     O30839   6.537   6.932   4.787  0.7853  0.2783 -0.1883
  970MOL0     C30840   6.477   6.922   4.908  0.0231  0.3605 -0.7823
  970MOL0     C30841   6.430   7.045   4.961 -0.4321  0.4316  1.1493
  970MOL0     C30842   6.369   7.055   5.082  0.4945  0.3718  0.2915
  970MOL0     C30843   6.335   6.945   5.161  0.2258  0.3716  1.1250
  970MOL0     C30844   6.246   6.946   5.279 -0.7432  0.4266  0.5199
  970MOL0     O30845   6.197   6.831   5.335  0.9615 -0.2925  0.5681
  970MOL0     C30846   6.098   6.817   5.434 -0.5728 -0.8152  0.4397
  970MOL0     C30847   6.039   6.922   5.513 -0.3396  0.5893 -0.6526
  970MOL0     C30848   5.937   6.891   5.606 -0.1289 -0.1868 -0.7836
  970MOL0     C30849   5.901   6.755   5.624 -0.4458 -1.3370 -0.3201
  970MOL0     O30850   5.818   6.723   5.731  0.3521  0.1569  0.0656
  970MOL0     C30851   5.727   6.605   5.708  0.1348 -0.3025  0.0059
  970MOL0     C30852   5.637   6.606   5.826  0.4835  0.1981 -0.1257
  970MOL0     C30853   5.509   6.523   5.802 -0.0101  0.3738  0.6104
  970MOL0     C30854   5.458   6.493   5.949  0.5170  0.6802 -0.2859
  970MOL0     C30855   5.349   6.384   5.938 -0.3317  0.0874 -0.1581
  970MOL0     C30856   5.267   6.397   6.072  0.0311  0.1065  0.7349
  970MOL0     C30857   5.137   6.309   6.052 -0.3730  0.1642 -0.0844
  970MOL0     C30858   5.021   6.372   6.125  1.3491  0.4922  0.5046
  970MOL0    Cl30859   5.059   6.382   6.295  0.4781  0.3721  0.3405
  970MOL0     C30860   5.964   6.654   5.554  0.3157 -0.7155 -0.4300
  970MOL0     C30861   6.054   6.682   5.453 -0.5925  1.1845  0.7783
  970MOL0     O30862   6.224   7.058   5.316 -0.0610 -0.6709 -0.5629
  970MOL0     C30863   6.384   6.819   5.108  1.2887  0.0991 -0.5984
  970MOL0     C30864   6.454   6.803   4.991 -0.9925  0.4091  0.9303
  970MOL0     N30865   6.986   7.111   4.503  0.1954  0.0720  0.1346
  970MOL0     N30866   7.020   7.201   4.587  0.0545 -0.0304 -0.5338
  970MOL0     C30867   6.570   8.083   5.201 -0.1291 -0.8454  0.5584
  970MOL0     C30868   6.581   8.195   5.288  0.7268  0.5854 -0.3198
  970MOL0     C30869   6.661   8.461   5.647  0.2848 -0.2681  0.4158
  970MOL0     C30870   6.567   8.500   5.745 -0.5236 -0.9455 -0.0300
  970MOL0     C30871   6.589   8.613   5.823 -0.0739 -0.4633  0.5434
  970MOL0     C30872   6.708   8.688   5.807  0.4037  0.0153 -0.2083
  970MOL0     O30873   6.742   8.802   5.879 -0.8183 -0.0181 -0.0299
  970MOL0     C30874   6.641   8.907   5.886 -0.2607 -0.0023  0.5770
  970MOL0     C30875   6.619   8.963   5.739 -0.8805  0.1329  0.0414
  970MOL0     C30876   6.734   9.039   5.674  0.3752 -0.2129  0.4629
  970MOL0     C30877   6.792   9.172   5.745 -0.6896  1.3638 -0.5808
  970MOL0     C30878   6.890   9.220   5.652 -0.5377 -0.6234  0.0284
  970MOL0     C30879   6.989   9.261   5.583  0.2338  0.1510 -0.4887
  970MOL0     C30880   6.809   8.644   5.719 -0.0504  1.0263 -0.1242
  970MOL0     C30881   6.785   8.529   5.641 -0.3506 -0.2251  0.8161
  970MOL0     C30882   6.909   8.483   5.575 -0.7548  0.1933 -0.6169
  970MOL0     H30883   6.877   8.125   5.435 -0.3097 -0.3785  1.1114
  970MOL0     H30884   6.864   7.937   5.268 -0.8022 -1.3230  0.0539
  970MOL0     H30885   6.470   7.817   5.133 -0.5981 -0.1523 -0.4044
  970MOL0     H30886   6.521   7.919   4.994 -0.6286  0.5394  1.9593
  970MOL0     H30887   6.663   7.717   4.904  1.9303  0.0764  2.9667
  970MOL0     H30888   6.482   7.712   4.894  0.5628  1.3878 -0.1082
  970MOL0     H30889   6.470   7.537   5.069  0.5049 -2.2251 -0.3861
  970MOL0     H30890   6.603   7.613   5.149  1.4260 -0.1507 -0.1268
  970MOL0     H30891   6.774   7.533   5.013  0.3513 -0.1386 -0.9274
  970MOL0     H30892   6.679   7.402   5.083 -0.3184  0.8385  2.0841
  970MOL0     H30893   6.544   7.403   4.858  0.0874 -1.4328 -0.4910
  970MOL0     H30894   6.659   7.511   4.801 -3.4936 -0.6857 -0.2932
  970MOL0     H30895   6.723   7.226   4.905  0.5203  1.8995  1.9454
  970MOL0     H30896   6.704   7.272   4.733  0.9896  2.7256 -1.7063
  970MOL0     H30897   6.903   7.439   4.884  0.5060  1.4901 -0.8817
  970MOL0     H30898   6.890   7.403   4.709 -2.9361  0.7819 -0.5126
  970MOL0     H30899   7.091   7.303   4.824  0.4831 -0.3238 -2.3898
  970MOL0     H30900   6.978   7.186   4.909 -2.9931 -0.7849  0.2152
  970MOL0     H30901   6.921   6.966   4.785  0.6947 -1.0985 -0.5379
  970MOL0     H30902   6.894   6.883   4.399  2.0583 -1.6412 -0.9971
  970MOL0     H30903   7.016   6.804   4.497  0.1007 -0.3591 -0.7721
  970MOL0     H30904   6.767   6.721   4.488 -0.5259 -0.7453  1.8893
  970MOL0     H30905   6.844   6.743   4.646  0.6791  0.9518 -0.2051
  970MOL0     H30906   6.597   6.855   4.521 -0.3913 -2.3513  0.6265
  970MOL0     H30907   6.688   6.979   4.605  2.2279  0.9157  0.0807
  970MOL0     H30908   6.701   6.794   4.799 -0.2091  0.1565  0.2168
  970MOL0     H30909   6.556   6.735   4.723 -1.0352 -0.1296  4.1770
  970MOL0     H30910   6.452   7.119   4.886 -0.1136 -2.1106 -1.4561
  970MOL0     H30911   6.355   7.152   5.129  4.3367  0.0395  2.5589
  970MOL0     H30912   6.064   7.028   5.509  4.7428 -0.2872  0.8635
  970MOL0     H30913   5.892   6.973   5.659 -1.3824 -0.8384 -0.8072
  970MOL0     H30914   5.674   6.626   5.615  1.8104  0.1534 -0.8678
  970MOL0     H30915   5.785   6.513   5.719  1.1861  0.2891 -0.5120
  970MOL0     H30916   5.700   6.569   5.907  2.8961  1.5085 -1.2768
  970MOL0     H30917   5.617   6.709   5.855 -3.7756 -0.7564  0.9993
  970MOL0     H30918   5.432   6.565   5.737  0.7680 -0.5969 -0.9860
  970MOL0     H30919   5.537   6.422   5.771 -1.6554 -0.7455  2.5513
  970MOL0     H30920   5.418   6.583   5.996  0.1251 -0.6038  2.0426
  970MOL0     H30921   5.534   6.458   6.021 -1.2922 -1.6873  0.6331
  970MOL0     H30922   5.412   6.295   5.928  2.3634  1.6104  1.6876
  970MOL0     H30923   5.291   6.396   5.846 -1.4604 -0.9607  0.3889
  970MOL0     H30924   5.312   6.354   6.162  0.8819 -2.4368 -0.8219
  970MOL0     H30925   5.259   6.504   6.096  1.6459 -0.2816  3.4365
  970MOL0     H30926   5.160   6.206   6.082 -2.6023 -0.0661  0.9975
  970MOL0     H30927   5.126   6.304   5.943  2.2924 -0.4393 -0.4180
  970MOL0     H30928   5.009   6.469   6.075  2.0706 -0.8680 -2.5431
  970MOL0     H30929   4.931   6.310   6.116 -0.7411  3.4677 -0.7845
  970MOL0     H30930   5.930   6.552   5.563 -0.2644 -0.4437  0.7386
  970MOL0     H30931   6.088   6.593   5.401 -2.9734  1.3649 -1.2731
  970MOL0     H30932   6.359   6.727   5.160  2.3323  0.1648  0.0663
  970MOL0     H30933   6.481   6.704   4.956  2.1193  2.3066 -2.8150
  970MOL0     H30934   6.481   8.085   5.139 -0.0834  1.2016  0.5103
  970MOL0     H30935   6.494   8.260   5.282  1.8399  1.9878 -3.3472
  970MOL0     H30936   6.473   8.452   5.769 -1.7570 -0.4053 -3.3816
  970MOL0     H30937   6.528   8.637   5.910 -1.3486 -1.7520  0.0500
  970MOL0     H30938   6.680   8.985   5.951 -1.6358  1.6722 -0.5189
  970MOL0     H30939   6.546   8.865   5.922  0.0685 -1.0816  0.2385
  970MOL0     H30940   6.528   9.023   5.734 -0.4507  0.7195 -1.1326
  970MOL0     H30941   6.598   8.881   5.669  2.0859 -0.0558 -0.7408
  970MOL0     H30942   6.709   9.062   5.570  1.8525  1.1444  0.3618
  970MOL0     H30943   6.821   8.974   5.657  0.5844  0.7482 -2.9725
  970MOL0     H30944   6.722   9.254   5.759  0.7382  3.7085 -5.1906
  970MOL0     H30945   6.830   9.139   5.842 -5.2424  2.4379  1.8601
  970MOL0     H30946   7.071   9.308   5.532 -1.3006  2.9617 -0.5540
  970MOL0     H30947   6.909   8.684   5.710 -0.6384  2.5255 -0.3698
  970MOL0     H30948   6.922   8.499   5.468  0.9407 -0.6086 -0.5673
  970MOL0     H30949   6.995   8.526   5.627 -1.3331 -1.2169  1.6408
  970MOL0     H30950   6.932   8.378   5.594  2.3451  1.2388  2.3268
  971MOL0     O30951   5.711   1.398   4.301 -0.5469 -0.0542  0.2671
  971MOL0     C30952   5.784   1.496   4.271  0.0344  1.1990  0.1597
  971MOL0     O30953   5.848   1.504   4.158 -0.2657 -0.3715 -0.7011
  971MOL0     C30954   5.821   1.412   4.055 -0.8440 -0.9341 -1.0529
  971MOL0     C30955   5.777   1.453   3.927 -0.1960 -0.3335  0.0774
  971MOL0     C30956   5.754   1.362   3.823  0.7040  0.0705 -0.2471
  971MOL0     C30957   5.770   1.231   3.829  0.2690 -0.7488 -0.3367
  971MOL0     O30958   5.720   1.159   3.723  0.2270  0.6108 -0.1511
  971MOL0     C30959   5.763   1.026   3.704 -0.0937  0.9558 -0.5177
  971MOL0     C30960   5.717   0.993   3.563 -1.0055  0.9099  0.3157
  971MOL0     C30961   5.689   0.839   3.543  0.4820  0.3279 -0.4516
  971MOL0     C30962   5.817   0.747   3.577 -0.4779 -0.5378  0.1268
  971MOL0     C30963   5.928   0.754   3.467  0.0188  0.5500  0.0349
  971MOL0     C30964   5.885   0.696   3.335 -0.6061 -0.3555 -1.2587
  971MOL0     C30965   5.826   0.552   3.332 -0.0890 -0.0963  0.7045
  971MOL0     C30966   5.708   0.543   3.227  0.6413 -0.1515 -0.1889
  971MOL0     N30967   5.661   0.402   3.218 -0.2451  0.2235 -0.2776
  971MOL0     C30968   5.652   0.323   3.330  0.2290 -0.1434  0.6029
  971MOL0     C30969   5.563   0.222   3.284 -0.6957 -0.1494  0.3801
  971MOL0     C30970   5.495   0.118   3.363 -0.1791  0.5616 -0.0493
  971MOL0     C30971   5.434   0.182   3.491  0.4742  0.1473 -1.0261
  971MOL0     C30972   5.303   0.265   3.474 -0.2409  0.1408 -0.4369
  971MOL0     C30973   5.327   0.391   3.402  0.3497  0.2402  0.5002
  971MOL0     O30974   5.204   0.466   3.421  0.7823 -0.1611  0.3997
  971MOL0     C30975   5.156   0.543   3.315 -1.0115 -1.1611 -0.8136
  971MOL0     C30976   5.024   0.584   3.326  0.1925 -0.0561 -0.5802
  971MOL0     C30977   4.966   0.672   3.234  0.2738 -0.0983  1.2749
  971MOL0     C30978   5.038   0.696   3.115 -0.4933 -0.1089  0.7786
  971MOL0     C30979   4.988   0.768   2.996  0.7001  0.0844  1.4557
  971MOL0     O30980   5.054   0.768   2.875 -0.3669 -0.5127  0.0605
  971MOL0     C30981   5.029   0.849   2.772  0.0484 -0.1568  0.1958
  971MOL0     C30982   5.078   0.802   2.646  0.2350  0.1760  0.3158
  971MOL0     C30983   5.083   0.883   2.534  0.2420 -0.4115 -0.3815
  971MOL0     C30984   5.039   1.008   2.547  0.3202  0.3946  0.2071
  971MOL0     O30985   5.040   1.077   2.422  0.3757  0.4722  0.1450
  971MOL0     C30986   4.967   1.204   2.417 -1.1612  0.5227  0.5822
  971MOL0     C30987   4.816   1.194   2.418  0.2998  0.1266  0.6044
  971MOL0     C30988   4.754   1.331   2.443 -0.8398 -0.4459  0.4783
  971MOL0     C30989   4.626   1.344   2.350 -0.7104  0.3106 -0.0260
  971MOL0     C30990   4.568   1.489   2.373 -0.2490 -0.1618 -0.8203
  971MOL0     C30991   4.454   1.523   2.279  0.2310  0.4528  0.3964
  971MOL0     C30992   4.327   1.449   2.333 -0.3829  0.5478 -0.5006
  971MOL0     C30993   4.190   1.502   2.274  0.4200 -0.3648  0.5815
  971MOL0    Cl30994   4.201   1.472   2.101 -0.5742  0.0234 -0.4655
  971MOL0     C30995   4.972   1.055   2.662  0.2671 -0.3262  0.5303
  971MOL0     C30996   4.975   0.980   2.780 -0.3522 -0.3862  0.0224
  971MOL0     O30997   4.882   0.828   3.015 -0.0237 -0.1251  0.3637
  971MOL0     C30998   5.171   0.655   3.105 -0.3065 -0.1543 -0.0081
  971MOL0     C30999   5.235   0.581   3.208  0.0777  0.5071  0.3367
  971MOL0     N31000   5.525   0.257   3.151 -0.0615  0.2403  0.1220
  971MOL0     N31001   5.587   0.364   3.118 -1.1038  0.0598 -1.0559
  971MOL0     C31002   5.812   1.184   3.951  0.1244 -0.1106  0.7216
  971MOL0     C31003   5.839   1.267   4.066  1.1747  0.2965 -0.6544
  971MOL0     C31004   5.787   1.614   4.366 -0.1973  0.2456 -0.1980
  971MOL0     C31005   5.770   1.739   4.314 -0.7093  0.8360  0.3519
  971MOL0     C31006   5.780   1.848   4.409 -0.1938  0.0556 -0.6526
  971MOL0     C31007   5.770   1.832   4.548 -0.3217  0.5205 -0.5937
  971MOL0     O31008   5.769   1.935   4.636 -0.2093 -0.1829 -0.1920
  971MOL0     C31009   5.784   1.924   4.784 -0.1313  0.6919 -0.3996
  971MOL0     C31010   5.764   2.050   4.854 -0.5062  0.6505 -0.4191
  971MOL0     C31011   5.897   2.135   4.857 -0.1999  0.8322  0.0346
  971MOL0     C31012   5.934   2.162   4.710  0.4008 -0.8632  0.0559
  971MOL0     C31013   6.023   2.273   4.702  0.2362 -0.4737  0.2249
  971MOL0     C31014   6.116   2.351   4.691 -0.3363  0.2215 -0.7946
  971MOL0     C31015   5.775   1.696   4.604 -0.3822 -0.9891 -0.5812
  971MOL0     C31016   5.782   1.592   4.513 -0.5342 -0.3549  1.1470
  971MOL0     C31017   5.790   1.450   4.570 -0.5380 -0.6631  0.0557
  971MOL0     H31018   5.766   1.558   3.906 -5.0350 -0.6160  0.0786
  971MOL0     H31019   5.736   1.397   3.722  2.6728 -3.1081 -1.8547
  971MOL0     H31020   5.872   1.016   3.695  0.1416  0.4270  2.1561
  971MOL0     H31021   5.712   0.963   3.777 -2.2452  2.8339 -0.3106
  971MOL0     H31022   5.795   1.021   3.491 -1.7728  2.0999 -0.0828
  971MOL0     H31023   5.629   1.052   3.536 -0.1095  1.5391 -1.4562
  971MOL0     H31024   5.676   0.836   3.435  3.7851  2.5778 -1.0690
  971MOL0     H31025   5.596   0.804   3.589  1.1861  0.5211  1.1890
  971MOL0     H31026   5.862   0.786   3.668 -1.3822 -0.2115  0.4454
  971MOL0     H31027   5.798   0.641   3.598  0.2771 -0.6263  0.3801
  971MOL0     H31028   5.957   0.859   3.463 -0.2063  0.5690 -2.5020
  971MOL0     H31029   6.022   0.701   3.487 -1.6538 -2.4124  0.7450
  971MOL0     H31030   5.811   0.755   3.281  0.0030 -0.8935 -2.7598
  971MOL0     H31031   5.973   0.699   3.270  0.3614  0.2982  0.0462
  971MOL0     H31032   5.784   0.522   3.428  0.2901  0.6220  1.1082
  971MOL0     H31033   5.909   0.493   3.291 -1.2016 -1.3048  0.1295
  971MOL0     H31034   5.620   0.605   3.244  1.0466  0.3224  0.2085
  971MOL0     H31035   5.746   0.577   3.131  1.8210 -2.1982 -0.5199
  971MOL0     H31036   5.693   0.335   3.430 -1.4148 -1.7548  1.5223
  971MOL0     H31037   5.420   0.058   3.312 -1.0474 -0.8941  2.7701
  971MOL0     H31038   5.572   0.047   3.395 -0.7552 -0.3075 -0.5591
  971MOL0     H31039   5.405   0.107   3.565  0.6075  0.4716 -0.6389
  971MOL0     H31040   5.502   0.256   3.536  0.3299 -0.6508  0.5869
  971MOL0     H31041   5.269   0.297   3.573  1.8403  0.9864  0.0545
  971MOL0     H31042   5.234   0.203   3.416 -1.3832  1.7287 -0.8508
  971MOL0     H31043   5.336   0.361   3.298 -0.0433 -3.3305  1.3720
  971MOL0     H31044   5.414   0.444   3.443  1.1097 -1.3228  0.9717
  971MOL0     H31045   4.947   0.561   3.399  2.5764  1.2749  2.6069
  971MOL0     H31046   4.865   0.701   3.259  0.5509 -0.7954  3.4251
  971MOL0     H31047   5.104   0.697   2.645  0.2779  0.1866  0.3171
  971MOL0     H31048   5.109   0.850   2.434 -0.8528  1.0643 -1.1885
  971MOL0     H31049   5.021   1.267   2.488  4.0052 -1.2255 -1.3172
  971MOL0     H31050   4.994   1.248   2.321  1.9671  0.4358  1.3297
  971MOL0     H31051   4.790   1.158   2.318 -0.3793  2.3750 -0.0857
  971MOL0     H31052   4.777   1.140   2.505  3.0698 -0.6454  1.4648
  971MOL0     H31053   4.720   1.341   2.547  1.8943  1.9163  1.2727
  971MOL0     H31054   4.828   1.407   2.418  0.7018 -0.8009  3.4693
  971MOL0     H31055   4.542   1.282   2.381  0.6044 -1.8660 -0.6214
  971MOL0     H31056   4.655   1.334   2.244 -1.4858  0.9562 -0.3087
  971MOL0     H31057   4.654   1.553   2.354  1.3044 -0.7537  3.2133
  971MOL0     H31058   4.541   1.508   2.477 -0.9624 -2.0684 -0.6159
  971MOL0     H31059   4.436   1.631   2.287  1.9386  0.7594  0.5927
  971MOL0     H31060   4.467   1.508   2.172  4.8696  0.0651  0.8020
  971MOL0     H31061   4.314   1.459   2.441  0.1027  0.4453 -0.4302
  971MOL0     H31062   4.328   1.344   2.303 -2.6914  0.4451 -0.4650
  971MOL0     H31063   4.109   1.439   2.312 -2.0558  2.1883 -0.0631
  971MOL0     H31064   4.179   1.611   2.282  1.7929  0.1064 -2.4229
  971MOL0     H31065   4.912   1.146   2.670  1.5164  0.3866  2.2755
  971MOL0     H31066   4.917   1.015   2.865 -1.7944  1.8783 -1.7698
  971MOL0     H31067   5.222   0.665   3.010 -0.1938 -0.5057  0.0121
  971MOL0     H31068   5.339   0.551   3.206 -1.1566 -4.8708  1.0521
  971MOL0     H31069   5.829   1.077   3.951 -0.1936 -0.1923 -1.5652
  971MOL0     H31070   5.871   1.224   4.160 -1.0248  0.6229  0.3106
  971MOL0     H31071   5.766   1.755   4.207 -0.5295 -1.1244  0.0166
  971MOL0     H31072   5.763   1.951   4.376  0.1431  0.9557  1.8069
  971MOL0     H31073   5.877   1.868   4.799 -0.2317  0.8743  1.0511
  971MOL0     H31074   5.702   1.864   4.824 -1.8816  2.8042 -0.6953
  971MOL0     H31075   5.732   2.024   4.955 -0.1484 -1.9442 -0.8852
  971MOL0     H31076   5.685   2.110   4.809 -1.8538  0.5770  1.7146
  971MOL0     H31077   5.977   2.087   4.913 -1.9615  0.1477  2.0957
  971MOL0     H31078   5.873   2.229   4.907 -1.9191  0.5079 -0.1076
  971MOL0     H31079   5.972   2.067   4.670 -2.8568 -2.2179 -0.1224
  971MOL0     H31080   5.843   2.189   4.656 -0.8064 -2.5410  1.1324
  971MOL0     H31081   6.200   2.417   4.682  0.6023 -1.2518 -4.6413
  971MOL0     H31082   5.768   1.677   4.711 -2.0829  0.3747 -0.3806
  971MOL0     H31083   5.846   1.371   4.518 -0.7152 -1.5487  1.1643
  971MOL0     H31084   5.836   1.459   4.669  3.7286 -0.3061 -1.7536
  971MOL0     H31085   5.687   1.414   4.585 -0.2551 -2.4227 -1.8055
  972MOL0     O31086  10.605   7.972   1.002 -0.2737  0.1062  0.0542
  972MOL0     C31087  10.597   7.933   0.886 -0.0782  0.4483 -0.3952
  972MOL0     O31088  10.540   7.815   0.846  0.5376  0.2160  0.5253
  972MOL0     C31089  10.484   7.735   0.938 -0.1895 -0.2688 -0.2088
  972MOL0     C31090  10.362   7.771   0.995 -0.4190 -0.1356 -0.7329
  972MOL0     C31091  10.310   7.675   1.081  0.2901  0.5176 -0.3665
  972MOL0     C31092  10.361   7.544   1.094  0.3109 -0.4517  0.2684
  972MOL0     O31093  10.307   7.442   1.167  1.0305 -1.1906  0.0520
  972MOL0     C31094  10.205   7.472   1.258  0.4160 -0.5700  0.3334
  972MOL0     C31095  10.071   7.455   1.177  0.6307 -0.2081  1.1700
  972MOL0     C31096   9.957   7.502   1.267 -0.0176  0.0911  0.8269
  972MOL0     C31097   9.922   7.419   1.390 -0.4064 -0.5134 -0.4094
  972MOL0     C31098   9.867   7.285   1.334  0.6117  0.4870 -0.2101
  972MOL0     C31099   9.811   7.198   1.440  0.4408  0.1519  0.2808
  972MOL0     C31100   9.755   7.073   1.366  0.4471 -0.5744 -0.6357
  972MOL0     C31101   9.679   6.975   1.463 -0.4699 -0.1921  0.3542
  972MOL0     N31102   9.599   6.866   1.394 -0.5215 -0.7492  0.7195
  972MOL0     C31103   9.645   6.794   1.288 -0.5611  0.7372  0.1139
  972MOL0     C31104   9.544   6.702   1.249 -0.0737 -0.6548  0.1228
  972MOL0     C31105   9.544   6.594   1.144  0.1897 -0.1005 -0.2018
  972MOL0     C31106   9.571   6.459   1.208  1.2224 -0.6431  0.4134
  972MOL0     C31107   9.611   6.339   1.121 -0.5433  0.8400 -0.1765
  972MOL0     C31108   9.503   6.234   1.070 -0.2983 -0.4184  0.4419
  972MOL0     O31109   9.540   6.119   0.994  0.4284 -0.6520  0.2189
  972MOL0     C31110   9.663   6.137   0.932 -0.7098  0.7334  0.7457
  972MOL0     C31111   9.677   6.226   0.831 -0.5874  0.4389 -0.1840
  972MOL0     C31112   9.798   6.254   0.757  0.0822  0.8560 -0.2811
  972MOL0     C31113   9.911   6.173   0.790 -0.6519 -0.5078 -0.3876
  972MOL0     C31114  10.037   6.195   0.721  0.2088  0.8057  0.3200
  972MOL0     O31115  10.149   6.126   0.768  0.1112 -0.2364 -1.1943
  972MOL0     C31116  10.253   6.140   0.680  0.6288  0.3771 -1.0065
  972MOL0     C31117  10.330   6.030   0.632 -0.8315 -0.1415 -0.4365
  972MOL0     C31118  10.450   6.050   0.560  0.0084 -0.0911  1.0397
  972MOL0     C31119  10.488   6.175   0.513  0.6210  1.0634  0.2602
  972MOL0     O31120  10.595   6.179   0.434 -0.4150 -0.4616  0.7623
  972MOL0     C31121  10.674   6.305   0.411 -0.0481  0.8045  0.2650
  972MOL0     C31122  10.631   6.375   0.289  0.4743 -0.1867  0.4639
  972MOL0     C31123  10.592   6.284   0.181  0.2447  0.3445 -0.5291
  972MOL0     C31124  10.566   6.350   0.046 -0.3118  0.0005  0.2468
  972MOL0     C31125  10.510   6.247  -0.048 -0.3193  0.0367 -0.4148
  972MOL0     C31126  10.483   6.299  -0.192  0.6132 -0.6409 -0.6333
  972MOL0     C31127  10.403   6.434  -0.199 -0.1672 -0.5066  0.3095
  972MOL0     C31128  10.379   6.463  -0.342 -0.1214  0.7918  0.5423
  972MOL0    Cl31129  10.222   6.387  -0.406  0.2517 -0.1510  0.4970
  972MOL0     C31130  10.417   6.285   0.563  1.3209 -0.6775  0.3837
  972MOL0     C31131  10.313   6.266   0.652 -0.3141  0.2065 -0.7015
  972MOL0     O31132  10.035   6.275   0.626  0.1338 -0.2104  0.7567
  972MOL0     C31133   9.898   6.068   0.884  1.0716 -0.4040 -0.1602
  972MOL0     C31134   9.774   6.052   0.953  0.4678  0.1897 -0.0624
  972MOL0     N31135   9.445   6.724   1.349 -0.0678 -1.0608  0.6879
  972MOL0     N31136   9.471   6.829   1.422  0.8276  0.4059  0.3955
  972MOL0     C31137  10.487   7.509   1.032  0.2332 -1.0495  0.1011
  972MOL0     C31138  10.547   7.604   0.949 -0.2034 -0.3592  0.1967
  972MOL0     C31139  10.660   8.021   0.778 -0.2428  1.5161  0.2142
  972MOL0     C31140  10.660   7.963   0.651  0.6417 -0.2326 -0.1475
  972MOL0     C31141  10.719   8.025   0.548  0.0379  0.1217  0.7714
  972MOL0     C31142  10.796   8.138   0.559  0.0282  0.4865 -0.1287
  972MOL0     O31143  10.844   8.194   0.440 -0.0346 -0.1972 -0.2075
  972MOL0     C31144  10.805   8.327   0.407 -0.6436 -0.3315  0.0829
  972MOL0     C31145  10.927   8.420   0.387 -0.2139  0.3030 -0.6050
  972MOL0     C31146  11.004   8.429   0.519  0.7667 -0.0059  0.4312
  972MOL0     C31147  11.129   8.515   0.491 -1.2306 -0.6969 -0.7985
  972MOL0     C31148  11.253   8.442   0.468 -0.0272 -0.4056 -0.5171
  972MOL0     C31149  11.347   8.387   0.439 -1.3092  0.1390  0.3439
  972MOL0     C31150  10.800   8.202   0.685  0.0027  0.8749 -0.1395
  972MOL0     C31151  10.744   8.138   0.794  0.4924 -0.3036 -0.6507
  972MOL0     C31152  10.762   8.195   0.929  0.5025 -0.3450 -0.3118
  972MOL0     H31153  10.314   7.867   0.980 -0.2464 -0.0055 -0.4703
  972MOL0     H31154  10.213   7.699   1.124 -0.1308 -0.9596 -0.4333
  972MOL0     H31155  10.204   7.393   1.333 -0.5799 -2.0083 -1.1293
  972MOL0     H31156  10.214   7.575   1.296  3.8133  0.3612 -2.4522
  972MOL0     H31157  10.063   7.353   1.139  0.0209  0.8167 -1.6322
  972MOL0     H31158  10.080   7.518   1.089 -0.5259 -1.2478  0.2768
  972MOL0     H31159   9.867   7.509   1.206 -1.8927 -0.2767  3.3976
  972MOL0     H31160   9.977   7.605   1.298 -4.8399  1.8584 -1.0740
  972MOL0     H31161  10.014   7.413   1.450 -1.3817 -1.2567  1.0765
  972MOL0     H31162   9.852   7.473   1.454  2.6298  2.4108  0.8145
  972MOL0     H31163   9.786   7.303   1.263 -0.1742  3.4378  1.2747
  972MOL0     H31164   9.941   7.227   1.278  1.3664  1.7259 -0.5304
  972MOL0     H31165   9.882   7.174   1.519 -0.5198 -0.3097  1.0215
  972MOL0     H31166   9.730   7.246   1.495  0.8668  0.4581  0.6469
  972MOL0     H31167   9.837   7.017   1.321  0.0134 -1.4791 -0.3181
  972MOL0     H31168   9.684   7.104   1.289  1.2888  1.0575 -0.8085
  972MOL0     H31169   9.747   6.938   1.540 -2.2468  1.9920  3.1822
  972MOL0     H31170   9.616   7.035   1.529  2.2949  0.3281  2.7149
  972MOL0     H31171   9.748   6.803   1.255  0.6237  0.8127  3.4411
  972MOL0     H31172   9.453   6.595   1.084  0.6995 -1.2516 -1.0380
  972MOL0     H31173   9.628   6.611   1.075 -0.2739  1.3486 -0.4425
  972MOL0     H31174   9.645   6.486   1.284 -1.3270  0.0150  2.8129
  972MOL0     H31175   9.482   6.418   1.257  1.1400 -3.4925 -1.8712
  972MOL0     H31176   9.670   6.282   1.194 -0.5569  1.3840  0.2680
  972MOL0     H31177   9.684   6.366   1.044 -0.7181 -1.0210 -1.0586
  972MOL0     H31178   9.448   6.296   0.999  3.0084 -0.7826 -2.7365
  972MOL0     H31179   9.453   6.208   1.164  1.2902  3.6668  2.7143
  972MOL0     H31180   9.593   6.288   0.802 -0.1280  0.6274 -1.1573
  972MOL0     H31181   9.806   6.341   0.692  3.3610  0.8480 -0.0750
  972MOL0     H31182  10.303   5.937   0.679  2.3306 -0.6965  0.4924
  972MOL0     H31183  10.488   5.956   0.521 -3.7079 -0.7040 -1.6273
  972MOL0     H31184  10.678   6.371   0.498 -0.2010 -0.1826  1.0367
  972MOL0     H31185  10.773   6.270   0.382 -0.1017  0.9564 -0.1213
  972MOL0     H31186  10.554   6.448   0.318  0.2922  0.6490 -1.8900
  972MOL0     H31187  10.722   6.419   0.248  0.8228 -2.3121 -1.1556
  972MOL0     H31188  10.663   6.201   0.169 -0.8168 -0.5835 -0.5645
  972MOL0     H31189  10.496   6.233   0.193 -1.2550  2.6395 -2.0476
  972MOL0     H31190  10.662   6.388   0.011  0.5713  1.4346  3.7926
  972MOL0     H31191  10.495   6.432   0.059 -0.8177 -0.4927  0.6531
  972MOL0     H31192  10.417   6.213  -0.002  0.0119 -0.2401  0.0638
  972MOL0     H31193  10.579   6.162  -0.046  2.5164  2.0400 -3.2178
  972MOL0     H31194  10.583   6.320  -0.231 -0.4621  3.2383 -1.7772
  972MOL0     H31195  10.440   6.228  -0.263  0.2635  0.5373 -1.6342
  972MOL0     H31196  10.455   6.516  -0.149  0.7714 -1.6414  1.2980
  972MOL0     H31197  10.307   6.426  -0.148 -0.7632 -2.2019 -0.9716
  972MOL0     H31198  10.378   6.572  -0.350 -0.5154  0.7715  0.2817
  972MOL0     H31199  10.463   6.436  -0.406 -2.4373  0.3353 -2.5953
  972MOL0     H31200  10.459   6.374   0.518 -0.3171 -1.0316 -2.0268
  972MOL0     H31201  10.271   6.350   0.708  4.6893  4.2504 -2.2284
  972MOL0     H31202   9.982   6.005   0.914 -0.0286 -2.0885 -0.4980
  972MOL0     H31203   9.758   5.966   1.017 -0.7375  0.1675 -0.3724
  972MOL0     H31204  10.534   7.414   1.055 -1.9996 -1.8105  1.8875
  972MOL0     H31205  10.645   7.589   0.905 -0.3316  1.6411 -0.9129
  972MOL0     H31206  10.623   7.864   0.624  1.3979 -0.2126 -1.3506
  972MOL0     H31207  10.719   7.977   0.451  1.5082 -3.3018  2.3131
  972MOL0     H31208  10.727   8.357   0.478  0.0891  2.0276 -0.0340
  972MOL0     H31209  10.761   8.321   0.307 -0.6489  1.2537 -0.0352
  972MOL0     H31210  10.894   8.518   0.351  0.5772  1.8588  2.4912
  972MOL0     H31211  10.991   8.377   0.309  1.3724 -0.1520  0.8870
  972MOL0     H31212  11.016   8.338   0.579  0.9355  0.8763  1.7735
  972MOL0     H31213  10.938   8.499   0.571  2.1887  1.6974  0.0165
  972MOL0     H31214  11.119   8.586   0.408  3.2563  0.6565 -0.4240
  972MOL0     H31215  11.139   8.582   0.576 -2.1179  0.3251 -1.4752
  972MOL0     H31216  11.428   8.336   0.390 -3.1218 -1.2971 -1.3473
  972MOL0     H31217  10.857   8.294   0.688 -1.7412  2.0025 -0.8355
  972MOL0     H31218  10.798   8.298   0.920  0.3087 -0.2376  0.0887
  972MOL0     H31219  10.671   8.196   0.991 -0.3852  0.4008 -1.5863
  972MOL0     H31220  10.837   8.145   0.990  0.2469  0.3204  0.5712
  973MOL0     O31221   8.623  10.422   6.516 -0.1367 -0.2228  0.0208
  973MOL0     C31222   8.624  10.333   6.434 -0.3592  0.2475 -0.2825
  973MOL0     O31223   8.564  10.216   6.446 -0.0101  0.2731  0.2276
  973MOL0     C31224   8.498  10.182   6.565 -0.5271 -0.0859 -0.2975
  973MOL0     C31225   8.560  10.102   6.656 -0.5702 -1.1444  0.4796
  973MOL0     C31226   8.510  10.085   6.790  0.6431  0.0983  0.3379
  973MOL0     C31227   8.390  10.140   6.829  0.3469 -0.9517  0.1237
  973MOL0     O31228   8.325  10.127   6.950 -0.4856  0.6446  0.9624
  973MOL0     C31229   8.388  10.045   7.059  0.2395 -0.2518  0.7398
  973MOL0     C31230   8.333  10.082   7.200 -0.3029  0.0329  0.4660
  973MOL0     C31231   8.190  10.036   7.226  0.3667 -0.2664  0.2788
  973MOL0     C31232   8.174   9.894   7.259 -0.1621  0.3233  0.4867
  973MOL0     C31233   8.204   9.874   7.405  0.0355  0.3496  0.1996
  973MOL0     C31234   8.089   9.864   7.504  0.1138 -0.3378 -0.4493
  973MOL0     C31235   8.143   9.853   7.649 -0.2875 -0.3356 -1.0572
  973MOL0     C31236   8.073   9.936   7.755  0.1448  0.1685 -0.5591
  973MOL0     N31237   7.938   9.906   7.791  0.0971 -0.2552 -0.9812
  973MOL0     C31238   7.868   9.816   7.721 -0.0435  0.3600 -0.1291
  973MOL0     C31239   7.743   9.824   7.764 -0.2509  0.0541 -1.0093
  973MOL0     C31240   7.625   9.739   7.749  0.0335  0.0552 -0.0341
  973MOL0     C31241   7.642   9.658   7.626 -0.0991  1.3593 -0.5847
  973MOL0     C31242   7.526   9.547   7.621 -0.4784 -0.2193 -0.0240
  973MOL0     C31243   7.528   9.476   7.489  0.2861  0.2975  0.4177
  973MOL0     O31244   7.495   9.571   7.380  0.7749  0.9606 -0.2219
  973MOL0     C31245   7.581   9.590   7.282 -0.2624  0.2362 -0.5586
  973MOL0     C31246   7.697   9.512   7.262  0.0136  0.2220  0.6785
  973MOL0     C31247   7.787   9.565   7.168  0.0973 -0.5957  0.5863
  973MOL0     C31248   7.775   9.692   7.104  0.0678  0.1145 -0.0754
  973MOL0     C31249   7.885   9.751   7.014  0.1750 -0.2422 -0.4881
  973MOL0     O31250   8.018   9.707   7.026 -0.6227 -0.0679 -0.1008
  973MOL0     C31251   8.108   9.733   6.919 -0.6833 -0.1956 -0.2199
  973MOL0     C31252   8.219   9.647   6.914  0.3018  0.0913  0.3712
  973MOL0     C31253   8.325   9.658   6.828 -0.3450  0.9033  0.6779
  973MOL0     C31254   8.322   9.762   6.729 -0.6039  1.0670  0.2500
  973MOL0     O31255   8.427   9.788   6.659  0.6543 -0.8100  0.6909
  973MOL0     C31256   8.422   9.752   6.519 -0.0339  0.1268  0.2430
  973MOL0     C31257   8.543   9.673   6.472  0.2399  0.3787 -0.8791
  973MOL0     C31258   8.669   9.755   6.468 -0.1627 -0.2860  0.7135
  973MOL0     C31259   8.792   9.676   6.403  0.3423  0.3177  0.1176
  973MOL0     C31260   8.889   9.771   6.331  0.1071 -0.4614  0.2881
  973MOL0     C31261   8.996   9.704   6.244  0.5960  0.2730 -0.0055
  973MOL0     C31262   9.060   9.809   6.148 -0.2330 -0.0139 -0.4106
  973MOL0     C31263   9.130   9.919   6.224  0.1692  0.5826  0.4804
  973MOL0    Cl31264   9.188  10.053   6.111  0.3250  0.0190  0.5650
  973MOL0     C31265   8.218   9.852   6.736  0.4832 -0.2042  0.6066
  973MOL0     C31266   8.106   9.845   6.830  0.5605 -0.6328 -0.5393
  973MOL0     O31267   7.846   9.830   6.925 -0.2123 -1.4305 -0.5710
  973MOL0     C31268   7.658   9.768   7.131 -0.0018  0.0568  0.3525
  973MOL0     C31269   7.563   9.717   7.223 -0.6791 -0.6236 -0.9251
  973MOL0     N31270   7.735   9.928   7.853 -0.6935  0.0435 -0.0084
  973MOL0     N31271   7.855   9.976   7.873 -0.2180 -0.1303 -0.1283
  973MOL0     C31272   8.328  10.219   6.729  0.4417 -0.8928 -0.9808
  973MOL0     C31273   8.381  10.242   6.598 -0.5510 -0.6208 -0.4124
  973MOL0     C31274   8.688  10.369   6.302 -0.5048  0.3531 -1.0388
  973MOL0     C31275   8.656  10.487   6.233 -0.1374  0.0049  0.9276
  973MOL0     C31276   8.721  10.502   6.104  0.1776 -0.4221 -0.7115
  973MOL0     C31277   8.828  10.435   6.052 -0.2187  0.9361  0.6559
  973MOL0     O31278   8.886  10.455   5.931  0.9476  0.2423 -0.4631
  973MOL0     C31279   8.983  10.557   5.908 -0.0055 -0.5311  0.1964
  973MOL0     C31280   8.957  10.621   5.770 -0.0953  0.6352 -0.6954
  973MOL0     C31281   8.826  10.708   5.763 -0.4798 -0.4040  0.0665
  973MOL0     C31282   8.804  10.742   5.619 -0.0295 -0.1443 -0.7282
  973MOL0     C31283   8.704  10.641   5.559  0.0489 -0.5856  0.2970
  973MOL0     C31284   8.629  10.560   5.502 -0.2139  0.2137  0.1267
  973MOL0     C31285   8.872  10.331   6.128 -0.2517 -0.0177 -1.3056
  973MOL0     C31286   8.802  10.285   6.240  0.0995 -1.1662  0.2435
  973MOL0     C31287   8.849  10.162   6.312  0.3546  0.2587 -0.1784
  973MOL0     H31288   8.652  10.059   6.618  0.2070 -1.1813  2.3278
  973MOL0     H31289   8.561  10.029   6.868  3.6444 -2.1011 -2.8927
  973MOL0     H31290   8.388   9.936   7.051 -2.0804 -0.4601  2.5589
  973MOL0     H31291   8.492  10.080   7.062 -0.4788  1.9757  2.4066
  973MOL0     H31292   8.339  10.191   7.200  2.4527 -0.0023 -1.8164
  973MOL0     H31293   8.392  10.040   7.282 -1.2868 -3.0291 -0.2777
  973MOL0     H31294   8.129  10.055   7.137 -1.2016  0.6364  1.4912
  973MOL0     H31295   8.144  10.093   7.307  1.7935  0.8667  0.3349
  973MOL0     H31296   8.088   9.841   7.218  1.8292 -3.7026  1.1009
  973MOL0     H31297   8.261   9.858   7.203 -0.8683  1.1798 -1.2708
  973MOL0     H31298   8.256   9.778   7.413 -1.0786 -0.1955  1.2808
  973MOL0     H31299   8.272   9.953   7.439 -1.1333  0.9612  1.1832
  973MOL0     H31300   8.034   9.958   7.499 -1.2907 -1.1305 -0.2966
  973MOL0     H31301   8.028   9.775   7.487 -5.9352  3.0748  0.4023
  973MOL0     H31302   8.252   9.864   7.649 -0.4308  1.3827 -0.2476
  973MOL0     H31303   8.130   9.748   7.678  0.5993  0.2195  1.5431
  973MOL0     H31304   8.137   9.927   7.843 -0.0386  0.1604 -0.4258
  973MOL0     H31305   8.077  10.042   7.726 -1.4599 -0.0371 -1.6589
  973MOL0     H31306   7.909   9.746   7.648  1.2634 -0.3752  1.2463
  973MOL0     H31307   7.604   9.688   7.844 -0.7029  1.0849  0.3722
  973MOL0     H31308   7.542   9.809   7.738  0.8204  0.8802 -0.8441
  973MOL0     H31309   7.645   9.715   7.532 -0.0337 -3.6277 -3.9991
  973MOL0     H31310   7.741   9.612   7.629  0.6368  2.9088 -0.5135
  973MOL0     H31311   7.427   9.578   7.656  0.9008  1.4469  2.7912
  973MOL0     H31312   7.551   9.466   7.690  1.2179 -0.2362 -0.6272
  973MOL0     H31313   7.460   9.391   7.480  0.1816  0.2874  1.2455
  973MOL0     H31314   7.627   9.431   7.488  0.1083 -0.1381 -1.3259
  973MOL0     H31315   7.714   9.414   7.305  1.5083  1.1311  2.2813
  973MOL0     H31316   7.865   9.493   7.143 -1.6774 -2.5838  0.5483
  973MOL0     H31317   8.201   9.561   6.978 -4.3401 -1.5837 -2.7135
  973MOL0     H31318   8.391   9.573   6.827 -1.8112 -0.3651  2.6489
  973MOL0     H31319   8.333   9.698   6.486 -1.4606  1.7589  1.2265
  973MOL0     H31320   8.408   9.845   6.465  0.9531 -1.1379 -2.3601
  973MOL0     H31321   8.550   9.599   6.553  3.0353  3.8470  2.4571
  973MOL0     H31322   8.523   9.612   6.384  1.5773  0.8136 -1.5152
  973MOL0     H31323   8.654   9.847   6.410 -1.5562  0.4518  2.1457
  973MOL0     H31324   8.702   9.769   6.572 -2.6580 -3.7420  2.1459
  973MOL0     H31325   8.750   9.598   6.338 -2.1344  1.0830  0.7115
  973MOL0     H31326   8.843   9.625   6.485 -1.4318  0.1750  1.1739
  973MOL0     H31327   8.943   9.842   6.394 -0.6191  0.6065 -0.2649
  973MOL0     H31328   8.834   9.825   6.254 -0.6347  2.0364  2.4236
  973MOL0     H31329   9.070   9.657   6.310 -2.0926 -1.8218  1.7895
  973MOL0     H31330   8.953   9.621   6.187  0.0506 -1.5623  2.8434
  973MOL0     H31331   8.988   9.840   6.072 -0.1395  0.2122 -0.4082
  973MOL0     H31332   9.138   9.748   6.102  0.1805 -0.0047  0.2591
  973MOL0     H31333   9.058   9.956   6.298 -1.1829 -1.4950  0.2918
  973MOL0     H31334   9.214   9.872   6.275 -1.5533 -1.5805  1.5060
  973MOL0     H31335   8.210   9.941   6.674  0.5588 -0.8357 -0.3296
  973MOL0     H31336   8.037   9.929   6.840  0.8646 -0.3977 -0.4001
  973MOL0     H31337   7.640   9.870   7.099 -1.3547 -0.7738 -1.8429
  973MOL0     H31338   7.473   9.777   7.230 -1.0203 -0.9482 -2.2281
  973MOL0     H31339   8.235  10.262   6.764  0.0834 -0.8454 -1.9673
  973MOL0     H31340   8.342  10.312   6.526  0.5694  0.0837 -0.3394
  973MOL0     H31341   8.569  10.548   6.258  2.1351  3.2424  1.5918
  973MOL0     H31342   8.683  10.588   6.049  2.1459  0.6610 -0.4621
  973MOL0     H31343   9.079  10.503   5.909  0.1462 -0.2752  2.1100
  973MOL0     H31344   8.979  10.635   5.984 -1.7884 -0.7895  0.3990
  973MOL0     H31345   8.961  10.550   5.687 -0.4614  0.4639 -0.5696
  973MOL0     H31346   9.034  10.698   5.758  1.2732 -0.3859  1.1223
  973MOL0     H31347   8.847  10.793   5.828  3.7138 -0.4175 -0.9554
  973MOL0     H31348   8.741  10.657   5.808 -1.0620 -0.2659 -0.8512
  973MOL0     H31349   8.755  10.840   5.616 -1.0131 -0.6500 -2.3979
  973MOL0     H31350   8.897  10.742   5.560  3.9105  3.2283  4.5428
  973MOL0     H31351   8.566  10.483   5.461  2.4127 -3.0125  1.7051
  973MOL0     H31352   8.966  10.278   6.118 -0.8000 -1.4833  0.5332
  973MOL0     H31353   8.949  10.138   6.274  0.3696  0.6714 -0.3988
  973MOL0     H31354   8.878  10.163   6.418  3.6688  0.7478 -0.9781
  973MOL0     H31355   8.781  10.079   6.290  1.6036 -0.1445 -2.9939
  974MOL0     O31356   9.379   5.084   6.724 -0.5281 -0.5910  0.4031
  974MOL0     C31357   9.394   5.168   6.633 -1.1201 -0.2194 -0.4631
  974MOL0     O31358   9.345   5.161   6.508 -0.1078  0.0904 -0.7764
  974MOL0     C31359   9.305   5.040   6.471  0.5957  0.0406 -0.1342
  974MOL0     C31360   9.349   4.989   6.353  0.3783  0.5131 -0.3194
  974MOL0     C31361   9.312   4.860   6.310  0.7371  0.4581  0.7632
  974MOL0     C31362   9.203   4.793   6.376  0.4572  0.4526  0.2187
  974MOL0     O31363   9.151   4.667   6.330 -0.2129 -1.0696  0.3509
  974MOL0     C31364   9.168   4.634   6.194  0.3629  0.4730  0.1074
  974MOL0     C31365   9.056   4.714   6.115 -1.1526 -0.2958 -0.3712
  974MOL0     C31366   8.908   4.663   6.136  0.0597 -0.4005 -0.0320
  974MOL0     C31367   8.882   4.533   6.060 -0.6691 -0.6919 -0.3657
  974MOL0     C31368   8.730   4.495   6.074 -0.5827  0.3910 -0.8485
  974MOL0     C31369   8.633   4.596   6.014 -0.2082  0.0346  0.6509
  974MOL0     C31370   8.655   4.618   5.865 -0.1208 -1.2113  0.2656
  974MOL0     C31371   8.537   4.697   5.798 -1.3226 -0.6485 -1.0441
  974MOL0     N31372   8.578   4.770   5.676  0.2206  1.1021 -1.1275
  974MOL0     C31373   8.675   4.738   5.579  0.2589  0.2157  0.3269
  974MOL0     C31374   8.683   4.843   5.496  0.0808  0.0497 -0.3608
  974MOL0     C31375   8.766   4.844   5.372 -0.6526 -0.4684  0.1117
  974MOL0     C31376   8.691   4.774   5.254  0.1897 -0.0380  0.0448
  974MOL0     C31377   8.556   4.830   5.235  0.4667 -0.0929  0.7111
  974MOL0     C31378   8.489   4.801   5.103  0.2059  0.9147  0.3072
  974MOL0     O31379   8.433   4.670   5.113  0.6864  0.0250  1.1445
  974MOL0     C31380   8.495   4.564   5.049  0.2883  0.1411  0.1348
  974MOL0     C31381   8.616   4.567   4.981  0.9212 -0.4110 -0.3167
  974MOL0     C31382   8.671   4.460   4.918  0.7265 -0.3068  1.1683
  974MOL0     C31383   8.599   4.339   4.915 -0.5450 -1.1209  0.4804
  974MOL0     C31384   8.663   4.221   4.853 -0.4755 -0.6694 -0.0444
  974MOL0     O31385   8.582   4.120   4.830 -0.1436 -0.0515  0.1135
  974MOL0     C31386   8.610   4.007   4.755  0.1994 -0.7571  0.1482
  974MOL0     C31387   8.704   3.979   4.647  0.2692 -0.1718 -0.2336
  974MOL0     C31388   8.700   3.858   4.576  0.6704  0.3959 -0.1161
  974MOL0     C31389   8.601   3.762   4.609 -0.2487 -0.0423  0.3667
  974MOL0     O31390   8.595   3.634   4.562  0.4792 -0.3159 -0.2866
  974MOL0     C31391   8.713   3.579   4.496 -0.2936  0.1877  0.2649
  974MOL0     C31392   8.772   3.491   4.600  0.8683 -0.7103  0.1786
  974MOL0     C31393   8.829   3.563   4.724  0.4303  0.6908  0.2541
  974MOL0     C31394   8.875   3.456   4.823  0.2401  1.3573  0.1728
  974MOL0     C31395   8.776   3.358   4.885 -0.6373  0.7308 -0.6019
  974MOL0     C31396   8.848   3.266   4.985 -1.3578  0.3803 -0.2919
  974MOL0     C31397   8.779   3.153   5.056 -0.3246 -0.0026 -0.1927
  974MOL0     C31398   8.660   3.201   5.139  0.9098 -0.6912 -0.3385
  974MOL0    Cl31399   8.515   3.178   5.046  0.6015  0.6831  0.4703
  974MOL0     C31400   8.512   3.786   4.709 -0.0364  0.1545  0.1455
  974MOL0     C31401   8.507   3.906   4.785 -0.2691  0.1737  0.5139
  974MOL0     O31402   8.779   4.227   4.817 -0.0897  0.1527  0.8211
  974MOL0     C31403   8.480   4.332   4.976  0.1685 -1.0399 -0.3832
  974MOL0     C31404   8.428   4.443   5.052  0.2411  0.6697 -0.5578
  974MOL0     N31405   8.620   4.954   5.551  0.0601  0.9133 -0.0796
  974MOL0     N31406   8.546   4.904   5.653  0.9531  0.5864  0.6428
  974MOL0     C31407   9.149   4.841   6.486  0.0522 -0.8495  0.2303
  974MOL0     C31408   9.204   4.958   6.539 -0.3602  1.0507  0.2059
  974MOL0     C31409   9.493   5.274   6.658  0.4153  0.0777 -0.0040
  974MOL0     C31410   9.579   5.312   6.553 -0.3416  0.1208 -0.3277
  974MOL0     C31411   9.677   5.411   6.575  0.1388  0.2121 -0.2263
  974MOL0     C31412   9.693   5.472   6.699 -0.5420  0.1967  0.6246
  974MOL0     O31413   9.783   5.570   6.724  0.6390 -0.1923  0.7254
  974MOL0     C31414   9.816   5.660   6.608  0.1891  0.1135 -0.3905
  974MOL0     C31415   9.910   5.768   6.675 -0.6987  0.6572  0.6790
  974MOL0     C31416  10.009   5.828   6.560  0.3788  0.8167 -0.4404
  974MOL0     C31417   9.939   5.922   6.460  0.1354  0.1678 -0.5028
  974MOL0     C31418  10.048   5.945   6.370 -0.4752  0.6610  0.2854
  974MOL0     C31419  10.155   5.950   6.301  1.1960  0.1080 -1.2473
  974MOL0     C31420   9.603   5.436   6.803 -0.3253  0.4664 -0.4740
  974MOL0     C31421   9.509   5.337   6.786  0.3629 -0.7350 -0.9289
  974MOL0     C31422   9.417   5.311   6.903 -0.3156 -0.5000 -0.1573
  974MOL0     H31423   9.417   5.053   6.297 -0.7231  1.0269 -1.1146
  974MOL0     H31424   9.347   4.809   6.221  0.0388 -2.0448  1.8328
  974MOL0     H31425   9.269   4.650   6.155 -0.0170  1.6292 -0.4661
  974MOL0     H31426   9.151   4.527   6.182 -2.6325  0.7555  0.9679
  974MOL0     H31427   9.076   4.728   6.008 -4.4769 -1.4221 -1.2472
  974MOL0     H31428   9.060   4.817   6.151  2.2368  0.9602 -3.5994
  974MOL0     H31429   8.849   4.751   6.108  1.9265  1.0269  0.2891
  974MOL0     H31430   8.881   4.651   6.241 -0.5661  0.5209 -0.0701
  974MOL0     H31431   8.900   4.546   5.953  3.8268 -3.0523 -0.0935
  974MOL0     H31432   8.941   4.449   6.096  0.7434 -0.2838 -1.6353
  974MOL0     H31433   8.708   4.394   6.038 -1.3339 -1.3461  3.7397
  974MOL0     H31434   8.716   4.481   6.182 -3.5323 -1.4513 -1.3468
  974MOL0     H31435   8.534   4.550   6.026 -1.7017  1.6560 -3.5341
  974MOL0     H31436   8.649   4.695   6.056  2.2239  2.2320 -4.5505
  974MOL0     H31437   8.666   4.521   5.815  3.4166 -0.5009 -0.6360
  974MOL0     H31438   8.743   4.683   5.859  0.3930 -1.7139  1.8689
  974MOL0     H31439   8.441   4.652   5.772 -1.3621 -0.1079 -1.8822
  974MOL0     H31440   8.507   4.778   5.865 -3.4461  0.1849 -2.8680
  974MOL0     H31441   8.722   4.641   5.569 -0.1107 -0.0562  1.1580
  974MOL0     H31442   8.803   4.945   5.353 -4.1720  0.9710  0.0168
  974MOL0     H31443   8.849   4.777   5.393 -2.3440 -2.5410  0.5204
  974MOL0     H31444   8.761   4.794   5.172  2.6628 -2.6763  1.3462
  974MOL0     H31445   8.668   4.668   5.266 -2.6872  0.5400  0.3885
  974MOL0     H31446   8.572   4.938   5.241 -0.4107  0.2647 -2.1150
  974MOL0     H31447   8.490   4.804   5.318 -1.3596  0.9157 -0.3442
  974MOL0     H31448   8.538   4.823   5.007 -0.5863 -1.5140 -0.7344
  974MOL0     H31449   8.399   4.863   5.103 -3.7788 -4.1903 -0.1026
  974MOL0     H31450   8.670   4.661   4.987  3.9707 -2.0940  2.4387
  974MOL0     H31451   8.770   4.463   4.872 -0.0488  1.6073 -0.5065
  974MOL0     H31452   8.764   4.067   4.624 -2.4797  1.9363  0.0466
  974MOL0     H31453   8.765   3.842   4.491  1.9020  0.4326  0.7829
  974MOL0     H31454   8.685   3.509   4.416 -0.4653  0.1791  0.3315
  974MOL0     H31455   8.788   3.648   4.455  0.6731  1.6541  4.1183
  974MOL0     H31456   8.703   3.411   4.627  1.8012 -1.2672  0.9470
  974MOL0     H31457   8.851   3.444   4.541 -0.5141 -1.2629 -1.3125
  974MOL0     H31458   8.907   3.632   4.691  0.6255  0.6822  0.6809
  974MOL0     H31459   8.747   3.615   4.773  0.7656  2.0751 -0.6171
  974MOL0     H31460   8.928   3.513   4.900  1.6435 -0.1957  0.4208
  974MOL0     H31461   8.950   3.396   4.770  0.9452 -2.2300  4.5452
  974MOL0     H31462   8.738   3.281   4.816  4.6482 -0.6414 -2.4439
  974MOL0     H31463   8.693   3.412   4.933 -0.7209  1.1163 -1.1657
  974MOL0     H31464   8.943   3.236   4.940 -1.1242  0.1642  0.3427
  974MOL0     H31465   8.889   3.333   5.061  1.3254 -3.4407  1.9814
  974MOL0     H31466   8.852   3.096   5.115 -3.0350 -2.1853  1.2733
  974MOL0     H31467   8.756   3.082   4.976 -1.4852 -0.1486  0.2592
  974MOL0     H31468   8.653   3.151   5.236 -0.0053  0.7901  0.3826
  974MOL0     H31469   8.673   3.306   5.167 -2.0900 -0.9675  2.6811
  974MOL0     H31470   8.450   3.699   4.731  0.3116 -0.8060 -2.3535
  974MOL0     H31471   8.425   3.931   4.851 -0.1682  3.4690 -0.4152
  974MOL0     H31472   8.430   4.236   4.975  0.0178 -0.9616 -1.0768
  974MOL0     H31473   8.335   4.432   5.106 -1.1189  0.4663 -2.8170
  974MOL0     H31474   9.081   4.776   6.541 -1.5742  0.0512 -0.6731
  974MOL0     H31475   9.149   4.999   6.623 -2.4063 -0.4476 -0.3095
  974MOL0     H31476   9.573   5.272   6.452 -1.2770  0.5648 -0.4569
  974MOL0     H31477   9.739   5.442   6.491  0.6528  0.7965  0.3528
  974MOL0     H31478   9.723   5.709   6.576 -0.2610  2.8294  4.1735
  974MOL0     H31479   9.861   5.609   6.522  1.6969 -0.1082  0.4842
  974MOL0     H31480   9.975   5.722   6.749  0.6392 -2.7529 -2.2962
  974MOL0     H31481   9.856   5.849   6.725 -3.3450 -0.1359 -0.6592
  974MOL0     H31482  10.071   5.750   6.515 -0.1867 -0.2005  0.4778
  974MOL0     H31483  10.083   5.886   6.616 -1.5088  2.1230  0.8385
  974MOL0     H31484   9.856   5.873   6.409  0.7732  0.0566 -1.4476
  974MOL0     H31485   9.902   6.016   6.502 -3.1510 -0.8923 -0.7013
  974MOL0     H31486  10.245   5.955   6.242  0.3812 -0.0664 -2.5373
  974MOL0     H31487   9.607   5.476   6.904 -1.0253  0.7761 -0.5674
  974MOL0     H31488   9.437   5.214   6.949  0.9506  0.6868  2.0361
  974MOL0     H31489   9.440   5.382   6.983  1.0242  0.0498 -0.9938
  974MOL0     H31490   9.312   5.322   6.877 -0.1932 -0.0171 -0.4657
  975MOL0     O31491  11.240   8.130   0.102  0.2836  0.0507 -0.3750
  975MOL0     C31492  11.295   8.024   0.141  0.0159  0.2347  1.0482
  975MOL0     O31493  11.399   7.964   0.075  0.0811  0.2509  0.2482
  975MOL0     C31494  11.476   8.036  -0.007 -0.5874 -0.6026  0.5041
  975MOL0     C31495  11.570   8.129   0.053 -0.2852  0.3523 -0.6988
  975MOL0     C31496  11.641   8.221  -0.011  0.8620 -0.3821 -0.1986
  975MOL0     C31497  11.640   8.214  -0.145 -0.0069  0.1403 -1.2338
  975MOL0     O31498  11.741   8.286  -0.209  0.4945  0.3913 -0.3596
  975MOL0     C31499  11.759   8.285  -0.347  0.6462 -0.0375  1.2133
  975MOL0     C31500  11.808   8.434  -0.401  0.1155  0.4169 -0.7552
  975MOL0     C31501  11.691   8.518  -0.388  0.3974  0.2102 -0.8862
  975MOL0     C31502  11.719   8.667  -0.428  0.5635 -0.3834 -1.1712
  975MOL0     C31503  11.584   8.752  -0.424  0.3209  0.8728 -0.7505
  975MOL0     C31504  11.611   8.900  -0.456 -0.3725 -0.1314  0.0154
  975MOL0     C31505  11.637   8.986  -0.332 -0.3451 -0.3521 -0.5552
  975MOL0     C31506  11.780   8.973  -0.270  0.5057  0.5296  0.6632
  975MOL0     N31507  11.868   9.020  -0.374  0.3410  0.3063 -1.4308
  975MOL0     C31508  11.980   8.957  -0.417 -0.1212 -0.7512 -0.0574
  975MOL0     C31509  12.041   9.033  -0.515  0.2868  0.1090 -0.4038
  975MOL0     C31510  12.166   8.976  -0.586  0.7596 -0.7257 -0.2039
  975MOL0     C31511  12.196   9.044  -0.721 -0.1444 -1.1107  0.0172
  975MOL0     C31512  12.269   9.183  -0.701  0.3902 -0.1614  0.5019
  975MOL0     C31513  12.209   9.295  -0.788  0.4465 -0.0090  0.2212
  975MOL0     O31514  12.212   9.254  -0.923 -0.5922  0.1843 -0.1860
  975MOL0     C31515  12.094   9.224  -0.988 -1.3075 -0.4456  0.5955
  975MOL0     C31516  11.968   9.277  -0.957  0.4100  0.8043 -0.0628
  975MOL0     C31517  11.851   9.233  -1.019  0.0986 -0.7639  0.2632
  975MOL0     C31518  11.856   9.137  -1.122 -0.0843  0.1331  0.5872
  975MOL0     C31519  11.742   9.069  -1.188 -0.1825 -0.2239 -1.6381
  975MOL0     O31520  11.627   9.112  -1.140  0.9427 -0.3824  0.9136
  975MOL0     C31521  11.504   9.078  -1.197 -0.1839 -0.4651  0.2647
  975MOL0     C31522  11.409   9.044  -1.098 -1.1037 -0.8513  0.1624
  975MOL0     C31523  11.285   9.008  -1.150  0.0231  0.1373  0.3956
  975MOL0     C31524  11.243   9.030  -1.277  0.0341 -0.0426  1.4139
  975MOL0     O31525  11.112   9.018  -1.319  0.0552  0.1834 -0.7768
  975MOL0     C31526  11.013   8.966  -1.230 -0.9663 -0.2131 -0.0514
  975MOL0     C31527  11.023   8.816  -1.214 -0.1646  0.1267  0.1964
  975MOL0     C31528  11.082   8.752  -1.334  0.4651 -0.5455 -0.3110
  975MOL0     C31529  11.041   8.606  -1.332 -0.3721 -0.0959 -0.8406
  975MOL0     C31530  11.121   8.551  -1.450 -0.0412  0.4644  0.9763
  975MOL0     C31531  11.124   8.398  -1.461  0.5966 -0.6672  0.6118
  975MOL0     C31532  10.976   8.351  -1.485  0.6678 -0.8946 -0.2708
  975MOL0     C31533  10.897   8.428  -1.596 -0.1979 -0.1221 -0.0877
  975MOL0    Cl31534  10.985   8.443  -1.742 -0.0570  0.0187  0.2770
  975MOL0     C31535  11.330   9.074  -1.375 -0.2265 -0.0156  0.3955
  975MOL0     C31536  11.464   9.082  -1.335  0.1128 -0.1095  0.2423
  975MOL0     O31537  11.766   8.987  -1.272 -0.1146 -0.1843  0.6014
  975MOL0     C31538  11.985   9.098  -1.162  0.1946 -1.5154 -0.2219
  975MOL0     C31539  12.100   9.147  -1.097  0.3445 -0.1871 -1.3664
  975MOL0     N31540  11.957   9.136  -0.545  0.5504  1.1545  0.1446
  975MOL0     N31541  11.851   9.129  -0.460 -0.0796  0.0205  0.0198
  975MOL0     C31542  11.558   8.117  -0.214 -0.3263 -0.2095 -1.6091
  975MOL0     C31543  11.479   8.025  -0.142  0.0555 -0.7810  1.0123
  975MOL0     C31544  11.244   7.960   0.264  0.9637  0.4896  1.2410
  975MOL0     C31545  11.147   8.033   0.335  0.0774 -0.0778  0.0412
  975MOL0     C31546  11.106   7.992   0.464  0.1788  0.8709  0.8590
  975MOL0     C31547  11.154   7.868   0.519 -1.0122 -0.2009  0.4056
  975MOL0     O31548  11.136   7.841   0.653  0.6965  0.2895  0.7799
  975MOL0     C31549  10.994   7.835   0.686  0.1765  0.0052 -0.0600
  975MOL0     C31550  10.913   7.742   0.587 -0.5125  0.0179  0.2651
  975MOL0     C31551  10.835   7.643   0.679  0.9760  0.8327 -0.4261
  975MOL0     C31552  10.747   7.541   0.591 -0.3899 -0.3740  0.2602
  975MOL0     C31553  10.625   7.616   0.560  0.7488  0.2380 -0.3042
  975MOL0     C31554  10.515   7.674   0.519  0.1279  0.4703  0.0279
  975MOL0     C31555  11.248   7.787   0.443  0.2823  0.8778 -0.3506
  975MOL0     C31556  11.288   7.831   0.324 -1.5829  0.0477  1.3253
  975MOL0     C31557  11.409   7.753   0.253  0.2088 -1.1469  0.6403
  975MOL0     H31558  11.573   8.124   0.162 -0.8861 -1.5374 -0.7346
  975MOL0     H31559  11.694   8.296   0.047 -2.1960 -0.6397  3.3101
  975MOL0     H31560  11.847   8.223  -0.368  0.6437  0.5503 -0.7946
  975MOL0     H31561  11.681   8.255  -0.419  1.1592  0.2948  0.5043
  975MOL0     H31562  11.857   8.435  -0.498 -2.9060 -2.1690 -2.4799
  975MOL0     H31563  11.881   8.458  -0.323 -0.7971  2.2517 -0.4038
  975MOL0     H31564  11.645   8.511  -0.289 -1.2999  0.5876 -1.6166
  975MOL0     H31565  11.608   8.483  -0.450 -3.3208  3.5607  1.6661
  975MOL0     H31566  11.792   8.692  -0.350 -0.6107 -0.1258 -0.1399
  975MOL0     H31567  11.771   8.676  -0.525  2.7827  0.2828  0.0044
  975MOL0     H31568  11.510   8.711  -0.493  1.1321 -2.6279  0.2409
  975MOL0     H31569  11.540   8.749  -0.324  1.4019  0.0524 -0.2820
  975MOL0     H31570  11.688   8.920  -0.530  0.3043  0.8696  0.9610
  975MOL0     H31571  11.517   8.937  -0.498  0.9455  1.2349 -1.8366
  975MOL0     H31572  11.566   8.956  -0.254  3.0543 -0.1242  2.9932
  975MOL0     H31573  11.618   9.091  -0.354 -2.5223 -1.0468 -2.3561
  975MOL0     H31574  11.786   9.037  -0.181 -0.5372  2.1199 -0.3621
  975MOL0     H31575  11.803   8.871  -0.237 -1.5284  0.5424  2.2916
  975MOL0     H31576  12.012   8.862  -0.376 -1.5406 -1.8985 -1.5345
  975MOL0     H31577  12.251   9.003  -0.522  0.3235  2.1127 -0.6758
  975MOL0     H31578  12.162   8.868  -0.603  0.5064 -0.3020 -3.7073
  975MOL0     H31579  12.268   8.978  -0.770 -0.2803 -0.7425 -0.6978
  975MOL0     H31580  12.105   9.055  -0.782  1.1524 -0.9702 -2.0066
  975MOL0     H31581  12.372   9.184  -0.740 -0.1037  2.4382 -0.9955
  975MOL0     H31582  12.266   9.226  -0.601  1.8261 -1.3268  1.0886
  975MOL0     H31583  12.266   9.386  -0.769 -0.6806  0.5851  0.8611
  975MOL0     H31584  12.107   9.310  -0.750 -0.1440 -0.8942 -0.9599
  975MOL0     H31585  11.963   9.356  -0.883  3.4434  2.6579 -1.6066
  975MOL0     H31586  11.758   9.283  -0.992  1.5051  0.6376  2.8123
  975MOL0     H31587  11.436   9.042  -0.993 -1.5125 -2.2900  0.2607
  975MOL0     H31588  11.217   8.959  -1.079  0.3867  0.1587  0.7638
  975MOL0     H31589  11.016   9.017  -1.133 -0.5918  1.5280 -0.9306
  975MOL0     H31590  10.911   8.981  -1.266 -0.1271  2.9784 -1.5096
  975MOL0     H31591  11.099   8.801  -1.136  3.6725 -2.7348 -3.6364
  975MOL0     H31592  10.923   8.783  -1.184  0.6226 -1.2431  1.4698
  975MOL0     H31593  11.037   8.785  -1.428  0.6502  2.2690  0.5049
  975MOL0     H31594  11.190   8.769  -1.328  0.2901  0.0530  2.2683
  975MOL0     H31595  10.934   8.611  -1.351 -0.1498  1.6097 -1.9396
  975MOL0     H31596  11.060   8.560  -1.235 -0.1731  3.2802  0.8527
  975MOL0     H31597  11.225   8.577  -1.430  0.5528  0.0302 -1.2131
  975MOL0     H31598  11.109   8.598  -1.549  1.7649  0.6910  0.8367
  975MOL0     H31599  11.201   8.369  -1.532  1.9989 -2.7229  2.7959
  975MOL0     H31600  11.169   8.353  -1.371  1.3841  1.9770  1.6313
  975MOL0     H31601  10.925   8.346  -1.388  0.1607  0.7418 -0.4246
  975MOL0     H31602  10.976   8.245  -1.513  1.8754 -0.9160 -0.2618
  975MOL0     H31603  10.801   8.379  -1.611  0.3668 -1.0569 -0.7775
  975MOL0     H31604  10.884   8.531  -1.559  0.0275  0.7245 -2.2498
  975MOL0     H31605  11.313   9.088  -1.481  0.0132  2.6540  0.6276
  975MOL0     H31606  11.552   9.114  -1.390  0.6659 -3.9412 -1.3925
  975MOL0     H31607  12.000   9.021  -1.237 -2.2195  0.8686 -3.4537
  975MOL0     H31608  12.193   9.114  -1.145 -0.7957 -0.5758 -3.4556
  975MOL0     H31609  11.552   8.112  -0.322 -4.7632 -1.1711 -1.5102
  975MOL0     H31610  11.420   7.939  -0.173  1.2716 -1.6376  1.0336
  975MOL0     H31611  11.109   8.129   0.302 -0.0629 -1.1381 -3.2031
  975MOL0     H31612  11.024   8.036   0.520 -1.3741  0.1178 -0.7328
  975MOL0     H31613  10.941   7.930   0.694  1.7419  0.7532  2.6790
  975MOL0     H31614  10.979   7.791   0.785  0.6548  4.1565  2.0360
  975MOL0     H31615  10.970   7.684   0.514 -4.7211 -4.0930 -0.2375
  975MOL0     H31616  10.839   7.798   0.528  1.0018  0.9339 -0.8504
  975MOL0     H31617  10.772   7.700   0.748  1.4479  3.7325 -2.2462
  975MOL0     H31618  10.901   7.588   0.747 -1.6698 -1.3310  0.5493
  975MOL0     H31619  10.798   7.509   0.500 -1.9863 -0.0069 -0.8222
  975MOL0     H31620  10.732   7.447   0.643  1.8318 -0.9019  0.0496
  975MOL0     H31621  10.416   7.698   0.485 -0.1253 -0.8540 -0.2243
  975MOL0     H31622  11.293   7.695   0.479 -0.8662  0.7352  0.7842
  975MOL0     H31623  11.435   7.671   0.320  2.9949 -0.5264  0.4468
  975MOL0     H31624  11.367   7.728   0.155  2.0947 -0.2668 -0.4460
  975MOL0     H31625  11.496   7.820   0.242 -0.5989 -0.3594 -1.3466
  976MOL0     O31626   4.644   2.941   9.965  0.3194 -0.3309  0.0118
  976MOL0     C31627   4.629   2.862  10.057  0.4201 -0.0619  0.5874
  976MOL0     O31628   4.723   2.768  10.089 -0.0279  0.0219  0.5027
  976MOL0     C31629   4.841   2.773  10.019  0.3187 -0.2927 -0.7078
  976MOL0     C31630   4.954   2.797  10.103  0.2099  0.8653  0.0355
  976MOL0     C31631   5.088   2.792  10.053 -0.7170  0.3992  0.0985
  976MOL0     C31632   5.103   2.761   9.921 -0.8875 -0.5175  0.3524
  976MOL0     O31633   5.230   2.752   9.877 -0.2909  0.4073  0.7479
  976MOL0     C31634   5.299   2.879   9.860 -1.0614 -0.5325  0.0612
  976MOL0     C31635   5.441   2.830   9.821 -0.1835  1.2487  0.2941
  976MOL0     C31636   5.519   2.778   9.941 -0.4756  0.3270 -0.7295
  976MOL0     C31637   5.664   2.723   9.915  0.5780 -0.5792 -0.0461
  976MOL0     C31638   5.659   2.607   9.820  0.6002 -0.4129  0.4254
  976MOL0     C31639   5.798   2.545   9.811  0.7593  0.7031 -0.4669
  976MOL0     C31640   5.808   2.424   9.709  0.8820 -0.1673  0.1179
  976MOL0     C31641   5.937   2.422   9.620  0.1960 -0.6291 -0.0541
  976MOL0     N31642   5.944   2.552   9.547 -0.0190  0.2360 -0.0448
  976MOL0     C31643   5.862   2.601   9.445 -0.3656 -0.4920  0.0147
  976MOL0     C31644   5.932   2.708   9.399  0.2737 -0.8310  0.0163
  976MOL0     C31645   5.890   2.800   9.280  0.1746  0.1558 -0.1931
  976MOL0     C31646   5.898   2.951   9.317  0.3542 -0.9891 -0.2118
  976MOL0     C31647   5.796   2.990   9.431 -0.4826  0.7048 -0.5634
  976MOL0     C31648   5.804   3.131   9.481 -0.6363 -0.6455 -0.7011
  976MOL0     O31649   5.700   3.173   9.559 -0.1423  0.3466  0.1245
  976MOL0     C31650   5.695   3.147   9.693  0.5660  0.0383 -0.6868
  976MOL0     C31651   5.808   3.087   9.757 -0.3562  0.1663 -0.3571
  976MOL0     C31652   5.808   3.067   9.894 -0.2967 -0.4803  0.3737
  976MOL0     C31653   5.702   3.111   9.974  0.3169 -0.4742  0.1791
  976MOL0     C31654   5.700   3.070  10.117  0.5256 -0.0433 -0.3008
  976MOL0     O31655   5.578   3.091  10.183 -1.3385 -0.1525 -0.4484
  976MOL0     C31656   5.576   3.046  10.305  0.3280 -0.1890 -0.4015
  976MOL0     C31657   5.557   2.908  10.332  0.7601  0.0895 -0.3496
  976MOL0     C31658   5.540   2.873  10.472 -0.8626 -0.0531  0.1783
  976MOL0     C31659   5.571   2.968  10.576 -0.6192  0.6350  0.2470
  976MOL0     O31660   5.578   2.936  10.701  0.4175 -0.0738  0.3932
  976MOL0     C31661   5.606   2.798  10.738  0.5205  0.3673  0.2015
  976MOL0     C31662   5.629   2.799  10.888  0.9522  0.2888  1.6882
  976MOL0     C31663   5.757   2.859  10.915 -0.0523  0.4628 -0.2041
  976MOL0     C31664   5.791   2.825  11.060 -0.1456 -0.2572 -0.4202
  976MOL0     C31665   5.907   2.911  11.119 -0.2636 -0.4505 -0.1187
  976MOL0     C31666   5.918   2.888  11.272  0.4585 -0.2160  0.2643
  976MOL0     C31667   6.018   2.994  11.334 -0.3736 -0.2400 -0.5428
  976MOL0     C31668   6.162   2.985  11.291 -0.8807 -1.1330 -0.2078
  976MOL0    Cl31669   6.278   3.111  11.354 -0.6936 -0.2346 -0.5553
  976MOL0     C31670   5.570   3.107  10.542 -0.6607  1.0556  0.4678
  976MOL0     C31671   5.575   3.147  10.408  0.1687  0.0357  0.1301
  976MOL0     O31672   5.793   3.009  10.157 -0.4927  1.1073 -0.5577
  976MOL0     C31673   5.600   3.181   9.907 -0.0172 -0.1728  0.0402
  976MOL0     C31674   5.596   3.194   9.771  0.0882  0.2517  0.3473
  976MOL0     N31675   6.047   2.726   9.470 -0.8623  0.9335  0.2233
  976MOL0     N31676   6.053   2.634   9.561  0.3698 -0.0766 -0.2390
  976MOL0     C31677   4.997   2.741   9.835  0.5040 -0.6048 -0.8297
  976MOL0     C31678   4.866   2.750   9.884 -0.6880  0.3649  0.3099
  976MOL0     C31679   4.501   2.872  10.132  0.7593 -0.9380 -0.0599
  976MOL0     C31680   4.410   2.981  10.117  0.6340 -0.0285  0.5489
  976MOL0     C31681   4.289   2.980  10.191  0.2666  0.3747  0.1610
  976MOL0     C31682   4.256   2.892  10.292  0.1262 -0.8799  0.9763
  976MOL0     O31683   4.143   2.890  10.373 -0.0822  0.2760  0.2366
  976MOL0     C31684   4.017   2.922  10.303  0.9596 -0.3534  0.6353
  976MOL0     C31685   3.977   2.817  10.197 -0.0872  0.1555 -0.5690
  976MOL0     C31686   3.989   2.670  10.245 -0.4616  0.8557  0.2356
  976MOL0     C31687   3.933   2.571  10.140 -0.7354  0.6936  0.2373
  976MOL0     C31688   3.975   2.601  10.004  0.3796 -0.0368 -0.1088
  976MOL0     C31689   4.022   2.642   9.896 -0.3986  0.0532  1.1607
  976MOL0     C31690   4.353   2.791  10.311  0.7339  1.3848 -0.1230
  976MOL0     C31691   4.462   2.771  10.226 -0.0374 -0.4231 -0.0461
  976MOL0     C31692   4.545   2.646  10.251  0.2405  0.8271 -0.9359
  976MOL0     H31693   4.946   2.813  10.211  3.5724  0.8309  0.3899
  976MOL0     H31694   5.176   2.817  10.111 -1.5169  5.4572 -0.4049
  976MOL0     H31695   5.268   2.936   9.773 -1.5279  0.5443  0.9137
  976MOL0     H31696   5.300   2.931   9.957 -0.7941  0.8541 -0.6638
  976MOL0     H31697   5.500   2.916   9.787  0.4628  0.1677 -1.4405
  976MOL0     H31698   5.443   2.767   9.732  0.7220 -1.0381  1.8500
  976MOL0     H31699   5.469   2.694   9.990  0.5036  0.1897  0.0740
  976MOL0     H31700   5.519   2.863  10.011 -3.0587  1.4663 -1.9662
  976MOL0     H31701   5.730   2.799   9.873  1.0345 -1.4179 -0.9027
  976MOL0     H31702   5.715   2.689  10.006  2.2327  2.4836  0.3116
  976MOL0     H31703   5.573   2.540   9.833  0.2845  0.2245  1.7097
  976MOL0     H31704   5.645   2.642   9.717  2.2309 -1.0544 -0.0450
  976MOL0     H31705   5.868   2.628   9.797  1.1223  0.7880  1.5387
  976MOL0     H31706   5.821   2.491   9.903 -4.0846  1.5618  1.5497
  976MOL0     H31707   5.720   2.428   9.644  0.2186 -2.1411  0.8243
  976MOL0     H31708   5.797   2.327   9.758 -3.0250  0.7095  1.3489
  976MOL0     H31709   6.034   2.411   9.669  0.3031  0.3163 -0.0406
  976MOL0     H31710   5.923   2.341   9.547  0.9065  1.0773 -2.2018
  976MOL0     H31711   5.782   2.561   9.383  0.9934 -1.5228 -1.1315
  976MOL0     H31712   5.957   2.786   9.194  1.1183  4.5721 -0.3924
  976MOL0     H31713   5.789   2.779   9.246  0.3257  3.3561 -3.1791
  976MOL0     H31714   5.996   2.971   9.361  0.3151  0.4877 -0.7553
  976MOL0     H31715   5.877   3.015   9.231  2.5307 -0.4712 -0.4228
  976MOL0     H31716   5.817   2.923   9.516 -0.8514  1.2284 -0.0456
  976MOL0     H31717   5.697   2.962   9.395  0.1317 -1.5351 -0.6353
  976MOL0     H31718   5.788   3.196   9.394 -0.8228 -1.2239 -1.1121
  976MOL0     H31719   5.905   3.149   9.519 -0.6876 -2.9441  0.7139
  976MOL0     H31720   5.887   3.039   9.699 -0.7936 -0.7314 -0.2282
  976MOL0     H31721   5.889   3.000   9.919  0.4248  0.0841 -0.4138
  976MOL0     H31722   5.536   2.837  10.253 -1.8851  3.7067 -3.2368
  976MOL0     H31723   5.520   2.769  10.494  0.3007 -1.3322 -3.9479
  976MOL0     H31724   5.515   2.743  10.714 -1.1329  1.8330  2.7153
  976MOL0     H31725   5.683   2.748  10.678  0.1660  1.8198 -1.5250
  976MOL0     H31726   5.549   2.849  10.943 -2.4039 -1.2885 -1.2736
  976MOL0     H31727   5.631   2.691  10.902 -3.9427 -1.1200 -4.1529
  976MOL0     H31728   5.828   2.813  10.846 -1.7555 -0.0807 -1.6757
  976MOL0     H31729   5.755   2.967  10.897  0.2671  0.0871 -3.0040
  976MOL0     H31730   5.820   2.720  11.072  2.2001  0.3913  0.0915
  976MOL0     H31731   5.701   2.841  11.120 -0.8974 -1.5709 -1.1540
  976MOL0     H31732   5.885   3.018  11.109 -0.4770 -0.5756 -1.0414
  976MOL0     H31733   5.999   2.887  11.065 -0.5357 -0.8906 -0.3969
  976MOL0     H31734   5.818   2.897  11.314  1.1608 -1.7999  2.4254
  976MOL0     H31735   5.962   2.790  11.293 -1.6175 -1.6310 -1.5957
  976MOL0     H31736   6.005   2.998  11.442 -0.3429  0.5342 -0.5638
  976MOL0     H31737   5.972   3.091  11.314 -3.2560 -0.7512  2.6350
  976MOL0     H31738   6.203   2.888  11.318 -1.2407 -1.0303  0.7456
  976MOL0     H31739   6.166   2.999  11.182 -0.5130 -0.5899 -0.1300
  976MOL0     H31740   5.582   3.179  10.623 -3.8112  1.9325  0.3174
  976MOL0     H31741   5.579   3.254  10.391  0.1200  0.1721  0.9331
  976MOL0     H31742   5.522   3.231   9.964 -0.4239  1.7666 -2.0966
  976MOL0     H31743   5.516   3.238   9.713  0.3096 -1.2564 -1.2050
  976MOL0     H31744   5.010   2.741   9.727 -3.2201 -1.1442 -1.4335
  976MOL0     H31745   4.779   2.738   9.821 -0.1269 -1.0860 -0.2382
  976MOL0     H31746   4.409   3.055  10.038 -2.6743 -0.6503 -0.1028
  976MOL0     H31747   4.221   3.062  10.170 -1.0054 -0.6681  0.1137
  976MOL0     H31748   4.015   3.013  10.242  2.3632 -1.2889 -0.8855
  976MOL0     H31749   3.950   2.947  10.386  1.2767 -0.2412  0.8611
  976MOL0     H31750   4.047   2.831  10.114  0.6130 -1.6059 -0.3178
  976MOL0     H31751   3.877   2.825  10.153  0.9381 -2.6698 -3.8484
  976MOL0     H31752   3.937   2.660  10.341  0.6461  0.8794  0.8609
  976MOL0     H31753   4.093   2.638  10.259 -0.8122 -0.0704  0.8429
  976MOL0     H31754   3.967   2.468  10.152  0.0459  0.6886 -1.6496
  976MOL0     H31755   3.824   2.570  10.148 -0.6994  2.8643  2.0420
  976MOL0     H31756   4.060   2.651   9.796  2.7047 -2.3913  1.9628
  976MOL0     H31757   4.338   2.719  10.391 -3.2949  1.1549 -0.9144
  976MOL0     H31758   4.498   2.578  10.323  0.8686  3.1418  1.8701
  976MOL0     H31759   4.567   2.594  10.157 -1.1193 -2.6934  0.5072
  976MOL0     H31760   4.640   2.670  10.300  0.3498  0.9444 -1.2056
  977MOL0     O31761   2.449   6.273   3.159  0.0188  0.2971  0.4497
  977MOL0     C31762   2.489   6.365   3.232  0.5368  0.0501  0.9371
  977MOL0     O31763   2.481   6.369   3.373  0.5652 -0.0438  0.0319
  977MOL0     C31764   2.421   6.260   3.438  0.0963 -0.1038 -0.3982
  977MOL0     C31765   2.278   6.235   3.438  0.0710 -1.0340  0.8165
  977MOL0     C31766   2.230   6.127   3.509 -0.3809  0.2574  0.1457
  977MOL0     C31767   2.317   6.034   3.579  0.9317 -0.1123 -0.0384
  977MOL0     O31768   2.273   5.926   3.651 -0.4444 -0.5335  0.3523
  977MOL0     C31769   2.137   5.889   3.637 -0.1502 -0.1416 -0.6269
  977MOL0     C31770   2.122   5.773   3.734  0.4224  0.3982  0.0882
  977MOL0     C31771   2.099   5.822   3.873  0.9553  0.3622 -0.6513
  977MOL0     C31772   2.156   5.730   3.971 -0.1604 -0.3540 -0.6462
  977MOL0     C31773   2.137   5.773   4.110 -0.7308 -0.5618  0.8350
  977MOL0     C31774   2.159   5.669   4.225 -0.6483 -0.0943 -0.6438
  977MOL0     C31775   2.293   5.601   4.218 -1.0071 -0.4281  1.0791
  977MOL0     C31776   2.316   5.498   4.339  1.1983  0.1134 -0.4436
  977MOL0     N31777   2.458   5.471   4.356  0.2758 -0.2929  0.2160
  977MOL0     C31778   2.533   5.365   4.318  0.4347  0.8117 -0.1056
  977MOL0     C31779   2.660   5.406   4.354  0.3071  0.1897  0.2376
  977MOL0     C31780   2.781   5.318   4.350 -0.7404 -0.3692  0.5627
  977MOL0     C31781   2.894   5.374   4.259  0.2362  0.6704 -0.4299
  977MOL0     C31782   3.008   5.265   4.247 -0.2073  0.1091  0.4858
  977MOL0     C31783   3.122   5.329   4.168 -0.0384  0.9595 -0.1558
  977MOL0     O31784   3.175   5.443   4.242 -0.5751  0.5213 -0.1114
  977MOL0     C31785   3.243   5.530   4.159  0.0252 -0.7696 -0.3916
  977MOL0     C31786   3.165   5.641   4.140 -0.8120 -0.9276 -0.3507
  977MOL0     C31787   3.218   5.749   4.061  0.8814  1.5064 -0.0955
  977MOL0     C31788   3.337   5.736   3.993 -0.9303  0.0454  0.4551
  977MOL0     C31789   3.382   5.837   3.896  1.0285  0.3638 -0.3961
  977MOL0     O31790   3.337   5.954   3.915 -0.7576 -0.1863 -0.6327
  977MOL0     C31791   3.377   6.058   3.825 -0.3453 -0.0360 -0.1024
  977MOL0     C31792   3.484   6.134   3.860  0.1632 -0.6433 -0.4250
  977MOL0     C31793   3.518   6.254   3.786  0.0547  0.1767  0.1238
  977MOL0     C31794   3.431   6.287   3.675 -0.4485  0.2396 -1.1432
  977MOL0     O31795   3.446   6.395   3.599 -0.2681  0.0813 -0.1587
  977MOL0     C31796   3.425   6.522   3.668 -0.3714  0.3073 -0.1257
  977MOL0     C31797   3.510   6.630   3.603  0.3127 -0.5625  0.2106
  977MOL0     C31798   3.661   6.599   3.593  1.3401 -1.5185 -0.2024
  977MOL0     C31799   3.730   6.676   3.477 -0.3511  0.1597 -0.2271
  977MOL0     C31800   3.708   6.606   3.335 -0.2859 -0.7216 -0.4351
  977MOL0     C31801   3.765   6.697   3.223 -0.3285  0.7697 -0.2876
  977MOL0     C31802   3.921   6.676   3.204 -1.4989  0.2026  0.2338
  977MOL0     C31803   3.982   6.766   3.086 -0.3196  0.7829  0.2192
  977MOL0    Cl31804   4.005   6.934   3.123 -0.3298 -0.2617  0.1881
  977MOL0     C31805   3.315   6.214   3.656  0.0301  1.0984  0.4637
  977MOL0     C31806   3.290   6.098   3.723  0.1463 -0.0461 -0.4499
  977MOL0     O31807   3.442   5.801   3.799 -0.3763 -0.3403 -0.3659
  977MOL0     C31808   3.409   5.618   4.013 -0.7715 -0.0434  0.2680
  977MOL0     C31809   3.365   5.513   4.089  0.2311  0.1610 -0.8468
  977MOL0     N31810   2.668   5.540   4.394  0.5371 -0.1255 -0.2070
  977MOL0     N31811   2.543   5.567   4.392 -0.1140 -0.4831  0.5786
  977MOL0     C31812   2.456   6.064   3.571 -0.0808  1.1653 -0.4461
  977MOL0     C31813   2.507   6.179   3.511  0.2634  0.2165 -0.0576
  977MOL0     C31814   2.559   6.482   3.176  0.1990 -0.4035 -0.5115
  977MOL0     C31815   2.617   6.580   3.264  0.1594  0.2961 -0.7769
  977MOL0     C31816   2.680   6.690   3.212 -0.3347  0.0910  0.0826
  977MOL0     C31817   2.711   6.699   3.078  0.4624 -0.2708  0.1720
  977MOL0     O31818   2.798   6.805   3.044  0.3438 -0.8351  0.2451
  977MOL0     C31819   2.814   6.824   2.901 -0.0480  0.6442 -0.2302
  977MOL0     C31820   2.923   6.926   2.884  0.7122  0.6177  0.2006
  977MOL0     C31821   2.931   7.010   2.747  0.7967  0.2343  0.9843
  977MOL0     C31822   2.978   6.913   2.640  0.1305  0.5778 -1.0283
  977MOL0     C31823   3.040   6.986   2.529  0.5331 -0.4352 -0.3174
  977MOL0     C31824   3.080   7.037   2.434 -0.1752 -1.2772 -0.2629
  977MOL0     C31825   2.663   6.600   2.989  0.8927  0.1746 -0.6831
  977MOL0     C31826   2.577   6.499   3.040  0.1073 -0.4997  0.9976
  977MOL0     C31827   2.518   6.417   2.931  0.3593  1.4662  0.1577
  977MOL0     H31828   2.213   6.283   3.366  0.2806 -0.5469  0.9498
  977MOL0     H31829   2.123   6.116   3.506 -0.2559 -1.9095  1.4604
  977MOL0     H31830   2.082   5.970   3.685  0.9570 -1.1835  2.7103
  977MOL0     H31831   2.107   5.867   3.534 -0.6537 -0.0182 -0.5097
  977MOL0     H31832   2.195   5.693   3.725 -1.1227 -1.3561  2.1543
  977MOL0     H31833   2.035   5.718   3.698  2.6835 -3.0266 -0.5541
  977MOL0     H31834   1.991   5.836   3.888  0.3871 -1.1570 -2.8623
  977MOL0     H31835   2.157   5.914   3.883  1.6064 -0.1237  0.1873
  977MOL0     H31836   2.104   5.635   3.957 -0.7960  0.2834 -3.1861
  977MOL0     H31837   2.264   5.720   3.959  0.7155  0.8006  4.3472
  977MOL0     H31838   2.208   5.856   4.120 -2.7924  1.5439 -0.8551
  977MOL0     H31839   2.040   5.819   4.131  0.0596  1.5961  0.0453
  977MOL0     H31840   2.157   5.731   4.315  0.3841 -0.4231 -0.3832
  977MOL0     H31841   2.077   5.597   4.238  2.4381 -3.7854  0.0938
  977MOL0     H31842   2.376   5.673   4.220  1.5976 -3.1911  0.8432
  977MOL0     H31843   2.306   5.549   4.122 -3.4662 -2.7316  1.8800
  977MOL0     H31844   2.285   5.545   4.433  0.9987 -0.8269 -0.0277
  977MOL0     H31845   2.260   5.404   4.330  1.3016 -0.1981  1.5769
  977MOL0     H31846   2.507   5.262   4.297 -0.5941  1.2989 -1.3359
  977MOL0     H31847   2.813   5.319   4.454 -0.2095 -1.9579  0.4397
  977MOL0     H31848   2.747   5.219   4.318 -0.7835  0.1497 -1.1233
  977MOL0     H31849   2.855   5.383   4.157 -1.2479  1.8324  0.2043
  977MOL0     H31850   2.924   5.473   4.295  0.4674  0.7439 -0.8184
  977MOL0     H31851   2.962   5.177   4.202 -3.0069  1.7080  0.0177
  977MOL0     H31852   3.047   5.226   4.342  0.0383 -1.4663 -0.2217
  977MOL0     H31853   3.077   5.363   4.074  1.9151  0.7786 -1.2037
  977MOL0     H31854   3.194   5.252   4.142 -0.4767 -0.3698  2.2950
  977MOL0     H31855   3.077   5.663   4.201 -1.2116  3.9353 -2.1842
  977MOL0     H31856   3.163   5.843   4.061 -1.9687 -0.0387  0.7059
  977MOL0     H31857   3.544   6.103   3.946 -0.5701 -3.2262 -0.7678
  977MOL0     H31858   3.615   6.302   3.786  0.9085 -1.1418 -3.7807
  977MOL0     H31859   3.317   6.538   3.658 -0.8926 -2.5176  0.0359
  977MOL0     H31860   3.463   6.508   3.770  2.6402  2.9342 -0.7282
  977MOL0     H31861   3.481   6.641   3.498 -0.5981 -0.5300  0.4546
  977MOL0     H31862   3.491   6.721   3.661  0.6042 -0.9258  0.8818
  977MOL0     H31863   3.705   6.613   3.692 -2.4166 -0.1001  1.4640
  977MOL0     H31864   3.680   6.493   3.575 -1.0362 -2.2338  1.0373
  977MOL0     H31865   3.838   6.684   3.490 -0.2875  1.3309 -1.2677
  977MOL0     H31866   3.679   6.771   3.459 -2.4668 -1.3749 -3.1717
  977MOL0     H31867   3.604   6.578   3.316 -0.5637 -0.8360  1.0954
  977MOL0     H31868   3.769   6.515   3.332  1.1104 -0.1065  3.4055
  977MOL0     H31869   3.707   6.677   3.133 -1.6124  1.9032  0.2456
  977MOL0     H31870   3.755   6.803   3.250 -1.3745  1.2560 -2.3999
  977MOL0     H31871   3.931   6.571   3.176 -2.1220  0.7794 -2.4180
  977MOL0     H31872   3.977   6.704   3.294  0.0557 -1.4029 -0.1820
  977MOL0     H31873   4.085   6.729   3.080 -0.3723  0.3981  1.4623
  977MOL0     H31874   3.944   6.751   2.985  4.0697  2.6311 -1.9788
  977MOL0     H31875   3.240   6.257   3.590 -1.1341 -0.7958  0.4958
  977MOL0     H31876   3.201   6.039   3.704 -1.4611  2.0535  0.2249
  977MOL0     H31877   3.498   5.600   3.954 -2.0885  2.5843 -2.7475
  977MOL0     H31878   3.406   5.419   4.126 -1.1177  0.7302  2.4039
  977MOL0     H31879   2.526   6.002   3.625  1.2928  1.7335 -1.5019
  977MOL0     H31880   2.612   6.203   3.521 -0.0978  1.3169  1.3598
  977MOL0     H31881   2.612   6.579   3.372 -1.7508  2.1759 -0.8033
  977MOL0     H31882   2.717   6.759   3.287  4.3435  0.0396 -1.8007
  977MOL0     H31883   2.728   6.874   2.855 -1.1088 -1.3613 -0.5545
  977MOL0     H31884   2.845   6.732   2.850 -0.2643  0.2145  0.3975
  977MOL0     H31885   3.017   6.871   2.893 -0.7903 -2.1282  0.0646
  977MOL0     H31886   2.910   7.005   2.959  0.0566 -1.0770  1.9486
  977MOL0     H31887   2.987   7.103   2.751  0.4483  0.4397  1.1329
  977MOL0     H31888   2.825   7.026   2.727  1.2254 -0.2739 -2.0454
  977MOL0     H31889   3.049   6.839   2.680 -4.0347 -1.8872  2.8842
  977MOL0     H31890   2.892   6.860   2.598 -1.3274  1.9836  0.0151
  977MOL0     H31891   3.105   7.081   2.339 -2.9870  0.0139 -0.5184
  977MOL0     H31892   2.687   6.604   2.883  1.1797 -1.8429 -0.7340
  977MOL0     H31893   2.551   6.447   2.831 -0.0564  2.3628  0.2880
  977MOL0     H31894   2.541   6.310   2.943  0.8056  1.3042 -1.7568
  977MOL0     H31895   2.409   6.409   2.936  0.2870  2.3089 -0.0549
  978MOL0     O31896   9.518   7.674  10.930  0.5693  0.5115  0.4107
  978MOL0     C31897   9.558   7.623  11.033 -1.1531  0.0291 -0.1898
  978MOL0     O31898   9.669   7.667  11.086  0.2027 -0.2753  0.5996
  978MOL0     C31899   9.787   7.652  11.017  0.1693 -0.4911 -0.0061
  978MOL0     C31900   9.895   7.732  11.056  0.1506  0.9926 -0.5740
  978MOL0     C31901  10.018   7.709  10.993  0.5786 -0.3069  0.4773
  978MOL0     C31902  10.031   7.612  10.896  1.0246  0.5399 -0.6939
  978MOL0     O31903  10.139   7.586  10.818 -0.0610  0.5624 -0.1375
  978MOL0     C31904  10.256   7.664  10.840 -0.1606 -0.4106 -1.0558
  978MOL0     C31905  10.369   7.578  10.791  0.0613  0.2136  0.2486
  978MOL0     C31906  10.359   7.533  10.637  0.4039 -0.8566  0.1318
  978MOL0     C31907  10.487   7.517  10.555  0.6348  0.1988  0.3496
  978MOL0     C31908  10.448   7.476  10.402  0.6855 -0.1101 -0.1779
  978MOL0     C31909  10.400   7.585  10.306 -0.7140  0.1436 -0.5265
  978MOL0     C31910  10.499   7.700  10.274 -0.1110  0.6809  1.3264
  978MOL0     C31911  10.634   7.652  10.221  0.5044 -0.1849  0.3914
  978MOL0     N31912  10.631   7.600  10.078 -0.1254 -0.0201 -0.8632
  978MOL0     C31913  10.615   7.469  10.054  0.4103  0.5053  0.4502
  978MOL0     C31914  10.587   7.462   9.921 -0.1486  0.3321 -0.2146
  978MOL0     C31915  10.539   7.343   9.835 -0.0772 -1.6831 -0.3013
  978MOL0     C31916  10.625   7.306   9.719 -0.9499 -1.3798  1.4450
  978MOL0     C31917  10.637   7.156   9.710  0.1374  0.5194  0.3942
  978MOL0     C31918  10.713   7.094   9.835 -0.4423  1.0810 -0.3820
  978MOL0     O31919  10.782   6.962   9.816  0.9940  0.5604 -0.6288
  978MOL0     C31920  10.857   6.951   9.704 -0.2120  0.6304 -0.8750
  978MOL0     C31921  10.953   7.047   9.676 -0.3569  1.1179  0.1676
  978MOL0     C31922  11.029   7.031   9.566 -0.1304 -0.2610 -0.6116
  978MOL0     C31923  11.011   6.926   9.476 -0.2056 -0.2368 -0.1430
  978MOL0     C31924  11.089   6.929   9.350  0.7830 -0.6193 -0.8414
  978MOL0     O31925  11.171   7.035   9.316 -0.5561  0.1581 -0.0006
  978MOL0     C31926  11.270   7.030   9.217  0.0175  0.9623  0.1659
  978MOL0     C31927  11.310   6.911   9.146 -0.3050  0.4565  0.3046
  978MOL0     C31928  11.413   6.919   9.051  0.0214  0.2465 -0.5566
  978MOL0     C31929  11.481   7.035   9.030 -0.9160  0.4490 -0.9017
  978MOL0     O31930  11.590   7.023   8.942  0.6486 -0.0115 -0.7308
  978MOL0     C31931  11.672   7.149   8.919  0.6759 -0.5888  1.2827
  978MOL0     C31932  11.767   7.096   8.810 -0.3517  0.6070  0.4404
  978MOL0     C31933  11.896   7.172   8.819  0.0441  0.2742 -0.5261
  978MOL0     C31934  11.885   7.297   8.727 -0.8500  0.5570 -0.0348
  978MOL0     C31935  11.841   7.280   8.584 -0.6973  0.2440  0.1830
  978MOL0     C31936  11.926   7.191   8.504 -0.4424  0.3338  0.6953
  978MOL0     C31937  11.922   7.238   8.359 -0.7618  0.2305  0.2282
  978MOL0     C31938  12.025   7.348   8.329  0.9037  0.6433 -0.2390
  978MOL0    Cl31939  12.187   7.289   8.355 -0.4590  0.4714  0.0096
  978MOL0     C31940  11.440   7.155   9.094  1.0459  0.1506 -0.4752
  978MOL0     C31941  11.322   7.153   9.176 -0.7902  1.1094  0.7474
  978MOL0     O31942  11.050   6.850   9.267  0.4021 -0.7641 -0.7386
  978MOL0     C31943  10.923   6.817   9.504 -0.1422  0.5029  0.1543
  978MOL0     C31944  10.843   6.836   9.617  0.3089 -0.7512  0.7547
  978MOL0     N31945  10.593   7.591   9.869  0.3853 -0.4747 -0.0373
  978MOL0     N31946  10.619   7.673   9.967 -0.1085 -1.3133 -0.4491
  978MOL0     C31947   9.925   7.540  10.858  0.2316 -0.0144 -0.7739
  978MOL0     C31948   9.805   7.549  10.918 -0.8165 -0.1680 -0.7059
  978MOL0     C31949   9.455   7.557  11.123  0.6183 -0.1127 -0.2045
  978MOL0     C31950   9.489   7.564  11.265  0.1013 -1.0934 -0.1737
  978MOL0     C31951   9.390   7.536  11.353 -0.1959  0.4293  0.0692
  978MOL0     C31952   9.265   7.488  11.314  0.3448 -0.3092 -0.5711
  978MOL0     O31953   9.167   7.461  11.406 -0.4743  0.6582 -0.3359
  978MOL0     C31954   9.184   7.488  11.544  0.5830  0.7412 -0.4366
  978MOL0     C31955   9.041   7.453  11.607 -0.2219  0.6276 -0.1998
  978MOL0     C31956   8.962   7.585  11.633 -0.4270 -0.3647 -0.0987
  978MOL0     C31957   8.806   7.549  11.627  0.7734  0.1494 -0.7435
  978MOL0     C31958   8.783   7.427  11.716 -0.3364  0.0987  1.0819
  978MOL0     C31959   8.755   7.324  11.773  0.0857 -0.9713 -0.1476
  978MOL0     C31960   9.224   7.485  11.182  0.0324  0.3647  0.1520
  978MOL0     C31961   9.323   7.516  11.084  0.4089  0.2625 -1.0225
  978MOL0     C31962   9.267   7.525  10.948  0.8740 -0.2970 -0.4506
  978MOL0     H31963   9.886   7.812  11.128 -4.5578 -0.3817  0.7110
  978MOL0     H31964  10.086   7.791  11.015 -0.2166 -0.1969  2.8352
  978MOL0     H31965  10.244   7.766  10.802 -0.3399 -0.6079 -1.5381
  978MOL0     H31966  10.266   7.691  10.946 -1.3617 -0.9148 -0.7923
  978MOL0     H31967  10.394   7.498  10.861  1.4971  0.7606  0.3995
  978MOL0     H31968  10.457   7.642  10.784 -0.6654  1.0458 -4.5956
  978MOL0     H31969  10.288   7.595  10.582 -1.1172  0.9089  3.7812
  978MOL0     H31970  10.301   7.440  10.632 -1.3884  0.1315  1.4315
  978MOL0     H31971  10.538   7.614  10.563  0.4266  0.2042  1.8187
  978MOL0     H31972  10.555   7.441  10.593  0.4870 -1.0435 -1.6893
  978MOL0     H31973  10.539   7.429  10.365  2.2769  3.0304 -0.5653
  978MOL0     H31974  10.363   7.407  10.399  0.8203 -0.3111  0.4045
  978MOL0     H31975  10.370   7.530  10.216 -2.2369  1.1646 -0.6821
  978MOL0     H31976  10.302   7.619  10.340 -1.1959 -0.4642 -1.2580
  978MOL0     H31977  10.527   7.753  10.365  0.1768  1.1829  0.9534
  978MOL0     H31978  10.469   7.777  10.202 -1.9781 -0.5025  0.7556
  978MOL0     H31979  10.712   7.729  10.219  0.6227 -0.3133 -0.2485
  978MOL0     H31980  10.679   7.575  10.285 -0.3067 -0.9467  0.0672
  978MOL0     H31981  10.599   7.391  10.127 -0.3297  0.1299 -0.1025
  978MOL0     H31982  10.524   7.256   9.901 -3.6577 -0.8260  0.2467
  978MOL0     H31983  10.443   7.371   9.791 -0.1498 -1.8662 -0.2600
  978MOL0     H31984  10.586   7.343   9.624 -2.7393  1.3830  3.1320
  978MOL0     H31985  10.724   7.354   9.723 -0.8143 -1.7130  2.4044
  978MOL0     H31986  10.686   7.122   9.619 -0.0256 -0.9246  0.8075
  978MOL0     H31987  10.542   7.106   9.689 -0.5427  3.5210 -5.7684
  978MOL0     H31988  10.641   7.071   9.914  2.8519 -1.1854  2.3058
  978MOL0     H31989  10.780   7.170   9.877 -0.9614  1.3628 -0.0656
  978MOL0     H31990  10.968   7.142   9.726  0.2063  0.5877  1.0314
  978MOL0     H31991  11.099   7.111   9.544 -1.3145  1.2118  0.8016
  978MOL0     H31992  11.263   6.816   9.169  0.7589 -0.7309 -2.0955
  978MOL0     H31993  11.450   6.845   8.980  1.6038  1.4257 -1.0035
  978MOL0     H31994  11.615   7.232   8.877  1.5208 -0.9971 -0.8137
  978MOL0     H31995  11.722   7.170   9.013  2.9008 -4.2605  1.1155
  978MOL0     H31996  11.785   6.990   8.831 -2.0367 -0.5559 -3.1025
  978MOL0     H31997  11.717   7.097   8.712 -0.7185  1.6171  0.6295
  978MOL0     H31998  11.928   7.200   8.920 -1.9231  4.0198 -0.7635
  978MOL0     H31999  11.972   7.105   8.777 -0.6603 -0.3751 -0.7823
  978MOL0     H32000  11.985   7.341   8.729 -1.1107  1.1758 -0.1370
  978MOL0     H32001  11.819   7.368   8.778 -1.6878  1.5687 -2.3972
  978MOL0     H32002  11.847   7.381   8.542  3.1631  0.8908  1.8658
  978MOL0     H32003  11.736   7.254   8.569 -0.1323 -0.9281 -2.1578
  978MOL0     H32004  12.028   7.192   8.544  0.7106 -2.1412 -1.8408
  978MOL0     H32005  11.882   7.092   8.517  0.1567 -0.0082  0.1650
  978MOL0     H32006  11.825   7.275   8.326  0.5688  0.3279 -4.0833
  978MOL0     H32007  11.934   7.156   8.287 -0.0422  2.1339 -1.9163
  978MOL0     H32008  12.004   7.374   8.225 -0.5530 -2.6433 -0.8914
  978MOL0     H32009  12.001   7.433   8.393 -0.0607 -0.1220  0.4545
  978MOL0     H32010  11.476   7.254   9.069  2.6768 -0.5370 -0.9829
  978MOL0     H32011  11.279   7.240   9.223 -1.3831  0.4932  1.3696
  978MOL0     H32012  10.914   6.726   9.446  0.2466 -1.6707  3.2355
  978MOL0     H32013  10.755   6.783   9.654 -1.7173  1.6329 -0.3261
  978MOL0     H32014   9.918   7.458  10.786 -0.0925 -0.0207 -0.7389
  978MOL0     H32015   9.723   7.490  10.878 -0.4903  0.6709 -2.7625
  978MOL0     H32016   9.579   7.616  11.297 -1.4890  1.3330  0.6656
  978MOL0     H32017   9.409   7.570  11.455  4.4559 -1.0949 -0.0586
  978MOL0     H32018   9.222   7.590  11.557 -0.7050  1.1908 -0.0042
  978MOL0     H32019   9.258   7.416  11.579  0.1289  0.0021 -0.9759
  978MOL0     H32020   9.060   7.400  11.701 -2.4310  1.1676  0.6072
  978MOL0     H32021   8.992   7.382  11.540  2.3980  1.4142 -3.1621
  978MOL0     H32022   8.983   7.659  11.555  1.9474 -2.3572 -1.4863
  978MOL0     H32023   8.988   7.633  11.728  0.6032  2.8977 -1.8791
  978MOL0     H32024   8.747   7.630  11.673 -0.8501 -1.4945  0.2310
  978MOL0     H32025   8.781   7.520  11.525  1.6259 -4.2967  0.1275
  978MOL0     H32026   8.721   7.231  11.816  0.5044 -0.9876  0.1558
  978MOL0     H32027   9.119   7.463  11.167  0.1105 -0.5811  0.8604
  978MOL0     H32028   9.159   7.507  10.950  0.8761 -0.2811  0.5372
  978MOL0     H32029   9.271   7.630  10.921 -3.3049  0.7072  1.9479
  978MOL0     H32030   9.313   7.468  10.867  1.4314 -1.4892  0.6556
  979MOL0     O32031  11.296   8.527   8.026 -0.1997 -0.3207  0.4682
  979MOL0     C32032  11.306   8.630   8.081 -0.0406  0.1238  0.1459
  979MOL0     O32033  11.390   8.726   8.047  0.3983 -0.2953  0.0308
  979MOL0     C32034  11.505   8.698   7.976  0.2267  0.3710 -0.1853
  979MOL0     C32035  11.552   8.802   7.896 -0.0423 -0.3259  0.2476
  979MOL0     C32036  11.655   8.776   7.799 -0.3367 -0.1397 -0.9417
  979MOL0     C32037  11.724   8.653   7.783  0.0554  0.3032 -0.3391
  979MOL0     O32038  11.829   8.623   7.705  0.5008  0.4799 -0.4376
  979MOL0     C32039  11.879   8.724   7.610  1.1286 -0.8674  0.3766
  979MOL0     C32040  11.980   8.661   7.510  0.8900 -0.6272 -0.8258
  979MOL0     C32041  11.989   8.755   7.386 -0.2629 -1.0121  0.4491
  979MOL0     C32042  12.024   8.691   7.264 -0.1736 -0.8146  0.3758
  979MOL0     C32043  12.060   8.785   7.145 -0.2243  0.5179  0.6442
  979MOL0     C32044  11.939   8.856   7.082  0.6902 -0.1430 -0.0497
  979MOL0     C32045  11.959   8.922   6.944 -0.5122 -0.0751 -0.1781
  979MOL0     C32046  11.847   9.013   6.894 -0.5302  0.5506  0.4224
  979MOL0     N32047  11.708   8.988   6.924  0.3562  0.5396 -0.2848
  979MOL0     C32048  11.647   8.865   6.942  0.4977  0.6891  0.0554
  979MOL0     C32049  11.516   8.892   6.961 -0.1045  0.4625  0.1708
  979MOL0     C32050  11.403   8.788   6.975 -1.0497  0.2357  0.4881
  979MOL0     C32051  11.260   8.835   6.942 -0.4443  0.3207  0.4211
  979MOL0     C32052  11.228   8.889   6.799  0.2648  0.8952 -0.0933
  979MOL0     C32053  11.285   8.798   6.691  0.9710  0.5372  1.6656
  979MOL0     O32054  11.250   8.842   6.555  0.2216 -0.3768 -1.5353
  979MOL0     C32055  11.286   8.764   6.453 -0.5416  0.3174  1.1873
  979MOL0     C32056  11.325   8.624   6.456 -0.0490 -1.7476  0.3397
  979MOL0     C32057  11.346   8.552   6.344  0.5176 -0.0625  0.8688
  979MOL0     C32058  11.344   8.614   6.214  0.2164  0.3500  0.1418
  979MOL0     C32059  11.369   8.554   6.084  0.1815 -0.4111 -0.3462
  979MOL0     O32060  11.446   8.622   5.997 -0.3806 -0.2515 -0.4218
  979MOL0     C32061  11.496   8.561   5.879 -0.5384  0.3434 -0.0826
  979MOL0     C32062  11.578   8.447   5.873 -1.0462  0.0464 -0.1063
  979MOL0     C32063  11.651   8.407   5.759  0.0298 -0.1542 -0.0243
  979MOL0     C32064  11.641   8.480   5.645  0.5682  0.1024 -0.0408
  979MOL0     O32065  11.733   8.455   5.553 -0.6417 -0.0006 -0.1577
  979MOL0     C32066  11.714   8.497   5.416 -0.2671 -0.1187 -0.0663
  979MOL0     C32067  11.591   8.418   5.360 -0.1193 -0.6689 -0.5756
  979MOL0     C32068  11.578   8.433   5.203  0.0136 -0.4376  0.4253
  979MOL0     C32069  11.568   8.583   5.160  0.0665  0.5087 -0.0104
  979MOL0     C32070  11.574   8.589   5.009  0.1042  0.0328  0.7515
  979MOL0     C32071  11.476   8.701   4.966 -0.4702 -0.1513  0.1917
  979MOL0     C32072  11.486   8.740   4.815 -0.7997 -0.2237 -0.2021
  979MOL0     C32073  11.356   8.786   4.764 -0.1933  0.2959 -0.1459
  979MOL0    Cl32074  11.372   8.796   4.582  0.5850  0.2187  0.1896
  979MOL0     C32075  11.545   8.580   5.641 -0.1056 -0.5583  0.3784
  979MOL0     C32076  11.472   8.619   5.755 -0.7073  0.5220  0.7353
  979MOL0     O32077  11.324   8.441   6.060 -0.1736  0.1201  0.1955
  979MOL0     C32078  11.327   8.757   6.217  0.3685 -0.0427  0.0026
  979MOL0     C32079  11.286   8.825   6.328  0.6050  0.2764  1.1501
  979MOL0     N32080  11.503   9.028   6.972 -0.6915  0.3116 -0.6013
  979MOL0     N32081  11.617   9.082   6.945 -0.8472 -0.7312  0.1170
  979MOL0     C32082  11.678   8.553   7.873 -0.2922 -1.1473  1.2477
  979MOL0     C32083  11.580   8.570   7.961 -0.0322 -0.1911 -0.0876
  979MOL0     C32084  11.234   8.639   8.210 -0.3381 -0.2852  0.7331
  979MOL0     C32085  11.114   8.717   8.214 -0.9645 -0.4886 -0.0990
  979MOL0     C32086  11.039   8.723   8.331  0.3685 -0.2062 -0.9409
  979MOL0     C32087  11.068   8.645   8.449 -0.6992  0.3159  0.2666
  979MOL0     O32088  10.995   8.631   8.564 -0.4219 -0.2681 -0.3512
  979MOL0     C32089  10.881   8.718   8.579 -0.5910  0.1292  0.2620
  979MOL0     C32090  10.757   8.675   8.493  0.5971 -0.2764 -0.1473
  979MOL0     C32091  10.630   8.760   8.511  0.7609  0.5275 -0.1130
  979MOL0     C32092  10.506   8.691   8.457 -0.2354 -1.2271  0.1526
  979MOL0     C32093  10.374   8.712   8.508 -0.2671 -0.3319 -0.5957
  979MOL0     C32094  10.265   8.735   8.553 -0.3044  0.2141  0.9397
  979MOL0     C32095  11.187   8.571   8.443  0.6006  0.3527 -0.1522
  979MOL0     C32096  11.267   8.569   8.328  0.0397  0.0060 -0.1608
  979MOL0     C32097  11.396   8.489   8.337  0.1494 -0.6383  0.6201
  979MOL0     H32098  11.503   8.898   7.911 -2.6142 -1.8556  2.5436
  979MOL0     H32099  11.691   8.865   7.748 -0.5017 -1.3888 -3.4148
  979MOL0     H32100  11.799   8.766   7.547  3.4145  1.0072 -1.4758
  979MOL0     H32101  11.918   8.814   7.657 -0.7847  0.2850 -0.1487
  979MOL0     H32102  11.921   8.576   7.472 -2.4621 -0.2761  2.8997
  979MOL0     H32103  12.083   8.641   7.542  0.9418  2.7133  1.6112
  979MOL0     H32104  12.067   8.829   7.407 -0.0941 -1.5423  1.7323
  979MOL0     H32105  11.897   8.808   7.361 -1.2593 -3.0193 -0.3965
  979MOL0     H32106  12.109   8.624   7.275 -0.5620 -1.2579  0.6874
  979MOL0     H32107  11.941   8.635   7.220 -0.1143  0.8132 -2.0645
  979MOL0     H32108  12.145   8.848   7.169  1.9402 -1.5256 -1.1371
  979MOL0     H32109  12.097   8.724   7.062 -0.1019  0.6311  0.6158
  979MOL0     H32110  11.855   8.788   7.098  0.4554  0.0406 -0.4759
  979MOL0     H32111  11.908   8.937   7.148  1.0647  0.5295 -0.6847
  979MOL0     H32112  11.960   8.832   6.881 -3.5843 -2.5474  2.9274
  979MOL0     H32113  12.055   8.974   6.949 -0.7750  0.2753  3.5610
  979MOL0     H32114  11.878   9.114   6.925  1.7295 -0.3487  1.3234
  979MOL0     H32115  11.852   9.005   6.785  0.8529  1.8130  0.3509
  979MOL0     H32116  11.699   8.771   6.932 -0.8068 -0.0273 -0.2033
  979MOL0     H32117  11.436   8.695   6.928 -0.5593 -0.0230  1.3297
  979MOL0     H32118  11.410   8.767   7.082 -1.3140  3.5240  1.2567
  979MOL0     H32119  11.198   8.744   6.942 -1.0258  0.7134 -0.1161
  979MOL0     H32120  11.232   8.903   7.023  4.5133  0.6318  2.2069
  979MOL0     H32121  11.273   8.988   6.789  1.4757  0.6161  1.8895
  979MOL0     H32122  11.121   8.878   6.781  0.4001 -0.9516  0.0243
  979MOL0     H32123  11.261   8.693   6.712  4.1447 -0.4018  1.1299
  979MOL0     H32124  11.393   8.813   6.703  0.7578  2.4508  1.5585
  979MOL0     H32125  11.348   8.569   6.547 -1.5806 -3.6887 -0.3708
  979MOL0     H32126  11.383   8.450   6.355  2.9109  0.6918  0.3392
  979MOL0     H32127  11.604   8.397   5.966  2.6166  0.2891 -0.8727
  979MOL0     H32128  11.709   8.316   5.767  0.4774  0.2760  3.3596
  979MOL0     H32129  11.717   8.606   5.402  1.1555 -0.3142 -1.5331
  979MOL0     H32130  11.800   8.462   5.359  0.6429  0.8490  0.6653
  979MOL0     H32131  11.601   8.314   5.390 -1.5990 -0.5056  0.6036
  979MOL0     H32132  11.496   8.447   5.407  0.4794  1.2840 -0.4724
  979MOL0     H32133  11.663   8.383   5.156  0.1357  1.0240 -1.0012
  979MOL0     H32134  11.489   8.381   5.165  1.5873 -0.2722 -4.1025
  979MOL0     H32135  11.661   8.632   5.191  0.9176 -0.7245 -0.5454
  979MOL0     H32136  11.479   8.630   5.205  0.8302  0.3427  1.7600
  979MOL0     H32137  11.536   8.498   4.962 -1.6050  1.1254 -0.0706
  979MOL0     H32138  11.672   8.605   4.963 -0.7715  3.7162 -0.1572
  979MOL0     H32139  11.380   8.658   4.997  0.6099 -0.7338  3.0316
  979MOL0     H32140  11.495   8.787   5.031  2.9698 -1.3336  0.9445
  979MOL0     H32141  11.500   8.648   4.757 -0.2382  1.9800 -3.9378
  979MOL0     H32142  11.568   8.811   4.799 -1.3112  0.4209 -0.0093
  979MOL0     H32143  11.280   8.712   4.789  0.5907 -0.6338 -0.4837
  979MOL0     H32144  11.344   8.888   4.804  0.6214  0.3422 -0.0000
  979MOL0     H32145  11.528   8.642   5.554 -0.9739 -1.6509 -0.2693
  979MOL0     H32146  11.416   8.712   5.754 -0.8851  0.4706  2.2877
  979MOL0     H32147  11.351   8.814   6.128  0.4345 -1.0807 -0.6638
  979MOL0     H32148  11.259   8.930   6.321  0.0106  0.2421  2.5962
  979MOL0     H32149  11.728   8.458   7.858  0.5747 -0.2811 -2.5086
  979MOL0     H32150  11.558   8.485   8.025  3.8535 -0.7027  0.8116
  979MOL0     H32151  11.099   8.784   8.130  3.4713  1.9312  0.7197
  979MOL0     H32152  10.947   8.780   8.322 -1.0348 -2.0305  0.9366
  979MOL0     H32153  10.899   8.820   8.543 -1.0405  0.3775  0.7273
  979MOL0     H32154  10.851   8.714   8.684  1.5329 -0.8161  0.8892
  979MOL0     H32155  10.741   8.572   8.526  1.7002 -0.2240  0.6051
  979MOL0     H32156  10.786   8.681   8.387 -4.5166 -3.1961 -2.0329
  979MOL0     H32157  10.639   8.862   8.472 -0.9925  0.3948 -0.9443
  979MOL0     H32158  10.619   8.779   8.619  1.7735 -1.8234  0.4667
  979MOL0     H32159  10.508   8.699   8.348  1.2298 -1.7683  0.1053
  979MOL0     H32160  10.520   8.586   8.486  2.5367 -0.6079  1.4088
  979MOL0     H32161  10.160   8.752   8.568 -0.8834  0.8471 -2.8009
  979MOL0     H32162  11.219   8.508   8.526  1.0190 -0.4012 -0.8708
  979MOL0     H32163  11.479   8.530   8.278  1.2398 -2.2700  0.9456
  979MOL0     H32164  11.437   8.493   8.439  2.0390  0.3100 -0.1334
  979MOL0     H32165  11.376   8.383   8.317 -2.5214 -0.1559  0.4246
  980MOL0     O32166   1.111   8.176   7.262 -0.0881 -0.4223 -0.6570
  980MOL0     C32167   1.129   8.280   7.188 -0.8980 -0.4597 -1.2341
  980MOL0     O32168   1.030   8.367   7.165 -0.4392 -0.1290 -0.1916
  980MOL0     C32169   0.929   8.378   7.255 -0.6546 -0.4315 -0.6560
  980MOL0     C32170   0.804   8.380   7.214  0.0980 -0.2729  0.8720
  980MOL0     C32171   0.688   8.368   7.302  0.3375 -0.0682  1.1118
  980MOL0     C32172   0.719   8.365   7.440  0.7437  0.8833 -0.3966
  980MOL0     O32173   0.617   8.368   7.532 -0.5107 -0.0472  0.9238
  980MOL0     C32174   0.613   8.263   7.620  0.5220 -0.1032 -0.3779
  980MOL0     C32175   0.472   8.244   7.693  1.1197  1.0346  0.6616
  980MOL0     C32176   0.469   8.100   7.768 -0.5076  0.3105 -0.1185
  980MOL0     C32177   0.356   8.120   7.878  0.0846  0.4202 -0.1998
  980MOL0     C32178   0.330   7.999   7.964  0.6377 -0.9477  0.5638
  980MOL0     C32179   0.237   8.032   8.069 -0.4413 -0.2676  0.0650
  980MOL0     C32180   0.211   7.910   8.168  0.3726 -0.2599  0.3197
  980MOL0     C32181   0.157   7.949   8.305  0.1519 -0.8833  0.0361
  980MOL0     N32182   0.025   8.021   8.293 -0.4575 -0.2029 -1.0191
  980MOL0     C32183  -0.083   7.942   8.272 -0.0664 -0.5975 -0.0308
  980MOL0     C32184  -0.188   8.009   8.314  0.8020 -0.7075  0.2936
  980MOL0     C32185  -0.322   7.960   8.301 -0.1204  0.0574  0.3496
  980MOL0     C32186  -0.416   8.066   8.246 -0.7793  0.1426  0.1771
  980MOL0     C32187  -0.382   8.139   8.123  0.6722  0.1470 -0.2008
  980MOL0     C32188  -0.491   8.242   8.071  0.0543 -0.4950 -0.8047
  980MOL0     O32189  -0.631   8.203   8.068  0.1337  0.4252  0.4773
  980MOL0     C32190  -0.684   8.145   7.955 -0.7001  0.4109  0.1562
  980MOL0     C32191  -0.604   8.088   7.850 -1.1454  0.2948 -0.2912
  980MOL0     C32192  -0.679   8.028   7.746  0.1339  0.2682  0.2710
  980MOL0     C32193  -0.817   8.019   7.741 -0.3470 -0.2023 -0.3061
  980MOL0     C32194  -0.891   7.946   7.635 -1.1262 -0.2850  0.3099
  980MOL0     O32195  -1.025   7.984   7.624 -0.5764 -0.7475  0.6258
  980MOL0     C32196  -1.109   7.935   7.524  0.4247 -0.2887  0.4011
  980MOL0     C32197  -1.242   7.921   7.564  0.8000 -0.8246 -0.9789
  980MOL0     C32198  -1.340   7.894   7.468  1.1227 -0.0895  0.2459
  980MOL0     C32199  -1.297   7.872   7.334  0.6531  0.6120 -0.8135
  980MOL0     O32200  -1.383   7.830   7.234  0.2762  0.8044  1.1003
  980MOL0     C32201  -1.502   7.750   7.249 -0.0629  0.6063 -0.3932
  980MOL0     C32202  -1.613   7.854   7.284 -0.0353 -0.0905  0.1917
  980MOL0     C32203  -1.754   7.793   7.331 -0.6356 -0.5463  0.2142
  980MOL0     C32204  -1.844   7.915   7.346  0.0568  0.6576 -0.1887
  980MOL0     C32205  -1.986   7.871   7.376  0.3569 -0.7400 -0.3070
  980MOL0     C32206  -2.073   7.997   7.379  0.9112 -0.1571  0.4925
  980MOL0     C32207  -2.228   7.976   7.365 -0.0124  0.4429 -0.9723
  980MOL0     C32208  -2.330   8.087   7.333 -0.9864 -0.0568 -0.3149
  980MOL0    Cl32209  -2.250   8.173   7.200 -0.1245 -0.1140 -0.2676
  980MOL0     C32210  -1.168   7.874   7.295  0.5461  0.2499 -0.9196
  980MOL0     C32211  -1.075   7.918   7.388 -0.4585  0.4796  0.2249
  980MOL0     O32212  -0.830   7.856   7.569 -0.8437 -0.2024 -0.2968
  980MOL0     C32213  -0.887   8.075   7.848  0.0731  0.8633  0.0256
  980MOL0     C32214  -0.819   8.133   7.955 -0.1147  0.4261  0.0050
  980MOL0     N32215  -0.155   8.131   8.361 -0.6140  0.0479 -0.5017
  980MOL0     N32216  -0.025   8.142   8.354  0.4095  0.0598 -0.0248
  980MOL0     C32217   0.844   8.357   7.489 -0.1130  0.0274 -0.1805
  980MOL0     C32218   0.956   8.375   7.398 -0.0812 -0.6308 -0.4697
  980MOL0     C32219   1.262   8.296   7.126 -0.0474  0.3113 -0.5772
  980MOL0     C32220   1.316   8.190   7.071  0.9087  0.0394 -0.6598
  980MOL0     C32221   1.446   8.196   7.002 -0.6099 -0.0698 -0.7799
  980MOL0     C32222   1.505   8.315   6.985 -0.1560  0.3869  0.1740
  980MOL0     O32223   1.611   8.311   6.907  0.1964  0.1507  0.2062
  980MOL0     C32224   1.673   8.420   6.838  0.9747 -0.2959 -1.8263
  980MOL0     C32225   1.645   8.404   6.691  0.1199  0.3774  0.4601
  980MOL0     C32226   1.670   8.527   6.601 -0.2443 -0.7788 -0.3149
  980MOL0     C32227   1.626   8.496   6.464 -0.1444  0.2356  0.1497
  980MOL0     C32228   1.683   8.584   6.362 -1.1633 -0.5469  0.0900
  980MOL0     C32229   1.714   8.653   6.262  0.6288  0.4530 -0.1666
  980MOL0     C32230   1.454   8.429   7.045 -0.0944 -0.1363 -0.1865
  980MOL0     C32231   1.333   8.420   7.116 -0.3015  0.6617 -0.0877
  980MOL0     C32232   1.282   8.547   7.185 -0.0898 -0.7637  0.2511
  980MOL0     H32233   0.784   8.384   7.108 -0.3860  0.9656  0.9912
  980MOL0     H32234   0.586   8.373   7.266  0.9342  2.9981 -0.5056
  980MOL0     H32235   0.630   8.167   7.571  3.4277 -1.2737  2.5759
  980MOL0     H32236   0.684   8.284   7.700 -3.3397 -3.8855  4.7663
  980MOL0     H32237   0.384   8.245   7.628  0.9090  2.9749  0.9316
  980MOL0     H32238   0.463   8.319   7.772  1.6351  0.5959  1.1480
  980MOL0     H32239   0.565   8.069   7.810  0.4531  0.8790 -1.7957
  980MOL0     H32240   0.442   8.035   7.684 -3.2972 -0.4353  1.2317
  980MOL0     H32241   0.396   8.192   7.950  2.8480  0.7674 -1.9364
  980MOL0     H32242   0.258   8.153   7.841 -0.9064 -0.2916  1.6547
  980MOL0     H32243   0.278   7.924   7.903  1.1932  0.4006 -1.6584
  980MOL0     H32244   0.421   7.953   8.005 -0.4405 -2.2984  1.5842
  980MOL0     H32245   0.274   8.115   8.129 -1.7163  0.0394  0.4458
  980MOL0     H32246   0.142   8.071   8.031 -0.2464 -1.1129 -1.3728
  980MOL0     H32247   0.306   7.856   8.177  1.8868  2.2265  0.3428
  980MOL0     H32248   0.143   7.842   8.117  2.4060 -1.8876 -0.3687
  980MOL0     H32249   0.148   7.859   8.366 -4.4513 -0.4570  0.2884
  980MOL0     H32250   0.232   8.016   8.348  1.8664 -2.3140 -0.6040
  980MOL0     H32251  -0.094   7.840   8.236 -0.0234  0.0170 -1.8985
  980MOL0     H32252  -0.335   7.871   8.239  0.5837 -0.2839  0.6836
  980MOL0     H32253  -0.367   7.936   8.398 -0.5431 -1.4784 -0.2050
  980MOL0     H32254  -0.507   8.010   8.224  0.9306 -2.0435 -1.9726
  980MOL0     H32255  -0.438   8.127   8.334 -0.3998 -1.2501  1.3011
  980MOL0     H32256  -0.365   8.070   8.040  0.0909  0.6575 -0.7574
  980MOL0     H32257  -0.292   8.194   8.150 -0.2115  0.7766  1.6503
  980MOL0     H32258  -0.462   8.282   7.973 -0.2146 -0.0107 -0.6888
  980MOL0     H32259  -0.484   8.333   8.131 -4.1233 -0.7851  0.4756
  980MOL0     H32260  -0.496   8.099   7.852 -1.2070  1.1830  2.3994
  980MOL0     H32261  -0.626   7.969   7.671 -0.4692 -0.1612  0.1789
  980MOL0     H32262  -1.265   7.942   7.668  0.4778  2.5067 -1.6262
  980MOL0     H32263  -1.441   7.876   7.503  1.4274  2.7865  2.9276
  980MOL0     H32264  -1.520   7.687   7.161  0.4518 -1.0159  0.6340
  980MOL0     H32265  -1.492   7.675   7.327 -4.0951  1.2959  1.0358
  980MOL0     H32266  -1.578   7.943   7.336  2.3262 -0.2482 -0.9979
  980MOL0     H32267  -1.632   7.895   7.184 -2.3629  0.4663  0.7945
  980MOL0     H32268  -1.793   7.731   7.249  1.8679 -0.9169 -0.8025
  980MOL0     H32269  -1.741   7.736   7.423  1.6948  0.3623  0.5161
  980MOL0     H32270  -1.843   7.964   7.248 -1.1818  2.1124  0.4897
  980MOL0     H32271  -1.811   7.985   7.423 -2.0395  0.7556  0.6818
  980MOL0     H32272  -1.988   7.826   7.475  0.1197 -0.7398 -0.3104
  980MOL0     H32273  -2.030   7.800   7.305 -0.0403  2.5330 -3.6850
  980MOL0     H32274  -2.057   8.050   7.474 -0.2754 -1.2967  1.3693
  980MOL0     H32275  -2.044   8.065   7.299  0.7615  0.1643  0.7052
  980MOL0     H32276  -2.255   7.926   7.459 -1.6087 -0.7720 -2.0076
  980MOL0     H32277  -2.234   7.903   7.283  0.6964 -0.5248 -0.1809
  980MOL0     H32278  -2.432   8.049   7.327 -0.8411 -0.6367  0.6317
  980MOL0     H32279  -2.338   8.166   7.409  0.6768  1.4183 -1.5762
  980MOL0     H32280  -1.143   7.862   7.190  1.9613  0.2914 -0.6198
  980MOL0     H32281  -0.977   7.937   7.344 -0.0116 -0.1173  0.9363
  980MOL0     H32282  -0.994   8.063   7.853  0.1188  0.1207 -0.7491
  980MOL0     H32283  -0.884   8.171   8.034 -2.4562 -0.5793 -1.3420
  980MOL0     H32284   0.868   8.350   7.595  1.1116 -1.4548 -0.5189
  980MOL0     H32285   1.058   8.364   7.432  1.8682  2.3445 -4.4648
  980MOL0     H32286   1.265   8.094   7.069 -2.2945  1.5721  0.4075
  980MOL0     H32287   1.495   8.114   6.951 -0.3659 -0.0143 -0.6385
  980MOL0     H32288   1.780   8.425   6.858  1.0762  1.7738 -2.6380
  980MOL0     H32289   1.648   8.514   6.887  4.0433 -0.8120  1.0774
  980MOL0     H32290   1.539   8.385   6.675  0.2103  0.7255 -0.6651
  980MOL0     H32291   1.708   8.325   6.648  3.2404  2.9997 -0.2382
  980MOL0     H32292   1.778   8.540   6.600 -0.4402  1.3364 -2.0426
  980MOL0     H32293   1.613   8.616   6.630 -1.3513 -0.7547 -2.3297
  980MOL0     H32294   1.656   8.395   6.435 -0.7819  0.0198  0.2321
  980MOL0     H32295   1.518   8.505   6.459 -0.3328 -1.7396 -0.1248
  980MOL0     H32296   1.746   8.717   6.182 -0.3072 -1.3992 -2.1327
  980MOL0     H32297   1.499   8.527   7.031  2.6592 -1.3751 -0.6569
  980MOL0     H32298   1.357   8.626   7.183 -0.2644 -0.4438  2.9094
  980MOL0     H32299   1.187   8.586   7.148  0.1552  2.5396  2.6739
  980MOL0     H32300   1.279   8.529   7.293  0.5666  1.8147  0.7743
  981MOL0     O32301   5.510   2.009   8.236 -0.8457  0.7441 -0.1350
  981MOL0     C32302   5.621   2.064   8.275 -0.2452  1.1319  2.1104
  981MOL0     O32303   5.622   2.184   8.336 -0.4325 -0.3826 -0.0133
  981MOL0     C32304   5.508   2.256   8.327 -0.4669  0.7607  0.4271
  981MOL0     C32305   5.454   2.305   8.452 -0.2841 -0.2594 -0.4455
  981MOL0     C32306   5.329   2.368   8.455  0.5773  0.5420 -0.0268
  981MOL0     C32307   5.263   2.392   8.331 -0.0599  0.4901  1.0189
  981MOL0     O32308   5.148   2.460   8.327 -0.2231  0.4576  0.8561
  981MOL0     C32309   5.051   2.422   8.427 -0.4273 -0.6204 -0.8260
  981MOL0     C32310   4.926   2.389   8.351  0.7866  0.6700  0.9407
  981MOL0     C32311   4.940   2.296   8.233 -0.6728 -0.1864 -0.4767
  981MOL0     C32312   4.943   2.136   8.268  0.5681 -0.5669  0.0588
  981MOL0     C32313   4.815   2.060   8.282  0.4437  0.4837  0.0892
  981MOL0     C32314   4.717   2.065   8.158  0.1262 -0.1281  1.7364
  981MOL0     C32315   4.605   1.967   8.169  0.5832  0.7188 -0.1722
  981MOL0     C32316   4.481   2.016   8.090 -1.8888  0.2798  0.1963
  981MOL0     N32317   4.419   2.138   8.134  0.4896 -0.1844 -0.5060
  981MOL0     C32318   4.429   2.265   8.079  0.6292 -1.1204 -0.5862
  981MOL0     C32319   4.380   2.336   8.180 -0.3068 -0.5916 -0.5099
  981MOL0     C32320   4.370   2.484   8.148 -0.4507  0.3504 -0.5768
  981MOL0     C32321   4.473   2.559   8.227 -1.1570 -0.7746  1.2163
  981MOL0     C32322   4.615   2.542   8.166 -0.0072 -0.4058  1.0346
  981MOL0     C32323   4.621   2.618   8.031 -0.7575 -1.2094  0.1030
  981MOL0     O32324   4.655   2.756   8.053  0.2359  0.6417  0.3121
  981MOL0     C32325   4.571   2.863   8.000 -0.1088  0.4063  0.0483
  981MOL0     C32326   4.591   2.987   8.059  0.7948 -0.6516 -0.8816
  981MOL0     C32327   4.517   3.101   8.027  0.7111  1.1028 -0.4291
  981MOL0     C32328   4.415   3.078   7.932  0.3895  0.5821 -1.2487
  981MOL0     C32329   4.325   3.186   7.894  0.9454  0.0485 -0.0836
  981MOL0     O32330   4.215   3.160   7.818 -0.1916 -0.3040 -0.2937
  981MOL0     C32331   4.133   3.273   7.793  0.1143  0.6091  0.1331
  981MOL0     C32332   4.173   3.408   7.777  0.1121 -0.5603 -0.3106
  981MOL0     C32333   4.076   3.505   7.751  1.0901 -0.1729 -0.5426
  981MOL0     C32334   3.939   3.469   7.741 -0.0210  0.1419  0.9942
  981MOL0     O32335   3.854   3.575   7.697  0.2350  0.4768 -0.3942
  981MOL0     C32336   3.712   3.554   7.680 -0.2188 -0.5276  0.1506
  981MOL0     C32337   3.698   3.501   7.544 -0.4112  0.0363  0.5414
  981MOL0     C32338   3.547   3.479   7.517  0.2012 -0.1370  0.3454
  981MOL0     C32339   3.494   3.568   7.401 -0.1527  0.4687 -0.7785
  981MOL0     C32340   3.363   3.512   7.352 -0.0504  0.2154  0.3753
  981MOL0     C32341   3.282   3.602   7.255  0.7245 -1.0300  0.5939
  981MOL0     C32342   3.322   3.602   7.103 -0.7200  0.0228 -0.8493
  981MOL0     C32343   3.284   3.477   7.030  0.5376  0.3306  0.4258
  981MOL0    Cl32344   3.308   3.493   6.859 -0.2074  0.1359 -0.0843
  981MOL0     C32345   3.907   3.342   7.782  0.5544  0.4081  0.3396
  981MOL0     C32346   4.000   3.247   7.796 -0.8637 -0.2571 -0.3150
  981MOL0     O32347   4.344   3.295   7.953  0.0482  0.3014 -0.4476
  981MOL0     C32348   4.395   2.951   7.873 -0.0041  0.1035 -0.0093
  981MOL0     C32349   4.470   2.837   7.912  0.1955  0.2780 -0.8203
  981MOL0     N32350   4.346   2.265   8.296  0.1922 -0.0041 -0.2851
  981MOL0     N32351   4.389   2.145   8.273 -0.1624 -0.3602 -0.7123
  981MOL0     C32352   5.320   2.356   8.204 -0.5273  0.1094 -0.8676
  981MOL0     C32353   5.443   2.289   8.207  0.0668  0.3518  0.1119
  981MOL0     C32354   5.741   1.995   8.268 -1.1277 -0.3960 -0.2949
  981MOL0     C32355   5.835   2.046   8.175 -0.1344  0.1393 -0.0405
  981MOL0     C32356   5.966   1.997   8.161 -0.0339 -0.9574 -0.2408
  981MOL0     C32357   5.999   1.891   8.248  0.4937  0.2023 -0.6994
  981MOL0     O32358   6.120   1.830   8.242 -0.4221  0.6741  0.1869
  981MOL0     C32359   6.218   1.866   8.149  0.1077 -0.3198 -0.6455
  981MOL0     C32360   6.298   1.977   8.216  0.1410  0.9485  1.3266
  981MOL0     C32361   6.367   1.938   8.346  0.0030  0.6631 -0.1651
  981MOL0     C32362   6.485   1.845   8.312 -0.3859  0.6444 -0.0461
  981MOL0     C32363   6.584   1.819   8.419  0.0411 -0.4038 -0.7574
  981MOL0     C32364   6.655   1.800   8.504  0.2050 -0.4716 -0.6269
  981MOL0     C32365   5.906   1.844   8.346 -0.2715  0.0877  0.0641
  981MOL0     C32366   5.781   1.899   8.364 -0.1385 -0.1500  0.4096
  981MOL0     C32367   5.693   1.864   8.483 -0.5014 -0.0027  0.0729
  981MOL0     H32368   5.500   2.293   8.550 -0.9831 -3.6712 -0.4169
  981MOL0     H32369   5.292   2.389   8.555  0.6320  0.2709  0.0511
  981MOL0     H32370   5.085   2.334   8.483 -2.7867 -2.3259 -1.9124
  981MOL0     H32371   5.036   2.505   8.496 -0.6626 -0.0374 -1.5648
  981MOL0     H32372   4.885   2.483   8.315  2.4117  0.4138 -1.8377
  981MOL0     H32373   4.863   2.330   8.418  1.4818 -1.5086 -0.2254
  981MOL0     H32374   5.034   2.322   8.183 -1.5852  4.4192 -0.2322
  981MOL0     H32375   4.863   2.316   8.157 -2.1009  0.2535  1.0264
  981MOL0     H32376   5.000   2.081   8.193 -3.1525 -1.7702 -2.1372
  981MOL0     H32377   5.013   2.124   8.352 -0.5877 -1.9334  0.8774
  981MOL0     H32378   4.845   1.955   8.288  2.0107  0.9310  0.9089
  981MOL0     H32379   4.753   2.092   8.366  1.0184 -1.5577  1.3592
  981MOL0     H32380   4.678   2.167   8.155 -0.3288 -0.2734 -2.2419
  981MOL0     H32381   4.760   2.053   8.059 -4.6098  2.8753 -1.0707
  981MOL0     H32382   4.574   1.967   8.274 -0.1795  2.1168 -0.3762
  981MOL0     H32383   4.635   1.863   8.154  1.5119  0.6294  2.0256
  981MOL0     H32384   4.492   2.018   7.981  0.6023  1.2519  0.4090
  981MOL0     H32385   4.417   1.927   8.101 -1.5449  0.0850  0.6311
  981MOL0     H32386   4.448   2.301   7.978 -1.4763 -0.2265 -0.7114
  981MOL0     H32387   4.378   2.501   8.040  1.4496  1.6697 -0.2776
  981MOL0     H32388   4.269   2.520   8.173 -0.1507  1.4770 -0.9154
  981MOL0     H32389   4.457   2.667   8.216 -0.3012 -0.9042 -2.6319
  981MOL0     H32390   4.480   2.535   8.334 -2.1473  0.9136  1.6927
  981MOL0     H32391   4.648   2.439   8.151  0.0936 -0.1626 -0.6686
  981MOL0     H32392   4.683   2.578   8.244  1.1141 -3.1842  1.4521
  981MOL0     H32393   4.532   2.596   7.971 -1.4514 -1.0996  1.0758
  981MOL0     H32394   4.696   2.567   7.970  1.1376  0.6018  0.7839
  981MOL0     H32395   4.664   3.003   8.137  1.1724  1.1769 -1.5701
  981MOL0     H32396   4.533   3.200   8.071  0.9167 -0.0383  2.2474
  981MOL0     H32397   4.274   3.446   7.783  0.9259 -2.7834  1.3887
  981MOL0     H32398   4.111   3.608   7.744  1.3664 -0.2325 -0.0990
  981MOL0     H32399   3.670   3.482   7.750 -0.4481  0.5055  1.1011
  981MOL0     H32400   3.656   3.648   7.686  0.2124 -0.0606 -2.0387
  981MOL0     H32401   3.762   3.563   7.480  3.9294 -3.9311  0.4945
  981MOL0     H32402   3.749   3.405   7.531 -0.5144  0.2033 -1.3629
  981MOL0     H32403   3.536   3.378   7.478  0.4869  1.2827 -4.0000
  981MOL0     H32404   3.490   3.493   7.610 -0.7953  3.6837 -0.6460
  981MOL0     H32405   3.566   3.575   7.319  0.6388  2.8290  0.0380
  981MOL0     H32406   3.485   3.675   7.418  1.5360  0.5815 -0.4793
  981MOL0     H32407   3.317   3.508   7.452  1.9247 -1.2849  1.2987
  981MOL0     H32408   3.374   3.409   7.318  0.1025  0.6586 -0.9614
  981MOL0     H32409   3.176   3.577   7.258 -0.1595  1.9834 -0.9791
  981MOL0     H32410   3.286   3.706   7.289  1.4169 -0.0050 -2.3446
  981MOL0     H32411   3.429   3.622   7.097  0.0195 -3.2679 -0.4043
  981MOL0     H32412   3.285   3.689   7.047  1.8514  1.2800 -0.7110
  981MOL0     H32413   3.326   3.389   7.079 -1.4816 -0.9521 -0.0064
  981MOL0     H32414   3.177   3.475   7.053 -0.0301 -2.3089 -1.9369
  981MOL0     H32415   3.807   3.301   7.776  1.2320 -1.4823  1.0132
  981MOL0     H32416   3.968   3.147   7.823 -3.4906  0.7340  0.4435
  981MOL0     H32417   4.315   2.929   7.803  0.6111 -2.3613 -0.0335
  981MOL0     H32418   4.442   2.744   7.863  0.1572  1.1986 -2.6325
  981MOL0     H32419   5.258   2.365   8.115 -2.0575 -1.7277 -0.0610
  981MOL0     H32420   5.506   2.267   8.121 -1.8372 -2.4354 -0.7206
  981MOL0     H32421   5.795   2.119   8.106 -0.4755 -0.9470 -1.0202
  981MOL0     H32422   6.025   2.041   8.081 -4.0197  0.5038 -2.7092
  981MOL0     H32423   6.188   1.891   8.047  1.3525  0.6688 -0.7936
  981MOL0     H32424   6.281   1.777   8.154  0.5127  0.0393  2.1586
  981MOL0     H32425   6.222   2.045   8.256 -0.8645  0.1990  0.7291
  981MOL0     H32426   6.364   2.016   8.138 -0.0479 -1.3282 -0.0667
  981MOL0     H32427   6.309   1.895   8.428  2.9053 -0.6540  1.3437
  981MOL0     H32428   6.396   2.035   8.387  3.0351 -0.0370 -0.4066
  981MOL0     H32429   6.449   1.744   8.291 -1.3669  0.8209  0.6927
  981MOL0     H32430   6.543   1.879   8.226  2.4330  0.9743  1.8559
  981MOL0     H32431   6.717   1.783   8.589  0.8258  0.5202 -0.8685
  981MOL0     H32432   5.946   1.776   8.421 -2.5783 -1.4762 -0.0046
  981MOL0     H32433   5.631   1.943   8.526 -0.4241 -0.8534  1.8555
  981MOL0     H32434   5.628   1.786   8.445  2.0667 -1.6094 -1.3471
  981MOL0     H32435   5.755   1.807   8.553  1.2612  0.5964 -0.9301
  982MOL0     O32436   4.744   2.503   6.515 -1.1618 -0.5041  0.2741
  982MOL0     C32437   4.850   2.514   6.571  1.0747 -0.4470  0.6674
  982MOL0     O32438   4.907   2.637   6.591 -0.6595  0.1244 -0.2240
  982MOL0     C32439   4.832   2.740   6.642  0.3432  0.9341  0.0384
  982MOL0     C32440   4.808   2.858   6.562  0.5122  0.0361 -0.8861
  982MOL0     C32441   4.738   2.957   6.622  0.2446 -0.2000 -0.0584
  982MOL0     C32442   4.690   2.956   6.752 -0.0243  0.0184 -0.5897
  982MOL0     O32443   4.616   3.065   6.799 -0.9183  0.2355 -0.0252
  982MOL0     C32444   4.638   3.107   6.934  0.3254 -0.2352 -0.2908
  982MOL0     C32445   4.782   3.122   6.974 -0.1742  0.5485  0.0702
  982MOL0     C32446   4.834   3.253   6.925 -0.2299  0.0715  0.1754
  982MOL0     C32447   4.985   3.263   6.940  0.6129  0.0939 -0.2871
  982MOL0     C32448   5.046   3.400   6.910  0.2891 -0.1285  0.9811
  982MOL0     C32449   4.986   3.516   6.988  0.5630 -0.0816 -0.5173
  982MOL0     C32450   5.016   3.504   7.139  0.0473 -1.0052 -0.5265
  982MOL0     C32451   4.917   3.592   7.214 -0.2130 -0.2167 -0.8670
  982MOL0     N32452   4.959   3.603   7.358  0.4523  0.3572 -0.4828
  982MOL0     C32453   4.964   3.717   7.417 -1.5163 -0.1145 -0.5809
  982MOL0     C32454   5.000   3.684   7.544  0.1987  0.5307  0.0302
  982MOL0     C32455   5.021   3.780   7.663 -0.4856  0.9929  0.4426
  982MOL0     C32456   5.166   3.843   7.670  0.0101  0.2528 -0.2491
  982MOL0     C32457   5.219   3.900   7.534  1.1324  0.0872 -0.0558
  982MOL0     C32458   5.144   4.032   7.524 -0.6873  0.0243  0.2019
  982MOL0     O32459   5.220   4.094   7.419 -0.4136 -0.1082 -0.1285
  982MOL0     C32460   5.188   4.051   7.295  1.0087  0.1391  0.8040
  982MOL0     C32461   5.271   3.963   7.223 -0.3248 -0.0855 -0.2066
  982MOL0     C32462   5.238   3.911   7.100  0.1797  0.0204 -0.0487
  982MOL0     C32463   5.118   3.939   7.036  0.9043  1.0010 -0.6750
  982MOL0     C32464   5.079   3.886   6.900  0.6361 -0.3558 -0.7188
  982MOL0     O32465   5.164   3.795   6.840  0.7197  0.6104  0.9975
  982MOL0     C32466   5.162   3.751   6.709  0.5572  0.7212  1.0110
  982MOL0     C32467   5.116   3.838   6.613 -0.2050 -1.0679 -0.9604
  982MOL0     C32468   5.125   3.810   6.472  0.5559  0.2492 -0.4572
  982MOL0     C32469   5.171   3.687   6.436 -0.4878  0.7801 -0.5047
  982MOL0     O32470   5.159   3.646   6.308 -0.5177  0.4141 -0.2333
  982MOL0     C32471   5.261   3.699   6.221  0.3456  0.2847 -0.0741
  982MOL0     C32472   5.239   3.640   6.078  0.3021 -0.2565  0.0170
  982MOL0     C32473   5.284   3.500   6.067 -0.0350 -0.1730  0.8463
  982MOL0     C32474   5.283   3.462   5.915 -0.4073  0.2279 -0.4225
  982MOL0     C32475   5.346   3.322   5.902  0.1994 -0.6869  1.0936
  982MOL0     C32476   5.323   3.247   5.767 -0.7164 -0.1554 -0.1698
  982MOL0     C32477   5.423   3.286   5.648 -1.1803 -1.5967  0.1256
  982MOL0     C32478   5.385   3.212   5.523 -0.4526  0.8860  0.3569
  982MOL0    Cl32479   5.524   3.209   5.414 -0.4526  0.7228  0.7351
  982MOL0     C32480   5.232   3.596   6.528  0.0019 -0.2573  0.2139
  982MOL0     C32481   5.211   3.629   6.661 -0.2181  1.5412 -0.7570
  982MOL0     O32482   4.966   3.918   6.863 -0.5934  0.4927  0.2983
  982MOL0     C32483   5.036   4.032   7.107 -0.5076 -0.9924 -0.0926
  982MOL0     C32484   5.065   4.078   7.240 -0.3604  0.2238 -0.1123
  982MOL0     N32485   5.034   3.553   7.559 -0.0647 -0.2938 -0.0967
  982MOL0     N32486   4.986   3.500   7.449  0.1814 -0.1760 -0.0525
  982MOL0     C32487   4.701   2.838   6.827 -0.3032  0.8119 -0.1996
  982MOL0     C32488   4.781   2.731   6.777 -0.8882  0.1154 -0.2094
  982MOL0     C32489   4.937   2.398   6.602  0.0894  1.2156 -0.0193
  982MOL0     C32490   4.988   2.387   6.731 -0.0230  0.5631 -0.6999
  982MOL0     C32491   5.051   2.271   6.778 -0.8454 -1.0137  0.1484
  982MOL0     C32492   5.048   2.160   6.703  0.4329  0.1199 -0.5513
  982MOL0     O32493   5.101   2.047   6.747 -0.1941  0.5873  0.2673
  982MOL0     C32494   5.109   2.019   6.883 -0.0116 -0.1282 -0.8585
  982MOL0     C32495   5.133   1.867   6.889  0.2630  0.6739  0.0457
  982MOL0     C32496   5.087   1.815   7.025 -0.4589  0.3674  0.2677
  982MOL0     C32497   5.122   1.665   7.045  0.6811  0.2631  0.3737
  982MOL0     C32498   5.251   1.651   7.100  0.4777 -1.3205 -0.2788
  982MOL0     C32499   5.368   1.656   7.150 -0.2706  0.5331  0.2443
  982MOL0     C32500   4.990   2.164   6.574 -0.3038  0.3420 -0.1458
  982MOL0     C32501   4.933   2.279   6.518 -0.4289  0.7638  0.0638
  982MOL0     C32502   4.870   2.263   6.383 -0.3997 -0.3623 -0.1441
  982MOL0     H32503   4.842   2.871   6.460  1.4111 -0.3558 -0.6512
  982MOL0     H32504   4.721   3.035   6.548  1.7369  0.7166  0.5071
  982MOL0     H32505   4.588   3.203   6.945 -2.1840 -1.3917 -0.9619
  982MOL0     H32506   4.595   3.030   6.999 -0.4789 -0.0271 -0.5668
  982MOL0     H32507   4.846   3.042   6.937  0.0603  0.0129  1.5371
  982MOL0     H32508   4.797   3.123   7.083  2.9328 -2.5009 -0.1593
  982MOL0     H32509   4.786   3.330   6.987  1.8774  1.5205  0.1112
  982MOL0     H32510   4.809   3.265   6.820 -1.5896 -2.6326  0.0917
  982MOL0     H32511   5.021   3.225   7.036 -1.4332 -1.3571 -0.0261
  982MOL0     H32512   5.031   3.189   6.874  1.1819  0.6942 -0.5781
  982MOL0     H32513   5.154   3.391   6.923  0.7512  2.0399 -0.7501
  982MOL0     H32514   5.025   3.430   6.807 -2.5870  0.7156  1.7153
  982MOL0     H32515   5.037   3.609   6.964 -1.5427  0.4083 -3.7813
  982MOL0     H32516   4.877   3.517   6.975  0.6936 -1.7528 -2.1684
  982MOL0     H32517   5.122   3.522   7.162 -0.0979 -0.2988 -0.3788
  982MOL0     H32518   4.997   3.399   7.164 -1.7361 -1.8676 -4.6868
  982MOL0     H32519   4.913   3.693   7.171  1.3978  0.4790  0.4889
  982MOL0     H32520   4.821   3.540   7.212  0.0232 -0.6379 -1.7056
  982MOL0     H32521   4.953   3.817   7.377  1.9203  0.4745 -0.3910
  982MOL0     H32522   4.966   3.873   7.652  0.6411  1.6875  0.5432
  982MOL0     H32523   4.996   3.728   7.756  1.1645  2.6254  1.8587
  982MOL0     H32524   5.167   3.910   7.756  1.3793 -0.2487  0.1446
  982MOL0     H32525   5.246   3.770   7.688 -0.0099  0.0313 -1.0252
  982MOL0     H32526   5.210   3.836   7.446  0.1857 -0.6076  0.5293
  982MOL0     H32527   5.325   3.924   7.544  1.4407 -0.6715 -1.2679
  982MOL0     H32528   5.141   4.088   7.618 -4.3545 -1.2528  1.0158
  982MOL0     H32529   5.037   4.020   7.510 -0.6086 -1.5171  0.7014
  982MOL0     H32530   5.367   3.933   7.264  0.6699  0.4303 -2.0459
  982MOL0     H32531   5.310   3.844   7.053 -2.3325 -2.7910 -0.2207
  982MOL0     H32532   5.084   3.939   6.632 -0.3830 -1.0696 -1.2573
  982MOL0     H32533   5.114   3.889   6.398  0.3025  0.0876 -0.5926
  982MOL0     H32534   5.262   3.807   6.208  0.2358  0.2569 -0.3262
  982MOL0     H32535   5.358   3.667   6.262 -1.0863 -4.0668  0.4804
  982MOL0     H32536   5.134   3.653   6.052 -0.1022 -1.8635  0.7189
  982MOL0     H32537   5.296   3.699   6.006 -0.1039 -1.9572 -1.7761
  982MOL0     H32538   5.382   3.490   6.115  0.3435 -1.7444 -0.1790
  982MOL0     H32539   5.217   3.433   6.121  1.1099 -2.3277 -0.3018
  982MOL0     H32540   5.336   3.525   5.843 -3.8514  1.9250 -1.6689
  982MOL0     H32541   5.183   3.440   5.877  0.7693 -3.9530 -1.6733
  982MOL0     H32542   5.308   3.253   5.978 -0.7249 -0.5437  0.7633
  982MOL0     H32543   5.456   3.323   5.909  0.3648  0.8508 -0.8644
  982MOL0     H32544   5.330   3.138   5.776 -6.4704 -0.8676 -0.5595
  982MOL0     H32545   5.217   3.254   5.741 -0.4368  3.1184 -0.9358
  982MOL0     H32546   5.529   3.269   5.672 -1.1689  1.0791  2.5717
  982MOL0     H32547   5.417   3.392   5.624 -0.6589 -1.8889 -1.3897
  982MOL0     H32548   5.338   3.115   5.538  1.4105 -0.6244 -2.6234
  982MOL0     H32549   5.306   3.260   5.466 -2.2048 -4.0614 -1.9343
  982MOL0     H32550   5.269   3.497   6.504 -0.0695 -0.5656  1.3462
  982MOL0     H32551   5.245   3.560   6.738 -2.5921 -0.3495 -1.2819
  982MOL0     H32552   4.952   4.087   7.064  0.8795  3.6634  2.3699
  982MOL0     H32553   5.008   4.165   7.269  0.0760  0.2036  0.8328
  982MOL0     H32554   4.656   2.831   6.925  2.7000  0.7871  1.2868
  982MOL0     H32555   4.782   2.636   6.829 -1.0510 -0.6868 -1.6399
  982MOL0     H32556   4.989   2.471   6.799 -0.2097 -1.2483  1.6933
  982MOL0     H32557   5.103   2.265   6.873 -3.5191 -2.4771  1.6377
  982MOL0     H32558   5.029   2.048   6.952  2.5880  4.5615  0.6276
  982MOL0     H32559   5.187   2.080   6.929 -1.2962  0.4707  0.5937
  982MOL0     H32560   5.234   1.829   6.871  0.0894  0.0965  0.2590
  982MOL0     H32561   5.066   1.822   6.815  1.3466  0.2828 -0.7308
  982MOL0     H32562   4.982   1.843   7.035  0.1123  1.7962  3.3247
  982MOL0     H32563   5.137   1.870   7.105  1.0364 -2.4718  1.4313
  982MOL0     H32564   5.056   1.613   7.115  0.4336 -0.6334 -0.4914
  982MOL0     H32565   5.115   1.614   6.948  1.2854 -2.4943  1.6894
  982MOL0     H32566   5.462   1.667   7.199 -0.8090  2.7390  0.9158
  982MOL0     H32567   4.992   2.073   6.515  0.2402 -0.8429  1.6381
  982MOL0     H32568   4.926   2.189   6.325 -1.2391  0.5295 -2.1872
  982MOL0     H32569   4.763   2.241   6.380 -0.6528  0.6810  0.6711
  982MOL0     H32570   4.885   2.356   6.328  0.5505  0.9756  2.2307
  983MOL0     O32571   5.716   0.191   0.019 -0.0071 -0.8876 -0.5713
  983MOL0     C32572   5.595   0.185   0.030  0.6768  0.2306 -0.5480
  983MOL0     O32573   5.499   0.191  -0.075 -0.2240  0.5753  0.2817
  983MOL0     C32574   5.536   0.203  -0.200  0.3898 -0.3269  0.8446
  983MOL0     C32575   5.489   0.116  -0.297  0.0661  0.9993 -1.4354
  983MOL0     C32576   5.546   0.123  -0.426 -0.0661  0.5716 -0.2826
  983MOL0     C32577   5.625   0.226  -0.466 -0.4735 -0.2493 -1.0383
  983MOL0     O32578   5.671   0.233  -0.594  0.0110 -0.3743 -0.2762
  983MOL0     C32579   5.793   0.299  -0.613  0.2643  1.1286  0.9078
  983MOL0     C32580   5.872   0.235  -0.734 -0.3401  0.7858 -0.5970
  983MOL0     C32581   5.822   0.282  -0.863 -0.6164  1.1126  0.6341
  983MOL0     C32582   5.865   0.188  -0.978  0.0640  0.3926 -0.9821
  983MOL0     C32583   5.789   0.187  -1.115  0.8518 -0.4630  0.6047
  983MOL0     C32584   5.758   0.324  -1.173 -0.4681 -0.0608  0.2881
  983MOL0     C32585   5.691   0.311  -1.321  1.1746 -0.2676  0.2334
  983MOL0     C32586   5.685   0.453  -1.378  0.2543 -0.5944 -0.9974
  983MOL0     N32587   5.595   0.538  -1.299 -0.2515  0.0373 -0.1425
  983MOL0     C32588   5.645   0.627  -1.211  0.7136 -0.0523 -0.4859
  983MOL0     C32589   5.535   0.682  -1.149 -0.3233  0.0576 -0.0219
  983MOL0     C32590   5.529   0.780  -1.038 -0.1781 -0.0390 -0.7761
  983MOL0     C32591   5.467   0.718  -0.910  1.0284  0.5325 -0.6042
  983MOL0     C32592   5.550   0.600  -0.851  0.3280  0.1677 -0.3374
  983MOL0     C32593   5.467   0.521  -0.737  0.0024  0.4669 -0.4001
  983MOL0     O32594   5.349   0.452  -0.796 -0.3457 -0.1825  0.2770
  983MOL0     C32595   5.379   0.339  -0.867 -0.5289  0.2174  0.7706
  983MOL0     C32596   5.364   0.214  -0.813  0.9493  1.0563 -0.5910
  983MOL0     C32597   5.374   0.095  -0.885  1.9997 -0.5752  0.4341
  983MOL0     C32598   5.411   0.106  -1.018 -0.7832 -1.0068  0.0542
  983MOL0     C32599   5.458  -0.014  -1.083 -0.9383  0.5529  0.3936
  983MOL0     O32600   5.449  -0.015  -1.218 -0.3087  0.2790 -0.2640
  983MOL0     C32601   5.545  -0.105  -1.277 -0.3104 -1.0333  0.5490
  983MOL0     C32602   5.526  -0.244  -1.257 -0.6093 -0.3401  0.3815
  983MOL0     C32603   5.602  -0.339  -1.312  0.1542  0.5913 -0.5635
  983MOL0     C32604   5.711  -0.306  -1.401  0.3212  0.0463  1.0923
  983MOL0     O32605   5.798  -0.389  -1.465  0.5923  0.3238 -0.3945
  983MOL0     C32606   5.778  -0.535  -1.448  0.1188 -0.5351 -0.0528
  983MOL0     C32607   5.863  -0.624  -1.536  0.4938  0.3511 -0.2571
  983MOL0     C32608   5.819  -0.766  -1.505  1.0843 -0.1660 -0.5371
  983MOL0     C32609   5.896  -0.869  -1.578 -0.2100 -0.4294 -0.4422
  983MOL0     C32610   6.028  -0.901  -1.510 -1.0849  0.3624 -0.1009
  983MOL0     C32611   6.101  -1.001  -1.610  0.2759  0.0823 -0.6318
  983MOL0     C32612   6.023  -1.129  -1.611  0.9234  0.5415  0.6198
  983MOL0     C32613   6.122  -1.251  -1.625 -0.3991 -0.4695  0.8320
  983MOL0    Cl32614   6.214  -1.233  -1.781  0.0558 -0.3374  0.4312
  983MOL0     C32615   5.730  -0.166  -1.414 -1.7446 -0.1340 -0.4990
  983MOL0     C32616   5.644  -0.062  -1.362  0.6152  0.2934  0.9474
  983MOL0     O32617   5.490  -0.110  -1.012  0.5090  0.4029  0.5619
  983MOL0     C32618   5.434   0.235  -1.071 -0.4850  0.3875  0.2338
  983MOL0     C32619   5.411   0.348  -0.999  0.0745  0.2907  0.0063
  983MOL0     N32620   5.426   0.622  -1.201  0.3554 -1.0771  0.4297
  983MOL0     N32621   5.455   0.540  -1.293  0.0941 -0.1392  0.1200
  983MOL0     C32622   5.640   0.333  -0.370 -0.4314  0.7540 -0.3885
  983MOL0     C32623   5.595   0.316  -0.240 -0.0755  0.1099 -0.6161
  983MOL0     C32624   5.548   0.138   0.161 -1.0125 -0.1870 -1.0232
  983MOL0     C32625   5.457   0.040   0.174  0.1991  0.3184 -0.9204
  983MOL0     C32626   5.413  -0.016   0.301  0.0961 -0.4651 -0.1357
  983MOL0     C32627   5.470   0.033   0.419 -0.0843  1.1030 -0.5361
  983MOL0     O32628   5.419  -0.006   0.542 -0.5138  0.1536 -0.0360
  983MOL0     C32629   5.459  -0.136   0.586 -0.5727  0.7941  0.2926
  983MOL0     C32630   5.611  -0.124   0.625  0.0863 -0.5155  0.4103
  983MOL0     C32631   5.679  -0.254   0.657 -0.0248 -0.1584 -0.1554
  983MOL0     C32632   5.661  -0.364   0.548 -0.0887  0.0057 -0.7073
  983MOL0     C32633   5.776  -0.463   0.558  0.1513  0.0634 -0.3014
  983MOL0     C32634   5.859  -0.553   0.547  0.1493 -0.2623  0.7291
  983MOL0     C32635   5.566   0.141   0.407  0.2464 -0.2168  0.2147
  983MOL0     C32636   5.600   0.194   0.286  0.3789  0.7429 -0.2998
  983MOL0     C32637   5.694   0.317   0.287 -0.1242 -0.5329 -0.1423
  983MOL0     H32638   5.421   0.044  -0.254  1.6269  0.6939  0.6823
  983MOL0     H32639   5.536   0.038  -0.492  3.6333  0.7217 -1.2431
  983MOL0     H32640   5.777   0.405  -0.633  1.8460  1.2796  0.3268
  983MOL0     H32641   5.844   0.274  -0.519 -2.7775 -4.4887  1.5124
  983MOL0     H32642   5.880   0.126  -0.724  0.0049  0.7607 -1.0950
  983MOL0     H32643   5.977   0.264  -0.721 -0.8681  1.7450  2.0730
  983MOL0     H32644   5.841   0.383  -0.900 -0.1888  0.1890 -1.8865
  983MOL0     H32645   5.713   0.269  -0.855 -0.2415 -2.7772  1.5163
  983MOL0     H32646   5.972   0.208  -0.988 -0.3744  4.8502  0.6708
  983MOL0     H32647   5.866   0.086  -0.938  2.1184  0.4364 -0.8175
  983MOL0     H32648   5.849   0.126  -1.184 -1.0870 -0.1063 -1.5391
  983MOL0     H32649   5.690   0.142  -1.109 -0.8623  3.0845  1.0251
  983MOL0     H32650   5.698   0.389  -1.108  0.2104  4.4418 -3.0453
  983MOL0     H32651   5.853   0.377  -1.187 -0.9748  1.2036  1.4525
  983MOL0     H32652   5.590   0.270  -1.325  0.9350  0.3306  0.1502
  983MOL0     H32653   5.759   0.256  -1.387  2.4650  3.1478 -1.5222
  983MOL0     H32654   5.785   0.492  -1.402  0.4421 -1.7038 -2.1097
  983MOL0     H32655   5.632   0.454  -1.473 -1.2868 -1.3031 -0.1828
  983MOL0     H32656   5.743   0.665  -1.185  0.0690  0.8491  0.7527
  983MOL0     H32657   5.628   0.816  -1.009  0.8330 -1.5022 -2.2401
  983MOL0     H32658   5.468   0.867  -1.062  1.5182  1.4676  0.1157
  983MOL0     H32659   5.464   0.789  -0.828 -1.2142 -1.3855  1.1184
  983MOL0     H32660   5.365   0.681  -0.928  0.2789  0.5812  2.8788
  983MOL0     H32661   5.643   0.637  -0.808  0.1537  0.8748 -0.5587
  983MOL0     H32662   5.574   0.523  -0.925 -2.8389  0.6245 -2.0210
  983MOL0     H32663   5.437   0.599  -0.666 -0.9081  2.4748 -2.8295
  983MOL0     H32664   5.516   0.445  -0.676 -5.5280 -3.3257  0.0443
  983MOL0     H32665   5.343   0.204  -0.708  0.4115  1.3844 -0.6658
  983MOL0     H32666   5.347  -0.001  -0.842  0.6037 -0.3516  0.1034
  983MOL0     H32667   5.444  -0.275  -1.193 -0.4298  1.0362  1.2970
  983MOL0     H32668   5.592  -0.444  -1.287 -3.1191  0.9796  0.2275
  983MOL0     H32669   5.789  -0.572  -1.346  0.5887 -2.4540 -0.7622
  983MOL0     H32670   5.672  -0.559  -1.465 -0.8104  1.5556  2.1932
  983MOL0     H32671   5.863  -0.595  -1.642  0.9686 -1.1372 -0.7012
  983MOL0     H32672   5.961  -0.619  -1.489  0.1402 -1.1652  0.7176
  983MOL0     H32673   5.804  -0.788  -1.399 -2.9138  1.3072 -0.6237
  983MOL0     H32674   5.718  -0.771  -1.548  0.1983 -1.7564  1.5390
  983MOL0     H32675   5.909  -0.827  -1.678 -0.6308  1.1941  0.1557
  983MOL0     H32676   5.824  -0.950  -1.560 -1.9356  1.3334  0.9323
  983MOL0     H32677   6.022  -0.933  -1.406  0.9484  0.2089  0.0031
  983MOL0     H32678   6.087  -0.809  -1.499 -0.4999 -0.2410  2.4185
  983MOL0     H32679   6.104  -0.947  -1.706  4.3785  0.6277 -0.3727
  983MOL0     H32680   6.207  -1.011  -1.586 -0.0169 -0.7587  0.3744
  983MOL0     H32681   5.946  -1.133  -1.689  2.6882  1.3413 -1.2726
  983MOL0     H32682   5.968  -1.141  -1.518  2.3808 -2.2304  1.2307
  983MOL0     H32683   6.192  -1.255  -1.541 -2.1476 -0.1768  2.3726
  983MOL0     H32684   6.077  -1.351  -1.628  2.0798 -1.6420  0.1005
  983MOL0     H32685   5.806  -0.126  -1.481  0.3242 -1.0004  1.1972
  983MOL0     H32686   5.659   0.040  -1.396 -0.9196 -0.0842 -1.0853
  983MOL0     H32687   5.473   0.246  -1.172  2.4631  0.8207  1.3043
  983MOL0     H32688   5.409   0.448  -1.041  0.3846  0.2478 -0.1159
  983MOL0     H32689   5.685   0.429  -0.392  2.1966 -0.5352 -1.0186
  983MOL0     H32690   5.608   0.397  -0.169 -2.2819  0.1102 -0.1202
  983MOL0     H32691   5.416  -0.015   0.090  1.2823 -0.8019 -0.7489
  983MOL0     H32692   5.331  -0.087   0.305 -2.5652  2.4033 -0.4330
  983MOL0     H32693   5.453  -0.209   0.504  0.8566  3.4979 -2.3878
  983MOL0     H32694   5.400  -0.170   0.672  0.0570  1.6174  1.0689
  983MOL0     H32695   5.603  -0.053   0.708  0.3611 -2.2826  2.0063
  983MOL0     H32696   5.672  -0.078   0.547  0.9878 -2.1768  0.0947
  983MOL0     H32697   5.648  -0.281   0.758 -1.5717  0.4139 -0.4525
  983MOL0     H32698   5.786  -0.232   0.668  0.9663 -3.4360 -1.8239
  983MOL0     H32699   5.562  -0.407   0.566  0.9124 -1.3698  1.9850
  983MOL0     H32700   5.675  -0.312   0.453  0.9573  0.1903 -0.4610
  983MOL0     H32701   5.925  -0.635   0.529  1.1273 -0.1179  3.3305
  983MOL0     H32702   5.595   0.184   0.502 -0.6015  0.0025  0.3850
  983MOL0     H32703   5.801   0.300   0.270  0.5518  1.3675  1.6891
  983MOL0     H32704   5.664   0.399   0.222 -0.2619  0.5690  1.2571
  983MOL0     H32705   5.697   0.365   0.386 -0.1017  0.4192 -0.5888
  984MOL0     O32706   6.200   8.544   5.753 -0.4320 -0.4451 -0.0307
  984MOL0     C32707   6.178   8.465   5.669 -0.3214 -0.0274  0.1183
  984MOL0     O32708   6.219   8.474   5.538 -0.4838 -0.5548  0.5562
  984MOL0     C32709   6.292   8.574   5.484  0.6106 -0.7461  0.6776
  984MOL0     C32710   6.307   8.714   5.524 -0.6332  0.4513  1.2975
  984MOL0     C32711   6.375   8.801   5.435 -0.6015  0.4330  0.0531
  984MOL0     C32712   6.417   8.749   5.315  0.9891 -0.4318  1.1888
  984MOL0     O32713   6.486   8.824   5.227  0.6513  0.3517  0.1066
  984MOL0     C32714   6.626   8.803   5.221 -0.2965  0.4041 -0.4043
  984MOL0     C32715   6.675   8.806   5.075 -0.1900  0.8705  0.1935
  984MOL0     C32716   6.830   8.799   5.067 -0.3097  0.2001  0.1972
  984MOL0     C32717   6.886   8.834   4.929  0.1547  0.5498 -0.4159
  984MOL0     C32718   7.036   8.818   4.906  0.1402  0.1139  0.1291
  984MOL0     C32719   7.076   8.837   4.761  0.0946 -0.2861  0.2351
  984MOL0     C32720   7.228   8.851   4.727  0.9836 -0.9135 -0.0878
  984MOL0     C32721   7.307   8.739   4.778  0.8640  0.3435  0.7689
  984MOL0     N32722   7.446   8.734   4.739  0.2493 -0.7980 -0.6725
  984MOL0     C32723   7.507   8.650   4.650  0.3518 -0.0744 -0.4757
  984MOL0     C32724   7.639   8.665   4.663  0.2957  0.6049  0.1133
  984MOL0     C32725   7.731   8.572   4.595  1.4286 -0.0336 -0.1602
  984MOL0     C32726   7.699   8.544   4.447 -0.1042 -0.2853 -0.9442
  984MOL0     C32727   7.721   8.646   4.339  0.2060 -1.0949  0.5986
  984MOL0     C32728   7.688   8.792   4.376  0.8847  0.3554  0.1186
  984MOL0     O32729   7.690   8.873   4.252 -0.2769  0.1810  0.5084
  984MOL0     C32730   7.626   8.992   4.239  0.1548  0.8156  0.2068
  984MOL0     C32731   7.626   9.057   4.117  0.5323  0.7572  0.3325
  984MOL0     C32732   7.549   9.175   4.089  0.3025 -2.0698 -0.0331
  984MOL0     C32733   7.477   9.229   4.192 -0.1489 -0.3531 -0.1815
  984MOL0     C32734   7.388   9.352   4.178 -0.6052 -1.0784 -0.9400
  984MOL0     O32735   7.378   9.435   4.286 -0.3410  0.2534 -0.0127
  984MOL0     C32736   7.295   9.546   4.298 -0.5354 -0.2887  0.1355
  984MOL0     C32737   7.187   9.575   4.205 -0.6292 -0.5134  0.2980
  984MOL0     C32738   7.103   9.689   4.217 -0.6858 -0.0542 -0.8965
  984MOL0     C32739   7.139   9.793   4.309 -0.3896  0.3632 -0.7236
  984MOL0     O32740   7.052   9.903   4.321 -0.5825  1.3045  0.3614
  984MOL0     C32741   7.105  10.019   4.387  0.7415  0.2346  0.6549
  984MOL0     C32742   7.009  10.137   4.388  0.4511  0.8034  0.0777
  984MOL0     C32743   6.981  10.204   4.248  0.5730 -0.0364  0.1496
  984MOL0     C32744   6.835  10.199   4.210 -0.5418  0.1712 -0.2552
  984MOL0     C32745   6.786  10.284   4.087 -0.3147 -0.1046  0.1503
  984MOL0     C32746   6.866  10.263   3.956 -0.1692  0.6810 -0.2141
  984MOL0     C32747   6.776  10.292   3.837 -0.8979  0.1497 -0.2257
  984MOL0     C32748   6.725  10.430   3.812  1.0654 -0.8755 -1.2062
  984MOL0    Cl32749   6.595  10.457   3.696 -0.0013 -0.4917  0.0516
  984MOL0     C32750   7.249   9.761   4.399  0.9102 -0.3710 -0.0061
  984MOL0     C32751   7.328   9.641   4.394 -0.0751 -1.1454 -0.0039
  984MOL0     O32752   7.338   9.373   4.076  0.4574  0.7860  0.5065
  984MOL0     C32753   7.480   9.165   4.317  0.0764  0.0690  0.5804
  984MOL0     C32754   7.559   9.056   4.342 -1.3012  0.8103  0.1316
  984MOL0     N32755   7.658   8.779   4.738 -0.4914  0.0566  0.3287
  984MOL0     N32756   7.545   8.824   4.781  0.1866 -0.3806 -0.0285
  984MOL0     C32757   6.388   8.615   5.271 -0.2744 -0.7962 -0.1764
  984MOL0     C32758   6.320   8.527   5.356  0.5621 -0.0148 -0.2366
  984MOL0     C32759   6.102   8.344   5.708  0.7510 -0.6865  0.1742
  984MOL0     C32760   6.173   8.226   5.722 -0.4786 -0.3935  0.0092
  984MOL0     C32761   6.122   8.114   5.780 -0.5186 -0.1981  0.0890
  984MOL0     C32762   5.999   8.113   5.833  0.5153 -0.9695 -0.3221
  984MOL0     O32763   5.958   8.014   5.916  0.3589 -0.3965 -0.0783
  984MOL0     C32764   5.818   7.982   5.916 -0.0828  0.0739 -0.3746
  984MOL0     C32765   5.783   7.839   5.896  0.3195  0.7189  0.3147
  984MOL0     C32766   5.775   7.776   6.045  0.4409 -0.1861 -0.8177
  984MOL0     C32767   5.744   7.618   6.036  1.0166  0.1023  0.4961
  984MOL0     C32768   5.620   7.612   5.958  0.7256  0.5502  1.0255
  984MOL0     C32769   5.513   7.606   5.899 -0.5039 -0.9436  0.3162
  984MOL0     C32770   5.918   8.233   5.803 -0.9477 -0.4391 -0.0298
  984MOL0     C32771   5.968   8.347   5.743 -0.3564 -0.9687  0.2328
  984MOL0     C32772   5.889   8.471   5.724  0.1141 -0.3939  0.6150
  984MOL0     H32773   6.279   8.752   5.621  0.8703 -0.5550  2.1585
  984MOL0     H32774   6.380   8.908   5.457 -1.4941  0.3276  0.8784
  984MOL0     H32775   6.673   8.874   5.291  2.6945 -0.7238 -1.0888
  984MOL0     H32776   6.646   8.701   5.256  0.8548  0.3036 -1.2734
  984MOL0     H32777   6.647   8.901   5.028  2.0773  1.0482 -0.9220
  984MOL0     H32778   6.631   8.732   5.008  0.3145  1.3680 -0.7063
  984MOL0     H32779   6.860   8.696   5.091  1.7105  0.2427 -1.8363
  984MOL0     H32780   6.875   8.864   5.143  2.4393 -0.4499 -0.7330
  984MOL0     H32781   6.832   8.770   4.859 -0.8128  0.4647  0.3835
  984MOL0     H32782   6.835   8.930   4.915 -5.8260 -1.4027  3.7045
  984MOL0     H32783   7.084   8.893   4.970 -2.6316 -0.6206  3.3446
  984MOL0     H32784   7.069   8.717   4.930  4.7378  0.9852 -1.3701
  984MOL0     H32785   7.044   8.751   4.701  2.6717 -0.3858 -1.1399
  984MOL0     H32786   7.027   8.920   4.710  1.3397 -1.6902 -3.5422
  984MOL0     H32787   7.254   8.942   4.783  3.0116 -2.3548  1.4399
  984MOL0     H32788   7.235   8.872   4.620 -0.5378 -1.5862 -0.3406
  984MOL0     H32789   7.297   8.738   4.887  2.6885 -0.8185  0.9848
  984MOL0     H32790   7.253   8.655   4.734 -1.3600  0.8867  2.2631
  984MOL0     H32791   7.458   8.572   4.592 -0.9773  1.5143 -1.5814
  984MOL0     H32792   7.832   8.613   4.600  1.7049 -0.7304  0.0585
  984MOL0     H32793   7.744   8.484   4.658  0.9584 -0.1163 -0.1710
  984MOL0     H32794   7.776   8.468   4.431  0.8213  0.7320 -1.4789
  984MOL0     H32795   7.599   8.500   4.442 -0.7172  0.9713 -0.2130
  984MOL0     H32796   7.666   8.613   4.251 -0.4024  0.0013  0.5449
  984MOL0     H32797   7.828   8.650   4.314  0.0329  1.3541 -0.0914
  984MOL0     H32798   7.766   8.830   4.442  3.0563 -1.7532 -1.0571
  984MOL0     H32799   7.588   8.788   4.419  1.1922 -0.8690  0.7557
  984MOL0     H32800   7.666   8.999   4.034 -0.4296 -3.2567  2.4228
  984MOL0     H32801   7.543   9.230   3.996  1.3073 -0.0986  1.0018
  984MOL0     H32802   7.163   9.512   4.120  1.6717  0.1709 -0.9583
  984MOL0     H32803   7.022   9.698   4.146 -1.9889 -2.0649  0.2215
  984MOL0     H32804   7.137  10.012   4.492  1.2840 -0.2727  0.4628
  984MOL0     H32805   7.200  10.043   4.338  1.0990  0.2448  1.3390
  984MOL0     H32806   6.921  10.111   4.446 -1.6808  2.5163 -2.1905
  984MOL0     H32807   7.053  10.217   4.448  0.5900 -0.4753  1.7357
  984MOL0     H32808   7.009  10.309   4.245  1.6852 -0.3299 -0.3190
  984MOL0     H32809   7.041  10.146   4.177 -2.7886 -3.5590 -0.1403
  984MOL0     H32810   6.772  10.237   4.291  0.3135 -1.8838  1.4783
  984MOL0     H32811   6.810  10.093   4.196  1.1775 -0.4399  0.9161
  984MOL0     H32812   6.793  10.392   4.106 -2.3329  0.3969 -1.5871
  984MOL0     H32813   6.681  10.259   4.068 -0.4804  1.3531 -1.1670
  984MOL0     H32814   6.963  10.311   3.942  1.1696 -1.6201  0.5753
  984MOL0     H32815   6.889  10.156   3.947  0.2093  0.6797  0.6736
  984MOL0     H32816   6.680  10.241   3.850 -1.4557  1.2155 -0.0374
  984MOL0     H32817   6.827  10.268   3.743  3.4207 -0.8567  2.1253
  984MOL0     H32818   6.691  10.461   3.911  0.0892 -2.0625 -1.1460
  984MOL0     H32819   6.809  10.491   3.779  0.0303  0.4639 -1.4413
  984MOL0     H32820   7.277   9.833   4.475  0.2257  0.5603 -0.6139
  984MOL0     H32821   7.393   9.617   4.478  0.0127  1.5674  0.8323
  984MOL0     H32822   7.426   9.212   4.399 -1.8220 -0.3316 -0.3939
  984MOL0     H32823   7.571   9.017   4.442 -0.0667  4.3860  1.5249
  984MOL0     H32824   6.412   8.579   5.171  0.8362  0.2925 -0.3279
  984MOL0     H32825   6.289   8.429   5.320 -2.2355  0.9263 -0.6251
  984MOL0     H32826   6.279   8.223   5.701 -0.2602 -3.0033  1.0962
  984MOL0     H32827   6.177   8.021   5.797  2.3206  1.3602  0.0958
  984MOL0     H32828   5.774   8.039   5.834  2.8120  1.1992 -1.2951
  984MOL0     H32829   5.772   8.026   6.005 -3.6202  0.4824 -2.2434
  984MOL0     H32830   5.847   7.802   5.815  0.0475  3.7903 -1.4901
  984MOL0     H32831   5.679   7.849   5.865 -0.5620  1.9404  3.3600
  984MOL0     H32832   5.700   7.828   6.105 -1.2115 -2.0718 -1.1555
  984MOL0     H32833   5.867   7.789   6.102 -0.3827  0.3877  0.4264
  984MOL0     H32834   5.825   7.566   5.985 -0.6620 -1.6587 -0.4952
  984MOL0     H32835   5.734   7.573   6.135 -3.0393 -0.5874 -0.0500
  984MOL0     H32836   5.426   7.615   5.836  1.9787  0.0244 -3.2494
  984MOL0     H32837   5.814   8.230   5.832 -0.7867 -2.8329  0.5143
  984MOL0     H32838   5.781   8.456   5.719  0.3218 -1.9864  0.4136
  984MOL0     H32839   5.878   8.538   5.811 -2.6395 -0.6632  0.5678
  984MOL0     H32840   5.932   8.528   5.642  2.6383 -0.1559  2.0105
  985MOL0     O32841   8.287   2.195   5.344  0.4114 -0.4352 -0.4988
  985MOL0     C32842   8.187   2.249   5.389 -0.3863 -0.4491 -0.7465
  985MOL0     O32843   8.063   2.206   5.372 -0.2001  0.0870 -0.5972
  985MOL0     C32844   8.061   2.082   5.302 -0.7594 -0.2611 -0.1471
  985MOL0     C32845   8.042   2.074   5.166 -0.6446  0.4490  0.1456
  985MOL0     C32846   8.042   1.958   5.092 -0.5296  0.4074 -0.8393
  985MOL0     C32847   8.071   1.836   5.152  0.3041  1.0246  0.2111
  985MOL0     O32848   8.072   1.722   5.077 -0.2451 -0.7066  0.2322
  985MOL0     C32849   8.078   1.586   5.127 -0.2361 -0.4110 -0.6217
  985MOL0     C32850   7.944   1.517   5.137  0.8835 -0.6391 -0.2123
  985MOL0     C32851   7.866   1.547   5.009  0.0474 -0.0236 -0.1343
  985MOL0     C32852   7.749   1.449   5.025  0.2957  0.0790 -0.3701
  985MOL0     C32853   7.658   1.437   4.914  0.6040 -0.2427  0.5694
  985MOL0     C32854   7.523   1.363   4.958 -0.9481  0.0662 -0.5525
  985MOL0     C32855   7.532   1.202   4.956 -0.2174  0.8243  1.3006
  985MOL0     C32856   7.580   1.133   5.084 -0.9553 -0.6393 -0.1683
  985MOL0     N32857   7.543   0.992   5.119 -0.2820  0.0273  0.1350
  985MOL0     C32858   7.621   0.886   5.077 -0.4953 -0.3542 -0.6962
  985MOL0     C32859   7.566   0.772   5.114 -0.4752 -0.3062  1.1551
  985MOL0     C32860   7.633   0.643   5.115  0.8297 -0.3625 -0.1780
  985MOL0     C32861   7.754   0.633   5.219 -0.6258  0.1965  0.5132
  985MOL0     C32862   7.718   0.686   5.360 -0.3881 -0.3235  0.1420
  985MOL0     C32863   7.587   0.606   5.410  1.0158 -0.0307  0.5342
  985MOL0     O32864   7.603   0.465   5.426  0.2016 -0.2304  0.0957
  985MOL0     C32865   7.499   0.381   5.424 -0.0644 -0.6663  1.0501
  985MOL0     C32866   7.443   0.344   5.545  0.4958 -0.4830  0.4527
  985MOL0     C32867   7.334   0.259   5.559 -0.0125  0.5584 -0.3095
  985MOL0     C32868   7.279   0.189   5.449  0.2855 -0.9075 -0.1764
  985MOL0     C32869   7.171   0.087   5.452  0.7558 -1.1266 -0.1784
  985MOL0     O32870   7.111   0.052   5.335 -0.3302  0.7382  0.0801
  985MOL0     C32871   7.026  -0.052   5.304 -0.1329  0.1337  0.6228
  985MOL0     C32872   6.952  -0.119   5.402 -0.6373 -0.7729  0.1729
  985MOL0     C32873   6.880  -0.234   5.363  0.1014  0.1696 -0.9565
  985MOL0     C32874   6.870  -0.273   5.231  1.3736  0.4850  0.7621
  985MOL0     O32875   6.798  -0.388   5.205 -0.7411  0.0970  0.0785
  985MOL0     C32876   6.866  -0.509   5.237 -0.2986 -0.5156  0.2056
  985MOL0     C32877   6.784  -0.641   5.207  0.3956 -0.2628 -0.1692
  985MOL0     C32878   6.888  -0.752   5.176 -0.3465 -0.1276 -0.9013
  985MOL0     C32879   6.952  -0.813   5.304  0.2875 -0.0909  0.1993
  985MOL0     C32880   7.068  -0.909   5.274 -0.4504 -1.4641  0.0597
  985MOL0     C32881   7.138  -0.957   5.396 -0.0719 -0.0363 -1.2155
  985MOL0     C32882   7.089  -1.101   5.432 -0.6487 -0.4036  0.6738
  985MOL0     C32883   7.135  -1.144   5.564  0.3056  0.5671 -1.4039
  985MOL0    Cl32884   7.101  -1.322   5.608  0.1761 -0.2149 -0.2681
  985MOL0     C32885   6.938  -0.203   5.130  0.0245 -1.0228  0.0846
  985MOL0     C32886   7.015  -0.091   5.168  0.2783  0.5231  0.5008
  985MOL0     O32887   7.166   0.023   5.552  0.3330 -0.2704  0.7872
  985MOL0     C32888   7.327   0.231   5.331  0.0780 -0.1646  0.8076
  985MOL0     C32889   7.431   0.325   5.312 -0.3138 -0.4223 -0.3086
  985MOL0     N32890   7.444   0.802   5.169 -0.0801 -0.1163 -0.4428
  985MOL0     N32891   7.438   0.932   5.177  0.2344 -0.5614 -0.3611
  985MOL0     C32892   8.093   1.831   5.293 -0.0674 -0.3348 -0.2908
  985MOL0     C32893   8.085   1.955   5.367  0.4857  0.1742 -0.7246
  985MOL0     C32894   8.208   2.375   5.479 -0.3249  0.9878 -0.2171
  985MOL0     C32895   8.313   2.461   5.437  0.2331  0.4736 -0.6074
  985MOL0     C32896   8.321   2.587   5.503 -0.0814  0.3929 -0.0635
  985MOL0     C32897   8.253   2.621   5.610 -0.0638 -0.4750  0.5581
  985MOL0     O32898   8.286   2.726   5.685 -0.1196 -0.1994  0.2088
  985MOL0     C32899   8.427   2.737   5.725  0.0162  0.8011 -0.1720
  985MOL0     C32900   8.432   2.648   5.857 -0.0854 -1.1762 -0.8847
  985MOL0     C32901   8.322   2.682   5.958  0.0357 -0.6849  0.2731
  985MOL0     C32902   8.336   2.830   6.007  0.4199  0.6209 -0.4209
  985MOL0     C32903   8.458   2.848   6.079 -0.6048  0.7972 -0.0888
  985MOL0     C32904   8.559   2.859   6.151 -0.7444 -0.2731  0.7632
  985MOL0     C32905   8.159   2.540   5.657  0.1485  0.3966 -0.5257
  985MOL0     C32906   8.127   2.417   5.588 -0.5670  0.1175 -0.1425
  985MOL0     C32907   8.011   2.336   5.644  0.0753 -0.8853  0.3043
  985MOL0     H32908   8.021   2.165   5.110 -1.6274 -1.1649 -2.2684
  985MOL0     H32909   8.030   1.956   4.984 -2.7933 -0.4497 -0.6193
  985MOL0     H32910   8.139   1.544   5.046  1.0335 -2.4092  1.2537
  985MOL0     H32911   8.141   1.578   5.216  2.3601 -0.7051 -2.3613
  985MOL0     H32912   7.885   1.560   5.219  0.4359 -0.2512 -0.7374
  985MOL0     H32913   7.964   1.412   5.164 -2.1124 -0.7343  2.2118
  985MOL0     H32914   7.927   1.517   4.923  2.9704 -0.0398  1.7866
  985MOL0     H32915   7.843   1.652   4.988  0.9072 -0.4154 -3.6629
  985MOL0     H32916   7.788   1.350   5.051  1.8299  1.0400  1.2221
  985MOL0     H32917   7.701   1.478   5.119  2.5967 -1.6323  1.4629
  985MOL0     H32918   7.653   1.537   4.870  4.0949 -0.4648 -0.5941
  985MOL0     H32919   7.703   1.381   4.833  2.0251  2.9095 -1.0074
  985MOL0     H32920   7.496   1.406   5.055  1.0198  0.6497 -0.2122
  985MOL0     H32921   7.441   1.380   4.888 -0.9316 -2.8169 -1.3975
  985MOL0     H32922   7.589   1.169   4.869 -3.1234 -1.9271  0.2360
  985MOL0     H32923   7.430   1.168   4.938  0.7208 -2.5722  1.7733
  985MOL0     H32924   7.689   1.144   5.089 -0.7466 -2.2502 -0.6919
  985MOL0     H32925   7.540   1.201   5.160  0.0751  1.0364 -1.0525
  985MOL0     H32926   7.714   0.880   5.022  0.2842 -2.3993  0.7174
  985MOL0     H32927   7.565   0.564   5.149 -0.8664  1.5836  1.2277
  985MOL0     H32928   7.674   0.613   5.018  1.9012  0.6063 -0.0451
  985MOL0     H32929   7.795   0.532   5.218  0.6924  0.6781  1.8233
  985MOL0     H32930   7.831   0.697   5.174 -0.7742 -0.8785 -1.4017
  985MOL0     H32931   7.695   0.792   5.353 -2.6952 -0.8841 -1.8566
  985MOL0     H32932   7.797   0.670   5.434  0.8092  2.2054 -0.4662
  985MOL0     H32933   7.502   0.623   5.343  1.6260 -0.4223 -0.3748
  985MOL0     H32934   7.557   0.656   5.502  1.4877 -0.8259  1.1347
  985MOL0     H32935   7.476   0.398   5.633  2.7253  1.1349 -1.2589
  985MOL0     H32936   7.288   0.237   5.655  0.8540 -1.3951 -0.2766
  985MOL0     H32937   6.959  -0.094   5.508  0.5188 -1.4362  0.2692
  985MOL0     H32938   6.814  -0.285   5.432 -0.8737  1.9505 -0.4974
  985MOL0     H32939   6.949  -0.487   5.170 -0.4312  4.0613  1.2561
  985MOL0     H32940   6.904  -0.526   5.338  2.9734  1.4186 -0.5600
  985MOL0     H32941   6.717  -0.670   5.289  0.2421 -1.1269 -0.5771
  985MOL0     H32942   6.715  -0.633   5.122 -1.3288 -0.7890  1.1074
  985MOL0     H32943   6.836  -0.835   5.127 -0.3805 -0.6019 -0.0858
  985MOL0     H32944   6.980  -0.727   5.122  1.0194 -2.8089  0.0000
  985MOL0     H32945   6.870  -0.852   5.364 -3.5028  5.4266 -0.6114
  985MOL0     H32946   6.992  -0.724   5.355  1.3102 -0.6031  0.3117
  985MOL0     H32947   7.140  -0.850   5.217 -1.6453 -1.1188 -1.1373
  985MOL0     H32948   7.037  -0.985   5.202 -0.3823 -1.0485 -0.4139
  985MOL0     H32949   7.245  -0.971   5.380 -0.0719 -0.2358 -1.0448
  985MOL0     H32950   7.117  -0.894   5.484  1.0794 -3.4564  1.7573
  985MOL0     H32951   7.139  -1.163   5.357  0.2494  1.1213 -0.0332
  985MOL0     H32952   6.981  -1.115   5.425 -0.6713  0.6508 -1.6902
  985MOL0     H32953   7.242  -1.126   5.577  0.8206 -1.4519 -2.4433
  985MOL0     H32954   7.088  -1.084   5.643 -1.2509  1.0546 -2.6355
  985MOL0     H32955   6.919  -0.232   5.027 -1.4380 -0.0159  0.0406
  985MOL0     H32956   7.069  -0.040   5.089 -0.9837 -1.0119 -1.4670
  985MOL0     H32957   7.276   0.214   5.237 -2.6122 -3.1271  2.5752
  985MOL0     H32958   7.448   0.357   5.209 -0.1802  1.0701  0.1582
  985MOL0     H32959   8.114   1.739   5.347 -0.7842  0.8211  2.0995
  985MOL0     H32960   8.095   1.961   5.475 -1.9422 -0.9024 -0.3699
  985MOL0     H32961   8.371   2.432   5.350  0.5886 -0.0127 -0.2106
  985MOL0     H32962   8.388   2.663   5.464 -2.5440  1.5154 -2.4661
  985MOL0     H32963   8.453   2.840   5.751 -0.8691  0.6162  1.5813
  985MOL0     H32964   8.489   2.693   5.646 -0.4984 -3.0466  1.3335
  985MOL0     H32965   8.534   2.655   5.896  0.4931  0.2632 -2.5578
  985MOL0     H32966   8.410   2.543   5.836 -0.1931 -0.8213 -2.6953
  985MOL0     H32967   8.306   2.612   6.040 -0.3408  0.0380  0.8359
  985MOL0     H32968   8.224   2.687   5.909 -0.1625  1.5230  0.7546
  985MOL0     H32969   8.337   2.910   5.932 -2.1817  1.4672  0.3263
  985MOL0     H32970   8.259   2.843   6.085  2.2722  3.1131  1.1320
  985MOL0     H32971   8.654   2.875   6.198 -1.9170  0.2405  3.1551
  985MOL0     H32972   8.104   2.563   5.748  1.6574  2.7530 -0.1082
  985MOL0     H32973   8.048   2.234   5.629  0.0720 -0.6967 -1.1383
  985MOL0     H32974   8.004   2.355   5.752 -0.5639 -0.9979  0.2887
  985MOL0     H32975   7.921   2.356   5.584 -0.3428  1.6102  1.6079
  986MOL0     O32976   2.574   0.058   3.122 -1.3605 -0.3094 -0.0713
  986MOL0     C32977   2.534  -0.038   3.178 -0.3821 -0.1687 -0.5376
  986MOL0     O32978   2.424  -0.042   3.263 -0.8253 -0.0568  0.0444
  986MOL0     C32979   2.323   0.039   3.234 -0.1072 -0.0011 -1.0267
  986MOL0     C32980   2.253   0.114   3.322 -0.4763 -0.3545  0.2273
  986MOL0     C32981   2.134   0.174   3.282 -0.3225 -0.2311 -0.5264
  986MOL0     C32982   2.084   0.160   3.150 -0.3817  0.1185 -0.3010
  986MOL0     O32983   1.961   0.207   3.102  0.7191 -0.6577 -0.6646
  986MOL0     C32984   1.918   0.336   3.141 -0.4441 -0.0565 -0.2393
  986MOL0     C32985   1.772   0.339   3.095 -0.4947 -0.1107  0.4587
  986MOL0     C32986   1.706   0.469   3.109  0.4508  0.5052 -0.5838
  986MOL0     C32987   1.555   0.442   3.129  0.6077  0.3097 -0.5753
  986MOL0     C32988   1.488   0.578   3.135 -0.2981 -0.4305 -0.1377
  986MOL0     C32989   1.349   0.579   3.060  0.2656 -0.6480 -0.5394
  986MOL0     C32990   1.241   0.492   3.112 -0.6528  0.5794  0.5867
  986MOL0     C32991   1.112   0.525   3.045  0.3359 -0.3500  0.0488
  986MOL0     N32992   0.995   0.480   3.139  0.0884  0.1139 -0.6250
  986MOL0     C32993   0.927   0.543   3.235  0.3058  0.8874  0.4277
  986MOL0     C32994   0.825   0.457   3.261 -0.0957  1.3875  0.7002
  986MOL0     C32995   0.701   0.467   3.351  1.2588  0.2637  0.7463
  986MOL0     C32996   0.702   0.584   3.450  0.8587 -0.0416  0.2446
  986MOL0     C32997   0.617   0.567   3.575  0.0384 -0.4072  0.1761
  986MOL0     C32998   0.473   0.544   3.544  0.0670 -0.1818 -0.4935
  986MOL0     O32999   0.405   0.476   3.655 -0.0277 -0.1940 -0.0026
  986MOL0     C33000   0.337   0.559   3.739  0.0414  0.3834  0.2384
  986MOL0     C33001   0.195   0.554   3.735 -0.3217 -0.2992 -0.1699
  986MOL0     C33002   0.113   0.638   3.809  0.1612 -0.5477 -0.2771
  986MOL0     C33003   0.156   0.712   3.916 -0.4886 -0.0648 -0.4602
  986MOL0     C33004   0.078   0.791   4.006 -0.2362 -0.7799  0.2667
  986MOL0     O33005   0.123   0.791   4.135 -0.7420 -0.0803 -0.4785
  986MOL0     C33006   0.081   0.876   4.237  0.2651 -0.7540 -0.3797
  986MOL0     C33007   0.001   0.993   4.226  0.9145  0.3282 -0.0079
  986MOL0     C33008  -0.030   1.065   4.346  0.0631  0.6054  0.3125
  986MOL0     C33009   0.021   1.026   4.468  0.1489 -0.0284  0.3719
  986MOL0     O33010  -0.022   1.097   4.577 -0.4004  1.0537  0.9198
  986MOL0     C33011   0.029   1.052   4.702  0.2160  0.3647  0.0331
  986MOL0     C33012  -0.032   1.151   4.810  0.3448  0.0841  0.9829
  986MOL0     C33013   0.043   1.292   4.805 -0.1396 -0.6547 -0.1615
  986MOL0     C33014  -0.059   1.404   4.802  0.2552  0.3092 -0.8457
  986MOL0     C33015   0.007   1.539   4.837  0.0114 -0.4293  0.4320
  986MOL0     C33016  -0.102   1.641   4.871 -0.1613 -0.0481 -0.9299
  986MOL0     C33017  -0.066   1.788   4.850 -0.6480 -0.9121 -0.9002
  986MOL0     C33018  -0.133   1.894   4.941  0.0350 -0.2412  0.1442
  986MOL0    Cl33019  -0.066   1.899   5.106  0.6609  0.1768  0.1479
  986MOL0     C33020   0.111   0.922   4.470  0.2444  0.4074  0.6776
  986MOL0     C33021   0.142   0.845   4.357 -0.9392 -0.6316  0.4768
  986MOL0     O33022  -0.012   0.856   3.956 -0.2651 -0.0621 -0.0132
  986MOL0     C33023   0.302   0.715   3.924  0.2487  0.3759  0.0078
  986MOL0     C33024   0.390   0.643   3.838  0.7040 -0.8014  0.3698
  986MOL0     N33025   0.832   0.351   3.165 -0.4557  0.1125  0.0087
  986MOL0     N33026   0.932   0.368   3.096  0.1290  0.4710  0.4313
  986MOL0     C33027   2.156   0.082   3.060  0.3462  1.4465 -0.2972
  986MOL0     C33028   2.273   0.022   3.106 -0.0911  0.1613 -0.0414
  986MOL0     C33029   2.609  -0.176   3.177 -0.0036 -0.5820 -0.5098
  986MOL0     C33030   2.609  -0.249   3.309  0.2948  0.2760  1.4151
  986MOL0     C33031   2.683  -0.354   3.334 -0.2310  0.7181  1.1042
  986MOL0     C33032   2.754  -0.418   3.232  0.2104  0.3626  1.3102
  986MOL0     O33033   2.828  -0.534   3.261 -0.3320 -0.3330  0.9674
  986MOL0     C33034   2.792  -0.625   3.364  0.0812  0.4230 -0.8504
  986MOL0     C33035   2.864  -0.751   3.352 -0.5726  0.5624 -0.3556
  986MOL0     C33036   2.778  -0.881   3.333  0.0075 -0.4946  0.2545
  986MOL0     C33037   2.758  -0.981   3.447  0.4983 -0.2616 -0.0079
  986MOL0     C33038   2.899  -1.010   3.480 -0.1227  0.4656 -0.2610
  986MOL0     C33039   3.008  -1.047   3.510 -0.6555  0.2902  0.7384
  986MOL0     C33040   2.739  -0.372   3.100 -0.0616  0.2063 -0.6237
  986MOL0     C33041   2.672  -0.242   3.071 -0.2817  0.7803  0.6939
  986MOL0     C33042   2.693  -0.177   2.936  0.3224 -0.6982  1.0903
  986MOL0     H33043   2.295   0.118   3.422 -1.8926 -1.3958  0.9027
  986MOL0     H33044   2.073   0.229   3.353 -0.3051 -0.5394 -0.2722
  986MOL0     H33045   1.928   0.355   3.249  5.1937 -1.1879 -0.2676
  986MOL0     H33046   1.976   0.420   3.103  0.2253 -0.0792  0.6700
  986MOL0     H33047   1.720   0.263   3.153  2.2431 -2.7578 -0.2822
  986MOL0     H33048   1.786   0.311   2.990  3.3022  0.9887  0.5187
  986MOL0     H33049   1.716   0.525   3.015 -0.8675 -2.5139 -2.7027
  986MOL0     H33050   1.746   0.522   3.196  1.5424 -0.3307 -0.5661
  986MOL0     H33051   1.522   0.372   3.051 -0.6403  0.8728 -0.5567
  986MOL0     H33052   1.529   0.380   3.215  0.9415  0.2697 -0.4994
  986MOL0     H33053   1.481   0.615   3.238  1.3899  1.7218 -0.7151
  986MOL0     H33054   1.555   0.652   3.089 -0.2452 -0.1086  0.4446
  986MOL0     H33055   1.318   0.684   3.064  2.4220  0.0946 -1.3756
  986MOL0     H33056   1.364   0.550   2.956 -3.6488 -3.4332 -0.5187
  986MOL0     H33057   1.233   0.515   3.218 -0.1407  0.9494  0.5516
  986MOL0     H33058   1.274   0.390   3.094  3.4849  1.7656  0.3788
  986MOL0     H33059   1.099   0.632   3.029  1.1431  0.2845  2.9878
  986MOL0     H33060   1.099   0.471   2.952 -2.6923  1.3529 -0.6425
  986MOL0     H33061   0.934   0.636   3.290 -1.2205  0.7036  0.9732
  986MOL0     H33062   0.619   0.481   3.280  2.1899  0.2466 -0.3547
  986MOL0     H33063   0.666   0.375   3.398  0.8703  0.1467  0.2319
  986MOL0     H33064   0.804   0.595   3.490  1.4993 -1.2633 -0.9781
  986MOL0     H33065   0.681   0.669   3.385  1.2838 -1.2100 -1.4679
  986MOL0     H33066   0.629   0.662   3.628  0.6586 -0.0041 -0.6560
  986MOL0     H33067   0.645   0.475   3.626  0.8293 -0.3550 -0.1515
  986MOL0     H33068   0.460   0.475   3.460  1.0653 -3.0031  1.5480
  986MOL0     H33069   0.428   0.641   3.521  0.8173 -0.5287 -4.1086
  986MOL0     H33070   0.160   0.485   3.659 -0.0480 -2.7210  1.7709
  986MOL0     H33071   0.009   0.621   3.782  0.2942 -2.6321  0.3029
  986MOL0     H33072  -0.051   1.025   4.136  1.6817 -1.9699 -1.3653
  986MOL0     H33073  -0.108   1.141   4.340 -2.4725 -1.8574 -0.1066
  986MOL0     H33074   0.006   0.948   4.729  0.3975  0.3087 -0.0241
  986MOL0     H33075   0.136   1.061   4.719  0.1645 -1.5807  1.8361
  986MOL0     H33076  -0.136   1.165   4.778  0.6775 -1.6105 -1.0843
  986MOL0     H33077  -0.022   1.111   4.911  0.3765  3.1584  2.2891
  986MOL0     H33078   0.095   1.304   4.900 -1.9977  1.1416  0.7064
  986MOL0     H33079   0.117   1.302   4.724 -1.2018  1.6561 -0.9624
  986MOL0     H33080  -0.144   1.391   4.869  1.7446  0.2162  1.1013
  986MOL0     H33081  -0.107   1.401   4.703 -1.6917  3.1729 -0.1146
  986MOL0     H33082   0.062   1.570   4.748  0.5797 -2.3333  0.0777
  986MOL0     H33083   0.076   1.524   4.920  0.9281 -0.5098 -0.3282
  986MOL0     H33084  -0.202   1.622   4.832 -1.7251 -0.6938  2.9434
  986MOL0     H33085  -0.109   1.635   4.980 -2.6208  0.5660 -1.0048
  986MOL0     H33086  -0.095   1.821   4.750 -2.5352 -0.8149 -0.3519
  986MOL0     H33087   0.043   1.788   4.855 -0.5347 -4.5552 -1.1330
  986MOL0     H33088  -0.126   1.991   4.891  2.9741 -0.2292  0.4301
  986MOL0     H33089  -0.238   1.866   4.955  0.4546 -1.1141  1.9751
  986MOL0     H33090   0.143   0.894   4.570 -4.1618  0.8814  2.4137
  986MOL0     H33091   0.221   0.770   4.362 -0.1952  0.1810  1.1953
  986MOL0     H33092   0.358   0.774   3.997  0.6931 -0.3859  0.2937
  986MOL0     H33093   0.499   0.652   3.839  0.6712 -0.3278  1.5772
  986MOL0     H33094   2.103   0.061   2.968 -2.1206  1.1260  1.1121
  986MOL0     H33095   2.318  -0.044   3.033 -0.9450 -0.8914  0.3677
  986MOL0     H33096   2.560  -0.205   3.395  2.2471  1.7702  1.8101
  986MOL0     H33097   2.690  -0.408   3.428  0.5466 -3.2394 -1.0248
  986MOL0     H33098   2.687  -0.656   3.368 -0.1406  1.2643  1.2804
  986MOL0     H33099   2.804  -0.592   3.468 -5.2474 -1.9921  0.8616
  986MOL0     H33100   2.931  -0.757   3.438  1.9094  0.4954 -2.1745
  986MOL0     H33101   2.918  -0.753   3.256 -1.2572 -0.1515 -0.7344
  986MOL0     H33102   2.815  -0.936   3.246  0.1745 -0.9473  0.6103
  986MOL0     H33103   2.677  -0.851   3.305 -0.0749  0.4541  1.4849
  986MOL0     H33104   2.709  -0.932   3.531 -1.8798  2.8684 -2.8964
  986MOL0     H33105   2.714  -1.074   3.409 -0.0271 -0.2902  0.6695
  986MOL0     H33106   3.112  -1.066   3.526  0.1498  3.7801  0.4144
  986MOL0     H33107   2.779  -0.447   3.032  0.7628  0.7112 -0.7073
  986MOL0     H33108   2.750  -0.247   2.874  2.1031  1.6241 -0.0958
  986MOL0     H33109   2.607  -0.138   2.881  0.8647  0.2029  0.8468
  986MOL0     H33110   2.761  -0.092   2.948  0.0109 -0.1355 -0.7930
  987MOL0     O33111   3.489   8.472  10.952  0.1837 -0.2450  0.3996
  987MOL0     C33112   3.503   8.597  10.960 -0.7066  0.6219  0.2793
  987MOL0     O33113   3.621   8.663  10.992  0.8196 -0.2666 -0.5228
  987MOL0     C33114   3.724   8.575  10.985  0.1515  0.3565 -0.1373
  987MOL0     C33115   3.804   8.558  11.101 -0.3443 -0.4896 -0.4638
  987MOL0     C33116   3.903   8.453  11.108 -0.5230  0.1368 -0.7597
  987MOL0     C33117   3.944   8.392  10.992 -0.1414  0.4508  0.5027
  987MOL0     O33118   4.047   8.291  11.005 -0.0950 -0.3413  0.2773
  987MOL0     C33119   4.108   8.220  10.889  0.7167 -0.6690  0.4357
  987MOL0     C33120   4.248   8.172  10.926 -0.1004 -0.2355  0.3020
  987MOL0     C33121   4.345   8.293  10.932 -0.2301  0.6397 -0.1272
  987MOL0     C33122   4.490   8.248  10.947 -0.5402 -0.9739 -0.6050
  987MOL0     C33123   4.575   8.368  10.890 -0.4415 -0.5072 -0.1487
  987MOL0     C33124   4.734   8.354  10.895 -0.1505  0.6599  0.8130
  987MOL0     C33125   4.797   8.219  10.847 -0.9701  0.4236 -0.0343
  987MOL0     C33126   4.938   8.194  10.883  0.4813 -0.4823  0.2842
  987MOL0     N33127   5.014   8.306  10.844 -0.7214  0.0555  0.7592
  987MOL0     C33128   5.007   8.373  10.718 -0.6454  0.2549  0.5339
  987MOL0     C33129   5.097   8.480  10.720  0.4844  0.4224 -0.1927
  987MOL0     C33130   5.147   8.566  10.606  0.0568 -0.5345 -0.7824
  987MOL0     C33131   5.182   8.715  10.653 -0.8200  0.1289  0.6914
  987MOL0     C33132   5.301   8.789  10.573  0.2517  0.5979  0.6840
  987MOL0     C33133   5.322   8.928  10.643  1.0636 -0.2996 -1.0744
  987MOL0     O33134   5.390   9.034  10.565  0.0095 -0.1951  0.5740
  987MOL0     C33135   5.301   9.139  10.546 -0.2059 -0.0622 -0.6452
  987MOL0     C33136   5.352   9.265  10.572 -0.2587 -0.2251  0.3616
  987MOL0     C33137   5.274   9.381  10.562 -0.6453  0.1298 -0.7729
  987MOL0     C33138   5.140   9.365  10.534  0.8698  1.2119  0.3863
  987MOL0     C33139   5.061   9.477  10.514 -0.0896  0.1059 -0.3571
  987MOL0     O33140   5.076   9.579  10.606  0.9663 -0.2964  0.3847
  987MOL0     C33141   5.033   9.704  10.568 -0.5881  0.0225  0.7442
  987MOL0     C33142   4.896   9.737  10.566 -0.7931 -0.7036 -0.3273
  987MOL0     C33143   4.864   9.872  10.543  0.1825 -0.9427 -0.1606
  987MOL0     C33144   4.963   9.966  10.512 -0.6993  0.6049  0.1407
  987MOL0     O33145   4.940  10.097  10.491  0.2819 -0.5507  0.3039
  987MOL0     C33146   4.821  10.153  10.432 -0.8963  0.2214 -0.0559
  987MOL0     C33147   4.814  10.306  10.411  0.7045  0.9889 -0.1399
  987MOL0     C33148   4.937  10.346  10.335 -0.6391 -0.0873  0.9044
  987MOL0     C33149   4.907  10.485  10.278 -0.3419  0.4371  0.1723
  987MOL0     C33150   5.041  10.559  10.260 -1.6537 -0.1614  0.2526
  987MOL0     C33151   5.035  10.685  10.179  0.0862 -0.8703  0.4675
  987MOL0     C33152   5.175  10.761  10.179 -0.1431 -1.0467 -0.5097
  987MOL0     C33153   5.254  10.693  10.060  0.0513 -0.2763 -0.1798
  987MOL0    Cl33154   5.405  10.777  10.010  0.0420  0.1966 -0.1814
  987MOL0     C33155   5.106   9.932  10.507  0.9067 -0.4109  0.1444
  987MOL0     C33156   5.135   9.798  10.532 -0.0840 -0.0432  0.1724
  987MOL0     O33157   5.004   9.486  10.405  0.0788  0.2020  0.3641
  987MOL0     C33158   5.090   9.241  10.499  0.7994 -0.3139  0.1360
  987MOL0     C33159   5.163   9.122  10.503 -0.8239 -0.2127 -0.4152
  987MOL0     N33160   5.154   8.485  10.841 -0.3816  0.0436 -0.9422
  987MOL0     N33161   5.098   8.390  10.916  0.5761  0.5697  0.7549
  987MOL0     C33162   3.888   8.425  10.870 -0.2903  0.9277 -0.0481
  987MOL0     C33163   3.776   8.509  10.875  0.7249 -0.0188 -0.5946
  987MOL0     C33164   3.377   8.675  10.946 -0.8191 -0.0773 -0.8944
  987MOL0     C33165   3.258   8.628  10.993 -0.0711  0.9395  1.0218
  987MOL0     C33166   3.138   8.689  10.973  0.0737  0.1555  0.1442
  987MOL0     C33167   3.134   8.803  10.900 -0.5358 -0.4023 -0.1475
  987MOL0     O33168   3.022   8.857  10.851  0.2917  0.1603  0.4248
  987MOL0     C33169   2.907   8.853  10.937  0.6458  0.9009  0.0386
  987MOL0     C33170   2.916   8.925  11.072 -0.4129 -0.4874 -0.3866
  987MOL0     C33171   2.918   9.071  11.058 -0.0102  0.3056  0.4815
  987MOL0     C33172   3.058   9.137  11.010  0.4807  0.0653 -0.4374
  987MOL0     C33173   3.176   9.076  11.086 -0.2915 -0.1663  0.2631
  987MOL0     C33174   3.268   9.047  11.153  0.4373  0.0553 -0.7830
  987MOL0     C33175   3.250   8.850  10.847  0.2731 -0.2035 -0.2733
  987MOL0     C33176   3.375   8.793  10.859 -1.0134 -0.0673  0.1731
  987MOL0     C33177   3.484   8.845  10.774  0.2870 -0.9575 -0.0092
  987MOL0     H33178   3.785   8.601  11.199  0.2869 -2.5900  0.6428
  987MOL0     H33179   3.945   8.425  11.204  0.6311  2.7908 -0.3824
  987MOL0     H33180   4.054   8.128  10.865  0.8960 -0.5192 -0.5801
  987MOL0     H33181   4.117   8.283  10.800  0.5306 -1.1172  0.0955
  987MOL0     H33182   4.283   8.112  10.842  3.5066  1.5690  0.3353
  987MOL0     H33183   4.240   8.121  11.022 -0.8685 -0.2666  0.2306
  987MOL0     H33184   4.310   8.352  11.017 -0.4674  0.7026 -0.2695
  987MOL0     H33185   4.340   8.356  10.843  4.4497  3.5554  1.3526
  987MOL0     H33186   4.502   8.235  11.055  0.7546 -1.6917 -0.8121
  987MOL0     H33187   4.504   8.151  10.898 -1.4180 -1.5089  0.1577
  987MOL0     H33188   4.552   8.381  10.784  1.3789  0.7032 -0.4420
  987MOL0     H33189   4.554   8.467  10.932 -2.7371 -1.0289  0.0532
  987MOL0     H33190   4.780   8.439  10.843 -0.3239 -1.4973 -3.3501
  987MOL0     H33191   4.759   8.368  11.000 -0.7963  0.1195  1.0439
  987MOL0     H33192   4.777   8.213  10.740 -1.8045 -1.9489  0.1899
  987MOL0     H33193   4.731   8.145  10.893  0.1749 -0.7987 -0.2860
  987MOL0     H33194   4.948   8.196  10.992 -2.0927  1.9375  0.6008
  987MOL0     H33195   4.968   8.097  10.842 -0.6005 -1.3182  1.3832
  987MOL0     H33196   4.940   8.344  10.638  0.3800  0.8813 -0.5924
  987MOL0     H33197   5.244   8.532  10.567  0.7887  3.3133 -2.7701
  987MOL0     H33198   5.079   8.554  10.521  1.6542 -3.8114 -1.7873
  987MOL0     H33199   5.090   8.774  10.641  0.7156  1.9892 -3.9287
  987MOL0     H33200   5.217   8.720  10.757  2.5452 -3.2153 -0.0699
  987MOL0     H33201   5.263   8.800  10.471 -0.5064  0.9974  1.0033
  987MOL0     H33202   5.390   8.728  10.554 -0.0929 -0.0455  1.0906
  987MOL0     H33203   5.397   8.908  10.720 -0.4708  1.0277  0.8874
  987MOL0     H33204   5.228   8.961  10.689  1.1961 -1.2960 -0.0715
  987MOL0     H33205   5.449   9.279  10.617 -0.8859  1.4548  1.3017
  987MOL0     H33206   5.310   9.483  10.572  1.2032 -0.6900  2.7973
  987MOL0     H33207   4.820   9.661  10.583  1.2981 -2.7354  0.3841
  987MOL0     H33208   4.758   9.893  10.541  0.6408  1.6499 -1.6897
  987MOL0     H33209   4.815  10.124  10.326  0.0110 -1.0969  0.2247
  987MOL0     H33210   4.740  10.101  10.483 -2.1952  1.7251 -0.5377
  987MOL0     H33211   4.723  10.331  10.356 -0.1259  0.7665  1.0781
  987MOL0     H33212   4.805  10.363  10.504 -1.7622 -0.0235  0.3288
  987MOL0     H33213   5.015  10.360  10.410 -0.2665  0.0463  0.4970
  987MOL0     H33214   4.975  10.266  10.270  1.0842 -0.1011  1.8759
  987MOL0     H33215   4.846  10.540  10.350 -0.1883  0.7594  0.0568
  987MOL0     H33216   4.848  10.484  10.185  0.2842 -1.0717 -0.2506
  987MOL0     H33217   5.116  10.489  10.222  1.1015  2.4788  0.4520
  987MOL0     H33218   5.069  10.583  10.363  1.1187  2.6985 -0.9925
  987MOL0     H33219   4.986  10.675  10.082 -0.7494  0.0642  0.7768
  987MOL0     H33220   4.970  10.748  10.240  0.4785 -0.6933  0.7044
  987MOL0     H33221   5.222  10.760  10.278  1.5748  1.0879 -1.2120
  987MOL0     H33222   5.166  10.867  10.153  0.5756 -0.8911 -0.1348
  987MOL0     H33223   5.274  10.590  10.089 -0.4368  0.2360  2.2187
  987MOL0     H33224   5.190  10.690   9.971  0.9535  1.9218 -0.9862
  987MOL0     H33225   5.184  10.007  10.496 -0.5837  1.0392 -1.1417
  987MOL0     H33226   5.237   9.763  10.543  0.4387  1.9896  2.7779
  987MOL0     H33227   4.987   9.249  10.466 -0.1465 -0.1646  2.8333
  987MOL0     H33228   5.119   9.027  10.477  0.1067 -1.8610  3.3293
  987MOL0     H33229   3.905   8.396  10.766 -0.7678 -1.0276  0.3710
  987MOL0     H33230   3.726   8.521  10.779  1.0182  0.7652 -0.6564
  987MOL0     H33231   3.242   8.528  11.031  0.4904  0.4626  0.0415
  987MOL0     H33232   3.047   8.633  10.994  1.1672 -1.7426  0.1045
  987MOL0     H33233   2.879   8.751  10.964  1.1130  0.6013 -0.5590
  987MOL0     H33234   2.835   8.903  10.871  0.6004  2.1009  0.9745
  987MOL0     H33235   2.996   8.903  11.144 -0.9286 -0.9765  0.0490
  987MOL0     H33236   2.822   8.907  11.125  0.1098 -5.1388 -0.7064
  987MOL0     H33237   2.899   9.113  11.157  1.5389 -0.5488  1.1683
  987MOL0     H33238   2.826   9.090  11.002 -0.5545 -1.8240  0.5473
  987MOL0     H33239   3.079   9.128  10.903  1.3535  0.6530 -0.3275
  987MOL0     H33240   3.052   9.241  11.043 -1.4952 -1.0439  3.2889
  987MOL0     H33241   3.366   9.023  11.189  0.5913  2.0311  0.2770
  987MOL0     H33242   3.238   8.940  10.787 -2.6432  2.7753  4.1587
  987MOL0     H33243   3.504   8.782  10.687 -2.4880  0.2675 -1.6723
  987MOL0     H33244   3.461   8.946  10.738  0.7935 -0.7872  0.1394
  987MOL0     H33245   3.569   8.852  10.842 -0.5831  2.4237  0.9592
  988MOL0     O33246   9.946   6.901   3.100 -0.0060 -1.1494 -0.4899
  988MOL0     C33247   9.852   6.962   3.144  1.1428  0.2990 -0.9448
  988MOL0     O33248   9.721   6.925   3.142 -0.4523  0.5348  0.8703
  988MOL0     C33249   9.703   6.790   3.118  0.3594  0.3920 -0.5974
  988MOL0     C33250   9.661   6.761   2.990  0.4016 -0.2446 -0.2203
  988MOL0     C33251   9.648   6.629   2.949 -0.3180 -0.0498 -0.7562
  988MOL0     C33252   9.661   6.527   3.047  0.2327  0.5126  0.1582
  988MOL0     O33253   9.627   6.401   2.993 -0.2314 -0.5049  0.1293
  988MOL0     C33254   9.612   6.281   3.068  0.6976  0.2166 -0.4371
  988MOL0     C33255   9.754   6.233   3.065  0.3752  0.9674  0.2408
  988MOL0     C33256   9.775   6.103   3.145  0.9080 -0.4680 -0.9842
  988MOL0     C33257   9.785   6.118   3.302  0.2800  0.0379  0.4348
  988MOL0     C33258   9.799   5.990   3.385  0.4802 -0.5883  0.5017
  988MOL0     C33259   9.651   5.947   3.408  0.5214  0.0497 -0.1347
  988MOL0     C33260   9.659   5.838   3.521 -0.2105 -0.2365  0.4239
  988MOL0     C33261   9.525   5.776   3.562 -0.4428  0.1312 -0.3293
  988MOL0     N33262   9.449   5.863   3.649  0.1116  0.2115 -0.4122
  988MOL0     C33263   9.365   5.961   3.603 -0.2887  0.3357  0.2446
  988MOL0     C33264   9.265   5.984   3.700 -1.4642  0.3582 -0.1994
  988MOL0     C33265   9.152   6.076   3.703  0.3812  0.5558 -0.2785
  988MOL0     C33266   9.158   6.187   3.599  0.0252 -0.2791  0.2952
  988MOL0     C33267   9.035   6.269   3.571 -0.0635 -0.2282 -0.4131
  988MOL0     C33268   8.986   6.360   3.686  0.4836 -0.6484  0.5128
  988MOL0     O33269   8.874   6.446   3.642  0.5172 -0.0206  0.4652
  988MOL0     C33270   8.883   6.568   3.586 -0.0562 -0.2169  0.1191
  988MOL0     C33271   8.761   6.621   3.564  0.2693  0.0997 -1.5224
  988MOL0     C33272   8.747   6.741   3.500 -0.9645 -0.2443  0.1007
  988MOL0     C33273   8.865   6.809   3.466  0.1769 -1.9583 -0.2309
  988MOL0     C33274   8.865   6.944   3.406  0.2730 -0.1673 -0.1819
  988MOL0     O33275   8.981   6.967   3.328  0.0754  0.2117  0.1042
  988MOL0     C33276   8.996   7.091   3.271  0.1077  1.1103 -0.1339
  988MOL0     C33277   9.008   7.108   3.137 -0.2467  0.6434  0.2419
  988MOL0     C33278   9.022   7.235   3.089 -0.2485 -1.0508  0.1499
  988MOL0     C33279   9.039   7.342   3.176 -0.7663 -0.0513  0.0496
  988MOL0     O33280   9.057   7.463   3.115 -0.1943  0.5612 -0.4600
  988MOL0     C33281   9.061   7.578   3.198  1.0694  0.5327 -0.3452
  988MOL0     C33282   9.064   7.709   3.116 -1.0687 -0.5763 -0.1402
  988MOL0     C33283   8.998   7.826   3.196 -1.2360 -0.2371  1.0936
  988MOL0     C33284   9.047   7.968   3.159 -0.3725 -0.9421 -0.2745
  988MOL0     C33285   8.938   8.072   3.154 -0.4944 -0.1644 -0.6735
  988MOL0     C33286   8.989   8.209   3.107  1.0253  0.6615 -0.3687
  988MOL0     C33287   8.884   8.316   3.117 -0.2701  0.3900 -0.4018
  988MOL0     C33288   8.901   8.431   3.018 -0.0994  0.1844 -0.4475
  988MOL0    Cl33289   8.916   8.373   2.852  0.0774 -0.2497 -0.0685
  988MOL0     C33290   9.045   7.324   3.313  0.8095 -0.8432 -0.1811
  988MOL0     C33291   9.005   7.200   3.356 -0.7145  0.4003  0.5790
  988MOL0     O33292   8.760   7.006   3.397  0.1695  1.2019 -0.2451
  988MOL0     C33293   9.000   6.766   3.507 -0.0532  0.0195 -0.4151
  988MOL0     C33294   9.003   6.634   3.557  0.6326 -0.6485 -0.1401
  988MOL0     N33295   9.296   5.904   3.799  0.7884 -0.0610 -0.0785
  988MOL0     N33296   9.403   5.837   3.777  0.0042  0.7237  0.0266
  988MOL0     C33297   9.706   6.554   3.175  0.6977  0.2673 -0.1062
  988MOL0     C33298   9.715   6.691   3.213  0.1394  0.7295 -0.0276
  988MOL0     C33299   9.885   7.113   3.189 -0.5029  1.0227 -0.1412
  988MOL0     C33300   9.791   7.194   3.249  0.6471 -0.4006 -0.8380
  988MOL0     C33301   9.828   7.307   3.327  0.5175 -0.1664 -0.0532
  988MOL0     C33302   9.963   7.349   3.329  0.1892 -0.4992 -0.7931
  988MOL0     O33303   9.993   7.460   3.402 -0.9618 -0.0493  0.1197
  988MOL0     C33304  10.122   7.485   3.468 -0.0767  0.7667  0.7786
  988MOL0     C33305  10.102   7.626   3.530  0.5311  0.0208  0.8346
  988MOL0     C33306  10.226   7.663   3.600  0.0218 -0.0038  0.7317
  988MOL0     C33307  10.204   7.779   3.698 -0.5731  0.1459  0.2234
  988MOL0     C33308  10.320   7.867   3.706  0.3136  0.7456  0.2649
  988MOL0     C33309  10.406   7.947   3.715 -0.3188  0.8746 -0.8231
  988MOL0     C33310  10.054   7.279   3.246 -0.1311 -0.4576  0.3470
  988MOL0     C33311  10.020   7.159   3.183  0.4927  0.2358 -0.8601
  988MOL0     C33312  10.134   7.087   3.127 -0.6955  0.9003 -0.6082
  988MOL0     H33313   9.643   6.835   2.913  1.3391 -1.1066 -1.3058
  988MOL0     H33314   9.607   6.601   2.852 -2.8121 -0.8966  0.4449
  988MOL0     H33315   9.564   6.286   3.166  2.3707 -2.1645  0.6057
  988MOL0     H33316   9.544   6.211   3.018 -0.2483  0.0757  0.9580
  988MOL0     H33317   9.818   6.314   3.102 -1.3249  2.5360 -0.1104
  988MOL0     H33318   9.781   6.219   2.960  0.3668  5.1367 -0.4856
  988MOL0     H33319   9.874   6.068   3.112  1.7179  0.6006  0.2327
  988MOL0     H33320   9.702   6.028   3.115 -0.5934  1.2204 -1.6962
  988MOL0     H33321   9.864   6.190   3.323  0.3489 -0.2944  1.3535
  988MOL0     H33322   9.697   6.172   3.337  1.4803  0.3455  3.2197
  988MOL0     H33323   9.868   5.920   3.335  2.5256  1.5769  0.1011
  988MOL0     H33324   9.837   6.007   3.486 -1.8092  4.8478  0.7462
  988MOL0     H33325   9.586   6.031   3.432 -0.7931 -0.4663 -1.6821
  988MOL0     H33326   9.607   5.907   3.316 -0.4244 -0.6025  0.5850
  988MOL0     H33327   9.701   5.899   3.602  1.7136  0.7848 -1.2603
  988MOL0     H33328   9.730   5.765   3.481  1.9122  0.0617  3.2686
  988MOL0     H33329   9.467   5.748   3.474 -0.8940 -0.2339  0.0780
  988MOL0     H33330   9.552   5.684   3.615 -3.7938 -1.4550 -1.1148
  988MOL0     H33331   9.373   6.020   3.512 -0.6403 -0.0325 -0.0282
  988MOL0     H33332   9.060   6.017   3.700 -0.2434  1.2781  2.5562
  988MOL0     H33333   9.161   6.121   3.802 -1.5257  0.5841 -0.0847
  988MOL0     H33334   9.244   6.245   3.633 -1.2109  0.2709  2.7366
  988MOL0     H33335   9.192   6.134   3.510 -0.3304  1.4931 -0.9582
  988MOL0     H33336   8.965   6.189   3.544  1.2210 -1.2516 -0.8117
  988MOL0     H33337   9.055   6.334   3.485  0.5743 -3.0978 -2.5937
  988MOL0     H33338   9.072   6.417   3.723  0.4800 -1.3811  1.7188
  988MOL0     H33339   8.948   6.309   3.775  2.5517 -3.1709  0.0684
  988MOL0     H33340   8.672   6.562   3.584  0.7319 -0.7503 -1.9000
  988MOL0     H33341   8.651   6.774   3.462 -0.2476  2.5993  0.5647
  988MOL0     H33342   9.000   7.031   3.061 -0.4159 -0.2341  1.1262
  988MOL0     H33343   9.021   7.246   2.981  0.7695 -1.5322  0.0817
  988MOL0     H33344   8.979   7.561   3.269  3.2785 -3.1720  1.6260
  988MOL0     H33345   9.146   7.584   3.267 -0.5376 -2.8606  2.2668
  988MOL0     H33346   9.168   7.738   3.100 -2.4184  3.5037 -3.4420
  988MOL0     H33347   9.014   7.684   3.021 -1.8222  0.0908  0.0689
  988MOL0     H33348   8.890   7.806   3.199 -0.7634 -3.1301  2.0181
  988MOL0     H33349   9.027   7.814   3.300 -2.7125 -2.3243  1.3377
  988MOL0     H33350   9.081   7.967   3.055 -0.1862  1.0146 -0.2688
  988MOL0     H33351   9.124   7.988   3.235 -0.0250 -2.3547 -0.2354
  988MOL0     H33352   8.897   8.090   3.253  1.2675  0.4194 -0.0046
  988MOL0     H33353   8.860   8.028   3.092 -0.9100  2.5948 -2.2908
  988MOL0     H33354   9.080   8.232   3.163  2.2801  0.1430 -2.0926
  988MOL0     H33355   9.026   8.192   3.005  2.5508 -1.7065  0.5060
  988MOL0     H33356   8.898   8.339   3.223  1.2936 -0.5384 -0.3786
  988MOL0     H33357   8.784   8.277   3.094  0.0456  0.1539 -1.4184
  988MOL0     H33358   8.802   8.477   3.027 -0.4038 -0.8890  3.8653
  988MOL0     H33359   8.987   8.489   3.053  0.5112 -2.5763  3.2676
  988MOL0     H33360   9.058   7.405   3.384 -2.0295 -0.4638  0.0276
  988MOL0     H33361   9.009   7.182   3.463  1.8424 -1.7993  0.2302
  988MOL0     H33362   9.093   6.817   3.483  0.0583  0.1844  0.3453
  988MOL0     H33363   9.099   6.583   3.570  0.4538 -1.9115 -2.9021
  988MOL0     H33364   9.731   6.473   3.243  0.1180 -0.4654 -0.7568
  988MOL0     H33365   9.760   6.712   3.309  1.9575 -2.2879 -0.0775
  988MOL0     H33366   9.686   7.170   3.263  0.8566 -0.8683  0.0050
  988MOL0     H33367   9.760   7.372   3.382  0.6451 -0.3631  0.3445
  988MOL0     H33368  10.202   7.477   3.393  0.8183  1.5394  1.6213
  988MOL0     H33369  10.144   7.413   3.547  3.0476  0.9450  0.1911
  988MOL0     H33370  10.028   7.614   3.609 -1.5009  0.0449 -0.9883
  988MOL0     H33371  10.068   7.706   3.464  4.2472 -0.3785 -1.8969
  988MOL0     H33372  10.299   7.700   3.527 -1.4782  3.0834  0.6320
  988MOL0     H33373  10.266   7.580   3.659  0.4209 -0.3558 -0.0303
  988MOL0     H33374  10.125   7.840   3.653 -1.0143  0.5250  1.4635
  988MOL0     H33375  10.180   7.740   3.797 -1.5216  1.4990  0.5481
  988MOL0     H33376  10.481   8.023   3.724 -1.1269  1.4746  1.7581
  988MOL0     H33377  10.159   7.302   3.255 -0.4574  0.4347  2.2402
  988MOL0     H33378  10.115   7.063   3.022 -0.9688  0.1480 -0.3982
  988MOL0     H33379  10.225   7.147   3.120 -0.8538  1.0621 -1.3785
  988MOL0     H33380  10.154   6.997   3.187 -1.3223  1.0376 -0.1868
  989MOL0     O33381   5.645   1.099   5.688  0.2261 -0.1227 -0.2182
  989MOL0     C33382   5.529   1.123   5.712  0.7731 -0.3674 -0.6652
  989MOL0     O33383   5.467   1.239   5.715  0.1951 -0.1073 -0.0148
  989MOL0     C33384   5.540   1.355   5.711  0.5566  0.2486  0.0953
  989MOL0     C33385   5.483   1.460   5.783  0.0908 -0.1456  0.2616
  989MOL0     C33386   5.548   1.587   5.781 -0.6576 -0.3076  0.1410
  989MOL0     C33387   5.653   1.604   5.691  0.2414 -0.3551  0.2055
  989MOL0     O33388   5.698   1.730   5.680  0.0094 -0.0194  0.6358
  989MOL0     C33389   5.654   1.805   5.559  0.0240 -0.4047  1.4036
  989MOL0     C33390   5.700   1.947   5.554  0.2029 -0.2040 -0.1355
  989MOL0     C33391   5.620   2.013   5.437 -0.5746  0.3407  0.2471
  989MOL0     C33392   5.600   2.156   5.458 -0.6516 -0.3642 -0.6907
  989MOL0     C33393   5.504   2.206   5.358  1.1007 -0.8213  0.0598
  989MOL0     C33394   5.480   2.357   5.367  0.1901  0.1848 -0.2156
  989MOL0     C33395   5.592   2.441   5.315  0.7882 -0.2730 -0.1425
  989MOL0     C33396   5.535   2.578   5.306  0.5641 -1.0227 -0.6116
  989MOL0     N33397   5.565   2.672   5.419 -0.2262 -0.5004 -0.6082
  989MOL0     C33398   5.583   2.643   5.549 -0.3908 -0.0013  0.1455
  989MOL0     C33399   5.606   2.767   5.608 -1.2064 -0.3049  0.1349
  989MOL0     C33400   5.652   2.777   5.751  0.2860 -0.3106  0.2835
  989MOL0     C33401   5.624   2.923   5.804  0.5390  0.9524  0.7502
  989MOL0     C33402   5.654   2.933   5.955 -0.7018 -0.4778  1.1881
  989MOL0     C33403   5.629   3.074   5.992  0.3465 -0.3019  0.0564
  989MOL0     O33404   5.636   3.080   6.128 -0.4380  0.4999  0.4302
  989MOL0     C33405   5.647   3.202   6.197  1.0195 -0.1190  0.0402
  989MOL0     C33406   5.700   3.318   6.136 -0.4320 -0.0915 -0.3598
  989MOL0     C33407   5.685   3.441   6.205 -0.4673 -1.1110 -1.3342
  989MOL0     C33408   5.634   3.452   6.336  0.0633  1.0152  0.7110
  989MOL0     C33409   5.639   3.575   6.417  0.2122 -0.4208  0.1329
  989MOL0     O33410   5.583   3.565   6.545 -0.5322 -0.5845 -0.0571
  989MOL0     C33411   5.584   3.679   6.627 -0.3201  0.7795  0.7327
  989MOL0     C33412   5.511   3.787   6.598  0.1869  0.0890 -0.2490
  989MOL0     C33413   5.493   3.890   6.687 -0.1536  0.2761  0.6144
  989MOL0     C33414   5.566   3.898   6.806  0.2921 -0.0273  0.7069
  989MOL0     O33415   5.552   3.999   6.898  0.3072  0.5404 -0.5162
  989MOL0     C33416   5.491   4.124   6.850 -0.0187  0.0874 -0.1536
  989MOL0     C33417   5.531   4.246   6.933 -0.1381  0.3281 -0.8045
  989MOL0     C33418   5.502   4.247   7.082  0.4104  0.2384 -0.3378
  989MOL0     C33419   5.547   4.393   7.137  0.1252  0.1870 -0.6787
  989MOL0     C33420   5.536   4.404   7.296 -0.4439 -0.2926  0.8794
  989MOL0     C33421   5.622   4.522   7.344  0.0933 -1.2259 -0.4790
  989MOL0     C33422   5.660   4.522   7.494  0.8958 -0.9681  0.4404
  989MOL0     C33423   5.764   4.619   7.538 -0.2231  0.0663  0.2777
  989MOL0    Cl33424   5.699   4.793   7.563  0.6418 -0.5234  0.3526
  989MOL0     C33425   5.623   3.785   6.850 -1.1408 -0.1385 -0.7458
  989MOL0     C33426   5.638   3.677   6.756 -0.4091 -0.4142 -0.1678
  989MOL0     O33427   5.665   3.680   6.353 -0.8479  0.7202  0.0997
  989MOL0     C33428   5.574   3.334   6.393  0.5936  0.0937  0.1718
  989MOL0     C33429   5.580   3.214   6.326  0.7925 -0.3028  0.8757
  989MOL0     N33430   5.607   2.865   5.509 -1.3077 -0.1012  0.5503
  989MOL0     N33431   5.579   2.808   5.397  1.1823  0.2138  0.4791
  989MOL0     C33432   5.700   1.502   5.612  0.0623  0.4502 -0.0096
  989MOL0     C33433   5.649   1.378   5.624 -0.2048  1.4534  0.8335
  989MOL0     C33434   5.444   1.020   5.784  0.9922  0.3615  0.7718
  989MOL0     C33435   5.304   1.041   5.817  0.1144  0.0771  0.1908
  989MOL0     C33436   5.231   0.945   5.884  0.5587 -0.4269  0.0899
  989MOL0     C33437   5.276   0.820   5.915  0.1021 -0.3565 -0.6190
  989MOL0     O33438   5.202   0.738   5.990  0.5717  0.0241 -0.4526
  989MOL0     C33439   5.258   0.695   6.111  0.9227  0.5881 -0.2471
  989MOL0     C33440   5.145   0.624   6.193 -1.1901 -0.3829 -0.7681
  989MOL0     C33441   5.127   0.492   6.129  0.1401 -0.7935 -0.1185
  989MOL0     C33442   4.981   0.449   6.145 -0.1610 -0.4528 -1.0646
  989MOL0     C33443   4.973   0.308   6.102 -0.3475 -0.2228  0.1510
  989MOL0     C33444   4.971   0.195   6.073 -0.4158 -0.7549  0.0044
  989MOL0     C33445   5.406   0.789   5.867 -0.2399  0.0829 -0.3024
  989MOL0     C33446   5.495   0.884   5.816  0.1615 -0.6596  0.1440
  989MOL0     C33447   5.640   0.833   5.791 -0.4385  0.0067  0.3162
  989MOL0     H33448   5.390   1.445   5.836 -1.1355 -3.2589 -2.4146
  989MOL0     H33449   5.509   1.662   5.849 -0.9170 -0.9710  0.7377
  989MOL0     H33450   5.695   1.753   5.472  2.3629 -1.3698  2.9878
  989MOL0     H33451   5.545   1.811   5.562  0.0284  0.3769  0.3538
  989MOL0     H33452   5.809   1.951   5.541 -0.0302  0.6827 -2.1518
  989MOL0     H33453   5.664   2.002   5.642  2.0313 -0.9423  1.1665
  989MOL0     H33454   5.528   1.963   5.404  0.5706  0.2865 -3.3000
  989MOL0     H33455   5.676   1.994   5.345 -2.3338 -1.4161 -0.5334
  989MOL0     H33456   5.548   2.166   5.553 -0.2097 -0.6398 -0.4141
  989MOL0     H33457   5.696   2.209   5.467  0.0855 -1.8344  0.6277
  989MOL0     H33458   5.535   2.170   5.260  1.2953  0.0339 -0.2035
  989MOL0     H33459   5.405   2.164   5.378  1.1478 -0.5718  0.8569
  989MOL0     H33460   5.395   2.377   5.301  1.1514 -2.7724 -2.5648
  989MOL0     H33461   5.464   2.390   5.470 -2.4186  1.2584 -0.8832
  989MOL0     H33462   5.620   2.403   5.216  3.0827  1.0976 -0.0950
  989MOL0     H33463   5.688   2.450   5.366  0.8741  2.3706 -0.6147
  989MOL0     H33464   5.587   2.628   5.224 -1.2061  1.1952 -0.4882
  989MOL0     H33465   5.427   2.582   5.295  0.3089 -2.5312  0.9314
  989MOL0     H33466   5.594   2.547   5.599 -3.2251 -0.3180  0.3293
  989MOL0     H33467   5.597   2.707   5.814  0.5780 -0.7224  0.0891
  989MOL0     H33468   5.755   2.740   5.761  0.3246  0.2143  2.0916
  989MOL0     H33469   5.682   2.998   5.748  0.8999 -0.6250 -1.0801
  989MOL0     H33470   5.520   2.953   5.789  0.1895 -0.9536 -1.0628
  989MOL0     H33471   5.757   2.899   5.971 -0.5272  0.0839  1.2484
  989MOL0     H33472   5.594   2.857   6.006  2.4201 -1.5464  3.6441
  989MOL0     H33473   5.532   3.107   5.954 -0.1884  0.8632  2.2786
  989MOL0     H33474   5.720   3.120   5.953  0.1027  0.4748  0.3798
  989MOL0     H33475   5.730   3.332   6.033 -3.5257  0.5556 -1.2843
  989MOL0     H33476   5.729   3.532   6.164  2.5945 -1.6259  0.5126
  989MOL0     H33477   5.460   3.789   6.502 -3.1289  1.2062  1.4225
  989MOL0     H33478   5.411   3.957   6.664 -1.0841 -1.1022 -0.2467
  989MOL0     H33479   5.531   4.153   6.752 -1.6362  1.5672 -0.4157
  989MOL0     H33480   5.382   4.115   6.849 -0.0431  0.3511  0.0862
  989MOL0     H33481   5.635   4.278   6.926  0.4206 -1.1716  0.0613
  989MOL0     H33482   5.476   4.325   6.882  1.6478  2.2214  0.0727
  989MOL0     H33483   5.395   4.227   7.095  0.2102  0.9955 -0.7313
  989MOL0     H33484   5.549   4.168   7.140 -1.4922  0.5993  1.8215
  989MOL0     H33485   5.499   4.473   7.080 -2.0486 -1.2851 -1.0432
  989MOL0     H33486   5.654   4.395   7.117  0.2126  1.9546 -0.2462
  989MOL0     H33487   5.576   4.313   7.343 -0.1724 -1.7099 -1.8778
  989MOL0     H33488   5.432   4.412   7.329 -0.8900 -0.1099 -0.5154
  989MOL0     H33489   5.714   4.530   7.284 -1.0718  0.1842 -2.1668
  989MOL0     H33490   5.559   4.610   7.334  0.9887 -0.2597  1.8234
  989MOL0     H33491   5.695   4.418   7.506 -1.4514 -1.6497  1.9968
  989MOL0     H33492   5.568   4.533   7.552  0.0782 -2.5020 -0.4741
  989MOL0     H33493   5.802   4.585   7.635 -3.7958 -0.8897  1.5059
  989MOL0     H33494   5.841   4.624   7.460  0.4153 -3.1037  0.5653
  989MOL0     H33495   5.679   3.790   6.942  0.1360 -2.0415 -1.3620
  989MOL0     H33496   5.704   3.597   6.790  1.5572  1.0200 -0.4680
  989MOL0     H33497   5.522   3.349   6.487  0.8984  0.1462  0.3316
  989MOL0     H33498   5.530   3.124   6.362  2.3894 -1.0676  1.2877
  989MOL0     H33499   5.787   1.522   5.549  2.0351 -1.9970  1.7385
  989MOL0     H33500   5.671   1.293   5.559 -1.5746 -0.9805  3.3534
  989MOL0     H33501   5.269   1.141   5.796  2.3023  0.6645 -0.9001
  989MOL0     H33502   5.138   0.967   5.936  1.8757  2.1605  1.4839
  989MOL0     H33503   5.285   0.781   6.173  0.6681  3.1378 -3.3855
  989MOL0     H33504   5.347   0.634   6.095 -1.1973 -2.6471 -0.7112
  989MOL0     H33505   5.058   0.691   6.191 -0.6956  0.5162  2.5452
  989MOL0     H33506   5.153   0.595   6.298 -2.8032  0.2519 -0.4338
  989MOL0     H33507   5.192   0.408   6.153  3.4463  1.7782  0.7181
  989MOL0     H33508   5.134   0.502   6.020 -2.9287  2.0189 -0.2258
  989MOL0     H33509   4.950   0.456   6.250  0.6774  3.0267 -0.9163
  989MOL0     H33510   4.922   0.515   6.081 -0.6678 -1.7245 -1.9450
  989MOL0     H33511   4.962   0.092   6.047  1.9834 -0.2310 -3.6653
  989MOL0     H33512   5.434   0.685   5.871  1.6181  0.5969  1.2991
  989MOL0     H33513   5.672   0.878   5.697 -4.0504  0.8708 -0.6368
  989MOL0     H33514   5.714   0.872   5.861  1.1050  2.3775 -2.4257
  989MOL0     H33515   5.641   0.723   5.785 -1.2248  0.0485 -1.0406
  990MOL0     O33516   6.364   5.339   4.207  0.0434  1.0391 -0.1150
  990MOL0     C33517   6.295   5.244   4.159  0.1146  0.1373  0.5021
  990MOL0     O33518   6.174   5.200   4.220 -0.0923  0.5157  0.0022
  990MOL0     C33519   6.152   5.251   4.341  0.5204  0.2352 -0.0949
  990MOL0     C33520   6.168   5.177   4.456  0.5191  0.9870  0.0468
  990MOL0     C33521   6.154   5.237   4.584 -0.0358  0.6956 -0.0447
  990MOL0     C33522   6.110   5.373   4.595 -0.2720 -0.3405  0.4945
  990MOL0     O33523   6.087   5.433   4.718  0.0808 -0.3286  0.4160
  990MOL0     C33524   6.122   5.375   4.843  0.1879  0.8635 -0.7746
  990MOL0     C33525   6.056   5.438   4.967 -0.8151 -0.3757  0.9361
  990MOL0     C33526   5.898   5.431   4.966  0.0898  0.1274  0.5943
  990MOL0     C33527   5.827   5.511   5.071 -0.3828 -0.3283  0.1068
  990MOL0     C33528   5.823   5.426   5.196  0.3325  0.7052  0.0568
  990MOL0     C33529   5.740   5.491   5.299 -0.3447  0.2844 -0.5189
  990MOL0     C33530   5.741   5.422   5.431 -0.9154  0.6432  0.6816
  990MOL0     C33531   5.798   5.495   5.554  0.0570  0.3291 -0.7110
  990MOL0     N33532   5.779   5.407   5.671  0.4563  0.8878 -0.3735
  990MOL0     C33533   5.664   5.397   5.750 -0.2653  0.3979 -0.6797
  990MOL0     C33534   5.703   5.314   5.850 -0.2442  0.6226 -0.0214
  990MOL0     C33535   5.597   5.276   5.955 -1.4399 -0.2751 -0.2534
  990MOL0     C33536   5.504   5.165   5.912 -0.5702 -0.0693  0.0921
  990MOL0     C33537   5.578   5.035   5.911  0.2161 -0.5804  0.7451
  990MOL0     C33538   5.495   4.922   5.911 -0.1781 -0.1848 -0.0150
  990MOL0     O33539   5.418   4.919   5.793  0.9239  0.9632 -0.7013
  990MOL0     C33540   5.366   4.798   5.764  0.1126 -0.1683 -0.2846
  990MOL0     C33541   5.340   4.779   5.624  0.9532  1.1034 -0.3476
  990MOL0     C33542   5.290   4.656   5.582  0.1914 -0.1567  0.0762
  990MOL0     C33543   5.254   4.553   5.672 -0.5321 -0.7851 -0.4273
  990MOL0     C33544   5.174   4.437   5.640 -0.3972 -0.0526  0.6745
  990MOL0     O33545   5.169   4.400   5.518 -0.5089  0.7329  0.5189
  990MOL0     C33546   5.134   4.270   5.479 -0.0904 -0.5492  0.3214
  990MOL0     C33547   5.241   4.201   5.419 -0.3030 -0.3078 -0.5841
  990MOL0     C33548   5.229   4.060   5.394 -0.4639  0.6503  0.3397
  990MOL0     C33549   5.121   3.994   5.427 -0.0225 -0.3279 -0.4684
  990MOL0     O33550   5.120   3.867   5.383  0.5062  0.4316 -0.6825
  990MOL0     C33551   4.995   3.796   5.384  0.0476 -0.7386 -0.0969
  990MOL0     C33552   5.012   3.644   5.355  0.5787 -0.9293  0.5326
  990MOL0     C33553   4.893   3.578   5.292 -0.2984  0.0870  0.2835
  990MOL0     C33554   4.901   3.425   5.287 -0.7254  0.4133 -0.5265
  990MOL0     C33555   4.772   3.365   5.250 -0.0542 -0.3644 -0.3239
  990MOL0     C33556   4.791   3.230   5.194 -0.5631  0.8457  0.3178
  990MOL0     C33557   4.670   3.182   5.108 -0.5911  0.2896 -0.2603
  990MOL0     C33558   4.685   3.037   5.061 -0.4461  0.3532  0.0687
  990MOL0    Cl33559   4.536   2.956   4.989 -0.5299  0.1247  0.0044
  990MOL0     C33560   5.004   4.069   5.471  1.0666 -0.3845  0.1795
  990MOL0     C33561   5.016   4.205   5.503 -0.1663 -0.4926  0.5629
  990MOL0     O33562   5.128   4.370   5.734  0.1115 -0.2466 -0.3946
  990MOL0     C33563   5.284   4.573   5.809  0.7353 -0.4190  0.8293
  990MOL0     C33564   5.335   4.696   5.855 -0.3087 -0.4423 -0.4070
  990MOL0     N33565   5.827   5.268   5.829 -0.5414  0.0365  0.2225
  990MOL0     N33566   5.879   5.335   5.733  0.0990 -0.5947 -0.7688
  990MOL0     C33567   6.086   5.450   4.477  0.5128  0.3943 -0.3453
  990MOL0     C33568   6.115   5.391   4.352  0.7734  0.1111  0.0728
  990MOL0     C33569   6.343   5.169   4.033 -0.0627  0.2565 -0.4192
  990MOL0     C33570   6.254   5.080   3.968 -0.0608 -0.0715  1.6984
  990MOL0     C33571   6.280   5.014   3.846  1.0426 -0.5005  0.5311
  990MOL0     C33572   6.399   5.040   3.789 -0.2451 -0.2330  0.8116
  990MOL0     O33573   6.437   4.987   3.667  0.0955 -0.2313  0.2344
  990MOL0     C33574   6.378   4.881   3.599  0.3139 -0.1837  0.3801
  990MOL0     C33575   6.301   4.943   3.476  0.5170 -0.3008  0.6398
  990MOL0     C33576   6.211   4.847   3.398  0.2654 -0.4405 -0.1697
  990MOL0     C33577   6.283   4.743   3.312 -0.0318  0.1146 -0.1487
  990MOL0     C33578   6.383   4.791   3.217  0.0668 -0.3545  0.3560
  990MOL0     C33579   6.455   4.851   3.147 -0.1634  0.5673 -0.1114
  990MOL0     C33580   6.492   5.131   3.855  0.2334  0.1702  0.5813
  990MOL0     C33581   6.464   5.199   3.969 -0.0297 -0.2041  0.6484
  990MOL0     C33582   6.592   5.281   4.023  0.8591 -0.0882 -0.1557
  990MOL0     H33583   6.213   5.079   4.445  0.0056  0.9012 -1.5101
  990MOL0     H33584   6.174   5.176   4.672  2.8830  2.5495  0.7231
  990MOL0     H33585   6.105   5.267   4.841  3.0876  0.3483 -0.8207
  990MOL0     H33586   6.230   5.383   4.855 -0.0643  0.1905  3.1151
  990MOL0     H33587   6.085   5.542   4.982  1.3036 -0.9749  1.4150
  990MOL0     H33588   6.095   5.387   5.055  1.1991  2.0601  1.5468
  990MOL0     H33589   5.859   5.329   4.979 -1.0612  0.1194 -2.1108
  990MOL0     H33590   5.864   5.481   4.874  2.3654 -0.4697 -0.6525
  990MOL0     H33591   5.875   5.608   5.089  0.6028 -1.0090  1.2739
  990MOL0     H33592   5.725   5.527   5.034 -0.2138  0.0283 -0.2149
  990MOL0     H33593   5.786   5.327   5.167  0.3165  0.9390 -0.7260
  990MOL0     H33594   5.925   5.408   5.231  0.2310  2.1403  1.1861
  990MOL0     H33595   5.791   5.586   5.316  0.5274 -0.0801 -1.0601
  990MOL0     H33596   5.634   5.507   5.275  0.1475  0.6128 -2.6685
  990MOL0     H33597   5.792   5.326   5.417  1.5092  2.0622 -0.8752
  990MOL0     H33598   5.636   5.395   5.449 -1.1906  0.4566 -1.0859
  990MOL0     H33599   5.907   5.501   5.551  0.2275 -1.1207  0.6935
  990MOL0     H33600   5.754   5.594   5.569 -1.6619 -0.6886  1.6410
  990MOL0     H33601   5.560   5.426   5.743 -0.5732  0.0169  1.6422
  990MOL0     H33602   5.648   5.247   6.047 -3.9457  2.9743  2.3993
  990MOL0     H33603   5.541   5.364   5.990 -2.8579 -0.5658 -1.6654
  990MOL0     H33604   5.411   5.159   5.970 -2.5754  0.0457 -2.8676
  990MOL0     H33605   5.474   5.193   5.811  1.6752 -2.3329 -1.3247
  990MOL0     H33606   5.649   5.023   5.992  3.5106 -3.1142 -2.2029
  990MOL0     H33607   5.649   5.033   5.828  0.0650  1.5136  0.5272
  990MOL0     H33608   5.443   4.930   6.007  2.0240 -1.1612  1.3399
  990MOL0     H33609   5.556   4.831   5.918  4.5667  2.7214  0.2577
  990MOL0     H33610   5.362   4.869   5.567  1.4865  2.0840  1.3380
  990MOL0     H33611   5.252   4.643   5.481 -1.1760 -0.9229  0.6612
  990MOL0     H33612   5.326   4.264   5.395 -0.9566  0.6619 -0.4435
  990MOL0     H33613   5.316   4.011   5.351 -0.7481 -0.1653  0.6767
  990MOL0     H33614   4.947   3.804   5.482 -1.7454 -2.2785 -0.7915
  990MOL0     H33615   4.925   3.834   5.309 -1.4482  2.4002  2.5977
  990MOL0     H33616   5.095   3.635   5.283  0.7501  0.6615  0.5047
  990MOL0     H33617   5.042   3.594   5.447  1.1197 -3.4495 -0.9144
  990MOL0     H33618   4.815   3.606   5.364  0.9523  0.2536  1.6227
  990MOL0     H33619   4.858   3.622   5.199  1.6347 -1.6532 -1.3659
  990MOL0     H33620   4.927   3.392   5.388 -1.7230 -1.5977 -0.8761
  990MOL0     H33621   4.985   3.390   5.226 -2.0009 -0.8886 -1.5915
  990MOL0     H33622   4.734   3.433   5.173  0.3107  1.4241  1.0113
  990MOL0     H33623   4.705   3.352   5.335 -0.7400 -1.5422 -1.0138
  990MOL0     H33624   4.873   3.234   5.121 -0.9434  1.1939 -0.0946
  990MOL0     H33625   4.815   3.161   5.276  0.1899  1.9131  1.0371
  990MOL0     H33626   4.677   3.251   5.023 -0.5322  0.4268 -0.1431
  990MOL0     H33627   4.574   3.190   5.159  0.4588  0.3983  1.7697
  990MOL0     H33628   4.756   3.028   4.979  0.7543  1.4813  0.9380
  990MOL0     H33629   4.707   2.977   5.151  2.3892  0.5383 -0.4122
  990MOL0     H33630   4.908   4.019   5.482 -0.2687  1.2461 -2.8920
  990MOL0     H33631   4.926   4.262   5.524 -1.1686 -0.6784 -2.7541
  990MOL0     H33632   5.274   4.484   5.871 -0.1349  0.0583  1.3857
  990MOL0     H33633   5.355   4.698   5.962  1.1159  2.5751 -0.6165
  990MOL0     H33634   6.039   5.545   4.496 -1.0249 -0.2133 -0.9241
  990MOL0     H33635   6.112   5.448   4.260  1.1061  0.5997  0.3643
  990MOL0     H33636   6.156   5.065   4.010 -0.2650  0.6565  1.5024
  990MOL0     H33637   6.199   4.949   3.814 -0.0828  0.7701  0.6978
  990MOL0     H33638   6.312   4.821   3.664 -0.5263 -1.1455 -1.2835
  990MOL0     H33639   6.463   4.821   3.564  0.5492  1.4727 -2.1126
  990MOL0     H33640   6.374   4.982   3.405  2.0044 -1.7817  1.2854
  990MOL0     H33641   6.251   5.032   3.515  2.2904  0.3628  1.5459
  990MOL0     H33642   6.143   4.902   3.331  1.0892  1.6909  0.6632
  990MOL0     H33643   6.148   4.794   3.470 -3.3296  3.6130  0.1097
  990MOL0     H33644   6.338   4.681   3.383  1.2502  3.0193  1.5555
  990MOL0     H33645   6.204   4.682   3.267 -0.5612 -0.0046  0.9044
  990MOL0     H33646   6.515   4.905   3.077  0.6447  0.2445  0.3233
  990MOL0     H33647   6.594   5.118   3.819 -0.6083 -1.5156 -1.4171
  990MOL0     H33648   6.598   5.382   3.982  3.1516 -0.0579  0.1370
  990MOL0     H33649   6.574   5.286   4.131 -1.2284 -0.4052 -0.4514
  990MOL0     H33650   6.691   5.236   4.010  1.5603  0.5877  2.2631
  991MOL0     O33651   8.402   5.234   9.374 -0.4128 -0.7743  0.7023
  991MOL0     C33652   8.427   5.336   9.428 -0.8156 -0.0659  0.4713
  991MOL0     O33653   8.550   5.366   9.470  0.8000  0.3826  0.5484
  991MOL0     C33654   8.656   5.330   9.393  0.0942 -0.7612 -1.0665
  991MOL0     C33655   8.651   5.319   9.255 -0.3699  0.6285  0.0415
  991MOL0     C33656   8.757   5.252   9.193 -0.0779 -0.5383 -0.6806
  991MOL0     C33657   8.868   5.198   9.266 -0.7508  0.2573 -0.4508
  991MOL0     O33658   8.968   5.114   9.216 -0.0493 -0.2994 -0.0863
  991MOL0     C33659   9.011   5.143   9.082  0.3040  0.8498  0.4673
  991MOL0     C33660   9.131   5.047   9.043  1.0733 -0.3459  0.3297
  991MOL0     C33661   9.099   4.895   9.043  0.6363 -0.2432  0.1270
  991MOL0     C33662   9.226   4.813   9.049 -0.2833 -0.2771  0.2493
  991MOL0     C33663   9.210   4.663   9.036  0.5524  1.2166 -0.7073
  991MOL0     C33664   9.119   4.601   9.142  1.3126 -1.0825  0.0840
  991MOL0     C33665   9.125   4.445   9.158 -0.2021  0.0785  0.3152
  991MOL0     C33666   9.064   4.355   9.046  0.3955 -0.1974  0.4288
  991MOL0     N33667   8.918   4.369   9.041 -0.2891  0.1403 -0.2875
  991MOL0     C33668   8.830   4.344   9.141 -0.8085 -0.3335 -0.4970
  991MOL0     C33669   8.714   4.377   9.095  0.5924 -0.6462 -0.3142
  991MOL0     C33670   8.579   4.371   9.165  0.3706 -0.0183 -1.1557
  991MOL0     C33671   8.512   4.239   9.136  0.5980 -0.8392 -0.2058
  991MOL0     C33672   8.435   4.227   9.005 -0.4041 -0.0216  0.0792
  991MOL0     C33673   8.344   4.097   9.005 -0.5658 -1.1498 -0.0528
  991MOL0     O33674   8.266   4.084   8.887 -0.1572  0.7273  0.5283
  991MOL0     C33675   8.135   4.127   8.876 -0.4279 -0.0699  0.5286
  991MOL0     C33676   8.063   4.082   8.767  0.4368 -0.2780 -1.0125
  991MOL0     C33677   7.932   4.141   8.754  0.2585 -0.1149 -0.1436
  991MOL0     C33678   7.866   4.212   8.852 -0.5320  0.7922  0.1005
  991MOL0     C33679   7.722   4.249   8.833 -0.2801  1.0228  0.1900
  991MOL0     O33680   7.647   4.270   8.946 -0.5559 -0.4330  0.0927
  991MOL0     C33681   7.520   4.304   8.922 -0.4211  0.0761 -0.0787
  991MOL0     C33682   7.487   4.437   8.913  0.6782 -0.1806 -0.1794
  991MOL0     C33683   7.358   4.477   8.911 -0.6608  0.3141  0.3879
  991MOL0     C33684   7.257   4.379   8.879  0.3159 -0.5999 -0.3803
  991MOL0     O33685   7.138   4.443   8.841  0.1997 -0.4760  0.0026
  991MOL0     C33686   7.046   4.362   8.783 -0.6127 -0.0841  0.1066
  991MOL0     C33687   6.930   4.438   8.712 -0.3175  0.4335  0.5782
  991MOL0     C33688   6.823   4.479   8.808  0.7152 -0.2766 -0.3068
  991MOL0     C33689   6.720   4.578   8.757 -0.4404 -0.2875  0.9605
  991MOL0     C33690   6.792   4.711   8.707  0.3736  0.8909 -0.3846
  991MOL0     C33691   6.695   4.834   8.682 -1.0026  0.3523  1.0324
  991MOL0     C33692   6.784   4.945   8.622 -0.2150  0.2659  0.3142
  991MOL0     C33693   6.718   5.077   8.572  0.5839  0.5379 -0.7208
  991MOL0    Cl33694   6.649   5.142   8.723 -0.4703 -0.3659  0.5492
  991MOL0     C33695   7.295   4.242   8.882  0.4463  0.1089  0.8402
  991MOL0     C33696   7.426   4.208   8.917  0.3068 -0.6866 -1.4286
  991MOL0     O33697   7.673   4.253   8.716 -0.1138  0.5776 -0.7814
  991MOL0     C33698   7.937   4.249   8.968 -0.7246 -0.4894 -0.2591
  991MOL0     C33699   8.076   4.207   8.974  0.5132 -0.2802  1.2055
  991MOL0     N33700   8.721   4.422   8.968  0.6507  0.4617  0.4780
  991MOL0     N33701   8.847   4.425   8.943  0.4221  0.4837  0.5851
  991MOL0     C33702   8.860   5.207   9.409 -0.9938 -0.0838  0.5912
  991MOL0     C33703   8.762   5.276   9.471 -0.4769 -0.3717 -0.5311
  991MOL0     C33704   8.311   5.422   9.457  0.7307 -0.7921  0.0351
  991MOL0     C33705   8.184   5.396   9.403  0.1748  0.0726  1.1628
  991MOL0     C33706   8.067   5.475   9.426 -0.4822 -0.1612  0.8806
  991MOL0     C33707   8.079   5.600   9.497  0.0762 -1.0726  0.9074
  991MOL0     O33708   7.973   5.675   9.537  0.6547 -1.1111  0.1563
  991MOL0     C33709   7.844   5.629   9.495  0.1806 -0.4247 -0.5334
  991MOL0     C33710   7.745   5.733   9.563 -0.5281 -0.3196  0.6056
  991MOL0     C33711   7.741   5.713   9.715 -0.0090 -0.1249 -0.3737
  991MOL0     C33712   7.720   5.844   9.794 -1.3275 -0.3685  0.6089
  991MOL0     C33713   7.606   5.926   9.733 -1.2736 -0.0324 -0.0742
  991MOL0     C33714   7.501   5.967   9.689 -0.0366 -1.2650 -0.7825
  991MOL0     C33715   8.210   5.638   9.537  0.6592  0.0480 -0.5569
  991MOL0     C33716   8.317   5.542   9.529  1.1318 -0.7943  0.5806
  991MOL0     C33717   8.445   5.586   9.598 -0.1822  1.5391 -0.1918
  991MOL0     H33718   8.560   5.342   9.199 -2.9437 -4.5837  1.3834
  991MOL0     H33719   8.736   5.240   9.087  1.1812 -0.2251 -0.9751
  991MOL0     H33720   8.928   5.131   9.012 -0.5204 -4.3181  1.9009
  991MOL0     H33721   9.048   5.246   9.082 -1.9019  1.6937  1.5204
  991MOL0     H33722   9.209   5.061   9.118  0.9591 -0.2023  0.4208
  991MOL0     H33723   9.156   5.080   8.942 -2.8270  0.4977 -0.5513
  991MOL0     H33724   9.048   4.892   8.946  0.5660  4.5886 -0.2386
  991MOL0     H33725   9.022   4.871   9.117 -2.1416 -2.0788 -3.0457
  991MOL0     H33726   9.295   4.833   8.967  1.3917 -2.6486  0.9776
  991MOL0     H33727   9.279   4.830   9.143  1.2848  0.5720 -0.7501
  991MOL0     H33728   9.178   4.638   8.935 -1.0284 -0.4983  0.1370
  991MOL0     H33729   9.314   4.630   9.039  1.3290  3.5087 -1.1776
  991MOL0     H33730   9.142   4.645   9.239 -0.4140 -0.2891  0.1718
  991MOL0     H33731   9.019   4.635   9.114  1.6459 -2.6071 -3.5335
  991MOL0     H33732   9.091   4.411   9.256  0.8223 -2.6455 -0.1859
  991MOL0     H33733   9.231   4.420   9.155 -0.4799 -1.0791 -0.9331
  991MOL0     H33734   9.114   4.378   8.951 -0.1039 -0.9147 -0.0188
  991MOL0     H33735   9.090   4.250   9.066  0.1888 -1.1401 -3.4319
  991MOL0     H33736   8.853   4.298   9.237 -0.1206 -1.6220 -1.2372
  991MOL0     H33737   8.598   4.391   9.271  0.0290 -0.6100 -0.9775
  991MOL0     H33738   8.520   4.453   9.122 -3.4826 -0.8079  1.9757
  991MOL0     H33739   8.577   4.151   9.145 -1.7935 -2.7258 -0.0534
  991MOL0     H33740   8.447   4.218   9.221  0.5367  2.0952  0.5696
  991MOL0     H33741   8.513   4.211   8.930  3.7687 -1.3966  4.2295
  991MOL0     H33742   8.380   4.319   8.984  0.6540  0.8902  1.1496
  991MOL0     H33743   8.278   4.099   9.092  1.5738 -3.9686  1.8191
  991MOL0     H33744   8.403   4.005   9.007 -1.2325 -1.7917 -3.4202
  991MOL0     H33745   8.100   4.014   8.691  1.3356 -0.0032 -0.8307
  991MOL0     H33746   7.885   4.122   8.659  0.2751 -1.8850  0.1798
  991MOL0     H33747   7.567   4.511   8.911 -0.4511  1.2160 -4.1047
  991MOL0     H33748   7.341   4.583   8.927  0.9037  0.8560 -1.1942
  991MOL0     H33749   7.088   4.289   8.712  0.3378  2.5584 -2.2563
  991MOL0     H33750   7.009   4.309   8.871  4.8787  0.7067  3.3740
  991MOL0     H33751   6.986   4.520   8.666  1.1954 -2.1119 -2.5666
  991MOL0     H33752   6.902   4.375   8.626  2.1248 -0.0057  0.0431
  991MOL0     H33753   6.761   4.395   8.841  0.2857  1.4693  3.8693
  991MOL0     H33754   6.868   4.523   8.897  0.0743 -1.5771  0.6936
  991MOL0     H33755   6.652   4.590   8.842 -1.6646 -1.2807  0.1579
  991MOL0     H33756   6.671   4.533   8.670  0.5507 -4.2250  2.2307
  991MOL0     H33757   6.837   4.684   8.611  0.2186 -2.4994  0.3834
  991MOL0     H33758   6.863   4.746   8.782 -0.8751  2.7672  0.0022
  991MOL0     H33759   6.606   4.807   8.624 -0.6772 -2.8002  1.8098
  991MOL0     H33760   6.659   4.861   8.782  0.7510 -0.3942  1.8995
  991MOL0     H33761   6.838   4.912   8.533 -2.8910 -0.0730 -1.2960
  991MOL0     H33762   6.869   4.960   8.689  0.8894  0.4542 -1.0777
  991MOL0     H33763   6.793   5.141   8.525  1.2885  1.3391  1.3878
  991MOL0     H33764   6.638   5.074   8.497 -0.5405  4.9246 -0.0261
  991MOL0     H33765   7.214   4.170   8.869 -2.0045  1.9295  4.2819
  991MOL0     H33766   7.458   4.105   8.927  3.6258  0.4615  1.9150
  991MOL0     H33767   7.886   4.309   9.042  2.1956  2.4513 -0.4170
  991MOL0     H33768   8.127   4.240   9.064  4.0734  0.7049 -0.9809
  991MOL0     H33769   8.926   5.145   9.470 -3.3834  0.2136  3.7113
  991MOL0     H33770   8.764   5.286   9.579 -0.2422 -0.2709 -0.5442
  991MOL0     H33771   8.168   5.301   9.354 -0.6693  0.9678 -0.4082
  991MOL0     H33772   7.969   5.450   9.387 -0.6412 -0.2946  1.3567
  991MOL0     H33773   7.810   5.532   9.534  1.3365 -0.2248  1.0908
  991MOL0     H33774   7.830   5.628   9.387  0.1110 -1.9885 -0.5279
  991MOL0     H33775   7.643   5.708   9.535 -2.0116 -0.0813  5.0290
  991MOL0     H33776   7.768   5.831   9.520  1.8009 -2.6314 -4.2970
  991MOL0     H33777   7.827   5.658   9.756 -2.9599 -4.1741  1.1362
  991MOL0     H33778   7.660   5.641   9.736 -0.5244  0.1190 -1.4767
  991MOL0     H33779   7.708   5.838   9.902 -0.1390 -0.1883  0.7617
  991MOL0     H33780   7.806   5.908   9.771 -0.9610 -0.9522  0.3407
  991MOL0     H33781   7.409   5.991   9.640 -0.7818 -2.2014  0.1380
  991MOL0     H33782   8.218   5.735   9.584  0.5674  0.5380 -1.5323
  991MOL0     H33783   8.468   5.512   9.675 -3.2041  1.9303  1.2351
  991MOL0     H33784   8.533   5.606   9.536 -0.0809  0.4906 -0.4011
  991MOL0     H33785   8.422   5.677   9.654 -0.1031  0.6385  1.3591
  992MOL0     O33786   4.175   9.369   6.191 -0.3650  0.1093 -0.2824
  992MOL0     C33787   4.207   9.475   6.127  0.7789 -0.2319 -0.2262
  992MOL0     O33788   4.165   9.598   6.165 -0.1663  0.4606  0.6720
  992MOL0     C33789   4.078   9.610   6.270 -0.4227 -0.5517  0.1466
  992MOL0     C33790   3.957   9.677   6.245 -0.6406  1.6939 -0.7264
  992MOL0     C33791   3.861   9.680   6.349  0.6338  0.6288 -0.2074
  992MOL0     C33792   3.872   9.629   6.478 -0.7808 -0.4085  1.3740
  992MOL0     O33793   3.776   9.630   6.569 -0.9359  0.3347 -0.8518
  992MOL0     C33794   3.702   9.749   6.583  0.8784  0.4652 -0.7844
  992MOL0     C33795   3.605   9.741   6.700 -1.1878  1.0137 -0.9960
  992MOL0     C33796   3.481   9.655   6.664 -0.4272 -0.5283  0.9893
  992MOL0     C33797   3.394   9.636   6.788 -0.2464  0.1772  0.1941
  992MOL0     C33798   3.289   9.526   6.779 -0.6445  0.7544  0.1439
  992MOL0     C33799   3.338   9.393   6.848 -0.3448 -0.4955  0.0533
  992MOL0     C33800   3.239   9.277   6.822  0.1375  0.1308 -0.3886
  992MOL0     C33801   3.287   9.156   6.894  0.7139 -0.9139  0.1005
  992MOL0     N33802   3.416   9.110   6.846 -0.0109 -0.6209  0.0862
  992MOL0     C33803   3.462   9.088   6.719 -0.1515 -0.0683  0.6594
  992MOL0     C33804   3.595   9.086   6.732  0.2100 -1.2083 -0.3581
  992MOL0     C33805   3.698   9.054   6.620  0.6806 -0.0176  0.3586
  992MOL0     C33806   3.668   9.114   6.482  0.1587 -0.7366 -0.0888
  992MOL0     C33807   3.669   9.265   6.495 -0.3559 -0.0941  0.2097
  992MOL0     C33808   3.630   9.343   6.366  1.2318 -0.9035  0.6759
  992MOL0     O33809   3.490   9.332   6.359 -0.8270  0.2781 -0.1599
  992MOL0     C33810   3.414   9.442   6.324 -0.1040  0.5701  0.1326
  992MOL0     C33811   3.286   9.459   6.377  0.6151 -0.1941 -0.9330
  992MOL0     C33812   3.215   9.584   6.343 -0.3335  0.2189  0.9068
  992MOL0     C33813   3.250   9.663   6.235 -1.6955  1.2383  0.5587
  992MOL0     C33814   3.168   9.763   6.177  0.0769  0.0180 -1.0711
  992MOL0     O33815   3.062   9.801   6.251 -0.0629 -0.8511 -0.3452
  992MOL0     C33816   2.996   9.910   6.194  0.2594  0.4417  0.3748
  992MOL0     C33817   2.856   9.913   6.190 -0.0399 -0.1161 -0.1227
  992MOL0     C33818   2.787  10.037   6.173 -0.3657  0.3859  0.3264
  992MOL0     C33819   2.859  10.152   6.154 -0.6707 -0.3530 -0.1343
  992MOL0     O33820   2.787  10.268   6.137  0.9474  0.0669  0.8733
  992MOL0     C33821   2.852  10.394   6.110 -0.8065 -0.4660  0.3581
  992MOL0     C33822   2.739  10.495   6.073 -0.0741  0.0281  0.9571
  992MOL0     C33823   2.716  10.602   6.171 -1.0097  0.2045 -1.2138
  992MOL0     C33824   2.833  10.702   6.164 -0.9867 -0.9575 -0.4184
  992MOL0     C33825   2.826  10.817   6.266 -0.1844 -0.0546 -0.7998
  992MOL0     C33826   2.877  10.954   6.222 -0.3910 -0.5976  0.0937
  992MOL0     C33827   3.032  10.965   6.215 -0.4542 -0.3739  0.5731
  992MOL0     C33828   3.100  10.999   6.342 -0.0171  0.3077 -0.2845
  992MOL0    Cl33829   3.273  11.044   6.313 -0.0476 -0.1516  0.6139
  992MOL0     C33830   3.001  10.143   6.163  0.4019 -0.4403  0.2794
  992MOL0     C33831   3.067  10.026   6.184  0.3481 -0.7168  0.3833
  992MOL0     O33832   3.193   9.809   6.071 -0.2758  0.5418  0.0396
  992MOL0     C33833   3.379   9.642   6.192 -0.0895 -0.2783  0.1905
  992MOL0     C33834   3.462   9.526   6.230  0.0252 -0.1771  0.1672
  992MOL0     N33835   3.625   9.095   6.866 -0.1565  0.1021 -1.3442
  992MOL0     N33836   3.520   9.103   6.934 -0.3746 -0.1673 -0.1788
  992MOL0     C33837   4.001   9.582   6.502 -0.0488 -0.1235  0.1627
  992MOL0     C33838   4.105   9.569   6.398 -0.3453  0.1010  1.0155
  992MOL0     C33839   4.301   9.464   6.011 -1.1295 -0.2408  0.1849
  992MOL0     C33840   4.343   9.595   5.950 -0.4675  0.7914  0.0188
  992MOL0     C33841   4.422   9.606   5.836  0.2773  0.0868  0.1003
  992MOL0     C33842   4.469   9.490   5.772 -0.0869 -0.0354 -0.1447
  992MOL0     O33843   4.574   9.501   5.684  0.1951  0.7243 -0.0867
  992MOL0     C33844   4.606   9.398   5.592 -0.7952  0.3646 -0.2764
  992MOL0     C33845   4.508   9.326   5.493  0.3995  0.8686  0.0302
  992MOL0     C33846   4.429   9.428   5.407 -0.4619  0.6362  0.0525
  992MOL0     C33847   4.471   9.411   5.258 -0.0044  0.0958 -0.3961
  992MOL0     C33848   4.613   9.453   5.237 -0.4823  0.2025 -0.2094
  992MOL0     C33849   4.726   9.490   5.219 -0.1464  0.8067  0.3409
  992MOL0     C33850   4.436   9.361   5.829  0.3054 -0.3443  0.8735
  992MOL0     C33851   4.354   9.345   5.949  0.5991 -0.7148  0.2783
  992MOL0     C33852   4.326   9.203   5.977  0.5114 -0.4932  0.0696
  992MOL0     H33853   3.930   9.722   6.150  0.1676  3.6032 -0.0860
  992MOL0     H33854   3.763   9.717   6.319 -0.3998  2.5510  4.5480
  992MOL0     H33855   3.761   9.835   6.618  0.4190 -0.2536  1.9857
  992MOL0     H33856   3.643   9.769   6.493  0.1060 -1.4942 -0.7573
  992MOL0     H33857   3.575   9.841   6.734 -0.4251  0.0650  2.8755
  992MOL0     H33858   3.654   9.685   6.779 -1.9936  1.5005 -0.1382
  992MOL0     H33859   3.509   9.559   6.620 -1.5153  1.4069 -4.9040
  992MOL0     H33860   3.431   9.717   6.589 -1.4911  1.3966  3.1419
  992MOL0     H33861   3.462   9.625   6.872 -0.8354 -0.1097  0.6359
  992MOL0     H33862   3.337   9.728   6.806  0.0170  0.7114 -1.4927
  992MOL0     H33863   3.203   9.564   6.835 -0.1921  2.3362 -0.1699
  992MOL0     H33864   3.256   9.512   6.676  1.1836  1.8814 -0.6450
  992MOL0     H33865   3.439   9.366   6.816 -0.4304 -1.3655  0.4817
  992MOL0     H33866   3.357   9.415   6.954  3.4761  1.4644 -0.8297
  992MOL0     H33867   3.236   9.252   6.716 -1.2789 -0.5574 -0.2050
  992MOL0     H33868   3.141   9.292   6.869 -0.2498 -1.0405 -0.7826
  992MOL0     H33869   3.301   9.173   7.001 -1.8406 -1.3113  0.5644
  992MOL0     H33870   3.206   9.082   6.886 -0.9828  0.9552 -0.8266
  992MOL0     H33871   3.403   9.080   6.628 -0.5218  0.1645  0.8764
  992MOL0     H33872   3.800   9.083   6.644  1.2275 -2.3638  1.0829
  992MOL0     H33873   3.691   8.946   6.606 -1.9788  0.2512 -1.1322
  992MOL0     H33874   3.746   9.064   6.424  0.4443 -1.5009  0.9331
  992MOL0     H33875   3.569   9.084   6.446  0.5333  0.5061 -2.3373
  992MOL0     H33876   3.775   9.287   6.511 -0.2570  0.0061 -0.5326
  992MOL0     H33877   3.615   9.308   6.580 -1.8877  0.0952 -0.8073
  992MOL0     H33878   3.679   9.311   6.273  0.5611  0.0770 -0.0339
  992MOL0     H33879   3.659   9.446   6.389 -2.1523  0.4563 -0.5675
  992MOL0     H33880   3.255   9.387   6.451 -0.3985 -1.9963 -3.0145
  992MOL0     H33881   3.116   9.597   6.384 -0.9192 -2.8928  0.6975
  992MOL0     H33882   2.807   9.818   6.206  0.9191 -0.6480 -0.2422
  992MOL0     H33883   2.681  10.059   6.171 -1.2322 -3.0169  1.7506
  992MOL0     H33884   2.909  10.431   6.196  2.6584  1.6105 -2.5915
  992MOL0     H33885   2.925  10.381   6.030  0.4535  4.1938  0.5033
  992MOL0     H33886   2.771  10.540   5.978  2.4780 -1.4408  1.0066
  992MOL0     H33887   2.645  10.446   6.048  0.5482  0.8317 -3.9851
  992MOL0     H33888   2.619  10.652   6.165 -0.0607  2.7925  2.0746
  992MOL0     H33889   2.700  10.550   6.265 -0.4815 -3.0005 -2.7608
  992MOL0     H33890   2.839  10.742   6.062  3.6044 -1.6778 -0.6228
  992MOL0     H33891   2.926  10.645   6.170 -2.5748 -3.6015  4.4114
  992MOL0     H33892   2.889  10.779   6.347  0.0514 -2.3935 -1.9985
  992MOL0     H33893   2.726  10.833   6.308 -0.9760 -1.3506 -2.0888
  992MOL0     H33894   2.833  10.980   6.126 -1.4256 -1.8950  0.1744
  992MOL0     H33895   2.842  11.029   6.294  1.8151  4.2285 -3.3930
  992MOL0     H33896   3.068  11.043   6.148  0.5540 -1.4883 -0.2407
  992MOL0     H33897   3.077  10.878   6.166 -2.9982 -2.9904  2.5224
  992MOL0     H33898   3.049  11.080   6.395  0.6114  1.4110 -1.3113
  992MOL0     H33899   3.107  10.915   6.411 -1.5604 -0.6987 -1.2864
  992MOL0     H33900   3.067  10.230   6.166  3.1612 -2.3843 -0.4986
  992MOL0     H33901   3.175  10.031   6.192  0.6922 -3.6891 -0.9506
  992MOL0     H33902   3.415   9.697   6.105  1.2697  0.5757  1.2447
  992MOL0     H33903   3.556   9.511   6.179 -0.6583 -2.7526 -0.4958
  992MOL0     H33904   4.043   9.561   6.600 -1.4451  0.4688  0.9128
  992MOL0     H33905   4.201   9.526   6.424 -0.2689  0.5360  1.4813
  992MOL0     H33906   4.314   9.689   5.997  3.0430  0.7394  2.6568
  992MOL0     H33907   4.452   9.704   5.799  1.9617 -0.0728  0.9126
  992MOL0     H33908   4.647   9.318   5.654 -4.6656  1.4514  4.3421
  992MOL0     H33909   4.683   9.438   5.525 -0.3494  0.4807  0.2991
  992MOL0     H33910   4.435   9.262   5.545  1.0457 -0.4210 -0.6157
  992MOL0     H33911   4.567   9.261   5.429 -2.0015  0.7777 -2.2738
  992MOL0     H33912   4.453   9.530   5.437 -3.3499  1.2993  0.4244
  992MOL0     H33913   4.325   9.395   5.415  0.2032 -1.4203  0.7263
  992MOL0     H33914   4.469   9.305   5.230  2.2990  0.0113 -0.4197
  992MOL0     H33915   4.402   9.459   5.188 -2.3060 -4.4091 -1.6129
  992MOL0     H33916   4.825   9.529   5.206  0.3203 -0.1211  1.0328
  992MOL0     H33917   4.489   9.274   5.793 -0.0739 -0.4775  0.6202
  992MOL0     H33918   4.379   9.124   5.922 -0.5792 -0.4053 -1.1548
  992MOL0     H33919   4.357   9.189   6.081 -1.4679 -3.1544  0.4174
  992MOL0     H33920   4.220   9.174   5.972 -0.5496  2.6965  1.6218
  993MOL0     O33921   9.556  10.275   3.652 -0.1540 -0.4296 -0.2383
  993MOL0     C33922   9.620  10.350   3.577 -0.2862  0.2704  1.1842
  993MOL0     O33923   9.569  10.448   3.498 -0.3445 -0.2219  0.6153
  993MOL0     C33924   9.440  10.505   3.516 -0.2083 -0.2215 -0.2676
  993MOL0     C33925   9.387  10.507   3.643  0.9983 -1.1390  0.3734
  993MOL0     C33926   9.262  10.558   3.658  0.1833 -0.1995 -0.1667
  993MOL0     C33927   9.187  10.628   3.561 -0.1795 -0.2418  0.5234
  993MOL0     O33928   9.079  10.697   3.594 -0.6951 -0.0908 -0.5158
  993MOL0     C33929   9.054  10.820   3.510 -0.4133 -0.4833 -0.5423
  993MOL0     C33930   8.934  10.891   3.574 -0.8521  0.3140  0.5015
  993MOL0     C33931   8.966  10.967   3.702 -0.3584 -0.4181  0.0041
  993MOL0     C33932   9.073  11.074   3.688 -0.5952 -0.6312  0.2145
  993MOL0     C33933   9.024  11.184   3.587 -0.5847 -0.2550 -0.5561
  993MOL0     C33934   9.089  11.324   3.592  0.3460 -0.1711 -0.1025
  993MOL0     C33935   9.035  11.404   3.716 -0.5917  1.0306 -0.1002
  993MOL0     C33936   9.053  11.556   3.702 -0.0957  0.7168 -0.0880
  993MOL0     N33937   9.073  11.624   3.829 -0.7565 -0.3040  0.1085
  993MOL0     C33938   8.983  11.615   3.932  0.1044  0.1624  0.6063
  993MOL0     C33939   9.032  11.696   4.024  0.1947 -0.8102  0.2106
  993MOL0     C33940   8.975  11.708   4.169  0.8716  0.3045  0.1770
  993MOL0     C33941   8.933  11.853   4.202  0.0647 -0.2876 -0.0623
  993MOL0     C33942   9.043  11.959   4.202 -0.2487 -0.7423 -0.1234
  993MOL0     C33943   9.178  11.910   4.280  0.5638  0.0049 -0.1637
  993MOL0     O33944   9.131  11.844   4.404 -0.2955 -0.0205  0.2474
  993MOL0     C33945   9.223  11.835   4.500  0.0693 -0.4958 -0.1454
  993MOL0     C33946   9.170  11.776   4.623 -0.1822  0.5050 -0.3460
  993MOL0     C33947   9.249  11.774   4.732  0.2825 -0.1003  0.0325
  993MOL0     C33948   9.380  11.828   4.728  0.1406 -0.5147  0.1015
  993MOL0     C33949   9.462  11.837   4.846  0.1413 -0.8060 -0.1435
  993MOL0     O33950   9.593  11.843   4.830 -0.4345  0.4034 -0.2828
  993MOL0     C33951   9.670  11.835   4.946  0.0754 -0.7349 -0.3670
  993MOL0     C33952   9.662  11.725   5.039  0.0870 -0.2028  0.3855
  993MOL0     C33953   9.761  11.715   5.145 -0.4369 -0.3557  0.4922
  993MOL0     C33954   9.846  11.817   5.173 -0.4324 -0.0243  0.1985
  993MOL0     O33955   9.904  11.838   5.296 -0.5730  0.7171  1.2773
  993MOL0     C33956   9.818  11.864   5.407  0.2446 -0.0371  0.5899
  993MOL0     C33957   9.874  11.798   5.532 -0.5322 -0.2268 -0.0520
  993MOL0     C33958  10.009  11.870   5.580  0.9242 -0.9307  0.5700
  993MOL0     C33959  10.064  11.808   5.706 -0.4467  0.0938 -0.1717
  993MOL0     C33960  10.160  11.905   5.793 -0.1521  0.3487  0.5314
  993MOL0     C33961  10.189  11.830   5.920  0.5503  0.1556  0.3136
  993MOL0     C33962  10.257  11.916   6.029  0.3108 -0.2103 -0.8325
  993MOL0     C33963  10.160  12.012   6.101  0.0813  0.5860  0.5957
  993MOL0    Cl33964  10.252  12.103   6.218 -0.2730 -0.1156  0.3786
  993MOL0     C33965   9.858  11.919   5.073  0.5581  0.2486 -0.6522
  993MOL0     C33966   9.774  11.927   4.963  0.1829  0.3695  0.2783
  993MOL0     O33967   9.400  11.858   4.952 -0.2688  0.1921  0.0235
  993MOL0     C33968   9.431  11.881   4.609 -0.3611  0.7939 -0.7550
  993MOL0     C33969   9.353  11.882   4.499 -0.1586 -0.4663  0.0635
  993MOL0     N33970   9.138  11.766   3.973 -0.0661  0.0184  0.9084
  993MOL0     N33971   9.170  11.720   3.855  0.4899  0.3789  0.1426
  993MOL0     C33972   9.244  10.626   3.431  0.9519 -0.5043 -0.1030
  993MOL0     C33973   9.362  10.557   3.407  0.2643  0.1964  0.4382
  993MOL0     C33974   9.765  10.316   3.558 -0.0905  0.5738  0.0993
  993MOL0     C33975   9.852  10.422   3.532 -0.1017 -0.8163 -0.0074
  993MOL0     C33976   9.983  10.406   3.512  0.2934 -0.1290 -0.7787
  993MOL0     C33977  10.047  10.281   3.532 -0.2674 -0.0466  0.8239
  993MOL0     O33978  10.179  10.263   3.512  0.0457  0.2275  0.1495
  993MOL0     C33979  10.209  10.248   3.373  0.3146  0.3252  0.5184
  993MOL0     C33980  10.361  10.217   3.362 -0.1302  0.1373 -0.0363
  993MOL0     C33981  10.402  10.162   3.228 -0.3470 -0.2971 -0.4393
  993MOL0     C33982  10.396  10.277   3.120  0.0297 -0.5223 -0.4472
  993MOL0     C33983  10.457  10.226   2.991 -0.1618  0.9873  0.2831
  993MOL0     C33984  10.508  10.173   2.890  0.2360 -0.1149 -0.3444
  993MOL0     C33985   9.959  10.174   3.556 -0.6686  0.4941 -0.1090
  993MOL0     C33986   9.826  10.188   3.583  0.1234  0.2240  0.2942
  993MOL0     C33987   9.741  10.068   3.625 -0.0792  0.6660 -0.3287
  993MOL0     H33988   9.426  10.460   3.733  1.2707  0.0378  0.8811
  993MOL0     H33989   9.215  10.550   3.755  0.1207 -3.2919 -0.3373
  993MOL0     H33990   9.137  10.889   3.523 -1.2644  0.1171  2.8045
  993MOL0     H33991   9.019  10.804   3.408  0.7010  2.5873 -1.4903
  993MOL0     H33992   8.861  10.817   3.608 -1.5995  1.4016  1.3671
  993MOL0     H33993   8.894  10.959   3.498 -0.7711  2.8517  2.5466
  993MOL0     H33994   8.996  10.896   3.779 -1.2839  1.9155  2.6865
  993MOL0     H33995   8.873  11.013   3.735  0.7969  2.2496 -0.1334
  993MOL0     H33996   9.091  11.127   3.782 -0.0995 -1.4671  0.6057
  993MOL0     H33997   9.169  11.025   3.668 -0.2165 -0.0988  0.6627
  993MOL0     H33998   9.043  11.137   3.491  3.7276  0.4071 -0.2092
  993MOL0     H33999   8.917  11.199   3.606 -0.7263 -3.9754  2.9304
  993MOL0     H34000   9.198  11.326   3.594  0.3579 -0.0431 -0.9286
  993MOL0     H34001   9.075  11.376   3.497  0.9302 -1.2534 -0.8034
  993MOL0     H34002   9.085  11.364   3.805  0.5645  1.3671 -0.5892
  993MOL0     H34003   8.927  11.384   3.720 -0.3451 -1.0272 -2.0993
  993MOL0     H34004   9.145  11.569   3.644  0.6194 -2.8225  0.0131
  993MOL0     H34005   8.973  11.592   3.636  0.5748  0.8025 -0.8657
  993MOL0     H34006   8.915  11.539   3.969 -0.6217  1.0294  1.0951
  993MOL0     H34007   8.886  11.650   4.199  1.0751  1.3580  3.2351
  993MOL0     H34008   9.055  11.665   4.229  0.9208 -1.7310 -1.2634
  993MOL0     H34009   8.850  11.886   4.139 -1.4080 -0.0821  1.8808
  993MOL0     H34010   8.882  11.850   4.299  0.4007  2.6921  0.3088
  993MOL0     H34011   9.004  12.036   4.270  0.6367 -0.2025 -0.2093
  993MOL0     H34012   9.064  12.002   4.104  0.2051  0.4807  0.4846
  993MOL0     H34013   9.233  11.999   4.313 -3.8166  3.0079 -0.1227
  993MOL0     H34014   9.230  11.836   4.218 -1.8700 -1.8053 -0.1811
  993MOL0     H34015   9.064  11.751   4.619 -0.0378 -0.0036 -3.5005
  993MOL0     H34016   9.219  11.744   4.832 -2.1824  1.2968 -0.2105
  993MOL0     H34017   9.574  11.661   5.037 -1.8033  2.2480 -0.9992
  993MOL0     H34018   9.768  11.637   5.220  0.8949 -0.8347 -0.1049
  993MOL0     H34019   9.816  11.972   5.422  0.4793  0.1765 -0.7722
  993MOL0     H34020   9.718  11.826   5.385  0.8321  0.0232 -2.7185
  993MOL0     H34021   9.797  11.800   5.609  0.4655  0.7472  0.9515
  993MOL0     H34022   9.897  11.694   5.508  0.9125  0.6572 -3.0341
  993MOL0     H34023  10.082  11.862   5.499 -0.6240 -2.5540 -0.7512
  993MOL0     H34024   9.984  11.976   5.596  0.2816 -1.1819  1.2694
  993MOL0     H34025  10.120  11.721   5.671 -0.5963 -0.7947  1.6719
  993MOL0     H34026   9.992  11.768   5.778 -1.3922  1.2133 -0.4708
  993MOL0     H34027  10.104  11.997   5.812  0.0585 -0.0451  3.4299
  993MOL0     H34028  10.257  11.922   5.746 -1.2495  1.3031 -1.5414
  993MOL0     H34029  10.099  11.787   5.964 -1.1504  1.3612 -1.8133
  993MOL0     H34030  10.259  11.752   5.887 -2.2332 -2.6431  0.5928
  993MOL0     H34031  10.345  11.976   6.004  0.8103 -0.6307 -0.1035
  993MOL0     H34032  10.288  11.842   6.103 -0.3116 -1.6276 -1.9420
  993MOL0     H34033  10.104  12.075   6.032  0.0234  0.6596  0.7092
  993MOL0     H34034  10.088  11.956   6.162  0.5728 -0.4973  0.2130
  993MOL0     H34035   9.936  11.992   5.094 -1.9864  2.6621  1.1806
  993MOL0     H34036   9.775  12.006   4.888 -2.2607  0.1224 -0.0996
  993MOL0     H34037   9.534  11.914   4.612  0.3601 -1.1674 -1.8245
  993MOL0     H34038   9.406  11.915   4.410  1.8726 -3.8754 -0.1712
  993MOL0     H34039   9.185  10.667   3.350 -0.3381  0.6202  1.3353
  993MOL0     H34040   9.398  10.556   3.305  0.0267  1.0980  0.3396
  993MOL0     H34041   9.815  10.524   3.524 -0.5536 -1.1352 -3.7190
  993MOL0     H34042  10.027  10.499   3.478 -1.0440  0.6637 -0.4261
  993MOL0     H34043  10.199  10.340   3.315  0.1671 -0.0568 -0.0812
  993MOL0     H34044  10.145  10.170   3.330 -0.2669  2.5537 -3.0364
  993MOL0     H34045  10.395  10.138   3.431  0.3446 -0.7584 -1.2534
  993MOL0     H34046  10.417  10.306   3.393  0.9411 -1.2193  2.2210
  993MOL0     H34047  10.327  10.090   3.195 -0.8788  0.0766 -0.0849
  993MOL0     H34048  10.504  10.122   3.227 -0.5981 -0.9727  0.0996
  993MOL0     H34049  10.289  10.297   3.114  0.1484  0.7915  1.0701
  993MOL0     H34050  10.448  10.367   3.154  0.1473 -1.4629  2.0083
  993MOL0     H34051  10.551  10.130   2.803 -1.0483  0.7439 -1.4416
  993MOL0     H34052   9.998  10.073   3.561 -3.2541 -0.7203 -1.8735
  993MOL0     H34053   9.652  10.043   3.566  0.7104 -0.0272 -1.2743
  993MOL0     H34054   9.810   9.983   3.632 -1.3203 -0.1979  2.5686
  993MOL0     H34055   9.705  10.072   3.727 -0.7301  1.0149 -0.5710
  994MOL0     O34056   0.156   5.842   4.831  0.3436  0.0883  0.3437
  994MOL0     C34057   0.092   5.877   4.731  0.8235  0.1073  0.0387
  994MOL0     O34058   0.094   5.825   4.607 -0.8290  0.2239 -0.0907
  994MOL0     C34059   0.204   5.746   4.582 -0.3959 -0.4036 -0.1148
  994MOL0     C34060   0.216   5.620   4.618 -0.0060 -0.2003  0.4422
  994MOL0     C34061   0.333   5.553   4.592  0.1992  0.1548 -1.3211
  994MOL0     C34062   0.444   5.610   4.532 -0.6238 -0.6130  0.4498
  994MOL0     O34063   0.573   5.549   4.513  0.3149  0.5767  0.1955
  994MOL0     C34064   0.602   5.446   4.608  0.1875 -0.3648  0.4823
  994MOL0     C34065   0.649   5.484   4.745  0.2254 -0.5320  0.5939
  994MOL0     C34066   0.751   5.593   4.763  0.5501  0.0046 -0.1157
  994MOL0     C34067   0.886   5.544   4.710  1.0521 -0.1906 -0.5683
  994MOL0     C34068   0.978   5.663   4.691 -0.0325 -0.6339 -0.0107
  994MOL0     C34069   1.037   5.716   4.825  0.4608  0.2132  0.8796
  994MOL0     C34070   1.074   5.866   4.819 -0.2591 -0.2883  0.7555
  994MOL0     C34071   1.163   5.899   4.703 -1.4848  0.3484  0.4573
  994MOL0     N34072   1.301   5.849   4.725 -0.2911 -0.5729  0.0394
  994MOL0     C34073   1.399   5.922   4.787  0.2195  0.0426 -0.4657
  994MOL0     C34074   1.511   5.846   4.767  1.0144 -0.7939  0.1000
  994MOL0     C34075   1.655   5.865   4.811 -0.2010 -1.0357 -0.2557
  994MOL0     C34076   1.723   5.985   4.757 -0.3725 -0.2884 -1.0782
  994MOL0     C34077   1.657   6.118   4.784 -0.2010  0.0669  0.2236
  994MOL0     C34078   1.747   6.241   4.769 -0.1530  0.1280  0.4032
  994MOL0     O34079   1.833   6.236   4.661 -0.8134  0.3778  0.0234
  994MOL0     C34080   1.927   6.324   4.637  0.0941 -0.1947 -0.2865
  994MOL0     C34081   1.975   6.417   4.732  0.3024  1.4966 -1.5501
  994MOL0     C34082   2.078   6.509   4.696 -0.6926  0.5637  0.4208
  994MOL0     C34083   2.138   6.500   4.570  0.0946  0.3329 -0.0808
  994MOL0     C34084   2.257   6.575   4.529  0.4022  0.3659  0.3872
  994MOL0     O34085   2.270   6.604   4.399  0.0266  0.3541  0.4256
  994MOL0     C34086   2.381   6.681   4.371  0.4953 -0.2494 -0.3919
  994MOL0     C34087   2.502   6.623   4.333  0.0291 -0.2082 -0.5669
  994MOL0     C34088   2.612   6.705   4.305 -0.2330 -0.0612  0.4951
  994MOL0     C34089   2.611   6.845   4.327  0.4267 -0.1192 -0.2886
  994MOL0     O34090   2.725   6.910   4.308  0.0926  0.0986  0.8651
  994MOL0     C34091   2.756   6.950   4.168 -0.2234 -0.3933  0.4476
  994MOL0     C34092   2.904   6.933   4.135  0.0324  0.2418 -0.3947
  994MOL0     C34093   2.930   6.937   3.987 -0.2765  0.7661  0.1729
  994MOL0     C34094   3.081   6.921   3.971 -0.3759  0.0326  0.4339
  994MOL0     C34095   3.145   6.853   3.843  0.2153 -0.5586  0.5950
  994MOL0     C34096   3.089   6.884   3.706  0.7093 -0.2642  0.0594
  994MOL0     C34097   3.077   7.036   3.681 -0.0198  0.3488  0.6564
  994MOL0     C34098   3.129   7.058   3.540  0.2419 -0.8426  0.8404
  994MOL0    Cl34099   3.085   7.229   3.510  0.1206  0.2605  0.2341
  994MOL0     C34100   2.490   6.908   4.355  0.0726 -0.4066  0.4143
  994MOL0     C34101   2.377   6.817   4.382 -1.1033 -0.5392 -0.0024
  994MOL0     O34102   2.330   6.617   4.616 -0.5522  0.2661 -0.0075
  994MOL0     C34103   2.081   6.413   4.483 -0.5393 -0.7333  1.0618
  994MOL0     C34104   1.975   6.321   4.508  0.5487 -0.5354  0.7076
  994MOL0     N34105   1.465   5.729   4.700 -1.1325  0.1609  0.1934
  994MOL0     N34106   1.340   5.740   4.663 -0.3972  0.1759 -0.0339
  994MOL0     C34107   0.432   5.742   4.485 -0.7958 -0.1390  0.4128
  994MOL0     C34108   0.311   5.803   4.509 -0.5075  0.1457 -0.2854
  994MOL0     C34109  -0.013   5.992   4.758 -0.1909  0.1677  0.0727
  994MOL0     C34110  -0.083   6.051   4.644 -0.6164 -0.1080  0.0316
  994MOL0     C34111  -0.180   6.150   4.659 -0.0285  0.7645  0.4344
  994MOL0     C34112  -0.224   6.184   4.788 -0.1387 -0.3620 -0.1659
  994MOL0     O34113  -0.318   6.281   4.809  0.1376  0.3515  0.4537
  994MOL0     C34114  -0.411   6.324   4.705  1.0525 -0.1696 -0.4471
  994MOL0     C34115  -0.496   6.458   4.740 -0.1109 -0.1506  0.8821
  994MOL0     C34116  -0.587   6.424   4.856  0.9366  0.0602  0.5327
  994MOL0     C34117  -0.682   6.539   4.896 -0.6787  0.0648 -0.1327
  994MOL0     C34118  -0.769   6.494   5.001  0.4089  0.2918  0.0058
  994MOL0     C34119  -0.845   6.476   5.092 -0.4561 -0.2723 -0.2553
  994MOL0     C34120  -0.138   6.147   4.895  0.1120 -0.2125 -0.4911
  994MOL0     C34121  -0.045   6.046   4.887  0.3825  0.4352 -0.1461
  994MOL0     C34122   0.027   6.015   5.012 -0.1005  1.5295  0.4240
  994MOL0     H34123   0.124   5.577   4.655 -0.1683  0.0799  0.3695
  994MOL0     H34124   0.327   5.453   4.635 -1.8297  1.4411  1.8267
  994MOL0     H34125   0.515   5.379   4.609 -0.9533  1.0292 -0.6173
  994MOL0     H34126   0.675   5.375   4.567  2.5830  1.5332  1.2486
  994MOL0     H34127   0.668   5.390   4.797  2.1442  1.3847  3.6533
  994MOL0     H34128   0.555   5.526   4.784 -1.6794 -0.8806 -3.1791
  994MOL0     H34129   0.755   5.623   4.868  2.0347 -2.7183  0.7234
  994MOL0     H34130   0.723   5.677   4.700  2.8906 -0.3490 -1.7427
  994MOL0     H34131   0.918   5.478   4.792 -2.2137 -1.3577 -0.0870
  994MOL0     H34132   0.874   5.509   4.607  1.5380  1.6019 -1.2674
  994MOL0     H34133   1.062   5.630   4.628 -0.0161 -2.7223  1.0271
  994MOL0     H34134   0.919   5.739   4.640  0.4176 -0.7020 -0.6529
  994MOL0     H34135   0.961   5.712   4.904  1.7464 -1.5485  2.0957
  994MOL0     H34136   1.122   5.656   4.859 -0.9073 -2.1720  0.2947
  994MOL0     H34137   1.116   5.896   4.916 -2.1660  1.1436  1.2215
  994MOL0     H34138   0.987   5.932   4.807 -0.6943 -1.0653 -0.4916
  994MOL0     H34139   1.132   5.846   4.613  1.9616  3.1189 -2.6616
  994MOL0     H34140   1.173   6.008   4.691 -0.4150  0.3209  0.9383
  994MOL0     H34141   1.394   6.019   4.834  4.5122  1.2110 -1.8899
  994MOL0     H34142   1.647   5.871   4.920 -1.8786 -1.7791 -0.3173
  994MOL0     H34143   1.714   5.779   4.779  1.5099  0.3812 -1.1422
  994MOL0     H34144   1.824   5.970   4.795 -2.0090 -1.5700  3.3420
  994MOL0     H34145   1.734   5.971   4.649  1.0831  0.4728 -1.0369
  994MOL0     H34146   1.626   6.107   4.889 -2.5691 -4.8041 -0.7165
  994MOL0     H34147   1.571   6.133   4.719  0.7313  1.1301 -0.8280
  994MOL0     H34148   1.795   6.250   4.867 -2.3838  2.7884  1.4082
  994MOL0     H34149   1.669   6.318   4.762 -0.5896 -0.0646  2.4593
  994MOL0     H34150   1.942   6.416   4.836 -1.3641 -1.8184 -1.9731
  994MOL0     H34151   2.101   6.582   4.773 -1.4458 -2.5674  3.9572
  994MOL0     H34152   2.496   6.515   4.343 -1.6651 -0.0024  1.4187
  994MOL0     H34153   2.712   6.664   4.294 -0.1954 -0.0025  0.6089
  994MOL0     H34154   2.703   6.886   4.096  0.5186 -1.2389  0.6438
  994MOL0     H34155   2.721   7.052   4.150  1.0282  0.2688  1.6356
  994MOL0     H34156   2.968   6.998   4.195  0.4671 -0.4970 -0.0337
  994MOL0     H34157   2.928   6.831   4.168 -0.1962  0.6161  0.9657
  994MOL0     H34158   2.879   6.852   3.939 -2.3412  1.3416  1.2352
  994MOL0     H34159   2.889   7.029   3.945 -1.2460 -0.5997 -2.0702
  994MOL0     H34160   3.132   6.866   4.050  2.3669 -0.8958 -1.8395
  994MOL0     H34161   3.119   7.024   3.976  2.1690 -0.9115  2.4793
  994MOL0     H34162   3.137   6.745   3.853 -0.2949 -0.3676  3.0150
  994MOL0     H34163   3.251   6.878   3.833 -0.4239  2.8658  1.0861
  994MOL0     H34164   3.161   6.849   3.633  2.1087 -2.0595  2.1697
  994MOL0     H34165   2.988   6.843   3.696  0.6329 -0.1438  0.3228
  994MOL0     H34166   3.137   7.099   3.748  3.4471  0.5453 -2.3279
  994MOL0     H34167   2.973   7.071   3.678  0.4400  2.2543  3.3558
  994MOL0     H34168   3.237   7.045   3.525  0.3057 -1.2662  1.6360
  994MOL0     H34169   3.081   6.998   3.462  0.4513  1.6398 -1.3802
  994MOL0     H34170   2.485   7.015   4.374  3.0420 -0.4455  1.9967
  994MOL0     H34171   2.286   6.857   4.427 -2.0503 -1.6225 -0.9087
  994MOL0     H34172   2.121   6.426   4.383  0.4193  2.6197  1.7397
  994MOL0     H34173   1.926   6.259   4.433  1.6318 -0.3424 -0.1907
  994MOL0     H34174   0.523   5.780   4.440  0.3384 -1.9354  1.0525
  994MOL0     H34175   0.302   5.902   4.465  1.7309  1.1293  1.2917
  994MOL0     H34176  -0.068   6.012   4.544  0.3633  2.5158 -0.9234
  994MOL0     H34177  -0.235   6.175   4.569 -0.4235 -2.7700 -0.4660
  994MOL0     H34178  -0.469   6.238   4.669  1.3325 -0.1878 -0.8560
  994MOL0     H34179  -0.349   6.353   4.620 -0.0241 -0.2052 -1.2711
  994MOL0     H34180  -0.552   6.484   4.650 -1.2309 -2.2625  0.9211
  994MOL0     H34181  -0.420   6.532   4.771  0.1316 -0.1713  0.3515
  994MOL0     H34182  -0.523   6.398   4.941  2.7599 -0.0276 -0.8136
  994MOL0     H34183  -0.643   6.338   4.819  3.0877  0.0583 -3.3193
  994MOL0     H34184  -0.638   6.635   4.925  0.5095 -0.9527  1.7067
  994MOL0     H34185  -0.744   6.573   4.813  0.6370 -1.8596 -2.0093
  994MOL0     H34186  -0.892   6.471   5.188  2.2825 -0.6051  1.1655
  994MOL0     H34187  -0.160   6.197   4.989 -2.0783 -1.4683 -0.2611
  994MOL0     H34188   0.016   5.909   5.038  0.1825  1.5869  0.7834
  994MOL0     H34189   0.133   6.040   4.997  0.8431 -1.7364  0.7453
  994MOL0     H34190  -0.001   6.066   5.104 -4.2184  1.1202 -0.4438
  995MOL0     O34191   5.358   8.356   8.593 -0.4570 -0.4733 -1.0623
  995MOL0     C34192   5.315   8.271   8.511  0.1784 -0.4609 -0.5331
  995MOL0     O34193   5.305   8.134   8.537 -0.6455  0.1312 -0.0161
  995MOL0     C34194   5.321   8.088   8.666 -0.6703 -0.3857  0.2745
  995MOL0     C34195   5.207   8.037   8.742 -0.3636 -1.7032 -0.2269
  995MOL0     C34196   5.225   8.009   8.883 -0.5509 -0.2917 -0.1378
  995MOL0     C34197   5.353   8.020   8.942 -0.0662  0.3246 -1.5088
  995MOL0     O34198   5.354   7.993   9.081  0.7526 -0.4286  0.2065
  995MOL0     C34199   5.474   7.980   9.164 -0.2193 -0.1280  1.2085
  995MOL0     C34200   5.414   7.983   9.307 -0.1386  0.3919  0.1501
  995MOL0     C34201   5.313   7.860   9.323 -0.5057 -0.8275  0.4365
  995MOL0     C34202   5.310   7.820   9.469  0.0956 -0.2980 -0.4309
  995MOL0     C34203   5.199   7.710   9.477 -0.4682 -1.8573 -0.7413
  995MOL0     C34204   5.204   7.653   9.625 -0.5120 -0.0203 -0.5728
  995MOL0     C34205   5.084   7.562   9.659  0.2904  0.2257  0.4148
  995MOL0     C34206   5.092   7.499   9.794 -0.6774 -0.7418  0.4062
  995MOL0     N34207   5.100   7.598   9.906 -0.3596 -0.2503 -0.2324
  995MOL0     C34208   5.218   7.663   9.941 -0.4602  0.5940 -0.6593
  995MOL0     C34209   5.188   7.736  10.056  0.4977 -0.2458  0.2727
  995MOL0     C34210   5.281   7.806  10.151  0.7942  0.6001  0.1684
  995MOL0     C34211   5.250   7.951  10.169  0.4018  0.3626 -0.0884
  995MOL0     C34212   5.256   8.017  10.033 -0.6027  0.0004  1.4902
  995MOL0     C34213   5.291   8.168  10.052 -0.0970  0.3353  0.4692
  995MOL0     O34214   5.199   8.240  10.131  1.0808 -0.2732 -0.1151
  995MOL0     C34215   5.194   8.375  10.142 -0.4592  0.1234 -0.2388
  995MOL0     C34216   5.082   8.426  10.201  0.0779 -0.8987  0.2117
  995MOL0     C34217   5.081   8.562  10.229  0.2681 -0.0883  0.8237
  995MOL0     C34218   5.186   8.651  10.189 -0.5249  0.2825 -0.7975
  995MOL0     C34219   5.188   8.800  10.217 -0.0584  0.2640 -0.2337
  995MOL0     O34220   5.306   8.859  10.199 -0.5184 -0.3822  0.3870
  995MOL0     C34221   5.336   8.992  10.205  0.9281  0.8097 -0.3906
  995MOL0     C34222   5.469   9.025  10.233  0.1332 -0.0850 -0.6219
  995MOL0     C34223   5.503   9.158  10.233 -0.2797  0.3937  1.0298
  995MOL0     C34224   5.410   9.259  10.199 -0.2463 -0.2646 -0.9130
  995MOL0     O34225   5.453   9.392  10.211  0.3550  0.4413 -0.2257
  995MOL0     C34226   5.369   9.505  10.191 -0.7705  0.4294 -0.4862
  995MOL0     C34227   5.423   9.629  10.262  0.1579  0.3260 -0.9549
  995MOL0     C34228   5.385   9.742  10.169 -0.0091 -0.0246  0.2726
  995MOL0     C34229   5.429   9.884  10.217 -0.9696  0.4813  0.8505
  995MOL0     C34230   5.367  10.007  10.138 -0.5068  0.6573  0.6138
  995MOL0     C34231   5.461  10.126  10.163 -0.3057  0.7872 -0.1554
  995MOL0     C34232   5.404  10.247  10.093 -0.2908 -0.4477 -0.9504
  995MOL0     C34233   5.483  10.376  10.099 -0.4990  0.5259 -0.0657
  995MOL0    Cl34234   5.628  10.345   9.994  0.3947  0.2561 -0.2059
  995MOL0     C34235   5.281   9.224  10.166 -0.3086 -0.3334 -0.2811
  995MOL0     C34236   5.237   9.090  10.168 -0.3194  0.0554  0.1781
  995MOL0     O34237   5.083   8.854  10.246 -0.2623 -0.1767 -0.8076
  995MOL0     C34238   5.284   8.598  10.114 -0.3896  0.7685 -0.5205
  995MOL0     C34239   5.289   8.461  10.089  0.2460 -0.1829  0.6641
  995MOL0     N34240   5.055   7.714  10.073  0.7366 -0.1949 -0.8555
  995MOL0     N34241   5.003   7.628   9.997 -0.0569  0.1025 -0.4266
  995MOL0     C34242   5.463   8.064   8.866 -0.4763 -0.0667  0.4694
  995MOL0     C34243   5.449   8.090   8.728  0.5693 -0.5159  0.9527
  995MOL0     C34244   5.281   8.312   8.365 -0.0409  0.0344  0.1830
  995MOL0     C34245   5.223   8.224   8.269  0.0746  0.6584 -0.2470
  995MOL0     C34246   5.194   8.261   8.138 -0.0709 -0.2010  0.6622
  995MOL0     C34247   5.192   8.394   8.106  0.4710 -1.1557  0.6920
  995MOL0     O34248   5.132   8.442   7.985  0.3695 -0.1458 -1.1266
  995MOL0     C34249   5.088   8.346   7.890  0.1500 -0.5335  0.3294
  995MOL0     C34250   5.010   8.421   7.784 -0.2005 -0.6563 -0.2145
  995MOL0     C34251   4.931   8.325   7.690 -0.1576 -0.9831 -0.7936
  995MOL0     C34252   4.858   8.398   7.585 -0.0015 -0.5412 -1.0269
  995MOL0     C34253   4.744   8.322   7.529  0.0806 -0.3200 -0.7371
  995MOL0     C34254   4.649   8.261   7.473  0.1338  0.1802  0.7727
  995MOL0     C34255   5.226   8.490   8.201 -0.0331 -0.1409 -0.3766
  995MOL0     C34256   5.274   8.454   8.322 -0.5495  0.7157 -0.1375
  995MOL0     C34257   5.329   8.574   8.403  0.0346  0.2339  0.0056
  995MOL0     H34258   5.117   8.031   8.682 -1.4525 -2.9819  1.4517
  995MOL0     H34259   5.137   7.980   8.939 -3.4686  0.9951 -3.6374
  995MOL0     H34260   5.524   7.887   9.136 -2.1919 -0.2946 -2.2705
  995MOL0     H34261   5.539   8.066   9.148 -2.8882  1.4562 -2.7949
  995MOL0     H34262   5.372   8.080   9.333 -1.5851 -0.5020  1.3577
  995MOL0     H34263   5.494   7.968   9.381  0.5533  1.6344 -0.3258
  995MOL0     H34264   5.343   7.776   9.261 -2.8422 -0.9395 -0.6654
  995MOL0     H34265   5.220   7.894   9.276  0.1836  0.4064 -0.0713
  995MOL0     H34266   5.403   7.784   9.513 -0.9605 -0.0983  2.1758
  995MOL0     H34267   5.272   7.906   9.525  1.9593  1.0628 -1.1791
  995MOL0     H34268   5.104   7.762   9.467 -1.4965 -3.2907  1.0158
  995MOL0     H34269   5.224   7.639   9.397 -0.3952  0.0524 -2.5122
  995MOL0     H34270   5.293   7.593   9.646 -1.6144 -1.0609  1.3524
  995MOL0     H34271   5.206   7.742   9.688 -1.9054 -0.5627  0.2894
  995MOL0     H34272   5.084   7.479   9.588  1.0812  0.0224  0.6365
  995MOL0     H34273   4.990   7.617   9.648  0.3893  0.3686  0.2909
  995MOL0     H34274   5.013   7.428   9.819 -1.2340 -0.7682 -1.2912
  995MOL0     H34275   5.178   7.432   9.801 -0.6025 -0.9741 -1.8781
  995MOL0     H34276   5.311   7.640   9.891 -0.7259 -0.1528 -0.8179
  995MOL0     H34277   5.262   7.760  10.248 -0.6428  0.5297 -0.1144
  995MOL0     H34278   5.387   7.783  10.136  0.3716 -4.3916  2.7103
  995MOL0     H34279   5.158   7.967  10.227 -0.1710 -0.8419 -0.6333
  995MOL0     H34280   5.327   7.986  10.238  0.0779  0.4143  0.2551
  995MOL0     H34281   5.168   8.015   9.968  1.2478  3.3043 -1.4936
  995MOL0     H34282   5.337   7.976   9.972 -0.1317  0.1310  2.0188
  995MOL0     H34283   5.310   8.216   9.956  0.0338 -1.4279 -0.4408
  995MOL0     H34284   5.382   8.176  10.114 -1.1596  0.4556  2.0726
  995MOL0     H34285   4.995   8.367  10.226 -3.1229  2.9429 -0.7158
  995MOL0     H34286   4.990   8.598  10.277  0.2671 -0.3502  1.0238
  995MOL0     H34287   5.552   8.955  10.241  0.2052  0.2052  2.6391
  995MOL0     H34288   5.603   9.190  10.261 -0.6646  1.7582  0.8813
  995MOL0     H34289   5.356   9.511  10.082  0.6517 -1.9110 -0.8743
  995MOL0     H34290   5.271   9.488  10.236  0.5391 -0.4075  2.2790
  995MOL0     H34291   5.388   9.635  10.365  3.3142 -0.2118  0.2844
  995MOL0     H34292   5.532   9.621  10.271  0.0564  0.1596  0.2207
  995MOL0     H34293   5.446   9.721  10.081  0.8518 -5.7536  1.8612
  995MOL0     H34294   5.278   9.739  10.148 -0.2893  0.3382  1.5605
  995MOL0     H34295   5.537   9.894  10.204 -0.6448 -3.1046 -0.1566
  995MOL0     H34296   5.404   9.895  10.323 -0.8503 -1.4928  1.1061
  995MOL0     H34297   5.267  10.026  10.178 -0.4170 -1.8934  2.2583
  995MOL0     H34298   5.348   9.981  10.034 -0.2314 -0.8078  0.9104
  995MOL0     H34299   5.467  10.129  10.272 -0.5611 -2.9433  0.1001
  995MOL0     H34300   5.563  10.107  10.128  0.4098 -0.2902  2.2842
  995MOL0     H34301   5.305  10.272  10.132  0.7099  0.8909  0.8672
  995MOL0     H34302   5.385  10.222   9.988  1.5159 -1.3960 -1.0938
  995MOL0     H34303   5.416  10.458  10.070 -2.6860 -0.5372  1.6703
  995MOL0     H34304   5.517  10.392  10.202  0.8909  0.0591 -0.4358
  995MOL0     H34305   5.214   9.308  10.145 -3.2032 -2.1858  0.9361
  995MOL0     H34306   5.142   9.061  10.123 -0.6479 -0.6383  1.2694
  995MOL0     H34307   5.354   8.667  10.067  2.3290 -0.6026  1.2953
  995MOL0     H34308   5.371   8.408  10.041  1.2183 -0.0122  2.0750
  995MOL0     H34309   5.557   8.076   8.919 -1.4244  1.2175  1.9670
  995MOL0     H34310   5.535   8.127   8.674 -1.2131 -0.6217 -2.2152
  995MOL0     H34311   5.205   8.123   8.305 -3.5792  1.0121 -0.7123
  995MOL0     H34312   5.170   8.182   8.068  0.2601  1.1809 -1.0728
  995MOL0     H34313   5.016   8.276   7.933  0.0532 -0.0995  0.8853
  995MOL0     H34314   5.171   8.294   7.842  2.9311  1.6359  2.4906
  995MOL0     H34315   5.087   8.474   7.726 -1.6773 -0.2332 -1.8924
  995MOL0     H34316   4.932   8.484   7.828  1.9926 -0.0414  3.1193
  995MOL0     H34317   4.865   8.271   7.758  1.9540 -0.0011  2.3207
  995MOL0     H34318   4.997   8.253   7.641 -0.5246 -1.2353 -0.9106
  995MOL0     H34319   4.810   8.486   7.628 -1.8334 -2.0825  0.2904
  995MOL0     H34320   4.928   8.433   7.509  0.6144  0.1926 -0.1306
  995MOL0     H34321   4.579   8.209   7.411  1.2005 -1.0112  0.5289
  995MOL0     H34322   5.212   8.594   8.172 -1.6425  0.4183  2.0598
  995MOL0     H34323   5.285   8.666   8.361 -2.9418 -0.7444  0.6884
  995MOL0     H34324   5.287   8.579   8.504  2.9904  1.5570  1.2583
  995MOL0     H34325   5.436   8.574   8.425 -0.1803  3.1154  1.5019
  996MOL0     O34326   2.504   7.673   8.402 -0.4945 -0.4330  0.1715
  996MOL0     C34327   2.463   7.697   8.290 -0.0856  0.2754 -0.1652
  996MOL0     O34328   2.420   7.813   8.241  0.5590  0.1384  0.1398
  996MOL0     C34329   2.346   7.887   8.337 -0.2725 -1.2062  0.2502
  996MOL0     C34330   2.277   7.832   8.455  0.0522 -0.1879  0.7848
  996MOL0     C34331   2.210   7.916   8.546 -0.0283  0.1708  0.2996
  996MOL0     C34332   2.202   8.056   8.528 -0.2488 -0.0265 -0.5631
  996MOL0     O34333   2.140   8.122   8.635 -0.5566  0.4599  0.4075
  996MOL0     C34334   2.178   8.251   8.662  0.2265 -0.4038  0.1741
  996MOL0     C34335   2.110   8.277   8.797 -0.4877  0.1010  0.0462
  996MOL0     C34336   2.103   8.427   8.835  0.8737  0.0346  0.5909
  996MOL0     C34337   1.952   8.473   8.827  1.0783  1.3386  0.5693
  996MOL0     C34338   1.965   8.613   8.876 -0.0028  0.4894 -1.3323
  996MOL0     C34339   1.835   8.699   8.858 -0.0385  0.4832 -0.8798
  996MOL0     C34340   1.719   8.640   8.941  0.3195 -0.4227  0.4070
  996MOL0     C34341   1.593   8.725   8.948  0.9242 -0.0627  0.2451
  996MOL0     N34342   1.512   8.724   8.825 -0.5126 -0.1125  1.0715
  996MOL0     C34343   1.395   8.657   8.803 -0.0993  0.0224  0.7034
  996MOL0     C34344   1.354   8.680   8.676  0.4376  0.0181 -0.0902
  996MOL0     C34345   1.225   8.632   8.617  0.1697 -0.5247  0.4119
  996MOL0     C34346   1.121   8.735   8.629  1.1671 -0.3426 -0.0820
  996MOL0     C34347   1.156   8.869   8.555 -0.7367  0.1209  0.1124
  996MOL0     C34348   1.024   8.947   8.510  0.1687 -0.6533 -0.0033
  996MOL0     O34349   0.933   8.875   8.426 -0.1963  0.6669 -0.3828
  996MOL0     C34350   0.873   8.957   8.336 -0.0079  0.4729 -0.1498
  996MOL0     C34351   0.860   8.910   8.207  0.4392  0.2999 -0.6180
  996MOL0     C34352   0.822   8.990   8.100  0.0276  0.1551  0.1149
  996MOL0     C34353   0.770   9.115   8.133  0.0813 -0.6693  0.0563
  996MOL0     C34354   0.714   9.204   8.024  0.8589  0.8472 -0.4166
  996MOL0     O34355   0.691   9.332   8.053  0.3815 -0.6297 -0.2151
  996MOL0     C34356   0.682   9.415   7.944 -0.8306 -0.6243  0.1475
  996MOL0     C34357   0.781   9.407   7.846  0.9468 -0.1395  0.3184
  996MOL0     C34358   0.768   9.493   7.730  0.2220  0.8297  0.6182
  996MOL0     C34359   0.650   9.570   7.707  0.2956  0.5935 -0.8385
  996MOL0     O34360   0.608   9.632   7.590  0.0733 -0.4047 -0.0339
  996MOL0     C34361   0.697   9.638   7.480  0.2412  0.6206  0.6356
  996MOL0     C34362   0.716   9.785   7.438  0.5595  0.3906 -0.1019
  996MOL0     C34363   0.585   9.845   7.399  0.0118 -0.4244 -1.1781
  996MOL0     C34364   0.589   9.995   7.402  0.1224 -0.5422 -0.7640
  996MOL0     C34365   0.491  10.074   7.320 -0.0968 -0.1797  0.1597
  996MOL0     C34366   0.534  10.222   7.307  0.1070 -0.1431  0.3194
  996MOL0     C34367   0.521  10.309   7.424 -0.4894  0.7309 -0.6585
  996MOL0     C34368   0.584  10.445   7.408 -0.4994  0.0847 -0.2299
  996MOL0    Cl34369   0.486  10.572   7.489 -0.0930 -0.1947  0.0822
  996MOL0     C34370   0.558   9.572   7.806  0.3334 -0.6254 -0.3351
  996MOL0     C34371   0.574   9.499   7.924 -0.0850  0.5189 -0.5161
  996MOL0     O34372   0.695   9.143   7.917 -0.2754 -0.1796  0.1145
  996MOL0     C34373   0.766   9.162   8.264  0.0170  0.3699 -0.7247
  996MOL0     C34374   0.817   9.081   8.368 -0.0072  0.0658 -1.4812
  996MOL0     N34375   1.442   8.764   8.620 -0.2803  1.0191  0.8834
  996MOL0     N34376   1.543   8.780   8.704 -0.0650  0.4260  0.2308
  996MOL0     C34377   2.265   8.110   8.414  0.3972  0.1285  0.7588
  996MOL0     C34378   2.323   8.032   8.320 -0.9824 -0.7220  0.8386
  996MOL0     C34379   2.472   7.587   8.200 -1.0458 -0.5221 -0.1813
  996MOL0     C34380   2.488   7.455   8.246  0.3478  0.8670 -0.5185
  996MOL0     C34381   2.526   7.352   8.160 -0.2471  0.3869 -0.8425
  996MOL0     C34382   2.521   7.371   8.021  0.1326 -1.1812 -0.0980
  996MOL0     O34383   2.550   7.273   7.926 -0.4517 -0.6297 -0.4319
  996MOL0     C34384   2.580   7.142   7.969  0.1137  0.1278  0.6959
  996MOL0     C34385   2.603   7.039   7.865  0.5984 -0.0401 -0.1536
  996MOL0     C34386   2.468   7.011   7.789  0.0602 -0.1627 -0.7180
  996MOL0     C34387   2.493   6.940   7.658  0.2644  0.0093 -0.0616
  996MOL0     C34388   2.371   6.935   7.574 -0.0965  1.0428  0.2359
  996MOL0     C34389   2.259   6.945   7.538  0.1950  0.2890 -0.2098
  996MOL0     C34390   2.487   7.500   7.967 -0.5950 -0.2245 -1.2945
  996MOL0     C34391   2.484   7.609   8.055  0.0238 -0.0626  0.4060
  996MOL0     C34392   2.448   7.744   7.981 -1.2216  1.2665  1.2277
  996MOL0     H34393   2.273   7.725   8.471 -1.2021 -0.1352  0.9427
  996MOL0     H34394   2.165   7.857   8.624 -3.0265 -0.1180 -1.4934
  996MOL0     H34395   2.287   8.259   8.664  0.1797  0.4997 -0.2827
  996MOL0     H34396   2.155   8.313   8.575 -0.8620 -4.0480 -2.3629
  996MOL0     H34397   2.165   8.230   8.880  1.8362  0.8279 -0.9838
  996MOL0     H34398   2.008   8.239   8.799 -0.0256 -1.1928  1.9721
  996MOL0     H34399   2.177   8.478   8.774  0.6966  0.5117  0.7713
  996MOL0     H34400   2.127   8.436   8.941  0.7377 -3.4220  1.0543
  996MOL0     H34401   1.920   8.470   8.722 -0.7460 -0.5820  1.1088
  996MOL0     H34402   1.883   8.405   8.877 -1.1854 -0.5743 -4.4404
  996MOL0     H34403   1.989   8.611   8.983 -0.5492  1.1270 -1.1917
  996MOL0     H34404   2.049   8.666   8.831 -1.0774  1.9704 -1.6702
  996MOL0     H34405   1.862   8.801   8.885 -3.5715  1.1425  0.6376
  996MOL0     H34406   1.801   8.696   8.754  2.6998 -1.7284 -1.8632
  996MOL0     H34407   1.743   8.623   9.046 -3.4125 -0.8622  1.3257
  996MOL0     H34408   1.683   8.540   8.914 -5.1492  0.8856  1.7388
  996MOL0     H34409   1.532   8.683   9.028 -1.1166 -2.1525 -2.2225
  996MOL0     H34410   1.612   8.825   8.989 -0.6392 -0.3175  1.6840
  996MOL0     H34411   1.348   8.589   8.873 -3.9480 -0.1436 -1.6794
  996MOL0     H34412   1.248   8.602   8.515  1.1570 -1.1616  0.8162
  996MOL0     H34413   1.190   8.540   8.665  0.2299  0.1737  1.8405
  996MOL0     H34414   1.028   8.697   8.585  1.1974 -4.0567  2.6390
  996MOL0     H34415   1.092   8.760   8.731 -2.2695 -0.9329 -0.7890
  996MOL0     H34416   1.206   8.841   8.462 -1.6263  2.4720 -1.1758
  996MOL0     H34417   1.213   8.943   8.612 -0.3753  0.0310 -0.1280
  996MOL0     H34418   1.047   9.044   8.465 -0.2967 -0.1851  0.7467
  996MOL0     H34419   0.964   8.975   8.598  2.0721  2.4567  0.4758
  996MOL0     H34420   0.897   8.810   8.185  1.3012  0.3922  0.3398
  996MOL0     H34421   0.820   8.948   8.000  0.1876 -0.0817  0.2095
  996MOL0     H34422   0.867   9.342   7.862  1.5962  0.7336  0.4500
  996MOL0     H34423   0.855   9.502   7.666  0.9056  0.1627  1.4343
  996MOL0     H34424   0.798   9.597   7.489  1.6552  3.2368 -1.5799
  996MOL0     H34425   0.667   9.584   7.389 -1.7833  0.6219  1.2636
  996MOL0     H34426   0.759   9.840   7.523 -1.0809  0.8365  0.4798
  996MOL0     H34427   0.785   9.789   7.353  0.7765 -0.7846  0.0029
  996MOL0     H34428   0.544   9.809   7.304 -1.7464 -1.8402  0.0417
  996MOL0     H34429   0.505   9.817   7.468 -0.6044  0.2167 -1.6148
  996MOL0     H34430   0.688  10.040   7.386 -0.0748  0.0829 -0.2901
  996MOL0     H34431   0.562  10.027   7.503 -1.9456 -1.8690 -0.8370
  996MOL0     H34432   0.391  10.071   7.365 -0.8245 -1.7690 -1.4420
  996MOL0     H34433   0.477  10.031   7.220 -1.3662 -1.4103  0.8245
  996MOL0     H34434   0.639  10.231   7.277  0.1342  0.0834  0.4793
  996MOL0     H34435   0.474  10.270   7.230 -2.1787 -0.2370  1.9277
  996MOL0     H34436   0.569  10.255   7.507 -0.4553  0.5643 -0.7873
  996MOL0     H34437   0.418  10.322   7.459  0.2736 -0.0801  2.2168
  996MOL0     H34438   0.687  10.454   7.442 -0.9135 -0.5762  1.3176
  996MOL0     H34439   0.576  10.464   7.301 -0.2049 -1.0274 -0.4601
  996MOL0     H34440   0.472   9.635   7.788  2.5383  2.0692 -2.3000
  996MOL0     H34441   0.490   9.497   7.993 -3.6151 -2.7240 -4.3269
  996MOL0     H34442   0.725   9.260   8.284 -1.1724  0.0940 -1.6801
  996MOL0     H34443   0.819   9.119   8.470  0.3860  1.6336 -2.0416
  996MOL0     H34444   2.259   8.218   8.403  1.8083  0.2411  0.8877
  996MOL0     H34445   2.372   8.079   8.235 -0.9013 -0.4554  1.0331
  996MOL0     H34446   2.491   7.436   8.352 -1.7218 -2.4007 -0.8918
  996MOL0     H34447   2.572   7.260   8.193 -1.5445  0.0986  0.2566
  996MOL0     H34448   2.509   7.114   8.047 -2.1464  4.9203  0.7641
  996MOL0     H34449   2.678   7.153   8.017 -0.1669  1.4432  1.0017
  996MOL0     H34450   2.645   6.952   7.917  1.5773  0.8408  0.5919
  996MOL0     H34451   2.687   7.083   7.811 -0.3140  2.2385  0.1761
  996MOL0     H34452   2.415   7.103   7.761 -1.8499 -1.0928 -0.2774
  996MOL0     H34453   2.404   6.965   7.865 -0.2315 -0.0548 -0.8982
  996MOL0     H34454   2.567   6.996   7.600 -0.1588  0.3407 -0.2829
  996MOL0     H34455   2.545   6.846   7.681 -0.2711 -0.2915 -0.0695
  996MOL0     H34456   2.158   6.931   7.506 -0.2325  3.6981 -0.7180
  996MOL0     H34457   2.466   7.510   7.861  0.9858  0.9986 -1.5409
  996MOL0     H34458   2.447   7.737   7.872  1.5050  3.4645  0.9414
  996MOL0     H34459   2.345   7.773   8.001 -2.2644 -2.2088  1.5890
  996MOL0     H34460   2.519   7.822   8.011 -1.1512  1.7101 -0.0274
  997MOL0     O34461   1.315   3.573   8.061 -0.3770  0.2951 -0.0180
  997MOL0     C34462   1.423   3.620   8.017 -0.3346 -0.6771 -0.1037
  997MOL0     O34463   1.465   3.745   8.043 -0.2541 -0.4637  0.3631
  997MOL0     C34464   1.403   3.828   8.135  0.2143  0.2452  0.9733
  997MOL0     C34465   1.362   3.793   8.265 -0.2167 -1.0779  0.3948
  997MOL0     C34466   1.318   3.892   8.352 -0.6591 -1.3839 -0.0144
  997MOL0     C34467   1.310   4.028   8.310  0.0057 -0.2428  0.0890
  997MOL0     O34468   1.268   4.117   8.404 -0.2474 -0.3501  1.3849
  997MOL0     C34469   1.203   4.233   8.357  0.0650 -0.7864 -0.6054
  997MOL0     C34470   1.110   4.285   8.468  0.3952  0.0921 -0.1961
  997MOL0     C34471   1.186   4.373   8.568 -0.8745  0.2663 -0.6484
  997MOL0     C34472   1.305   4.294   8.616 -0.1897 -0.6853 -0.3418
  997MOL0     C34473   1.343   4.334   8.769  0.3683 -0.3760 -0.0868
  997MOL0     C34474   1.346   4.486   8.809  0.0549  0.7663  0.0709
  997MOL0     C34475   1.451   4.575   8.733  0.9394  0.2503 -0.1903
  997MOL0     C34476   1.598   4.536   8.769  0.0547  0.1805 -0.3041
  997MOL0     N34477   1.653   4.587   8.894  1.4095  0.5326  0.2139
  997MOL0     C34478   1.654   4.518   9.016  0.1061  0.3302  0.1625
  997MOL0     C34479   1.698   4.613   9.099 -0.3468 -0.7100  0.0032
  997MOL0     C34480   1.726   4.577   9.239 -0.6071  0.0775 -0.2863
  997MOL0     C34481   1.618   4.629   9.347 -0.4404  0.4768 -0.4541
  997MOL0     C34482   1.632   4.537   9.466 -0.2339  0.7681 -0.8123
  997MOL0     C34483   1.568   4.614   9.591 -0.6403  1.2398 -0.3865
  997MOL0     O34484   1.419   4.625   9.573  0.5798  0.5127  1.0620
  997MOL0     C34485   1.344   4.691   9.662  1.2187 -0.4670  0.3988
  997MOL0     C34486   1.379   4.725   9.792  0.0309 -0.0529 -0.5978
  997MOL0     C34487   1.289   4.805   9.878 -0.1620  0.3394  0.6285
  997MOL0     C34488   1.159   4.845   9.831  0.5423 -0.1494  0.4223
  997MOL0     C34489   1.063   4.929   9.918  0.8958  0.3397  0.4836
  997MOL0     O34490   1.116   4.981  10.024  0.6582 -0.4320 -0.2936
  997MOL0     C34491   1.037   5.011  10.132 -0.3932 -0.4775 -1.0354
  997MOL0     C34492   0.914   5.088  10.125  0.2147 -0.1015 -0.3490
  997MOL0     C34493   0.832   5.118  10.234  1.2710 -0.1320 -0.0314
  997MOL0     C34494   0.880   5.073  10.356  0.1414 -0.0992 -0.4099
  997MOL0     O34495   0.793   5.083  10.461 -0.0626  0.9350 -0.1653
  997MOL0     C34496   0.844   5.129  10.592  0.3375 -0.1258  0.8344
  997MOL0     C34497   0.815   5.019  10.699 -0.3217  0.3677  0.1884
  997MOL0     C34498   0.666   5.009  10.731  0.5201 -0.8872 -0.2570
  997MOL0     C34499   0.632   4.912  10.848 -0.9556 -0.1409 -0.1728
  997MOL0     C34500   0.701   4.776  10.850 -0.0669  0.7311 -0.7706
  997MOL0     C34501   0.680   4.677  10.738  0.1339  0.3762  0.5452
  997MOL0     C34502   0.687   4.534  10.770  0.0088 -0.2430 -0.0841
  997MOL0     C34503   0.631   4.458  10.653  0.0913  0.5108 -0.2093
  997MOL0    Cl34504   0.674   4.487  10.480  0.7806  0.2007 -0.1649
  997MOL0     C34505   1.012   5.015  10.372 -0.7844 -0.5807 -0.1980
  997MOL0     C34506   1.087   4.984  10.264  0.3553  0.1029  0.2906
  997MOL0     O34507   0.949   4.929   9.890 -0.0686 -0.2529  0.2813
  997MOL0     C34508   1.119   4.799   9.705 -0.7716  1.7120 -0.4753
  997MOL0     C34509   1.201   4.723   9.631 -1.1297  0.8324 -0.7201
  997MOL0     N34510   1.719   4.739   9.036 -0.4858 -1.2342 -0.2290
  997MOL0     N34511   1.686   4.725   8.912 -0.6575 -0.5390  0.1035
  997MOL0     C34512   1.354   4.060   8.182 -0.2307  0.2837 -0.5205
  997MOL0     C34513   1.397   3.964   8.098  0.0126  0.3058  0.2268
  997MOL0     C34514   1.513   3.527   7.944  1.1828 -0.2977  0.5873
  997MOL0     C34515   1.641   3.578   7.903  0.2574 -0.0856  0.1421
  997MOL0     C34516   1.727   3.488   7.839 -0.3988 -0.1776 -1.3692
  997MOL0     C34517   1.687   3.360   7.801  0.6385  0.1760 -0.3897
  997MOL0     O34518   1.766   3.265   7.742  1.2174 -0.0226 -0.4508
  997MOL0     C34519   1.899   3.281   7.762  0.2536 -0.7058  0.3777
  997MOL0     C34520   1.980   3.157   7.756 -0.4680 -0.1440  1.1122
  997MOL0     C34521   1.937   3.075   7.639  0.3600  0.8804 -0.0455
  997MOL0     C34522   2.035   2.955   7.625  0.1840  0.0145 -0.3401
  997MOL0     C34523   2.018   2.862   7.740  1.5046 -0.4814 -0.3004
  997MOL0     C34524   2.010   2.781   7.831  0.6496 -0.4894 -0.5359
  997MOL0     C34525   1.555   3.320   7.821 -0.6352  0.2149 -0.7063
  997MOL0     C34526   1.474   3.397   7.903  0.5481  0.0827 -0.7693
  997MOL0     C34527   1.334   3.340   7.914  0.1660  1.1271  0.1925
  997MOL0     H34528   1.372   3.689   8.295 -0.2792 -1.6250 -1.4063
  997MOL0     H34529   1.303   3.875   8.458 -1.0962  1.3674  0.4471
  997MOL0     H34530   1.280   4.305   8.327 -2.2581  4.4414  4.1232
  997MOL0     H34531   1.141   4.197   8.275  0.0182 -1.0920 -0.4375
  997MOL0     H34532   1.058   4.198   8.510  2.1776  0.0176  2.0212
  997MOL0     H34533   1.036   4.341   8.410 -2.8671 -0.7265  2.8197
  997MOL0     H34534   1.118   4.404   8.647  0.5853  4.3800 -0.7576
  997MOL0     H34535   1.218   4.471   8.532 -0.8339  0.1168 -1.0299
  997MOL0     H34536   1.277   4.190   8.633  2.3276 -1.3205  0.2084
  997MOL0     H34537   1.388   4.318   8.549 -1.6567  2.1742 -1.3139
  997MOL0     H34538   1.270   4.291   8.838  1.3981  0.2376  1.4488
  997MOL0     H34539   1.441   4.292   8.792  0.5347 -0.6224 -1.1673
  997MOL0     H34540   1.249   4.533   8.793 -0.4175  0.4549  1.8802
  997MOL0     H34541   1.357   4.482   8.918 -4.0563 -1.5196  0.6221
  997MOL0     H34542   1.441   4.683   8.749  1.9339  0.0549  2.2475
  997MOL0     H34543   1.440   4.545   8.629  1.4075  0.3412 -0.2645
  997MOL0     H34544   1.597   4.426   8.766 -0.1071  0.0995 -4.9657
  997MOL0     H34545   1.668   4.561   8.689  2.5566 -0.0014  1.7085
  997MOL0     H34546   1.633   4.415   9.042 -1.7950  0.4259 -0.7805
  997MOL0     H34547   1.717   4.468   9.245  3.1190 -0.4227 -1.0756
  997MOL0     H34548   1.824   4.608   9.277 -0.9488 -1.1365  1.7746
  997MOL0     H34549   1.647   4.730   9.376  2.4526 -0.5300  0.4617
  997MOL0     H34550   1.515   4.635   9.312 -0.2807  0.1491 -0.9853
  997MOL0     H34551   1.738   4.520   9.487  0.6051  1.6575 -3.9272
  997MOL0     H34552   1.575   4.445   9.451 -4.1665  2.8635 -0.1166
  997MOL0     H34553   1.615   4.711   9.609 -0.0305  0.9694 -0.4706
  997MOL0     H34554   1.591   4.556   9.680  0.8165  0.6710 -1.0980
  997MOL0     H34555   1.474   4.695   9.836  1.2027  0.1751 -2.8544
  997MOL0     H34556   1.318   4.833   9.979  1.7896 -0.2273  0.2628
  997MOL0     H34557   0.868   5.125  10.034 -0.2826  0.7086  0.2200
  997MOL0     H34558   0.748   5.186  10.226  2.7539  2.5850  4.0068
  997MOL0     H34559   0.952   5.146  10.593  0.4015 -0.1839 -1.0084
  997MOL0     H34560   0.794   5.222  10.619  0.6588  0.9987 -2.0130
  997MOL0     H34561   0.871   4.932  10.664  1.2986  2.3076 -2.4613
  997MOL0     H34562   0.872   5.061  10.783  3.8588 -2.4696 -0.9253
  997MOL0     H34563   0.619   5.104  10.758  2.4342 -0.0809  0.3880
  997MOL0     H34564   0.617   4.974  10.639  2.6289 -1.4225 -1.2363
  997MOL0     H34565   0.526   4.902  10.870 -1.0826  0.6943 -0.3913
  997MOL0     H34566   0.669   4.958  10.939 -0.9275  0.0963 -0.3042
  997MOL0     H34567   0.660   4.727  10.939  0.6851  1.9524  0.2965
  997MOL0     H34568   0.809   4.785  10.861 -0.1068 -0.8269  1.5331
  997MOL0     H34569   0.574   4.683  10.710  0.0867 -1.3100  0.2546
  997MOL0     H34570   0.733   4.701  10.646 -2.3048 -0.7206 -1.2569
  997MOL0     H34571   0.614   4.508  10.847 -0.7720  3.7876  0.7686
  997MOL0     H34572   0.786   4.498  10.797 -0.5444 -0.9590  1.0824
  997MOL0     H34573   0.638   4.351  10.673 -1.8043  0.4423  0.2509
  997MOL0     H34574   0.523   4.477  10.659  0.2046  0.8916  0.7682
  997MOL0     H34575   1.042   4.983  10.471  0.1854 -1.8937 -0.8856
  997MOL0     H34576   1.185   4.943  10.287  0.6638  1.7651  2.2349
  997MOL0     H34577   1.017   4.811   9.671 -0.8210 -0.7347 -1.3557
  997MOL0     H34578   1.169   4.697   9.530  0.7664  1.2814 -1.4843
  997MOL0     H34579   1.349   4.162   8.148 -4.0198  0.5774  0.4845
  997MOL0     H34580   1.435   3.996   8.001 -2.5009 -2.7913 -1.9676
  997MOL0     H34581   1.684   3.677   7.919 -0.9968  0.7329 -1.3134
  997MOL0     H34582   1.830   3.523   7.833  0.3581 -1.9414  0.1341
  997MOL0     H34583   1.917   3.318   7.864  0.3245 -1.1078  0.5134
  997MOL0     H34584   1.934   3.353   7.687 -3.1824 -0.9263 -1.6421
  997MOL0     H34585   1.967   3.112   7.855  0.0317 -2.4745  0.1828
  997MOL0     H34586   2.084   3.191   7.758 -0.2492 -0.7690  0.6462
  997MOL0     H34587   1.919   3.125   7.544 -2.0114 -0.4690 -0.3896
  997MOL0     H34588   1.837   3.038   7.668  1.1103  0.0478  1.6596
  997MOL0     H34589   2.004   2.909   7.530  2.5208 -1.4896 -0.4440
  997MOL0     H34590   2.141   2.981   7.625  0.0299  0.7822  1.7568
  997MOL0     H34591   1.991   2.704   7.903 -0.0840  2.4249  2.6995
  997MOL0     H34592   1.516   3.229   7.778 -1.7959 -0.5398  1.7611
  997MOL0     H34593   1.309   3.313   8.017 -1.1406 -1.1424 -0.6530
  997MOL0     H34594   1.254   3.407   7.881 -3.2525 -2.8266 -0.4912
  997MOL0     H34595   1.312   3.253   7.852 -0.4269  0.3292  1.4660
  998MOL0     O34596   8.063   0.077   4.686 -0.2916 -1.0135 -0.0733
  998MOL0     C34597   8.158   0.021   4.631 -0.6645  0.4853  0.1886
  998MOL0     O34598   8.247  -0.064   4.693 -0.5831  0.0054 -0.1731
  998MOL0     C34599   8.278  -0.057   4.824 -1.1881 -0.0742  0.1835
  998MOL0     C34600   8.298  -0.179   4.891  0.3221 -0.4923 -0.4791
  998MOL0     C34601   8.346  -0.183   5.020  0.6607 -0.1359 -0.0447
  998MOL0     C34602   8.385  -0.059   5.087 -0.6449  1.4383  0.0893
  998MOL0     O34603   8.456  -0.048   5.204  0.2842  0.3346  0.4637
  998MOL0     C34604   8.502  -0.177   5.250 -0.2715  0.0159 -0.3386
  998MOL0     C34605   8.611  -0.147   5.360 -0.1713  0.5918 -0.4928
  998MOL0     C34606   8.739  -0.073   5.314  0.0994 -0.9475  0.2182
  998MOL0     C34607   8.813  -0.024   5.441  1.0931 -0.0057  0.2649
  998MOL0     C34608   8.945   0.059   5.421  0.1907  0.3144  0.8492
  998MOL0     C34609   9.015   0.064   5.553  0.1983  0.5304  0.2008
  998MOL0     C34610   8.950   0.175   5.634 -0.0779  0.5633  0.2441
  998MOL0     C34611   9.046   0.209   5.751  0.2977 -0.5133  0.2696
  998MOL0     N34612   9.081   0.091   5.839  0.3064 -0.3860  0.4948
  998MOL0     C34613   8.978   0.014   5.900 -0.2069  0.6508  0.3797
  998MOL0     C34614   9.050  -0.072   5.979  0.5077  0.3358  0.6436
  998MOL0     C34615   8.990  -0.181   6.061  0.2640  0.4177 -0.1578
  998MOL0     C34616   8.983  -0.156   6.214  1.2879  0.6063 -0.3695
  998MOL0     C34617   8.845  -0.126   6.268  0.5801 -0.7604  0.3299
  998MOL0     C34618   8.848  -0.111   6.414  0.7207  0.7212 -0.2862
  998MOL0     O34619   8.740  -0.024   6.463 -0.1666 -0.1140  0.1728
  998MOL0     C34620   8.713   0.016   6.593  0.8090 -0.1047  0.9502
  998MOL0     C34621   8.619   0.115   6.626 -0.3184 -0.0717  0.2820
  998MOL0     C34622   8.611   0.170   6.747  0.1448  0.5052  0.9657
  998MOL0     C34623   8.688   0.101   6.853 -0.3733 -0.1622 -0.5635
  998MOL0     C34624   8.658   0.129   7.004  1.0168  0.3299 -1.3607
  998MOL0     O34625   8.582   0.241   7.022 -0.0674 -0.1446 -0.3580
  998MOL0     C34626   8.519   0.283   7.135 -0.8486 -0.5735  0.2300
  998MOL0     C34627   8.563   0.267   7.265  0.9379 -0.1660  0.2286
  998MOL0     C34628   8.497   0.333   7.368  0.1031 -0.0815 -0.4204
  998MOL0     C34629   8.378   0.412   7.338 -0.9448 -0.2510 -0.5223
  998MOL0     O34630   8.303   0.486   7.423 -0.2317  0.9087  0.7355
  998MOL0     C34631   8.359   0.535   7.541  0.4360 -0.4734 -0.9521
  998MOL0     C34632   8.331   0.449   7.672 -0.2672 -0.7809 -0.4680
  998MOL0     C34633   8.199   0.375   7.675  0.4054 -0.6501  0.4662
  998MOL0     C34634   8.187   0.298   7.806  0.1956 -0.2066  0.4594
  998MOL0     C34635   8.099   0.178   7.774  0.8509 -0.7784 -0.6270
  998MOL0     C34636   7.954   0.214   7.794  1.2053  0.9277  0.7080
  998MOL0     C34637   7.851   0.103   7.756 -0.3856  0.8483 -0.2199
  998MOL0     C34638   7.711   0.137   7.825 -0.3935  0.4859 -0.2260
  998MOL0    Cl34639   7.582   0.053   7.735  0.0978  0.0329 -0.5798
  998MOL0     C34640   8.328   0.416   7.209  0.1189 -0.2786  1.2031
  998MOL0     C34641   8.402   0.354   7.103  0.4450 -0.6283  0.0336
  998MOL0     O34642   8.692   0.055   7.095  0.0519  0.3727 -0.0800
  998MOL0     C34643   8.783   0.004   6.821 -0.2464 -0.3579 -0.2240
  998MOL0     C34644   8.790  -0.033   6.688 -0.4873  0.4540  0.0572
  998MOL0     N34645   9.186  -0.042   5.973  0.4271 -0.3282 -0.3925
  998MOL0     N34646   9.198   0.044   5.887 -0.4561  0.3056 -0.4404
  998MOL0     C34647   8.356   0.060   5.033 -0.3199  0.1925 -0.5483
  998MOL0     C34648   8.309   0.058   4.900  0.8278  0.0149 -0.7910
  998MOL0     C34649   8.161   0.019   4.487  1.2742  0.3690  0.4701
  998MOL0     C34650   8.266  -0.038   4.421 -0.7274 -0.2976 -0.2886
  998MOL0     C34651   8.284  -0.050   4.280 -0.7286 -0.2659 -0.5401
  998MOL0     C34652   8.176  -0.006   4.201 -0.1731  0.7371 -0.5183
  998MOL0     O34653   8.182  -0.036   4.065  0.4931  0.4331 -0.2991
  998MOL0     C34654   8.058  -0.050   3.988  0.0393  0.2715  0.6819
  998MOL0     C34655   8.092  -0.067   3.839  0.9221 -0.4107  0.2809
  998MOL0     C34656   8.144   0.062   3.761 -0.6874 -0.4398 -0.4872
  998MOL0     C34657   8.146   0.030   3.608  0.0611 -0.5149 -0.4569
  998MOL0     C34658   8.212   0.148   3.550  0.3733  0.4172  0.2687
  998MOL0     C34659   8.270   0.239   3.503 -0.1129 -0.3234  0.4059
  998MOL0     C34660   8.058   0.031   4.267  0.6405  0.3540 -0.5531
  998MOL0     C34661   8.051   0.064   4.410 -0.0946  0.4350 -0.5120
  998MOL0     C34662   7.922   0.130   4.460  0.2320 -0.9023 -0.3054
  998MOL0     H34663   8.270  -0.270   4.839  2.5964 -1.8060  0.4472
  998MOL0     H34664   8.356  -0.283   5.062  0.3721  0.7314  2.1889
  998MOL0     H34665   8.429  -0.249   5.287  0.5599 -1.8775 -2.1645
  998MOL0     H34666   8.552  -0.225   5.165 -1.7169  0.7699 -1.6490
  998MOL0     H34667   8.651  -0.244   5.391 -2.5414 -0.9716 -2.0418
  998MOL0     H34668   8.561  -0.091   5.440 -0.3532 -0.8362  0.4399
  998MOL0     H34669   8.721   0.021   5.261  0.4452 -0.9797  0.0385
  998MOL0     H34670   8.799  -0.141   5.253 -1.3501 -0.6036 -1.6716
  998MOL0     H34671   8.745   0.036   5.502  1.7968  2.4181 -1.1768
  998MOL0     H34672   8.836  -0.115   5.496 -0.9008 -0.4452  0.4254
  998MOL0     H34673   9.006  -0.000   5.352  0.6472 -0.0272  1.5250
  998MOL0     H34674   8.941   0.159   5.379  3.7462  0.0646 -0.4745
  998MOL0     H34675   9.010  -0.030   5.608 -0.5425  0.5069  0.1039
  998MOL0     H34676   9.121   0.075   5.528  0.1057 -2.8224 -2.3799
  998MOL0     H34677   8.853   0.136   5.664 -1.3523 -1.1395 -5.0488
  998MOL0     H34678   8.923   0.261   5.572  0.2260 -1.5327 -3.0162
  998MOL0     H34679   9.139   0.248   5.710 -0.2921 -1.2630 -1.9067
  998MOL0     H34680   8.995   0.284   5.812  1.5231  0.0590  0.6232
  998MOL0     H34681   8.870   0.022   5.895 -0.2863  1.0464  2.0614
  998MOL0     H34682   8.890  -0.208   6.024 -0.0603  2.8055 -1.2324
  998MOL0     H34683   9.036  -0.278   6.040 -0.8665 -0.2425  0.3213
  998MOL0     H34684   9.018  -0.243   6.272  3.8215  0.8496 -1.3979
  998MOL0     H34685   9.047  -0.074   6.248  0.4661  0.1311  2.6007
  998MOL0     H34686   8.766  -0.201   6.254 -0.3495  0.4953 -1.6154
  998MOL0     H34687   8.793  -0.036   6.233 -1.7176 -0.4412  3.9566
  998MOL0     H34688   8.932  -0.053   6.452  2.0852 -0.2069 -1.7926
  998MOL0     H34689   8.845  -0.213   6.453 -0.9950 -0.2003 -2.5355
  998MOL0     H34690   8.577   0.153   6.534 -0.8109 -2.4381 -0.5623
  998MOL0     H34691   8.550   0.259   6.764  2.1681  1.7286  2.3249
  998MOL0     H34692   8.647   0.203   7.289  0.3592 -1.8120 -1.8775
  998MOL0     H34693   8.521   0.325   7.473  2.2596 -0.5248 -0.9042
  998MOL0     H34694   8.466   0.554   7.525  0.9239 -2.5973 -0.5029
  998MOL0     H34695   8.314   0.630   7.572 -0.2549 -1.5274  1.4624
  998MOL0     H34696   8.407   0.370   7.679 -1.3581 -1.7052  2.4475
  998MOL0     H34697   8.362   0.512   7.756  0.5646 -1.4290 -0.2645
  998MOL0     H34698   8.127   0.457   7.676 -0.8924 -1.7500  1.6158
  998MOL0     H34699   8.189   0.311   7.587  2.6578 -1.3914  0.6878
  998MOL0     H34700   8.158   0.368   7.884  0.7782 -0.6364  1.0714
  998MOL0     H34701   8.283   0.251   7.829  0.5440 -0.6196 -1.6259
  998MOL0     H34702   8.122   0.092   7.838 -1.1214 -0.5848  0.4057
  998MOL0     H34703   8.127   0.145   7.673  2.2673 -0.1557 -0.4716
  998MOL0     H34704   7.937   0.264   7.890 -0.1088  2.2980 -0.1812
  998MOL0     H34705   7.931   0.289   7.717 -2.7751 -1.0643 -0.3067
  998MOL0     H34706   7.884   0.006   7.792 -1.4223  0.1442 -1.1084
  998MOL0     H34707   7.834   0.089   7.649 -3.1497 -1.5844  0.3964
  998MOL0     H34708   7.717   0.117   7.932 -0.3397  2.4083  0.1654
  998MOL0     H34709   7.694   0.244   7.816 -0.0322  0.3890 -2.6620
  998MOL0     H34710   8.237   0.475   7.199  1.0337  0.8219 -1.5770
  998MOL0     H34711   8.380   0.368   6.997  0.9573  2.6958  0.2595
  998MOL0     H34712   8.850  -0.044   6.891 -1.3932 -0.9173  0.5135
  998MOL0     H34713   8.835  -0.128   6.662 -1.4366 -0.7813  2.6374
  998MOL0     H34714   8.385   0.150   5.086  0.2190  0.4429 -1.2532
  998MOL0     H34715   8.284   0.153   4.852  0.6611  1.2164  1.5297
  998MOL0     H34716   8.355  -0.080   4.467  0.1303  1.7941  0.0976
  998MOL0     H34717   8.377  -0.089   4.239  0.1503 -0.7516  1.7755
  998MOL0     H34718   7.994   0.038   3.997  0.7699  1.2947 -2.7472
  998MOL0     H34719   8.003  -0.138   4.023  0.3480 -0.3254 -0.3083
  998MOL0     H34720   7.997  -0.098   3.795 -0.2615  2.3625  0.6235
  998MOL0     H34721   8.175  -0.136   3.823  0.3757 -1.3259  1.2642
  998MOL0     H34722   8.242   0.095   3.793 -1.4957  1.4157  0.1969
  998MOL0     H34723   8.076   0.143   3.791 -0.5481 -0.2819 -0.5979
  998MOL0     H34724   8.199  -0.064   3.587 -2.5086 -2.3610  0.7948
  998MOL0     H34725   8.046   0.016   3.567  0.7261 -3.5181 -1.2900
  998MOL0     H34726   8.313   0.326   3.457  2.8284 -0.2272  2.9351
  998MOL0     H34727   7.972   0.036   4.201  0.9582  0.1016 -0.9900
  998MOL0     H34728   7.946   0.229   4.500 -2.7657 -0.2784  0.1733
  998MOL0     H34729   7.842   0.146   4.387  3.2343  0.1615 -3.6715
  998MOL0     H34730   7.878   0.082   4.548  2.4798 -0.0839  1.3531
  999MOL0     O34731   9.514  10.706   4.788 -0.3407 -0.0641  0.0102
  999MOL0     C34732   9.616  10.634   4.795 -0.5893 -0.8511 -0.1276
  999MOL0     O34733   9.645  10.550   4.903  0.1989 -0.5321 -0.1290
  999MOL0     C34734   9.552  10.530   5.004  0.3789  0.0023 -0.8667
  999MOL0     C34735   9.602  10.504   5.133 -0.3561 -0.6775 -0.6438
  999MOL0     C34736   9.526  10.477   5.242  0.3141  0.8794  0.4678
  999MOL0     C34737   9.389  10.472   5.229 -0.2606 -1.5059  0.1461
  999MOL0     O34738   9.315  10.455   5.341  0.0289 -0.1646  0.4145
  999MOL0     C34739   9.262  10.580   5.392 -0.0346 -0.3363 -0.1405
  999MOL0     C34740   9.281  10.571   5.535 -0.5682  0.1236  0.2504
  999MOL0     C34741   9.416  10.625   5.571 -0.6885 -0.8531  0.7571
  999MOL0     C34742   9.427  10.786   5.582  0.1067 -0.3342 -0.5750
  999MOL0     C34743   9.571  10.849   5.604  0.3688  0.7742  0.3984
  999MOL0     C34744   9.669  10.837   5.490  0.0159  0.0728 -0.4024
  999MOL0     C34745   9.605  10.917   5.363 -0.6566 -0.8143 -0.4510
  999MOL0     C34746   9.707  11.020   5.297 -0.0556 -0.0899  0.2099
  999MOL0     N34747   9.697  11.014   5.147 -0.5743  0.2330  0.4803
  999MOL0     C34748   9.793  10.955   5.064 -0.4818 -0.0609  0.9544
  999MOL0     C34749   9.768  11.006   4.937 -0.1446  1.1746  0.1315
  999MOL0     C34750   9.856  10.984   4.818  0.0495 -0.2609 -0.2040
  999MOL0     C34751   9.887  11.125   4.755 -0.1227 -1.1975  0.4508
  999MOL0     C34752  10.026  11.121   4.692  0.4957 -0.7261  1.1966
  999MOL0     C34753  10.036  11.216   4.571  0.8430 -0.5901 -0.4087
  999MOL0     O34754  10.122  11.181   4.465  0.4815  0.5820 -0.1337
  999MOL0     C34755  10.091  11.217   4.340  0.6522 -0.8539 -0.2732
  999MOL0     C34756   9.999  11.332   4.309  0.0957  1.4080 -0.5274
  999MOL0     C34757   9.959  11.356   4.184 -0.0998  0.0631  1.0737
  999MOL0     C34758  10.005  11.280   4.075 -0.0465 -0.4972 -0.0341
  999MOL0     C34759   9.960  11.308   3.944  0.0880  0.8945 -0.5227
  999MOL0     O34760  10.007  11.225   3.846 -0.0706 -0.2897 -0.5138
  999MOL0     C34761  10.000  11.256   3.708  0.9060  0.3770 -0.8586
  999MOL0     C34762   9.965  11.376   3.652 -0.2360  0.1482  0.3817
  999MOL0     C34763   9.976  11.377   3.512  0.9809 -0.3210  0.0923
  999MOL0     C34764  10.011  11.263   3.432  0.4163 -0.3243  0.3992
  999MOL0     O34765   9.976  11.276   3.300  0.1980  0.8716  0.3281
  999MOL0     C34766  10.024  11.170   3.208 -1.2764  1.0248  0.7248
  999MOL0     C34767  10.025  11.219   3.069  0.4597  0.0848  0.0500
  999MOL0     C34768  10.100  11.122   2.986  0.4190 -0.4880  0.0474
  999MOL0     C34769  10.043  11.106   2.842  0.2699  0.3165 -0.7141
  999MOL0     C34770  10.065  11.231   2.750 -0.6639  0.4851  0.0294
  999MOL0     C34771  10.000  11.230   2.604  0.5603 -0.4482 -0.4452
  999MOL0     C34772   9.988  11.093   2.535  1.1580  0.0732 -1.6684
  999MOL0     C34773  10.016  11.105   2.387  0.8407  0.7577 -0.7270
  999MOL0    Cl34774   9.923  11.247   2.317  0.1660 -0.4422  0.7209
  999MOL0     C34775  10.042  11.145   3.505 -0.4500 -0.2647  0.5420
  999MOL0     C34776  10.051  11.148   3.644  0.6775  0.8066  0.1115
  999MOL0     O34777   9.862  11.372   3.937 -0.0765 -1.0664  0.4976
  999MOL0     C34778  10.103  11.184   4.101 -0.2778 -0.5498  0.1597
  999MOL0     C34779  10.145  11.142   4.235 -0.3049  0.9196  0.6997
  999MOL0     N34780   9.655  11.085   4.945  0.6381  0.2688  0.6741
  999MOL0     N34781   9.620  11.094   5.066 -0.3685 -0.4635 -0.5232
  999MOL0     C34782   9.333  10.490   5.104 -0.7984  0.3080  0.5883
  999MOL0     C34783   9.405  10.527   4.995 -1.2782  0.5135  0.6212
  999MOL0     C34784   9.708  10.634   4.679  1.4056  0.4071 -0.5115
  999MOL0     C34785   9.844  10.672   4.702  0.6802  0.8555 -1.1616
  999MOL0     C34786   9.926  10.706   4.595 -0.4782  0.5249  0.0693
  999MOL0     C34787   9.882  10.703   4.465 -0.5238  0.6962  0.6914
  999MOL0     O34788   9.979  10.728   4.365 -0.8490  0.4667 -0.0213
  999MOL0     C34789   9.974  10.657   4.240 -0.2332  0.6898  0.9453
  999MOL0     C34790  10.091  10.552   4.238  0.7478  0.8723  0.1271
  999MOL0     C34791  10.226  10.600   4.220  0.3166  0.2684  0.1433
  999MOL0     C34792  10.327  10.491   4.182  0.1091  0.0012  0.0071
  999MOL0     C34793  10.468  10.521   4.180 -0.0920  0.6054 -0.6276
  999MOL0     C34794  10.588  10.545   4.206 -0.2205 -0.5438  0.2384
  999MOL0     C34795   9.746  10.665   4.440 -0.7333  0.1481 -0.7519
  999MOL0     C34796   9.661  10.636   4.547  0.5684 -0.1509  0.0744
  999MOL0     C34797   9.518  10.616   4.490  0.4365 -0.1170 -0.2145
  999MOL0     H34798   9.710  10.492   5.131 -0.4129 -1.2466 -0.4418
  999MOL0     H34799   9.568  10.463   5.341  1.1503  3.2684  0.5352
  999MOL0     H34800   9.312  10.669   5.354 -0.3457 -0.7139 -1.5011
  999MOL0     H34801   9.155  10.589   5.375 -0.2691 -0.5420  1.1566
  999MOL0     H34802   9.263  10.464   5.552  2.6521 -1.2732 -3.4504
  999MOL0     H34803   9.207  10.633   5.585  1.1805  2.5338  0.0039
  999MOL0     H34804   9.491  10.612   5.493  2.4259  0.0969  3.3465
  999MOL0     H34805   9.462  10.583   5.662  3.2688  0.9664 -0.1611
  999MOL0     H34806   9.382  10.827   5.492  0.9340 -0.7394 -1.1885
  999MOL0     H34807   9.373  10.813   5.674  2.5624  0.3598  0.7806
  999MOL0     H34808   9.557  10.952   5.636  1.2084  1.1457 -0.3833
  999MOL0     H34809   9.616  10.791   5.685  0.0282  1.3650  1.0128
  999MOL0     H34810   9.762  10.882   5.526  0.8131 -1.8848  0.0680
  999MOL0     H34811   9.688  10.732   5.466  2.4314  0.2645  0.4194
  999MOL0     H34812   9.527  10.985   5.396  0.9101  0.4448  0.8426
  999MOL0     H34813   9.557  10.846   5.296 -0.6830 -0.6712 -0.5839
  999MOL0     H34814   9.694  11.126   5.321 -0.9868 -0.0598 -0.3616
  999MOL0     H34815   9.812  10.990   5.308  1.1747  1.5281 -4.5717
  999MOL0     H34816   9.874  10.889   5.092  1.3289  1.6035 -0.0578
  999MOL0     H34817   9.951  10.932   4.827 -0.5362 -1.5655 -1.1865
  999MOL0     H34818   9.787  10.934   4.749 -2.4275 -4.3200  4.5357
  999MOL0     H34819   9.818  11.150   4.673  2.9967  0.7753 -1.8036
  999MOL0     H34820   9.868  11.212   4.819  1.6255  0.8402 -1.6087
  999MOL0     H34821  10.053  11.023   4.653  2.7361 -0.4095  1.7802
  999MOL0     H34822  10.088  11.149   4.778 -0.5922  1.0799  1.4473
  999MOL0     H34823  10.066  11.317   4.599 -1.0914  0.0533 -0.5540
  999MOL0     H34824   9.935  11.218   4.529  0.9021 -0.7062 -0.5589
  999MOL0     H34825   9.977  11.391   4.398  3.0053  1.8800 -0.0045
  999MOL0     H34826   9.896  11.443   4.170 -0.3502  0.1141  2.3839
  999MOL0     H34827   9.943  11.464   3.711  1.0829 -0.5041  1.9039
  999MOL0     H34828   9.938  11.470   3.471  0.5432 -1.3525 -1.9995
  999MOL0     H34829  10.130  11.158   3.229 -1.1506  0.6821 -0.0700
  999MOL0     H34830   9.956  11.084   3.205 -0.6641  0.5433 -1.5876
  999MOL0     H34831   9.927  11.239   3.026  0.8824 -1.7694 -1.9709
  999MOL0     H34832  10.080  11.314   3.075 -0.9464  0.8540  1.4158
  999MOL0     H34833  10.205  11.149   2.978  0.9939 -2.3028  1.0518
  999MOL0     H34834  10.107  11.020   3.025  1.0298 -0.2909  0.4636
  999MOL0     H34835   9.936  11.083   2.842  0.6921 -2.0385  1.5126
  999MOL0     H34836  10.094  11.014   2.813  2.2107 -0.4909  4.2962
  999MOL0     H34837  10.172  11.246   2.738  0.5237 -3.9988  2.8990
  999MOL0     H34838  10.030  11.323   2.800 -2.2372  0.8122 -1.5668
  999MOL0     H34839   9.900  11.274   2.597  0.1019 -0.6981  2.7351
  999MOL0     H34840  10.068  11.287   2.540 -3.6687  4.3153 -1.2939
  999MOL0     H34841   9.889  11.049   2.545  1.2644  0.0441 -0.5892
  999MOL0     H34842  10.069  11.032   2.577 -0.8817 -2.9875 -1.8181
  999MOL0     H34843  10.122  11.123   2.365  1.0782  0.9909  0.5216
  999MOL0     H34844   9.976  11.009   2.354 -2.2260  0.4850  3.0676
  999MOL0     H34845  10.065  11.048   3.461 -0.4737 -1.4511  2.9961
  999MOL0     H34846  10.074  11.066   3.711 -0.1585  1.8629  1.7820
  999MOL0     H34847  10.148  11.136   4.015 -0.2360  0.8552 -0.6372
  999MOL0     H34848  10.212  11.058   4.247 -0.3199  0.5827 -1.2700
  999MOL0     H34849   9.226  10.486   5.086 -0.5136  0.4464 -1.3997
  999MOL0     H34850   9.361  10.557   4.900  1.4136 -2.0905 -1.6906
  999MOL0     H34851   9.886  10.659   4.801  4.3767  1.6237 -2.4403
  999MOL0     H34852  10.027  10.743   4.601 -0.1254 -0.4816  0.6741
  999MOL0     H34853   9.984  10.719   4.151 -4.1316 -2.6617 -2.2735
  999MOL0     H34854   9.882  10.599   4.224 -1.5826  3.6568 -5.7133
  999MOL0     H34855  10.069  10.486   4.154  4.2531 -3.3748  2.1520
  999MOL0     H34856  10.085  10.497   4.333 -2.9498  0.1250 -0.3844
  999MOL0     H34857  10.256  10.640   4.318  1.0481  1.4915 -0.5550
  999MOL0     H34858  10.226  10.683   4.149  0.6469 -0.7670 -1.1087
  999MOL0     H34859  10.296  10.402   4.239 -3.3284  1.5542  0.8121
  999MOL0     H34860  10.309  10.454   4.081 -1.5093  2.8844 -0.8694
  999MOL0     H34861  10.686  10.585   4.225 -0.8368  0.7035  0.8916
  999MOL0     H34862   9.702  10.672   4.341  0.3204 -0.5558 -1.2884
  999MOL0     H34863   9.474  10.714   4.469 -0.6554 -1.0170 -2.5256
  999MOL0     H34864   9.507  10.547   4.405  0.1414  1.5053 -1.5363
  999MOL0     H34865   9.449  10.576   4.565 -0.9337 -1.0052 -1.8758
 1000MOL0     O34866   3.424  10.841   0.595  0.1129 -0.5345 -0.1794
 1000MOL0     C34867   3.436  10.809   0.714 -0.5818  0.3876 -0.1869
 1000MOL0     O34868   3.495  10.893   0.815  0.1866  0.5514 -0.1323
 1000MOL0     C34869   3.534  11.020   0.777  0.2544  0.9731  0.1577
 1000MOL0     C34870   3.428  11.105   0.755 -0.9851 -0.1620 -0.7937
 1000MOL0     C34871   3.454  11.235   0.716  0.0663  0.5588  0.3690
 1000MOL0     C34872   3.588  11.286   0.709 -1.0539  0.9762  1.0918
 1000MOL0     O34873   3.627  11.415   0.680  0.3471 -0.1331  0.4916
 1000MOL0     C34874   3.525  11.500   0.626 -0.1583 -0.1862  0.5752
 1000MOL0     C34875   3.531  11.490   0.477 -1.3278 -0.0947  0.4098
 1000MOL0     C34876   3.417  11.574   0.425 -0.3044 -0.4828 -0.0167
 1000MOL0     C34877   3.424  11.579   0.261  0.2737 -1.3518  0.2244
 1000MOL0     C34878   3.341  11.686   0.189  0.0743 -0.6627 -0.5071
 1000MOL0     C34879   3.207  11.728   0.264 -0.4891 -0.2789 -0.6149
 1000MOL0     C34880   3.136  11.834   0.179  1.0311 -0.4484  0.2640
 1000MOL0     C34881   3.216  11.966   0.176 -0.5838  0.8393 -1.0227
 1000MOL0     N34882   3.149  12.051   0.080 -0.3335  0.2544  0.5533
 1000MOL0     C34883   3.015  12.088   0.094 -0.5199  0.5960  0.2020
 1000MOL0     C34884   2.984  12.167  -0.013 -0.6095 -0.0493 -0.6648
 1000MOL0     C34885   2.842  12.230  -0.046 -0.6006  0.3350 -1.2085
 1000MOL0     C34886   2.737  12.159  -0.133 -0.0109  0.6840  0.5534
 1000MOL0     C34887   2.611  12.246  -0.159 -0.6682 -0.1877 -0.2635
 1000MOL0     C34888   2.502  12.169  -0.226  0.7029  1.0955 -0.3441
 1000MOL0     O34889   2.441  12.044  -0.175 -0.5418  0.5093  0.1103
 1000MOL0     C34890   2.413  12.025  -0.046 -0.3125 -0.7614 -0.1777
 1000MOL0     C34891   2.425  11.901   0.022 -0.7282 -0.9433  0.1531
 1000MOL0     C34892   2.385  11.875   0.157 -0.4671 -0.1793  0.8141
 1000MOL0     C34893   2.344  11.989   0.229  0.3088  0.1756 -0.0680
 1000MOL0     C34894   2.314  11.979   0.377 -0.6525  0.1219  0.3545
 1000MOL0     O34895   2.338  12.090   0.449  0.0407  0.1291  0.4374
 1000MOL0     C34896   2.334  12.082   0.585  0.8581 -0.5702  0.5679
 1000MOL0     C34897   2.410  12.010   0.663 -0.3885 -0.3175 -0.8040
 1000MOL0     C34898   2.418  12.034   0.799 -0.3590  0.2620  0.7316
 1000MOL0     C34899   2.357  12.138   0.859 -0.7017 -0.2089 -0.5322
 1000MOL0     O34900   2.378  12.169   0.992  0.2574 -0.0718 -0.4829
 1000MOL0     C34901   2.313  12.078   1.082  0.1136  0.2792  0.3418
 1000MOL0     C34902   2.172  12.114   1.099  0.2318 -0.2126  0.6512
 1000MOL0     C34903   2.103  12.045   1.212  0.1574 -0.3636  0.0514
 1000MOL0     C34904   1.958  12.102   1.246 -0.0999 -0.1046 -0.3098
 1000MOL0     C34905   1.885  12.018   1.360  0.5844 -0.7090  0.5755
 1000MOL0     C34906   1.732  12.052   1.367 -0.1633  0.0405  0.7438
 1000MOL0     C34907   1.667  11.975   1.486 -0.6783 -0.5947 -0.1356
 1000MOL0     C34908   1.512  11.998   1.474  0.0599  0.1426  0.5607
 1000MOL0    Cl34909   1.445  11.967   1.638 -0.1870  0.1669  0.3312
 1000MOL0     C34910   2.290  12.225   0.778 -0.4076 -0.3033 -0.2904
 1000MOL0     C34911   2.276  12.205   0.637 -0.4959 -0.0695 -0.8243
 1000MOL0     O34912   2.280  11.875   0.423  0.1460  0.5857  0.7447
 1000MOL0     C34913   2.326  12.112   0.167 -1.0019 -0.4154  0.8941
 1000MOL0     C34914   2.354  12.125   0.032  0.6196  0.2997 -0.3824
 1000MOL0     N34915   3.091  12.181  -0.087 -1.1675  0.6322  0.1961
 1000MOL0     N34916   3.191  12.111  -0.038  0.1469  0.4881 -1.1789
 1000MOL0     C34917   3.687  11.194   0.735 -0.3965  0.5274 -1.0424
 1000MOL0     C34918   3.663  11.062   0.779  0.0569 -1.3154 -0.5130
 1000MOL0     C34919   3.368  10.682   0.758  0.2637  0.0190  0.2743
 1000MOL0     C34920   3.293  10.693   0.871  0.6154  0.9338 -0.1963
 1000MOL0     C34921   3.212  10.591   0.915  0.3076 -0.0231  0.0854
 1000MOL0     C34922   3.212  10.474   0.844  0.3013  0.1198  0.7295
 1000MOL0     O34923   3.139  10.373   0.898 -0.0827 -0.0632 -0.1804
 1000MOL0     C34924   3.037  10.315   0.816 -0.2808 -1.1672  0.1086
 1000MOL0     C34925   3.082  10.169   0.817  0.2489  1.2768 -0.0352
 1000MOL0     C34926   3.051  10.107   0.949  1.1973  0.6623  0.3701
 1000MOL0     C34927   3.033   9.948   0.934  0.7455 -0.1630 -0.4101
 1000MOL0     C34928   2.905   9.897   0.981  0.2913 -0.0141  0.7392
 1000MOL0     C34929   2.805   9.856   1.036  0.0269  0.5621  0.1613
 1000MOL0     C34930   3.278  10.470   0.720 -1.2176  0.1306  0.0563
 1000MOL0     C34931   3.362  10.565   0.679 -0.5960 -0.0524  0.0949
 1000MOL0     C34932   3.464  10.527   0.572 -0.2350 -0.1182  0.3078
 1000MOL0     H34933   3.328  11.064   0.750 -1.0873  0.2070 -4.1786
 1000MOL0     H34934   3.367  11.290   0.679  0.2070  0.4175 -0.1838
 1000MOL0     H34935   3.425  11.492   0.671 -1.4177  0.2264 -1.9761
 1000MOL0     H34936   3.551  11.604   0.648  0.8544 -0.4325  0.5903
 1000MOL0     H34937   3.526  11.386   0.442 -2.2452  1.0412 -3.2284
 1000MOL0     H34938   3.631  11.528   0.451 -1.0614 -1.8692 -1.4556
 1000MOL0     H34939   3.433  11.674   0.465  2.9498  0.4522 -3.1178
 1000MOL0     H34940   3.321  11.527   0.448 -2.1534  2.0305 -2.0298
 1000MOL0     H34941   3.530  11.586   0.236  0.1888 -1.2208 -0.1096
 1000MOL0     H34942   3.376  11.484   0.235 -0.0537 -0.9325 -0.7349
 1000MOL0     H34943   3.407  11.772   0.179  1.1174 -1.5174 -1.3033
 1000MOL0     H34944   3.311  11.649   0.090 -2.8330  2.6335 -1.0503
 1000MOL0     H34945   3.152  11.633   0.270 -0.6634 -0.1417  0.0759
 1000MOL0     H34946   3.222  11.760   0.368 -0.0686  0.1812 -0.8141
 1000MOL0     H34947   3.032  11.855   0.208  0.4519 -0.1314 -1.8582
 1000MOL0     H34948   3.117  11.799   0.077 -0.4150  1.2145 -0.1005
 1000MOL0     H34949   3.217  12.022   0.271 -0.2611  1.9056 -1.6355
 1000MOL0     H34950   3.319  11.950   0.141 -0.7932  2.8730 -2.7871
 1000MOL0     H34951   2.948  12.052   0.171 -1.1095  0.2938 -0.4451
 1000MOL0     H34952   2.794  12.255   0.049 -0.6035 -1.2851 -0.7470
 1000MOL0     H34953   2.865  12.320  -0.103 -1.9058  1.8558  0.5104
 1000MOL0     H34954   2.785  12.139  -0.229  1.5636 -0.6712  1.5718
 1000MOL0     H34955   2.702  12.069  -0.082 -0.7314 -0.4624 -1.7833
 1000MOL0     H34956   2.644  12.328  -0.224  1.2151 -0.6760  0.0264
 1000MOL0     H34957   2.588  12.284  -0.059  0.4816  0.1143 -0.0996
 1000MOL0     H34958   2.527  12.153  -0.331 -1.0112 -2.7368 -0.3386
 1000MOL0     H34959   2.423  12.245  -0.227 -0.5862 -0.1562  0.7382
 1000MOL0     H34960   2.469  11.825  -0.041  3.8941  2.3845 -1.2264
 1000MOL0     H34961   2.397  11.782   0.212  0.7293 -0.2548  0.4668
 1000MOL0     H34962   2.458  11.923   0.620  1.9467 -0.2128  1.3386
 1000MOL0     H34963   2.475  11.956   0.848 -1.4035 -2.6547 -2.2246
 1000MOL0     H34964   2.318  11.980   1.034  0.0186  0.4873 -0.0997
 1000MOL0     H34965   2.358  12.079   1.182  1.5977  1.8543 -0.2940
 1000MOL0     H34966   2.187  12.219   1.122 -0.4108  0.1292 -0.4244
 1000MOL0     H34967   2.119  12.090   1.007 -1.4238  1.4200  1.1233
 1000MOL0     H34968   2.102  11.939   1.185  0.0625 -0.4688  0.4596
 1000MOL0     H34969   2.178  12.048   1.292  3.2252 -2.3875 -2.5214
 1000MOL0     H34970   1.898  12.098   1.154  1.8326  1.9055 -1.7500
 1000MOL0     H34971   1.977  12.201   1.288 -5.0876 -0.2113  3.1483
 1000MOL0     H34972   1.951  12.025   1.447  0.8768 -1.5735  0.4340
 1000MOL0     H34973   1.883  11.913   1.329 -2.2323 -0.4030 -0.5908
 1000MOL0     H34974   1.720  12.161   1.368  2.1944  0.3484  0.6592
 1000MOL0     H34975   1.700  12.015   1.269  1.9676 -0.9272  0.3649
 1000MOL0     H34976   1.701  12.031   1.573 -0.8025 -3.1494  1.6655
 1000MOL0     H34977   1.693  11.870   1.499 -2.9494 -1.3589 -1.3025
 1000MOL0     H34978   1.489  12.100   1.444  0.1487 -0.1957 -0.7332
 1000MOL0     H34979   1.475  11.928   1.399 -0.1026 -1.9102  2.4589
 1000MOL0     H34980   2.257  12.320   0.820 -1.0866 -0.6513 -0.0356
 1000MOL0     H34981   2.221  12.278   0.578  2.1239  2.1603 -0.7356
 1000MOL0     H34982   2.289  12.199   0.219 -1.6753  0.5600 -1.1261
 1000MOL0     H34983   2.331  12.221  -0.011  0.7737  1.2696  1.5755
 1000MOL0     H34984   3.788  11.231   0.730  0.1272 -0.0981  2.2625
 1000MOL0     H34985   3.738  10.990   0.810 -0.9509 -2.0722  0.2354
 1000MOL0     H34986   3.273  10.788   0.921 -0.0318  1.3801 -1.2716
 1000MOL0     H34987   3.179  10.597   1.018  1.3172 -0.9280  0.4857
 1000MOL0     H34988   3.043  10.358   0.715 -1.1533  1.8205  1.2249
 1000MOL0     H34989   2.941  10.343   0.860 -0.0967  1.1611 -0.8347
 1000MOL0     H34990   3.188  10.153   0.791  0.0828 -0.9377  0.4941
 1000MOL0     H34991   3.027  10.124   0.734  2.7693  0.8952 -1.6052
 1000MOL0     H34992   2.960  10.147   0.992  0.0008 -0.5106 -0.9573
 1000MOL0     H34993   3.136  10.128   1.015  1.9195 -1.6975  0.2944
 1000MOL0     H34994   3.038   9.914   0.830  3.1421  0.3918 -0.5186
 1000MOL0     H34995   3.107   9.899   0.998  1.0913  2.2947  1.2438
 1000MOL0     H34996   2.722   9.817   1.091  0.6378  0.1787  0.8117
 1000MOL0     H34997   3.293  10.377   0.666 -0.1670  1.1058 -1.4181
 1000MOL0     H34998   3.489  10.421   0.581 -3.1508 -0.9505 -0.2627
 1000MOL0     H34999   3.420  10.556   0.476  1.7236  4.1489  0.4672
 1000MOL0     H35000   3.554  10.586   0.594 -2.3450  3.8895 -0.7459
 1001MOL0     O35001   7.933   8.285   1.155  0.0953 -0.0720 -0.6366
 1001MOL0     C35002   7.813   8.264   1.154  0.9865  0.7866 -0.1858
 1001MOL0     O35003   7.713   8.353   1.113  0.6211 -0.1986  0.3452
 1001MOL0     C35004   7.751   8.488   1.098  0.3121  0.5307 -0.5649
 1001MOL0     C35005   7.867   8.538   1.040  1.0382  0.1694  0.1422
 1001MOL0     C35006   7.877   8.681   1.045  0.8234  0.7483 -0.7506
 1001MOL0     C35007   7.784   8.760   1.106  0.1383 -0.6787 -0.5078
 1001MOL0     O35008   7.813   8.894   1.087  0.5968  0.2437 -0.4012
 1001MOL0     C35009   7.801   8.981   1.196  0.4800  0.2570 -0.1019
 1001MOL0     C35010   7.911   9.088   1.202 -0.1212 -0.5436  0.1174
 1001MOL0     C35011   8.050   9.024   1.213  0.3278 -0.1811 -0.9750
 1001MOL0     C35012   8.141   9.142   1.217 -1.0993  0.3839  0.4628
 1001MOL0     C35013   8.287   9.104   1.242 -0.3028  0.1099  0.5537
 1001MOL0     C35014   8.378   9.234   1.229 -0.6535 -0.1205 -0.0769
 1001MOL0     C35015   8.523   9.182   1.225  1.1717 -0.5021 -0.0454
 1001MOL0     C35016   8.625   9.309   1.202 -0.1089 -0.1884  0.3488
 1001MOL0     N35017   8.661   9.389   1.319 -0.3834  0.9558 -0.1911
 1001MOL0     C35018   8.648   9.344   1.446 -1.0857 -0.5049 -0.1989
 1001MOL0     C35019   8.675   9.442   1.527  0.3733  0.2954  0.1642
 1001MOL0     C35020   8.677   9.445   1.678 -0.0502 -0.7264  0.6737
 1001MOL0     C35021   8.543   9.403   1.746 -0.3542  0.3055  0.4806
 1001MOL0     C35022   8.534   9.461   1.881  0.9505  0.2047 -0.8378
 1001MOL0     C35023   8.647   9.407   1.965  0.4573 -0.1168  0.1277
 1001MOL0     O35024   8.618   9.268   1.999  0.0515 -0.2626  0.2852
 1001MOL0     C35025   8.516   9.242   2.094 -0.2091 -0.2456 -0.5856
 1001MOL0     C35026   8.470   9.333   2.192  0.3494  0.6021  0.3119
 1001MOL0     C35027   8.362   9.295   2.281  1.1304  0.8528 -1.0248
 1001MOL0     C35028   8.319   9.158   2.280  0.3972  1.0193 -0.6135
 1001MOL0     C35029   8.214   9.109   2.375  0.3635  0.4262  0.8704
 1001MOL0     O35030   8.160   8.985   2.350  0.1415  0.3437  0.1745
 1001MOL0     C35031   8.051   8.938   2.428  0.8728 -0.4333 -0.6253
 1001MOL0     C35032   8.053   8.800   2.470 -0.4170  0.1036 -0.3597
 1001MOL0     C35033   7.943   8.733   2.524  0.3577  0.1052 -0.2353
 1001MOL0     C35034   7.826   8.811   2.534 -0.0630  0.1138 -0.2295
 1001MOL0     O35035   7.719   8.731   2.564 -0.4281  1.1229  0.4247
 1001MOL0     C35036   7.585   8.740   2.504  0.6528 -0.2386  0.2006
 1001MOL0     C35037   7.493   8.637   2.579  0.0425  1.0166  0.9756
 1001MOL0     C35038   7.345   8.670   2.534  0.9356 -0.9318  0.4282
 1001MOL0     C35039   7.268   8.546   2.489 -0.4695 -0.2085  0.6407
 1001MOL0     C35040   7.116   8.570   2.501 -0.0796 -0.2291  0.2124
 1001MOL0     C35041   7.049   8.647   2.386 -0.2416  1.0335 -0.3213
 1001MOL0     C35042   6.908   8.706   2.411 -0.0609 -0.5813 -0.0034
 1001MOL0     C35043   6.793   8.603   2.411 -0.3493  0.4002  0.0320
 1001MOL0    Cl35044   6.775   8.520   2.564 -0.5113 -0.0383 -0.3332
 1001MOL0     C35045   7.819   8.941   2.515  0.4208 -0.4463  0.1298
 1001MOL0     C35046   7.931   9.013   2.468 -0.9160 -0.0244  0.6504
 1001MOL0     O35047   8.213   9.169   2.482 -0.4302 -0.3342  0.4428
 1001MOL0     C35048   8.367   9.073   2.179  0.8617  0.1846  0.0834
 1001MOL0     C35049   8.461   9.109   2.086  0.1907  0.1165 -0.3423
 1001MOL0     N35050   8.713   9.548   1.454  0.3614  0.1064 -0.0240
 1001MOL0     N35051   8.708   9.521   1.326 -0.2841 -0.6203 -0.0935
 1001MOL0     C35052   7.656   8.712   1.165 -0.5976  0.1778 -0.7054
 1001MOL0     C35053   7.651   8.571   1.166 -0.1652  0.2762 -0.4889
 1001MOL0     C35054   7.762   8.138   1.207 -0.6041  0.1976 -0.8387
 1001MOL0     C35055   7.832   8.070   1.305 -0.5450  0.4247  0.4969
 1001MOL0     C35056   7.782   7.963   1.375 -0.2217 -0.1908 -0.1572
 1001MOL0     C35057   7.651   7.918   1.352  0.3044 -0.4781 -0.1572
 1001MOL0     O35058   7.610   7.824   1.434  0.7216  1.0423  0.0887
 1001MOL0     C35059   7.648   7.694   1.396  0.3596  0.2314 -1.4343
 1001MOL0     C35060   7.515   7.609   1.400 -0.9942  0.8632  0.5587
 1001MOL0     C35061   7.395   7.672   1.330  0.0886  0.9241  0.7179
 1001MOL0     C35062   7.304   7.563   1.264  1.2481 -0.2997 -0.0954
 1001MOL0     C35063   7.355   7.527   1.129  0.5573 -0.6083 -0.1984
 1001MOL0     C35064   7.408   7.477   1.039  0.3896 -0.1566  0.5903
 1001MOL0     C35065   7.570   7.988   1.259  0.1816 -0.0835 -0.5415
 1001MOL0     C35066   7.630   8.090   1.179 -0.5481  0.2892 -0.1115
 1001MOL0     C35067   7.527   8.144   1.079 -0.0606 -0.4976  0.2817
 1001MOL0     H35068   7.947   8.479   0.997  1.2640 -1.3319  2.4761
 1001MOL0     H35069   7.972   8.722   1.012  1.3804  0.2749  0.2106
 1001MOL0     H35070   7.712   9.044   1.198 -0.0919 -0.2838 -3.2743
 1001MOL0     H35071   7.795   8.934   1.295  1.1376  3.5496  1.6259
 1001MOL0     H35072   7.894   9.146   1.293  1.6250 -1.2168  0.9083
 1001MOL0     H35073   7.899   9.151   1.113 -2.8910  1.0021  1.4401
 1001MOL0     H35074   8.084   8.970   1.124  2.1364  0.4027 -0.6701
 1001MOL0     H35075   8.052   8.962   1.303 -0.8000  1.1659  0.0336
 1001MOL0     H35076   8.147   9.198   1.124 -1.5413 -2.5643 -1.4767
 1001MOL0     H35077   8.117   9.212   1.298  1.4687 -0.2305  1.8844
 1001MOL0     H35078   8.304   9.065   1.343  1.0035  0.3452  0.4369
 1001MOL0     H35079   8.305   9.032   1.161 -1.5085  2.2817 -1.7972
 1001MOL0     H35080   8.346   9.286   1.138  2.7615 -0.9553 -1.9253
 1001MOL0     H35081   8.362   9.286   1.324  0.2610 -2.5185  1.4660
 1001MOL0     H35082   8.531   9.120   1.135 -0.3672 -0.0366 -0.5352
 1001MOL0     H35083   8.557   9.127   1.313  2.7249  3.1277  1.8671
 1001MOL0     H35084   8.713   9.276   1.145 -0.4655 -2.5729  1.0584
 1001MOL0     H35085   8.572   9.378   1.136 -1.9397 -2.9422 -1.2324
 1001MOL0     H35086   8.621   9.246   1.484 -1.1757  0.6773  3.1086
 1001MOL0     H35087   8.744   9.362   1.704  0.5210 -0.0704  1.3709
 1001MOL0     H35088   8.711   9.541   1.719  1.0714  0.6678 -3.0903
 1001MOL0     H35089   8.460   9.418   1.677 -0.6113  0.6997  0.8702
 1001MOL0     H35090   8.531   9.294   1.758 -1.4083  0.4692  1.0578
 1001MOL0     H35091   8.440   9.437   1.933  1.0298 -1.1767 -1.2846
 1001MOL0     H35092   8.542   9.569   1.869 -0.3816  0.4500  0.1426
 1001MOL0     H35093   8.653   9.473   2.052  1.3949 -0.3441  0.2490
 1001MOL0     H35094   8.741   9.415   1.910  1.2467  1.6197  1.6169
 1001MOL0     H35095   8.503   9.436   2.202  2.8911 -0.2817  2.1756
 1001MOL0     H35096   8.315   9.359   2.354  1.5973  1.3146 -1.1205
 1001MOL0     H35097   8.144   8.742   2.456 -0.6932 -0.2530 -0.6980
 1001MOL0     H35098   7.938   8.629   2.556 -2.0566  0.5945  1.1710
 1001MOL0     H35099   7.544   8.841   2.517 -1.7825 -1.1310  0.0395
 1001MOL0     H35100   7.588   8.714   2.398 -0.3553  0.5688 -0.0438
 1001MOL0     H35101   7.531   8.538   2.550  0.7522  1.3177  0.8672
 1001MOL0     H35102   7.493   8.640   2.689 -0.1354 -0.9229  1.0669
 1001MOL0     H35103   7.292   8.717   2.617  1.5330  2.1639 -0.8004
 1001MOL0     H35104   7.349   8.745   2.455 -1.9001 -1.5853 -0.4329
 1001MOL0     H35105   7.295   8.469   2.562 -3.4818 -2.0584 -0.0233
 1001MOL0     H35106   7.307   8.504   2.396 -1.8262 -1.6930  0.6922
 1001MOL0     H35107   7.101   8.634   2.588 -0.5105 -3.6284  2.8004
 1001MOL0     H35108   7.061   8.476   2.511 -0.8674  0.3117  1.1128
 1001MOL0     H35109   7.114   8.729   2.355  1.1125  0.9300  2.0658
 1001MOL0     H35110   7.045   8.580   2.299  2.8667  2.4115 -1.7139
 1001MOL0     H35111   6.888   8.786   2.339  0.9100  2.9372  3.2910
 1001MOL0     H35112   6.897   8.752   2.510 -1.5279  2.1646 -1.3359
 1001MOL0     H35113   6.693   8.637   2.383 -1.4147 -4.1369 -2.6911
 1001MOL0     H35114   6.824   8.536   2.331  1.3589  2.3395 -1.0428
 1001MOL0     H35115   7.734   9.009   2.517  0.5970 -0.2334  1.4568
 1001MOL0     H35116   7.916   9.117   2.444 -0.7427 -0.3125 -0.7716
 1001MOL0     H35117   8.326   8.973   2.168 -2.7365  1.0720  3.3754
 1001MOL0     H35118   8.502   9.042   2.010  1.3820 -1.0882  1.2757
 1001MOL0     H35119   7.587   8.787   1.202  1.3680  1.1760  1.2027
 1001MOL0     H35120   7.563   8.526   1.210  1.3359 -0.0116  2.4884
 1001MOL0     H35121   7.940   8.071   1.315 -0.0462 -1.8253 -3.1244
 1001MOL0     H35122   7.850   7.910   1.441 -1.5017 -2.0825 -0.2795
 1001MOL0     H35123   7.730   7.653   1.455 -0.3893  0.9094  0.1258
 1001MOL0     H35124   7.681   7.698   1.291 -1.2062 -0.9912 -2.0091
 1001MOL0     H35125   7.478   7.597   1.502 -0.0906 -1.3356  0.6714
 1001MOL0     H35126   7.534   7.511   1.355 -1.2521  1.9345 -2.0728
 1001MOL0     H35127   7.420   7.734   1.244 -0.7524 -0.4486 -0.5603
 1001MOL0     H35128   7.329   7.719   1.404  0.8400  1.3511  1.1311
 1001MOL0     H35129   7.290   7.472   1.324  0.1864  0.3872  0.7420
 1001MOL0     H35130   7.205   7.609   1.254  0.5062 -0.7682  3.6575
 1001MOL0     H35131   7.430   7.419   0.951  1.4855 -1.4391  1.6752
 1001MOL0     H35132   7.467   7.957   1.243 -0.4407  1.0568  1.0521
 1001MOL0     H35133   7.569   8.125   0.980 -0.9163 -0.6767 -0.0458
 1001MOL0     H35134   7.440   8.079   1.075  1.1847 -2.1829 -1.1624
 1001MOL0     H35135   7.508   8.249   1.103  2.6527  0.4535 -1.2222
 1002MOL0     O35136   7.855  10.379   6.432 -0.2012 -0.2346  0.3390
 1002MOL0     C35137   7.795  10.350   6.530  0.6431 -0.2958 -0.4730
 1002MOL0     O35138   7.681  10.291   6.529  0.0629  0.2639 -0.9295
 1002MOL0     C35139   7.601  10.255   6.421  0.2422 -1.0341  1.6245
 1002MOL0     C35140   7.645  10.218   6.293  0.7042  0.0263  0.1651
 1002MOL0     C35141   7.553  10.166   6.195  0.1030 -0.1634  0.3650
 1002MOL0     C35142   7.419  10.181   6.221  0.7526 -0.5146  0.4302
 1002MOL0     O35143   7.324  10.148   6.124 -0.1458  0.1971  0.1967
 1002MOL0     C35144   7.379  10.120   5.987  0.1953 -0.1300 -0.6290
 1002MOL0     C35145   7.261  10.096   5.905  0.1628 -0.2196  0.5787
 1002MOL0     C35146   7.202   9.956   5.943  0.7589 -0.0847  0.1657
 1002MOL0     C35147   7.080   9.921   5.852 -1.0902 -0.7727  0.6447
 1002MOL0     C35148   7.002   9.796   5.882  0.0275  0.1198 -0.1590
 1002MOL0     C35149   6.973   9.766   6.032  0.2235 -0.2380  0.2932
 1002MOL0     C35150   6.884   9.645   6.066  0.5123 -0.7050 -0.3791
 1002MOL0     C35151   6.944   9.504   6.025 -0.0017  0.4495  0.2285
 1002MOL0     N35152   6.864   9.382   6.064 -0.3708 -0.5594  0.5086
 1002MOL0     C35153   6.746   9.381   6.133  0.1633 -0.2135 -0.5529
 1002MOL0     C35154   6.724   9.242   6.148  0.2645  0.5448 -0.1119
 1002MOL0     C35155   6.599   9.188   6.220  0.2952 -0.1074 -0.6287
 1002MOL0     C35156   6.619   9.078   6.317 -0.6174 -0.4436  0.4275
 1002MOL0     C35157   6.496   9.023   6.394 -0.0445  0.3622 -0.4291
 1002MOL0     C35158   6.522   8.918   6.495 -0.5526  0.8237 -0.3634
 1002MOL0     O35159   6.601   8.810   6.443 -0.0486 -0.0677 -0.2839
 1002MOL0     C35160   6.544   8.721   6.351 -0.7424  0.4755  0.0866
 1002MOL0     C35161   6.629   8.648   6.281 -0.1842  0.3237  0.4343
 1002MOL0     C35162   6.590   8.534   6.210  0.4954  0.0737 -0.6408
 1002MOL0     C35163   6.451   8.493   6.201 -0.6967 -0.6023  0.6807
 1002MOL0     C35164   6.405   8.366   6.142 -0.1394 -0.4232  0.4263
 1002MOL0     O35165   6.502   8.295   6.079 -0.6351 -0.8369 -0.4297
 1002MOL0     C35166   6.475   8.168   6.029  0.0837  0.1344 -0.1252
 1002MOL0     C35167   6.549   8.137   5.915  1.0105  0.4864  0.7338
 1002MOL0     C35168   6.540   8.006   5.852  0.7838 -0.7073 -0.4581
 1002MOL0     C35169   6.456   7.906   5.912  0.2067  0.1982  0.2040
 1002MOL0     O35170   6.440   7.773   5.873 -0.4173  0.4945  0.1124
 1002MOL0     C35171   6.540   7.737   5.775 -0.4264 -0.2160  0.2313
 1002MOL0     C35172   6.504   7.758   5.629  0.7025  0.7418  0.1278
 1002MOL0     C35173   6.633   7.767   5.540 -0.2867  0.1458  0.0037
 1002MOL0     C35174   6.711   7.633   5.506  0.5500  0.0008  0.1190
 1002MOL0     C35175   6.842   7.664   5.430  0.5366 -0.3821 -0.1746
 1002MOL0     C35176   6.906   7.536   5.373 -0.6040  0.6711  0.1002
 1002MOL0     C35177   7.045   7.565   5.342  0.3416 -0.4077  0.3798
 1002MOL0     C35178   7.127   7.446   5.294  0.2102 -0.1918  0.2415
 1002MOL0    Cl35179   7.043   7.406   5.137 -0.2756  0.0584 -0.5444
 1002MOL0     C35180   6.403   7.936   6.040  1.1376  0.8569 -0.1601
 1002MOL0     C35181   6.403   8.061   6.094 -0.6720  0.3197  0.1922
 1002MOL0     O35182   6.290   8.330   6.157 -0.1085 -0.1812 -0.5863
 1002MOL0     C35183   6.366   8.581   6.257  0.1919 -1.6594 -1.0854
 1002MOL0     C35184   6.404   8.695   6.336  0.0126  1.2751  0.5032
 1002MOL0     N35185   6.832   9.176   6.089 -0.5054  0.8145 -0.3133
 1002MOL0     N35186   6.914   9.259   6.048  0.1018 -0.2092 -0.2648
 1002MOL0     C35187   7.375  10.235   6.339 -0.0336  0.1098  0.0794
 1002MOL0     C35188   7.462  10.264   6.443  1.0259 -0.1155  0.0423
 1002MOL0     C35189   7.846  10.393   6.659 -0.0243 -0.9603  1.1181
 1002MOL0     C35190   7.831  10.522   6.710  0.4572 -0.1366  0.2957
 1002MOL0     C35191   7.884  10.565   6.832 -0.1949  0.1105  0.0345
 1002MOL0     C35192   7.949  10.477   6.915 -0.1477  0.6398  0.5312
 1002MOL0     O35193   7.986  10.506   7.042 -0.6583 -0.1800 -0.5403
 1002MOL0     C35194   7.900  10.461   7.149  0.4918  1.5047 -1.2046
 1002MOL0     C35195   7.926  10.319   7.194 -0.1548 -0.3245 -0.0382
 1002MOL0     C35196   7.842  10.192   7.157  0.6075 -0.5178 -1.1852
 1002MOL0     C35197   7.707  10.182   7.246  0.3060 -0.3515  0.1599
 1002MOL0     C35198   7.746  10.132   7.385  0.4779 -0.3007 -0.2348
 1002MOL0     C35199   7.757  10.096   7.505 -0.1668  0.9700  0.5808
 1002MOL0     C35200   7.969  10.350   6.863  0.5291 -0.5658 -0.2986
 1002MOL0     C35201   7.917  10.297   6.735  0.3536 -0.4539 -0.1973
 1002MOL0     C35202   7.948  10.150   6.701  0.5713 -0.7815 -0.2657
 1002MOL0     H35203   7.751  10.220   6.268 -0.1289  1.8500 -4.2224
 1002MOL0     H35204   7.597  10.128   6.104 -0.6714 -1.0890  0.3598
 1002MOL0     H35205   7.439  10.199   5.941  0.0763 -0.0363 -0.6240
 1002MOL0     H35206   7.444  10.032   5.989  1.2822  0.6070 -1.8871
 1002MOL0     H35207   7.303  10.084   5.805  2.9976 -2.5384  1.9261
 1002MOL0     H35208   7.185  10.174   5.914  2.1699  1.6748  1.9832
 1002MOL0     H35209   7.168   9.964   6.047  2.3591 -0.2112  0.7285
 1002MOL0     H35210   7.275   9.874   5.940  1.2510  0.3421  0.3504
 1002MOL0     H35211   7.018  10.011   5.850  1.8176  1.3689  0.5431
 1002MOL0     H35212   7.139   9.908   5.761  0.6908 -0.6348  1.7235
 1002MOL0     H35213   6.916   9.791   5.814 -1.1035  1.6916  1.0804
 1002MOL0     H35214   7.063   9.710   5.852 -1.2700 -0.8687 -0.0551
 1002MOL0     H35215   7.065   9.754   6.088 -0.2881  3.7318  2.3397
 1002MOL0     H35216   6.935   9.855   6.083  0.8100 -0.0458  0.4022
 1002MOL0     H35217   6.793   9.678   6.017  0.7927  1.4227  0.4012
 1002MOL0     H35218   6.857   9.637   6.172 -0.9032 -0.2302 -0.6861
 1002MOL0     H35219   6.952   9.501   5.916 -3.0437 -1.3331 -0.0591
 1002MOL0     H35220   7.045   9.503   6.067 -0.1711  1.0885  0.6648
 1002MOL0     H35221   6.699   9.469   6.175  1.1295 -0.3100  0.7762
 1002MOL0     H35222   6.552   9.270   6.275 -2.0465 -0.7578 -1.5555
 1002MOL0     H35223   6.526   9.157   6.144 -1.4110  5.9089 -1.9504
 1002MOL0     H35224   6.675   9.005   6.258  3.0867  2.1801  0.3387
 1002MOL0     H35225   6.687   9.122   6.391 -2.5007 -0.8790  2.5294
 1002MOL0     H35226   6.436   8.992   6.308  0.5161  0.2313 -0.7700
 1002MOL0     H35227   6.432   9.100   6.440 -0.4964 -0.1645 -0.1620
 1002MOL0     H35228   6.424   8.880   6.523 -0.6867  0.0525 -1.7692
 1002MOL0     H35229   6.572   8.957   6.584 -0.2348  1.7659 -0.9413
 1002MOL0     H35230   6.735   8.658   6.301  0.1193 -3.5720  1.6173
 1002MOL0     H35231   6.677   8.489   6.162  0.5207 -0.6943  0.0983
 1002MOL0     H35232   6.607   8.215   5.867 -1.9769  0.9836 -2.5705
 1002MOL0     H35233   6.600   7.981   5.765  2.4859 -2.1008  1.0360
 1002MOL0     H35234   6.636   7.778   5.809 -1.9991  0.8360  3.8927
 1002MOL0     H35235   6.562   7.631   5.788  0.9725 -0.0901 -0.8528
 1002MOL0     H35236   6.437   7.673   5.613 -0.1033  0.6713  3.1815
 1002MOL0     H35237   6.440   7.846   5.613  0.3583  0.5250  0.2795
 1002MOL0     H35238   6.596   7.807   5.445  2.7701  0.7576 -1.0274
 1002MOL0     H35239   6.701   7.842   5.579 -0.6607  2.6146 -3.6121
 1002MOL0     H35240   6.650   7.569   5.441  0.2342 -1.3679  1.6960
 1002MOL0     H35241   6.727   7.580   5.600 -2.6975 -0.5820  0.4713
 1002MOL0     H35242   6.912   7.707   5.502 -0.5283 -2.9161  2.5867
 1002MOL0     H35243   6.831   7.737   5.349 -0.3472 -2.1301 -1.7102
 1002MOL0     H35244   6.923   7.472   5.460  3.1822 -0.2611 -1.1141
 1002MOL0     H35245   6.860   7.475   5.295  1.8403 -0.5667 -0.4625
 1002MOL0     H35246   7.097   7.615   5.424 -0.8525  1.0677  0.2734
 1002MOL0     H35247   7.038   7.642   5.265 -1.6984 -1.1848 -0.2619
 1002MOL0     H35248   7.234   7.468   5.284 -0.0642  0.6472 -1.1457
 1002MOL0     H35249   7.107   7.375   5.376  1.8938 -1.4607 -0.3901
 1002MOL0     H35250   6.341   7.856   6.079 -0.2064  0.2397 -3.2863
 1002MOL0     H35251   6.356   8.074   6.191  0.8773  0.5506  0.9509
 1002MOL0     H35252   6.259   8.570   6.246 -0.4913  1.5027  1.0630
 1002MOL0     H35253   6.335   8.754   6.395 -0.1250  0.1094  1.5461
 1002MOL0     H35254   7.269  10.248   6.359  0.4454  1.9205  1.7333
 1002MOL0     H35255   7.427  10.294   6.541  1.4358  0.6005 -0.0225
 1002MOL0     H35256   7.786  10.594   6.642  1.4040  0.1389 -0.0510
 1002MOL0     H35257   7.865  10.668   6.860  0.5369 -0.7153  4.2897
 1002MOL0     H35258   7.798  10.452   7.111 -0.6366  0.9841  1.6784
 1002MOL0     H35259   7.904  10.520   7.241  0.3242 -0.3169  0.0218
 1002MOL0     H35260   7.931  10.325   7.303  1.4217  0.9385 -0.1429
 1002MOL0     H35261   8.024  10.284   7.158 -0.1713 -2.8406  2.0479
 1002MOL0     H35262   7.899  10.100   7.169  0.7079 -0.3286 -0.1875
 1002MOL0     H35263   7.820  10.188   7.049 -1.3480 -0.8344 -0.8245
 1002MOL0     H35264   7.657  10.279   7.253 -1.0290 -0.4381 -4.6624
 1002MOL0     H35265   7.633  10.111   7.207 -0.8374  1.0423 -0.2843
 1002MOL0     H35266   7.764  10.065   7.607 -1.1296 -2.5819 -0.3198
 1002MOL0     H35267   8.034  10.281   6.917 -0.3297 -1.6391 -0.5959
 1002MOL0     H35268   8.042  10.124   6.749  2.7701  1.7160 -2.8417
 1002MOL0     H35269   7.866  10.085   6.733  0.1165 -1.3404 -2.3971
 1002MOL0     H35270   7.948  10.132   6.593 -1.7161 -1.1316 -0.2716
 1003MOL0     O35271   6.660   2.494   9.112  0.3268  0.5173  0.4140
 1003MOL0     C35272   6.544   2.464   9.140 -0.0975  0.2216 -1.3406
 1003MOL0     O35273   6.507   2.356   9.217  0.1435 -1.1329  0.2388
 1003MOL0     C35274   6.597   2.274   9.286  0.2942  0.5375  0.3584
 1003MOL0     C35275   6.663   2.178   9.205  0.4715 -0.5731 -0.0770
 1003MOL0     C35276   6.744   2.083   9.267  0.3273  0.0785  0.7310
 1003MOL0     C35277   6.763   2.080   9.401  0.4743  0.9876  0.7324
 1003MOL0     O35278   6.832   1.974   9.458  0.0162  0.1256  0.0778
 1003MOL0     C35279   6.930   2.005   9.550 -0.2801  0.9143 -0.0960
 1003MOL0     C35280   6.939   1.895   9.660  0.3467 -0.1640  0.4982
 1003MOL0     C35281   7.015   1.774   9.596 -0.1741  0.0470 -0.5229
 1003MOL0     C35282   7.047   1.664   9.711  0.5196  0.7690  0.4417
 1003MOL0     C35283   6.916   1.589   9.742 -0.6192 -0.0398  0.7482
 1003MOL0     C35284   6.931   1.531   9.880  0.0008 -0.2197  0.3252
 1003MOL0     C35285   6.834   1.431   9.938 -0.5539  1.1157 -0.3774
 1003MOL0     C35286   6.704   1.491   9.987 -0.3063  0.0108 -0.5359
 1003MOL0     N35287   6.596   1.400  10.007  0.5288 -0.4479  0.1780
 1003MOL0     C35288   6.567   1.329  10.120 -0.1024  0.3916 -0.1794
 1003MOL0     C35289   6.463   1.267  10.088  0.0862  1.1707 -0.1366
 1003MOL0     C35290   6.373   1.200  10.182 -0.2424  0.1635 -0.0573
 1003MOL0     C35291   6.306   1.293  10.291 -1.1386  0.4022 -0.4246
 1003MOL0     C35292   6.168   1.247  10.324  1.2078  0.0713  0.3925
 1003MOL0     C35293   6.070   1.271  10.211  0.2253  0.0782 -0.3965
 1003MOL0     O35294   6.039   1.412  10.211 -0.2567 -0.4441  0.0048
 1003MOL0     C35295   5.960   1.469  10.115 -0.3232 -1.0539 -1.1079
 1003MOL0     C35296   5.999   1.595  10.073 -0.0033  0.5136 -0.9589
 1003MOL0     C35297   5.937   1.656   9.973  0.5707  0.1564  0.5497
 1003MOL0     C35298   5.822   1.597   9.913  0.3446  0.5524  0.0008
 1003MOL0     C35299   5.752   1.674   9.798 -0.0363  1.0848 -0.2900
 1003MOL0     O35300   5.612   1.655   9.777 -0.1995 -0.1137  0.2958
 1003MOL0     C35301   5.561   1.660   9.648  0.0914 -0.1082 -0.9488
 1003MOL0     C35302   5.629   1.685   9.528 -0.4755 -0.9477  1.3430
 1003MOL0     C35303   5.566   1.710   9.412  0.2575  0.1330  0.5466
 1003MOL0     C35304   5.426   1.721   9.412  0.4184 -0.6284 -1.2320
 1003MOL0     O35305   5.347   1.755   9.306 -0.3495 -0.2875 -0.3084
 1003MOL0     C35306   5.388   1.874   9.234  0.3754 -0.0370  0.1288
 1003MOL0     C35307   5.288   1.910   9.117  0.3944 -0.3845  0.1773
 1003MOL0     C35308   5.346   2.024   9.031  0.8037  0.4937  1.2719
 1003MOL0     C35309   5.424   2.133   9.098  0.2316 -0.7738 -0.4328
 1003MOL0     C35310   5.460   2.249   9.011 -0.4052  0.4033 -0.7737
 1003MOL0     C35311   5.340   2.348   8.976  0.1011  0.0320  0.1430
 1003MOL0     C35312   5.269   2.422   9.092  0.0378 -0.0732 -0.6780
 1003MOL0     C35313   5.312   2.570   9.120  0.0133  0.4537 -0.5462
 1003MOL0    Cl35314   5.480   2.590   9.175 -0.3070 -0.3732 -0.0247
 1003MOL0     C35315   5.353   1.692   9.528  0.7767 -0.4538  1.2372
 1003MOL0     C35316   5.423   1.666   9.645 -0.0798 -0.2347  0.4619
 1003MOL0     O35317   5.822   1.748   9.736 -0.4324 -0.7468  0.3878
 1003MOL0     C35318   5.782   1.469   9.952  0.4893 -0.0454 -0.3371
 1003MOL0     C35319   5.849   1.405  10.058 -0.8286  0.5879 -0.2427
 1003MOL0     N35320   6.428   1.288   9.954  0.9640 -0.2348  0.6593
 1003MOL0     N35321   6.523   1.359   9.904 -0.7639  0.1113  0.3407
 1003MOL0     C35322   6.694   2.174   9.477 -0.4291  0.1758 -0.5085
 1003MOL0     C35323   6.608   2.266   9.420 -0.1652 -0.1899 -0.4568
 1003MOL0     C35324   6.435   2.546   9.078 -0.2988  0.1904  0.4594
 1003MOL0     C35325   6.319   2.573   9.153 -0.2503  0.2995  1.2652
 1003MOL0     C35326   6.224   2.659   9.108 -0.8121  0.2159 -0.8815
 1003MOL0     C35327   6.232   2.721   8.991  0.0688 -0.3843  0.0022
 1003MOL0     O35328   6.137   2.821   8.970  0.4066  0.5843  0.3981
 1003MOL0     C35329   6.092   2.851   8.839 -0.2058 -0.9321  0.1706
 1003MOL0     C35330   5.958   2.764   8.819  0.1616 -0.7160 -0.1432
 1003MOL0     C35331   5.913   2.769   8.678  0.4224  0.5361  1.2327
 1003MOL0     C35332   5.818   2.891   8.665 -1.1202  0.5176 -0.2622
 1003MOL0     C35333   5.776   2.904   8.527 -0.0275 -0.1676 -0.1415
 1003MOL0     C35334   5.723   2.930   8.421 -0.7643 -0.0365 -1.0053
 1003MOL0     C35335   6.338   2.687   8.907  0.7702 -0.5849  0.4111
 1003MOL0     C35336   6.442   2.604   8.950 -0.3356  1.0556 -0.5035
 1003MOL0     C35337   6.551   2.577   8.844 -0.2498 -0.8632 -0.1712
 1003MOL0     H35338   6.644   2.184   9.098 -0.2008 -1.9189 -0.0518
 1003MOL0     H35339   6.789   2.000   9.214  0.8165 -2.4319  4.6542
 1003MOL0     H35340   7.022   2.022   9.493  0.8133 -4.0208 -0.1826
 1003MOL0     H35341   6.912   2.095   9.610  1.1227  1.3812 -0.3552
 1003MOL0     H35342   6.847   1.864   9.710 -0.8331  1.8061 -0.3019
 1003MOL0     H35343   7.004   1.940   9.736 -2.0431  4.4645  0.1643
 1003MOL0     H35344   7.111   1.804   9.552  1.5809 -1.8523  1.7291
 1003MOL0     H35345   6.949   1.727   9.523 -2.1045 -2.1292  2.3842
 1003MOL0     H35346   7.139   1.609   9.691  0.2418  1.4748 -3.7875
 1003MOL0     H35347   7.063   1.722   9.802 -2.5126  0.5863  1.2131
 1003MOL0     H35348   6.834   1.659   9.757 -2.8550 -2.6286  1.3884
 1003MOL0     H35349   6.889   1.506   9.675 -3.0024  0.7402  0.6571
 1003MOL0     H35350   7.031   1.486   9.873  1.5997  3.0032  0.6355
 1003MOL0     H35351   6.933   1.615   9.950  0.5476 -0.1502  0.2340
 1003MOL0     H35352   6.870   1.379  10.028 -1.2604 -0.5024 -0.9867
 1003MOL0     H35353   6.812   1.363   9.856 -1.0314 -1.2254  1.5546
 1003MOL0     H35354   6.727   1.530  10.087 -0.8629 -0.6532 -0.1406
 1003MOL0     H35355   6.682   1.572   9.916 -0.1233 -0.5302 -1.2196
 1003MOL0     H35356   6.621   1.336  10.214 -1.5193 -0.0067  0.6872
 1003MOL0     H35357   6.286   1.158  10.130 -0.6691  1.1291 -0.1338
 1003MOL0     H35358   6.415   1.111  10.229  0.2935 -0.1502 -1.0849
 1003MOL0     H35359   6.356   1.292  10.388 -0.7007  2.2338 -0.6086
 1003MOL0     H35360   6.304   1.400  10.268 -3.4002  1.1783  2.7260
 1003MOL0     H35361   6.128   1.305  10.407 -2.5335  0.5388 -1.5347
 1003MOL0     H35362   6.182   1.141  10.351  2.3058  0.3787  1.1020
 1003MOL0     H35363   5.973   1.223  10.225  0.9472 -2.7476 -3.7283
 1003MOL0     H35364   6.107   1.237  10.114 -0.9831 -0.7720 -0.5921
 1003MOL0     H35365   6.084   1.637  10.127  0.3482 -1.1217 -0.1905
 1003MOL0     H35366   5.987   1.741   9.929  1.4988 -1.2484 -1.2891
 1003MOL0     H35367   5.735   1.669   9.510 -0.9699 -2.0906 -1.0084
 1003MOL0     H35368   5.630   1.727   9.326  0.9629 -1.1021  0.7998
 1003MOL0     H35369   5.393   1.964   9.296  0.3374  0.8049 -1.0513
 1003MOL0     H35370   5.487   1.859   9.190  0.7949  0.8500  0.7505
 1003MOL0     H35371   5.268   1.817   9.063 -1.2523  0.4078 -0.6403
 1003MOL0     H35372   5.191   1.941   9.155 -0.1157  1.6026 -2.4493
 1003MOL0     H35373   5.411   1.989   8.950 -0.7331 -0.0459  0.2300
 1003MOL0     H35374   5.262   2.064   8.972  0.9961 -1.2584 -0.2969
 1003MOL0     H35375   5.515   2.091   9.140 -1.6478 -1.5449  3.2447
 1003MOL0     H35376   5.361   2.175   9.176  1.1932 -2.2748  1.2248
 1003MOL0     H35377   5.509   2.214   8.920 -1.0277 -0.5215 -0.7723
 1003MOL0     H35378   5.529   2.310   9.069 -2.1345  2.2686 -0.5661
 1003MOL0     H35379   5.365   2.428   8.905 -0.5290  1.3863  1.3929
 1003MOL0     H35380   5.267   2.287   8.921  1.7920 -1.5725 -0.4408
 1003MOL0     H35381   5.285   2.366   9.184 -0.0367  0.4847 -0.3239
 1003MOL0     H35382   5.162   2.422   9.067 -0.0339  2.0154 -0.5718
 1003MOL0     H35383   5.287   2.640   9.040 -1.7125  0.0031 -0.4443
 1003MOL0     H35384   5.257   2.594   9.211 -0.2467 -0.6999 -0.3845
 1003MOL0     H35385   5.244   1.696   9.525  0.6790 -1.8819  2.0030
 1003MOL0     H35386   5.367   1.658   9.738 -3.2888  0.8026 -1.2026
 1003MOL0     H35387   5.704   1.419   9.895 -0.3092  0.7974 -0.0027
 1003MOL0     H35388   5.822   1.308  10.098 -3.2929  1.2607 -0.0827
 1003MOL0     H35389   6.700   2.184   9.585 -2.4572  1.2500 -0.4407
 1003MOL0     H35390   6.538   2.327   9.476 -2.8549 -2.8796 -0.6559
 1003MOL0     H35391   6.307   2.544   9.257 -0.0297 -0.9914  0.9414
 1003MOL0     H35392   6.146   2.678   9.180  0.4236  2.2596 -0.0165
 1003MOL0     H35393   6.166   2.831   8.762  0.7731 -0.5838  0.9930
 1003MOL0     H35394   6.071   2.957   8.822 -0.7328 -0.7849  1.5997
 1003MOL0     H35395   5.876   2.798   8.882  0.9455  1.2774 -0.1249
 1003MOL0     H35396   5.987   2.662   8.847  1.4661 -0.2645  0.2043
 1003MOL0     H35397   5.857   2.678   8.654  0.2578  0.7919  0.6240
 1003MOL0     H35398   5.998   2.775   8.610 -0.5941 -2.4888 -0.4961
 1003MOL0     H35399   5.728   2.893   8.727 -1.4297  0.8811 -0.7139
 1003MOL0     H35400   5.876   2.983   8.681 -1.3516  0.3135  2.1450
 1003MOL0     H35401   5.696   2.980   8.330 -0.8408  0.3443 -0.7723
 1003MOL0     H35402   6.355   2.753   8.823  0.4448  0.8803  1.4584
 1003MOL0     H35403   6.622   2.660   8.851  0.7582 -1.6109 -0.9852
 1003MOL0     H35404   6.601   2.482   8.864 -0.2191 -0.7023  0.5167
 1003MOL0     H35405   6.511   2.578   8.742  1.8316 -0.9379 -1.0430
 1004MOL0     O35406   2.286   4.728   4.225  0.0736  0.4740 -0.4774
 1004MOL0     C35407   2.369   4.722   4.318  0.1527  0.1231 -0.3504
 1004MOL0     O35408   2.501   4.766   4.315  0.2519 -0.1623 -0.2289
 1004MOL0     C35409   2.533   4.859   4.214 -0.2103 -0.3805  0.2349
 1004MOL0     C35410   2.660   4.847   4.160 -0.2665  1.5086  0.8734
 1004MOL0     C35411   2.706   4.946   4.079 -0.1296 -0.5048  0.3345
 1004MOL0     C35412   2.644   5.060   4.061  0.1894  0.6516 -0.5007
 1004MOL0     O35413   2.711   5.156   3.988 -0.1247 -0.0413  0.2287
 1004MOL0     C35414   2.647   5.279   3.977  0.0441 -0.1705 -0.6670
 1004MOL0     C35415   2.741   5.363   3.877  0.6279 -0.3159 -0.1785
 1004MOL0     C35416   2.668   5.496   3.844 -0.3956 -0.5044  0.1010
 1004MOL0     C35417   2.663   5.588   3.964 -1.0002 -0.2453 -0.2097
 1004MOL0     C35418   2.587   5.722   3.947  0.2713  0.6066  0.5510
 1004MOL0     C35419   2.629   5.813   4.054 -0.1416 -0.8220 -0.0773
 1004MOL0     C35420   2.540   5.937   4.081 -0.2206  0.9541  0.1850
 1004MOL0     C35421   2.522   6.029   3.967 -0.6176  1.6523 -0.9328
 1004MOL0     N35422   2.465   6.163   3.992  0.0240  0.4242  0.6214
 1004MOL0     C35423   2.382   6.222   3.896 -0.7203  0.3130  0.3195
 1004MOL0     C35424   2.362   6.352   3.942  0.3025  0.3307 -0.3532
 1004MOL0     C35425   2.305   6.456   3.846 -0.9399 -0.1027  0.3426
 1004MOL0     C35426   2.330   6.598   3.907 -0.1919  0.4016  0.4353
 1004MOL0     C35427   2.466   6.669   3.876  0.2017 -0.5707 -0.3999
 1004MOL0     C35428   2.449   6.824   3.918 -0.6122  0.3367  0.2072
 1004MOL0     O35429   2.564   6.874   3.863  0.2601  0.3060  0.5896
 1004MOL0     C35430   2.581   6.999   3.810 -0.1606 -0.3926 -0.0600
 1004MOL0     C35431   2.507   7.113   3.845 -0.1879 -0.2970  0.5972
 1004MOL0     C35432   2.522   7.231   3.764  0.6466  0.6954 -0.1219
 1004MOL0     C35433   2.620   7.240   3.660 -0.8636 -1.0482 -0.2913
 1004MOL0     C35434   2.616   7.376   3.583  0.3565 -0.1386  0.1474
 1004MOL0     O35435   2.521   7.463   3.626  0.5150 -0.7249 -0.0950
 1004MOL0     C35436   2.517   7.591   3.562 -0.1124  1.0598 -0.6719
 1004MOL0     C35437   2.530   7.710   3.628  0.2183  0.4276 -0.2910
 1004MOL0     C35438   2.520   7.834   3.568 -0.5261 -0.0110 -0.6865
 1004MOL0     C35439   2.502   7.836   3.433 -0.6484 -0.0258  0.1788
 1004MOL0     O35440   2.496   7.954   3.366 -0.2272 -0.0020 -0.0614
 1004MOL0     C35441   2.615   8.033   3.379  0.0197  1.1670  0.0777
 1004MOL0     C35442   2.610   8.141   3.273 -1.0026 -0.2836 -0.1819
 1004MOL0     C35443   2.558   8.084   3.142  0.4798  0.3236 -0.3372
 1004MOL0     C35444   2.576   8.177   3.018  0.1018  0.6679  0.1014
 1004MOL0     C35445   2.485   8.135   2.906 -0.4081 -0.2586 -0.9124
 1004MOL0     C35446   2.543   8.193   2.776 -0.2014  0.0039  0.5901
 1004MOL0     C35447   2.472   8.182   2.643 -0.2746  0.4720  0.0318
 1004MOL0     C35448   2.312   8.197   2.655  0.0447  0.1697  0.5508
 1004MOL0    Cl35449   2.234   8.205   2.499  0.3637  0.4335  0.2826
 1004MOL0     C35450   2.487   7.710   3.358 -0.2466 -0.5097 -0.4108
 1004MOL0     C35451   2.479   7.590   3.429  0.0515 -0.9578  0.8656
 1004MOL0     O35452   2.702   7.399   3.502 -0.3686  0.2184  0.0248
 1004MOL0     C35453   2.699   7.128   3.637 -0.6369  0.2898 -0.1662
 1004MOL0     C35454   2.687   7.012   3.713 -0.0387 -0.1949  1.1444
 1004MOL0     N35455   2.442   6.358   4.051 -0.2590  0.7058 -0.6348
 1004MOL0     N35456   2.504   6.255   4.082 -0.8198  0.1021 -0.5216
 1004MOL0     C35457   2.512   5.070   4.106 -0.6801  0.7677 -0.2327
 1004MOL0     C35458   2.455   4.967   4.175  0.8196  0.0851 -0.5338
 1004MOL0     C35459   2.338   4.622   4.422 -0.4466 -0.0691  0.7012
 1004MOL0     C35460   2.235   4.669   4.508  0.3131 -0.1666 -1.1587
 1004MOL0     C35461   2.197   4.588   4.619  0.3109  0.9130  0.3974
 1004MOL0     C35462   2.256   4.459   4.632 -0.7627 -0.1065 -0.0510
 1004MOL0     O35463   2.229   4.372   4.728  0.1355 -0.0614 -0.0072
 1004MOL0     C35464   2.121   4.403   4.816 -0.4090 -0.4218 -0.2957
 1004MOL0     C35465   2.104   4.306   4.938  0.3850  0.5904  0.0211
 1004MOL0     C35466   2.217   4.319   5.037 -0.2888 -0.6687  0.5365
 1004MOL0     C35467   2.325   4.209   5.045 -0.1685 -1.1371 -0.1753
 1004MOL0     C35468   2.263   4.089   5.100  0.1181 -0.3667  0.2997
 1004MOL0     C35469   2.220   3.979   5.121 -0.0539  0.7421  1.5244
 1004MOL0     C35470   2.362   4.427   4.555 -0.2078  0.8747  0.4944
 1004MOL0     C35471   2.407   4.500   4.454 -0.0291  0.9981 -0.4293
 1004MOL0     C35472   2.530   4.455   4.389 -0.8447  0.4691  0.6280
 1004MOL0     H35473   2.714   4.757   4.186 -0.7570  0.9232 -0.0947
 1004MOL0     H35474   2.806   4.945   4.037 -1.1646 -0.1566 -2.3467
 1004MOL0     H35475   2.548   5.267   3.932  1.7960 -2.0915 -4.4657
 1004MOL0     H35476   2.659   5.335   4.070  1.6446  3.1784 -2.7027
 1004MOL0     H35477   2.754   5.305   3.784  2.5040 -1.3415  0.6566
 1004MOL0     H35478   2.840   5.380   3.920  1.1104 -2.7917 -0.1241
 1004MOL0     H35479   2.572   5.490   3.793  1.2090  1.2850 -3.5385
 1004MOL0     H35480   2.724   5.544   3.763 -1.0351 -1.8697 -1.1965
 1004MOL0     H35481   2.612   5.533   4.044  0.0754  0.4907  1.0105
 1004MOL0     H35482   2.761   5.607   4.007 -0.6260 -0.6370 -0.8688
 1004MOL0     H35483   2.618   5.762   3.849 -3.3285  0.2011 -0.9121
 1004MOL0     H35484   2.480   5.703   3.944 -0.0764  2.3013  1.1237
 1004MOL0     H35485   2.627   5.758   4.149 -0.4635 -0.4515  0.1352
 1004MOL0     H35486   2.729   5.833   4.015 -1.7450  1.2248 -3.5963
 1004MOL0     H35487   2.598   5.995   4.153  3.6944 -1.8188 -0.4252
 1004MOL0     H35488   2.448   5.916   4.136 -0.3336  0.4960 -0.1756
 1004MOL0     H35489   2.620   6.039   3.918  1.3326 -1.7747  1.7972
 1004MOL0     H35490   2.450   5.976   3.904  0.6496 -3.6238  1.4586
 1004MOL0     H35491   2.353   6.177   3.802  1.8782  0.1537 -0.4845
 1004MOL0     H35492   2.351   6.456   3.747  1.6301  2.6620  1.3597
 1004MOL0     H35493   2.201   6.433   3.823 -0.5429  0.4049 -2.3212
 1004MOL0     H35494   2.254   6.666   3.868  0.2007  0.4194 -0.3287
 1004MOL0     H35495   2.312   6.584   4.014 -1.1586  3.7043  0.8180
 1004MOL0     H35496   2.499   6.667   3.771  2.7100  1.5958  0.2215
 1004MOL0     H35497   2.542   6.628   3.943  0.6624 -0.9895 -1.1619
 1004MOL0     H35498   2.442   6.838   4.026 -5.0335  2.2251 -0.1134
 1004MOL0     H35499   2.359   6.865   3.872 -0.0200  2.2890  0.6838
 1004MOL0     H35500   2.422   7.107   3.913 -0.4094 -2.2473  0.1958
 1004MOL0     H35501   2.460   7.314   3.797  0.4120  0.3953  0.1932
 1004MOL0     H35502   2.544   7.712   3.735 -3.6544  0.2771  0.3704
 1004MOL0     H35503   2.528   7.926   3.625 -0.8670 -0.9117  0.8743
 1004MOL0     H35504   2.639   8.067   3.480  3.6080  0.2135 -0.2932
 1004MOL0     H35505   2.703   7.974   3.351  1.2849  2.3391  1.4213
 1004MOL0     H35506   2.540   8.216   3.309  0.9686  1.2237  0.7492
 1004MOL0     H35507   2.713   8.177   3.260  0.0760 -3.6728 -2.5593
 1004MOL0     H35508   2.621   7.995   3.129  1.1195  0.7964 -0.5602
 1004MOL0     H35509   2.450   8.066   3.143  0.1305  2.2049 -0.2923
 1004MOL0     H35510   2.680   8.173   2.984  0.8580 -1.1216  2.3900
 1004MOL0     H35511   2.561   8.281   3.047 -1.2946  0.7006 -0.6083
 1004MOL0     H35512   2.383   8.165   2.932  0.1451 -0.4847  1.7246
 1004MOL0     H35513   2.494   8.026   2.913 -2.9042 -0.4370  0.7011
 1004MOL0     H35514   2.575   8.296   2.792  3.2592 -0.9388  0.5326
 1004MOL0     H35515   2.638   8.141   2.759  1.8119  3.8587 -0.8907
 1004MOL0     H35516   2.489   8.083   2.599 -0.4176 -1.6230  4.1997
 1004MOL0     H35517   2.504   8.267   2.581  3.5520  0.4227  1.6346
 1004MOL0     H35518   2.277   8.115   2.718  1.2076 -0.3228  0.5781
 1004MOL0     H35519   2.299   8.295   2.702  1.4417  0.2772  0.7720
 1004MOL0     H35520   2.460   7.707   3.253  0.6141  1.1360 -0.7105
 1004MOL0     H35521   2.441   7.500   3.382 -2.0965  0.9246 -1.2982
 1004MOL0     H35522   2.775   7.135   3.559  0.4916  3.1525  1.0527
 1004MOL0     H35523   2.746   6.921   3.713  2.2197  1.1753  2.3290
 1004MOL0     H35524   2.447   5.156   4.090  0.8575  1.9391 -0.3755
 1004MOL0     H35525   2.359   4.979   4.225  1.9271  0.5696  1.6113
 1004MOL0     H35526   2.164   4.746   4.480 -2.1505 -2.1475 -0.7302
 1004MOL0     H35527   2.127   4.632   4.688  2.4377  1.8566  2.0607
 1004MOL0     H35528   2.031   4.402   4.754 -0.2575  0.8266 -0.5481
 1004MOL0     H35529   2.127   4.507   4.850  0.5597 -0.8850  1.0420
 1004MOL0     H35530   2.115   4.208   4.890 -0.6348  0.4020  0.1452
 1004MOL0     H35531   2.009   4.321   4.990 -0.6455 -1.2639 -1.1739
 1004MOL0     H35532   2.180   4.343   5.137 -4.9355  0.7023 -1.2485
 1004MOL0     H35533   2.268   4.410   5.004 -1.9584  0.0414 -0.1842
 1004MOL0     H35534   2.362   4.185   4.945  0.8723 -0.1122 -0.0613
 1004MOL0     H35535   2.403   4.230   5.119 -1.1347 -1.0943  0.8569
 1004MOL0     H35536   2.192   3.881   5.153  3.9055  0.2733  4.2462
 1004MOL0     H35537   2.427   4.346   4.586  1.9820  2.4235  0.1401
 1004MOL0     H35538   2.551   4.480   4.285 -1.2541 -0.5715  0.2723
 1004MOL0     H35539   2.618   4.476   4.451 -1.7796  2.1984  1.4401
 1004MOL0     H35540   2.521   4.346   4.394 -4.1140  0.5634 -0.9371
 1005MOL0     O35541   7.394   8.104   5.179 -0.4032 -0.3848 -0.2588
 1005MOL0     C35542   7.282   8.074   5.137  0.3613  0.4429 -0.3591
 1005MOL0     O35543   7.171   8.132   5.187 -0.1334  0.1966  0.0469
 1005MOL0     C35544   7.193   8.201   5.305  0.5436 -0.2808 -0.3000
 1005MOL0     C35545   7.242   8.328   5.296  0.7129  0.6038 -0.6637
 1005MOL0     C35546   7.269   8.398   5.415  0.0454 -0.0990  1.1499
 1005MOL0     C35547   7.245   8.334   5.536 -0.3055 -1.0585  0.3991
 1005MOL0     O35548   7.259   8.400   5.662  0.2816  0.0040  0.4831
 1005MOL0     C35549   7.266   8.540   5.657 -1.0066 -0.2325  0.1754
 1005MOL0     C35550   7.218   8.598   5.799 -0.2144 -0.8452 -0.3340
 1005MOL0     C35551   7.235   8.752   5.795  1.3524 -0.0405  0.6902
 1005MOL0     C35552   7.165   8.829   5.906  0.3440 -0.3564  0.0406
 1005MOL0     C35553   7.176   8.979   5.883  1.5597  0.6520 -1.0000
 1005MOL0     C35554   7.303   9.022   5.929  0.3548  0.0450  0.6867
 1005MOL0     C35555   7.340   9.169   5.890  0.0320  0.3488  0.1048
 1005MOL0     C35556   7.236   9.284   5.929  0.9184  0.1772 -0.2589
 1005MOL0     N35557   7.278   9.414   5.878  0.2564 -0.3242  0.1655
 1005MOL0     C35558   7.288   9.440   5.744  0.1016 -0.6091 -0.6878
 1005MOL0     C35559   7.334   9.567   5.739 -0.3242 -0.4029 -0.3452
 1005MOL0     C35560   7.352   9.639   5.607  0.5620 -0.4688 -0.7948
 1005MOL0     C35561   7.501   9.663   5.570 -0.1633  0.3346 -0.6213
 1005MOL0     C35562   7.590   9.536   5.535 -0.5456 -0.3917 -1.1876
 1005MOL0     C35563   7.538   9.470   5.401 -0.5379 -1.4300 -1.1653
 1005MOL0     O35564   7.449   9.361   5.430 -0.0588  0.1986 -0.3600
 1005MOL0     C35565   7.504   9.244   5.481  0.9720  0.1615 -0.3259
 1005MOL0     C35566   7.636   9.225   5.506 -1.1364 -0.0281 -0.2746
 1005MOL0     C35567   7.691   9.100   5.534 -0.3501 -0.4871 -0.5078
 1005MOL0     C35568   7.601   8.991   5.559 -0.5185  0.8603  0.1782
 1005MOL0     C35569   7.652   8.853   5.605  0.6078 -0.2174  0.4682
 1005MOL0     O35570   7.786   8.854   5.618 -0.6261  0.2930  0.5717
 1005MOL0     C35571   7.854   8.737   5.599  0.0219 -0.3823 -0.5722
 1005MOL0     C35572   7.828   8.648   5.494  0.8114 -0.1884 -0.8156
 1005MOL0     C35573   7.893   8.531   5.473 -0.0750 -0.2790  0.3828
 1005MOL0     C35574   8.010   8.503   5.548  0.2881  0.6789 -0.0023
 1005MOL0     O35575   8.082   8.390   5.526 -0.0388 -0.0824 -0.1050
 1005MOL0     C35576   8.160   8.388   5.413  0.0288  0.0733  0.2314
 1005MOL0     C35577   8.305   8.447   5.448  0.6021 -0.0950  1.1765
 1005MOL0     C35578   8.388   8.386   5.545 -0.4471 -1.1261 -1.2307
 1005MOL0     C35579   8.383   8.230   5.565 -0.7376  0.0275  0.1797
 1005MOL0     C35580   8.436   8.153   5.452 -0.1480  1.0688  0.3177
 1005MOL0     C35581   8.404   8.007   5.462  0.0516 -0.0400 -0.5396
 1005MOL0     C35582   8.272   7.965   5.406  0.1354 -0.1156 -0.8583
 1005MOL0     C35583   8.159   7.929   5.512  0.5317 -0.6653 -0.1014
 1005MOL0    Cl35584   8.199   7.804   5.635  0.0741 -0.4866  0.0051
 1005MOL0     C35585   8.034   8.580   5.659 -0.4739  0.9817  0.8087
 1005MOL0     C35586   7.964   8.703   5.680  0.5826 -0.2065  0.5139
 1005MOL0     O35587   7.580   8.755   5.607 -0.0674  0.1876 -0.1178
 1005MOL0     C35588   7.462   9.010   5.537 -0.3365 -0.1461  0.0099
 1005MOL0     C35589   7.413   9.136   5.489  0.8461 -0.6397 -0.1827
 1005MOL0     N35590   7.345   9.616   5.864 -0.6311  0.1762 -0.2594
 1005MOL0     N35591   7.306   9.528   5.951  0.5861  0.8214  0.4248
 1005MOL0     C35592   7.204   8.200   5.548 -0.9957 -0.0063 -0.2742
 1005MOL0     C35593   7.179   8.131   5.429  0.4075  0.4675  1.0650
 1005MOL0     C35594   7.283   7.997   5.016 -0.2930 -0.4495  1.5284
 1005MOL0     C35595   7.398   8.015   4.925  1.0635  0.1533 -0.7680
 1005MOL0     C35596   7.392   7.971   4.792  1.5621  0.3193 -0.6922
 1005MOL0     C35597   7.282   7.890   4.746 -0.4725 -0.2652  0.0718
 1005MOL0     O35598   7.291   7.823   4.619 -0.1824 -0.1788  0.0518
 1005MOL0     C35599   7.160   7.789   4.570 -0.4801 -0.6147  0.9490
 1005MOL0     C35600   7.163   7.770   4.417  1.1967  0.1892  0.3864
 1005MOL0     C35601   7.029   7.696   4.376 -0.6122 -0.5077  0.6425
 1005MOL0     C35602   7.029   7.653   4.233 -0.1395 -0.2453 -0.6409
 1005MOL0     C35603   7.022   7.768   4.136 -0.3138 -0.0324 -0.9384
 1005MOL0     C35604   6.995   7.854   4.067 -0.0560 -0.9627  0.9609
 1005MOL0     C35605   7.172   7.879   4.832  0.0459  0.3242 -0.8559
 1005MOL0     C35606   7.170   7.925   4.961  0.2182  1.1384  0.2507
 1005MOL0     C35607   7.050   7.884   5.040  0.0686  1.5423 -0.3441
 1005MOL0     H35608   7.267   8.357   5.194  0.6425  0.9336 -0.5884
 1005MOL0     H35609   7.314   8.494   5.396 -1.4362  0.6328  1.1691
 1005MOL0     H35610   7.366   8.581   5.637 -0.9845  3.1641  5.3417
 1005MOL0     H35611   7.202   8.587   5.582 -1.0433 -0.1158  0.2791
 1005MOL0     H35612   7.298   8.579   5.872  3.5972  2.2885 -3.2381
 1005MOL0     H35613   7.120   8.558   5.827 -1.5059  0.7227 -2.3133
 1005MOL0     H35614   7.191   8.791   5.702  4.0176 -0.3900 -0.8132
 1005MOL0     H35615   7.341   8.777   5.792  1.9402 -2.0434  2.5718
 1005MOL0     H35616   7.059   8.805   5.920 -0.2691  2.8621  1.8362
 1005MOL0     H35617   7.210   8.803   6.002  1.6563  0.5272 -0.3102
 1005MOL0     H35618   7.148   8.998   5.779  0.7681 -2.1346 -1.3820
 1005MOL0     H35619   7.098   9.027   5.943  1.6765 -0.3717  0.0142
 1005MOL0     H35620   7.291   9.033   6.037  1.1434  1.1829  0.6772
 1005MOL0     H35621   7.381   8.954   5.893 -0.2496  0.5923 -1.7973
 1005MOL0     H35622   7.355   9.163   5.782  1.8194  0.7129  0.3039
 1005MOL0     H35623   7.429   9.199   5.946 -1.5760  0.5190  2.7137
 1005MOL0     H35624   7.135   9.267   5.891  1.4752  1.6406 -2.5614
 1005MOL0     H35625   7.242   9.279   6.038 -1.7792 -0.6745 -0.0662
 1005MOL0     H35626   7.249   9.385   5.659 -1.1861  0.3191 -0.7298
 1005MOL0     H35627   7.293   9.592   5.527  0.9457 -2.2474 -0.0833
 1005MOL0     H35628   7.310   9.738   5.626  0.3070 -0.9738  1.5833
 1005MOL0     H35629   7.514   9.719   5.477  0.5341 -2.3141 -2.1986
 1005MOL0     H35630   7.546   9.726   5.648 -2.0328  0.8198  0.1255
 1005MOL0     H35631   7.592   9.467   5.620  5.0665 -0.0561 -0.6546
 1005MOL0     H35632   7.692   9.570   5.518  0.9317 -2.8777  1.6727
 1005MOL0     H35633   7.619   9.442   5.333 -2.6024 -2.0906 -3.4954
 1005MOL0     H35634   7.473   9.539   5.346  0.8590  0.1212 -0.9562
 1005MOL0     H35635   7.707   9.308   5.506  0.2090 -1.1394 -0.3227
 1005MOL0     H35636   7.798   9.089   5.549 -0.7182 -1.8353  1.5325
 1005MOL0     H35637   7.749   8.665   5.422  0.1815  0.1336 -0.0526
 1005MOL0     H35638   7.870   8.460   5.394 -0.2026 -2.0169  1.9214
 1005MOL0     H35639   8.166   8.283   5.382  2.0795 -0.0550  0.9127
 1005MOL0     H35640   8.118   8.445   5.330  0.1822 -1.3914 -0.8886
 1005MOL0     H35641   8.371   8.465   5.363  1.7531 -0.7458  1.8930
 1005MOL0     H35642   8.283   8.545   5.490 -2.2511 -0.4791  0.7452
 1005MOL0     H35643   8.490   8.411   5.513 -0.3200  0.5833  0.3399
 1005MOL0     H35644   8.373   8.432   5.643  2.3273  0.0297 -1.2438
 1005MOL0     H35645   8.281   8.201   5.589 -0.6615 -0.5767 -0.1975
 1005MOL0     H35646   8.442   8.202   5.653 -1.8338 -1.0806  0.6021
 1005MOL0     H35647   8.545   8.156   5.463 -0.1923  0.2688  1.0794
 1005MOL0     H35648   8.412   8.193   5.353  0.2659 -0.3753 -0.3859
 1005MOL0     H35649   8.479   7.950   5.406  1.2204  0.2117  0.7078
 1005MOL0     H35650   8.406   7.976   5.567 -2.7725 -2.1279 -0.9749
 1005MOL0     H35651   8.284   7.874   5.347  0.1365 -3.2911  3.5691
 1005MOL0     H35652   8.224   8.041   5.343 -1.0778 -1.3885 -1.5035
 1005MOL0     H35653   8.128   8.021   5.562 -1.1106 -1.5315  0.5602
 1005MOL0     H35654   8.075   7.893   5.451  2.4077  0.2823 -3.5191
 1005MOL0     H35655   8.117   8.543   5.717  0.1080  2.0168  0.6623
 1005MOL0     H35656   7.998   8.760   5.765  3.3955 -1.5908  0.4141
 1005MOL0     H35657   7.392   8.926   5.539 -2.2623  1.3406  2.6766
 1005MOL0     H35658   7.308   9.157   5.473  0.7647  1.2002  2.1832
 1005MOL0     H35659   7.217   8.133   5.632  0.0173 -2.3178 -2.1651
 1005MOL0     H35660   7.143   8.028   5.431  2.2972 -0.3061 -1.1614
 1005MOL0     H35661   7.482   8.070   4.964 -0.6662  2.6675 -0.3404
 1005MOL0     H35662   7.468   7.989   4.716  2.3944  0.5289  0.1761
 1005MOL0     H35663   7.080   7.862   4.587 -0.4331  0.0335 -1.2739
 1005MOL0     H35664   7.137   7.695   4.622  0.8664 -0.6795  1.4669
 1005MOL0     H35665   7.250   7.711   4.386  1.4389  0.2561  0.9285
 1005MOL0     H35666   7.172   7.868   4.369  3.3286  0.3046  0.9304
 1005MOL0     H35667   6.945   7.764   4.390  1.3747  2.3618 -0.6286
 1005MOL0     H35668   7.018   7.607   4.440  3.1666 -0.2281  1.9808
 1005MOL0     H35669   7.122   7.604   4.200  0.4616  1.8685 -2.2641
 1005MOL0     H35670   6.954   7.574   4.223  1.6966 -2.1509 -0.3374
 1005MOL0     H35671   6.967   7.931   3.998 -3.4626 -2.5156  0.3747
 1005MOL0     H35672   7.086   7.825   4.794  0.1744  0.4819 -1.3836
 1005MOL0     H35673   7.004   7.970   5.089 -1.9538 -0.1573  0.8820
 1005MOL0     H35674   6.975   7.838   4.975  1.1198 -2.9014  1.2829
 1005MOL0     H35675   7.069   7.812   5.119 -0.2218  0.9798 -0.7762
 1006MOL0     O35676   5.021   7.390   5.374 -0.0712 -0.3741  0.0022
 1006MOL0     C35677   5.050   7.496   5.317  0.2032 -0.0859 -0.6254
 1006MOL0     O35678   4.956   7.574   5.248  0.1308  1.2890  0.4214
 1006MOL0     C35679   4.833   7.514   5.197 -0.1071  0.1285  0.1443
 1006MOL0     C35680   4.709   7.574   5.237  0.3289 -0.1708  0.0967
 1006MOL0     C35681   4.593   7.529   5.179 -0.2358 -0.8253  0.0574
 1006MOL0     C35682   4.593   7.428   5.078 -0.2617 -0.2552 -0.0831
 1006MOL0     O35683   4.480   7.382   5.015 -0.3091  0.3784  0.8403
 1006MOL0     C35684   4.343   7.399   5.067  0.5758  0.3877 -0.2037
 1006MOL0     C35685   4.245   7.344   4.961 -0.6106 -0.0887  0.6822
 1006MOL0     C35686   4.252   7.193   4.938  0.2518 -0.9463  1.2136
 1006MOL0     C35687   4.199   7.111   5.054  0.1118 -0.9415 -0.2438
 1006MOL0     C35688   4.233   6.962   5.050 -0.4225  0.5738  0.1726
 1006MOL0     C35689   4.119   6.892   4.976  0.1287 -0.1382 -0.3010
 1006MOL0     C35690   4.124   6.738   4.994  0.7006 -0.0317 -0.1639
 1006MOL0     C35691   4.112   6.699   5.138  0.0173  0.0730 -0.3201
 1006MOL0     N35692   4.069   6.566   5.173 -0.3490 -0.1521 -0.1232
 1006MOL0     C35693   4.146   6.461   5.137 -0.2461 -0.2269 -0.6347
 1006MOL0     C35694   4.091   6.363   5.214  0.6780 -0.4682  0.1815
 1006MOL0     C35695   4.140   6.225   5.213 -0.0114 -0.2650 -0.2180
 1006MOL0     C35696   4.264   6.203   5.294  0.6867  0.4202 -0.4010
 1006MOL0     C35697   4.255   6.200   5.446 -0.5581 -0.3456 -0.4306
 1006MOL0     C35698   4.173   6.311   5.507 -0.9974 -0.4567  1.0835
 1006MOL0     O35699   4.238   6.431   5.453  0.3670 -0.2672 -0.5061
 1006MOL0     C35700   4.323   6.506   5.527 -0.4603 -0.7713 -0.0133
 1006MOL0     C35701   4.419   6.458   5.615  0.8791 -0.0029 -0.2437
 1006MOL0     C35702   4.507   6.550   5.676 -0.2911 -0.3714  0.7236
 1006MOL0     C35703   4.508   6.687   5.650 -0.1549  0.5141 -0.2242
 1006MOL0     C35704   4.607   6.764   5.731  0.8427  0.1102 -0.2843
 1006MOL0     O35705   4.718   6.707   5.783  1.0961 -0.3786 -0.1798
 1006MOL0     C35706   4.815   6.776   5.848 -0.2018  0.0628 -0.4181
 1006MOL0     C35707   4.866   6.889   5.794 -0.5445  0.0583  0.5715
 1006MOL0     C35708   4.974   6.954   5.854 -0.9571 -0.1827  0.1890
 1006MOL0     C35709   5.042   6.893   5.963  0.5346 -0.0755  0.5699
 1006MOL0     O35710   5.160   6.937   6.021 -0.1685  0.5013  0.5110
 1006MOL0     C35711   5.184   7.073   6.017  0.1196  0.6214 -0.0446
 1006MOL0     C35712   5.301   7.110   6.113  0.0656  0.6761  0.7653
 1006MOL0     C35713   5.424   7.051   6.052 -0.1311 -0.1266 -0.7516
 1006MOL0     C35714   5.556   7.107   6.105  0.3589  0.3653 -0.7423
 1006MOL0     C35715   5.679   7.029   6.059 -0.2974 -0.5536  0.6109
 1006MOL0     C35716   5.809   7.098   6.101  1.2599  0.5789 -0.2413
 1006MOL0     C35717   5.941   7.016   6.077 -0.4793  0.1780  0.6944
 1006MOL0     C35718   6.015   7.055   5.943 -0.2200 -0.3403 -0.2841
 1006MOL0    Cl35719   6.132   7.196   5.978 -0.8910 -0.3965 -0.3515
 1006MOL0     C35720   4.999   6.770   6.004  0.5847 -0.0804 -0.2829
 1006MOL0     C35721   4.884   6.712   5.951 -1.2314 -0.4404  0.1370
 1006MOL0     O35722   4.576   6.876   5.739  0.0443  0.3647  0.0571
 1006MOL0     C35723   4.406   6.739   5.564 -0.3410  0.3537 -0.9951
 1006MOL0     C35724   4.323   6.645   5.504  1.0461  0.7848 -1.2263
 1006MOL0     N35725   3.969   6.409   5.265  0.4441  0.0569  0.7667
 1006MOL0     N35726   3.957   6.533   5.237  0.1658 -0.1183 -0.1627
 1006MOL0     C35727   4.712   7.370   5.042 -0.0499  0.2899 -0.3231
 1006MOL0     C35728   4.833   7.412   5.094 -1.2092  0.5142 -0.3188
 1006MOL0     C35729   5.190   7.557   5.339  0.4540  0.7346 -0.0040
 1006MOL0     C35730   5.266   7.515   5.453 -0.4042  0.3009  0.4380
 1006MOL0     C35731   5.387   7.570   5.488  0.3458 -0.3809 -0.4611
 1006MOL0     C35732   5.447   7.669   5.399  0.1506  0.0327 -0.0462
 1006MOL0     O35733   5.562   7.744   5.421  0.0204  0.3548 -0.3231
 1006MOL0     C35734   5.616   7.730   5.549 -0.2548 -0.9053  0.1131
 1006MOL0     C35735   5.734   7.823   5.553  0.9361 -0.2462 -0.1045
 1006MOL0     C35736   5.825   7.840   5.435  0.1144  0.3812  0.3032
 1006MOL0     C35737   5.769   7.950   5.331  0.7630 -0.2474 -0.2168
 1006MOL0     C35738   5.790   8.086   5.382  1.1617  0.0137  0.3308
 1006MOL0     C35739   5.805   8.197   5.430 -0.3858  0.5385 -0.2741
 1006MOL0     C35740   5.381   7.701   5.287  0.6898  0.4127  0.6810
 1006MOL0     C35741   5.255   7.646   5.251  0.1747 -0.1868 -0.3087
 1006MOL0     C35742   5.201   7.673   5.111  0.0177  0.3099  0.4073
 1006MOL0     H35743   4.696   7.654   5.310 -2.7020  1.8365 -2.4189
 1006MOL0     H35744   4.505   7.577   5.220 -1.1619 -2.6908  0.3439
 1006MOL0     H35745   4.341   7.358   5.169 -2.0340  1.8393  0.4168
 1006MOL0     H35746   4.317   7.506   5.069 -2.4546 -0.2618  0.3930
 1006MOL0     H35747   4.265   7.392   4.864 -0.4603 -1.6306 -0.0864
 1006MOL0     H35748   4.142   7.373   4.982 -0.3898  0.6666  0.7902
 1006MOL0     H35749   4.353   7.155   4.918  0.5836  0.3402  0.3000
 1006MOL0     H35750   4.190   7.173   4.850 -0.8193 -1.9065  2.1597
 1006MOL0     H35751   4.241   7.157   5.144 -1.6072  0.9972 -0.3684
 1006MOL0     H35752   4.093   7.130   5.074 -0.1013 -1.2286 -1.0871
 1006MOL0     H35753   4.326   6.963   4.992  0.5039  0.0951  1.5862
 1006MOL0     H35754   4.255   6.927   5.151 -0.1332  1.1699  0.3245
 1006MOL0     H35755   4.015   6.913   5.006 -0.1588  0.9327 -1.9243
 1006MOL0     H35756   4.120   6.913   4.869  1.3013 -2.4211 -0.7920
 1006MOL0     H35757   4.222   6.703   4.959  1.5821  1.1369  1.0380
 1006MOL0     H35758   4.048   6.678   4.942 -1.6204  3.7509 -1.5186
 1006MOL0     H35759   4.209   6.716   5.185 -1.6289  0.2257  3.3849
 1006MOL0     H35760   4.049   6.765   5.198  1.1469  3.6035 -2.6773
 1006MOL0     H35761   4.234   6.460   5.073 -1.5631 -0.2489 -2.5311
 1006MOL0     H35762   4.059   6.154   5.230 -0.0206 -0.4339 -0.9141
 1006MOL0     H35763   4.172   6.221   5.108  0.7345  3.4561 -0.2797
 1006MOL0     H35764   4.298   6.105   5.258  0.6164  0.6124 -0.9934
 1006MOL0     H35765   4.341   6.274   5.261  0.5692  0.2647 -1.0203
 1006MOL0     H35766   4.358   6.203   5.482 -1.5796 -0.3197  2.7691
 1006MOL0     H35767   4.207   6.103   5.461 -0.0147 -0.4575  0.6671
 1006MOL0     H35768   4.186   6.310   5.616 -2.2187  2.9372  1.4037
 1006MOL0     H35769   4.068   6.301   5.476 -0.1147  0.8913 -2.8288
 1006MOL0     H35770   4.436   6.354   5.641  4.1749  1.1253  3.1042
 1006MOL0     H35771   4.570   6.502   5.750 -1.7392 -2.3037  0.8025
 1006MOL0     H35772   4.819   6.932   5.706 -0.6907 -0.2402  0.5032
 1006MOL0     H35773   5.023   7.040   5.811  0.8293 -1.4251 -0.3978
 1006MOL0     H35774   5.211   7.101   5.915  0.0783  0.3396 -0.1326
 1006MOL0     H35775   5.102   7.141   6.045 -2.5487 -3.2878  2.5268
 1006MOL0     H35776   5.303   7.219   6.110 -0.1089  0.6961  1.3466
 1006MOL0     H35777   5.280   7.073   6.214 -2.2183 -0.9498 -0.2034
 1006MOL0     H35778   5.427   6.946   6.084  3.3905  0.2620  0.5636
 1006MOL0     H35779   5.426   7.069   5.944  1.8160 -2.6725 -1.2315
 1006MOL0     H35780   5.559   7.083   6.212  0.5038 -1.7272 -1.1631
 1006MOL0     H35781   5.559   7.211   6.073  1.5444  0.5465 -0.0982
 1006MOL0     H35782   5.690   7.016   5.951 -1.3204 -1.3427  0.5914
 1006MOL0     H35783   5.680   6.932   6.109  1.8284 -0.9846 -0.1714
 1006MOL0     H35784   5.821   7.196   6.053  2.4749  1.5369  1.8509
 1006MOL0     H35785   5.806   7.114   6.209 -0.3146  3.2838 -0.6049
 1006MOL0     H35786   5.900   6.915   6.067 -0.4377 -0.0448  2.4229
 1006MOL0     H35787   6.014   7.027   6.158  0.6253  2.2856 -0.4958
 1006MOL0     H35788   6.065   6.965   5.908 -1.0712 -1.8423  2.0842
 1006MOL0     H35789   5.951   7.083   5.859 -1.6296 -1.8072  0.2434
 1006MOL0     H35790   5.051   6.714   6.081  3.1963  0.1546 -1.7558
 1006MOL0     H35791   4.855   6.610   5.975  0.7260 -1.7069 -2.4223
 1006MOL0     H35792   4.405   6.845   5.537 -1.4490  1.1860  1.9323
 1006MOL0     H35793   4.251   6.684   5.432 -2.0632 -1.7480  0.2389
 1006MOL0     H35794   4.707   7.301   4.959 -3.7929 -2.7296  2.0783
 1006MOL0     H35795   4.922   7.387   5.038 -0.5719  1.6207  0.1595
 1006MOL0     H35796   5.238   7.426   5.508  4.5528 -1.7649  0.0920
 1006MOL0     H35797   5.445   7.543   5.575  1.6903 -1.5422 -1.6631
 1006MOL0     H35798   5.653   7.631   5.576  0.1312 -0.0002  3.2575
 1006MOL0     H35799   5.536   7.759   5.618  0.6061 -0.2905  0.8695
 1006MOL0     H35800   5.804   7.786   5.629  0.3034  0.1283  0.6779
 1006MOL0     H35801   5.705   7.919   5.595 -0.6415 -1.0783  0.7948
 1006MOL0     H35802   5.842   7.745   5.384 -0.5264 -1.9503  4.0171
 1006MOL0     H35803   5.920   7.877   5.474 -0.7160  1.1656  1.6980
 1006MOL0     H35804   5.813   7.938   5.231 -1.3542  1.3539 -1.4251
 1006MOL0     H35805   5.660   7.939   5.324  0.3168  1.4470  2.6077
 1006MOL0     H35806   5.809   8.293   5.476 -3.9413  0.0091  1.5322
 1006MOL0     H35807   5.411   7.791   5.233 -2.4461  2.1219  1.5697
 1006MOL0     H35808   5.188   7.579   5.057  3.0063  1.6647 -3.1425
 1006MOL0     H35809   5.098   7.709   5.118  0.3861  1.7185 -0.8193
 1006MOL0     H35810   5.264   7.731   5.043 -0.7904 -1.1755 -1.6960
 1007MOL0     O35811   9.680   2.890  11.150  0.3308 -0.1484 -1.3044
 1007MOL0     C35812   9.705   2.940  11.037  0.3309 -0.1610 -1.3515
 1007MOL0     O35813   9.632   2.925  10.920  0.6017  0.5010  0.3552
 1007MOL0     C35814   9.500   2.908  10.933  0.5588 -0.9919 -0.2287
 1007MOL0     C35815   9.417   2.994  10.859  0.7096 -0.6915 -0.6339
 1007MOL0     C35816   9.278   2.969  10.834  0.2450  0.5295  0.0864
 1007MOL0     C35817   9.219   2.861  10.912 -0.2609 -0.3975 -0.4633
 1007MOL0     O35818   9.085   2.818  10.891  0.3545 -0.3347  0.0687
 1007MOL0     C35819   9.004   2.752  10.990 -0.4524 -0.5706 -0.2409
 1007MOL0     C35820   9.014   2.595  10.969  0.4287  0.7743 -0.2555
 1007MOL0     C35821   8.937   2.530  11.088  0.4622  0.7184  0.7138
 1007MOL0     C35822   9.031   2.532  11.206  0.9344  0.4703 -0.0335
 1007MOL0     C35823   8.977   2.444  11.318  0.1828 -0.7315 -0.2995
 1007MOL0     C35824   9.088   2.369  11.400 -0.2593 -0.3352 -0.5487
 1007MOL0     C35825   9.184   2.456  11.484 -0.4004  0.1243 -0.4541
 1007MOL0     C35826   9.301   2.520  11.398 -0.4085 -0.4195  0.2182
 1007MOL0     N35827   9.386   2.419  11.328  0.0531 -0.3295  1.4503
 1007MOL0     C35828   9.451   2.309  11.390  0.4171 -0.9799  1.3989
 1007MOL0     C35829   9.523   2.259  11.284 -0.3154 -0.9932  0.3211
 1007MOL0     C35830   9.618   2.138  11.269 -0.2123 -0.7426  0.0364
 1007MOL0     C35831   9.571   2.051  11.156  0.0875 -0.0098 -0.4672
 1007MOL0     C35832   9.666   1.948  11.110  0.0044 -0.4216  0.2033
 1007MOL0     C35833   9.602   1.870  10.997  1.0896 -0.1882  0.1979
 1007MOL0     O35834   9.558   1.946  10.880 -0.2441 -0.3212 -0.3934
 1007MOL0     C35835   9.630   1.922  10.762  0.5250  0.1473 -0.2180
 1007MOL0     C35836   9.753   1.847  10.745 -1.2934 -0.7629 -0.0949
 1007MOL0     C35837   9.811   1.846  10.622  0.3836 -0.4172  0.4080
 1007MOL0     C35838   9.743   1.894  10.506 -0.6874 -0.0172  0.8149
 1007MOL0     C35839   9.807   1.878  10.370 -0.1120  0.1132 -1.2754
 1007MOL0     O35840   9.730   1.927  10.268 -0.2218  0.2890  0.1731
 1007MOL0     C35841   9.767   1.933  10.132 -1.5473  0.5127 -0.2807
 1007MOL0     C35842   9.897   1.943  10.086 -0.1070 -0.8869  0.3187
 1007MOL0     C35843   9.925   1.983   9.949 -0.0544  1.3471 -0.7478
 1007MOL0     C35844   9.815   1.994   9.858 -0.3907  0.9041  0.2522
 1007MOL0     O35845   9.831   1.999   9.717  0.2435  0.1388 -0.4232
 1007MOL0     C35846   9.959   2.039   9.672  0.0550  0.7822  0.3497
 1007MOL0     C35847   9.943   2.053   9.524 -0.3913  0.3317 -0.3294
 1007MOL0     C35848  10.086   2.079   9.465  0.1043 -0.0167 -0.4467
 1007MOL0     C35849  10.138   2.217   9.525  1.0022  0.8186 -0.3167
 1007MOL0     C35850  10.273   2.244   9.477  0.1804 -0.4424  0.4622
 1007MOL0     C35851  10.338   2.369   9.543 -1.1317  0.0436  0.0694
 1007MOL0     C35852  10.473   2.408   9.477 -0.1816  0.5842 -0.5723
 1007MOL0     C35853  10.543   2.520   9.551 -0.9059 -0.0530  0.6891
 1007MOL0    Cl35854  10.435   2.659   9.520  0.0751  0.1545 -0.1101
 1007MOL0     C35855   9.686   1.957   9.903 -0.4069 -0.3434 -0.1165
 1007MOL0     C35856   9.669   1.936  10.036 -0.3779 -1.6654 -0.4094
 1007MOL0     O35857   9.917   1.821  10.364 -0.1847 -0.3039 -0.0725
 1007MOL0     C35858   9.633   1.978  10.527  0.3741 -0.3205 -0.8898
 1007MOL0     C35859   9.567   1.983  10.653  0.2940 -0.5382  0.4248
 1007MOL0     N35860   9.503   2.343  11.172  0.2789 -0.1297 -1.2575
 1007MOL0     N35861   9.434   2.444  11.203 -0.2865 -0.5928 -0.8791
 1007MOL0     C35862   9.301   2.798  11.004  0.1269  1.2796 -0.7053
 1007MOL0     C35863   9.438   2.817  11.014  0.2392 -0.2663 -0.1115
 1007MOL0     C35864   9.829   3.026  11.038 -0.0329 -0.5640  0.0073
 1007MOL0     C35865   9.864   3.096  10.924 -0.4457 -0.3986 -0.4853
 1007MOL0     C35866   9.974   3.176  10.904 -0.4108  0.3966  0.2562
 1007MOL0     C35867  10.064   3.202  11.007 -0.0033 -0.3765 -0.4590
 1007MOL0     O35868  10.175   3.289  11.001 -0.5127 -0.0677  0.1272
 1007MOL0     C35869  10.175   3.397  10.917  0.1315 -0.4475  0.5205
 1007MOL0     C35870  10.205   3.525  10.995 -0.4896  0.2231 -0.3127
 1007MOL0     C35871  10.090   3.549  11.089  0.3369 -0.7047  0.6353
 1007MOL0     C35872  10.077   3.701  11.113  0.8441 -0.5120  0.1972
 1007MOL0     C35873  10.205   3.770  11.141 -0.8329 -0.7809 -0.6116
 1007MOL0     C35874  10.307   3.836  11.154 -0.2426 -0.4512  0.7826
 1007MOL0     C35875  10.031   3.139  11.130 -0.2746  0.0881  0.0719
 1007MOL0     C35876   9.921   3.054  11.141 -0.2145  0.1608  0.5243
 1007MOL0     C35877   9.924   2.980  11.274  0.3720  1.1211 -0.7225
 1007MOL0     H35878   9.469   3.072  10.805  2.4781  1.3708  3.6386
 1007MOL0     H35879   9.230   3.034  10.762  0.1932  1.3602  0.8559
 1007MOL0     H35880   9.035   2.789  11.088 -1.1093  1.1861 -0.6484
 1007MOL0     H35881   8.900   2.785  10.983 -0.5289  0.2736  3.0987
 1007MOL0     H35882   9.120   2.565  10.965 -0.1717 -2.0720  1.9986
 1007MOL0     H35883   8.963   2.565  10.877 -0.3731 -1.3106  0.8146
 1007MOL0     H35884   8.917   2.428  11.055  2.2940  0.3431  0.6776
 1007MOL0     H35885   8.843   2.585  11.098 -0.3493 -0.2347 -1.1941
 1007MOL0     H35886   9.123   2.488  11.167  0.7325  0.7080 -0.7937
 1007MOL0     H35887   9.047   2.630  11.252  1.5475  0.6157 -0.5360
 1007MOL0     H35888   8.910   2.501  11.383  3.8170  1.5876  1.7375
 1007MOL0     H35889   8.917   2.369  11.265 -0.1645 -0.6094 -0.0822
 1007MOL0     H35890   9.025   2.314  11.470 -1.6133  0.1453 -1.3579
 1007MOL0     H35891   9.146   2.304  11.334 -0.5808  0.8555 -2.0728
 1007MOL0     H35892   9.229   2.379  11.548  1.1562 -0.1963 -1.8704
 1007MOL0     H35893   9.126   2.535  11.533 -0.7699  0.9034 -2.0786
 1007MOL0     H35894   9.254   2.592  11.331  2.4090  0.5399 -0.8610
 1007MOL0     H35895   9.357   2.590  11.461  0.2262 -0.9001  0.1978
 1007MOL0     H35896   9.431   2.274  11.490  0.7319 -0.1474  1.7648
 1007MOL0     H35897   9.717   2.170  11.239  0.1269 -1.2954  0.5276
 1007MOL0     H35898   9.628   2.083  11.364  1.3998  0.1079  0.3759
 1007MOL0     H35899   9.474   2.010  11.184  1.0265 -0.1228  3.0087
 1007MOL0     H35900   9.546   2.120  11.075 -1.9724  0.1594  0.2504
 1007MOL0     H35901   9.675   1.870  11.186 -2.5141  0.9289  2.0492
 1007MOL0     H35902   9.761   1.999  11.094 -0.5433  1.6729  2.9147
 1007MOL0     H35903   9.507   1.831  11.037 -0.8348  2.3650 -1.5100
 1007MOL0     H35904   9.654   1.778  10.971 -0.4525 -1.3551  1.0739
 1007MOL0     H35905   9.799   1.803  10.833 -3.2772  1.2461  2.1154
 1007MOL0     H35906   9.906   1.795  10.619  0.8575  0.4936 -1.5583
 1007MOL0     H35907   9.982   1.935  10.153 -0.9381 -0.5053  1.4461
 1007MOL0     H35908  10.029   1.989   9.918  0.0046  1.9848 -0.4380
 1007MOL0     H35909   9.980   2.136   9.718 -1.0856  0.2495  2.0916
 1007MOL0     H35910  10.033   1.962   9.694 -3.2487 -2.2126  1.8975
 1007MOL0     H35911   9.911   1.962   9.471 -0.0075 -1.0282  1.6550
 1007MOL0     H35912   9.877   2.140   9.514  0.9761  1.4678  0.2780
 1007MOL0     H35913  10.151   1.991   9.468  0.8340  0.4609 -1.6122
 1007MOL0     H35914  10.071   2.103   9.359 -0.3353 -2.5616 -1.0265
 1007MOL0     H35915  10.157   2.202   9.632 -0.3319 -0.1923 -0.1889
 1007MOL0     H35916  10.071   2.301   9.507 -1.2404 -0.9572 -0.8598
 1007MOL0     H35917  10.262   2.255   9.369 -0.6967 -1.4887  0.4290
 1007MOL0     H35918  10.325   2.148   9.473  0.6242 -0.1807 -1.7523
 1007MOL0     H35919  10.274   2.457   9.540 -0.3027  0.6702  0.3867
 1007MOL0     H35920  10.352   2.355   9.651  1.1372  0.6372 -0.1038
 1007MOL0     H35921  10.454   2.432   9.372  0.4505  2.4854 -0.2886
 1007MOL0     H35922  10.540   2.322   9.486 -1.9445 -0.7652  0.4549
 1007MOL0     H35923  10.551   2.494   9.658  0.3452 -1.8214  0.2151
 1007MOL0     H35924  10.642   2.532   9.507 -1.1867  0.7690  0.2680
 1007MOL0     H35925   9.602   1.958   9.835  0.0618 -3.8562 -0.9667
 1007MOL0     H35926   9.566   1.929  10.070 -0.9861  3.8277 -0.1927
 1007MOL0     H35927   9.585   2.038  10.451 -0.5408 -1.4391 -1.2364
 1007MOL0     H35928   9.472   2.034  10.659 -0.9394 -2.1501 -2.5939
 1007MOL0     H35929   9.251   2.723  11.065 -0.4171 -0.6810 -3.3485
 1007MOL0     H35930   9.494   2.770  11.094 -0.8022  0.3614  1.0332
 1007MOL0     H35931   9.817   3.059  10.833 -2.9994 -1.0040  0.9875
 1007MOL0     H35932  10.007   3.206  10.805  1.2844 -1.9007  0.0464
 1007MOL0     H35933  10.080   3.419  10.867  2.9963  0.4451 -5.4055
 1007MOL0     H35934  10.250   3.379  10.839  0.2112 -0.3061  0.5641
 1007MOL0     H35935  10.211   3.606  10.921 -0.8933  1.7867  1.2842
 1007MOL0     H35936  10.304   3.524  11.042 -0.4013 -1.2471 -0.4918
 1007MOL0     H35937  10.110   3.489  11.178 -0.5663 -3.1051 -0.6793
 1007MOL0     H35938   9.995   3.517  11.045  1.0155 -1.5104 -0.2810
 1007MOL0     H35939  10.042   3.747  11.020  5.5365  0.6914 -1.2585
 1007MOL0     H35940  10.008   3.728  11.193 -0.2129  0.9020 -1.1196
 1007MOL0     H35941  10.385   3.909  11.159 -1.4521  1.2436 -2.1706
 1007MOL0     H35942  10.096   3.143  11.217  1.1571  1.2368 -0.9944
 1007MOL0     H35943   9.873   3.029  11.357  1.7706  1.4516 -0.0172
 1007MOL0     H35944   9.903   2.874  11.262  0.7618  0.9432  0.1023
 1007MOL0     H35945  10.022   2.975  11.323 -0.2649 -1.9654  0.4690
 1008MOL0     O35946   0.967  10.218   7.402  0.2202  0.3600  0.1087
 1008MOL0     C35947   1.076  10.249   7.341 -0.3134 -0.0346  0.0012
 1008MOL0     O35948   1.133  10.176   7.249 -0.2981  0.1204  0.3991
 1008MOL0     C35949   1.075  10.059   7.210  0.3413 -0.4900 -0.0018
 1008MOL0     C35950   1.164   9.945   7.224  0.7417 -0.1940  0.1377
 1008MOL0     C35951   1.118   9.817   7.194 -0.0154 -0.1065  0.5038
 1008MOL0     C35952   0.982   9.785   7.162  0.4262 -0.8265 -0.6077
 1008MOL0     O35953   0.948   9.660   7.170  0.4761 -0.5475  0.0564
 1008MOL0     C35954   0.853   9.619   7.064  0.4589 -0.0966 -0.7390
 1008MOL0     C35955   0.850   9.462   7.060 -0.3635  0.0904 -0.1216
 1008MOL0     C35956   0.796   9.406   7.196  0.6914  1.7817  0.3102
 1008MOL0     C35957   0.833   9.250   7.205  0.2218 -0.2321  0.1345
 1008MOL0     C35958   0.808   9.195   7.346 -0.1729 -0.2430 -0.3058
 1008MOL0     C35959   0.675   9.243   7.398  1.0500  1.1798  0.5246
 1008MOL0     C35960   0.643   9.183   7.536  0.3393  0.4690  0.0436
 1008MOL0     C35961   0.516   9.247   7.597  0.1291 -0.7524 -0.0512
 1008MOL0     N35962   0.391   9.177   7.552 -0.3797 -0.5532 -0.0057
 1008MOL0     C35963   0.339   9.176   7.432  0.0464 -0.0567 -0.5771
 1008MOL0     C35964   0.256   9.069   7.430  0.5466  0.7788  0.1989
 1008MOL0     C35965   0.155   9.030   7.319  1.1120  0.6944 -0.0873
 1008MOL0     C35966   0.031   8.955   7.373 -0.7982  0.8392 -0.1220
 1008MOL0     C35967  -0.074   9.043   7.441 -0.0043  0.4285  0.2424
 1008MOL0     C35968  -0.174   8.947   7.519 -0.7853  0.0800 -0.3925
 1008MOL0     O35969  -0.247   9.030   7.607  0.0663 -0.3518 -1.2685
 1008MOL0     C35970  -0.353   8.981   7.665  0.8107 -0.6245 -0.8745
 1008MOL0     C35971  -0.359   8.856   7.726  0.1785  0.1235  0.4294
 1008MOL0     C35972  -0.473   8.807   7.792 -1.1353 -0.0622 -0.0468
 1008MOL0     C35973  -0.586   8.888   7.787 -0.0292  0.0965 -0.1324
 1008MOL0     C35974  -0.707   8.833   7.859 -0.7763 -0.1840 -0.0767
 1008MOL0     O35975  -0.694   8.704   7.886 -0.0698  0.2345  0.1981
 1008MOL0     C35976  -0.798   8.638   7.934  0.8665  0.0650  0.0953
 1008MOL0     C35977  -0.913   8.620   7.852  0.1992  0.5386  0.4145
 1008MOL0     C35978  -1.014   8.533   7.903  0.7071  0.3442 -0.0607
 1008MOL0     C35979  -1.010   8.476   8.027 -1.0869  0.4244 -1.2181
 1008MOL0     O35980  -1.110   8.398   8.084  0.0876  0.3619 -0.1549
 1008MOL0     C35981  -1.223   8.372   7.994  1.2610  0.2816  0.0454
 1008MOL0     C35982  -1.302   8.259   8.067  0.0321  0.3498 -0.2075
 1008MOL0     C35983  -1.236   8.114   8.047  1.1341 -0.4241  0.4145
 1008MOL0     C35984  -1.279   8.005   8.143  0.2820 -0.4585  0.1643
 1008MOL0     C35985  -1.413   7.948   8.098 -0.2164  0.1346 -0.3819
 1008MOL0     C35986  -1.427   7.920   7.950  0.2399 -0.4227  0.2238
 1008MOL0     C35987  -1.533   7.812   7.922 -0.3162 -0.5667 -0.7461
 1008MOL0     C35988  -1.602   7.831   7.785 -0.2251  0.1424  0.3471
 1008MOL0    Cl35989  -1.693   7.681   7.757  0.0229  0.2370  0.0610
 1008MOL0     C35990  -0.898   8.503   8.101 -0.2556  0.3849 -0.7986
 1008MOL0     C35991  -0.795   8.572   8.058 -0.1507 -0.6502  0.3486
 1008MOL0     O35992  -0.796   8.908   7.894 -0.8443 -0.5049 -0.1818
 1008MOL0     C35993  -0.581   9.017   7.722  0.4397 -0.2436  0.2469
 1008MOL0     C35994  -0.468   9.062   7.660  0.5603 -0.7014  1.2442
 1008MOL0     N35995   0.259   9.010   7.552  0.7189 -0.5090  0.5551
 1008MOL0     N35996   0.329   9.078   7.628 -0.2601 -0.0757 -0.7146
 1008MOL0     C35997   0.897   9.905   7.159  1.1457 -0.4024  0.0629
 1008MOL0     C35998   0.939  10.042   7.169  0.0816  0.7344 -0.4739
 1008MOL0     C35999   1.113  10.391   7.348  0.0340  0.0358  0.3301
 1008MOL0     C36000   1.185  10.450   7.239 -0.5396 -0.2136  0.8201
 1008MOL0     C36001   1.220  10.587   7.229  0.7092 -0.2638 -0.3411
 1008MOL0     C36002   1.185  10.671   7.333  0.2981 -0.9904  0.5703
 1008MOL0     O36003   1.215  10.803   7.312  0.0986 -0.1552  0.6856
 1008MOL0     C36004   1.208  10.889   7.431 -0.1080  0.5930  0.1658
 1008MOL0     C36005   1.273  11.021   7.394 -0.4694  0.5210  0.2718
 1008MOL0     C36006   1.420  11.007   7.353  0.1298 -0.7069 -0.1835
 1008MOL0     C36007   1.534  10.964   7.453  1.3609  0.6901  0.2562
 1008MOL0     C36008   1.577  11.070   7.536 -0.1339 -0.5172 -0.4019
 1008MOL0     C36009   1.600  11.159   7.620 -0.5111 -0.4586 -0.1244
 1008MOL0     C36010   1.114  10.617   7.437 -0.6692  0.2805  0.2116
 1008MOL0     C36011   1.074  10.484   7.449  0.2481  0.3105 -0.1281
 1008MOL0     C36012   1.004  10.452   7.579 -0.3802  0.3423  0.4458
 1008MOL0     H36013   1.258   9.959   7.277 -0.4224  2.6989  1.6972
 1008MOL0     H36014   1.172   9.726   7.217 -0.0111 -0.2662 -0.1347
 1008MOL0     H36015   0.754   9.654   7.095  1.5288  0.1566  2.7419
 1008MOL0     H36016   0.876   9.658   6.964  0.7437  1.1979 -0.1906
 1008MOL0     H36017   0.954   9.433   7.039  0.1876  3.6024 -3.3811
 1008MOL0     H36018   0.785   9.432   6.977 -0.9744  1.8381 -0.3140
 1008MOL0     H36019   0.688   9.407   7.215  0.9140 -2.4064  3.2060
 1008MOL0     H36020   0.844   9.460   7.279  1.1953  1.0802  0.4835
 1008MOL0     H36021   0.781   9.189   7.130  1.9930 -0.5191 -0.9090
 1008MOL0     H36022   0.940   9.240   7.187  0.3951  0.5458  0.6536
 1008MOL0     H36023   0.829   9.087   7.348  4.4950  0.3927 -1.6890
 1008MOL0     H36024   0.891   9.253   7.387 -0.1556  1.6313 -2.7236
 1008MOL0     H36025   0.688   9.350   7.416 -0.8299  1.5237  0.0367
 1008MOL0     H36026   0.594   9.227   7.326 -0.0388 -0.0481  1.9627
 1008MOL0     H36027   0.730   9.198   7.601  1.0053 -1.5300 -0.3261
 1008MOL0     H36028   0.622   9.076   7.534  1.4573  0.2413 -1.9044
 1008MOL0     H36029   0.514   9.226   7.704  0.0015  0.7169  0.2608
 1008MOL0     H36030   0.504   9.355   7.582 -0.9511 -1.0031 -1.1251
 1008MOL0     H36031   0.346   9.255   7.357 -0.4219 -0.8356 -1.4636
 1008MOL0     H36032   0.116   9.111   7.257 -2.2239  0.5776  1.6601
 1008MOL0     H36033   0.219   8.970   7.253 -0.4415 -1.1272 -0.0135
 1008MOL0     H36034  -0.016   8.907   7.286 -2.5539  1.1939  0.5834
 1008MOL0     H36035   0.067   8.874   7.436 -0.5899  0.1067 -1.1651
 1008MOL0     H36036  -0.119   9.098   7.358 -1.0749 -1.6313 -0.6096
 1008MOL0     H36037  -0.017   9.115   7.501  3.7831 -1.2294 -1.0402
 1008MOL0     H36038  -0.118   8.873   7.577 -0.8514  1.3153  1.3403
 1008MOL0     H36039  -0.241   8.882   7.462 -2.0611 -0.0288  1.1591
 1008MOL0     H36040  -0.273   8.790   7.726  2.8046  3.2549  0.3052
 1008MOL0     H36041  -0.474   8.709   7.839 -3.0964 -0.1055 -0.1144
 1008MOL0     H36042  -0.920   8.673   7.757  3.6480  1.3472  0.4863
 1008MOL0     H36043  -1.096   8.526   7.832  0.8153  1.4371 -0.3154
 1008MOL0     H36044  -1.290   8.450   7.958 -3.1110 -3.2775 -0.4843
 1008MOL0     H36045  -1.193   8.321   7.902 -0.9761 -1.0821 -0.0164
 1008MOL0     H36046  -1.279   8.265   8.174 -1.1145 -2.6514  0.3045
 1008MOL0     H36047  -1.411   8.252   8.058 -0.0920  2.7223 -1.3117
 1008MOL0     H36048  -1.237   8.091   7.940  0.3726  0.7601  0.1512
 1008MOL0     H36049  -1.130   8.124   8.072  0.7223  0.9499  1.7542
 1008MOL0     H36050  -1.281   8.044   8.245 -3.1411  0.2325 -0.0403
 1008MOL0     H36051  -1.197   7.932   8.147  2.3110  1.7042  0.6725
 1008MOL0     H36052  -1.481   8.032   8.118  1.2063  1.0814  0.6922
 1008MOL0     H36053  -1.442   7.877   8.177  0.5956  1.2982  1.0133
 1008MOL0     H36054  -1.468   8.011   7.906 -5.8344 -2.3893  0.8469
 1008MOL0     H36055  -1.339   7.884   7.898 -1.3888 -0.0329 -3.0461
 1008MOL0     H36056  -1.607   7.832   8.000  0.5646 -0.3293  0.0441
 1008MOL0     H36057  -1.499   7.709   7.933  0.7663 -0.0611  0.9568
 1008MOL0     H36058  -1.666   7.918   7.769  1.0494  0.5907 -2.9030
 1008MOL0     H36059  -1.524   7.846   7.710 -1.1544  0.5865 -0.5549
 1008MOL0     H36060  -0.867   8.460   8.195  2.1701  0.0625 -1.6637
 1008MOL0     H36061  -0.709   8.585   8.123  0.5192 -1.0354 -0.4433
 1008MOL0     H36062  -0.675   9.069   7.733 -0.2225 -1.7006  2.1297
 1008MOL0     H36063  -0.471   9.161   7.615 -1.7426 -0.6754  1.3395
 1008MOL0     H36064   0.794   9.878   7.139  1.8171 -5.7905  2.2372
 1008MOL0     H36065   0.865  10.119   7.152 -0.1771 -0.1963 -4.4110
 1008MOL0     H36066   1.223  10.401   7.150 -1.4193  3.7289 -1.9946
 1008MOL0     H36067   1.275  10.632   7.147  1.0662 -1.3499 -0.7069
 1008MOL0     H36068   1.264  10.837   7.509 -1.3821 -1.0401  0.0444
 1008MOL0     H36069   1.101  10.910   7.442 -0.9404  1.3681 -5.8686
 1008MOL0     H36070   1.261  11.092   7.476  2.0819  2.4253 -0.8751
 1008MOL0     H36071   1.227  11.067   7.305  2.4733  3.0428 -0.1186
 1008MOL0     H36072   1.448  11.105   7.312  4.3294 -1.7306 -0.2859
 1008MOL0     H36073   1.421  10.937   7.269  3.2438 -0.4553 -0.4718
 1008MOL0     H36074   1.496  10.888   7.521 -1.6890  0.9159 -1.0464
 1008MOL0     H36075   1.620  10.938   7.390 -0.1493  0.9158 -2.0312
 1008MOL0     H36076   1.611  11.252   7.672 -0.6796 -1.5728  2.0107
 1008MOL0     H36077   1.078  10.683   7.515 -2.9192  0.0511 -0.5501
 1008MOL0     H36078   1.037  10.515   7.662 -1.4736  0.3145  0.9234
 1008MOL0     H36079   0.895  10.443   7.574 -0.2184 -1.6740 -0.2487
 1008MOL0     H36080   1.052  10.362   7.618  1.3986  1.5186  1.0679
 1009MOL0     O36081   8.000   7.330   0.683 -1.1577  0.0010  0.4863
 1009MOL0     C36082   8.016   7.209   0.694 -0.6470 -0.5218  0.2887
 1009MOL0     O36083   7.972   7.112   0.604 -0.3216  0.1856  0.8287
 1009MOL0     C36084   7.911   7.151   0.484  0.7719  0.9830 -0.1187
 1009MOL0     C36085   7.807   7.240   0.479 -0.0863  0.0013  0.3466
 1009MOL0     C36086   7.740   7.268   0.359  0.5299  0.4850 -0.7744
 1009MOL0     C36087   7.768   7.190   0.246  1.0982  0.0004  0.3789
 1009MOL0     O36088   7.684   7.230   0.137 -1.0011 -0.2793 -1.1234
 1009MOL0     C36089   7.661   7.129   0.050  0.4030 -0.3108  0.5050
 1009MOL0     C36090   7.571   7.175  -0.068  0.5378  0.0978  0.4734
 1009MOL0     C36091   7.637   7.266  -0.170 -0.0555 -0.1529  0.2546
 1009MOL0     C36092   7.543   7.323  -0.282 -1.1237 -0.1315  0.8966
 1009MOL0     C36093   7.480   7.455  -0.244  0.2502 -0.5234  0.1158
 1009MOL0     C36094   7.582   7.578  -0.254 -0.4678 -0.1184 -0.0481
 1009MOL0     C36095   7.489   7.695  -0.213  0.5168 -0.5630  0.2972
 1009MOL0     C36096   7.465   7.710  -0.061  0.4110  0.1528 -0.6140
 1009MOL0     N36097   7.554   7.818  -0.008  0.5500  0.7441  0.4751
 1009MOL0     C36098   7.684   7.841  -0.035  0.7532 -0.7226 -0.9736
 1009MOL0     C36099   7.708   7.962   0.021  0.0287  0.3777 -0.7172
 1009MOL0     C36100   7.834   8.029   0.039  0.2033  0.3521 -1.5507
 1009MOL0     C36101   7.892   8.071  -0.100  0.6194 -0.6417  0.3746
 1009MOL0     C36102   7.990   8.190  -0.094 -0.2329 -0.0111 -0.5970
 1009MOL0     C36103   8.025   8.266  -0.221  0.1138  0.8138 -0.6262
 1009MOL0     O36104   8.109   8.180  -0.308  1.2378 -0.6830  0.2342
 1009MOL0     C36105   8.244   8.176  -0.286  0.1614 -1.1649 -0.3897
 1009MOL0     C36106   8.317   8.117  -0.380 -0.4117 -0.0512 -0.7054
 1009MOL0     C36107   8.454   8.114  -0.381 -0.2376 -0.0774  0.3545
 1009MOL0     C36108   8.521   8.152  -0.266 -0.4762 -1.4437  0.6558
 1009MOL0     C36109   8.671   8.157  -0.262  0.1866  0.4552 -0.5289
 1009MOL0     O36110   8.751   8.113  -0.370  0.1671 -0.7306  0.0716
 1009MOL0     C36111   8.867   8.191  -0.392 -0.4329 -0.4452 -1.1962
 1009MOL0     C36112   8.856   8.306  -0.468 -0.7045 -0.3203 -0.0793
 1009MOL0     C36113   8.969   8.387  -0.494 -0.1711 -0.4466 -0.4845
 1009MOL0     C36114   9.093   8.354  -0.446 -0.5072  1.3329 -0.6555
 1009MOL0     O36115   9.195   8.448  -0.466  0.1370  0.4257  0.3454
 1009MOL0     C36116   9.324   8.408  -0.513 -1.3443 -0.0245 -0.2119
 1009MOL0     C36117   9.414   8.535  -0.523 -0.5964  0.6121 -0.3488
 1009MOL0     C36118   9.385   8.597  -0.654  0.8132  0.1559 -0.4293
 1009MOL0     C36119   9.469   8.727  -0.661 -0.3330  1.1632 -0.1609
 1009MOL0     C36120   9.456   8.797  -0.802 -1.0033 -0.4277 -0.5873
 1009MOL0     C36121   9.317   8.846  -0.830  0.4407 -0.1183  0.0448
 1009MOL0     C36122   9.309   8.935  -0.957 -0.8116 -0.0781 -0.3591
 1009MOL0     C36123   9.367   8.864  -1.085  1.2119 -0.6837 -0.2636
 1009MOL0    Cl36124   9.249   8.732  -1.114  0.6501  0.8138 -0.3768
 1009MOL0     C36125   9.107   8.235  -0.365  0.0393  0.3000  0.7792
 1009MOL0     C36126   8.996   8.145  -0.348 -0.6438 -0.2680 -0.6467
 1009MOL0     O36127   8.711   8.211  -0.162  0.3378  0.5179  0.1083
 1009MOL0     C36128   8.449   8.196  -0.160  0.4982 -0.1080 -0.4711
 1009MOL0     C36129   8.311   8.214  -0.162  0.3222  0.6912 -0.7902
 1009MOL0     N36130   7.588   8.008   0.068 -0.3749  0.6159  0.2467
 1009MOL0     N36131   7.488   7.920   0.051  0.4217 -0.0851  0.1264
 1009MOL0     C36132   7.869   7.099   0.246 -0.6775 -0.4475 -0.2464
 1009MOL0     C36133   7.944   7.078   0.366 -0.2299  0.1527  0.5273
 1009MOL0     C36134   8.068   7.166   0.825  0.3763  0.7592  0.3820
 1009MOL0     C36135   8.108   7.263   0.912 -0.5076  0.1825 -0.1424
 1009MOL0     C36136   8.180   7.238   1.034  0.4628  0.1303 -0.1156
 1009MOL0     C36137   8.205   7.108   1.070 -0.1665  0.0671 -0.2152
 1009MOL0     O36138   8.271   7.084   1.194 -0.0623 -0.4664 -0.5610
 1009MOL0     C36139   8.270   7.177   1.299  0.6178  0.4503 -1.2451
 1009MOL0     C36140   8.313   7.102   1.424 -0.5252 -0.7029  0.3325
 1009MOL0     C36141   8.454   7.024   1.400 -0.2248 -0.5875 -0.0012
 1009MOL0     C36142   8.570   7.128   1.406 -0.4144  0.0193  0.6351
 1009MOL0     C36143   8.687   7.088   1.320 -0.8057 -0.5915  0.6654
 1009MOL0     C36144   8.793   7.061   1.257  0.3098 -0.2231 -0.1850
 1009MOL0     C36145   8.165   7.002   0.987 -0.2785 -0.3503 -0.3404
 1009MOL0     C36146   8.103   7.029   0.865 -0.0379  0.3693 -0.5886
 1009MOL0     C36147   8.051   6.913   0.787  0.2061 -0.0970 -0.2309
 1009MOL0     H36148   7.780   7.291   0.570 -1.6928 -2.7063  1.5140
 1009MOL0     H36149   7.664   7.345   0.362  1.1659  1.2669  4.2965
 1009MOL0     H36150   7.760   7.102   0.012  0.3028  0.0144  0.0082
 1009MOL0     H36151   7.616   7.044   0.102  4.0069 -1.8492  1.4134
 1009MOL0     H36152   7.480   7.219  -0.026 -1.0296 -0.5303 -2.0605
 1009MOL0     H36153   7.547   7.084  -0.123  2.9142  0.7659 -1.8840
 1009MOL0     H36154   7.717   7.205  -0.213 -0.6006 -1.3365  0.8735
 1009MOL0     H36155   7.666   7.361  -0.123 -3.7397  2.0347 -1.4422
 1009MOL0     H36156   7.611   7.341  -0.366 -0.2598 -2.1013  1.1182
 1009MOL0     H36157   7.484   7.239  -0.318  1.6502 -2.4872  1.4280
 1009MOL0     H36158   7.402   7.478  -0.317  1.9408  4.0733 -0.6001
 1009MOL0     H36159   7.439   7.449  -0.143 -3.3074  4.0168 -0.7248
 1009MOL0     H36160   7.660   7.571  -0.177 -0.8251 -0.3197  0.2993
 1009MOL0     H36161   7.624   7.579  -0.355  2.0313 -2.7604  0.8482
 1009MOL0     H36162   7.393   7.681  -0.264  0.7678  0.6809 -0.5411
 1009MOL0     H36163   7.529   7.790  -0.249 -2.3693  0.3025 -0.8978
 1009MOL0     H36164   7.359   7.738  -0.065 -0.4912 -2.6167  1.0278
 1009MOL0     H36165   7.474   7.628   0.011  2.9763  0.5705 -0.3638
 1009MOL0     H36166   7.750   7.780  -0.096  1.4660 -0.1096 -0.8310
 1009MOL0     H36167   7.796   8.116   0.094 -0.9683 -1.3887  0.5190
 1009MOL0     H36168   7.911   7.980   0.099 -0.0060 -0.5488 -2.0139
 1009MOL0     H36169   7.931   7.986  -0.157 -0.6449  1.6460 -4.4907
 1009MOL0     H36170   7.807   8.111  -0.156  0.3648 -3.1000 -1.1588
 1009MOL0     H36171   8.085   8.155  -0.053  0.5510 -1.9235 -3.7613
 1009MOL0     H36172   7.950   8.266  -0.026  0.0143 -1.6384  1.4756
 1009MOL0     H36173   8.091   8.350  -0.200  0.7799  0.3036 -0.6468
 1009MOL0     H36174   7.939   8.307  -0.274 -1.6110  0.2972  1.6206
 1009MOL0     H36175   8.276   8.060  -0.463  0.2012 -0.6859 -0.5889
 1009MOL0     H36176   8.513   8.080  -0.466  1.2591  0.3857  1.1665
 1009MOL0     H36177   8.758   8.351  -0.481 -1.1949 -1.4896 -0.5807
 1009MOL0     H36178   8.969   8.479  -0.551 -1.5857 -0.4180 -0.4652
 1009MOL0     H36179   9.381   8.357  -0.435 -0.2718  3.1638  1.2921
 1009MOL0     H36180   9.332   8.331  -0.590  0.9145 -1.9697  1.7916
 1009MOL0     H36181   9.390   8.592  -0.433  0.5484 -0.4441  0.6519
 1009MOL0     H36182   9.516   8.498  -0.512 -0.7974  0.3202  0.6388
 1009MOL0     H36183   9.399   8.531  -0.741  0.7544  0.5579 -0.7474
 1009MOL0     H36184   9.279   8.626  -0.654 -0.2125 -3.0739 -1.5252
 1009MOL0     H36185   9.572   8.691  -0.659 -0.8262 -0.6671 -2.3836
 1009MOL0     H36186   9.450   8.785  -0.571  0.5539 -0.5841  1.2101
 1009MOL0     H36187   9.498   8.720  -0.867  0.1199  1.0460 -1.6616
 1009MOL0     H36188   9.523   8.882  -0.815 -0.6560 -1.0873 -3.7573
 1009MOL0     H36189   9.248   8.762  -0.841  1.3215 -1.2339  2.3496
 1009MOL0     H36190   9.268   8.894  -0.746 -0.5531 -0.7186 -0.1829
 1009MOL0     H36191   9.370   9.024  -0.938 -1.9372  0.6230  0.1033
 1009MOL0     H36192   9.205   8.971  -0.963 -0.5182  1.0636  0.9684
 1009MOL0     H36193   9.366   8.933  -1.170  0.9970 -0.7457 -0.3113
 1009MOL0     H36194   9.464   8.815  -1.087 -0.6754 -4.8609 -2.1448
 1009MOL0     H36195   9.206   8.202  -0.335 -0.2185 -1.8548 -0.4692
 1009MOL0     H36196   9.015   8.047  -0.307 -2.3470  0.5156  2.2517
 1009MOL0     H36197   8.507   8.228  -0.073  2.8153 -1.8203 -1.2769
 1009MOL0     H36198   8.268   8.266  -0.077  0.4864 -0.9207  0.3256
 1009MOL0     H36199   7.884   7.041   0.156 -0.5000  2.6372 -2.3504
 1009MOL0     H36200   8.023   7.005   0.357  0.4803  0.7851  1.4055
 1009MOL0     H36201   8.088   7.368   0.891  0.1008 -0.1535 -2.6438
 1009MOL0     H36202   8.216   7.320   1.095  0.5015 -0.1157  0.1947
 1009MOL0     H36203   8.170   7.217   1.320  0.3697 -0.1095 -1.3487
 1009MOL0     H36204   8.335   7.264   1.288  0.4638  0.7233 -0.1522
 1009MOL0     H36205   8.234   7.032   1.453  0.6988 -1.8259  1.1052
 1009MOL0     H36206   8.320   7.169   1.510 -2.8301  0.3653 -0.2494
 1009MOL0     H36207   8.455   6.975   1.303  1.7464 -1.3024  0.3446
 1009MOL0     H36208   8.467   6.944   1.472  2.4334  1.0824  1.5360
 1009MOL0     H36209   8.540   7.224   1.366  0.1069 -0.5459 -1.2176
 1009MOL0     H36210   8.607   7.150   1.507  0.7714 -0.6427  0.3691
 1009MOL0     H36211   8.886   7.051   1.206  1.0558  0.1933  1.0519
 1009MOL0     H36212   8.187   6.900   1.017  3.2845  0.0354 -1.1760
 1009MOL0     H36213   8.075   6.819   0.839  0.9148 -1.1079 -2.2925
 1009MOL0     H36214   7.942   6.913   0.773  0.1995  1.6371 -0.2983
 1009MOL0     H36215   8.109   6.893   0.697  1.1542  3.3312 -0.4942
 1010MOL0     O36216   5.179   7.615   4.151 -0.1067 -0.5209 -0.3267
 1010MOL0     C36217   5.085   7.600   4.072 -1.2403  0.2998 -0.2957
 1010MOL0     O36218   4.971   7.683   4.069  0.3909 -0.0748 -0.1924
 1010MOL0     C36219   4.961   7.787   4.154  0.5111 -0.1071  0.0837
 1010MOL0     C36220   4.908   7.762   4.281  0.3788 -0.8401  0.3937
 1010MOL0     C36221   4.891   7.865   4.380  0.5561  0.4239  0.7085
 1010MOL0     C36222   4.929   8.001   4.352 -0.6114 -0.1385  0.7441
 1010MOL0     O36223   4.896   8.094   4.453  0.1156  0.4703  0.2379
 1010MOL0     C36224   4.919   8.234   4.442  0.4779 -0.1698  1.0230
 1010MOL0     C36225   4.854   8.308   4.556 -0.2479  0.2324 -1.1362
 1010MOL0     C36226   4.914   8.255   4.689 -0.2000  0.0856 -0.1003
 1010MOL0     C36227   4.873   8.349   4.808  1.4875 -0.4313  0.6950
 1010MOL0     C36228   4.920   8.300   4.944 -0.2004  0.5146  0.1411
 1010MOL0     C36229   4.884   8.402   5.049 -0.0014 -0.2930 -0.0900
 1010MOL0     C36230   4.919   8.339   5.184 -0.4635 -1.2016 -0.5726
 1010MOL0     C36231   4.883   8.448   5.290 -0.6472  0.1916  1.1027
 1010MOL0     N36232   4.977   8.448   5.406 -0.8226 -1.3039 -0.6578
 1010MOL0     C36233   4.997   8.344   5.492 -0.2778 -0.4313  0.6163
 1010MOL0     C36234   5.061   8.393   5.601  0.3501  0.6350  0.2000
 1010MOL0     C36235   5.093   8.307   5.726 -0.5837  1.1956 -0.5178
 1010MOL0     C36236   4.976   8.239   5.798 -0.6582  0.2175 -0.1222
 1010MOL0     C36237   4.888   8.327   5.880 -0.1924  1.2284  0.5308
 1010MOL0     C36238   4.814   8.432   5.791 -0.5846 -0.2400 -0.1804
 1010MOL0     O36239   4.727   8.509   5.876 -0.3915 -0.9744 -1.3283
 1010MOL0     C36240   4.748   8.637   5.910 -0.3612 -0.6047 -0.0386
 1010MOL0     C36241   4.640   8.717   5.948  0.4703  0.2382 -0.0962
 1010MOL0     C36242   4.638   8.846   5.987  0.1235 -0.8928  0.8870
 1010MOL0     C36243   4.761   8.909   5.992  0.8527  0.9580 -0.2917
 1010MOL0     C36244   4.769   9.029   6.066  0.1104  0.4127 -0.1445
 1010MOL0     O36245   4.684   9.052   6.165 -0.4796 -0.4149  0.6314
 1010MOL0     C36246   4.651   9.179   6.223 -0.1453  0.5909 -0.8812
 1010MOL0     C36247   4.580   9.174   6.345  0.3314  0.2289  0.1884
 1010MOL0     C36248   4.549   9.292   6.414 -0.2101  0.2158 -0.5946
 1010MOL0     C36249   4.556   9.411   6.357 -0.8209  0.6160  0.5325
 1010MOL0     O36250   4.506   9.524   6.415  0.4231  0.1093 -0.1344
 1010MOL0     C36251   4.524   9.650   6.359  0.1465  0.4697  0.2174
 1010MOL0     C36252   4.513   9.765   6.462 -0.9837 -0.1956  0.4111
 1010MOL0     C36253   4.404   9.761   6.563  0.1217  0.0491 -0.1070
 1010MOL0     C36254   4.373   9.895   6.628  1.2370 -0.2777 -0.9430
 1010MOL0     C36255   4.265   9.895   6.723 -0.4442 -0.8470  0.4567
 1010MOL0     C36256   4.138   9.930   6.652  1.0389  0.0892  0.1024
 1010MOL0     C36257   4.023   9.953   6.747 -1.2632  0.3355 -0.2288
 1010MOL0     C36258   3.968   9.821   6.812  0.1680  0.2656  0.4813
 1010MOL0    Cl36259   3.827   9.858   6.913 -0.1970 -0.0362 -0.0214
 1010MOL0     C36260   4.621   9.421   6.230 -0.6834 -0.4435  0.4069
 1010MOL0     C36261   4.672   9.309   6.170  0.1506  0.6782 -0.2854
 1010MOL0     O36262   4.850   9.107   6.022 -0.0394 -0.1372 -0.3859
 1010MOL0     C36263   4.879   8.845   5.938 -0.1808  0.7088  0.1627
 1010MOL0     C36264   4.876   8.709   5.910  1.1223  0.0483  0.0364
 1010MOL0     N36265   5.096   8.525   5.566 -0.0271 -0.1055 -0.3057
 1010MOL0     N36266   5.043   8.562   5.463  0.0868 -0.7163  0.3572
 1010MOL0     C36267   4.972   8.029   4.216  0.1801 -0.5887 -0.6884
 1010MOL0     C36268   4.993   7.922   4.126 -0.0486  0.2153 -0.3142
 1010MOL0     C36269   5.097   7.497   3.958 -0.2171 -0.4669  0.3372
 1010MOL0     C36270   4.975   7.479   3.877 -0.9089 -0.1896 -0.3366
 1010MOL0     C36271   4.974   7.389   3.768  0.6651  0.6173  0.0959
 1010MOL0     C36272   5.091   7.314   3.746  1.5134 -0.5285  0.2366
 1010MOL0     O36273   5.105   7.218   3.647  0.4595  0.1896 -0.2505
 1010MOL0     C36274   5.018   7.195   3.537 -0.0346 -0.2791  1.2244
 1010MOL0     C36275   5.030   7.056   3.473  0.5679  0.4300 -0.1019
 1010MOL0     C36276   4.941   7.060   3.339  0.0139 -0.8807  0.0921
 1010MOL0     C36277   4.943   6.922   3.266 -0.6598  0.0379 -0.8752
 1010MOL0     C36278   4.898   6.951   3.131  0.8567  0.0610 -0.1767
 1010MOL0     C36279   4.848   6.981   3.022 -0.2232 -0.2772 -0.0784
 1010MOL0     C36280   5.211   7.329   3.819  1.0407 -0.0330 -0.4102
 1010MOL0     C36281   5.210   7.420   3.925 -1.3927 -0.4564 -0.6848
 1010MOL0     C36282   5.336   7.441   4.001  0.2334  0.0899 -0.2066
 1010MOL0     H36283   4.888   7.659   4.307  1.3622 -1.1791 -0.1608
 1010MOL0     H36284   4.855   7.837   4.479  1.8159 -0.9240  0.8211
 1010MOL0     H36285   5.025   8.261   4.445  0.1262  2.4499 -3.0772
 1010MOL0     H36286   4.867   8.266   4.352  0.5149 -0.5986  0.8445
 1010MOL0     H36287   4.751   8.273   4.562 -0.5515  1.3086  2.2690
 1010MOL0     H36288   4.849   8.417   4.551 -1.4989  0.3161  0.8609
 1010MOL0     H36289   5.022   8.244   4.699  0.0499  1.5329 -0.8422
 1010MOL0     H36290   4.871   8.156   4.708 -2.0733  0.7051 -0.8069
 1010MOL0     H36291   4.903   8.452   4.790 -0.1079  0.1881  1.4625
 1010MOL0     H36292   4.766   8.345   4.828  1.7325  1.2180  2.6975
 1010MOL0     H36293   4.854   8.217   4.967 -1.4974  0.5733 -2.8766
 1010MOL0     H36294   5.029   8.290   4.947 -0.0900  0.7771 -1.8538
 1010MOL0     H36295   4.938   8.495   5.029 -1.7688  1.0069  0.9220
 1010MOL0     H36296   4.775   8.411   5.047  0.0977  2.0243  0.8185
 1010MOL0     H36297   5.021   8.298   5.181 -1.8556 -5.0073 -0.8276
 1010MOL0     H36298   4.856   8.251   5.201 -1.4826 -0.1913  1.0193
 1010MOL0     H36299   4.903   8.546   5.245  0.9051 -0.0481  1.2140
 1010MOL0     H36300   4.778   8.431   5.318 -0.8655 -0.3172 -0.0063
 1010MOL0     H36301   4.952   8.246   5.479  0.8892 -0.6480 -2.9485
 1010MOL0     H36302   5.154   8.225   5.688 -0.5796  1.0326 -0.1650
 1010MOL0     H36303   5.143   8.369   5.801 -2.5633  0.1087  1.8381
 1010MOL0     H36304   4.915   8.195   5.718 -2.5438  1.4667  0.5690
 1010MOL0     H36305   5.008   8.152   5.857  1.0008  1.0001  0.1772
 1010MOL0     H36306   4.945   8.371   5.963  2.6399  0.8626 -1.0756
 1010MOL0     H36307   4.810   8.263   5.922 -1.9805  2.0448 -1.3485
 1010MOL0     H36308   4.757   8.384   5.710 -0.8722  1.5036 -1.0827
 1010MOL0     H36309   4.879   8.502   5.737 -2.0646  2.2510  1.0990
 1010MOL0     H36310   4.536   8.687   5.948  1.1752 -2.4286  0.3563
 1010MOL0     H36311   4.549   8.892   6.028  1.3930 -0.1647  2.9729
 1010MOL0     H36312   4.561   9.074   6.383 -0.6099  0.7349  1.0724
 1010MOL0     H36313   4.491   9.277   6.505  3.0961 -0.0575  1.6525
 1010MOL0     H36314   4.619   9.656   6.305 -1.4200  0.6459 -2.7076
 1010MOL0     H36315   4.441   9.659   6.288  1.0625  2.2746 -0.6834
 1010MOL0     H36316   4.611   9.766   6.512 -0.5095  0.5014 -0.5079
 1010MOL0     H36317   4.515   9.865   6.419 -0.8080  0.6248  2.2350
 1010MOL0     H36318   4.314   9.719   6.518  3.4990 -4.1584 -3.7228
 1010MOL0     H36319   4.431   9.688   6.640 -0.2745  0.2338  0.2168
 1010MOL0     H36320   4.364   9.983   6.564  1.9730  2.1887  2.0844
 1010MOL0     H36321   4.464   9.922   6.681  0.5806  0.4039 -0.1310
 1010MOL0     H36322   4.278   9.978   6.793 -1.0645  1.0476 -1.5524
 1010MOL0     H36323   4.255   9.801   6.777  0.2076  0.5228  3.1473
 1010MOL0     H36324   4.146  10.018   6.588  2.6714  0.8645  1.3082
 1010MOL0     H36325   4.110   9.852   6.581  0.2798 -0.9474  1.4817
 1010MOL0     H36326   3.935   9.992   6.694 -0.2646  0.8213 -1.5938
 1010MOL0     H36327   4.052  10.020   6.829  1.2962  1.8943 -2.2752
 1010MOL0     H36328   3.943   9.749   6.733 -1.8075  0.4321  0.8835
 1010MOL0     H36329   4.047   9.776   6.872 -0.7240  0.1344  1.6007
 1010MOL0     H36330   4.664   9.510   6.184 -0.4035  0.8430  2.9674
 1010MOL0     H36331   4.707   9.314   6.067  0.9907 -0.1620 -0.0588
 1010MOL0     H36332   4.982   8.881   5.936  0.6228 -1.4761 -0.9439
 1010MOL0     H36333   4.967   8.663   5.872  1.6515 -1.2949  2.6892
 1010MOL0     H36334   5.009   8.123   4.177  1.1571 -0.8706 -0.4669
 1010MOL0     H36335   5.027   7.944   4.025 -0.2294  0.2692 -0.3626
 1010MOL0     H36336   4.880   7.522   3.904 -1.6398 -0.4739 -2.2876
 1010MOL0     H36337   4.877   7.393   3.720  0.9661  1.3702 -0.4641
 1010MOL0     H36338   5.034   7.274   3.462  0.8554 -1.6075 -0.0367
 1010MOL0     H36339   4.914   7.205   3.570 -1.2977 -3.7553 -1.1095
 1010MOL0     H36340   4.995   6.972   3.532  0.6230 -1.4242 -2.5338
 1010MOL0     H36341   5.134   7.046   3.442  0.6410  0.8060  0.0115
 1010MOL0     H36342   4.978   7.137   3.271 -0.1919 -0.4729  0.4344
 1010MOL0     H36343   4.841   7.100   3.362  1.3849  4.4164 -1.7464
 1010MOL0     H36344   5.046   6.887   3.255 -1.6819 -3.4204 -0.5190
 1010MOL0     H36345   4.887   6.846   3.322  0.2434 -2.1179 -2.7324
 1010MOL0     H36346   4.779   7.017   2.948 -2.1350  0.2230  1.8506
 1010MOL0     H36347   5.297   7.267   3.796  0.5461 -2.0518  2.5813
 1010MOL0     H36348   5.409   7.365   3.973  0.8963 -0.6641  3.1128
 1010MOL0     H36349   5.381   7.539   3.980  0.8999 -0.1846 -0.0842
 1010MOL0     H36350   5.313   7.423   4.106 -1.3551 -0.7692 -0.6682
 1011MOL0     O36351   7.889   3.031   3.509  0.7423  0.5489 -0.7862
 1011MOL0     C36352   7.897   3.106   3.410 -0.4244  0.4063  0.2130
 1011MOL0     O36353   7.796   3.112   3.303 -0.3349 -0.4203  0.1833
 1011MOL0     C36354   7.675   3.047   3.305  0.2540  1.2325  0.7243
 1011MOL0     C36355   7.614   3.036   3.182 -0.2220  0.3229  0.0669
 1011MOL0     C36356   7.493   2.976   3.178  0.0235  0.0258 -1.0248
 1011MOL0     C36357   7.417   2.937   3.292 -0.0033  0.4453  0.0243
 1011MOL0     O36358   7.291   2.885   3.269  0.3781 -0.5381  1.2243
 1011MOL0     C36359   7.227   2.835   3.381  0.0392  1.0349  0.0623
 1011MOL0     C36360   7.103   2.743   3.344  0.8880  0.2928  0.3063
 1011MOL0     C36361   6.993   2.819   3.271  0.2234  0.4140  0.8851
 1011MOL0     C36362   6.886   2.722   3.222 -0.1052 -0.4574 -1.4932
 1011MOL0     C36363   6.786   2.784   3.136 -0.0978 -0.1676  0.0183
 1011MOL0     C36364   6.706   2.680   3.052  0.3680  0.9517  0.3090
 1011MOL0     C36365   6.590   2.743   2.970  0.8614 -1.1203 -0.2702
 1011MOL0     C36366   6.521   2.638   2.875 -0.4025  0.7707  0.4417
 1011MOL0     N36367   6.453   2.691   2.762 -0.8736 -0.2707  0.0274
 1011MOL0     C36368   6.328   2.754   2.765 -0.2164 -0.4076  0.1304
 1011MOL0     C36369   6.313   2.798   2.635 -0.5297  0.0166 -0.1182
 1011MOL0     C36370   6.187   2.867   2.601 -0.6634  0.8578 -0.3739
 1011MOL0     C36371   6.085   2.763   2.619 -0.7041 -0.3904 -0.5287
 1011MOL0     C36372   5.969   2.797   2.532 -0.2214 -0.5769  0.3372
 1011MOL0     C36373   5.853   2.706   2.566 -0.2034 -0.6716 -0.5135
 1011MOL0     O36374   5.789   2.670   2.444  0.8420 -0.0518  0.1388
 1011MOL0     C36375   5.724   2.760   2.364  0.1122 -0.6698 -0.2851
 1011MOL0     C36376   5.636   2.845   2.422 -0.5792  0.5189  0.6369
 1011MOL0     C36377   5.584   2.959   2.355  0.4947 -0.2295 -0.5749
 1011MOL0     C36378   5.606   2.987   2.218 -0.4080  0.6854 -0.3542
 1011MOL0     C36379   5.564   3.113   2.151  0.8638  0.1231 -0.1833
 1011MOL0     O36380   5.638   3.172   2.051 -0.4060  0.2897  0.2939
 1011MOL0     C36381   5.585   3.268   1.958 -1.0842  0.2352 -0.0392
 1011MOL0     C36382   5.451   3.283   1.915  0.6846 -0.2644  0.3276
 1011MOL0     C36383   5.411   3.391   1.838  0.6330  0.3360  1.5865
 1011MOL0     C36384   5.499   3.499   1.812 -0.7853  0.6688  0.8557
 1011MOL0     O36385   5.461   3.606   1.735 -0.2218 -0.6596 -0.2529
 1011MOL0     C36386   5.528   3.736   1.774  0.7366 -0.2361 -0.1282
 1011MOL0     C36387   5.418   3.826   1.821  0.1477 -1.3932  0.7472
 1011MOL0     C36388   5.466   3.963   1.891  0.5764 -0.1731  0.0063
 1011MOL0     C36389   5.354   4.026   1.991 -1.4083 -0.6188  0.0549
 1011MOL0     C36390   5.426   4.118   2.094 -0.3179  0.4095 -0.2094
 1011MOL0     C36391   5.481   4.251   2.036  0.2767  0.1414  0.3361
 1011MOL0     C36392   5.348   4.343   2.035 -0.8608  0.3895  0.8620
 1011MOL0     C36393   5.384   4.486   2.026  0.2888 -0.6616 -0.5017
 1011MOL0    Cl36394   5.243   4.578   2.066  0.2350  0.2171  0.2723
 1011MOL0     C36395   5.631   3.483   1.850 -0.8213 -0.1728 -0.0785
 1011MOL0     C36396   5.672   3.364   1.914 -0.8094 -0.3150 -0.3750
 1011MOL0     O36397   5.452   3.149   2.187  0.0523 -1.2563 -0.2782
 1011MOL0     C36398   5.696   2.893   2.162  0.4000 -0.2015 -0.0278
 1011MOL0     C36399   5.757   2.782   2.232 -0.9150 -0.6930 -0.0534
 1011MOL0     N36400   6.428   2.775   2.560  0.0543  0.9382 -0.0710
 1011MOL0     N36401   6.516   2.721   2.638 -0.2093 -0.8126 -0.0988
 1011MOL0     C36402   7.477   2.945   3.417 -0.0213 -1.1246 -0.3142
 1011MOL0     C36403   7.609   2.996   3.419  0.4892  0.1988 -0.5486
 1011MOL0     C36404   8.008   3.202   3.393 -0.8676  0.8454  0.6402
 1011MOL0     C36405   7.989   3.297   3.290 -0.1820 -0.3221  0.9214
 1011MOL0     C36406   8.098   3.380   3.264 -0.1423 -0.5180 -0.4759
 1011MOL0     C36407   8.211   3.396   3.344 -0.3236 -0.3128  0.5200
 1011MOL0     O36408   8.322   3.475   3.302  0.0535  0.3043 -0.0070
 1011MOL0     C36409   8.447   3.487   3.376  0.6042 -0.3498 -0.7486
 1011MOL0     C36410   8.553   3.580   3.318 -0.0560 -0.7937  0.1683
 1011MOL0     C36411   8.621   3.502   3.201 -0.8407 -0.0958  0.2490
 1011MOL0     C36412   8.775   3.515   3.203  0.5879  0.8333 -0.1213
 1011MOL0     C36413   8.832   3.498   3.069  0.6647  0.5095  0.6656
 1011MOL0     C36414   8.868   3.465   2.960 -0.1777 -1.0580 -0.2604
 1011MOL0     C36415   8.219   3.322   3.463  0.5215  0.0515  0.3318
 1011MOL0     C36416   8.125   3.216   3.478  0.6897  0.1165  0.6496
 1011MOL0     C36417   8.143   3.143   3.606 -0.0551 -0.5328  0.4006
 1011MOL0     H36418   7.656   3.074   3.089 -4.1682  1.9993 -1.2670
 1011MOL0     H36419   7.453   2.953   3.080 -1.2178 -2.6131 -0.0315
 1011MOL0     H36420   7.293   2.761   3.428 -1.7649 -0.6124  0.1420
 1011MOL0     H36421   7.185   2.913   3.444  0.4310  0.3562  1.2040
 1011MOL0     H36422   7.063   2.701   3.436 -1.9736  1.1242 -0.4683
 1011MOL0     H36423   7.140   2.670   3.271  0.1266  0.2134 -0.0028
 1011MOL0     H36424   7.039   2.867   3.184 -1.8312  4.4764  1.7829
 1011MOL0     H36425   6.943   2.899   3.327 -2.8832  0.4947 -1.7050
 1011MOL0     H36426   6.924   2.633   3.172 -0.0998 -2.3017  1.5117
 1011MOL0     H36427   6.839   2.688   3.315  0.6391 -0.4836 -1.1234
 1011MOL0     H36428   6.721   2.848   3.197 -0.0939 -0.3683  0.2349
 1011MOL0     H36429   6.831   2.854   3.065 -2.9382  1.2564 -0.5118
 1011MOL0     H36430   6.779   2.640   2.981 -0.6827 -0.0210 -0.2577
 1011MOL0     H36431   6.670   2.600   3.119 -0.8239  0.6239 -0.6901
 1011MOL0     H36432   6.621   2.830   2.911  0.9666  1.0502  2.7524
 1011MOL0     H36433   6.527   2.782   3.050  1.4735 -0.0866 -0.2754
 1011MOL0     H36434   6.602   2.584   2.825 -1.9336  0.8891 -2.3838
 1011MOL0     H36435   6.452   2.577   2.933  0.1698 -3.4512 -2.8144
 1011MOL0     H36436   6.262   2.752   2.851 -0.5007 -2.6299 -0.0780
 1011MOL0     H36437   6.179   2.958   2.662 -0.5211  0.9088 -0.4314
 1011MOL0     H36438   6.193   2.900   2.497 -1.5546 -3.3892 -1.9592
 1011MOL0     H36439   6.125   2.663   2.599 -1.1125 -0.5762 -0.4164
 1011MOL0     H36440   6.044   2.765   2.720  1.4422 -0.8112  0.3991
 1011MOL0     H36441   6.012   2.785   2.433 -2.4217 -1.4024 -0.5804
 1011MOL0     H36442   5.924   2.896   2.540  0.2602 -0.2654 -0.7145
 1011MOL0     H36443   5.784   2.753   2.636 -1.2897 -2.3416 -0.4210
 1011MOL0     H36444   5.895   2.614   2.608  0.7211 -0.4178 -0.8461
 1011MOL0     H36445   5.627   2.826   2.528  0.0009 -3.9966  0.0856
 1011MOL0     H36446   5.532   3.035   2.413  2.2309  0.7067 -0.1847
 1011MOL0     H36447   5.377   3.205   1.931  1.0675 -1.2668 -2.2382
 1011MOL0     H36448   5.312   3.394   1.793  1.2712 -1.3924 -0.0580
 1011MOL0     H36449   5.602   3.728   1.854 -1.3971  1.3663  2.1389
 1011MOL0     H36450   5.580   3.774   1.685  1.4258  0.1041  0.4066
 1011MOL0     H36451   5.353   3.849   1.735 -1.3663 -0.5430  2.0703
 1011MOL0     H36452   5.364   3.770   1.898 -4.1226 -0.2346 -1.0575
 1011MOL0     H36453   5.540   3.928   1.964 -1.8841  0.5295  3.0930
 1011MOL0     H36454   5.495   4.047   1.828  1.3449 -0.6201 -0.2422
 1011MOL0     H36455   5.294   3.949   2.040 -0.5456 -1.4330 -0.1226
 1011MOL0     H36456   5.293   4.092   1.929  2.2867 -0.9158 -4.4715
 1011MOL0     H36457   5.499   4.058   2.148 -2.4201  1.0385  3.6721
 1011MOL0     H36458   5.352   4.134   2.172  1.4494 -2.2306  2.2011
 1011MOL0     H36459   5.569   4.290   2.088  0.3327  1.0822 -0.4476
 1011MOL0     H36460   5.514   4.224   1.936 -0.0348  3.0252 -0.6551
 1011MOL0     H36461   5.308   4.344   2.137 -0.0680  1.6733  1.1821
 1011MOL0     H36462   5.281   4.308   1.956  0.1069 -0.6966  0.5092
 1011MOL0     H36463   5.470   4.514   2.088 -0.0949 -2.6759  1.0510
 1011MOL0     H36464   5.407   4.507   1.921 -0.4321  1.6042 -0.2656
 1011MOL0     H36465   5.710   3.557   1.836 -0.9422  0.4347  2.1318
 1011MOL0     H36466   5.776   3.354   1.943  0.0448  2.9309 -1.8821
 1011MOL0     H36467   5.728   2.905   2.059  1.0146  0.3607  0.2200
 1011MOL0     H36468   5.837   2.731   2.179 -0.6720  1.1635 -1.5869
 1011MOL0     H36469   7.428   2.909   3.507 -0.1463  0.3837  0.2458
 1011MOL0     H36470   7.655   2.986   3.517 -0.8864  0.3445  0.1312
 1011MOL0     H36471   7.909   3.314   3.219 -1.7282  0.9677  2.8441
 1011MOL0     H36472   8.077   3.447   3.181  0.0646  0.3323  0.1346
 1011MOL0     H36473   8.494   3.390   3.395  0.9902  0.3799  2.5642
 1011MOL0     H36474   8.413   3.526   3.472  2.4682  2.6861 -1.2141
 1011MOL0     H36475   8.632   3.610   3.388  1.2828 -0.1629 -1.5486
 1011MOL0     H36476   8.502   3.671   3.287 -2.2298 -2.2449 -0.7329
 1011MOL0     H36477   8.575   3.525   3.105 -0.8347  0.7958  0.4487
 1011MOL0     H36478   8.614   3.394   3.218  1.4146  0.3144  6.0223
 1011MOL0     H36479   8.798   3.616   3.238  0.6374  1.6962 -2.4912
 1011MOL0     H36480   8.813   3.442   3.275  1.9188  0.4053 -1.2076
 1011MOL0     H36481   8.901   3.440   2.861 -1.6776  1.8338 -1.6104
 1011MOL0     H36482   8.307   3.333   3.526 -0.6185  2.1471  1.6976
 1011MOL0     H36483   8.244   3.155   3.647  0.5145  2.8990 -1.5688
 1011MOL0     H36484   8.063   3.174   3.672 -1.2177  2.1286 -2.0317
 1011MOL0     H36485   8.132   3.035   3.595  0.6088 -0.7886  2.0433
 1012MOL0     O36486   8.975   9.085  10.887 -0.4057 -1.0094  0.9314
 1012MOL0     C36487   9.037   9.095  10.992 -0.8114  0.3734 -0.2899
 1012MOL0     O36488   9.137   9.184  11.024  0.8472  0.1213  0.1886
 1012MOL0     C36489   9.213   9.260  10.934 -0.0689  0.5534 -1.7370
 1012MOL0     C36490   9.234   9.228  10.802 -0.9059  0.0984  0.3968
 1012MOL0     C36491   9.303   9.310  10.723  0.1587  0.1750  0.0881
 1012MOL0     C36492   9.355   9.435  10.770  0.5429 -0.0677  0.1587
 1012MOL0     O36493   9.413   9.515  10.673  0.2005  0.7991  0.3533
 1012MOL0     C36494   9.484   9.633  10.714  0.3817 -0.5897  0.9978
 1012MOL0     C36495   9.531   9.716  10.590 -0.6021 -0.8134  0.5834
 1012MOL0     C36496   9.558   9.639  10.460 -0.5002  0.0312  0.3579
 1012MOL0     C36497   9.670   9.689  10.378  0.1131  0.1761 -0.4407
 1012MOL0     C36498   9.626   9.808  10.295  0.3846  1.6875  0.3352
 1012MOL0     C36499   9.718   9.873  10.192 -0.4949  0.0845 -0.1895
 1012MOL0     C36500   9.729   9.785  10.066 -0.4694  0.4816 -0.0626
 1012MOL0     C36501   9.769   9.876   9.960 -0.8033  0.3710  0.6753
 1012MOL0     N36502   9.803   9.811   9.832 -0.0616  0.3270 -0.8321
 1012MOL0     C36503   9.718   9.785   9.726 -0.0020 -0.1839 -0.0048
 1012MOL0     C36504   9.786   9.698   9.646  0.4909 -0.3360  0.3961
 1012MOL0     C36505   9.749   9.641   9.515 -0.4484 -0.0329 -0.4045
 1012MOL0     C36506   9.656   9.510   9.522  0.5776  0.1683 -0.0346
 1012MOL0     C36507   9.513   9.536   9.567  0.0676 -0.3112  0.0615
 1012MOL0     C36508   9.433   9.416   9.586  1.2121  0.1844  0.1578
 1012MOL0     O36509   9.305   9.457   9.639  0.4128 -0.1388  0.2294
 1012MOL0     C36510   9.189   9.385   9.613  0.5488 -0.0158  0.1040
 1012MOL0     C36511   9.071   9.433   9.680  0.2516  0.3657  0.5130
 1012MOL0     C36512   8.946   9.369   9.660  0.9126  0.7236  0.5289
 1012MOL0     C36513   8.937   9.260   9.567 -0.1729  0.6884 -0.0963
 1012MOL0     C36514   8.811   9.188   9.545 -0.0672 -0.2274  0.7147
 1012MOL0     O36515   8.796   9.113   9.439 -0.0930 -0.4451 -0.7820
 1012MOL0     C36516   8.672   9.045   9.438  0.3586 -0.0124  0.4575
 1012MOL0     C36517   8.632   8.948   9.533 -0.2635  0.3750 -0.3916
 1012MOL0     C36518   8.508   8.882   9.520  0.9257 -0.4721 -0.4173
 1012MOL0     C36519   8.425   8.909   9.408  0.1100 -0.1064 -0.2371
 1012MOL0     O36520   8.303   8.847   9.395 -0.7960  0.2581 -0.2888
 1012MOL0     C36521   8.310   8.705   9.398  0.8130 -0.3025  0.0332
 1012MOL0     C36522   8.188   8.649   9.325 -0.6400 -0.3730 -0.0843
 1012MOL0     C36523   8.159   8.502   9.349  0.7452  0.5797  0.4177
 1012MOL0     C36524   8.280   8.425   9.299 -0.6279  0.2837 -0.1208
 1012MOL0     C36525   8.267   8.275   9.321  0.7029 -1.0638  0.3381
 1012MOL0     C36526   8.259   8.226   9.457  0.5372  0.3177 -0.6289
 1012MOL0     C36527   8.224   8.073   9.475  0.4561  0.2044  0.8234
 1012MOL0     C36528   8.310   7.969   9.404 -0.0362 -0.7714 -0.5427
 1012MOL0    Cl36529   8.250   7.803   9.403  0.1963  0.5740  0.0047
 1012MOL0     C36530   8.456   9.014   9.328  0.4061  0.1239 -0.5473
 1012MOL0     C36531   8.578   9.077   9.339 -0.2826  0.2469  0.3817
 1012MOL0     O36532   8.722   9.212   9.628 -0.3837 -0.8166  0.1485
 1012MOL0     C36533   9.054   9.220   9.497 -0.4769 -0.5752  0.1613
 1012MOL0     C36534   9.173   9.288   9.511  0.6423  0.5224 -0.3675
 1012MOL0     N36535   9.915   9.679   9.705  0.5013  0.1773  0.6447
 1012MOL0     N36536   9.928   9.757   9.801  0.0479 -0.4499 -0.0258
 1012MOL0     C36537   9.341   9.466  10.903  0.1387 -0.4646 -0.1158
 1012MOL0     C36538   9.272   9.375  10.983  0.1471  0.2594  0.1402
 1012MOL0     C36539   8.987   9.019  11.104  1.1887  0.5702  0.7485
 1012MOL0     C36540   8.934   9.090  11.214 -0.6946 -0.5309  0.1890
 1012MOL0     C36541   8.876   9.025  11.323 -0.8605 -0.7747  0.1205
 1012MOL0     C36542   8.868   8.884  11.334  0.0977 -1.0731  0.0032
 1012MOL0     O36543   8.802   8.826  11.450 -1.2015 -0.2934 -0.0656
 1012MOL0     C36544   8.757   8.696  11.439  0.6627  0.8467  0.2974
 1012MOL0     C36545   8.630   8.697  11.344  0.9949 -1.2711  0.8779
 1012MOL0     C36546   8.552   8.568  11.348  0.0472  0.6034 -0.4557
 1012MOL0     C36547   8.424   8.567  11.266 -1.0879  0.0511 -0.0975
 1012MOL0     C36548   8.445   8.486  11.145 -0.2894  0.6143 -0.2741
 1012MOL0     C36549   8.458   8.415  11.046  0.3915  0.1048  0.6608
 1012MOL0     C36550   8.916   8.814  11.222 -0.1264  0.1538  0.9387
 1012MOL0     C36551   8.979   8.876  11.108  0.2018 -0.6478  0.5885
 1012MOL0     C36552   9.037   8.796  10.995  0.2203 -0.0125 -0.0170
 1012MOL0     H36553   9.204   9.130  10.766 -4.9977  1.5585 -0.7479
 1012MOL0     H36554   9.308   9.276  10.620 -1.3006 -2.2584  0.7387
 1012MOL0     H36555   9.422   9.705  10.767  0.2566 -0.3385  0.5154
 1012MOL0     H36556   9.574   9.618  10.774  0.4180  0.8376  1.3194
 1012MOL0     H36557   9.619   9.767  10.630 -1.2310 -0.3814  1.4583
 1012MOL0     H36558   9.451   9.785  10.560 -0.4384 -0.0737  1.7666
 1012MOL0     H36559   9.464   9.633  10.404 -1.0118  0.9111  1.0870
 1012MOL0     H36560   9.584   9.535  10.482 -3.7835 -0.7130  1.3124
 1012MOL0     H36561   9.760   9.709  10.437 -1.3349 -0.6521  2.2345
 1012MOL0     H36562   9.686   9.602  10.314 -1.0527 -0.7765  0.5047
 1012MOL0     H36563   9.534   9.772  10.248 -0.0760  3.0439  0.1583
 1012MOL0     H36564   9.590   9.879  10.369 -3.4434 -0.1330  0.4706
 1012MOL0     H36565   9.673   9.968  10.164 -0.0416 -0.2374 -2.1330
 1012MOL0     H36566   9.814   9.885  10.244  1.1975  1.0611 -3.2646
 1012MOL0     H36567   9.634   9.736  10.042  0.1113 -0.3423 -0.7331
 1012MOL0     H36568   9.810   9.712  10.073  0.1765  1.3537  2.9593
 1012MOL0     H36569   9.680   9.936   9.939  0.1340  0.5615 -3.6867
 1012MOL0     H36570   9.854   9.940   9.985  0.6541 -1.2622  0.1131
 1012MOL0     H36571   9.614   9.817   9.718  0.0165 -0.4114 -1.4426
 1012MOL0     H36572   9.693   9.718   9.461 -2.7004  1.9728  4.2151
 1012MOL0     H36573   9.845   9.604   9.476 -0.7259 -0.4232 -0.7267
 1012MOL0     H36574   9.648   9.459   9.426 -1.9807 -1.8886  1.1672
 1012MOL0     H36575   9.708   9.453   9.599 -1.4221  1.9310  2.8237
 1012MOL0     H36576   9.471   9.608   9.496  0.7809  3.0033  2.7559
 1012MOL0     H36577   9.501   9.572   9.670 -2.9358  1.3964 -0.7450
 1012MOL0     H36578   9.481   9.345   9.653  0.1182 -2.4116 -1.6108
 1012MOL0     H36579   9.418   9.353   9.497 -1.9508 -0.0337  0.7108
 1012MOL0     H36580   9.072   9.516   9.751  1.0147  1.4510 -0.7312
 1012MOL0     H36581   8.850   9.391   9.707 -0.0345  1.0918 -1.4487
 1012MOL0     H36582   8.698   8.934   9.618 -1.8645 -2.9115  0.4661
 1012MOL0     H36583   8.475   8.812   9.597 -1.1454 -0.0799 -0.8758
 1012MOL0     H36584   8.404   8.670   9.353  1.6771 -0.1777  1.6664
 1012MOL0     H36585   8.318   8.675   9.503  1.0607 -1.0408 -0.1845
 1012MOL0     H36586   8.098   8.698   9.364  0.0101 -0.4322  1.5887
 1012MOL0     H36587   8.194   8.686   9.222 -1.5951 -3.4949 -1.3780
 1012MOL0     H36588   8.139   8.485   9.455  0.9331  0.9592  0.5165
 1012MOL0     H36589   8.065   8.483   9.296 -1.9117 -2.6679  5.5245
 1012MOL0     H36590   8.362   8.457   9.364 -1.5439 -1.2587  1.9044
 1012MOL0     H36591   8.308   8.448   9.196  1.3222  2.8984  0.8947
 1012MOL0     H36592   8.334   8.216   9.257 -1.2261  0.2322 -3.1355
 1012MOL0     H36593   8.175   8.246   9.269  1.2748  1.2944 -2.2393
 1012MOL0     H36594   8.354   8.256   9.503  0.7839 -2.0631  0.5687
 1012MOL0     H36595   8.177   8.277   9.508  1.0863 -0.0827  0.6943
 1012MOL0     H36596   8.123   8.052   9.440  1.8785 -0.1978 -3.6040
 1012MOL0     H36597   8.230   8.053   9.583 -0.1589 -0.0760  0.8100
 1012MOL0     H36598   8.326   7.990   9.298  1.7409 -1.1054 -0.3590
 1012MOL0     H36599   8.404   7.967   9.460 -2.3700  1.4263  4.0307
 1012MOL0     H36600   8.387   9.040   9.248  1.7074 -1.1247 -2.1652
 1012MOL0     H36601   8.609   9.155   9.270 -0.1655 -1.8007 -2.0421
 1012MOL0     H36602   9.045   9.151   9.414 -4.8394  1.0341 -0.9976
 1012MOL0     H36603   9.251   9.276   9.436 -2.0761  0.7816 -3.4809
 1012MOL0     H36604   9.378   9.552  10.958  1.3434 -0.2924 -1.1389
 1012MOL0     H36605   9.247   9.398  11.086 -0.1713 -1.8338  0.5764
 1012MOL0     H36606   8.947   9.198  11.211  2.7201 -0.8764 -1.7101
 1012MOL0     H36607   8.839   9.092  11.400 -1.6062  1.0392 -1.7163
 1012MOL0     H36608   8.721   8.667  11.538 -0.7730  2.2882  0.2338
 1012MOL0     H36609   8.829   8.621  11.404  1.9380  2.0481  0.2901
 1012MOL0     H36610   8.654   8.721  11.240  1.8759  0.5471  1.4542
 1012MOL0     H36611   8.556   8.767  11.384 -0.5607 -2.9897  1.1352
 1012MOL0     H36612   8.528   8.544  11.453  2.7989 -0.7290 -0.0454
 1012MOL0     H36613   8.610   8.480  11.317 -1.9367 -1.2252  0.6752
 1012MOL0     H36614   8.344   8.511  11.313  0.2533 -2.8301 -1.0488
 1012MOL0     H36615   8.396   8.672  11.250  0.9942  1.0778  2.1525
 1012MOL0     H36616   8.479   8.355  10.960 -2.2695 -2.2907  1.5143
 1012MOL0     H36617   8.901   8.706  11.228  1.3875 -0.1221  0.1898
 1012MOL0     H36618   8.982   8.702  10.986  2.0320 -1.0847 -0.4833
 1012MOL0     H36619   9.020   8.849  10.901 -3.3375 -1.1705 -0.1729
 1012MOL0     H36620   9.143   8.785  11.020 -0.0316  0.3683  1.3037
 1013MOL0     O36621   6.829   3.174   3.651  0.0865 -0.2458 -0.1996
 1013MOL0     C36622   6.921   3.187   3.732 -1.1606 -0.1276  0.6516
 1013MOL0     O36623   7.043   3.245   3.708 -0.4008  0.2628 -0.5760
 1013MOL0     C36624   7.106   3.281   3.582 -0.0166 -0.2097  0.3548
 1013MOL0     C36625   7.061   3.243   3.453  0.8299 -0.4183 -0.7843
 1013MOL0     C36626   7.131   3.281   3.334  0.1129 -0.2027  0.2757
 1013MOL0     C36627   7.256   3.336   3.342  0.0580 -1.2553 -1.0556
 1013MOL0     O36628   7.312   3.367   3.222 -0.1044 -0.8351 -0.8932
 1013MOL0     C36629   7.449   3.430   3.228  0.1596  0.6814 -0.1035
 1013MOL0     C36630   7.472   3.463   3.082  0.2097  0.6138  0.5359
 1013MOL0     C36631   7.587   3.566   3.077  0.6436  0.6982  0.0611
 1013MOL0     C36632   7.642   3.579   2.942 -0.6402 -0.5448  0.1290
 1013MOL0     C36633   7.738   3.697   2.934  0.1860  0.7858  0.1310
 1013MOL0     C36634   7.808   3.713   2.801 -0.0810  0.2518  0.1973
 1013MOL0     C36635   7.887   3.597   2.758  0.2108 -0.0509 -0.7404
 1013MOL0     C36636   7.992   3.538   2.855  0.4936 -0.0787  0.1882
 1013MOL0     N36637   8.106   3.625   2.888  0.1557 -0.0234 -0.0056
 1013MOL0     C36638   8.183   3.708   2.805 -0.4030  0.0552  0.1309
 1013MOL0     C36639   8.257   3.786   2.887 -0.2759 -0.2197 -0.4959
 1013MOL0     C36640   8.351   3.896   2.851 -1.0652  0.3547  0.5695
 1013MOL0     C36641   8.502   3.850   2.842 -0.5092 -0.3952  0.5064
 1013MOL0     C36642   8.570   3.831   2.982 -0.7567  0.2061 -0.1599
 1013MOL0     C36643   8.714   3.824   2.970 -0.0525 -0.5960  0.1453
 1013MOL0     O36644   8.769   3.943   2.901  0.3080  0.4913 -0.7718
 1013MOL0     C36645   8.888   3.935   2.838 -0.0769 -1.3385  0.3549
 1013MOL0     C36646   8.913   4.027   2.734  0.5791 -0.4473 -0.1164
 1013MOL0     C36647   9.038   4.049   2.679 -0.4726  0.0920 -0.2991
 1013MOL0     C36648   9.136   3.960   2.704 -0.7793 -0.4072 -0.5607
 1013MOL0     C36649   9.268   3.957   2.628 -0.9758 -0.2362 -0.0004
 1013MOL0     O36650   9.381   3.907   2.697 -0.5011 -0.4675 -0.9508
 1013MOL0     C36651   9.495   3.854   2.635  0.4313  0.0886 -0.5507
 1013MOL0     C36652   9.524   3.849   2.493  0.5296 -0.5290  0.3681
 1013MOL0     C36653   9.641   3.785   2.441 -0.8345 -0.3225 -0.0976
 1013MOL0     C36654   9.732   3.731   2.530 -0.2407  0.6987  0.4367
 1013MOL0     O36655   9.853   3.674   2.492  0.5024  0.8363 -0.1119
 1013MOL0     C36656   9.864   3.605   2.365 -0.3562 -0.7809 -0.6420
 1013MOL0     C36657   9.992   3.529   2.365  0.2142 -0.0410  1.1194
 1013MOL0     C36658   9.988   3.421   2.476 -0.8505  0.2919  0.0972
 1013MOL0     C36659  10.091   3.308   2.484  1.0391  1.3046 -0.7631
 1013MOL0     C36660  10.130   3.271   2.627 -1.0323  0.0424  0.1738
 1013MOL0     C36661  10.029   3.255   2.738  0.1270  0.2219 -0.1273
 1013MOL0     C36662   9.953   3.123   2.712 -0.5861 -0.5606 -0.2560
 1013MOL0     C36663   9.839   3.103   2.813  1.1133  0.0278 -0.6877
 1013MOL0    Cl36664   9.703   3.216   2.779 -0.0287  0.1691  0.2600
 1013MOL0     C36665   9.706   3.736   2.666 -0.4385  0.1201 -0.4122
 1013MOL0     C36666   9.598   3.802   2.719  0.8435  0.4097  0.7408
 1013MOL0     O36667   9.258   3.996   2.510 -0.5096 -0.2747 -0.2212
 1013MOL0     C36668   9.109   3.862   2.799 -0.1788  0.0514 -0.9215
 1013MOL0     C36669   8.995   3.855   2.873 -0.2253  0.3313  0.0651
 1013MOL0     N36670   8.227   3.749   3.008 -0.4340  0.4790 -0.5155
 1013MOL0     N36671   8.155   3.640   3.015  0.4609 -0.6459 -0.0088
 1013MOL0     C36672   7.301   3.372   3.467  0.4032 -0.1049 -1.1561
 1013MOL0     C36673   7.223   3.352   3.585  0.1415 -0.4485 -0.2172
 1013MOL0     C36674   6.896   3.145   3.870  0.2297 -0.1631 -0.7921
 1013MOL0     C36675   6.825   3.026   3.886  0.4666  0.3981  0.5205
 1013MOL0     C36676   6.801   2.960   4.014 -0.6697 -0.4431 -1.1430
 1013MOL0     C36677   6.837   3.024   4.128  0.1138 -1.0006 -0.1746
 1013MOL0     O36678   6.799   2.977   4.252  0.3871 -0.3891  0.9806
 1013MOL0     C36679   6.669   2.915   4.277  0.4898  0.7149 -0.9432
 1013MOL0     C36680   6.558   3.017   4.272 -0.0539  0.4109 -0.6260
 1013MOL0     C36681   6.442   2.981   4.375  0.3428 -0.0448  0.8099
 1013MOL0     C36682   6.311   3.054   4.346  0.8125  0.3047  0.9425
 1013MOL0     C36683   6.318   3.202   4.373  0.4154  0.2834  0.2972
 1013MOL0     C36684   6.320   3.317   4.399  0.2724  0.6724 -0.7059
 1013MOL0     C36685   6.918   3.143   4.109 -0.0768  0.9031 -0.7583
 1013MOL0     C36686   6.948   3.206   3.985  0.2739  0.1919 -0.4607
 1013MOL0     C36687   7.022   3.332   3.986 -0.1546  0.1820 -0.8440
 1013MOL0     H36688   6.970   3.185   3.462  0.5591  0.2139  0.8790
 1013MOL0     H36689   7.100   3.282   3.230 -0.0021 -1.4698  0.2745
 1013MOL0     H36690   7.452   3.522   3.288 -1.4912  0.1155  0.9113
 1013MOL0     H36691   7.530   3.368   3.265  1.7859  2.1312 -1.0589
 1013MOL0     H36692   7.380   3.500   3.037 -0.2209 -0.1825  0.7434
 1013MOL0     H36693   7.512   3.373   3.034  0.2885  0.9751 -0.0828
 1013MOL0     H36694   7.670   3.533   3.140  0.5536  2.6074  1.2582
 1013MOL0     H36695   7.554   3.663   3.116 -0.9333  0.2615 -0.1177
 1013MOL0     H36696   7.677   3.486   2.898 -1.5059  0.3546 -2.6246
 1013MOL0     H36697   7.573   3.616   2.866  0.8069 -0.2937 -1.1080
 1013MOL0     H36698   7.681   3.789   2.952 -1.6369  0.1073 -1.7737
 1013MOL0     H36699   7.816   3.691   3.010  0.1365 -0.9058  0.0686
 1013MOL0     H36700   7.723   3.727   2.733 -0.7860  0.9194  1.1994
 1013MOL0     H36701   7.863   3.808   2.807 -0.8949  0.6263  2.7344
 1013MOL0     H36702   7.934   3.615   2.661  2.1117  2.3689  0.5086
 1013MOL0     H36703   7.818   3.520   2.722  1.2252 -0.0089 -2.9457
 1013MOL0     H36704   7.931   3.512   2.941 -0.3782  0.5238 -0.2306
 1013MOL0     H36705   8.015   3.441   2.810  1.4541  0.7919 -1.3059
 1013MOL0     H36706   8.177   3.726   2.698  1.1285  3.7671  0.5346
 1013MOL0     H36707   8.319   3.949   2.761  1.7961  1.6435  0.1879
 1013MOL0     H36708   8.352   3.974   2.928  0.1501  0.9718 -0.0360
 1013MOL0     H36709   8.504   3.754   2.790 -2.1231 -1.4942  2.3452
 1013MOL0     H36710   8.559   3.925   2.786 -3.1633  2.1138  0.9860
 1013MOL0     H36711   8.541   3.739   3.033  0.7185  1.3499  3.0364
 1013MOL0     H36712   8.554   3.921   3.042  0.4757  0.7136 -0.5419
 1013MOL0     H36713   8.747   3.737   2.912 -0.9236  0.5577 -2.2337
 1013MOL0     H36714   8.767   3.821   3.066  0.2917 -0.5132 -0.0365
 1013MOL0     H36715   8.838   4.090   2.687 -0.2657 -1.3257  0.0138
 1013MOL0     H36716   9.049   4.121   2.599 -0.1399 -1.5028 -1.7563
 1013MOL0     H36717   9.467   3.907   2.423 -2.6263 -1.1863  2.2029
 1013MOL0     H36718   9.664   3.793   2.335 -3.7897 -0.8466 -0.8525
 1013MOL0     H36719   9.779   3.540   2.349 -2.4878  1.9971 -1.4261
 1013MOL0     H36720   9.863   3.678   2.284  0.3871  0.7717  0.6754
 1013MOL0     H36721   9.985   3.481   2.267 -0.5755 -0.1836  1.2340
 1013MOL0     H36722  10.075   3.596   2.387 -2.3659  3.4111  1.1863
 1013MOL0     H36723   9.981   3.479   2.569 -1.0904 -0.7886  0.7710
 1013MOL0     H36724   9.894   3.366   2.476  0.6275 -2.3974  0.0413
 1013MOL0     H36725  10.188   3.315   2.434  3.1510 -2.6219  2.1647
 1013MOL0     H36726  10.039   3.223   2.438  0.6522  1.1620 -0.0799
 1013MOL0     H36727  10.194   3.355   2.656 -1.6036  0.8346 -0.7835
 1013MOL0     H36728  10.191   3.181   2.629 -2.6614 -1.6191 -5.7318
 1013MOL0     H36729  10.084   3.251   2.833  1.7325 -0.9401 -1.0325
 1013MOL0     H36730   9.960   3.336   2.760 -0.2292  0.5164 -2.1087
 1013MOL0     H36731  10.027   3.044   2.726 -0.4364 -0.2626  0.7217
 1013MOL0     H36732   9.913   3.114   2.610  2.4076 -1.2427 -1.4586
 1013MOL0     H36733   9.797   3.002   2.806  0.1105  0.3542  0.3737
 1013MOL0     H36734   9.881   3.120   2.913  2.5006  0.6850 -1.3462
 1013MOL0     H36735   9.779   3.683   2.725 -0.7544 -0.8882 -0.9110
 1013MOL0     H36736   9.580   3.818   2.824  2.9452 -2.5298  1.6941
 1013MOL0     H36737   9.188   3.791   2.818  1.9725  2.5977  0.2913
 1013MOL0     H36738   8.993   3.778   2.950  1.0053  0.6532  0.4493
 1013MOL0     H36739   7.394   3.425   3.484 -1.1310  2.0479  1.3064
 1013MOL0     H36740   7.266   3.392   3.676  1.1064  1.1337 -1.3174
 1013MOL0     H36741   6.792   2.962   3.805  1.5562  1.0058 -0.4255
 1013MOL0     H36742   6.762   2.859   4.022  0.6865 -1.0153 -1.6056
 1013MOL0     H36743   6.677   2.860   4.371  2.4919  1.8245 -0.4118
 1013MOL0     H36744   6.653   2.837   4.202 -0.1973  0.4321 -0.5199
 1013MOL0     H36745   6.515   3.009   4.172  0.5571  1.5447 -0.9922
 1013MOL0     H36746   6.590   3.122   4.279  1.0190  0.0906 -0.5340
 1013MOL0     H36747   6.485   3.012   4.471 -0.0321  1.9805  0.3763
 1013MOL0     H36748   6.424   2.874   4.384  0.6832 -0.1674  0.1060
 1013MOL0     H36749   6.267   3.045   4.246  0.8425  0.1930  0.9397
 1013MOL0     H36750   6.232   3.011   4.408 -0.0167 -0.9766 -0.9080
 1013MOL0     H36751   6.312   3.420   4.427 -2.8070  0.8873 -1.9940
 1013MOL0     H36752   6.944   3.200   4.199  0.1128 -1.3162  0.6629
 1013MOL0     H36753   7.131   3.320   3.996 -0.5252 -1.1480  3.7307
 1013MOL0     H36754   6.980   3.381   3.898  2.1898  0.3209 -1.9562
 1013MOL0     H36755   6.987   3.387   4.074 -1.0617  0.9415 -1.6633
 1014MOL0     O36756   6.741   5.445  10.230  0.7620  0.1099  0.8480
 1014MOL0     C36757   6.840   5.444  10.297  0.1765  0.0998 -0.5331
 1014MOL0     O36758   6.923   5.333  10.305  0.2135 -0.2566 -0.3147
 1014MOL0     C36759   6.904   5.235  10.211  0.2678  0.4863 -0.0998
 1014MOL0     C36760   6.864   5.103  10.256 -0.1990 -0.7031  0.2106
 1014MOL0     C36761   6.857   4.986  10.170  0.1902 -0.5488 -0.3522
 1014MOL0     C36762   6.868   5.016  10.031 -0.6475  0.5790 -0.0181
 1014MOL0     O36763   6.826   4.921   9.944 -0.7576  0.2567  1.1333
 1014MOL0     C36764   6.894   4.796   9.958  0.5576 -1.0220  0.7873
 1014MOL0     C36765   6.849   4.704   9.844  0.5874 -0.8313 -0.1728
 1014MOL0     C36766   6.865   4.771   9.707 -0.0593  0.1093  0.0546
 1014MOL0     C36767   6.947   4.685   9.612 -0.2066  0.5854 -0.0113
 1014MOL0     C36768   6.979   4.759   9.475  0.9027 -0.0046 -1.4967
 1014MOL0     C36769   7.048   4.673   9.376 -0.5609  0.4213  1.3211
 1014MOL0     C36770   7.169   4.590   9.415  1.2076 -0.1311 -0.1576
 1014MOL0     C36771   7.227   4.522   9.293 -0.3546 -0.3878 -0.7446
 1014MOL0     N36772   7.343   4.432   9.316  0.7623  0.0181 -0.7036
 1014MOL0     C36773   7.356   4.338   9.411  0.3358 -0.3158 -0.4362
 1014MOL0     C36774   7.492   4.317   9.414  0.1443 -0.4354 -0.1117
 1014MOL0     C36775   7.574   4.247   9.515  0.0542  0.4167  0.3897
 1014MOL0     C36776   7.629   4.111   9.475 -0.2911  0.2235  0.8878
 1014MOL0     C36777   7.678   4.093   9.330  0.2431 -0.2311 -1.1055
 1014MOL0     C36778   7.815   4.138   9.305 -0.8605  0.0080  0.2391
 1014MOL0     O36779   7.915   4.052   9.356  0.6921  0.4080  0.3242
 1014MOL0     C36780   7.981   3.958   9.271  0.6379  0.7051 -0.2682
 1014MOL0     C36781   8.094   3.909   9.335  0.1564 -0.5411 -1.0417
 1014MOL0     C36782   8.188   3.832   9.269  0.7387  0.4995 -0.2703
 1014MOL0     C36783   8.166   3.799   9.133 -0.8244 -1.4369  1.3033
 1014MOL0     C36784   8.263   3.707   9.076 -0.0517  0.3945  1.3607
 1014MOL0     O36785   8.264   3.701   8.938 -0.1038 -0.5475  0.2657
 1014MOL0     C36786   8.348   3.625   8.856 -0.2639  0.1733 -0.3898
 1014MOL0     C36787   8.442   3.521   8.904  0.1826 -0.0175  0.4163
 1014MOL0     C36788   8.533   3.473   8.808  0.4708 -0.5299  0.2533
 1014MOL0     C36789   8.538   3.522   8.673  0.6490  0.2192 -0.9666
 1014MOL0     O36790   8.628   3.475   8.577  0.2448 -0.0810 -0.6438
 1014MOL0     C36791   8.638   3.334   8.583  0.1335  0.1411 -0.0925
 1014MOL0     C36792   8.728   3.291   8.473 -0.1882  0.5342  0.0258
 1014MOL0     C36793   8.662   3.262   8.338 -0.3625  0.6384  0.0633
 1014MOL0     C36794   8.764   3.245   8.231  0.0005 -0.0176  0.0398
 1014MOL0     C36795   8.690   3.182   8.112 -0.5676 -0.2049  0.0309
 1014MOL0     C36796   8.799   3.169   8.002  0.5232 -0.0520  0.0399
 1014MOL0     C36797   8.853   3.292   7.947 -0.5693  0.0953  0.1246
 1014MOL0     C36798   8.947   3.279   7.825 -0.0501  0.3266 -0.0479
 1014MOL0    Cl36799   9.107   3.206   7.879  0.4553 -0.3847 -0.0660
 1014MOL0     C36800   8.456   3.626   8.642  0.2610  1.2317  0.8492
 1014MOL0     C36801   8.362   3.672   8.733  0.1588 -0.3185  0.5569
 1014MOL0     O36802   8.329   3.632   9.152  0.5359 -0.8347 -0.4297
 1014MOL0     C36803   8.044   3.845   9.070  0.1851  0.5220  0.4314
 1014MOL0     C36804   7.948   3.914   9.136  0.0933  0.1275 -1.0002
 1014MOL0     N36805   7.546   4.375   9.296  0.9611 -0.5302 -0.0358
 1014MOL0     N36806   7.453   4.438   9.243 -0.4883  0.0567  0.8675
 1014MOL0     C36807   6.902   5.147   9.993 -0.1830 -0.0835 -0.0810
 1014MOL0     C36808   6.916   5.257  10.080 -1.2123  0.1723 -0.3475
 1014MOL0     C36809   6.875   5.567  10.362 -0.2094 -0.1989 -0.9736
 1014MOL0     C36810   6.993   5.559  10.439 -0.2150  0.2937  0.9567
 1014MOL0     C36811   7.045   5.662  10.512  0.5193  0.6406  0.5473
 1014MOL0     C36812   6.970   5.780  10.515  0.1510 -0.1504  0.2413
 1014MOL0     O36813   7.021   5.900  10.559  0.2412 -0.8352  0.3937
 1014MOL0     C36814   7.091   5.904  10.687 -0.2532 -0.0890 -0.9329
 1014MOL0     C36815   7.085   6.052  10.735  0.0918  0.1026  0.0008
 1014MOL0     C36816   7.161   6.060  10.865 -0.4876 -0.6771  0.3368
 1014MOL0     C36817   7.158   6.202  10.916 -0.0455 -0.5893  0.0002
 1014MOL0     C36818   7.024   6.251  10.965 -0.6505 -0.5497  0.2327
 1014MOL0     C36819   6.914   6.286  11.015  0.5049 -0.4571 -0.4228
 1014MOL0     C36820   6.846   5.782  10.445 -0.2396 -0.8247  0.0107
 1014MOL0     C36821   6.798   5.679  10.368  0.4913 -0.0206 -0.1273
 1014MOL0     C36822   6.650   5.694  10.315 -0.4850  1.4183 -0.3898
 1014MOL0     H36823   6.839   5.089  10.360 -1.1158  0.7651  0.2158
 1014MOL0     H36824   6.835   4.892  10.219  1.5669 -1.6891 -1.8244
 1014MOL0     H36825   7.003   4.806   9.952  0.3938  0.6298  0.2486
 1014MOL0     H36826   6.871   4.756  10.058  0.0285  1.2025  1.6251
 1014MOL0     H36827   6.744   4.681   9.862 -0.6414  2.7967 -1.7964
 1014MOL0     H36828   6.909   4.612   9.853  0.0019 -1.1977  0.0036
 1014MOL0     H36829   6.927   4.861   9.721  0.5150 -0.1774 -0.5834
 1014MOL0     H36830   6.770   4.798   9.660  1.1313  1.7005 -1.5841
 1014MOL0     H36831   7.043   4.664   9.660  0.5318 -1.9478 -2.3484
 1014MOL0     H36832   6.901   4.588   9.599  4.6944 -1.8332 -1.8573
 1014MOL0     H36833   6.888   4.801   9.429 -0.0732  1.8521  1.7693
 1014MOL0     H36834   7.046   4.835   9.516  0.1725 -1.5058  3.1250
 1014MOL0     H36835   6.975   4.606   9.331  0.6577  1.2534 -2.2246
 1014MOL0     H36836   7.080   4.730   9.288  0.8646 -1.5288  0.5088
 1014MOL0     H36837   7.141   4.523   9.497 -0.9526  2.2496  1.2152
 1014MOL0     H36838   7.243   4.660   9.454  0.0309  0.9846  0.1714
 1014MOL0     H36839   7.155   4.452   9.250 -2.2936  1.5111 -0.7518
 1014MOL0     H36840   7.259   4.596   9.219  0.6618 -1.1194 -1.0472
 1014MOL0     H36841   7.284   4.303   9.483 -1.2014 -0.7965 -2.1214
 1014MOL0     H36842   7.659   4.313   9.535  1.0900  0.1003 -2.4957
 1014MOL0     H36843   7.510   4.232   9.602  2.6544 -2.5136  1.9836
 1014MOL0     H36844   7.710   4.074   9.539  2.5056 -0.6970 -2.8326
 1014MOL0     H36845   7.542   4.045   9.477  0.0678 -0.4297 -1.6452
 1014MOL0     H36846   7.610   4.153   9.268 -1.4039 -0.4608  0.4004
 1014MOL0     H36847   7.664   3.985   9.318 -0.1653 -0.2801 -0.2509
 1014MOL0     H36848   7.837   4.240   9.339  0.0848  1.3695 -3.7858
 1014MOL0     H36849   7.816   4.147   9.195 -1.3055  0.3287  0.2544
 1014MOL0     H36850   8.104   3.940   9.439 -0.2068  1.1767 -1.4765
 1014MOL0     H36851   8.279   3.812   9.325  1.3450 -1.8696 -1.9614
 1014MOL0     H36852   8.438   3.484   9.006 -0.3039 -1.4957 -0.1202
 1014MOL0     H36853   8.598   3.397   8.849  1.6933  0.6261  0.5268
 1014MOL0     H36854   8.684   3.303   8.677 -2.2233 -2.5533  0.3326
 1014MOL0     H36855   8.532   3.307   8.582 -0.3414  1.7822  1.2720
 1014MOL0     H36856   8.801   3.372   8.457 -3.3880  3.1654 -3.2005
 1014MOL0     H36857   8.775   3.203   8.517 -1.3698 -1.1801 -1.9581
 1014MOL0     H36858   8.600   3.172   8.352  1.0329 -0.3979 -0.1615
 1014MOL0     H36859   8.596   3.339   8.297  1.9768  0.6760 -4.0823
 1014MOL0     H36860   8.838   3.174   8.270  0.1134  0.9374  1.6337
 1014MOL0     H36861   8.810   3.340   8.206  0.7015 -0.6636 -1.2424
 1014MOL0     H36862   8.615   3.254   8.077  0.2627  0.9053  0.4601
 1014MOL0     H36863   8.635   3.094   8.146 -2.7028  1.9536  2.6674
 1014MOL0     H36864   8.887   3.122   8.047  1.5510  2.0333  0.3663
 1014MOL0     H36865   8.760   3.099   7.928 -5.3609 -0.8517  3.3009
 1014MOL0     H36866   8.912   3.344   8.023  2.5314 -0.8914 -1.4225
 1014MOL0     H36867   8.776   3.363   7.917  1.6684  2.6646  0.1183
 1014MOL0     H36868   8.903   3.217   7.745 -1.4238  1.7834 -0.4800
 1014MOL0     H36869   8.967   3.373   7.774  3.2986 -0.8711 -1.2330
 1014MOL0     H36870   8.472   3.672   8.545  2.0765 -1.6469 -0.3575
 1014MOL0     H36871   8.308   3.764   8.711  1.2777  0.6196  1.5948
 1014MOL0     H36872   8.017   3.825   8.966 -2.5526 -1.5178  1.4078
 1014MOL0     H36873   7.872   3.933   9.061  3.3660 -3.0042 -5.6265
 1014MOL0     H36874   6.911   5.154   9.885 -1.3408 -4.1057 -0.6333
 1014MOL0     H36875   6.940   5.355  10.040  3.4613 -0.1168  1.1414
 1014MOL0     H36876   7.063   5.476  10.435 -1.9575 -1.2070  0.7308
 1014MOL0     H36877   7.147   5.662  10.551  1.1215  3.9969 -0.7232
 1014MOL0     H36878   7.194   5.871  10.671 -0.3860 -0.5982 -0.7455
 1014MOL0     H36879   7.043   5.838  10.759 -1.0739  3.1060  1.6843
 1014MOL0     H36880   6.979   6.078  10.741 -0.0142 -0.2402 -0.2838
 1014MOL0     H36881   7.141   6.115  10.665 -0.4093 -0.0013 -0.5010
 1014MOL0     H36882   7.265   6.028  10.851 -0.0986  1.0947 -1.2092
 1014MOL0     H36883   7.114   5.995  10.939 -0.8414 -4.0452 -2.5652
 1014MOL0     H36884   7.218   6.212  11.007 -1.7442 -0.4898  1.1568
 1014MOL0     H36885   7.210   6.283  10.864 -0.3272 -1.1054 -1.1171
 1014MOL0     H36886   6.828   6.302  11.076  1.6257 -1.1875  1.4493
 1014MOL0     H36887   6.797   5.879  10.449 -0.4614 -0.7592 -2.4602
 1014MOL0     H36888   6.622   5.799  10.323 -1.2685  1.0535  3.8815
 1014MOL0     H36889   6.648   5.660  10.211  1.1868  0.5872 -0.1931
 1014MOL0     H36890   6.588   5.629  10.377  2.8958 -0.3721  1.4091
 1015MOL0     O36891   3.958  11.288   2.395 -0.5980  0.1138 -0.3232
 1015MOL0     C36892   3.992  11.249   2.287  0.1929 -0.6190  0.5200
 1015MOL0     O36893   4.093  11.299   2.233  0.1261 -0.7285 -0.0888
 1015MOL0     C36894   4.163  11.404   2.275 -0.9101  0.3392 -1.4390
 1015MOL0     C36895   4.207  11.496   2.187 -0.0015 -0.6572 -0.9294
 1015MOL0     C36896   4.289  11.606   2.213 -0.2360 -0.3322 -0.8367
 1015MOL0     C36897   4.322  11.631   2.352 -0.5211  0.2718  1.0821
 1015MOL0     O36898   4.410  11.720   2.395  0.4153 -0.1119 -1.0884
 1015MOL0     C36899   4.445  11.834   2.320 -0.2215  0.0619  0.3504
 1015MOL0     C36900   4.568  11.892   2.388  0.0191  0.4627  0.0831
 1015MOL0     C36901   4.522  11.977   2.510  0.7057 -0.4790  0.0083
 1015MOL0     C36902   4.649  12.030   2.593  0.1429  0.3767  0.9644
 1015MOL0     C36903   4.734  12.127   2.511 -0.2080 -0.8586 -0.5011
 1015MOL0     C36904   4.671  12.267   2.507 -0.6294  0.4417 -1.0575
 1015MOL0     C36905   4.735  12.351   2.397 -0.1569 -0.7061  0.4430
 1015MOL0     C36906   4.712  12.307   2.252  0.2763  0.6129  0.0023
 1015MOL0     N36907   4.797  12.378   2.154 -0.0618  0.0695 -0.3313
 1015MOL0     C36908   4.923  12.324   2.127 -0.5276 -0.4581  0.2088
 1015MOL0     C36909   4.982  12.425   2.057  0.3204  0.3014 -0.4903
 1015MOL0     C36910   5.125  12.443   2.015 -0.1760 -0.2984 -0.0997
 1015MOL0     C36911   5.146  12.360   1.880 -0.4706 -0.0917  0.3417
 1015MOL0     C36912   5.186  12.219   1.929 -0.2078  0.5597 -0.8608
 1015MOL0     C36913   5.202  12.121   1.817 -0.2775 -0.0678  0.3321
 1015MOL0     O36914   5.197  11.988   1.871 -0.0227  0.3645  0.1628
 1015MOL0     C36915   5.314  11.923   1.882  0.0256  0.0334 -0.0636
 1015MOL0     C36916   5.435  11.980   1.916 -0.0136  0.4388  0.3947
 1015MOL0     C36917   5.550  11.895   1.911  0.2957 -0.4836  0.6574
 1015MOL0     C36918   5.535  11.756   1.897 -0.5468 -1.1327 -0.0105
 1015MOL0     C36919   5.661  11.665   1.904 -0.3521 -0.2882  0.1364
 1015MOL0     O36920   5.636  11.529   1.911 -0.1707  0.2843  0.5617
 1015MOL0     C36921   5.748  11.444   1.928 -0.7648 -0.3222  0.2698
 1015MOL0     C36922   5.823  11.451   2.048 -0.1852 -0.2879 -0.6735
 1015MOL0     C36923   5.931  11.363   2.077  0.1607  0.1011 -0.5718
 1015MOL0     C36924   5.970  11.267   1.974 -0.4498  0.0652 -0.4020
 1015MOL0     O36925   6.068  11.171   1.990  1.0446 -0.2510 -0.2357
 1015MOL0     C36926   6.191  11.211   2.043  0.9867 -0.6817  0.2299
 1015MOL0     C36927   6.294  11.103   2.002  0.3426  0.1704 -0.0571
 1015MOL0     C36928   6.248  10.967   2.072 -0.4476  0.3069  0.4046
 1015MOL0     C36929   6.355  10.855   2.068  0.8123  0.4693 -0.2780
 1015MOL0     C36930   6.324  10.738   2.169 -0.6792 -0.5178  0.2891
 1015MOL0     C36931   6.208  10.656   2.108 -0.2701 -0.9054  0.6453
 1015MOL0     C36932   6.095  10.630   2.201 -0.3721  0.1913  0.4977
 1015MOL0     C36933   5.999  10.529   2.145  0.6951 -0.6643 -0.9324
 1015MOL0    Cl36934   5.884  10.485   2.276 -0.1787  0.2503 -0.1777
 1015MOL0     C36935   5.899  11.267   1.859 -0.0131 -0.1377 -0.7233
 1015MOL0     C36936   5.789  11.348   1.831  0.5783  0.7856 -0.5327
 1015MOL0     O36937   5.768  11.717   1.904 -0.2569  0.8935  0.5060
 1015MOL0     C36938   5.405  11.702   1.876 -0.7153 -0.0378 -0.2425
 1015MOL0     C36939   5.297  11.789   1.878  0.3750  0.6489  1.1129
 1015MOL0     N36940   4.884  12.522   2.031  0.0037 -0.2996  0.1453
 1015MOL0     N36941   4.776  12.498   2.099  0.9914  0.0713 -0.7143
 1015MOL0     C36942   4.282  11.537   2.444 -0.1813  0.6776 -0.1446
 1015MOL0     C36943   4.205  11.427   2.408  0.4702  0.0212 -0.5327
 1015MOL0     C36944   3.918  11.145   2.206 -0.6191  0.4794 -0.3983
 1015MOL0     C36945   3.948  11.125   2.073  0.5405  0.4676  0.5779
 1015MOL0     C36946   3.891  11.027   1.999  0.7631 -0.8457  0.3275
 1015MOL0     C36947   3.784  10.950   2.045  0.2057 -0.8288  0.6489
 1015MOL0     O36948   3.723  10.848   1.984 -0.1632  0.9564  0.1486
 1015MOL0     C36949   3.742  10.830   1.845  0.5301 -0.6070  0.5407
 1015MOL0     C36950   3.646  10.917   1.749 -0.0982 -0.0011 -1.5312
 1015MOL0     C36951   3.498  10.889   1.761  0.0875 -0.0789 -0.4508
 1015MOL0     C36952   3.419  10.959   1.882 -1.0449 -0.4235  0.4619
 1015MOL0     C36953   3.273  10.946   1.890  1.0968 -0.3330  0.3092
 1015MOL0     C36954   3.155  10.942   1.915 -0.0281  0.2627 -0.2593
 1015MOL0     C36955   3.757  10.974   2.178  0.3482  0.3712 -0.2977
 1015MOL0     C36956   3.819  11.065   2.266 -1.5285  0.4038 -0.0020
 1015MOL0     C36957   3.773  11.081   2.406 -0.1545 -0.1653 -0.6313
 1015MOL0     H36958   4.152  11.490   2.094 -2.0031 -0.0003  0.1731
 1015MOL0     H36959   4.305  11.681   2.136  0.4032  1.8454  1.3066
 1015MOL0     H36960   4.469  11.796   2.220  0.2152  1.6104 -0.1519
 1015MOL0     H36961   4.364  11.905   2.332 -1.4340 -1.1347 -0.4262
 1015MOL0     H36962   4.620  11.958   2.318  1.1780  0.2831  0.7337
 1015MOL0     H36963   4.630  11.808   2.419 -2.0009 -0.9870  0.3872
 1015MOL0     H36964   4.447  11.925   2.570 -1.0100  2.6951  0.7997
 1015MOL0     H36965   4.464  12.063   2.476  1.7570 -0.0680 -0.7956
 1015MOL0     H36966   4.620  12.070   2.690  2.7394 -0.8606  2.3477
 1015MOL0     H36967   4.717  11.955   2.633 -0.7055  0.4326  2.5955
 1015MOL0     H36968   4.830  12.124   2.564 -0.4345  0.6138  0.0199
 1015MOL0     H36969   4.760  12.086   2.412 -1.0655 -1.1119 -0.6258
 1015MOL0     H36970   4.568  12.260   2.471 -1.2601  2.1662  0.2446
 1015MOL0     H36971   4.665  12.314   2.606 -2.4107  1.2070 -1.4977
 1015MOL0     H36972   4.844  12.340   2.400  0.1283  1.2778 -1.0106
 1015MOL0     H36973   4.716  12.456   2.420  1.5488 -0.2081 -0.2485
 1015MOL0     H36974   4.736  12.203   2.229  0.3789  0.5926  0.2058
 1015MOL0     H36975   4.607  12.315   2.219  1.0521  0.5857 -2.7303
 1015MOL0     H36976   4.979  12.238   2.164  2.1274  0.0458 -2.2464
 1015MOL0     H36977   5.130  12.549   1.988 -1.2916 -0.2580 -0.2084
 1015MOL0     H36978   5.197  12.411   2.090 -2.2338 -1.5037  1.4694
 1015MOL0     H36979   5.061  12.361   1.811  0.9477  1.5518 -1.5302
 1015MOL0     H36980   5.228  12.406   1.822 -2.4335  2.8537 -0.3269
 1015MOL0     H36981   5.114  12.180   2.001  1.8928 -0.7498  0.6678
 1015MOL0     H36982   5.284  12.230   1.978  0.5228  2.1130 -2.5734
 1015MOL0     H36983   5.294  12.147   1.764 -1.0105  0.1493 -0.8787
 1015MOL0     H36984   5.115  12.133   1.753 -1.1253  0.2346  1.5037
 1015MOL0     H36985   5.443  12.087   1.932 -0.4312  0.3195  1.4944
 1015MOL0     H36986   5.645  11.949   1.913 -1.6940  3.4190 -0.3581
 1015MOL0     H36987   5.787  11.519   2.125  1.9775  1.4759 -1.0962
 1015MOL0     H36988   5.987  11.366   2.170 -1.3867 -0.6942  0.4270
 1015MOL0     H36989   6.220  11.310   2.007 -0.3906 -1.0301 -2.0058
 1015MOL0     H36990   6.187  11.222   2.152 -2.0504  2.8626 -0.0610
 1015MOL0     H36991   6.293  11.097   1.892  0.4394  0.5286 -0.0792
 1015MOL0     H36992   6.392  11.134   2.038  0.0494  1.0613 -0.0004
 1015MOL0     H36993   6.235  10.991   2.178 -1.7990 -0.7919  0.5115
 1015MOL0     H36994   6.156  10.926   2.030  1.1629 -1.8136 -1.2547
 1015MOL0     H36995   6.451  10.902   2.094  3.8031 -3.9691 -2.0351
 1015MOL0     H36996   6.365  10.810   1.969  2.3787 -1.2852  0.5950
 1015MOL0     H36997   6.304  10.778   2.269 -1.9960 -1.2259  0.3247
 1015MOL0     H36998   6.423  10.691   2.171  1.8203  4.0699 -0.2129
 1015MOL0     H36999   6.162  10.712   2.026 -0.2930 -1.5471  0.2113
 1015MOL0     H37000   6.234  10.563   2.058  1.4654 -1.6669  2.8130
 1015MOL0     H37001   6.050  10.728   2.221 -0.3164  0.4252 -0.4839
 1015MOL0     H37002   6.135  10.599   2.299 -0.9600  1.1587  1.0616
 1015MOL0     H37003   5.930  10.568   2.069  1.3057  2.9065  0.1672
 1015MOL0     H37004   6.049  10.439   2.109 -1.7596 -2.3336 -0.4530
 1015MOL0     H37005   5.944  11.192   1.794  4.0796  0.5255  1.0751
 1015MOL0     H37006   5.731  11.336   1.740 -0.2873 -1.7541  0.2626
 1015MOL0     H37007   5.389  11.595   1.871 -1.3361 -0.2394  3.2530
 1015MOL0     H37008   5.194  11.754   1.870  0.9437 -1.1921  1.5136
 1015MOL0     H37009   4.308  11.540   2.550 -3.0161 -0.8001  0.7157
 1015MOL0     H37010   4.173  11.360   2.486 -0.4810 -0.1505 -1.0614
 1015MOL0     H37011   4.005  11.196   2.014  1.4218 -0.0586  0.7897
 1015MOL0     H37012   3.930  11.018   1.898  1.1162 -1.9849  0.5550
 1015MOL0     H37013   3.717  10.727   1.820 -2.0532 -0.8251  3.4628
 1015MOL0     H37014   3.849  10.827   1.825  0.8760 -1.3291  2.3363
 1015MOL0     H37015   3.680  10.896   1.647 -0.2029 -1.7558 -1.2425
 1015MOL0     H37016   3.651  11.020   1.785 -1.1067 -1.1086  2.2793
 1015MOL0     H37017   3.480  10.782   1.773  1.2586 -0.2847 -0.4628
 1015MOL0     H37018   3.461  10.926   1.665 -0.9541  2.2013  0.7249
 1015MOL0     H37019   3.463  10.928   1.977  1.0386 -0.7960 -0.5712
 1015MOL0     H37020   3.451  11.063   1.887  0.2945 -0.8258  0.7603
 1015MOL0     H37021   3.050  10.935   1.934  0.0222 -0.5863 -0.2485
 1015MOL0     H37022   3.674  10.920   2.221 -1.0339  1.4327 -1.5224
 1015MOL0     H37023   3.720  10.994   2.447  1.1714 -0.0199  1.5668
 1015MOL0     H37024   3.857  11.092   2.476 -0.3622  4.0887 -0.8142
 1015MOL0     H37025   3.704  11.166   2.410  0.4055  0.2564  0.6264
 1016MOL0     O37026   7.806   9.785   4.219 -0.4175  0.3493  0.0801
 1016MOL0     C37027   7.855   9.751   4.328  1.0944 -0.1901  0.1850
 1016MOL0     O37028   7.968   9.798   4.386  0.1346 -0.4681  0.1379
 1016MOL0     C37029   8.062   9.889   4.339 -0.3428  0.5393 -0.2381
 1016MOL0     C37030   8.156   9.941   4.429  0.4643 -0.4870  0.7776
 1016MOL0     C37031   8.246  10.048   4.409  0.2338 -1.2328 -0.4578
 1016MOL0     C37032   8.250  10.105   4.279  0.1724 -0.3390  0.4881
 1016MOL0     O37033   8.331  10.210   4.235 -0.7858  0.4039 -0.6110
 1016MOL0     C37034   8.440  10.250   4.324  0.4157  0.1640 -0.4530
 1016MOL0     C37035   8.568  10.166   4.327 -0.7173 -0.6001  0.6247
 1016MOL0     C37036   8.690  10.208   4.240  0.1402  0.2985 -0.0075
 1016MOL0     C37037   8.651  10.190   4.089  0.7149 -0.7600  0.4511
 1016MOL0     C37038   8.767  10.232   3.995 -0.6059 -0.7851 -0.4557
 1016MOL0     C37039   8.786  10.393   3.996  0.6408 -0.1536  0.0628
 1016MOL0     C37040   8.886  10.434   3.882 -0.5452 -0.3954  0.5385
 1016MOL0     C37041   8.829  10.519   3.772 -0.4288 -0.5023  0.9776
 1016MOL0     N37042   8.734  10.628   3.813  0.4792 -0.3397  0.3364
 1016MOL0     C37043   8.634  10.676   3.725  1.0430 -0.0917  0.0462
 1016MOL0     C37044   8.587  10.788   3.785  0.4342 -0.5222  0.0785
 1016MOL0     C37045   8.483  10.894   3.735  0.0804 -0.2276 -0.7835
 1016MOL0     C37046   8.550  11.001   3.648 -0.8529  0.4218 -0.1095
 1016MOL0     C37047   8.442  11.103   3.590  0.8152 -0.0906  0.0095
 1016MOL0     C37048   8.490  11.259   3.593 -0.2474 -0.2987  0.3685
 1016MOL0     O37049   8.605  11.269   3.515 -0.2260 -0.0168  0.1972
 1016MOL0     C37050   8.649  11.394   3.476 -0.3070 -0.1534 -0.3732
 1016MOL0     C37051   8.777  11.392   3.433  0.0133 -0.5021 -0.0439
 1016MOL0     C37052   8.838  11.510   3.396  0.2505 -0.6590 -0.6132
 1016MOL0     C37053   8.771  11.624   3.383  0.7591  0.0279 -0.1570
 1016MOL0     C37054   8.840  11.741   3.315  0.4622  0.3142 -0.3052
 1016MOL0     O37055   8.768  11.852   3.320 -0.0164  0.0936  0.2833
 1016MOL0     C37056   8.827  11.974   3.301 -0.0837  0.7436 -0.0812
 1016MOL0     C37057   8.951  12.001   3.341  1.0992 -0.5881 -0.1979
 1016MOL0     C37058   9.005  12.134   3.329  0.1937 -0.8344 -0.4357
 1016MOL0     C37059   8.927  12.229   3.260 -0.0910 -0.5207  0.0579
 1016MOL0     O37060   8.956  12.363   3.229  0.1548  0.0673  0.1757
 1016MOL0     C37061   9.082  12.412   3.258  0.1906 -0.3857  0.7547
 1016MOL0     C37062   9.092  12.475   3.402  0.5708 -0.2982 -0.5632
 1016MOL0     C37063   9.234  12.504   3.449  0.0938  0.5597  0.3345
 1016MOL0     C37064   9.328  12.386   3.461 -0.0085  0.6667 -0.3455
 1016MOL0     C37065   9.459  12.425   3.513  0.0704  1.2498 -0.5197
 1016MOL0     C37066   9.535  12.301   3.558 -0.3855  0.8966  0.3685
 1016MOL0     C37067   9.683  12.321   3.605  0.2194  0.1145  0.0340
 1016MOL0     C37068   9.692  12.449   3.687  0.5934 -0.5942  0.6741
 1016MOL0    Cl37069   9.846  12.477   3.782 -0.1223  0.1198 -0.2551
 1016MOL0     C37070   8.802  12.198   3.223  0.2907  0.0897 -0.4032
 1016MOL0     C37071   8.757  12.066   3.238 -0.6046  0.2935  0.2329
 1016MOL0     O37072   8.941  11.723   3.248 -0.2395  0.1740 -0.4890
 1016MOL0     C37073   8.627  11.624   3.431 -0.9322 -0.0136 -0.2387
 1016MOL0     C37074   8.573  11.514   3.484  0.2937 -0.2895 -0.0058
 1016MOL0     N37075   8.666  10.808   3.904  0.4201 -0.9080  0.5344
 1016MOL0     N37076   8.746  10.705   3.920 -0.7128 -0.5733  0.1517
 1016MOL0     C37077   8.168  10.044   4.182 -0.1169 -0.3108  0.6124
 1016MOL0     C37078   8.071   9.944   4.214  0.1037 -0.1332 -0.9630
 1016MOL0     C37079   7.768   9.660   4.405  0.6660  0.4826 -0.0537
 1016MOL0     C37080   7.748   9.707   4.534 -0.3963 -0.4482 -0.1267
 1016MOL0     C37081   7.689   9.631   4.633  0.0855  0.0487 -0.2376
 1016MOL0     C37082   7.640   9.506   4.608  0.5828  0.6099 -0.0047
 1016MOL0     O37083   7.589   9.439   4.718 -0.2551 -0.5000 -0.1639
 1016MOL0     C37084   7.519   9.311   4.694 -0.9731 -0.5605  0.2839
 1016MOL0     C37085   7.494   9.228   4.818  0.0079 -0.0992 -0.2668
 1016MOL0     C37086   7.445   9.314   4.938 -0.7402  0.6815  0.7112
 1016MOL0     C37087   7.313   9.374   4.916  0.5928 -0.4853  0.4002
 1016MOL0     C37088   7.201   9.278   4.914 -0.4712  1.3000  0.3208
 1016MOL0     C37089   7.108   9.198   4.908  0.0557 -0.0373  0.3370
 1016MOL0     C37090   7.653   9.463   4.473  0.1256 -0.0361  0.1529
 1016MOL0     C37091   7.721   9.534   4.368 -0.3790  0.9296  0.8520
 1016MOL0     C37092   7.741   9.467   4.223 -0.1985 -0.1609  0.4578
 1016MOL0     H37093   8.158   9.881   4.519 -1.3298 -4.0799 -1.3483
 1016MOL0     H37094   8.315  10.082   4.486 -0.2282 -2.3251  0.4620
 1016MOL0     H37095   8.462  10.353   4.294  1.1270  1.2445  3.2286
 1016MOL0     H37096   8.410  10.250   4.429  0.2714 -1.2175 -0.4758
 1016MOL0     H37097   8.540  10.062   4.306  1.3371 -1.1043  0.1519
 1016MOL0     H37098   8.607  10.164   4.429  2.2795  0.0534 -0.4133
 1016MOL0     H37099   8.780  10.149   4.262  2.5138  1.8777 -4.1627
 1016MOL0     H37100   8.711  10.314   4.259 -0.3975  0.5254 -0.6653
 1016MOL0     H37101   8.636  10.083   4.071  8.2709 -1.9553 -2.4364
 1016MOL0     H37102   8.560  10.250   4.082 -1.0531 -3.1370  1.5137
 1016MOL0     H37103   8.858  10.182   4.028 -0.4901 -0.6044 -0.4977
 1016MOL0     H37104   8.729  10.200   3.897 -3.1218 -0.7547  0.4517
 1016MOL0     H37105   8.687  10.430   3.969  0.6596  0.8625  1.3328
 1016MOL0     H37106   8.825  10.427   4.092 -1.2448 -0.8517  1.1367
 1016MOL0     H37107   8.934  10.343   3.844  0.1929 -0.7522  2.2238
 1016MOL0     H37108   8.967  10.487   3.933 -0.7359 -1.0081  1.5148
 1016MOL0     H37109   8.909  10.572   3.720 -0.5098 -1.9454 -0.6874
 1016MOL0     H37110   8.784  10.450   3.699  0.2033 -0.4913  0.5740
 1016MOL0     H37111   8.597  10.626   3.635 -0.3630  0.1967  0.4355
 1016MOL0     H37112   8.412  10.840   3.672  0.3576 -2.3861  0.6395
 1016MOL0     H37113   8.423  10.942   3.813 -2.8679 -1.5960 -2.0360
 1016MOL0     H37114   8.618  11.059   3.710 -0.0612 -3.9912  3.7357
 1016MOL0     H37115   8.607  10.958   3.565  1.8484  1.1319  1.2816
 1016MOL0     H37116   8.354  11.113   3.656 -0.5841 -0.5338 -1.7093
 1016MOL0     H37117   8.407  11.065   3.494 -1.1795  0.6911  0.3692
 1016MOL0     H37118   8.508  11.292   3.696  1.7599 -1.0369  0.2944
 1016MOL0     H37119   8.415  11.323   3.546  1.2567 -0.8919 -3.0869
 1016MOL0     H37120   8.834  11.301   3.424  1.6116  0.3788  0.7245
 1016MOL0     H37121   8.946  11.517   3.387  0.1712  4.0494 -0.2714
 1016MOL0     H37122   9.006  11.921   3.388  2.9647  1.1982  0.8492
 1016MOL0     H37123   9.102  12.162   3.369 -1.0276  1.0733  1.4049
 1016MOL0     H37124   9.152  12.330   3.243 -1.0362 -1.4022  0.3918
 1016MOL0     H37125   9.104  12.484   3.178 -0.5795 -1.6462 -0.6480
 1016MOL0     H37126   9.036  12.569   3.410  0.5934 -0.1462 -2.0314
 1016MOL0     H37127   9.056  12.403   3.476  2.0991 -2.3724 -1.7454
 1016MOL0     H37128   9.277  12.578   3.381  0.4635 -0.9252 -1.1203
 1016MOL0     H37129   9.221  12.542   3.550 -0.6981 -1.6553  1.1220
 1016MOL0     H37130   9.345  12.342   3.362  0.2158 -6.1003  2.1634
 1016MOL0     H37131   9.282  12.304   3.518  1.0376  1.4266  1.6895
 1016MOL0     H37132   9.444  12.499   3.592 -2.9433  3.0474 -2.5632
 1016MOL0     H37133   9.511  12.471   3.429  0.7236 -0.5992 -1.1782
 1016MOL0     H37134   9.483  12.262   3.646  1.5871  2.2022  2.2002
 1016MOL0     H37135   9.530  12.227   3.477 -3.8851 -1.1875  2.2401
 1016MOL0     H37136   9.755  12.330   3.523  1.0273 -0.8524  0.6104
 1016MOL0     H37137   9.712  12.232   3.662  2.0350 -1.0157 -2.4773
 1016MOL0     H37138   9.685  12.538   3.625  0.0958 -0.5932  0.7230
 1016MOL0     H37139   9.609  12.453   3.759  2.1155 -1.4629  2.5605
 1016MOL0     H37140   8.737  12.264   3.166 -1.8944 -2.4033 -1.0312
 1016MOL0     H37141   8.658  12.033   3.205 -0.0386 -1.1401 -0.0968
 1016MOL0     H37142   8.561  11.711   3.437 -0.6260  0.3068 -1.3461
 1016MOL0     H37143   8.477  11.515   3.535 -1.1050 -1.2032 -2.4316
 1016MOL0     H37144   8.153  10.076   4.080 -5.0971 -1.7717  0.5883
 1016MOL0     H37145   8.014   9.906   4.130  1.2058 -1.3487 -1.1958
 1016MOL0     H37146   7.793   9.801   4.567 -3.1450  0.0954  2.5800
 1016MOL0     H37147   7.684   9.672   4.733  1.5846 -0.5202  0.1020
 1016MOL0     H37148   7.586   9.257   4.626 -0.0556 -1.3153  1.7096
 1016MOL0     H37149   7.426   9.340   4.646  0.6248  0.4182 -2.4021
 1016MOL0     H37150   7.587   9.175   4.842  1.0552 -0.2511 -3.9733
 1016MOL0     H37151   7.418   9.152   4.797  1.2383 -1.1047 -1.3033
 1016MOL0     H37152   7.520   9.393   4.948 -0.1091 -0.0113  1.6235
 1016MOL0     H37153   7.436   9.253   5.028 -1.2073  1.9550  1.5549
 1016MOL0     H37154   7.289   9.439   5.001 -2.7077  0.6475 -1.2095
 1016MOL0     H37155   7.312   9.427   4.821 -1.2328 -0.6863  0.2717
 1016MOL0     H37156   7.035   9.123   4.886  0.8554 -2.0702  3.8825
 1016MOL0     H37157   7.629   9.361   4.444 -0.6658  0.8300 -2.4254
 1016MOL0     H37158   7.646   9.458   4.169 -1.4578 -0.2112  2.5562
 1016MOL0     H37159   7.814   9.528   4.170  0.7497 -1.6805 -0.0437
 1016MOL0     H37160   7.784   9.366   4.227  1.0268  0.2393 -1.3266
 1017MOL0     O37161   3.443   0.137   2.660  0.0840  0.2080 -1.1048
 1017MOL0     C37162   3.506   0.128   2.558  0.3448 -0.7820  0.7706
 1017MOL0     O37163   3.561   0.015   2.510  0.7036  0.4355 -0.2657
 1017MOL0     C37164   3.524  -0.100   2.574  0.3223  0.0588 -0.7119
 1017MOL0     C37165   3.617  -0.197   2.612  0.1118 -0.5293  0.0765
 1017MOL0     C37166   3.575  -0.315   2.663  0.5089 -0.2417  0.7000
 1017MOL0     C37167   3.445  -0.342   2.694  0.0616 -1.4178 -1.3644
 1017MOL0     O37168   3.397  -0.455   2.747  0.6237 -0.3112  0.0444
 1017MOL0     C37169   3.467  -0.577   2.706  0.1971  0.5324  0.4178
 1017MOL0     C37170   3.465  -0.601   2.551  0.1614  0.3526 -0.6306
 1017MOL0     C37171   3.327  -0.656   2.513 -0.6608  0.5003  0.0744
 1017MOL0     C37172   3.329  -0.696   2.368 -1.2326 -0.6954  0.0168
 1017MOL0     C37173   3.195  -0.728   2.298  0.8390  0.0402 -0.5609
 1017MOL0     C37174   3.137  -0.872   2.323  0.0871 -0.1460  0.1919
 1017MOL0     C37175   3.006  -0.902   2.246 -0.0333 -0.5592 -0.4271
 1017MOL0     C37176   2.894  -0.794   2.262 -0.0412  0.3584  0.7403
 1017MOL0     N37177   2.853  -0.790   2.408  0.2683  0.3010  0.6720
 1017MOL0     C37178   2.848  -0.672   2.474 -0.4592 -0.6425 -0.3665
 1017MOL0     C37179   2.836  -0.720   2.603  0.7521  0.1651 -0.3927
 1017MOL0     C37180   2.801  -0.637   2.725 -0.3283 -0.1623  0.2793
 1017MOL0     C37181   2.901  -0.523   2.757 -0.1087  0.4947  0.3369
 1017MOL0     C37182   2.989  -0.551   2.871 -0.9338 -0.0317 -0.3872
 1017MOL0     C37183   3.071  -0.670   2.834  0.1528  0.2941  0.4826
 1017MOL0     O37184   3.121  -0.731   2.954  0.6840 -0.5830 -0.6112
 1017MOL0     C37185   3.069  -0.852   2.999 -0.3842  0.4471 -0.1131
 1017MOL0     C37186   3.147  -0.900   3.110  0.2836 -0.3030  0.1274
 1017MOL0     C37187   3.108  -1.016   3.178 -0.1022  0.0305 -0.7797
 1017MOL0     C37188   3.006  -1.105   3.134 -0.3494  0.1594  0.0586
 1017MOL0     C37189   2.985  -1.241   3.204 -0.2268 -0.6709  1.1360
 1017MOL0     O37190   2.884  -1.323   3.160  0.2687 -0.0944  0.2645
 1017MOL0     C37191   2.841  -1.432   3.230  1.3639  0.5923  0.2579
 1017MOL0     C37192   2.699  -1.426   3.280 -0.4129  0.9832  0.2380
 1017MOL0     C37193   2.656  -1.541   3.353 -0.1219 -0.7205  0.1752
 1017MOL0     C37194   2.746  -1.640   3.407  0.3574  1.1917  0.7517
 1017MOL0     O37195   2.702  -1.738   3.487 -0.4551 -0.2934  0.8061
 1017MOL0     C37196   2.769  -1.759   3.611  0.3884 -0.0954 -0.1238
 1017MOL0     C37197   2.743  -1.634   3.709 -0.9577  0.8675 -0.2907
 1017MOL0     C37198   2.592  -1.595   3.720  0.1583 -0.0353  0.9597
 1017MOL0     C37199   2.539  -1.570   3.863  0.4098  0.1076  1.0952
 1017MOL0     C37200   2.393  -1.541   3.857  0.7904  0.9511 -0.1104
 1017MOL0     C37201   2.343  -1.524   4.003 -0.3181  0.6285  0.0388
 1017MOL0     C37202   2.211  -1.593   4.014  0.1021 -0.3934 -0.2368
 1017MOL0     C37203   2.090  -1.519   3.964  0.3848  0.1210  0.1298
 1017MOL0    Cl37204   2.089  -1.501   3.791 -0.3169  0.0926 -0.2129
 1017MOL0     C37205   2.875  -1.634   3.351 -0.0000 -1.2297  0.6624
 1017MOL0     C37206   2.917  -1.542   3.256 -0.7572 -0.3521 -0.0668
 1017MOL0     O37207   3.072  -1.270   3.282  0.1162 -0.9394 -0.4205
 1017MOL0     C37208   2.948  -1.060   3.021  0.3890 -0.0197  0.0320
 1017MOL0     C37209   2.965  -0.935   2.961 -0.2709  0.3957 -0.6828
 1017MOL0     N37210   2.822  -0.851   2.616 -0.0408  0.6741 -0.5379
 1017MOL0     N37211   2.829  -0.893   2.492 -1.1052  0.5542 -0.5118
 1017MOL0     C37212   3.354  -0.245   2.656  0.3301  0.4723 -0.1082
 1017MOL0     C37213   3.386  -0.128   2.591  0.6831 -0.8160  0.0680
 1017MOL0     C37214   3.528   0.251   2.482  0.3531  1.1962 -0.4512
 1017MOL0     C37215   3.552   0.245   2.347  0.7499  1.2702 -0.0183
 1017MOL0     C37216   3.585   0.354   2.274  0.6039 -0.2207 -0.6931
 1017MOL0     C37217   3.590   0.476   2.330 -1.1937 -0.7524  0.4481
 1017MOL0     O37218   3.635   0.576   2.248 -0.5011 -0.9990  0.0950
 1017MOL0     C37219   3.651   0.717   2.293 -0.9498 -0.3103 -0.0955
 1017MOL0     C37220   3.657   0.810   2.171  0.0508 -0.0869 -0.2219
 1017MOL0     C37221   3.780   0.778   2.074 -0.5552  0.1914 -0.2194
 1017MOL0     C37222   3.919   0.799   2.147 -0.3005 -0.2063  0.8114
 1017MOL0     C37223   3.939   0.930   2.206  0.1865 -0.6402 -0.6870
 1017MOL0     C37224   3.963   1.041   2.238 -0.2131  0.1302 -1.3964
 1017MOL0     C37225   3.574   0.490   2.470  0.3855 -0.2904 -0.0153
 1017MOL0     C37226   3.545   0.378   2.547 -0.2489 -0.0922 -0.1121
 1017MOL0     C37227   3.549   0.399   2.705  0.1187 -0.3814 -0.0844
 1017MOL0     H37228   3.721  -0.184   2.583 -0.3023 -2.4626 -2.7873
 1017MOL0     H37229   3.654  -0.385   2.691  1.0263  1.2047  3.2002
 1017MOL0     H37230   3.569  -0.577   2.748 -0.4712 -1.6038  2.2112
 1017MOL0     H37231   3.412  -0.654   2.760  1.8768  0.6852  2.5293
 1017MOL0     H37232   3.542  -0.673   2.522 -1.1118 -1.3487  0.0846
 1017MOL0     H37233   3.486  -0.505   2.502  1.2466  0.2254 -0.4408
 1017MOL0     H37234   3.250  -0.580   2.528  0.2348  1.2826  0.8901
 1017MOL0     H37235   3.313  -0.750   2.566 -0.9563 -0.1761 -1.1648
 1017MOL0     H37236   3.387  -0.617   2.319 -0.3977 -0.6284  1.0679
 1017MOL0     H37237   3.404  -0.775   2.361  1.6906  1.8492  0.3937
 1017MOL0     H37238   3.125  -0.649   2.325 -1.7699 -1.4159 -2.5849
 1017MOL0     H37239   3.193  -0.712   2.189 -2.2654  2.4498 -0.2791
 1017MOL0     H37240   3.214  -0.939   2.284 -2.2443 -2.0324 -1.4490
 1017MOL0     H37241   3.114  -0.892   2.429  0.0309 -0.5720  0.1037
 1017MOL0     H37242   2.974  -1.000   2.281  0.7933 -0.7572 -0.2248
 1017MOL0     H37243   3.051  -0.919   2.148  1.5489 -2.8071  0.5997
 1017MOL0     H37244   2.933  -0.696   2.237  0.6786 -0.6034 -2.3595
 1017MOL0     H37245   2.809  -0.821   2.197  1.7410 -1.1398 -1.1320
 1017MOL0     H37246   2.854  -0.566   2.450  0.9627 -0.1640  1.7465
 1017MOL0     H37247   2.700  -0.602   2.701  1.2548  3.7878 -1.5502
 1017MOL0     H37248   2.796  -0.709   2.807  3.0274 -0.7773  0.0969
 1017MOL0     H37249   2.969  -0.502   2.674  0.3022  0.6100  0.7025
 1017MOL0     H37250   2.847  -0.432   2.783  0.5874  1.1304 -0.3999
 1017MOL0     H37251   2.931  -0.575   2.960  0.0783  0.5921  0.4759
 1017MOL0     H37252   3.052  -0.465   2.898 -1.9830  0.5435  0.3015
 1017MOL0     H37253   3.158  -0.632   2.779 -1.3037  1.0111 -1.4033
 1017MOL0     H37254   3.026  -0.745   2.768  3.2790 -0.4732 -0.9866
 1017MOL0     H37255   3.222  -0.825   3.134 -0.7599  1.1886 -1.0254
 1017MOL0     H37256   3.179  -1.039   3.257  2.5675  4.2643 -1.6446
 1017MOL0     H37257   2.633  -1.343   3.258  2.3309  2.6679 -2.3609
 1017MOL0     H37258   2.554  -1.541   3.388  0.3400  0.4575  1.6506
 1017MOL0     H37259   2.742  -1.858   3.649  3.2003 -0.8984 -0.0530
 1017MOL0     H37260   2.877  -1.765   3.602  0.4693 -1.4670  1.3468
 1017MOL0     H37261   2.781  -1.671   3.805 -0.4581 -2.6011 -1.6917
 1017MOL0     H37262   2.805  -1.548   3.683  1.8250 -0.3710  1.7860
 1017MOL0     H37263   2.579  -1.500   3.667  0.5997  0.5382  1.8621
 1017MOL0     H37264   2.533  -1.675   3.675  1.9797 -0.3334 -1.0592
 1017MOL0     H37265   2.597  -1.489   3.908  1.9083  1.0461 -2.1972
 1017MOL0     H37266   2.546  -1.664   3.919  0.1314  0.6234  2.0199
 1017MOL0     H37267   2.344  -1.622   3.802 -0.1346  0.9365  0.7033
 1017MOL0     H37268   2.374  -1.446   3.807  2.6180  1.9576  1.0107
 1017MOL0     H37269   2.412  -1.561   4.079 -0.3256  1.3661  0.4142
 1017MOL0     H37270   2.327  -1.419   4.027 -2.1830  0.2262  0.6674
 1017MOL0     H37271   2.190  -1.611   4.120 -1.7028  0.5123 -0.3926
 1017MOL0     H37272   2.202  -1.690   3.966 -1.4054 -1.0839  1.3277
 1017MOL0     H37273   1.990  -1.559   3.980  0.1892 -0.5180 -2.2807
 1017MOL0     H37274   2.096  -1.425   4.020  0.0893 -0.3714  1.0111
 1017MOL0     H37275   2.939  -1.719   3.372 -1.7384 -2.5838  0.7960
 1017MOL0     H37276   3.020  -1.532   3.227 -1.2241 -0.7014 -1.9997
 1017MOL0     H37277   2.876  -1.122   2.969  0.6053  1.5755 -2.2976
 1017MOL0     H37278   2.894  -0.918   2.881 -0.7000 -0.0849 -0.4143
 1017MOL0     H37279   3.250  -0.268   2.675  0.0065  1.3053 -0.8575
 1017MOL0     H37280   3.303  -0.074   2.547  0.3814 -0.9298  0.4884
 1017MOL0     H37281   3.529   0.161   2.283  0.0892  2.4869 -1.4428
 1017MOL0     H37282   3.609   0.357   2.168  2.6893  2.8843 -0.2865
 1017MOL0     H37283   3.737   0.723   2.360 -0.9360  0.1926 -0.1516
 1017MOL0     H37284   3.568   0.746   2.358 -1.0427  4.9131 -2.0703
 1017MOL0     H37285   3.658   0.917   2.194 -2.7408 -0.2792  1.2267
 1017MOL0     H37286   3.568   0.786   2.112 -0.5178 -0.1754  0.6510
 1017MOL0     H37287   3.775   0.856   1.997  4.1471  1.3263  0.3473
 1017MOL0     H37288   3.790   0.675   2.036  4.0774  0.9618 -1.7247
 1017MOL0     H37289   3.928   0.733   2.234 -3.0978  0.6602  1.8867
 1017MOL0     H37290   4.005   0.787   2.081 -0.0829 -1.0642  1.2411
 1017MOL0     H37291   3.978   1.137   2.282  0.7213 -0.4674 -0.3731
 1017MOL0     H37292   3.564   0.590   2.510  0.6685  0.0052 -0.6609
 1017MOL0     H37293   3.579   0.502   2.727  3.3464 -1.5028  1.3248
 1017MOL0     H37294   3.455   0.364   2.749  1.8081 -0.2422  4.1195
 1017MOL0     H37295   3.630   0.333   2.737 -1.5559 -1.5972  1.9155
 1018MOL0     O37296  10.508   7.641   5.320 -0.3435 -0.1879 -0.7101
 1018MOL0     C37297  10.515   7.761   5.349 -0.4273  0.0523  0.2248
 1018MOL0     O37298  10.582   7.853   5.261 -0.0841 -0.0313 -0.1949
 1018MOL0     C37299  10.593   7.819   5.132 -0.2620  0.3948 -0.0952
 1018MOL0     C37300  10.537   7.879   5.011  0.1226 -0.1296 -0.1890
 1018MOL0     C37301  10.592   7.859   4.891 -0.2811  0.1819  0.3203
 1018MOL0     C37302  10.698   7.770   4.876 -0.4575 -0.5481  0.3801
 1018MOL0     O37303  10.757   7.760   4.761 -0.7014 -0.5582  0.8626
 1018MOL0     C37304  10.843   7.880   4.718  0.1960 -1.1698  0.1140
 1018MOL0     C37305  10.810   7.913   4.577 -0.0404 -0.2342  0.8527
 1018MOL0     C37306  10.862   7.811   4.472 -0.0353  0.5894 -0.0358
 1018MOL0     C37307  10.839   7.658   4.515 -0.3349 -0.1695  0.2749
 1018MOL0     C37308  10.901   7.566   4.412  0.3164 -0.4942  0.1025
 1018MOL0     C37309  11.025   7.480   4.461  0.2989  0.4671 -0.3632
 1018MOL0     C37310  11.089   7.391   4.353 -0.0298  0.6237  0.5649
 1018MOL0     C37311  11.221   7.333   4.403  0.0157 -0.7726  1.0301
 1018MOL0     N37312  11.278   7.258   4.298 -1.0984  0.6304 -0.2775
 1018MOL0     C37313  11.221   7.141   4.241 -0.4692 -1.0642 -0.0718
 1018MOL0     C37314  11.304   7.111   4.136  1.0394  0.6691 -0.1957
 1018MOL0     C37315  11.292   6.968   4.083 -0.8173 -0.5466 -0.3110
 1018MOL0     C37316  11.371   6.892   4.188 -0.3471  0.5657 -1.0855
 1018MOL0     C37317  11.436   6.762   4.137 -0.0440  0.7251 -0.0569
 1018MOL0     C37318  11.395   6.691   4.003 -0.3676 -0.3544  0.3428
 1018MOL0     O37319  11.266   6.631   4.045  0.4277  0.4282 -0.0310
 1018MOL0     C37320  11.161   6.658   3.970  0.2263 -0.1824  0.3245
 1018MOL0     C37321  11.172   6.652   3.831  1.0719  0.0336  0.0642
 1018MOL0     C37322  11.060   6.668   3.748  0.6137  0.7542 -0.7367
 1018MOL0     C37323  10.930   6.705   3.808 -0.1362  0.4773 -0.7077
 1018MOL0     C37324  10.810   6.744   3.730  0.8307 -1.5706  0.2665
 1018MOL0     O37325  10.691   6.778   3.790  0.0027 -0.3778  0.5112
 1018MOL0     C37326  10.573   6.791   3.715  0.8608  0.6253 -0.1873
 1018MOL0     C37327  10.460   6.764   3.789 -1.2123 -0.4744  0.4268
 1018MOL0     C37328  10.331   6.766   3.737 -0.4853 -0.7185  0.1183
 1018MOL0     C37329  10.306   6.799   3.598  0.4942 -0.1944 -0.1994
 1018MOL0     O37330  10.174   6.789   3.555  0.2013  0.0435  0.5202
 1018MOL0     C37331  10.140   6.884   3.451  0.2459  0.4725 -1.4156
 1018MOL0     C37332  10.062   7.010   3.517  0.2768  0.0022 -0.3828
 1018MOL0     C37333   9.923   6.957   3.577 -0.1186 -1.0227  1.3146
 1018MOL0     C37334   9.858   7.053   3.673  0.2219  0.1690 -0.5338
 1018MOL0     C37335   9.745   7.139   3.625  1.0503 -0.8955  0.3219
 1018MOL0     C37336   9.709   7.257   3.717 -0.6950  0.6490 -0.1538
 1018MOL0     C37337   9.812   7.373   3.695 -1.1866  0.3415  0.3426
 1018MOL0     C37338   9.827   7.453   3.830 -0.1933 -0.5161  0.4546
 1018MOL0    Cl37339   9.678   7.510   3.906 -0.2955  0.2942  0.1799
 1018MOL0     C37340  10.416   6.812   3.525 -0.5466 -0.0614  0.2795
 1018MOL0     C37341  10.549   6.824   3.577  0.3631 -0.0701 -1.2552
 1018MOL0     O37342  10.835   6.760   3.611  0.6243 -0.3882 -0.4687
 1018MOL0     C37343  10.926   6.715   3.948 -0.2593 -0.0059 -0.0861
 1018MOL0     C37344  11.030   6.677   4.028 -0.4033 -1.0756  0.7104
 1018MOL0     N37345  11.403   7.209   4.126  0.2636  0.3768 -0.3127
 1018MOL0     N37346  11.390   7.293   4.224  0.4546  0.0813 -0.1880
 1018MOL0     C37347  10.747   7.701   4.984 -0.0652  0.4887  0.3241
 1018MOL0     C37348  10.689   7.725   5.112 -0.6282 -0.7569  0.2362
 1018MOL0     C37349  10.467   7.825   5.481 -0.7647  0.4934  0.2887
 1018MOL0     C37350  10.495   7.972   5.500  0.1112  0.6778 -0.3871
 1018MOL0     C37351  10.441   8.040   5.613  0.0797  1.2355 -0.4631
 1018MOL0     C37352  10.371   7.964   5.708  0.0345 -0.1407  1.1110
 1018MOL0     O37353  10.305   8.040   5.809  0.3939  0.5144  0.1994
 1018MOL0     C37354  10.163   8.026   5.821 -0.2801 -0.4475 -0.3293
 1018MOL0     C37355  10.106   8.121   5.918  0.0855 -0.1050 -0.2977
 1018MOL0     C37356  10.109   8.266   5.878  0.3439  0.3860 -0.3044
 1018MOL0     C37357  10.030   8.356   5.971  1.2453 -0.3470 -0.1487
 1018MOL0     C37358  10.013   8.492   5.916  0.3041  0.9832  0.1261
 1018MOL0     C37359  10.014   8.609   5.883 -0.0420  0.8681 -2.0155
 1018MOL0     C37360  10.349   7.827   5.689 -0.2002  0.1614 -0.0985
 1018MOL0     C37361  10.404   7.751   5.580  0.2297 -0.4572 -0.0913
 1018MOL0     C37362  10.381   7.610   5.582  0.5701 -0.6142  0.4365
 1018MOL0     H37363  10.469   7.962   5.025  0.9035  0.9988 -2.6180
 1018MOL0     H37364  10.542   7.907   4.807  1.3280  0.7008 -0.3817
 1018MOL0     H37365  10.821   7.958   4.792  2.8723 -0.7647  0.5943
 1018MOL0     H37366  10.946   7.848   4.734  0.8712  1.3133  1.2833
 1018MOL0     H37367  10.853   8.013   4.563 -1.9501  0.4368 -0.7397
 1018MOL0     H37368  10.701   7.922   4.572  0.0491  0.2357 -0.6693
 1018MOL0     H37369  10.970   7.827   4.470  0.7182 -3.4175  0.4651
 1018MOL0     H37370  10.817   7.846   4.379 -0.7895  2.8635  1.0961
 1018MOL0     H37371  10.870   7.634   4.617 -2.9340  3.3385  2.1279
 1018MOL0     H37372  10.734   7.629   4.505  0.3957 -3.0202  0.0451
 1018MOL0     H37373  10.819   7.497   4.392  1.2380 -1.0703 -1.9157
 1018MOL0     H37374  10.936   7.626   4.327  0.5570  1.4912  1.5344
 1018MOL0     H37375  11.111   7.539   4.492  0.3160 -0.3637  1.2984
 1018MOL0     H37376  10.983   7.420   4.542 -0.0304  0.5887 -0.4431
 1018MOL0     H37377  11.110   7.434   4.255  3.9524 -0.8538  0.5811
 1018MOL0     H37378  11.016   7.312   4.333 -0.5203  0.7748  1.6695
 1018MOL0     H37379  11.287   7.415   4.433  0.4667 -0.3374 -0.9689
 1018MOL0     H37380  11.200   7.274   4.492 -1.6301 -2.5705 -0.4473
 1018MOL0     H37381  11.143   7.082   4.289  1.2753 -0.4443  3.9104
 1018MOL0     H37382  11.190   6.937   4.057 -0.9198 -1.3555  0.9397
 1018MOL0     H37383  11.343   6.983   3.988 -1.7924  1.7213 -0.5608
 1018MOL0     H37384  11.449   6.951   4.236  1.6539 -2.8703  0.2251
 1018MOL0     H37385  11.307   6.866   4.273  0.8668  0.0683 -0.2966
 1018MOL0     H37386  11.424   6.686   4.215  1.2275  2.5603  2.0192
 1018MOL0     H37387  11.541   6.791   4.133 -0.1353  1.0988  0.1850
 1018MOL0     H37388  11.468   6.615   3.973 -2.0226 -2.0544  0.4603
 1018MOL0     H37389  11.410   6.768   3.928  3.3660 -1.2117  0.0088
 1018MOL0     H37390  11.265   6.637   3.778 -0.1962 -0.3644 -2.2049
 1018MOL0     H37391  11.072   6.659   3.641 -1.2872 -1.9851 -0.8381
 1018MOL0     H37392  10.475   6.759   3.897 -0.4393  4.3342  0.7694
 1018MOL0     H37393  10.238   6.747   3.790 -1.3009  0.0554 -0.9987
 1018MOL0     H37394  10.230   6.924   3.403  2.3294 -1.2033  0.7949
 1018MOL0     H37395  10.069   6.838   3.382 -0.0036  0.1645 -0.9618
 1018MOL0     H37396  10.110   7.068   3.597 -0.8045  0.9406 -0.3933
 1018MOL0     H37397  10.046   7.085   3.439 -0.4926  0.9937  0.6907
 1018MOL0     H37398   9.853   6.935   3.496 -0.2351  1.7970  0.5248
 1018MOL0     H37399   9.946   6.863   3.628  1.7755 -1.9150 -1.0066
 1018MOL0     H37400   9.929   7.125   3.716  0.8850  1.0811 -2.9879
 1018MOL0     H37401   9.818   6.992   3.754  0.7927  0.6315  0.1021
 1018MOL0     H37402   9.648   7.089   3.630 -1.5152  3.6285  1.0756
 1018MOL0     H37403   9.763   7.173   3.523  2.1644 -0.0294  0.7895
 1018MOL0     H37404   9.614   7.308   3.696 -0.4106  1.7342  1.0369
 1018MOL0     H37405   9.713   7.228   3.822  0.8281 -0.0829 -0.3955
 1018MOL0     H37406   9.785   7.431   3.606 -1.0695 -1.2698 -0.7937
 1018MOL0     H37407   9.908   7.334   3.660 -0.7978 -0.4247  2.1737
 1018MOL0     H37408   9.869   7.382   3.903 -0.4932 -2.3812 -1.0937
 1018MOL0     H37409   9.886   7.545   3.826 -3.3099  1.6270  0.4419
 1018MOL0     H37410  10.404   6.842   3.422 -3.1512 -1.2362  0.1593
 1018MOL0     H37411  10.625   6.861   3.509  0.3416  0.6042 -0.9166
 1018MOL0     H37412  10.840   6.755   4.000  2.6111  3.1818  2.7645
 1018MOL0     H37413  11.026   6.690   4.136  2.4664  0.5169  0.7403
 1018MOL0     H37414  10.834   7.636   4.989  2.1458  2.9645 -2.3537
 1018MOL0     H37415  10.740   7.689   5.201  1.4460  1.8946  0.2571
 1018MOL0     H37416  10.544   8.027   5.421 -2.3019  0.7844 -1.9212
 1018MOL0     H37417  10.439   8.149   5.611 -2.0374  1.2472  0.1792
 1018MOL0     H37418  10.138   7.922   5.840  0.6440 -0.2513  2.2502
 1018MOL0     H37419  10.111   8.060   5.730 -0.1579 -1.6217 -0.8501
 1018MOL0     H37420  10.154   8.122   6.016  0.8139  1.8295 -0.6345
 1018MOL0     H37421  10.001   8.093   5.928 -0.0910  0.8054  0.5404
 1018MOL0     H37422  10.052   8.285   5.786  0.9810  1.5759 -0.4704
 1018MOL0     H37423  10.211   8.301   5.861  0.9750 -1.5579 -0.7307
 1018MOL0     H37424   9.934   8.307   5.989  1.2809 -0.4624 -0.2698
 1018MOL0     H37425  10.070   8.360   6.073 -2.3375  0.5785  1.3821
 1018MOL0     H37426  10.022   8.709   5.847  3.1329  2.1727  1.6468
 1018MOL0     H37427  10.290   7.772   5.762  0.4394 -0.3513  0.0428
 1018MOL0     H37428  10.316   7.580   5.664  1.5313 -1.3684  0.9474
 1018MOL0     H37429  10.336   7.586   5.485  3.4025  0.5065 -1.2631
 1018MOL0     H37430  10.476   7.557   5.590  1.3187  0.2687 -1.7427
 1019MOL0     O37431   8.488   9.615   0.005 -0.1621  0.2679 -0.1569
 1019MOL0     C37432   8.450   9.580  -0.103  1.1975 -0.3558  0.6186
 1019MOL0     O37433   8.398   9.455  -0.132  0.7050  0.3355 -0.6605
 1019MOL0     C37434   8.420   9.339  -0.062 -0.1184  0.1415  0.1760
 1019MOL0     C37435   8.535   9.326   0.019 -0.3147  0.7236 -0.5172
 1019MOL0     C37436   8.544   9.198   0.077 -0.2603 -0.2123 -0.3390
 1019MOL0     C37437   8.455   9.086   0.046 -0.0101  0.9915  0.4567
 1019MOL0     O37438   8.445   8.963   0.109 -0.2412 -0.0712  0.8986
 1019MOL0     C37439   8.558   8.916   0.192  0.8637 -0.1266  0.1978
 1019MOL0     C37440   8.506   8.900   0.331  0.4201 -0.7961  0.1144
 1019MOL0     C37441   8.492   9.030   0.388  0.7269 -0.5537  0.2932
 1019MOL0     C37442   8.504   9.021   0.542 -0.2317 -0.2329 -0.1880
 1019MOL0     C37443   8.408   8.929   0.624 -0.1490 -0.4396 -0.1193
 1019MOL0     C37444   8.407   8.977   0.781  0.7939  0.5793  0.5303
 1019MOL0     C37445   8.339   8.866   0.875 -0.4601 -1.0484  0.7489
 1019MOL0     C37446   8.441   8.772   0.925 -0.2191  0.7284 -0.0735
 1019MOL0     N37447   8.546   8.828   1.018  0.5343 -0.5142  0.1053
 1019MOL0     C37448   8.559   8.776   1.143 -0.5271  0.0435  1.9553
 1019MOL0     C37449   8.678   8.823   1.184  0.1553  0.7324 -0.0882
 1019MOL0     C37450   8.731   8.801   1.321  0.2351 -0.3932 -0.1260
 1019MOL0     C37451   8.765   8.650   1.332  1.5246 -0.4157  0.2609
 1019MOL0     C37452   8.864   8.619   1.438  0.0861 -0.4146  0.3579
 1019MOL0     C37453   8.804   8.619   1.576 -1.6716  0.2874  0.0248
 1019MOL0     O37454   8.666   8.590   1.595 -0.2231 -0.1693  0.0854
 1019MOL0     C37455   8.645   8.464   1.644 -0.2047  1.1300 -0.3987
 1019MOL0     C37456   8.579   8.436   1.765 -0.7127 -0.1355  0.1212
 1019MOL0     C37457   8.558   8.307   1.807  1.2865  0.4770 -0.0765
 1019MOL0     C37458   8.605   8.194   1.734 -0.3335 -0.4854  0.3827
 1019MOL0     C37459   8.592   8.059   1.779 -0.0126  0.9974 -0.7286
 1019MOL0     O37460   8.666   7.966   1.711  0.2964 -0.1391  0.7838
 1019MOL0     C37461   8.650   7.832   1.735 -0.8815  0.5730  0.2475
 1019MOL0     C37462   8.765   7.762   1.798  1.0229 -0.3273  0.0323
 1019MOL0     C37463   8.758   7.625   1.819 -0.8450  0.1927  0.1116
 1019MOL0     C37464   8.643   7.542   1.776 -0.5995 -0.5893 -0.4131
 1019MOL0     O37465   8.661   7.408   1.796 -0.4610  0.5297 -1.6914
 1019MOL0     C37466   8.549   7.323   1.805  1.3086  0.3288  0.4172
 1019MOL0     C37467   8.482   7.337   1.945  0.2391 -0.5905  0.2228
 1019MOL0     C37468   8.347   7.266   1.957  0.3627 -0.8301 -0.2378
 1019MOL0     C37469   8.285   7.253   2.103 -0.3199 -0.7255  0.0827
 1019MOL0     C37470   8.191   7.134   2.125  0.6195  0.1171  0.1204
 1019MOL0     C37471   8.120   7.129   2.260 -0.6719  0.4312 -0.6082
 1019MOL0     C37472   7.999   7.227   2.256 -0.1080  1.1333  0.0152
 1019MOL0     C37473   7.951   7.232   2.402  0.1684  0.3407  0.5699
 1019MOL0    Cl37474   7.800   7.314   2.406 -0.1023 -0.4293 -0.0098
 1019MOL0     C37475   8.534   7.612   1.725  0.4673  0.1147  0.3143
 1019MOL0     C37476   8.538   7.752   1.698 -0.4889  0.9411 -0.7577
 1019MOL0     O37477   8.519   8.042   1.882  0.0927 -0.2064  0.0188
 1019MOL0     C37478   8.661   8.216   1.611  0.9522 -0.2435  0.2569
 1019MOL0     C37479   8.692   8.349   1.565  0.2307 -0.1305 -0.8799
 1019MOL0     N37480   8.749   8.883   1.076  0.5054  0.3844 -1.1151
 1019MOL0     N37481   8.670   8.875   0.977 -0.1809  0.0780  0.0558
 1019MOL0     C37482   8.349   9.113  -0.047 -0.9328  0.0957 -0.1506
 1019MOL0     C37483   8.334   9.238  -0.101 -0.8993 -0.2987  0.0028
 1019MOL0     C37484   8.433   9.682  -0.209 -0.2981  0.1096  1.0521
 1019MOL0     C37485   8.538   9.769  -0.242 -0.2582 -0.3805  0.4120
 1019MOL0     C37486   8.518   9.854  -0.347  0.1177 -0.5364 -0.1831
 1019MOL0     C37487   8.408   9.843  -0.436  0.4098  0.0183 -0.2620
 1019MOL0     O37488   8.394   9.932  -0.539 -0.3149  0.2964  0.3537
 1019MOL0     C37489   8.506   9.967  -0.612  0.0258 -0.4486 -0.5356
 1019MOL0     C37490   8.470  10.044  -0.734  0.4496 -0.3489  0.0308
 1019MOL0     C37491   8.437   9.953  -0.863  0.1661  0.6332  0.7559
 1019MOL0     C37492   8.293   9.897  -0.872 -0.2044  0.1659 -0.1003
 1019MOL0     C37493   8.195   9.994  -0.923 -0.4099  0.5216  0.8341
 1019MOL0     C37494   8.115  10.062  -0.978  0.1893  0.4697 -1.7155
 1019MOL0     C37495   8.308   9.761  -0.402  0.9753 -0.7222 -0.1814
 1019MOL0     C37496   8.308   9.682  -0.286  0.0707 -0.1155 -0.1855
 1019MOL0     C37497   8.184   9.606  -0.249  1.0750  0.1815 -0.0877
 1019MOL0     H37498   8.596   9.412   0.042  1.3148  0.9590 -4.8903
 1019MOL0     H37499   8.625   9.184   0.148  1.2895 -0.0510 -2.0188
 1019MOL0     H37500   8.585   8.813   0.167 -4.1916 -2.4876  2.8911
 1019MOL0     H37501   8.646   8.981   0.183  1.1165 -0.5417 -0.4023
 1019MOL0     H37502   8.591   8.867   0.391  0.8918  0.7591  0.3417
 1019MOL0     H37503   8.414   8.841   0.338 -0.9252  1.2654  0.8023
 1019MOL0     H37504   8.393   9.071   0.367  1.5234  0.2606 -2.3179
 1019MOL0     H37505   8.563   9.097   0.338 -0.5028  1.6395  1.2979
 1019MOL0     H37506   8.604   8.992   0.573 -0.9894 -4.6619 -1.1767
 1019MOL0     H37507   8.499   9.127   0.572  2.2309  1.3527 -4.5421
 1019MOL0     H37508   8.307   8.921   0.584  0.2551 -2.2552 -0.8708
 1019MOL0     H37509   8.452   8.829   0.621  0.4150 -0.2161  0.3716
 1019MOL0     H37510   8.501   9.000   0.832  0.9392 -2.3993  1.8139
 1019MOL0     H37511   8.350   9.070   0.788  0.6055  0.4680  0.5090
 1019MOL0     H37512   8.266   8.816   0.809 -0.5481  1.9563 -1.6617
 1019MOL0     H37513   8.283   8.910   0.958 -1.2615 -0.6145  0.0001
 1019MOL0     H37514   8.393   8.694   0.985 -1.0183  0.8318 -0.5737
 1019MOL0     H37515   8.499   8.718   0.849 -0.2693 -0.2525  0.5726
 1019MOL0     H37516   8.483   8.728   1.204 -2.0205 -1.3965 -0.8670
 1019MOL0     H37517   8.826   8.854   1.335 -2.5361  4.8148  1.8426
 1019MOL0     H37518   8.654   8.839   1.388 -0.6610 -0.3964 -1.1221
 1019MOL0     H37519   8.674   8.591   1.343  1.8007 -0.3794  3.7146
 1019MOL0     H37520   8.815   8.621   1.239  2.7032 -2.7148  1.5045
 1019MOL0     H37521   8.952   8.685   1.435 -0.2524  0.1800  2.1524
 1019MOL0     H37522   8.907   8.519   1.426 -0.6562 -0.9739  2.0393
 1019MOL0     H37523   8.825   8.716   1.621  0.6077  0.1242 -0.5890
 1019MOL0     H37524   8.871   8.549   1.627  2.2354  2.7237 -1.3233
 1019MOL0     H37525   8.529   8.515   1.820  3.4481  3.3458 -0.5468
 1019MOL0     H37526   8.508   8.299   1.903  0.5289 -0.1991 -0.5187
 1019MOL0     H37527   8.851   7.825   1.817  2.2484 -1.1290 -2.3612
 1019MOL0     H37528   8.848   7.573   1.848 -0.1952  1.6987  0.8742
 1019MOL0     H37529   8.477   7.344   1.726 -1.5583  3.1764  3.4932
 1019MOL0     H37530   8.589   7.221   1.807  1.3802  0.2787  4.4155
 1019MOL0     H37531   8.542   7.305   2.031 -1.6661 -1.6434  1.2221
 1019MOL0     H37532   8.463   7.444   1.958  1.0709 -0.3267 -0.6149
 1019MOL0     H37533   8.273   7.329   1.906 -0.1727 -0.6576  0.7295
 1019MOL0     H37534   8.363   7.165   1.919 -2.3190 -1.1425 -0.7557
 1019MOL0     H37535   8.227   7.343   2.125 -0.4999 -0.9407  0.5103
 1019MOL0     H37536   8.370   7.252   2.172  1.6459 -0.9849 -2.2204
 1019MOL0     H37537   8.246   7.040   2.117  1.5153  0.6183  0.3844
 1019MOL0     H37538   8.115   7.131   2.046 -1.0262  3.9963  1.3090
 1019MOL0     H37539   8.079   7.032   2.290  2.0065 -0.2825  1.0758
 1019MOL0     H37540   8.189   7.144   2.344 -2.0225  0.9288  0.4608
 1019MOL0     H37541   7.917   7.186   2.195  4.1802 -1.8487 -4.5075
 1019MOL0     H37542   8.032   7.314   2.200  1.5898 -0.9813 -2.5237
 1019MOL0     H37543   7.931   7.131   2.439  0.7913  0.3013  0.8057
 1019MOL0     H37544   8.019   7.280   2.473  0.2510 -0.2367  0.8908
 1019MOL0     H37545   8.440   7.560   1.711  2.0689 -2.2411 -3.1607
 1019MOL0     H37546   8.452   7.803   1.656  0.3596  2.4420 -0.7118
 1019MOL0     H37547   8.686   8.140   1.538  2.1983 -0.1458  0.5513
 1019MOL0     H37548   8.729   8.368   1.465 -2.6444  1.3178 -1.7913
 1019MOL0     H37549   8.270   9.041  -0.061 -1.8072  1.4680 -2.9563
 1019MOL0     H37550   8.251   9.251  -0.170 -2.3482  0.7584  1.8424
 1019MOL0     H37551   8.627   9.767  -0.180 -0.1119  1.3101  0.2994
 1019MOL0     H37552   8.604   9.918  -0.367 -0.6562  0.1455 -1.5074
 1019MOL0     H37553   8.559   9.873  -0.626  1.3718  0.3011 -0.5993
 1019MOL0     H37554   8.576  10.028  -0.554 -0.1665 -2.0681  1.4836
 1019MOL0     H37555   8.545  10.123  -0.747 -0.7895  0.6985 -1.0312
 1019MOL0     H37556   8.385  10.110  -0.713  1.8093  0.7132  2.6325
 1019MOL0     H37557   8.512   9.874  -0.857 -0.4914 -0.0056  0.6599
 1019MOL0     H37558   8.458  10.009  -0.954  0.6642  1.2292  1.2275
 1019MOL0     H37559   8.286   9.808  -0.935 -2.2604  1.0908 -1.2859
 1019MOL0     H37560   8.262   9.865  -0.773  1.1352  1.0283  0.6247
 1019MOL0     H37561   8.031  10.115  -1.017  0.0092  0.9870 -0.6695
 1019MOL0     H37562   8.210   9.763  -0.450 -0.5341 -2.1051  2.5626
 1019MOL0     H37563   8.188   9.505  -0.208 -0.7677  0.4294  0.7935
 1019MOL0     H37564   8.141   9.669  -0.171  1.7228  1.2607 -0.5724
 1019MOL0     H37565   8.120   9.607  -0.338 -0.3708 -0.4471  0.9186
 1020MOL0     O37566   0.147   5.339   0.752  0.1052 -0.7440  0.3006
 1020MOL0     C37567   0.186   5.440   0.812 -0.1636 -0.5216 -0.2991
 1020MOL0     O37568   0.293   5.527   0.768  0.5485 -0.9451  0.3839
 1020MOL0     C37569   0.383   5.508   0.670  0.6989 -0.0265 -0.4672
 1020MOL0     C37570   0.419   5.386   0.616  0.1988 -0.4678 -0.3654
 1020MOL0     C37571   0.523   5.382   0.523  0.6106 -0.5155  0.0316
 1020MOL0     C37572   0.572   5.500   0.466  0.5926 -0.4364 -0.4344
 1020MOL0     O37573   0.671   5.464   0.373 -0.0028 -0.5791  0.4336
 1020MOL0     C37574   0.752   5.568   0.321 -0.6937  0.0347 -0.9088
 1020MOL0     C37575   0.840   5.523   0.203 -0.2300  0.8791 -0.6014
 1020MOL0     C37576   0.971   5.450   0.250  0.2981  0.6332 -0.0770
 1020MOL0     C37577   1.080   5.462   0.150 -0.3101  0.2771  0.3909
 1020MOL0     C37578   1.221   5.400   0.206  0.1707  0.9011  0.4411
 1020MOL0     C37579   1.265   5.445   0.351  0.5272 -0.0742 -0.8607
 1020MOL0     C37580   1.303   5.591   0.363 -0.4078 -0.1337 -0.9268
 1020MOL0     C37581   1.332   5.647   0.503  0.5626  0.4466  0.2337
 1020MOL0     N37582   1.200   5.639   0.575  0.1549 -0.7049 -0.1062
 1020MOL0     C37583   1.147   5.546   0.659  0.3890 -0.1629 -0.1786
 1020MOL0     C37584   1.019   5.589   0.686 -0.5655  0.8303  0.0356
 1020MOL0     C37585   0.918   5.515   0.766  0.3683  1.4749  0.7817
 1020MOL0     C37586   0.932   5.544   0.911  0.7734  0.7664 -0.4497
 1020MOL0     C37587   0.822   5.476   1.007 -0.2827 -0.2410 -0.4427
 1020MOL0     C37588   0.693   5.557   1.010 -0.8129  1.0979  0.1706
 1020MOL0     O37589   0.619   5.536   1.143  0.0393  0.2983  1.0883
 1020MOL0     C37590   0.681   5.604   1.251 -0.1628 -0.7709  0.2249
 1020MOL0     C37591   0.748   5.529   1.359  0.7655 -0.0298 -0.7598
 1020MOL0     C37592   0.785   5.607   1.468  0.1922  0.5196 -0.9203
 1020MOL0     C37593   0.763   5.749   1.479  0.1094  1.1874 -0.1948
 1020MOL0     C37594   0.822   5.815   1.593 -0.1053 -0.4536  0.1755
 1020MOL0     O37595   0.937   5.752   1.662  0.2400 -0.0777  0.2122
 1020MOL0     C37596   0.982   5.800   1.781  0.2514 -0.0818 -0.6655
 1020MOL0     C37597   0.952   5.730   1.897  0.8232 -0.1409  0.0443
 1020MOL0     C37598   0.974   5.798   2.024  0.6785 -0.0159 -1.0918
 1020MOL0     C37599   1.041   5.926   2.034  0.2133  0.3060  0.6325
 1020MOL0     O37600   1.050   5.974   2.161  0.0492 -0.1259  0.5090
 1020MOL0     C37601   1.100   6.105   2.184  1.0239  0.3377 -0.2600
 1020MOL0     C37602   1.120   6.147   2.335  0.7422  0.1901  0.2173
 1020MOL0     C37603   1.010   6.099   2.430  0.9549 -0.4751  0.2095
 1020MOL0     C37604   0.991   6.202   2.538 -0.0694  0.5647  0.0200
 1020MOL0     C37605   0.939   6.134   2.672  0.0933 -0.1551 -0.2141
 1020MOL0     C37606   0.894   6.240   2.782 -0.2333  0.1315 -0.3445
 1020MOL0     C37607   0.859   6.175   2.909  0.3905  1.2706 -1.1343
 1020MOL0     C37608   0.979   6.116   2.988 -0.0014 -0.1241 -0.2811
 1020MOL0    Cl37609   0.944   5.977   3.070  0.4839  0.6750 -0.0894
 1020MOL0     C37610   1.085   5.980   1.913 -0.3289 -0.6431  0.7473
 1020MOL0     C37611   1.056   5.919   1.787  0.0999  0.0602 -0.3057
 1020MOL0     O37612   0.789   5.928   1.621  0.6115  0.0565 -0.0415
 1020MOL0     C37613   0.707   5.815   1.372 -0.7213  1.0111 -0.2013
 1020MOL0     C37614   0.669   5.742   1.259 -0.5182 -0.7028  0.5373
 1020MOL0     N37615   1.002   5.709   0.625 -0.5197  0.2855  0.2519
 1020MOL0     N37616   1.106   5.742   0.560 -0.2848 -0.4393 -0.3378
 1020MOL0     C37617   0.559   5.621   0.529  0.7169  0.5895 -0.7414
 1020MOL0     C37618   0.459   5.622   0.638 -0.1725  0.9453  0.6857
 1020MOL0     C37619   0.109   5.492   0.924 -0.3448  0.4463 -0.6905
 1020MOL0     C37620   0.183   5.513   1.045 -0.3973  0.4610  0.6457
 1020MOL0     C37621   0.115   5.565   1.144 -0.0932 -0.4761 -0.5347
 1020MOL0     C37622  -0.015   5.614   1.140  1.0642 -0.2311 -0.6214
 1020MOL0     O37623  -0.082   5.665   1.243  0.0216 -0.3827  0.2007
 1020MOL0     C37624  -0.018   5.664   1.365 -0.0009  0.0099 -0.1834
 1020MOL0     C37625  -0.106   5.712   1.486 -0.1788 -0.9024  0.2497
 1020MOL0     C37626  -0.237   5.645   1.469  0.7947  0.3494 -0.7249
 1020MOL0     C37627  -0.306   5.647   1.608 -0.1034 -0.0567 -0.4435
 1020MOL0     C37628  -0.240   5.568   1.715  0.2609  0.7984 -0.9524
 1020MOL0     C37629  -0.205   5.503   1.813  0.0037 -0.0912  0.1575
 1020MOL0     C37630  -0.092   5.586   1.028 -0.3157 -0.3558 -0.2268
 1020MOL0     C37631  -0.031   5.533   0.920  0.7650  0.5219 -0.2901
 1020MOL0     C37632  -0.124   5.511   0.807 -0.5749  1.0657  0.2955
 1020MOL0     H37633   0.378   5.302   0.672 -1.2749  0.8740  0.6781
 1020MOL0     H37634   0.557   5.280   0.510 -1.5863 -1.2368 -0.4746
 1020MOL0     H37635   0.689   5.650   0.287 -2.7452 -0.8412  0.5561
 1020MOL0     H37636   0.821   5.598   0.401 -2.0800  2.0828 -0.3971
 1020MOL0     H37637   0.868   5.608   0.139 -0.5420  2.7528  1.6400
 1020MOL0     H37638   0.781   5.452   0.145 -1.3203  1.3550 -0.0969
 1020MOL0     H37639   0.970   5.342   0.262  0.2680  0.8270  2.1485
 1020MOL0     H37640   1.010   5.496   0.342  2.1545  0.7585 -0.8865
 1020MOL0     H37641   1.046   5.416   0.057 -1.9714 -2.1382  2.0617
 1020MOL0     H37642   1.109   5.566   0.133  1.0904 -0.4297 -2.0516
 1020MOL0     H37643   1.204   5.292   0.204  3.2923  0.3403 -0.4613
 1020MOL0     H37644   1.301   5.424   0.136 -1.5471  2.5438 -1.0625
 1020MOL0     H37645   1.184   5.412   0.417  1.2044 -2.4421 -1.1216
 1020MOL0     H37646   1.353   5.381   0.365 -0.1023 -1.6871 -3.5185
 1020MOL0     H37647   1.224   5.649   0.317 -3.1450 -1.1693  2.0770
 1020MOL0     H37648   1.391   5.607   0.300 -0.2972  1.8724 -0.3288
 1020MOL0     H37649   1.413   5.589   0.549  0.5182  2.5171  3.2386
 1020MOL0     H37650   1.358   5.753   0.498 -0.2268  0.6191 -0.4276
 1020MOL0     H37651   1.191   5.455   0.698 -2.7166 -0.9268  1.9127
 1020MOL0     H37652   0.818   5.545   0.734 -0.2079 -0.8056  0.2345
 1020MOL0     H37653   0.925   5.408   0.746 -0.7468  1.2370  1.5522
 1020MOL0     H37654   1.029   5.507   0.946  1.5455  2.7720 -0.3259
 1020MOL0     H37655   0.919   5.653   0.913 -0.4490  0.6242  0.4820
 1020MOL0     H37656   0.864   5.466   1.107 -0.7823  3.1513  0.2215
 1020MOL0     H37657   0.807   5.371   0.982  0.3060 -0.5160  0.3223
 1020MOL0     H37658   0.631   5.537   0.922 -1.6413 -0.4462  1.0543
 1020MOL0     H37659   0.724   5.661   0.997  3.4955  0.0608  0.4725
 1020MOL0     H37660   0.744   5.422   1.371 -0.8794  0.1962  1.4197
 1020MOL0     H37661   0.838   5.555   1.547 -2.0671 -0.4328  0.0455
 1020MOL0     H37662   0.897   5.637   1.891 -2.4266  1.7144 -2.8702
 1020MOL0     H37663   0.932   5.759   2.116 -0.6019  3.2364 -0.1947
 1020MOL0     H37664   1.198   6.112   2.138  0.8547  0.1183 -0.6595
 1020MOL0     H37665   1.032   6.178   2.139 -0.6571 -0.0784  1.4323
 1020MOL0     H37666   1.218   6.125   2.378  1.2500  0.6278 -0.6851
 1020MOL0     H37667   1.109   6.256   2.342 -0.0048  0.1523 -0.3178
 1020MOL0     H37668   0.919   6.081   2.373  1.2440 -1.8409  0.1418
 1020MOL0     H37669   1.050   6.010   2.479  0.6796 -0.5716  0.2595
 1020MOL0     H37670   0.931   6.290   2.509 -2.6349 -0.9019  0.5593
 1020MOL0     H37671   1.091   6.241   2.557  0.4678 -0.0713 -1.3782
 1020MOL0     H37672   1.025   6.074   2.704 -0.5578  0.1919  2.4162
 1020MOL0     H37673   0.855   6.068   2.649 -1.1222  0.4375  2.1347
 1020MOL0     H37674   0.979   6.305   2.806 -0.9714  0.7939  0.5441
 1020MOL0     H37675   0.808   6.285   2.731 -2.4802 -4.6895 -1.3685
 1020MOL0     H37676   0.778   6.109   2.874 -0.4109  2.4270 -1.5173
 1020MOL0     H37677   0.813   6.238   2.985 -3.6549 -5.5418  3.1698
 1020MOL0     H37678   1.056   6.088   2.916 -0.6704 -0.9538 -0.6936
 1020MOL0     H37679   1.020   6.189   3.058 -2.9890 -1.2750  2.9912
 1020MOL0     H37680   1.149   6.066   1.902 -1.0069 -0.2039  0.1529
 1020MOL0     H37681   1.079   5.975   1.698  1.4282  1.9122  1.1290
 1020MOL0     H37682   0.697   5.921   1.389 -3.4596  0.3634  3.4881
 1020MOL0     H37683   0.613   5.798   1.186 -0.2066 -2.1725 -0.8853
 1020MOL0     H37684   0.619   5.708   0.509  1.1644 -0.2297 -3.2334
 1020MOL0     H37685   0.462   5.710   0.701  2.0248 -0.1166  2.1869
 1020MOL0     H37686   0.288   5.485   1.043 -0.7274 -0.8115 -0.8098
 1020MOL0     H37687   0.172   5.589   1.234 -0.0106  4.0441 -1.5679
 1020MOL0     H37688   0.061   5.739   1.371 -1.8077  2.1087 -1.0794
 1020MOL0     H37689   0.024   5.567   1.394  1.5342  1.6195  3.6554
 1020MOL0     H37690  -0.126   5.820   1.478 -3.4601 -1.2462  2.1354
 1020MOL0     H37691  -0.056   5.692   1.581  0.8913  0.5260  0.0216
 1020MOL0     H37692  -0.223   5.539   1.445 -5.4024 -1.7586  2.7965
 1020MOL0     H37693  -0.302   5.703   1.402 -2.2777  0.6838  2.3248
 1020MOL0     H37694  -0.319   5.753   1.629  0.9694 -0.1685  0.9053
 1020MOL0     H37695  -0.404   5.598   1.598  0.6293 -1.5812 -0.5426
 1020MOL0     H37696  -0.176   5.449   1.900 -0.9391 -0.5585  0.1992
 1020MOL0     H37697  -0.198   5.608   1.037 -0.1432  0.5313 -0.2036
 1020MOL0     H37698  -0.217   5.467   0.845  1.0848 -0.3804  3.0541
 1020MOL0     H37699  -0.136   5.599   0.742  0.7003  0.3687 -0.9365
 1020MOL0     H37700  -0.086   5.432   0.742  0.6293  2.0394 -0.2268
 1021MOL0     O37701   8.890   0.187   4.887 -0.0774 -0.5835 -0.0969
 1021MOL0     C37702   8.962   0.188   4.995 -0.0933  0.7365 -0.1161
 1021MOL0     O37703   9.079   0.136   5.014 -0.2483 -0.6009 -0.5322
 1021MOL0     C37704   9.115   0.015   4.954  0.7133 -0.4969 -1.3686
 1021MOL0     C37705   9.028  -0.097   4.953  0.0880 -0.1316  0.3216
 1021MOL0     C37706   9.062  -0.211   4.893 -0.4518  0.4789  0.6003
 1021MOL0     C37707   9.195  -0.231   4.834  0.3975 -0.5839 -0.0655
 1021MOL0     O37708   9.215  -0.348   4.761 -0.1007  0.0310 -0.2669
 1021MOL0     C37709   9.354  -0.395   4.762  1.0252 -0.0743 -1.4744
 1021MOL0     C37710   9.409  -0.359   4.626 -0.2700 -0.4089 -0.4357
 1021MOL0     C37711   9.506  -0.475   4.570 -0.4233  0.7008  1.6038
 1021MOL0     C37712   9.556  -0.424   4.435 -0.2337  0.2959 -0.4301
 1021MOL0     C37713   9.646  -0.507   4.353 -0.2010  0.0252  0.1397
 1021MOL0     C37714   9.670  -0.443   4.209 -0.3475 -0.8409  0.4169
 1021MOL0     C37715   9.774  -0.536   4.140 -0.2388 -0.3714  0.6965
 1021MOL0     C37716   9.791  -0.517   3.991  0.2307  0.6778  0.5599
 1021MOL0     N37717   9.870  -0.631   3.943 -0.4168  0.0417  0.1576
 1021MOL0     C37718  10.007  -0.645   3.915 -0.8123  0.6655  0.2129
 1021MOL0     C37719  10.012  -0.764   3.846 -0.4345  0.6774 -0.2544
 1021MOL0     C37720  10.144  -0.811   3.779 -0.1590  0.6928 -0.5800
 1021MOL0     C37721  10.160  -0.773   3.634 -0.7310  0.5013 -0.8030
 1021MOL0     C37722  10.297  -0.794   3.574 -0.0408  1.0624 -0.9057
 1021MOL0     C37723  10.311  -0.808   3.420 -0.0450 -0.6150 -0.7741
 1021MOL0     O37724  10.441  -0.814   3.355 -0.5855 -0.1659  0.0894
 1021MOL0     C37725  10.432  -0.822   3.224  0.1959  0.7423 -0.2863
 1021MOL0     C37726  10.559  -0.837   3.161  0.0186 -1.2894  0.0609
 1021MOL0     C37727  10.561  -0.846   3.026  0.1020  1.1172  0.3865
 1021MOL0     C37728  10.443  -0.843   2.952  0.1700  0.3079 -1.0745
 1021MOL0     C37729  10.434  -0.868   2.810  0.0952  0.0949 -0.2559
 1021MOL0     O37730  10.326  -0.819   2.740 -0.1082  0.4808 -0.3929
 1021MOL0     C37731  10.303  -0.826   2.611 -0.3327  0.9016  0.1722
 1021MOL0     C37732  10.326  -0.945   2.535  0.1427 -0.5471  0.1264
 1021MOL0     C37733  10.295  -0.962   2.400  0.9332  0.2439 -0.1046
 1021MOL0     C37734  10.229  -0.865   2.331  1.5045 -0.1207  0.9897
 1021MOL0     O37735  10.197  -0.874   2.199 -0.3597 -0.0458 -0.6415
 1021MOL0     C37736  10.311  -0.820   2.133 -0.5387 -0.7547  0.1259
 1021MOL0     C37737  10.303  -0.846   1.980  1.1746  0.2275  0.1368
 1021MOL0     C37738  10.332  -0.987   1.935  0.1584 -0.5479  0.0433
 1021MOL0     C37739  10.302  -1.009   1.789 -0.1237 -1.2680  0.1077
 1021MOL0     C37740  10.347  -1.147   1.750  0.1978 -0.6838  0.1577
 1021MOL0     C37741  10.336  -1.173   1.599  0.4138 -0.3775  0.1914
 1021MOL0     C37742  10.198  -1.159   1.540 -0.3366 -0.0204 -0.3601
 1021MOL0     C37743  10.213  -1.198   1.388 -0.5478 -0.0384  0.7107
 1021MOL0    Cl37744  10.052  -1.248   1.332 -0.0863  0.4516 -0.3104
 1021MOL0     C37745  10.206  -0.745   2.402 -0.7834  0.0853 -1.1971
 1021MOL0     C37746  10.249  -0.721   2.535 -0.9664  0.0157 -0.0088
 1021MOL0     O37747  10.528  -0.928   2.758 -0.1369  0.5111 -0.6288
 1021MOL0     C37748  10.320  -0.829   3.013  0.0841  0.0767  0.2092
 1021MOL0     C37749  10.319  -0.821   3.152  0.9118 -0.6786 -0.7589
 1021MOL0     N37750   9.894  -0.839   3.865 -0.1911  0.1088  0.8136
 1021MOL0     N37751   9.811  -0.752   3.925 -1.0213  0.9964  0.2432
 1021MOL0     C37752   9.288  -0.125   4.855  0.7789  0.3824 -0.7302
 1021MOL0     C37753   9.243  -0.007   4.919 -0.8229  0.0007 -0.0473
 1021MOL0     C37754   8.932   0.291   5.098  0.8323  0.2779 -0.8140
 1021MOL0     C37755   9.035   0.359   5.166  0.6325 -0.0479 -0.4535
 1021MOL0     C37756   9.002   0.457   5.257 -0.3810  0.2521 -0.1796
 1021MOL0     C37757   8.870   0.511   5.278 -0.3249  0.4180 -0.2222
 1021MOL0     O37758   8.841   0.614   5.366 -0.2133  0.0208 -0.4307
 1021MOL0     C37759   8.765   0.717   5.304  1.4680  0.5053 -0.4588
 1021MOL0     C37760   8.626   0.700   5.378 -0.1619 -0.1042  0.1724
 1021MOL0     C37761   8.543   0.825   5.325 -0.9062  0.5065  0.3014
 1021MOL0     C37762   8.390   0.806   5.346  0.1289  0.5429 -0.0294
 1021MOL0     C37763   8.340   0.841   5.478 -1.3917 -0.3666  0.1041
 1021MOL0     C37764   8.312   0.874   5.593 -0.5629 -0.1116  0.5460
 1021MOL0     C37765   8.765   0.452   5.211  0.2494  0.1114  0.8247
 1021MOL0     C37766   8.794   0.335   5.124 -0.1061 -0.6933  0.1010
 1021MOL0     C37767   8.670   0.260   5.060  0.1083 -0.1442  0.6843
 1021MOL0     H37768   8.925  -0.097   4.988  0.1172 -1.9085  0.5166
 1021MOL0     H37769   8.999  -0.299   4.887  1.9760 -1.2785 -0.9336
 1021MOL0     H37770   9.408  -0.349   4.846 -0.4387  1.3388 -1.2591
 1021MOL0     H37771   9.354  -0.500   4.791  0.8542  0.3773  0.2835
 1021MOL0     H37772   9.462  -0.263   4.633  2.0306 -1.2947 -3.5752
 1021MOL0     H37773   9.327  -0.350   4.554 -1.1988  3.0224  0.8473
 1021MOL0     H37774   9.443  -0.562   4.549  0.5944  0.7763 -2.7574
 1021MOL0     H37775   9.592  -0.491   4.634  0.9366 -1.8019 -0.6450
 1021MOL0     H37776   9.472  -0.396   4.371 -0.3279  0.0966 -0.3959
 1021MOL0     H37777   9.613  -0.331   4.448  0.1037  0.3560 -2.0637
 1021MOL0     H37778   9.737  -0.522   4.411 -0.8822 -0.6961  1.0592
 1021MOL0     H37779   9.588  -0.600   4.351 -0.4277  0.1674 -0.1874
 1021MOL0     H37780   9.588  -0.427   4.139 -0.7850 -0.7180  0.9533
 1021MOL0     H37781   9.716  -0.344   4.221 -0.7464 -0.3231 -1.7410
 1021MOL0     H37782   9.740  -0.636   4.167 -1.3634 -0.1162  0.2518
 1021MOL0     H37783   9.873  -0.515   4.183  1.6373  0.9968 -3.7354
 1021MOL0     H37784   9.692  -0.515   3.944  1.3282 -0.0269 -1.9823
 1021MOL0     H37785   9.838  -0.424   3.959 -1.4212  0.6326 -2.3904
 1021MOL0     H37786  10.088  -0.575   3.930  0.0302 -0.0843 -0.7290
 1021MOL0     H37787  10.229  -0.787   3.843 -0.2246 -3.3716  1.3500
 1021MOL0     H37788  10.156  -0.919   3.794 -1.8363  0.4289 -0.8609
 1021MOL0     H37789  10.090  -0.817   3.563 -0.9371 -0.0109 -0.2933
 1021MOL0     H37790  10.129  -0.668   3.638 -1.2628  0.3284  2.7777
 1021MOL0     H37791  10.321  -0.891   3.618 -1.8719  0.9760  0.0186
 1021MOL0     H37792  10.363  -0.714   3.608  1.2950  0.5901 -2.2818
 1021MOL0     H37793  10.265  -0.712   3.396 -3.7460 -1.7388  1.0344
 1021MOL0     H37794  10.246  -0.881   3.370 -0.5524 -0.5043 -0.2947
 1021MOL0     H37795  10.646  -0.844   3.226  0.0440 -1.1510  0.0434
 1021MOL0     H37796  10.655  -0.876   2.981  0.6899 -0.4367  2.4657
 1021MOL0     H37797  10.375  -1.030   2.584  0.7634 -0.0321  0.4197
 1021MOL0     H37798  10.289  -1.065   2.367 -0.7087  0.0001  0.8642
 1021MOL0     H37799  10.310  -0.711   2.140  1.3475 -0.8118  1.7956
 1021MOL0     H37800  10.405  -0.857   2.174 -1.9334 -3.1416  1.3671
 1021MOL0     H37801  10.203  -0.824   1.940  1.8320  0.3209 -1.5154
 1021MOL0     H37802  10.374  -0.781   1.929  0.8906  1.3884  1.1645
 1021MOL0     H37803  10.439  -1.002   1.953  0.0730 -1.2591  0.0173
 1021MOL0     H37804  10.267  -1.055   1.991 -1.5969  0.4368 -0.7467
 1021MOL0     H37805  10.371  -0.942   1.736  0.8318 -1.3984  1.1278
 1021MOL0     H37806  10.195  -1.011   1.770 -0.3614 -0.1013  1.2056
 1021MOL0     H37807  10.281  -1.209   1.811 -2.8448 -0.2293 -2.4486
 1021MOL0     H37808  10.452  -1.155   1.782 -0.1062 -1.1452  1.0760
 1021MOL0     H37809  10.397  -1.095   1.552 -0.5208 -0.0688 -0.5180
 1021MOL0     H37810  10.372  -1.270   1.565 -3.4036 -1.8113 -0.2723
 1021MOL0     H37811  10.153  -1.060   1.549 -0.9488 -0.3795  0.7297
 1021MOL0     H37812  10.138  -1.241   1.579  0.1842 -2.4986 -4.2268
 1021MOL0     H37813  10.262  -1.121   1.328  1.8177 -2.2640 -0.4396
 1021MOL0     H37814  10.271  -1.290   1.374  0.9181  1.0657 -0.8492
 1021MOL0     H37815  10.128  -0.685   2.355 -0.6879  1.8500  0.7084
 1021MOL0     H37816  10.218  -0.631   2.589  1.3677  1.7945 -1.4174
 1021MOL0     H37817  10.228  -0.830   2.956 -0.2264 -2.0397  0.6651
 1021MOL0     H37818  10.217  -0.816   3.191 -0.8039 -1.2605 -4.6911
 1021MOL0     H37819   9.389  -0.132   4.817  1.4152  0.7478  0.7967
 1021MOL0     H37820   9.325   0.062   4.936 -1.5955  1.3427 -1.4883
 1021MOL0     H37821   9.138   0.326   5.162 -0.1893 -2.7828 -3.1738
 1021MOL0     H37822   9.075   0.505   5.320 -0.7046 -0.6497  0.9121
 1021MOL0     H37823   8.757   0.706   5.195  0.8133 -3.1892 -0.1404
 1021MOL0     H37824   8.804   0.815   5.335  1.4030 -0.1447  1.8556
 1021MOL0     H37825   8.629   0.699   5.488  0.0224  0.9226  0.1836
 1021MOL0     H37826   8.580   0.605   5.351  1.7380 -0.5638 -1.7213
 1021MOL0     H37827   8.571   0.826   5.219 -1.6735 -1.2059  0.0450
 1021MOL0     H37828   8.571   0.923   5.365 -3.0800  2.0328 -1.7089
 1021MOL0     H37829   8.334   0.864   5.271  1.0971  2.6666  0.7900
 1021MOL0     H37830   8.371   0.699   5.342  3.2645 -0.1371  0.7035
 1021MOL0     H37831   8.305   0.916   5.691  1.6676 -0.2044  0.7955
 1021MOL0     H37832   8.660   0.478   5.219 -0.7080 -2.4058 -1.8096
 1021MOL0     H37833   8.663   0.267   4.951 -2.4791 -0.1240  0.7911
 1021MOL0     H37834   8.671   0.158   5.100  1.4919 -0.2509  0.4178
 1021MOL0     H37835   8.573   0.302   5.087 -2.1143 -2.0911 -3.3246
 1022MOL0     O37836   0.414   3.553   7.407 -0.9384  0.2326 -0.7309
 1022MOL0     C37837   0.458   3.668   7.416 -0.6843 -0.0577  0.2680
 1022MOL0     O37838   0.422   3.751   7.517 -0.5654 -0.3872  0.2648
 1022MOL0     C37839   0.319   3.729   7.607 -0.9299 -0.4152  0.2203
 1022MOL0     C37840   0.217   3.628   7.611 -0.1526 -0.5004  0.4308
 1022MOL0     C37841   0.129   3.612   7.721  0.9673 -0.6607  0.5365
 1022MOL0     C37842   0.141   3.695   7.834  0.8852 -1.3573 -0.1153
 1022MOL0     O37843   0.055   3.683   7.943 -0.3499  0.3202 -0.1066
 1022MOL0     C37844   0.014   3.797   8.024 -0.9970 -0.2500 -0.1102
 1022MOL0     C37845  -0.118   3.765   8.099  0.4951  0.8501 -0.7328
 1022MOL0     C37846  -0.240   3.795   8.004 -0.4703  0.8959 -0.4854
 1022MOL0     C37847  -0.375   3.783   8.075  0.2702  0.2820  0.0209
 1022MOL0     C37848  -0.405   3.877   8.200  0.0595 -0.0928  0.4959
 1022MOL0     C37849  -0.386   4.032   8.171  0.0361  0.3202 -0.1941
 1022MOL0     C37850  -0.433   4.131   8.280 -0.2444 -0.3786  0.0738
 1022MOL0     C37851  -0.547   4.066   8.371  0.5517  0.6388 -0.1241
 1022MOL0     N37852  -0.611   4.176   8.440  0.0728  0.4276 -0.0051
 1022MOL0     C37853  -0.550   4.258   8.531  0.7406 -0.5480  0.8206
 1022MOL0     C37854  -0.637   4.352   8.566  0.8518 -0.6057 -0.2491
 1022MOL0     C37855  -0.616   4.474   8.658 -0.0214  0.2545  0.2036
 1022MOL0     C37856  -0.502   4.568   8.619  0.7825 -0.0392  0.5293
 1022MOL0     C37857  -0.500   4.697   8.701 -0.2761  0.1718 -0.0979
 1022MOL0     C37858  -0.405   4.692   8.826  0.3941  0.2933  0.2585
 1022MOL0     O37859  -0.422   4.565   8.897  0.2846  0.0068  0.1550
 1022MOL0     C37860  -0.365   4.553   9.019  0.1935  0.2665 -0.7297
 1022MOL0     C37861  -0.262   4.630   9.069 -0.0963 -0.5003 -0.8226
 1022MOL0     C37862  -0.211   4.599   9.193  0.4744  0.0284 -0.8555
 1022MOL0     C37863  -0.267   4.494   9.272 -0.2463 -0.0207 -0.1542
 1022MOL0     C37864  -0.227   4.455   9.413 -0.0148 -0.5821  0.2686
 1022MOL0     O37865  -0.178   4.562   9.485 -0.3111 -0.5255  0.8174
 1022MOL0     C37866  -0.090   4.522   9.584  0.3855  0.3029  0.9909
 1022MOL0     C37867   0.042   4.491   9.557  0.1079  0.0653  0.6137
 1022MOL0     C37868   0.125   4.457   9.661 -0.8088  0.8602 -0.3078
 1022MOL0     C37869   0.095   4.462   9.793  0.6657  0.5930 -0.0205
 1022MOL0     O37870   0.191   4.434   9.880 -0.1198  0.4333  0.2334
 1022MOL0     C37871   0.198   4.521   9.992 -0.0113 -0.1476 -0.5391
 1022MOL0     C37872   0.341   4.508  10.060 -0.3683 -0.2834 -0.5465
 1022MOL0     C37873   0.361   4.556  10.196 -0.7068  0.6553 -1.0594
 1022MOL0     C37874   0.315   4.448  10.298 -0.3927  0.7473  0.6057
 1022MOL0     C37875   0.275   4.512  10.424  0.8109 -0.3115  0.3317
 1022MOL0     C37876   0.237   4.414  10.546  0.2416  0.2676  0.5574
 1022MOL0     C37877   0.177   4.471  10.679 -0.4609  0.6209  0.3861
 1022MOL0     C37878   0.157   4.359  10.789  0.0506 -0.1150  0.0618
 1022MOL0    Cl37879   0.320   4.311  10.842 -0.0795 -0.2305 -0.7943
 1022MOL0     C37880  -0.041   4.494   9.827  0.5558  0.4695 -0.8562
 1022MOL0     C37881  -0.135   4.521   9.723  0.1577 -0.3779 -0.0274
 1022MOL0     O37882  -0.233   4.339   9.447  0.4841 -0.0055 -0.4268
 1022MOL0     C37883  -0.361   4.402   9.216  0.5649 -0.9247 -0.0243
 1022MOL0     C37884  -0.417   4.438   9.087 -0.1120 -0.7872  0.3171
 1022MOL0     N37885  -0.749   4.333   8.494 -0.3641 -0.7886 -0.8668
 1022MOL0     N37886  -0.735   4.236   8.414 -0.1167  0.0814  0.0975
 1022MOL0     C37887   0.235   3.802   7.832 -0.5755  0.6384  0.3866
 1022MOL0     C37888   0.322   3.811   7.721  1.0690  0.5707 -0.7793
 1022MOL0     C37889   0.543   3.732   7.315 -0.6798 -0.2206 -0.0264
 1022MOL0     C37890   0.495   3.830   7.237  0.7310  0.2744 -0.3575
 1022MOL0     C37891   0.578   3.893   7.142 -0.8618 -0.7643  1.2573
 1022MOL0     C37892   0.714   3.855   7.125  1.4077  0.3528  0.0345
 1022MOL0     O37893   0.805   3.910   7.042 -0.7230  0.0303  0.3752
 1022MOL0     C37894   0.767   4.026   6.964 -0.9005 -0.3123  0.4048
 1022MOL0     C37895   0.898   4.101   6.906 -0.1885 -0.0420 -0.5257
 1022MOL0     C37896   0.961   4.190   7.012 -0.0312 -0.3662  1.1454
 1022MOL0     C37897   1.099   4.147   7.067 -1.0945  0.2494  0.2735
 1022MOL0     C37898   1.201   4.176   6.957 -0.0280 -0.1787 -0.9162
 1022MOL0     C37899   1.275   4.204   6.863 -0.5713 -0.1654  1.2276
 1022MOL0     C37900   0.763   3.754   7.209  0.6360 -0.7207  0.5206
 1022MOL0     C37901   0.677   3.693   7.305  0.9275 -0.3300 -0.0479
 1022MOL0     C37902   0.731   3.580   7.383 -0.0900  0.2610 -0.5926
 1022MOL0     H37903   0.194   3.565   7.526  0.4858 -0.6484  0.3618
 1022MOL0     H37904   0.038   3.554   7.714 -0.2731  1.3791 -1.3913
 1022MOL0     H37905   0.094   3.832   8.089  0.1240 -1.2357 -0.9047
 1022MOL0     H37906  -0.006   3.883   7.959  0.5073  0.9539  0.9658
 1022MOL0     H37907  -0.120   3.833   8.185  4.3221 -0.6776  0.8065
 1022MOL0     H37908  -0.115   3.662   8.137 -2.7403  0.5107 -1.1089
 1022MOL0     H37909  -0.234   3.743   7.908 -1.0341  0.1300 -0.1114
 1022MOL0     H37910  -0.235   3.901   7.975  1.6575  0.7000 -0.9874
 1022MOL0     H37911  -0.446   3.814   7.998  0.1731  1.0596  0.4145
 1022MOL0     H37912  -0.379   3.675   8.093  0.9372  0.2667  0.0883
 1022MOL0     H37913  -0.510   3.859   8.223  0.0480 -2.0582 -0.8609
 1022MOL0     H37914  -0.340   3.849   8.283 -0.4038  0.5837  1.1061
 1022MOL0     H37915  -0.282   4.056   8.147 -0.7918  2.2596 -2.1851
 1022MOL0     H37916  -0.449   4.056   8.085  0.6721 -0.7632 -0.9941
 1022MOL0     H37917  -0.470   4.225   8.238  2.9426  1.1014  0.3076
 1022MOL0     H37918  -0.344   4.169   8.331 -0.1721  0.1050 -0.4037
 1022MOL0     H37919  -0.633   4.032   8.313 -1.8085  2.4476  2.0572
 1022MOL0     H37920  -0.509   3.990   8.440  0.8234 -1.9691 -2.9390
 1022MOL0     H37921  -0.448   4.259   8.571  0.2194 -0.3606  2.2034
 1022MOL0     H37922  -0.715   4.518   8.673 -1.0420 -1.4659 -1.1130
 1022MOL0     H37923  -0.601   4.422   8.753 -2.7780 -0.2728  0.4308
 1022MOL0     H37924  -0.409   4.512   8.604 -0.8604 -2.9890  0.5775
 1022MOL0     H37925  -0.528   4.586   8.515  2.7754 -3.2165 -0.6588
 1022MOL0     H37926  -0.603   4.718   8.732  0.0930  0.9296  0.6573
 1022MOL0     H37927  -0.455   4.779   8.644  0.8851 -0.9224 -0.8023
 1022MOL0     H37928  -0.438   4.764   8.901  2.1061  0.0681  1.2764
 1022MOL0     H37929  -0.303   4.716   8.793 -0.1417 -2.1637 -3.8679
 1022MOL0     H37930  -0.214   4.713   9.018 -0.0157 -0.4508 -0.6686
 1022MOL0     H37931  -0.145   4.667   9.246  0.9318 -2.3435  1.8548
 1022MOL0     H37932   0.068   4.501   9.452 -0.6149 -1.0753  0.3075
 1022MOL0     H37933   0.227   4.430   9.635 -1.5688 -1.6855 -0.9033
 1022MOL0     H37934   0.192   4.627   9.968  2.7873  0.2375  0.1498
 1022MOL0     H37935   0.119   4.507  10.067  1.5501  1.2729  1.5008
 1022MOL0     H37936   0.370   4.403  10.052 -2.5094 -0.8593 -1.2405
 1022MOL0     H37937   0.399   4.579  10.000 -0.4860  2.0878  1.9340
 1022MOL0     H37938   0.462   4.585  10.228 -0.7640 -1.3963  1.3348
 1022MOL0     H37939   0.289   4.638  10.203 -2.0089 -0.5227  0.0588
 1022MOL0     H37940   0.396   4.375  10.312 -0.7525  0.0590 -0.6877
 1022MOL0     H37941   0.231   4.396  10.251 -1.0051  2.9515 -0.8844
 1022MOL0     H37942   0.188   4.572  10.396 -2.2229 -2.8854  3.2522
 1022MOL0     H37943   0.352   4.575  10.469 -0.4952 -0.7072  3.3765
 1022MOL0     H37944   0.166   4.341  10.506  3.5133 -2.9915  0.2100
 1022MOL0     H37945   0.335   4.370  10.567  0.5804 -0.7683 -2.6651
 1022MOL0     H37946   0.077   4.511  10.661  0.2507  3.8752  2.7982
 1022MOL0     H37947   0.243   4.550  10.716  1.3743 -0.7788  0.2919
 1022MOL0     H37948   0.088   4.382  10.870 -0.9963 -3.1378  0.1386
 1022MOL0     H37949   0.114   4.276  10.733  0.9742 -0.5512 -0.0323
 1022MOL0     H37950  -0.066   4.498   9.932  3.1659  5.0662 -0.1277
 1022MOL0     H37951  -0.235   4.554   9.751  1.4826  3.1434  1.1601
 1022MOL0     H37952  -0.395   4.317   9.275 -0.5796 -0.8365 -0.5248
 1022MOL0     H37953  -0.493   4.372   9.048  0.7115 -0.9367 -1.0620
 1022MOL0     H37954   0.247   3.885   7.901 -2.4152 -0.7156  2.4639
 1022MOL0     H37955   0.398   3.888   7.719  0.4665  1.2975  1.2942
 1022MOL0     H37956   0.391   3.856   7.248  0.7340  0.3509 -0.5110
 1022MOL0     H37957   0.550   3.979   7.082  3.4997 -0.7192 -1.1242
 1022MOL0     H37958   0.715   4.097   7.029 -1.9384 -1.1841  0.5510
 1022MOL0     H37959   0.704   3.999   6.879  1.8597 -0.9270 -1.6085
 1022MOL0     H37960   0.876   4.175   6.829  2.0036  0.0905 -1.0844
 1022MOL0     H37961   0.964   4.028   6.857  1.8462  3.2512 -3.0523
 1022MOL0     H37962   0.893   4.198   7.097 -0.7465  1.2498  0.4650
 1022MOL0     H37963   0.970   4.289   6.966  2.0612 -0.4353  1.3425
 1022MOL0     H37964   1.120   4.210   7.154  1.7676 -0.4970  0.2229
 1022MOL0     H37965   1.096   4.044   7.102  0.2077 -0.0537 -0.4458
 1022MOL0     H37966   1.344   4.239   6.789  0.1017  0.9720  2.3569
 1022MOL0     H37967   0.864   3.720   7.191  0.8924 -0.4695  1.4509
 1022MOL0     H37968   0.833   3.561   7.350  0.6571 -0.7143  2.0398
 1022MOL0     H37969   0.727   3.605   7.489 -0.1715  3.5223 -1.2611
 1022MOL0     H37970   0.675   3.487   7.373  0.6424 -0.3552  0.7851
 1023MOL0     O37971   7.911   2.667   4.370 -0.2181  0.3033 -0.4764
 1023MOL0     C37972   7.856   2.744   4.294 -0.6337  0.4861 -0.6553
 1023MOL0     O37973   7.784   2.709   4.195 -0.1091  0.3253 -0.0799
 1023MOL0     C37974   7.740   2.578   4.168 -1.2399 -0.3143  0.2750
 1023MOL0     C37975   7.810   2.502   4.073  0.5867  0.1980  1.5681
 1023MOL0     C37976   7.784   2.370   4.039  1.3735 -0.3718 -0.0985
 1023MOL0     C37977   7.681   2.305   4.109  0.4237 -0.2519  0.4344
 1023MOL0     O37978   7.639   2.177   4.094 -0.3272  0.0452 -0.0418
 1023MOL0     C37979   7.708   2.098   3.996 -0.6168 -0.0528  0.3159
 1023MOL0     C37980   7.647   1.967   3.956 -0.3032  0.3336  0.0180
 1023MOL0     C37981   7.606   1.878   4.075 -0.2984 -0.5478 -0.5741
 1023MOL0     C37982   7.718   1.785   4.135  0.2711 -0.6356 -0.3559
 1023MOL0     C37983   7.694   1.755   4.286 -0.3715  0.3988  1.1953
 1023MOL0     C37984   7.556   1.694   4.318  0.1431 -0.2987  0.8271
 1023MOL0     C37985   7.522   1.612   4.447  0.2901 -0.1574  0.2863
 1023MOL0     C37986   7.504   1.701   4.571 -0.4541 -0.3982  0.3156
 1023MOL0     N37987   7.636   1.755   4.614  0.9668 -1.1202 -0.4252
 1023MOL0     C37988   7.747   1.678   4.647  0.8875 -0.3742  0.5589
 1023MOL0     C37989   7.836   1.770   4.684  0.2994 -0.4278  0.6415
 1023MOL0     C37990   7.977   1.743   4.720 -0.2059  0.5997  0.0786
 1023MOL0     C37991   8.079   1.817   4.636 -0.0268 -0.5320  0.2819
 1023MOL0     C37992   8.225   1.798   4.675  0.1885  0.3720  0.0652
 1023MOL0     C37993   8.278   1.669   4.737 -0.2602  0.0060 -0.7562
 1023MOL0     O37994   8.265   1.551   4.658  0.0051 -0.1987 -0.0061
 1023MOL0     C37995   8.203   1.449   4.731  1.0385  0.6450  0.4580
 1023MOL0     C37996   8.085   1.384   4.681  0.2569  0.2506  0.2800
 1023MOL0     C37997   8.025   1.278   4.750 -0.3896  0.7043  0.4351
 1023MOL0     C37998   8.081   1.222   4.864 -0.9906 -0.2482  0.2586
 1023MOL0     C37999   8.016   1.133   4.960  0.7433  0.0582 -0.4221
 1023MOL0     O38000   8.090   1.091   5.064  0.0591  0.1750 -0.0918
 1023MOL0     C38001   8.024   1.043   5.175  0.1628 -0.2589  0.0975
 1023MOL0     C38002   7.924   1.109   5.242  0.7079 -0.1734 -1.1870
 1023MOL0     C38003   7.871   1.056   5.364 -0.0643 -0.1611 -0.1573
 1023MOL0     C38004   7.924   0.927   5.414 -0.2594 -0.1084  0.4248
 1023MOL0     O38005   7.894   0.872   5.530  0.1718 -0.8475  0.2681
 1023MOL0     C38006   7.867   0.957   5.635 -0.3869 -0.0989  0.4263
 1023MOL0     C38007   7.826   0.873   5.756 -0.4389  0.6144 -0.0921
 1023MOL0     C38008   7.704   0.782   5.736  0.2363  0.2818 -0.6029
 1023MOL0     C38009   7.622   0.788   5.868 -0.6879 -0.6259 -0.1386
 1023MOL0     C38010   7.473   0.751   5.831  0.0999 -0.1113  0.4828
 1023MOL0     C38011   7.381   0.749   5.966  0.0826 -0.0534 -0.0876
 1023MOL0     C38012   7.271   0.645   5.951 -0.2371 -0.8831  0.2653
 1023MOL0     C38013   7.176   0.645   6.061 -0.4806  0.8424 -0.3942
 1023MOL0    Cl38014   7.258   0.594   6.219  0.0135  0.3557  0.1408
 1023MOL0     C38015   8.019   0.860   5.334 -0.2017  0.7330 -0.2704
 1023MOL0     C38016   8.061   0.917   5.214 -0.2481 -1.1122 -0.6457
 1023MOL0     O38017   7.905   1.093   4.929  0.8451  0.1938  0.3341
 1023MOL0     C38018   8.205   1.280   4.908  0.2831  1.1367  0.9739
 1023MOL0     C38019   8.257   1.385   4.848 -0.3647 -1.2983  0.4632
 1023MOL0     N38020   7.779   1.900   4.673 -0.1553  0.2498 -0.9000
 1023MOL0     N38021   7.656   1.893   4.644 -0.1376  0.5679  0.3091
 1023MOL0     C38022   7.611   2.366   4.208  0.4622 -0.2799 -0.3936
 1023MOL0     C38023   7.637   2.508   4.236 -0.2782  0.0926  0.2369
 1023MOL0     C38024   7.881   2.893   4.316 -0.7649 -1.0917 -0.4742
 1023MOL0     C38025   7.788   2.991   4.259 -0.6345 -0.1625 -0.2629
 1023MOL0     C38026   7.797   3.131   4.284  0.0007  0.1223  0.2363
 1023MOL0     C38027   7.893   3.184   4.364 -0.7103  1.2452  1.3570
 1023MOL0     O38028   7.902   3.323   4.376 -0.6321  0.2906  0.1625
 1023MOL0     C38029   8.014   3.373   4.441  0.2882 -0.5251  0.3507
 1023MOL0     C38030   8.153   3.353   4.366 -0.1521 -0.5796 -0.0158
 1023MOL0     C38031   8.155   3.416   4.221  1.0943  0.7901 -0.3401
 1023MOL0     C38032   8.085   3.324   4.115 -0.2290  0.1258 -0.0663
 1023MOL0     C38033   8.112   3.177   4.112  0.1787 -0.0448  0.2320
 1023MOL0     C38034   8.136   3.059   4.097  0.5211  0.3622 -0.0389
 1023MOL0     C38035   7.984   3.094   4.421  0.1588 -0.8290  0.2366
 1023MOL0     C38036   7.985   2.952   4.391  0.2937 -0.4968  0.2580
 1023MOL0     C38037   8.078   2.874   4.484  0.0898  0.0612  0.1093
 1023MOL0     H38038   7.886   2.550   4.011 -2.1616 -0.3071 -2.6351
 1023MOL0     H38039   7.854   2.336   3.963  1.6279  1.4211 -0.7349
 1023MOL0     H38040   7.709   2.145   3.897 -0.6783  4.6751  2.3080
 1023MOL0     H38041   7.806   2.068   4.032 -0.7312  0.1586  0.8140
 1023MOL0     H38042   7.707   1.915   3.882 -2.2509  1.4520 -2.5203
 1023MOL0     H38043   7.550   2.003   3.920 -1.5877 -0.7073  2.2430
 1023MOL0     H38044   7.524   1.821   4.031 -0.5205  0.1384 -1.0652
 1023MOL0     H38045   7.564   1.938   4.157  1.1684  1.0375 -0.9151
 1023MOL0     H38046   7.716   1.692   4.077 -0.2408  0.7676 -2.7406
 1023MOL0     H38047   7.812   1.839   4.123  0.1364 -0.0268  1.1601
 1023MOL0     H38048   7.775   1.683   4.303  0.2768  0.7226 -0.3892
 1023MOL0     H38049   7.710   1.840   4.352  1.3505 -0.8352  2.4639
 1023MOL0     H38050   7.474   1.765   4.304 -0.1602 -0.8147 -0.1118
 1023MOL0     H38051   7.549   1.619   4.239 -0.4442 -0.8348  1.3813
 1023MOL0     H38052   7.597   1.536   4.471 -1.0514 -0.5774  3.6864
 1023MOL0     H38053   7.423   1.567   4.438  0.0321  0.5131 -0.3900
 1023MOL0     H38054   7.431   1.777   4.545  0.6805  0.6899  0.2036
 1023MOL0     H38055   7.460   1.632   4.644 -2.2011 -1.0178 -1.2365
 1023MOL0     H38056   7.760   1.571   4.636  0.8133 -0.3109 -0.2692
 1023MOL0     H38057   8.000   1.760   4.826  2.1532 -1.9855  0.1012
 1023MOL0     H38058   8.004   1.638   4.708  1.8306  0.5083  3.8714
 1023MOL0     H38059   8.072   1.784   4.532 -0.0914 -1.8679  0.6891
 1023MOL0     H38060   8.058   1.924   4.634  2.0166 -0.0451 -3.0487
 1023MOL0     H38061   8.242   1.872   4.754 -2.1029  0.5746  0.4105
 1023MOL0     H38062   8.298   1.808   4.594  0.0754  0.9573  0.0292
 1023MOL0     H38063   8.226   1.668   4.833  0.7080  0.2559 -0.2122
 1023MOL0     H38064   8.384   1.691   4.753 -0.6836  2.3618 -0.7988
 1023MOL0     H38065   8.039   1.433   4.596 -1.3395 -0.7795  0.5132
 1023MOL0     H38066   7.925   1.255   4.717 -1.1175  3.7463  0.2673
 1023MOL0     H38067   7.890   1.208   5.212  3.0011  2.0828  2.8450
 1023MOL0     H38068   7.801   1.114   5.422  0.4316  1.2843 -0.9541
 1023MOL0     H38069   7.954   1.016   5.668  0.9353 -0.2024 -2.5295
 1023MOL0     H38070   7.789   1.029   5.612  0.3396  0.8552  0.8521
 1023MOL0     H38071   7.906   0.801   5.774 -1.2408 -0.0997  0.7771
 1023MOL0     H38072   7.807   0.934   5.845 -2.1869  3.5948 -2.3606
 1023MOL0     H38073   7.649   0.821   5.650  0.2740  2.4062  0.2781
 1023MOL0     H38074   7.737   0.682   5.707  2.9340  0.2448  2.0728
 1023MOL0     H38075   7.622   0.888   5.914  0.3800 -1.8047  2.6143
 1023MOL0     H38076   7.660   0.712   5.937  3.0900  0.0064 -1.3072
 1023MOL0     H38077   7.464   0.653   5.785 -4.6076  0.5434 -0.5505
 1023MOL0     H38078   7.443   0.823   5.754  3.9495 -0.3602 -1.4406
 1023MOL0     H38079   7.453   0.720   6.043  2.4966  1.6193 -1.5786
 1023MOL0     H38080   7.352   0.851   5.993  2.5458  0.9137 -0.8486
 1023MOL0     H38081   7.320   0.548   5.937 -3.0251 -2.4014  0.1989
 1023MOL0     H38082   7.217   0.663   5.857  2.0311 -2.3736 -1.4350
 1023MOL0     H38083   7.144   0.749   6.077 -0.2362  0.8796 -0.1400
 1023MOL0     H38084   7.083   0.588   6.049  1.1004 -1.8466 -0.4680
 1023MOL0     H38085   8.060   0.769   5.377 -1.5184  0.5206  0.5857
 1023MOL0     H38086   8.142   0.883   5.150  0.5615  1.3672 -1.0446
 1023MOL0     H38087   8.247   1.250   5.004 -1.6602 -3.8291  0.5583
 1023MOL0     H38088   8.343   1.429   4.898 -0.3070 -0.0031 -0.7091
 1023MOL0     H38089   7.533   2.310   4.259  0.1928  0.4983  0.0735
 1023MOL0     H38090   7.594   2.554   4.324  0.3954 -0.5294  0.9061
 1023MOL0     H38091   7.696   2.962   4.210  1.2413  0.1569 -4.3996
 1023MOL0     H38092   7.727   3.202   4.242 -1.2873 -0.9398  0.5257
 1023MOL0     H38093   8.017   3.348   4.548 -2.5678 -4.8640 -0.3414
 1023MOL0     H38094   8.004   3.481   4.448 -2.1226 -0.8112  3.8904
 1023MOL0     H38095   8.173   3.246   4.370  0.1564 -0.5324  4.3906
 1023MOL0     H38096   8.230   3.403   4.427 -1.0080  0.5436  0.1785
 1023MOL0     H38097   8.252   3.449   4.183  1.9942 -0.7795  0.5101
 1023MOL0     H38098   8.090   3.504   4.225  1.0135  0.6704  2.5096
 1023MOL0     H38099   7.983   3.327   4.152 -0.2532  1.3619 -0.1962
 1023MOL0     H38100   8.094   3.373   4.017 -2.5176  1.8598  0.5017
 1023MOL0     H38101   8.154   2.954   4.095 -1.4755 -0.0573 -3.1367
 1023MOL0     H38102   8.077   3.129   4.465 -0.0149  3.7360 -2.3356
 1023MOL0     H38103   8.133   2.931   4.559  2.5424 -3.0744  0.9596
 1023MOL0     H38104   8.002   2.815   4.536 -3.2053  1.7266 -2.4667
 1023MOL0     H38105   8.149   2.804   4.438  1.4392  0.2384  1.8000
 1024MOL0     O38106   7.085   7.829   7.288  0.1774  0.0452 -0.6246
 1024MOL0     C38107   7.162   7.917   7.303 -0.2369 -0.4781 -0.7191
 1024MOL0     O38108   7.254   7.920   7.414  0.0878 -0.0218 -0.4425
 1024MOL0     C38109   7.300   7.804   7.480 -0.0913 -1.3584 -0.5198
 1024MOL0     C38110   7.340   7.826   7.611 -0.9928  0.9277  0.2856
 1024MOL0     C38111   7.374   7.716   7.687 -0.0066  0.4686 -0.1796
 1024MOL0     C38112   7.367   7.592   7.639  0.1381  0.1347 -0.2785
 1024MOL0     O38113   7.390   7.485   7.733  0.5102  0.3805  0.7225
 1024MOL0     C38114   7.429   7.345   7.696  0.8195  0.6342 -0.5145
 1024MOL0     C38115   7.430   7.276   7.836  0.4142  0.1666 -0.2402
 1024MOL0     C38116   7.300   7.197   7.871  0.0824  0.2489  0.7821
 1024MOL0     C38117   7.165   7.282   7.868 -1.4765  0.2952 -0.2015
 1024MOL0     C38118   7.038   7.198   7.876  0.0966 -0.3241 -0.0548
 1024MOL0     C38119   7.046   7.073   7.966 -0.2958 -0.1017  0.0140
 1024MOL0     C38120   7.044   7.082   8.120  0.6072 -0.6337 -0.0422
 1024MOL0     C38121   7.047   6.940   8.196  0.3939 -0.6338  0.7443
 1024MOL0     N38122   7.145   6.848   8.126 -0.4488  0.1837  0.2572
 1024MOL0     C38123   7.108   6.746   8.041  0.0434  0.3026  0.0158
 1024MOL0     C38124   7.222   6.701   7.993 -0.5825 -0.0311  0.8973
 1024MOL0     C38125   7.240   6.573   7.907 -1.0232 -0.3779  0.8547
 1024MOL0     C38126   7.128   6.472   7.938  0.1582  0.4864 -0.2773
 1024MOL0     C38127   7.147   6.338   7.875 -0.3968  0.1901  0.7639
 1024MOL0     C38128   7.249   6.248   7.953  0.7429 -0.2960  0.2766
 1024MOL0     O38129   7.186   6.155   8.047 -0.0599  0.1075 -0.4427
 1024MOL0     C38130   7.263   6.087   8.145 -0.3458 -0.7115  0.1291
 1024MOL0     C38131   7.404   6.091   8.165  1.1315 -0.2415  0.0050
 1024MOL0     C38132   7.455   6.029   8.281 -0.6861  0.3689 -0.4225
 1024MOL0     C38133   7.354   5.955   8.361 -0.7694  1.8487  0.2236
 1024MOL0     C38134   7.403   5.884   8.483 -0.6285 -0.8659  0.6818
 1024MOL0     O38135   7.516   5.947   8.546  0.4889 -0.2777 -0.2650
 1024MOL0     C38136   7.562   5.894   8.664 -1.4062  0.0099  0.3192
 1024MOL0     C38137   7.581   5.755   8.692  0.1188  0.1074  0.6596
 1024MOL0     C38138   7.629   5.699   8.813 -0.5995 -0.4673 -0.5208
 1024MOL0     C38139   7.682   5.787   8.912  0.8064  0.5185 -0.4012
 1024MOL0     O38140   7.744   5.736   9.030 -0.1913 -0.2332  0.9244
 1024MOL0     C38141   7.767   5.826   9.138 -0.8832  1.2372 -0.0595
 1024MOL0     C38142   7.915   5.877   9.122  0.1465  0.1630  0.1873
 1024MOL0     C38143   8.019   5.768   9.147  1.3304 -0.4390 -0.1291
 1024MOL0     C38144   8.159   5.817   9.115 -0.9564 -0.6973 -0.3385
 1024MOL0     C38145   8.264   5.717   9.169 -0.0479 -0.5586 -0.6358
 1024MOL0     C38146   8.408   5.763   9.139 -0.5242 -0.7789 -0.0913
 1024MOL0     C38147   8.503   5.647   9.186  0.4556 -0.5333 -0.5401
 1024MOL0     C38148   8.650   5.672   9.142  0.2357 -0.6649  0.3654
 1024MOL0    Cl38149   8.710   5.817   9.210  0.4817 -0.0443 -0.2160
 1024MOL0     C38150   7.685   5.921   8.875  0.4654  0.0681 -0.7870
 1024MOL0     C38151   7.622   5.975   8.763 -0.7747  0.4459 -0.7513
 1024MOL0     O38152   7.339   5.787   8.522 -0.4826  0.5878  0.8802
 1024MOL0     C38153   7.225   5.942   8.320  0.0122 -0.0535  0.5499
 1024MOL0     C38154   7.180   6.015   8.216 -0.3475  1.2632  0.8207
 1024MOL0     N38155   7.329   6.792   8.020 -0.1696 -0.2014 -0.6728
 1024MOL0     N38156   7.276   6.874   8.106 -0.8315 -0.9386 -0.9410
 1024MOL0     C38157   7.323   7.570   7.510  0.1728 -0.4689 -0.1145
 1024MOL0     C38158   7.313   7.685   7.426  0.5553 -0.1126  0.3347
 1024MOL0     C38159   7.144   8.039   7.213 -0.3787  0.0168  0.4693
 1024MOL0     C38160   7.059   8.033   7.097 -1.9006  0.4989  0.0773
 1024MOL0     C38161   7.045   8.140   7.019  0.6379 -0.9301 -0.4351
 1024MOL0     C38162   7.113   8.263   7.039  0.2121  1.0822 -0.5006
 1024MOL0     O38163   7.107   8.381   6.967 -0.1296 -0.2786  0.0647
 1024MOL0     C38164   7.038   8.394   6.850  0.5945 -0.6860  0.2644
 1024MOL0     C38165   7.075   8.305   6.732 -0.5544 -0.8967 -0.5006
 1024MOL0     C38166   7.190   8.365   6.654 -0.4454 -0.1153 -0.2477
 1024MOL0     C38167   7.217   8.275   6.526 -0.7527 -1.0206  0.2310
 1024MOL0     C38168   7.312   8.337   6.426  0.2810  0.0142  0.1337
 1024MOL0     C38169   7.401   8.393   6.359 -0.6022 -0.6505  0.5747
 1024MOL0     C38170   7.191   8.269   7.152 -0.5548  0.1517  0.0133
 1024MOL0     C38171   7.209   8.163   7.244  1.1064 -0.5676  0.7081
 1024MOL0     C38172   7.310   8.185   7.354 -0.2683  0.8999  0.4540
 1024MOL0     H38173   7.359   7.928   7.643  1.8747 -0.1225  2.3833
 1024MOL0     H38174   7.399   7.732   7.791 -1.0180 -2.0787  0.5254
 1024MOL0     H38175   7.356   7.296   7.631  1.0619  0.2453 -0.4922
 1024MOL0     H38176   7.526   7.349   7.647  1.1901  0.6113  0.1991
 1024MOL0     H38177   7.450   7.342   7.921  0.6575  0.5012 -0.5559
 1024MOL0     H38178   7.515   7.208   7.826 -0.0735 -0.2114 -2.2457
 1024MOL0     H38179   7.317   7.154   7.970 -0.4677 -1.9148 -0.0183
 1024MOL0     H38180   7.281   7.114   7.803 -0.4115  1.2690 -0.3582
 1024MOL0     H38181   7.172   7.348   7.955 -1.5332 -0.8836  0.7201
 1024MOL0     H38182   7.172   7.347   7.780 -0.9245  1.7071  0.8462
 1024MOL0     H38183   6.965   7.266   7.922  2.7367  2.1957  0.7071
 1024MOL0     H38184   7.002   7.155   7.782  1.5109 -0.7510 -0.4228
 1024MOL0     H38185   6.952   7.018   7.952  0.2126 -1.5430  1.9282
 1024MOL0     H38186   7.126   7.005   7.936  0.7209  1.7435 -1.7698
 1024MOL0     H38187   6.963   7.146   8.157  0.8285 -0.4545  0.1326
 1024MOL0     H38188   7.134   7.133   8.154 -0.4286 -0.0578  1.9870
 1024MOL0     H38189   7.081   6.954   8.299  0.2440 -0.9405  0.8362
 1024MOL0     H38190   6.947   6.898   8.206  0.7071 -2.2795 -1.9350
 1024MOL0     H38191   7.015   6.697   8.016  0.1556 -1.0194  1.9805
 1024MOL0     H38192   7.253   6.596   7.801 -1.4000 -3.4786  0.0434
 1024MOL0     H38193   7.327   6.520   7.946 -0.3356 -0.9500 -1.3400
 1024MOL0     H38194   7.116   6.456   8.045 -0.7979 -2.2485 -0.7018
 1024MOL0     H38195   7.037   6.521   7.905 -0.7626 -0.7661  0.3163
 1024MOL0     H38196   7.201   6.355   7.782  0.5300 -1.2091  1.0074
 1024MOL0     H38197   7.048   6.292   7.865 -1.0005  1.1243  2.1411
 1024MOL0     H38198   7.323   6.315   7.997  0.0116  0.3329  0.5610
 1024MOL0     H38199   7.302   6.185   7.881 -1.4036 -0.8259 -0.9294
 1024MOL0     H38200   7.465   6.143   8.091  0.8884  0.4950  0.3115
 1024MOL0     H38201   7.562   6.027   8.301 -0.3566 -2.2546 -1.8855
 1024MOL0     H38202   7.540   5.689   8.616 -0.6346  0.4772  0.7330
 1024MOL0     H38203   7.636   5.591   8.824  3.2739 -0.2463  0.9920
 1024MOL0     H38204   7.694   5.906   9.152 -2.5646 -0.1127 -0.8003
 1024MOL0     H38205   7.761   5.768   9.230  1.1074  0.2787 -0.4642
 1024MOL0     H38206   7.938   5.926   9.027 -0.5677 -0.2138 -0.1897
 1024MOL0     H38207   7.919   5.955   9.198 -1.3580 -0.8094  1.3201
 1024MOL0     H38208   8.012   5.736   9.252 -1.6941  2.2706  0.6544
 1024MOL0     H38209   7.989   5.679   9.090 -1.1097 -0.7091  1.4083
 1024MOL0     H38210   8.186   5.910   9.166 -1.1776 -1.9032  2.1564
 1024MOL0     H38211   8.184   5.816   9.009  1.2607  5.3222 -0.2742
 1024MOL0     H38212   8.249   5.623   9.114 -0.7309  0.2100 -1.7928
 1024MOL0     H38213   8.261   5.707   9.278  1.0136  1.0269 -0.4392
 1024MOL0     H38214   8.437   5.792   9.037  2.4644 -1.3485  0.5081
 1024MOL0     H38215   8.438   5.852   9.196  0.1065  0.6737 -2.5369
 1024MOL0     H38216   8.467   5.554   9.141  0.5748  0.4043 -2.7027
 1024MOL0     H38217   8.495   5.641   9.295 -1.0090  3.8280 -0.2366
 1024MOL0     H38218   8.716   5.593   9.180  4.5972  1.9436 -1.0314
 1024MOL0     H38219   8.659   5.682   9.033  0.8668  3.6493  0.6176
 1024MOL0     H38220   7.731   5.993   8.943 -0.9075 -1.4881  1.9567
 1024MOL0     H38221   7.630   6.083   8.750 -0.7521  0.4217 -0.9317
 1024MOL0     H38222   7.151   5.887   8.377 -1.2137  0.2244 -0.7266
 1024MOL0     H38223   7.075   6.016   8.186  0.4718  4.0573 -2.6682
 1024MOL0     H38224   7.325   7.469   7.471  1.1206 -0.0590 -1.1472
 1024MOL0     H38225   7.285   7.668   7.323  1.3185 -1.2472  0.2956
 1024MOL0     H38226   7.009   7.942   7.066  0.4369 -0.0928 -2.2860
 1024MOL0     H38227   6.977   8.130   6.935  0.7632  0.7763 -0.7744
 1024MOL0     H38228   7.040   8.501   6.828  0.3197 -0.6994  0.1750
 1024MOL0     H38229   6.933   8.364   6.862  0.6900 -2.1247 -1.9547
 1024MOL0     H38230   6.992   8.288   6.663  1.9371 -1.7078 -3.5369
 1024MOL0     H38231   7.103   8.207   6.771  2.1500  0.2850  0.8174
 1024MOL0     H38232   7.280   8.381   6.714 -1.9895  1.9141  1.7163
 1024MOL0     H38233   7.179   8.468   6.620  2.0326 -0.2799 -1.7678
 1024MOL0     H38234   7.257   8.181   6.564  3.5050  1.0386  1.4843
 1024MOL0     H38235   7.129   8.253   6.465 -0.0010 -3.1474 -0.1678
 1024MOL0     H38236   7.468   8.433   6.286 -1.0354 -0.9761 -0.0107
 1024MOL0     H38237   7.222   8.369   7.180  0.8271  0.1612 -1.4306
 1024MOL0     H38238   7.329   8.291   7.371  2.7544  0.3959  0.8377
 1024MOL0     H38239   7.266   8.180   7.454 -0.6080 -0.3965  0.2616
 1024MOL0     H38240   7.399   8.120   7.349 -2.0810 -1.6464 -1.9178
  11.50184  11.50184  11.50184
